Title
42779
    1SAPS     N    1   6.054   4.507   7.660  0.1822 -0.1998 -0.4437
    1SAPS   HN1    2   6.156   4.528   7.662 -0.1299  1.4420 -0.0457
    1SAPS   HN2    3   6.005   4.598   7.652 -0.3565 -0.6528 -3.2478
    1SAPS   HN3    4   6.031   4.467   7.753 -0.4862  0.3400 -0.3706
    1SAPS   C12    5   6.026   4.420   7.539 -0.0914  0.0385 -0.1914
    1SAPS  H12A    6   6.097   4.338   7.537 -1.2509 -0.9790 -1.2663
    1SAPS   C13    7   5.891   4.361   7.532 -0.0106 -0.0635 -0.1993
    1SAPS  O13A    8   5.813   4.391   7.625  0.5775 -0.5602  0.2273
    1SAPS  O13B    9   5.855   4.287   7.439 -0.2279 -0.2801  0.6150
    1SAPS   C11   10   6.054   4.479   7.404 -0.0656 -0.3484  0.6024
    1SAPS  H11A   11   5.968   4.541   7.370  0.3127 -1.1897 -2.0507
    1SAPS  H11B   12   6.065   4.403   7.325  1.4925  0.1415  0.3158
    1SAPS     P   13   6.198   4.687   7.341 -0.0559  0.4304 -0.5250
    1SAPS   O13   14   6.093   4.775   7.399  0.1840 -1.0438  0.2876
    1SAPS   O14   15   6.336   4.725   7.335 -0.2536 -0.1176 -0.0011
    1SAPS   O12   16   6.182   4.548   7.411  0.1004  0.2797 -0.1923
    1SAPS   O11   17   6.148   4.649   7.201  0.3320 -0.3270 -0.6281
    1SAPS    C1   18   6.213   4.554   7.118  0.1121  0.6763  0.8493
    1SAPS    HA   19   6.272   4.480   7.176 -1.3267 -1.5367 -0.3726
    1SAPS    HB   20   6.140   4.484   7.072  2.4639 -0.4521 -1.3816
    1SAPS    C2   21   6.299   4.628   7.012  0.0689 -0.0702  0.3300
    1SAPS    HS   22   6.363   4.704   7.062  0.1348  1.6958 -2.2272
    1SAPS   O21   23   6.225   4.671   6.899 -0.2387 -0.3683 -0.2620
    1SAPS   C21   24   6.246   4.807   6.870 -0.4201  1.4828  0.4713
    1SAPS   O22   25   6.313   4.881   6.931  0.1178 -0.0340  0.0695
    1SAPS   C22   26   6.134   4.847   6.778  0.0555 -0.6079  0.1448
    1SAPS   H2R   27   6.116   4.764   6.707  1.0246 -0.9044  0.2326
    1SAPS   H2S   28   6.046   4.867   6.844  0.6765  2.9131  0.0981
    1SAPS    C3   29   6.396   4.523   6.957 -0.3428  0.2581 -0.0413
    1SAPS    HX   30   6.465   4.477   7.031  1.5770 -0.1486 -2.0139
    1SAPS    HY   31   6.456   4.575   6.880  2.0663 -2.8705 -0.4352
    1SAPS   O31   32   6.327   4.416   6.891 -0.2633 -0.2363  0.1263
    1SAPS   C31   33   6.403   4.316   6.849  0.1239  0.0600 -0.3145
    1SAPS   O32   34   6.527   4.315   6.861  0.6523 -0.5751  0.2240
    1SAPS   C32   35   6.325   4.194   6.805 -1.0657  0.0064  1.0115
    1SAPS   H2X   36   6.232   4.214   6.748 -0.2679 -2.0481 -1.1911
    1SAPS   H2Y   37   6.308   4.134   6.897  0.5480 -2.4768 -0.2060
    1SAPS   C23   38   6.168   4.974   6.701 -1.1082  0.3790 -0.3531
    1SAPS   H3R   39   6.260   4.952   6.644 -0.8223  0.3251  0.1255
    1SAPS   H3S   40   6.184   5.056   6.774 -1.4655 -0.8516  1.1579
    1SAPS   C24   41   6.050   5.023   6.604  0.1268  0.2066 -0.2404
    1SAPS   H4R   42   6.096   5.109   6.551  0.1861 -1.2536 -2.7213
    1SAPS   H4S   43   5.964   5.058   6.664 -0.5352  1.5027 -1.8629
    1SAPS   C25   44   5.993   4.923   6.503  0.8556 -1.2907 -0.3030
    1SAPS   H5R   45   5.945   4.837   6.552  0.6523 -2.3193 -2.1938
    1SAPS   C26   46   5.986   4.942   6.372 -0.1535 -0.2691 -0.2461
    1SAPS   H6R   47   5.927   4.867   6.319 -0.2874 -0.5005  0.2221
    1SAPS   C27   48   6.046   5.054   6.285 -0.5101  0.2047 -0.2779
    1SAPS   H7R   49   6.146   5.020   6.252  0.3533  2.6569 -0.3684
    1SAPS   H7S   50   6.067   5.146   6.345 -0.6693  0.6909 -0.9643
    1SAPS   C28   51   5.954   5.082   6.168 -0.1047 -0.1738 -0.0297
    1SAPS   H8R   52   5.867   5.145   6.191  1.5992  1.8514  1.1855
    1SAPS   C29   53   5.966   5.013   6.058 -0.7789  0.5332 -0.0280
    1SAPS   H9R   54   5.887   5.014   5.981 -0.3097 -0.6135 -0.5503
    1SAPS  C210   55   6.074   4.915   6.023  0.0351 -0.0904 -0.4186
    1SAPS  H10R   56   6.035   4.822   5.975  1.5214 -0.5785 -0.7313
    1SAPS  H10S   57   6.120   4.865   6.110  1.2696  1.8414  0.0913
    1SAPS  C211   58   6.188   4.967   5.930  0.2703 -0.5236  0.2816
    1SAPS  H11R   59   6.165   5.053   5.865 -0.0212 -1.2944 -0.6602
    1SAPS  C212   60   6.309   4.915   5.923  0.7350 -0.0449  0.5491
    1SAPS  H12R   61   6.388   4.973   5.872 -0.2726  0.7425 -0.1634
    1SAPS  C213   62   6.356   4.792   6.003  0.0619 -0.9860  0.4587
    1SAPS  H13R   63   6.332   4.797   6.111  0.0824 -2.9869  0.5901
    1SAPS  H13S   64   6.467   4.782   6.005  0.1736 -0.3209 -1.0016
    1SAPS  C214   65   6.316   4.661   5.951 -0.0404  0.6242 -0.1258
    1SAPS  H14R   66   6.296   4.668   5.843 -1.4781  1.0803  0.1469
    1SAPS  C215   67   6.323   4.542   6.019 -0.6277 -0.0199  0.0790
    1SAPS  H15R   68   6.298   4.446   5.973  1.2287 -1.1643  1.3195
    1SAPS  C216   69   6.350   4.523   6.164 -0.0981  0.4365  0.4089
    1SAPS  H16R   70   6.410   4.599   6.219  1.4581 -0.6760  0.2991
    1SAPS  H16S   71   6.381   4.420   6.188  0.6771  0.4032 -0.6498
    1SAPS  C217   72   6.219   4.541   6.241  0.3004  0.1299  0.2223
    1SAPS  H17R   73   6.143   4.471   6.199 -0.1665  0.6468  0.1868
    1SAPS  H17S   74   6.190   4.647   6.222  1.0408  0.1713 -0.6924
    1SAPS  C218   75   6.238   4.508   6.392 -0.0231  0.0539 -0.0341
    1SAPS  H18R   76   6.317   4.577   6.429 -1.2093  0.7590  1.2625
    1SAPS  H18S   77   6.271   4.402   6.400 -0.1640  0.0116 -0.0131
    1SAPS  C219   78   6.113   4.526   6.475 -0.5662 -0.4975 -0.2511
    1SAPS  H19R   79   6.022   4.483   6.427 -0.3846  1.0093 -2.0862
    1SAPS  H19S   80   6.083   4.633   6.487 -1.1063 -0.8305  1.7224
    1SAPS  C220   81   6.113   4.451   6.605 -0.7562  0.3203 -0.5118
    1SAPS  H20R   82   6.144   4.347   6.580 -0.2514  0.1936  0.6072
    1SAPS  H20S   83   6.014   4.444   6.656 -0.6642  0.0046 -0.3683
    1SAPS  H20T   84   6.185   4.495   6.677 -1.8891  0.3566  0.6422
    1SAPS   C33   85   6.413   4.126   6.702 -0.9069 -0.1250  0.5094
    1SAPS   H3X   86   6.368   4.028   6.674 -1.4962  0.1314  0.5476
    1SAPS   H3Y   87   6.518   4.112   6.738 -0.5258  1.2915  0.0082
    1SAPS   C34   88   6.442   4.199   6.565 -0.6342  0.7636  0.4020
    1SAPS   H4X   89   6.529   4.267   6.578 -0.1470 -0.1289  2.0628
    1SAPS   H4Y   90   6.339   4.232   6.543 -1.6845 -1.4329  1.6480
    1SAPS   C35   91   6.484   4.100   6.451 -0.6106  0.1865 -0.1788
    1SAPS   H5X   92   6.412   4.016   6.444  0.2241 -0.6120  0.6152
    1SAPS   H5Y   93   6.585   4.059   6.472 -2.1326 -2.5393  2.4815
    1SAPS   C36   94   6.483   4.185   6.318  0.1879  0.3510 -0.5209
    1SAPS   H6X   95   6.532   4.281   6.341 -0.9570  1.3040 -1.9038
    1SAPS   H6Y   96   6.380   4.202   6.280  0.3496  1.8087 -0.3532
    1SAPS   C37   97   6.569   4.126   6.213  0.4439  0.2802 -0.1048
    1SAPS   H7X   98   6.550   4.022   6.181  3.3411 -0.2507 -0.3331
    1SAPS   H7Y   99   6.672   4.123   6.254  1.1940 -2.2336 -1.9698
    1SAPS   C38  100   6.572   4.210   6.085  0.3383  0.1073 -0.2794
    1SAPS   H8X  101   6.665   4.197   6.026 -0.6384  2.2545 -2.4781
    1SAPS   H8Y  102   6.557   4.317   6.114 -3.5440  0.5565 -3.0619
    1SAPS   C39  103   6.461   4.185   5.983  0.1441  0.3384  0.2378
    1SAPS   H9X  104   6.366   4.225   6.025  0.5978 -0.0850  1.7504
    1SAPS   H9Y  105   6.470   4.075   5.974  2.3180  0.4090  1.0504
    1SAPS  C310  106   6.484   4.244   5.839 -0.3749 -0.3535  0.0834
    1SAPS  H10X  107   6.566   4.190   5.787 -2.7975 -2.7832 -1.5088
    1SAPS  H10Y  108   6.524   4.347   5.841 -0.7322 -0.2018  2.2242
    1SAPS  C311  109   6.364   4.242   5.752 -0.0763 -0.1785  0.4302
    1SAPS  H11X  110   6.279   4.291   5.804 -0.3024  0.4582 -0.5132
    1SAPS  H11Y  111   6.322   4.140   5.738  0.5414 -0.3342 -0.3252
    1SAPS  C312  112   6.388   4.285   5.606 -0.0293  0.3981 -0.8392
    1SAPS  H12X  113   6.429   4.388   5.597 -0.9486  0.9928  1.2689
    1SAPS  H12Y  114   6.288   4.293   5.559 -0.8291  4.5017  1.0797
    1SAPS  C313  115   6.482   4.181   5.542 -0.1543 -0.0277  0.1923
    1SAPS  H13X  116   6.459   4.075   5.568  0.1262 -0.3995 -1.0337
    1SAPS  H13Y  117   6.581   4.198   5.589 -0.3514  1.7109  0.0475
    1SAPS  C314  118   6.488   4.193   5.392  0.5565  0.0968 -0.6125
    1SAPS  H14X  119   6.527   4.295   5.368 -0.7005  0.2669 -2.0940
    1SAPS  H14Y  120   6.385   4.205   5.352 -0.3162 -0.2283  1.4469
    1SAPS  C315  121   6.571   4.078   5.333 -0.3614  0.3451  0.6176
    1SAPS  H15X  122   6.523   3.981   5.361  0.0229  0.7167  2.6693
    1SAPS  H15Y  123   6.671   4.080   5.379 -0.4199 -2.4008  1.0582
    1SAPS  C316  124   6.591   4.081   5.176 -0.1362 -0.1051 -0.0812
    1SAPS  H16X  125   6.660   4.002   5.139  2.0363  2.2463 -1.4328
    1SAPS  H16Y  126   6.637   4.177   5.142  1.7024 -1.1128 -0.5975
    1SAPS  C317  127   6.452   4.055   5.109  0.9119 -0.5112 -0.0486
    1SAPS  H17X  128   6.399   4.152   5.110  1.3764 -0.2553  0.1045
    1SAPS  H17Y  129   6.392   3.977   5.161  0.4092  0.5841  1.0524
    1SAPS  C318  130   6.464   4.018   4.963  0.1947 -0.8798 -0.0679
    1SAPS  H18X  131   6.531   4.089   4.909 -0.2107 -0.0131  0.5464
    1SAPS  H18Y  132   6.364   4.015   4.915  0.0045 -1.5426  0.3600
    1SAPS  H18Z  133   6.511   3.919   4.944  3.4295  1.0512 -3.3896
    2SAPS     N  134   0.107   1.062   7.303  0.0038  0.0708 -0.1682
    2SAPS   HN1  135   0.177   1.103   7.238 -1.2002  0.2456 -1.3735
    2SAPS   HN2  136   0.091   0.962   7.282 -0.9426  0.2544 -0.3732
    2SAPS   HN3  137   0.018   1.111   7.280  0.4973  2.5017  2.4629
    2SAPS   C12  138   0.116   1.087   7.449 -0.1147 -0.0708  0.0091
    2SAPS  H12A  139   0.025   1.045   7.489 -0.7866  0.2165 -1.1705
    2SAPS   C13  140   0.227   1.033   7.536  0.3927  0.3502  0.6468
    2SAPS  O13A  141   0.316   0.962   7.484 -0.0805 -0.1084  0.3885
    2SAPS  O13B  142   0.213   1.050   7.660 -0.6175  0.3344 -0.0506
    2SAPS   C11  143   0.102   1.244   7.468 -0.1768 -0.4518  0.9727
    2SAPS  H11A  144   0.199   1.291   7.443 -1.9859  2.7584 -0.7676
    2SAPS  H11B  145   0.072   1.272   7.572 -0.2933  1.4845  0.4612
    2SAPS     P  146   0.005   1.456   7.348  0.1396  0.3707  0.2282
    2SAPS   O13  147  -0.131   1.505   7.315 -0.0972  0.8659  0.0951
    2SAPS   O14  148   0.082   1.528   7.452  0.1093  0.4395 -0.1273
    2SAPS   O12  149   0.002   1.302   7.385  0.2203 -0.2272  0.0786
    2SAPS   O11  150   0.098   1.455   7.219 -0.8772 -0.3747  0.2826
    2SAPS    C1  151   0.121   1.583   7.153 -0.0321  0.3378 -0.9716
    2SAPS    HA  152   0.056   1.666   7.188 -1.2597 -0.6064 -0.9482
    2SAPS    HB  153   0.226   1.611   7.174 -1.0802  2.3000  2.3273
    2SAPS    C2  154   0.102   1.563   6.995 -0.3586 -0.6562  0.0998
    2SAPS    HS  155   0.110   1.455   6.972 -3.0125 -1.1900  1.2967
    2SAPS   O21  156   0.192   1.647   6.906  0.2568 -0.3310  0.7750
    2SAPS   C21  157   0.319   1.623   6.908  0.1632 -0.0196 -0.2219
    2SAPS   O22  158   0.375   1.530   6.964 -0.2000  0.6069  0.3701
    2SAPS   C22  159   0.374   1.707   6.795  0.5822 -0.1109  0.1621
    2SAPS   H2R  160   0.312   1.688   6.705 -1.7782 -1.2079  1.8789
    2SAPS   H2S  161   0.367   1.814   6.824  1.4964 -0.4655  1.7979
    2SAPS    C3  162  -0.049   1.593   6.965  0.5591  0.2243  0.1694
    2SAPS    HX  163  -0.056   1.704   6.970 -2.1530  0.0876  0.9808
    2SAPS    HY  164  -0.096   1.542   7.052 -1.0895 -0.1578 -0.9067
    2SAPS   O31  165  -0.090   1.535   6.844  0.4887 -1.2929 -0.1855
    2SAPS   C31  166  -0.097   1.616   6.733 -0.0843  0.1840 -0.1187
    2SAPS   O32  167  -0.114   1.738   6.734  0.2918 -0.0227 -0.0991
    2SAPS   C32  168  -0.088   1.532   6.613 -0.0169  0.5826  0.4353
    2SAPS   H2X  169  -0.179   1.468   6.612  0.3841 -0.0169 -1.2490
    2SAPS   H2Y  170   0.004   1.471   6.605 -1.4845 -1.9314  1.7689
    2SAPS   C23  171   0.511   1.644   6.760  0.3975 -0.4390  0.7145
    2SAPS   H3R  172   0.495   1.538   6.734  0.1432 -0.1413 -0.3835
    2SAPS   H3S  173   0.578   1.642   6.849  0.9126 -1.5467  0.3154
    2SAPS   C24  174   0.584   1.714   6.648 -0.5029 -0.1769 -0.5621
    2SAPS   H4R  175   0.516   1.727   6.561 -0.3931  0.7162 -0.5244
    2SAPS   H4S  176   0.658   1.643   6.606 -0.1515  0.3573 -0.8663
    2SAPS   C25  177   0.655   1.844   6.689 -1.0372  0.0895  0.2393
    2SAPS   H5R  178   0.696   1.846   6.791 -0.7231 -4.3663  0.3841
    2SAPS   C26  179   0.664   1.951   6.612  0.1948 -0.0720 -0.3028
    2SAPS   H6R  180   0.708   2.041   6.659  1.9103 -1.7641  1.4989
    2SAPS   C27  181   0.612   1.954   6.470 -0.7083 -0.0660 -0.1069
    2SAPS   H7R  182   0.507   1.920   6.461 -1.4585  2.0926 -0.1306
    2SAPS   H7S  183   0.679   1.886   6.412 -1.8652  0.5788 -2.3387
    2SAPS   C28  184   0.627   2.088   6.405  0.3413 -0.3275  0.2967
    2SAPS   H8R  185   0.548   2.161   6.428 -1.4515 -1.3856 -2.1426
    2SAPS   C29  186   0.729   2.139   6.330 -0.3112  0.2149  0.5238
    2SAPS   H9R  187   0.713   2.232   6.275 -1.8372 -0.4184 -0.1586
    2SAPS  C210  188   0.857   2.058   6.296  0.5097 -0.0382 -0.9978
    2SAPS  H10R  189   0.833   1.995   6.208  0.8473 -3.6240  1.2664
    2SAPS  H10S  190   0.883   1.977   6.368 -1.7189  0.6557  0.6949
    2SAPS  C211  191   0.976   2.135   6.259 -0.1461 -0.6973 -0.2309
    2SAPS  H11R  192   1.046   2.133   6.344 -0.6127 -1.6742  0.1480
    2SAPS  C212  193   1.012   2.215   6.156 -0.6539  0.2109  0.0683
    2SAPS  H12R  194   1.112   2.259   6.143 -0.4795  0.0649  0.8875
    2SAPS  C213  195   0.920   2.233   6.035 -0.0846 -0.0765 -0.2812
    2SAPS  H13R  196   0.933   2.339   6.006  1.9613 -0.0484  0.5420
    2SAPS  H13S  197   0.812   2.212   6.046  0.2598 -2.3370 -0.5676
    2SAPS  C214  198   0.979   2.134   5.939  1.1443 -0.1053 -0.5237
    2SAPS  H14R  199   0.960   2.026   5.954  0.0239 -0.1215 -1.9176
    2SAPS  C215  200   1.017   2.171   5.817  0.5122  0.4372 -0.1052
    2SAPS  H15R  201   1.061   2.087   5.762  0.7575  0.6717 -0.2680
    2SAPS  C216  202   1.038   2.303   5.754  0.0672 -0.3198 -0.0902
    2SAPS  H16R  203   1.141   2.339   5.775 -0.4096  0.1172  1.7129
    2SAPS  H16S  204   0.961   2.377   5.785 -0.5289  0.2646 -2.7057
    2SAPS  C217  205   1.030   2.298   5.599  0.5629 -0.4875  0.7734
    2SAPS  H17R  206   1.102   2.220   5.567  2.6358  0.1668  3.4429
    2SAPS  H17S  207   1.058   2.396   5.556  2.2237 -1.2094  0.1014
    2SAPS  C218  208   0.889   2.248   5.544  0.0342  0.9007  0.5178
    2SAPS  H18R  209   0.807   2.304   5.593 -1.7878 -1.8796  0.8422
    2SAPS  H18S  210   0.875   2.142   5.576  1.2249  0.4424 -0.3926
    2SAPS  C219  211   0.876   2.262   5.396 -1.1014  0.8735 -0.2888
    2SAPS  H19R  212   0.876   2.371   5.377 -1.7307  1.1754  1.3518
    2SAPS  H19S  213   0.779   2.218   5.366  0.4053 -0.7756 -3.2640
    2SAPS  C220  214   0.987   2.190   5.328  0.6117 -0.1267  0.0682
    2SAPS  H20R  215   0.970   2.168   5.220  3.5427 -0.1758 -0.4888
    2SAPS  H20S  216   1.004   2.090   5.374  3.3471 -0.7969 -2.0733
    2SAPS  H20T  217   1.082   2.246   5.342 -0.0366  0.6715  1.3837
    2SAPS   C33  218  -0.100   1.615   6.481 -0.2606 -0.0935 -0.0959
    2SAPS   H3X  219  -0.188   1.684   6.479 -1.0867 -1.1245 -0.1198
    2SAPS   H3Y  220  -0.132   1.545   6.401  0.6892  0.8315 -1.3274
    2SAPS   C34  221   0.023   1.695   6.439  0.1066 -0.3154  0.3422
    2SAPS   H4X  222   0.047   1.766   6.521  0.3109  1.0639 -0.8839
    2SAPS   H4Y  223  -0.008   1.750   6.348 -2.2787  1.3344  2.0438
    2SAPS   C35  224   0.142   1.610   6.418 -1.0881  0.3993  0.3150
    2SAPS   H5X  225   0.124   1.520   6.356  0.6453  0.2794 -0.0740
    2SAPS   H5Y  226   0.165   1.562   6.516  0.0768 -0.2907 -0.2719
    2SAPS   C36  227   0.271   1.670   6.362  0.6816 -0.0667  0.2146
    2SAPS   H6X  228   0.349   1.591   6.355  0.4370 -0.2691 -0.3492
    2SAPS   H6Y  229   0.318   1.743   6.431  2.6107 -1.6160  0.6378
    2SAPS   C37  230   0.249   1.720   6.219 -0.4768  0.7378 -0.0928
    2SAPS   H7X  231   0.205   1.822   6.213 -0.5383  0.7361  0.2800
    2SAPS   H7Y  232   0.172   1.656   6.168  0.2785  0.2005 -0.5829
    2SAPS   C38  233   0.374   1.699   6.135  0.3305  0.0020  0.1595
    2SAPS   H8X  234   0.349   1.664   6.033  0.5414  1.5381 -0.4482
    2SAPS   H8Y  235   0.439   1.628   6.190 -0.5211 -1.2076 -0.3317
    2SAPS   C39  236   0.458   1.827   6.120 -0.3855  0.0906 -0.0589
    2SAPS   H9X  237   0.464   1.877   6.219  0.5205 -1.2049  0.5576
    2SAPS   H9Y  238   0.407   1.897   6.050 -0.8776  0.7039  0.8904
    2SAPS  C310  239   0.598   1.802   6.071 -0.4751  0.1029 -0.6960
    2SAPS  H10X  240   0.645   1.717   6.125 -1.0409 -0.2764 -0.7896
    2SAPS  H10Y  241   0.657   1.894   6.091 -0.5512 -0.3692  2.0874
    2SAPS  C311  242   0.602   1.750   5.932  0.1602  0.1884  0.0687
    2SAPS  H11X  243   0.546   1.822   5.868 -0.3520 -1.8972 -1.9948
    2SAPS  H11Y  244   0.556   1.650   5.914 -1.6492  1.3671 -2.4168
    2SAPS  C312  245   0.743   1.754   5.870 -0.6164  0.3640  0.0291
    2SAPS  H12X  246   0.819   1.698   5.930 -0.1713 -0.7202 -1.4807
    2SAPS  H12Y  247   0.771   1.861   5.872  0.7649  0.0801 -1.8146
    2SAPS  C313  248   0.740   1.712   5.714  0.1457  0.3304 -1.1347
    2SAPS  H13X  249   0.685   1.789   5.655  0.5328 -1.5015 -4.0952
    2SAPS  H13Y  250   0.672   1.625   5.723 -0.5555  1.1164  3.7437
    2SAPS  C314  251   0.871   1.667   5.651  0.2664 -0.2362  0.3656
    2SAPS  H14X  252   0.889   1.566   5.693  0.4297 -0.8193 -1.0597
    2SAPS  H14Y  253   0.953   1.735   5.681 -1.8612  1.9664  1.6368
    2SAPS  C315  254   0.862   1.659   5.497  0.8423 -0.4356  0.5120
    2SAPS  H15X  255   0.755   1.641   5.473  0.8117 -0.0266  0.3419
    2SAPS  H15Y  256   0.934   1.584   5.457  0.5204 -1.8609  2.4658
    2SAPS  C316  257   0.899   1.796   5.433  0.6272 -0.4049 -0.1870
    2SAPS  H16X  258   1.006   1.819   5.451  0.2295  1.4444  0.0252
    2SAPS  H16Y  259   0.842   1.878   5.483 -0.3202 -0.6062 -0.8936
    2SAPS  C317  260   0.868   1.810   5.279 -0.4498 -0.4097 -0.1860
    2SAPS  H17X  261   0.950   1.759   5.224  2.5487  2.8316  0.8680
    2SAPS  H17Y  262   0.879   1.914   5.242  0.6125 -0.8729 -1.2398
    2SAPS  C318  263   0.726   1.752   5.241 -0.0379 -0.6358  0.6248
    2SAPS  H18X  264   0.704   1.768   5.133  4.6553 -2.6859 -0.9098
    2SAPS  H18Y  265   0.640   1.790   5.300 -0.4682 -1.0719  0.2873
    2SAPS  H18Z  266   0.725   1.642   5.255 -0.1408 -0.7231 -0.0298
    3SAPS     N  267   6.890   6.390   7.560 -0.1832 -0.4717  0.0588
    3SAPS   HN1  268   6.948   6.373   7.644 -0.1837  1.2343  0.4239
    3SAPS   HN2  269   6.816   6.319   7.542 -1.9081  1.2868  0.0148
    3SAPS   HN3  270   6.957   6.384   7.480  2.2680 -2.1149  2.0669
    3SAPS   C12  271   6.823   6.523   7.572  0.0363  0.2067  0.3016
    3SAPS  H12A  272   6.773   6.504   7.666  2.0075  1.0879  1.5953
    3SAPS   C13  273   6.910   6.649   7.604  0.1397  0.3317  0.8374
    3SAPS  O13A  274   7.030   6.630   7.606 -0.2891 -0.3637  0.2756
    3SAPS  O13B  275   6.861   6.766   7.609  0.1909 -0.2629 -0.0493
    3SAPS   C11  276   6.725   6.548   7.457  0.5708  0.4621  0.1785
    3SAPS  H11A  277   6.784   6.545   7.363  0.9922  0.3438  0.4459
    3SAPS  H11B  278   6.677   6.646   7.476 -1.3310 -0.5850  1.1392
    3SAPS     P  279   6.614   6.312   7.394  0.1158  0.0541 -0.1691
    3SAPS   O13  280   6.689   6.221   7.486  0.3937  0.3994 -0.0639
    3SAPS   O14  281   6.485   6.255   7.347  0.0458 -0.2512 -0.4250
    3SAPS   O12  282   6.610   6.455   7.464  0.2960 -0.2445  0.2371
    3SAPS   O11  283   6.710   6.325   7.261  0.4083  1.2639 -0.3117
    3SAPS    C1  284   6.666   6.402   7.149  0.6899  0.4464 -0.1973
    3SAPS    HA  285   6.566   6.448   7.161  0.6855  0.1026  1.2946
    3SAPS    HB  286   6.733   6.488   7.130  0.7683  0.6212  0.7926
    3SAPS    C2  287   6.665   6.312   7.019  0.2738 -0.4193 -0.7675
    3SAPS    HS  288   6.589   6.233   7.033 -0.2654  0.2091 -0.0591
    3SAPS   O21  289   6.801   6.268   7.006 -0.0267 -0.1855  0.6561
    3SAPS   C21  290   6.813   6.162   6.936 -0.0019 -0.1367  0.3956
    3SAPS   O22  291   6.723   6.091   6.886  0.1168  0.1144  0.0758
    3SAPS   C22  292   6.958   6.138   6.888  0.1635  0.1771  0.0582
    3SAPS   H2R  293   6.970   6.032   6.919 -0.3598  0.2983  0.6904
    3SAPS   H2S  294   6.950   6.142   6.777  0.6817  1.6357  0.0487
    3SAPS    C3  295   6.635   6.399   6.891  0.4149 -0.1091  0.4192
    3SAPS    HX  296   6.716   6.473   6.869  1.3155 -1.6875 -1.9436
    3SAPS    HY  297   6.540   6.456   6.902 -0.5863 -1.5979 -0.2367
    3SAPS   O31  298   6.627   6.324   6.771  0.0258 -0.2215 -0.0954
    3SAPS   C31  299   6.515   6.251   6.755  0.6219 -0.9086 -0.0681
    3SAPS   O32  300   6.425   6.245   6.837  0.3802 -0.5301 -0.0187
    3SAPS   C32  301   6.529   6.172   6.627  0.2060  0.5908  0.3552
    3SAPS   H2X  302   6.445   6.098   6.621 -2.0476  2.8893  1.7265
    3SAPS   H2Y  303   6.620   6.108   6.636 -0.2047 -0.0446  0.1124
    3SAPS   C23  304   7.063   6.244   6.935 -0.6860  0.1977 -0.2249
    3SAPS   H3R  305   7.074   6.248   7.046 -1.3631  0.5678 -0.1679
    3SAPS   H3S  306   7.029   6.342   6.896 -3.3713 -0.5316  0.1339
    3SAPS   C24  307   7.208   6.212   6.893 -0.3436  0.5179  0.3457
    3SAPS   H4R  308   7.223   6.109   6.931  0.8471  1.2454  1.9126
    3SAPS   H4S  309   7.280   6.282   6.940  0.9335 -1.7877  2.0087
    3SAPS   C25  310   7.224   6.206   6.741  0.5510  1.0883 -0.2146
    3SAPS   H5R  311   7.163   6.283   6.692  1.9980  0.5325 -3.1178
    3SAPS   C26  312   7.312   6.133   6.668  0.2767  0.4073 -0.1899
    3SAPS   H6R  313   7.321   6.145   6.559  1.1097 -0.7055 -0.2609
    3SAPS   C27  314   7.404   6.024   6.726  0.3968 -0.6584 -0.7883
    3SAPS   H7R  315   7.414   5.936   6.659  4.0355 -0.5133 -0.6721
    3SAPS   H7S  316   7.360   5.981   6.819 -0.4447  0.3239 -0.7173
    3SAPS   C28  317   7.548   6.072   6.754  0.5254  0.1329  0.2176
    3SAPS   H8R  318   7.581   6.063   6.858 -0.7325 -0.5776  0.5697
    3SAPS   C29  319   7.631   6.111   6.654  0.5210 -0.0340 -0.1214
    3SAPS   H9R  320   7.736   6.135   6.675  0.4471 -0.1056  0.3384
    3SAPS  C210  321   7.604   6.113   6.498 -0.7195  0.2103  0.2728
    3SAPS  H10R  322   7.515   6.051   6.471 -0.5025  0.1231 -0.2441
    3SAPS  H10S  323   7.685   6.058   6.445 -0.5991  0.3340  0.3293
    3SAPS  C211  324   7.592   6.250   6.429 -0.0037  0.6971  0.1711
    3SAPS  H11R  325   7.624   6.336   6.488 -0.6842  1.8164 -1.0344
    3SAPS  C212  326   7.550   6.274   6.307 -1.5399  0.3240  0.2680
    3SAPS  H12R  327   7.549   6.380   6.277  1.2830  0.4202  0.1808
    3SAPS  C213  328   7.501   6.164   6.208 -0.6533  0.1307 -0.8220
    3SAPS  H13R  329   7.471   6.072   6.264 -1.7251 -0.9799 -3.1013
    3SAPS  H13S  330   7.576   6.132   6.134  0.0334 -3.0282  1.0478
    3SAPS  C214  331   7.383   6.230   6.149  0.3497 -0.2420  0.2593
    3SAPS  H14R  332   7.295   6.232   6.216 -0.5505 -0.8976 -0.8828
    3SAPS  C215  333   7.363   6.275   6.018 -0.0822 -0.7982 -0.3584
    3SAPS  H15R  334   7.267   6.325   5.999 -0.0424 -1.2327 -1.7872
    3SAPS  C216  335   7.462   6.281   5.899  0.0653  0.5200 -0.5670
    3SAPS  H16R  336   7.562   6.241   5.929 -1.0427 -1.1367  1.1128
    3SAPS  H16S  337   7.479   6.390   5.885 -2.2984  0.9097 -0.8099
    3SAPS  C217  338   7.417   6.200   5.778  0.0276  0.1488  0.3628
    3SAPS  H17R  339   7.343   6.259   5.718 -0.1132  0.5246  0.9029
    3SAPS  H17S  340   7.381   6.102   5.816  0.0998 -0.9251 -2.1310
    3SAPS  C218  341   7.537   6.175   5.687 -0.0111  0.4038 -0.1095
    3SAPS  H18R  342   7.624   6.151   5.752  0.6233  2.9774  0.1129
    3SAPS  H18S  343   7.578   6.261   5.629 -1.1648  0.1354 -1.3753
    3SAPS  C219  344   7.509   6.052   5.593  0.1123 -0.4963 -0.7276
    3SAPS  H19R  345   7.605   6.039   5.539  1.9502 -0.7061  2.3505
    3SAPS  H19S  346   7.474   5.965   5.652 -0.8570  2.0314  2.8058
    3SAPS  C220  347   7.390   6.084   5.501 -0.4965 -0.0164 -0.0359
    3SAPS  H20R  348   7.393   6.013   5.416  2.1473  0.2343 -0.2357
    3SAPS  H20S  349   7.408   6.187   5.465  0.9093 -0.4532 -0.6519
    3SAPS  H20T  350   7.298   6.077   5.564  0.5105 -2.5182  1.3236
    3SAPS   C33  351   6.533   6.246   6.490 -0.0367 -0.3194  0.2056
    3SAPS   H3X  352   6.585   6.184   6.414 -0.5517 -2.2982  1.3991
    3SAPS   H3Y  353   6.586   6.341   6.513 -0.4235 -0.5024  1.9759
    3SAPS   C34  354   6.401   6.299   6.437  0.0034  1.1166  0.0349
    3SAPS   H4X  355   6.357   6.347   6.527  0.9158 -0.9756  1.7101
    3SAPS   H4Y  356   6.337   6.210   6.421  0.8032  0.5471 -0.0848
    3SAPS   C35  357   6.400   6.363   6.304 -0.1118  0.2753 -0.2248
    3SAPS   H5X  358   6.296   6.390   6.278 -0.4731 -1.0918 -0.2335
    3SAPS   H5Y  359   6.449   6.462   6.315 -1.0581  0.7464 -0.1864
    3SAPS   C36  360   6.469   6.284   6.190  0.2775 -0.0314  0.1883
    3SAPS   H6X  361   6.424   6.186   6.164 -1.8701  1.3635 -1.7022
    3SAPS   H6Y  362   6.575   6.260   6.215  0.5102 -0.4203 -1.0985
    3SAPS   C37  363   6.482   6.385   6.068 -0.0558  0.7464  0.4623
    3SAPS   H7X  364   6.541   6.478   6.082  1.3180 -0.1050  0.4556
    3SAPS   H7Y  365   6.378   6.406   6.034 -0.8915 -1.6868  1.3228
    3SAPS   C38  366   6.549   6.313   5.946  0.2075  0.3336  0.0409
    3SAPS   H8X  367   6.489   6.223   5.919 -1.0029  1.2451 -0.3916
    3SAPS   H8Y  368   6.652   6.285   5.977  0.0975  0.4424  0.5114
    3SAPS   C39  369   6.562   6.409   5.832  0.2007  0.0610  0.2069
    3SAPS   H9X  370   6.661   6.459   5.836  0.8318 -1.2424  2.2486
    3SAPS   H9Y  371   6.489   6.492   5.829  1.9758  1.8774  2.9264
    3SAPS  C310  372   6.556   6.349   5.693  0.2093 -0.2252 -0.1348
    3SAPS  H10X  373   6.577   6.440   5.632  0.4294 -1.1180 -1.4221
    3SAPS  H10Y  374   6.450   6.325   5.670 -0.1022  1.7266 -0.9193
    3SAPS  C311  375   6.661   6.240   5.642  0.2842 -0.5150  0.1082
    3SAPS  H11X  376   6.636   6.136   5.673  0.6525 -1.0169 -1.2006
    3SAPS  H11Y  377   6.761   6.277   5.674 -0.3491  2.8568 -1.3596
    3SAPS  C312  378   6.670   6.230   5.486  0.7656 -0.2216 -0.4027
    3SAPS  H12X  379   6.715   6.327   5.456  0.0865 -0.2979 -1.7696
    3SAPS  H12Y  380   6.573   6.228   5.430  0.6211  0.5906 -0.2014
    3SAPS  C313  381   6.765   6.118   5.443 -0.4584 -0.1398  0.4723
    3SAPS  H13X  382   6.722   6.020   5.472 -1.1650 -0.8189 -2.5220
    3SAPS  H13Y  383   6.857   6.140   5.502  1.6010  0.9782 -2.8604
    3SAPS  C314  384   6.802   6.123   5.299  0.2340  0.2907  0.0968
    3SAPS  H14X  385   6.894   6.063   5.284 -0.5718 -0.6185 -1.3872
    3SAPS  H14Y  386   6.825   6.225   5.263 -0.2300 -0.2377 -1.7627
    3SAPS  C315  387   6.696   6.045   5.216  0.1072  0.0303 -0.2683
    3SAPS  H15X  388   6.704   6.064   5.107 -0.0213  0.3627 -0.2203
    3SAPS  H15Y  389   6.592   6.081   5.231 -0.1544 -0.8512  0.0722
    3SAPS  C316  390   6.695   5.892   5.240 -0.6512 -0.1248  0.4729
    3SAPS  H16X  391   6.638   5.871   5.333 -0.7666  1.6104  0.8252
    3SAPS  H16Y  392   6.802   5.864   5.246 -0.5654  0.3901  1.4521
    3SAPS  C317  393   6.632   5.818   5.117  0.4488  0.2554 -0.4332
    3SAPS  H17X  394   6.620   5.883   5.028 -2.3840  2.9983  1.7227
    3SAPS  H17Y  395   6.523   5.813   5.140  0.7210 -1.2182  0.7053
    3SAPS  C318  396   6.695   5.686   5.088  0.0488  0.5053 -0.1411
    3SAPS  H18X  397   6.671   5.619   5.173 -3.5045  0.3757 -1.0772
    3SAPS  H18Y  398   6.804   5.685   5.066 -0.1970 -0.0284 -1.4317
    3SAPS  H18Z  399   6.659   5.628   5.000 -0.4652 -0.1301  0.4735
    4SAPS     N  400   4.660   3.898   7.202 -0.0415  0.5586  0.1668
    4SAPS   HN1  401   4.684   3.802   7.170 -1.5285  0.2164  0.0184
    4SAPS   HN2  402   4.595   3.943   7.135  0.1691 -0.3982 -0.6992
    4SAPS   HN3  403   4.747   3.955   7.202 -0.0137  0.5161  0.1225
    4SAPS   C12  404   4.612   3.900   7.345  0.7436 -0.1792  0.3039
    4SAPS  H12A  405   4.673   3.829   7.399  1.6327 -0.8959 -1.5718
    4SAPS   C13  406   4.619   4.030   7.428  0.7780 -0.4214  0.3237
    4SAPS  O13A  407   4.648   4.143   7.380 -0.3512 -0.5775  0.1841
    4SAPS  O13B  408   4.595   4.021   7.555 -0.0787 -0.0932  0.2041
    4SAPS   C11  409   4.467   3.843   7.353  0.3753 -0.2553 -0.3804
    4SAPS  H11A  410   4.445   3.830   7.461 -0.5009  0.8989 -0.4040
    4SAPS  H11B  411   4.464   3.742   7.305 -1.6442 -0.1749 -0.5351
    4SAPS     P  412   4.219   3.917   7.304 -0.4164 -0.3524 -0.1755
    4SAPS   O13  413   4.189   3.822   7.411 -0.0616  0.7265 -0.0604
    4SAPS   O14  414   4.162   4.046   7.325 -0.3497 -0.3193 -0.2548
    4SAPS   O12  415   4.375   3.936   7.281 -0.2720  0.8140  0.2141
    4SAPS   O11  416   4.156   3.867   7.160  0.0160  0.1924 -0.2395
    4SAPS    C1  417   4.180   3.735   7.112 -1.3296 -0.1944 -0.0176
    4SAPS    HA  418   4.197   3.661   7.193 -2.6292 -1.1727 -0.6200
    4SAPS    HB  419   4.091   3.697   7.057 -1.1122  1.2270 -1.4315
    4SAPS    C2  420   4.300   3.726   7.013 -0.6575 -0.6217 -1.0135
    4SAPS    HS  421   4.379   3.795   7.048  0.4908 -2.2107 -0.3749
    4SAPS   O21  422   4.238   3.757   6.887 -0.5444 -0.3769 -0.4090
    4SAPS   C21  423   4.227   3.886   6.862 -0.3739 -0.8582  0.8511
    4SAPS   O22  424   4.286   3.980   6.913 -0.4752  0.5174  0.6198
    4SAPS   C22  425   4.139   3.907   6.741 -0.3358  0.1353 -0.1099
    4SAPS   H2R  426   4.206   3.893   6.653  1.8237  4.2486  0.6216
    4SAPS   H2S  427   4.056   3.835   6.728 -0.3585  0.5765 -3.2874
    4SAPS    C3  428   4.367   3.586   7.011 -0.6227  0.1868 -0.4220
    4SAPS    HX  429   4.376   3.566   7.120 -0.3733 -2.0469 -0.7967
    4SAPS    HY  430   4.463   3.606   6.959  0.3827 -0.5709  1.0729
    4SAPS   O31  431   4.288   3.487   6.942 -0.0695 -0.5081  0.0415
    4SAPS   C31  432   4.315   3.367   6.985 -0.3646  0.4708  0.0018
    4SAPS   O32  433   4.392   3.338   7.075 -0.4778 -0.0962 -0.5978
    4SAPS   C32  434   4.247   3.268   6.892  0.7675  0.2552  0.4454
    4SAPS   H2X  435   4.254   3.293   6.784  1.0019 -1.7412 -0.0434
    4SAPS   H2Y  436   4.143   3.286   6.925  1.1084  1.7448  0.7666
    4SAPS   C23  437   4.071   4.048   6.728  0.4833  0.1322  0.9513
    4SAPS   H3R  438   4.138   4.137   6.730  0.2034  0.4064 -0.8266
    4SAPS   H3S  439   3.996   4.063   6.809  1.3209 -0.5120  1.8765
    4SAPS   C24  440   3.991   4.057   6.590  0.4602 -0.6497 -0.2832
    4SAPS   H4R  441   4.060   4.049   6.504  0.6592 -2.4621 -0.0007
    4SAPS   H4S  442   3.935   4.153   6.586 -0.3553 -1.1343 -0.8716
    4SAPS   C25  443   3.884   3.947   6.576  1.1432  0.4542  0.0816
    4SAPS   H5R  444   3.815   3.947   6.662  0.3695  1.5008 -0.5297
    4SAPS   C26  445   3.882   3.836   6.495  0.8602 -0.5427  0.5782
    4SAPS   H6R  446   3.788   3.779   6.500  0.8401 -0.4166  2.8143
    4SAPS   C27  447   3.984   3.807   6.392  0.1957 -0.2948  0.2635
    4SAPS   H7R  448   3.979   3.698   6.372 -2.3082 -0.3350  0.7599
    4SAPS   H7S  449   4.079   3.816   6.449 -1.3863 -0.9348  3.1862
    4SAPS   C28  450   3.960   3.902   6.270 -0.8184 -0.3301  0.6942
    4SAPS   H8R  451   3.979   4.008   6.292  4.0699 -0.5524 -1.3003
    4SAPS   C29  452   3.920   3.879   6.147  1.5034 -0.2596  0.6154
    4SAPS   H9R  453   3.899   3.964   6.080 -0.2077 -1.3972 -0.3621
    4SAPS  C210  454   3.894   3.748   6.083 -0.3155  0.3131 -0.0276
    4SAPS  H10R  455   3.940   3.673   6.151  1.2753  0.3305 -1.0268
    4SAPS  H10S  456   3.944   3.737   5.985 -0.4619 -1.6852  0.0750
    4SAPS  C211  457   3.748   3.729   6.078  0.3252 -0.0947  0.5687
    4SAPS  H11R  458   3.712   3.680   6.170  0.0423 -0.3588  0.3161
    4SAPS  C212  459   3.667   3.772   5.975 -0.5512  0.7685 -0.0072
    4SAPS  H12R  460   3.559   3.766   5.992 -0.0961 -2.1157  2.7850
    4SAPS  C213  461   3.702   3.832   5.840 -0.3180 -0.7905  0.1580
    4SAPS  H13R  462   3.782   3.908   5.852 -2.2947  1.2891  0.9165
    4SAPS  H13S  463   3.617   3.895   5.807  0.7643  1.0990  0.8108
    4SAPS  C214  464   3.722   3.729   5.730 -0.5720  0.0927 -0.0694
    4SAPS  H14R  465   3.653   3.645   5.714  2.4319 -2.5053 -0.5472
    4SAPS  C215  466   3.837   3.729   5.655 -0.4753 -0.6215 -0.0953
    4SAPS  H15R  467   3.841   3.662   5.568 -0.5067  1.1440 -1.5132
    4SAPS  C216  468   3.950   3.826   5.667 -0.8057 -0.0764  0.1948
    4SAPS  H16R  469   4.047   3.772   5.664  0.1908  1.2975  3.5485
    4SAPS  H16S  470   3.956   3.869   5.768  0.7718 -0.5672  0.3358
    4SAPS  C217  471   3.944   3.939   5.566 -0.2768  0.0387 -0.0030
    4SAPS  H17R  472   3.839   3.967   5.545 -0.0458  1.0993  0.1953
    4SAPS  H17S  473   3.981   3.904   5.467 -2.5136  0.7116 -1.1356
    4SAPS  C218  474   4.020   4.065   5.604  0.4859  0.1927  0.1968
    4SAPS  H18R  475   4.123   4.032   5.628 -0.4067 -1.7885  1.6510
    4SAPS  H18S  476   3.980   4.098   5.702 -2.7528  2.3284 -1.6509
    4SAPS  C219  477   3.993   4.179   5.501  0.2342  0.3861 -0.5873
    4SAPS  H19R  478   4.040   4.272   5.538  0.7430 -0.0497 -0.1043
    4SAPS  H19S  479   3.884   4.199   5.500  0.2755  0.6145 -1.3540
    4SAPS  C220  480   4.061   4.155   5.368  0.1096  0.2549  1.1730
    4SAPS  H20R  481   3.985   4.089   5.321 -1.2062  2.1201  0.5919
    4SAPS  H20S  482   4.155   4.098   5.382 -0.5967 -0.6745  2.3329
    4SAPS  H20T  483   4.065   4.241   5.299 -1.9885 -2.6650 -2.9823
    4SAPS   C33  484   4.301   3.123   6.915 -0.2483 -0.3287  0.4494
    4SAPS   H3X  485   4.241   3.041   6.872  0.1358 -1.8295  2.6287
    4SAPS   H3Y  486   4.287   3.103   7.024  1.2398  2.0775  1.1716
    4SAPS   C34  487   4.452   3.096   6.874  0.3088 -0.1526 -0.0649
    4SAPS   H4X  488   4.487   3.002   6.923 -0.5902 -1.1081 -1.1739
    4SAPS   H4Y  489   4.508   3.185   6.908 -1.7282  1.2524 -0.2141
    4SAPS   C35  490   4.472   3.078   6.725  0.0594  0.2162 -0.1345
    4SAPS   H5X  491   4.376   3.028   6.698 -0.2645  0.1238  1.0895
    4SAPS   H5Y  492   4.543   2.994   6.709  0.5996  0.2845  1.6571
    4SAPS   C36  493   4.510   3.206   6.647  0.4052  0.7941 -0.2554
    4SAPS   H6X  494   4.590   3.261   6.701  1.3731 -0.1465 -0.6781
    4SAPS   H6Y  495   4.422   3.272   6.651 -0.3643 -0.2798  1.8559
    4SAPS   C37  496   4.559   3.188   6.505  0.1521  0.3031  0.1989
    4SAPS   H7X  497   4.607   3.089   6.489  0.3007  0.0819  1.8415
    4SAPS   H7Y  498   4.632   3.262   6.466  1.6308 -0.2304  1.8156
    4SAPS   C38  499   4.446   3.175   6.398 -0.0367  0.6357  0.4972
    4SAPS   H8X  500   4.406   3.276   6.372 -3.9120 -1.0832 -1.0523
    4SAPS   H8Y  501   4.365   3.120   6.450 -0.4479 -0.3143 -1.0759
    4SAPS   C39  502   4.481   3.106   6.269 -0.0709  0.3710  0.2603
    4SAPS   H9X  503   4.394   3.106   6.200  0.6739  0.5157 -0.6930
    4SAPS   H9Y  504   4.493   2.996   6.283 -0.8905  0.0745 -1.1693
    4SAPS  C310  505   4.611   3.152   6.196  0.2356  0.2647 -0.2384
    4SAPS  H10X  506   4.693   3.143   6.270  1.0260  1.4930 -0.9252
    4SAPS  H10Y  507   4.601   3.261   6.176  1.4756  0.3009 -0.7520
    4SAPS  C311  508   4.644   3.077   6.069 -0.5821  0.0672 -0.5501
    4SAPS  H11X  509   4.645   2.968   6.088  0.7053 -0.1963 -1.8872
    4SAPS  H11Y  510   4.748   3.099   6.036 -0.7551 -0.0198 -1.1666
    4SAPS  C312  511   4.554   3.113   5.952  0.7430 -0.3428  0.1623
    4SAPS  H12X  512   4.542   3.223   5.946 -0.5778 -0.2389  3.0674
    4SAPS  H12Y  513   4.455   3.066   5.970  0.9568 -1.5477 -1.5380
    4SAPS  C313  514   4.594   3.064   5.811  0.2080 -0.6442 -0.1462
    4SAPS  H13X  515   4.588   2.954   5.799  1.9491 -0.6476 -1.3896
    4SAPS  H13Y  516   4.700   3.090   5.789  0.5661 -1.5430  0.4648
    4SAPS  C314  517   4.502   3.130   5.704  0.0030  0.0556  0.2762
    4SAPS  H14X  518   4.529   3.238   5.711 -0.2141  0.0246  2.0316
    4SAPS  H14Y  519   4.399   3.099   5.729  0.6434 -0.4952  2.4597
    4SAPS  C315  520   4.524   3.076   5.560 -0.9855 -0.3380  0.3451
    4SAPS  H15X  521   4.490   2.973   5.537  1.7836 -1.5529  1.3123
    4SAPS  H15Y  522   4.630   3.086   5.531 -1.8161  1.0180 -2.5709
    4SAPS  C316  523   4.453   3.170   5.464  0.2761 -0.2218 -1.1353
    4SAPS  H16X  524   4.455   3.271   5.510 -1.5063 -1.2689  1.4824
    4SAPS  H16Y  525   4.344   3.149   5.459  0.3576 -0.7411 -0.7667
    4SAPS  C317  526   4.510   3.186   5.327 -0.0340 -0.3110  0.9081
    4SAPS  H17X  527   4.608   3.238   5.335  0.7040 -1.7622  1.6638
    4SAPS  H17Y  528   4.446   3.256   5.269 -0.0663  1.4984  2.9936
    4SAPS  C318  529   4.526   3.053   5.255 -0.8595 -0.2607 -0.5250
    4SAPS  H18X  530   4.597   2.990   5.313 -0.8879  0.9736  0.9209
    4SAPS  H18Y  531   4.567   3.066   5.152  0.6104  1.2640  0.1999
    4SAPS  H18Z  532   4.430   2.998   5.244 -0.9049 -0.1781 -0.5410
    5SAPS     N  533   3.203   5.580   7.394 -0.0911 -0.2880 -0.3143
    5SAPS   HN1  534   3.112   5.622   7.368 -0.0500 -0.7014 -1.1720
    5SAPS   HN2  535   3.208   5.567   7.497 -1.1577 -1.3905 -0.3735
    5SAPS   HN3  536   3.278   5.646   7.366 -1.0345  1.0081  0.1619
    5SAPS   C12  537   3.225   5.454   7.331  0.0836  0.2859  0.3181
    5SAPS  H12A  538   3.217   5.484   7.228 -1.9501  1.4147  0.7532
    5SAPS   C13  539   3.368   5.398   7.365  0.0276  0.4439  0.0509
    5SAPS  O13A  540   3.450   5.466   7.427 -0.3434 -0.1852 -0.6837
    5SAPS  O13B  541   3.401   5.292   7.310  0.5792 -0.6642 -0.3087
    5SAPS   C11  542   3.119   5.357   7.379 -0.2410  0.1119 -0.0354
    5SAPS  H11A  543   3.130   5.356   7.490  0.0982 -0.8157 -0.0709
    5SAPS  H11B  544   3.130   5.254   7.339 -1.8688 -0.8992  1.9873
    5SAPS     P  545   2.853   5.347   7.380  0.4381 -0.0997 -0.2730
    5SAPS   O13  546   2.868   5.322   7.524  0.5611 -0.0285 -0.0405
    5SAPS   O14  547   2.744   5.440   7.337 -0.0217 -0.4009  0.0993
    5SAPS   O12  548   2.985   5.414   7.338 -0.1485 -0.0979 -0.0970
    5SAPS   O11  549   2.847   5.213   7.308 -0.4675  0.0038  0.3074
    5SAPS    C1  550   2.891   5.194   7.178  0.1779 -0.4145 -0.7030
    5SAPS    HA  551   2.956   5.279   7.147 -1.0542  0.2813 -1.4850
    5SAPS    HB  552   2.943   5.098   7.159  1.1108  0.3731 -2.3632
    5SAPS    C2  553   2.784   5.206   7.074  0.4341  0.3956  0.0127
    5SAPS    HS  554   2.742   5.308   7.063  1.0068  0.4060 -3.1106
    5SAPS   O21  555   2.681   5.111   7.089 -0.0152  0.0950  0.4193
    5SAPS   C21  556   2.568   5.118   7.028  0.4532  0.4783 -0.2377
    5SAPS   O22  557   2.516   5.216   6.977  0.5258 -0.2003  0.3732
    5SAPS   C22  558   2.522   4.975   7.023 -0.5320  0.0382  0.0708
    5SAPS   H2R  559   2.572   4.930   6.935 -0.8211 -1.1615  0.4971
    5SAPS   H2S  560   2.545   4.916   7.115 -2.1148  0.8699  1.0632
    5SAPS    C3  561   2.849   5.191   6.933 -0.3933  0.0208  0.6839
    5SAPS    HX  562   2.914   5.101   6.941  0.6910  0.6138 -0.9810
    5SAPS    HY  563   2.923   5.271   6.916 -0.3772 -0.0560  0.3845
    5SAPS   O31  564   2.759   5.176   6.816  0.4700  0.7400  0.5063
    5SAPS   C31  565   2.713   5.290   6.774  0.5983 -0.3079  0.1779
    5SAPS   O32  566   2.733   5.401   6.824  0.3304  0.3263  0.0389
    5SAPS   C32  567   2.637   5.268   6.646  0.0169  0.0986 -0.0408
    5SAPS   H2X  568   2.565   5.185   6.664  0.9009 -1.4583 -3.0437
    5SAPS   H2Y  569   2.707   5.231   6.568  0.7333  1.9225 -0.3199
    5SAPS   C23  570   2.367   4.959   7.023  0.0492 -0.5012 -0.1716
    5SAPS   H3R  571   2.323   5.061   7.025 -0.7738 -0.8613  0.8264
    5SAPS   H3S  572   2.342   4.914   7.122  2.9255 -0.4688  0.6408
    5SAPS   C24  573   2.320   4.866   6.911 -0.4499 -0.4608  0.3393
    5SAPS   H4R  574   2.216   4.831   6.925 -0.9300  1.4498  2.0635
    5SAPS   H4S  575   2.382   4.775   6.893  0.9670  0.7670 -1.4004
    5SAPS   C25  576   2.304   4.948   6.788 -0.2737  0.4494 -0.1194
    5SAPS   H5R  577   2.223   5.022   6.801 -1.8304 -1.0747 -0.7128
    5SAPS   C26  578   2.371   4.936   6.671 -0.5948  0.4307  0.3596
    5SAPS   H6R  579   2.353   5.004   6.587 -3.1647 -0.3111  0.2346
    5SAPS   C27  580   2.489   4.850   6.645 -0.3485  0.5723  0.0062
    5SAPS   H7R  581   2.466   4.794   6.552 -0.2977  1.3272 -0.4736
    5SAPS   H7S  582   2.488   4.769   6.721 -2.0174 -1.9455 -2.4843
    5SAPS   C28  583   2.628   4.919   6.631  0.5314  0.9552 -0.9280
    5SAPS   H8R  584   2.690   4.942   6.720  2.1897 -0.8755 -1.5250
    5SAPS   C29  585   2.684   4.960   6.513 -0.1649  0.2411  0.9911
    5SAPS   H9R  586   2.783   5.007   6.521  0.5847 -1.0212 -0.3682
    5SAPS  C210  587   2.641   4.946   6.363  0.2141 -0.3393 -0.7023
    5SAPS  H10R  588   2.708   5.009   6.300  0.6012  0.6792  0.6685
    5SAPS  H10S  589   2.540   4.984   6.339 -0.2216 -1.1880 -0.2207
    5SAPS  C211  590   2.670   4.804   6.319 -0.3835 -0.7811 -0.0136
    5SAPS  H11R  591   2.640   4.728   6.393 -2.0783  1.9777  2.3562
    5SAPS  C212  592   2.705   4.780   6.193 -0.2422 -0.2623 -0.8907
    5SAPS  H12R  593   2.707   4.676   6.158  0.3085 -0.3620 -0.5579
    5SAPS  C213  594   2.722   4.876   6.079  0.6249  0.2564  0.1417
    5SAPS  H13R  595   2.795   4.835   6.006  1.2499  1.2654  0.1778
    5SAPS  H13S  596   2.757   4.976   6.111 -0.3671  0.3707  0.8894
    5SAPS  C214  597   2.583   4.877   6.011 -0.0237 -0.2180  0.3620
    5SAPS  H14R  598   2.496   4.844   6.070 -0.5671  0.4588 -0.0362
    5SAPS  C215  599   2.553   4.904   5.882 -0.2876 -0.4863  0.6234
    5SAPS  H15R  600   2.453   4.896   5.837  1.3696 -0.4565 -3.4274
    5SAPS  C216  601   2.652   4.947   5.772  0.2970  0.1455 -0.0713
    5SAPS  H16R  602   2.740   4.994   5.821  1.1502 -2.1490  0.7177
    5SAPS  H16S  603   2.603   5.025   5.711  3.5189  0.2112 -2.9370
    5SAPS  C217  604   2.701   4.847   5.657  0.0853  0.5606 -0.8183
    5SAPS  H17R  605   2.746   4.905   5.573  1.0730 -2.1410 -2.2603
    5SAPS  H17S  606   2.606   4.803   5.621 -0.1689 -2.1271  2.5807
    5SAPS  C218  607   2.780   4.727   5.704 -0.5795  0.6786  0.0758
    5SAPS  H18R  608   2.721   4.684   5.788 -1.3636  0.1822 -0.7140
    5SAPS  H18S  609   2.882   4.752   5.742  0.0179  1.2112 -1.7942
    5SAPS  C219  610   2.797   4.604   5.606 -0.8180  0.0843  0.2906
    5SAPS  H19R  611   2.833   4.525   5.676  0.8719  1.9859  1.6835
    5SAPS  H19S  612   2.874   4.630   5.531  0.3367  1.0846  1.7658
    5SAPS  C220  613   2.671   4.556   5.540  0.3457 -0.2630  0.3833
    5SAPS  H20R  614   2.578   4.553   5.602 -0.4703 -0.5377 -0.8148
    5SAPS  H20S  615   2.692   4.464   5.482  0.8408 -1.3988  2.2705
    5SAPS  H20T  616   2.642   4.639   5.472  2.3149 -1.8205 -2.5691
    5SAPS   C33  617   2.542   5.383   6.604  0.0141  0.1628 -0.6520
    5SAPS   H3X  618   2.596   5.469   6.559 -1.1958  2.0950  1.3963
    5SAPS   H3Y  619   2.491   5.427   6.693 -3.2019 -0.9792 -1.7751
    5SAPS   C34  620   2.428   5.335   6.515  0.2237  0.1085 -0.0741
    5SAPS   H4X  621   2.335   5.394   6.529 -0.9217 -1.8056  0.8602
    5SAPS   H4Y  622   2.398   5.230   6.538  1.1389  0.1593  1.5101
    5SAPS   C35  623   2.462   5.351   6.363  0.7346  0.4518 -0.0120
    5SAPS   H5X  624   2.557   5.299   6.341  1.0735  1.6596 -1.5543
    5SAPS   H5Y  625   2.476   5.460   6.346  0.2221  0.5332  0.0805
    5SAPS   C36  626   2.362   5.281   6.272 -0.4068 -0.2895  0.1031
    5SAPS   H6X  627   2.262   5.320   6.302  0.5083  0.8001  1.9149
    5SAPS   H6Y  628   2.360   5.170   6.281  1.1125 -0.2765  1.1013
    5SAPS   C37  629   2.393   5.314   6.122  0.0341  0.4332  0.0181
    5SAPS   H7X  630   2.499   5.289   6.102  0.5462  1.4501  1.3319
    5SAPS   H7Y  631   2.385   5.424   6.107 -0.5141  0.2539 -1.1567
    5SAPS   C38  632   2.305   5.242   6.026 -0.0768  0.4470  0.8512
    5SAPS   H8X  633   2.354   5.147   5.994  2.6127  2.3832 -1.2544
    5SAPS   H8Y  634   2.303   5.295   5.929  0.1652 -2.1488 -0.6802
    5SAPS   C39  635   2.159   5.217   6.061  0.4224  1.0217 -0.1449
    5SAPS   H9X  636   2.098   5.297   6.108 -1.5289  0.0084 -0.8230
    5SAPS   H9Y  637   2.159   5.130   6.130  0.0502  1.3083  0.2205
    5SAPS  C310  638   2.079   5.182   5.930 -0.3412 -0.3182 -0.4372
    5SAPS  H10X  639   2.111   5.260   5.857  3.7621  0.1386  1.5665
    5SAPS  H10Y  640   1.975   5.194   5.966 -0.0178 -0.9662  0.7601
    5SAPS  C311  641   2.091   5.038   5.879 -0.0880 -0.3786 -0.1563
    5SAPS  H11X  642   1.992   5.001   5.846 -0.2570 -1.0481  1.0447
    5SAPS  H11Y  643   2.130   4.974   5.961 -0.8050  0.0707  0.5539
    5SAPS  C312  644   2.194   5.026   5.767 -0.1868  0.4021 -0.1939
    5SAPS  H12X  645   2.252   4.931   5.774 -0.5550  0.2363  0.7581
    5SAPS  H12Y  646   2.262   5.111   5.788 -0.3252  0.9381 -1.7939
    5SAPS  C313  647   2.141   5.051   5.624  0.4667 -0.0579 -0.1655
    5SAPS  H13X  648   2.131   5.161   5.616  0.8739  0.0161  0.2794
    5SAPS  H13Y  649   2.040   5.005   5.619  0.9045 -0.8886 -1.9962
    5SAPS  C314  650   2.234   5.006   5.512  0.0559  0.1897  1.1728
    5SAPS  H14X  651   2.170   4.961   5.433 -0.8377  1.6582  1.0329
    5SAPS  H14Y  652   2.282   4.908   5.536 -2.8888 -2.4147 -2.3979
    5SAPS  C315  653   2.350   5.097   5.479  0.5777 -0.1406 -0.4748
    5SAPS  H15X  654   2.403   5.121   5.573  1.0040 -0.9830 -0.4950
    5SAPS  H15Y  655   2.319   5.193   5.432 -0.7126 -0.0010  0.6022
    5SAPS  C316  656   2.457   5.035   5.388 -0.7952 -0.7722  0.3190
    5SAPS  H16X  657   2.421   5.007   5.287  2.2497 -0.3057 -1.0278
    5SAPS  H16Y  658   2.510   4.951   5.438 -0.3500 -0.3663  0.5390
    5SAPS  C317  659   2.568   5.144   5.364  0.0878  0.1942  1.0589
    5SAPS  H17X  660   2.612   5.163   5.464  1.5883 -0.8714  0.6406
    5SAPS  H17Y  661   2.539   5.239   5.313 -0.2615 -0.0073  0.8803
    5SAPS  C318  662   2.683   5.092   5.274  0.6811 -0.4282 -0.5381
    5SAPS  H18X  663   2.704   4.986   5.299 -2.7683 -0.8371  1.3031
    5SAPS  H18Y  664   2.779   5.147   5.280  0.7325 -0.4037 -1.4593
    5SAPS  H18Z  665   2.654   5.108   5.168 -0.3747  1.7966  0.0290
    6SAPS     N  666   4.504   6.807   7.457 -0.2650  0.0049  0.1877
    6SAPS   HN1  667   4.528   6.887   7.518 -1.2029  0.1340  0.4136
    6SAPS   HN2  668   4.570   6.817   7.378  0.9992 -3.0038  0.7184
    6SAPS   HN3  669   4.405   6.802   7.426 -0.2154  1.3097 -0.2408
    6SAPS   C12  670   4.535   6.675   7.532  0.6249  0.9553 -0.1024
    6SAPS  H12A  671   4.632   6.686   7.577  1.2289 -0.2680 -1.0413
    6SAPS   C13  672   4.442   6.639   7.642  0.0836  0.1285 -0.4293
    6SAPS  O13A  673   4.373   6.733   7.696  0.3131 -0.4473 -0.2962
    6SAPS  O13B  674   4.463   6.530   7.710  0.2938 -0.2415 -0.1998
    6SAPS   C11  675   4.542   6.548   7.429 -0.5065 -0.3662  0.2946
    6SAPS  H11A  676   4.551   6.454   7.488  0.5921 -1.2800 -1.2516
    6SAPS  H11B  677   4.637   6.571   7.376 -0.4057  0.0399  0.6498
    6SAPS     P  678   4.433   6.453   7.211  0.0669 -0.1456 -0.0170
    6SAPS   O13  679   4.434   6.311   7.255 -0.1520 -0.1800 -0.9433
    6SAPS   O14  680   4.316   6.489   7.128  0.0092 -0.1697  0.1228
    6SAPS   O12  681   4.438   6.544   7.334 -0.5344 -0.3135 -0.1977
    6SAPS   O11  682   4.571   6.475   7.145  0.2761 -0.3053  0.0328
    6SAPS    C1  683   4.592   6.562   7.027 -0.2892  0.4714  0.1584
    6SAPS    HA  684   4.527   6.652   7.036 -2.6290 -1.0688 -0.5627
    6SAPS    HB  685   4.696   6.600   7.030 -0.0076 -0.2635 -0.0900
    6SAPS    C2  686   4.570   6.482   6.899 -0.5617 -1.1488 -0.6798
    6SAPS    HS  687   4.607   6.546   6.817  3.5851  1.1260  2.5565
    6SAPS   O21  688   4.442   6.418   6.892  0.1210 -0.0657  0.5994
    6SAPS   C21  689   4.344   6.482   6.829 -0.2227 -0.3483 -0.6934
    6SAPS   O22  690   4.350   6.591   6.766  0.1470  0.4120 -0.2653
    6SAPS   C22  691   4.216   6.390   6.839 -0.2405 -0.2019 -0.5545
    6SAPS   H2R  692   4.239   6.298   6.896  1.7756  0.6786  0.1547
    6SAPS   H2S  693   4.147   6.454   6.899  2.3980  2.4895 -0.1283
    6SAPS    C3  694   4.669   6.361   6.903 -0.4563  0.3495  0.2802
    6SAPS    HX  695   4.641   6.294   6.987  2.1960  0.1163  1.0563
    6SAPS    HY  696   4.770   6.393   6.935  0.6357 -1.8928 -0.6765
    6SAPS   O31  697   4.691   6.297   6.780  0.4739 -0.5277  0.2283
    6SAPS   C31  698   4.596   6.209   6.742 -0.0025  0.0807  0.0246
    6SAPS   O32  699   4.549   6.126   6.815 -0.9216  0.4266  0.1782
    6SAPS   C32  700   4.576   6.213   6.588 -0.3169  0.7628  0.1339
    6SAPS   H2X  701   4.673   6.184   6.543 -1.5921 -3.3827 -0.3491
    6SAPS   H2Y  702   4.550   6.312   6.545  2.6514  0.2619 -3.2661
    6SAPS   C23  703   4.150   6.356   6.705 -0.4485  0.3071 -0.0409
    6SAPS   H3R  704   4.071   6.280   6.723  1.2869 -1.9239 -1.2769
    6SAPS   H3S  705   4.214   6.288   6.645  0.1139  0.4962  0.3302
    6SAPS   C24  706   4.087   6.470   6.629  0.0492 -0.1412  0.7928
    6SAPS   H4R  707   4.163   6.542   6.591  1.2643 -1.8541 -0.2070
    6SAPS   H4S  708   4.038   6.530   6.708 -1.2987 -0.4982  0.2490
    6SAPS   C25  709   3.994   6.425   6.509  0.3198 -0.0313 -0.4253
    6SAPS   H5R  710   3.886   6.414   6.525  0.4617 -1.5793 -0.3869
    6SAPS   C26  711   4.030   6.394   6.389 -0.5453 -0.5031  0.0231
    6SAPS   H6R  712   3.949   6.389   6.315 -2.7677  0.6646  2.2338
    6SAPS   C27  713   4.168   6.394   6.335 -0.6179  0.0641 -0.1893
    6SAPS   H7R  714   4.237   6.416   6.419 -0.8786  0.9820 -0.2036
    6SAPS   H7S  715   4.181   6.470   6.254 -0.8312 -0.2240 -0.4981
    6SAPS   C28  716   4.188   6.251   6.288 -0.6469 -0.2208 -0.0178
    6SAPS   H8R  717   4.217   6.183   6.370 -0.0404  0.2721  0.1842
    6SAPS   C29  718   4.186   6.203   6.165  0.9050 -0.0865  0.0579
    6SAPS   H9R  719   4.191   6.093   6.166  0.1252 -0.1271 -0.0986
    6SAPS  C210  720   4.155   6.272   6.035  0.4906  0.5252 -0.3144
    6SAPS  H10R  721   4.200   6.215   5.950  2.0265  0.3937  0.5424
    6SAPS  H10S  722   4.208   6.370   6.029  0.0973  0.6366 -2.7940
    6SAPS  C211  723   4.008   6.282   6.011 -0.6329  0.6208 -1.1805
    6SAPS  H11R  724   3.948   6.272   6.103  0.9586 -0.4516 -0.2188
    6SAPS  C212  725   3.950   6.325   5.902  0.1071 -0.4969  0.0487
    6SAPS  H12R  726   3.841   6.339   5.909  0.0485 -1.0397  0.3053
    6SAPS  C213  727   4.012   6.365   5.775  0.0682 -0.5039 -0.3451
    6SAPS  H13R  728   4.090   6.289   5.753 -0.5608 -2.3363  2.9980
    6SAPS  H13S  729   4.050   6.468   5.792 -1.4324 -0.2526  1.8802
    6SAPS  C214  730   3.913   6.360   5.666  0.0816 -0.0076  0.4070
    6SAPS  H14R  731   3.817   6.315   5.697  0.6372  0.3799  2.8699
    6SAPS  C215  732   3.929   6.387   5.533 -0.3102 -0.4652 -0.9935
    6SAPS  H15R  733   3.840   6.391   5.469 -0.6444  1.5092 -0.4809
    6SAPS  C216  734   4.051   6.436   5.459  0.6676 -0.2834 -1.0135
    6SAPS  H16R  735   4.139   6.464   5.520 -0.1981  0.5735 -0.1210
    6SAPS  H16S  736   4.012   6.521   5.399  2.4810 -0.1711 -2.0980
    6SAPS  C217  737   4.108   6.340   5.351 -0.3335 -0.7058 -0.4038
    6SAPS  H17R  738   4.187   6.394   5.295  1.1224 -0.0952  2.0412
    6SAPS  H17S  739   4.021   6.308   5.291 -1.3402  1.6574 -0.3236
    6SAPS  C218  740   4.168   6.206   5.416  0.1254 -0.2557  0.4759
    6SAPS  H18R  741   4.105   6.186   5.506  0.5488 -0.6198  0.6929
    6SAPS  H18S  742   4.268   6.220   5.462 -0.1440 -1.6325  1.5676
    6SAPS  C219  743   4.184   6.085   5.317  0.2963 -0.5798 -0.0140
    6SAPS  H19R  744   4.091   6.057   5.264 -0.7605  0.5426  1.1671
    6SAPS  H19S  745   4.210   5.997   5.379  0.0907  0.7535  2.0664
    6SAPS  C220  746   4.285   6.094   5.203  0.1684 -0.7286 -0.2811
    6SAPS  H20R  747   4.250   6.169   5.128  2.2326  2.4661  1.7024
    6SAPS  H20S  748   4.290   5.994   5.156 -0.5058 -0.9026  0.0032
    6SAPS  H20T  749   4.379   6.139   5.241 -0.4261  1.0197 -0.7651
    6SAPS   C33  750   4.463   6.112   6.546 -0.1430 -0.0304  0.2790
    6SAPS   H3X  751   4.421   6.144   6.448 -0.9544 -1.1464  0.2429
    6SAPS   H3Y  752   4.385   6.119   6.625  0.5915 -0.7039  1.0893
    6SAPS   C34  753   4.511   5.966   6.518 -0.6032 -0.4759  0.1428
    6SAPS   H4X  754   4.423   5.901   6.498 -0.4793 -0.6221  0.0703
    6SAPS   H4Y  755   4.551   5.928   6.614  0.3472 -0.8385 -0.3829
    6SAPS   C35  756   4.615   5.948   6.400 -0.3935  0.2790  0.2182
    6SAPS   H5X  757   4.651   5.843   6.406 -0.9486  0.0371 -0.5177
    6SAPS   H5Y  758   4.701   6.017   6.409 -0.4709  0.4693 -0.4714
    6SAPS   C36  759   4.552   5.979   6.267  0.2868  0.1698  0.0151
    6SAPS   H6X  760   4.538   6.089   6.279 -1.0528 -0.1335  1.5377
    6SAPS   H6Y  761   4.456   5.926   6.252 -1.5010  2.6241  1.7445
    6SAPS   C37  762   4.644   5.956   6.143 -0.0353 -0.0623 -0.5416
    6SAPS   H7X  763   4.690   5.856   6.160 -0.4640 -0.1724  0.0042
    6SAPS   H7Y  764   4.720   6.037   6.138 -0.4244  0.4272  0.9551
    6SAPS   C38  765   4.566   5.967   6.016 -0.1048  0.0542  0.5317
    6SAPS   H8X  766   4.521   6.061   5.981  0.3325 -0.1871 -0.7221
    6SAPS   H8Y  767   4.478   5.899   6.022  0.9554 -1.2837  1.6460
    6SAPS   C39  768   4.651   5.918   5.901 -0.8302 -0.1683 -0.0392
    6SAPS   H9X  769   4.590   5.912   5.808 -1.2437 -0.2755  0.2384
    6SAPS   H9Y  770   4.682   5.812   5.914  3.0630  0.7441 -0.4614
    6SAPS  C310  771   4.777   6.003   5.888  0.3181 -0.4025 -0.1834
    6SAPS  H10X  772   4.854   5.983   5.967 -1.7106 -1.4894  1.6237
    6SAPS  H10Y  773   4.747   6.110   5.892  3.3415  0.6501 -1.9368
    6SAPS  C311  774   4.842   5.989   5.750 -0.3423 -0.5704  0.2460
    6SAPS  H11X  775   4.760   6.002   5.677  0.7419  1.3825 -0.7061
    6SAPS  H11Y  776   4.883   5.886   5.745 -1.9175 -1.2938  1.3043
    6SAPS  C312  777   4.964   6.088   5.718  0.1423  0.4159 -0.2366
    6SAPS  H12X  778   5.034   6.105   5.803 -0.0843  1.0940 -0.1815
    6SAPS  H12Y  779   4.926   6.192   5.723  1.1061  0.8637 -1.4924
    6SAPS  C313  780   5.024   6.060   5.582  0.5263  0.0008 -0.3610
    6SAPS  H13X  781   5.089   6.146   5.557  0.7806  0.6158  2.0760
    6SAPS  H13Y  782   4.942   6.048   5.508  1.0581  2.4284 -1.4362
    6SAPS  C314  783   5.114   5.942   5.589  0.0635 -0.0358 -0.1716
    6SAPS  H14X  784   5.060   5.848   5.613  1.9192 -1.2579 -0.5229
    6SAPS  H14Y  785   5.185   5.949   5.674 -1.7675 -3.0006  1.7923
    6SAPS  C315  786   5.190   5.926   5.456  0.2095  0.1570 -0.1613
    6SAPS  H15X  787   5.240   6.021   5.427  0.0562  1.0375  2.2408
    6SAPS  H15Y  788   5.123   5.898   5.373 -2.1873  2.1218  0.9746
    6SAPS  C316  789   5.305   5.819   5.470 -0.6615 -0.1011  0.2783
    6SAPS  H16X  790   5.266   5.718   5.493  1.6838 -0.6309  2.5159
    6SAPS  H16Y  791   5.385   5.844   5.544 -1.0360  0.2064  0.5823
    6SAPS  C317  792   5.369   5.789   5.330 -0.7792  0.2895 -0.2289
    6SAPS  H17X  793   5.416   5.885   5.301 -2.1616  1.2842  0.7105
    6SAPS  H17Y  794   5.289   5.757   5.261 -1.8000 -0.9465  1.4444
    6SAPS  C318  795   5.478   5.680   5.324  0.1367  0.1917 -0.1657
    6SAPS  H18X  796   5.564   5.713   5.387 -0.2728 -0.5496  0.8047
    6SAPS  H18Y  797   5.514   5.676   5.219  0.0072 -1.8000 -0.1711
    6SAPS  H18Z  798   5.444   5.580   5.358  1.3827  0.3314  1.7223
    7SAPS     N  799   6.634   1.687   7.294 -0.8280  0.3622 -0.1128
    7SAPS   HN1  800   6.723   1.637   7.319 -1.1771  0.3036  1.0907
    7SAPS   HN2  801   6.578   1.631   7.227 -1.8385 -0.6859  1.5284
    7SAPS   HN3  802   6.646   1.781   7.251  1.6256 -0.4344 -1.3951
    7SAPS   C12  803   6.562   1.699   7.425 -0.1770  0.0610 -0.3388
    7SAPS  H12A  804   6.585   1.619   7.494 -1.1269 -0.9861 -1.2031
    7SAPS   C13  805   6.599   1.823   7.510  0.7358 -0.1494 -0.3928
    7SAPS  O13A  806   6.647   1.921   7.451  0.2238  0.4176 -0.2432
    7SAPS  O13B  807   6.529   1.834   7.615 -0.4159 -0.4294 -0.2437
    7SAPS   C11  808   6.407   1.697   7.406  0.4628 -0.1413 -0.1685
    7SAPS  H11A  809   6.383   1.788   7.348 -3.5149 -0.4270  0.7347
    7SAPS  H11B  810   6.356   1.697   7.505  1.3885 -1.7015  0.3483
    7SAPS     P  811   6.232   1.511   7.342  0.0880  0.4309  0.3271
    7SAPS   O13  812   6.252   1.360   7.326  0.6657  0.0087 -0.8432
    7SAPS   O14  813   6.161   1.565   7.463  0.2057  0.2657  0.6545
    7SAPS   O12  814   6.368   1.575   7.332  0.3826 -0.2552  0.0499
    7SAPS   O11  815   6.159   1.558   7.211 -0.8604  0.7274 -0.0916
    7SAPS    C1  816   6.035   1.630   7.204  0.2314 -0.1498  0.1166
    7SAPS    HA  817   5.950   1.564   7.179  0.6248 -0.3721 -0.6639
    7SAPS    HB  818   6.015   1.687   7.298 -1.3513 -2.6896  1.4196
    7SAPS    C2  819   6.029   1.718   7.082 -0.9858 -0.5310 -0.1908
    7SAPS    HS  820   5.953   1.794   7.108  2.2107  2.2089  2.0055
    7SAPS   O21  821   6.019   1.644   6.957  0.0717 -0.0418  0.1339
    7SAPS   C21  822   5.899   1.607   6.931  0.4023 -0.3686 -0.4261
    7SAPS   O22  823   5.802   1.626   7.001  0.5888  0.4240 -0.0500
    7SAPS   C22  824   5.901   1.543   6.795  0.4957 -1.0511  0.1117
    7SAPS   H2R  825   5.983   1.468   6.790  0.2868 -1.3905  1.3332
    7SAPS   H2S  826   5.808   1.492   6.762 -0.5697  1.7109 -1.5086
    7SAPS    C3  827   6.160   1.809   7.081  0.0276  0.8458  0.0378
    7SAPS    HX  828   6.256   1.753   7.086 -0.7736 -1.0089 -2.8164
    7SAPS    HY  829   6.155   1.864   7.177 -0.2435 -0.4226  0.7695
    7SAPS   O31  830   6.172   1.898   6.971  0.5239  0.6510 -0.0633
    7SAPS   C31  831   6.092   2.003   6.977 -0.6015  0.1858  0.9314
    7SAPS   O32  832   6.002   2.027   7.056 -0.1890  0.5071 -0.2263
    7SAPS   C32  833   6.142   2.101   6.867 -0.0174  0.2351 -0.1620
    7SAPS   H2X  834   6.248   2.126   6.887 -0.2014  1.5833 -0.7586
    7SAPS   H2Y  835   6.077   2.190   6.886 -3.2071 -1.7763 -0.8671
    7SAPS   C23  836   5.914   1.658   6.693  0.2785 -1.1345 -1.4349
    7SAPS   H3R  837   5.990   1.732   6.729  0.9287 -1.8153 -1.3839
    7SAPS   H3S  838   5.821   1.718   6.700  2.0155  1.5801  1.4742
    7SAPS   C24  839   5.951   1.610   6.546  0.3706  0.1173 -0.2164
    7SAPS   H4R  840   5.859   1.549   6.533  0.0805  0.6302 -0.6106
    7SAPS   H4S  841   6.037   1.540   6.548  0.9913  0.8857  0.8487
    7SAPS   C25  842   5.964   1.728   6.449 -0.0342 -0.2261 -0.0422
    7SAPS   H5R  843   6.061   1.778   6.464  0.3631 -0.8414 -0.5178
    7SAPS   C26  844   5.901   1.754   6.337 -0.1582  0.6242 -0.6229
    7SAPS   H6R  845   5.944   1.838   6.282  2.9809 -0.4233  0.0691
    7SAPS   C27  846   5.783   1.677   6.298  0.6152 -0.1520  0.6546
    7SAPS   H7R  847   5.705   1.746   6.260  0.3756 -0.0085  1.4122
    7SAPS   H7S  848   5.740   1.611   6.376 -0.5177 -1.1373 -0.7597
    7SAPS   C28  849   5.818   1.593   6.176  0.0213  0.0803  0.0856
    7SAPS   H8R  850   5.901   1.521   6.188  1.7362  1.9629  0.1531
    7SAPS   C29  851   5.761   1.587   6.054  0.1811 -0.3335 -0.6332
    7SAPS   H9R  852   5.800   1.505   5.992  0.8324 -1.4474  1.1751
    7SAPS  C210  853   5.652   1.676   5.993 -0.4873  0.3113 -0.0476
    7SAPS  H10R  854   5.694   1.753   5.925  0.7130  0.4622  0.8456
    7SAPS  H10S  855   5.592   1.730   6.069  1.4297  2.6719 -0.0890
    7SAPS  C211  856   5.549   1.585   5.935 -0.4070  0.2176 -0.7862
    7SAPS  H11R  857   5.514   1.501   5.996 -0.0386  0.8673  0.3409
    7SAPS  C212  858   5.480   1.602   5.822 -0.3282  0.5141  0.6310
    7SAPS  H12R  859   5.401   1.528   5.802 -0.1447  0.0937  1.4252
    7SAPS  C213  860   5.503   1.709   5.723 -0.2075 -0.0203 -0.3899
    7SAPS  H13R  861   5.567   1.787   5.769  1.2346 -1.8295  0.8360
    7SAPS  H13S  862   5.400   1.743   5.699 -1.0444 -3.7483 -2.9561
    7SAPS  C214  863   5.574   1.663   5.601  0.2816  0.3537 -0.0084
    7SAPS  H14R  864   5.682   1.686   5.603  0.5009 -0.6772  1.3935
    7SAPS  C215  865   5.519   1.610   5.486  0.2042 -0.2712  0.1643
    7SAPS  H15R  866   5.591   1.569   5.414 -0.8337 -0.4055 -0.8385
    7SAPS  C216  867   5.373   1.587   5.439 -0.3512  0.2174  0.2390
    7SAPS  H16R  868   5.288   1.640   5.487 -2.5747 -2.9169  0.0566
    7SAPS  H16S  869   5.352   1.479   5.449  1.2298 -0.4047 -2.1781
    7SAPS  C217  870   5.364   1.613   5.285  0.4461 -0.5035 -0.2698
    7SAPS  H17R  871   5.275   1.566   5.238 -0.7936  0.9391  0.5038
    7SAPS  H17S  872   5.455   1.569   5.239 -0.3367 -1.4457 -0.9526
    7SAPS  C218  873   5.357   1.763   5.248  0.0609 -0.2766 -1.0395
    7SAPS  H18R  874   5.453   1.804   5.288  1.7397 -2.4310 -2.6061
    7SAPS  H18S  875   5.266   1.802   5.298 -0.8069 -1.0976 -1.9321
    7SAPS  C219  876   5.351   1.791   5.099  0.0501 -0.0281 -0.3272
    7SAPS  H19R  877   5.342   1.902   5.098 -0.2201 -0.0216  1.2407
    7SAPS  H19S  878   5.259   1.753   5.049 -0.6178  2.1458 -0.8799
    7SAPS  C220  879   5.473   1.735   5.022  0.4428 -0.5988 -0.4461
    7SAPS  H20R  880   5.553   1.752   5.097 -0.2666 -0.7245  0.3492
    7SAPS  H20S  881   5.476   1.787   4.923  1.0449 -0.2805 -0.2626
    7SAPS  H20T  882   5.460   1.625   5.012  2.4351 -1.1072  1.7038
    7SAPS   C33  883   6.120   2.047   6.716 -0.5611  0.0998  0.1360
    7SAPS   H3X  884   6.015   2.042   6.680 -1.1294 -2.4079  1.8953
    7SAPS   H3Y  885   6.150   1.940   6.710  0.7137  0.4535 -0.1000
    7SAPS   C34  886   6.192   2.131   6.611 -0.0005 -0.0463  0.2205
    7SAPS   H4X  887   6.297   2.097   6.615 -0.0279 -0.2096 -0.4430
    7SAPS   H4Y  888   6.176   2.241   6.618 -0.6634 -0.1487  0.4633
    7SAPS   C35  889   6.161   2.070   6.473  0.1782 -0.2426 -0.0910
    7SAPS   H5X  890   6.052   2.091   6.466  0.4410  2.2876  1.8088
    7SAPS   H5Y  891   6.182   1.961   6.465  1.0437 -0.1031  0.2471
    7SAPS   C36  892   6.229   2.147   6.360 -0.4567 -0.5173  0.2596
    7SAPS   H6X  893   6.336   2.119   6.355 -0.4699 -0.8805  1.6709
    7SAPS   H6Y  894   6.235   2.252   6.396  3.0666 -1.3449  2.6603
    7SAPS   C37  895   6.163   2.129   6.220  0.3379 -0.4176 -0.3875
    7SAPS   H7X  896   6.205   2.201   6.147  0.4921 -0.3996 -0.2813
    7SAPS   H7Y  897   6.054   2.143   6.231  0.5829  0.5880  1.0189
    7SAPS   C38  898   6.202   1.985   6.149 -0.1761 -0.0286 -0.7598
    7SAPS   H8X  899   6.159   1.903   6.209  0.2572  0.2419 -0.0749
    7SAPS   H8Y  900   6.313   1.975   6.150 -0.3332 -2.1313 -0.2327
    7SAPS   C39  901   6.127   1.976   6.012 -0.4446  0.4118  0.6474
    7SAPS   H9X  902   6.148   2.069   5.956  1.5909 -1.4018 -1.8084
    7SAPS   H9Y  903   6.019   1.961   6.035 -0.3268  1.4152  1.9983
    7SAPS  C310  904   6.157   1.857   5.923  0.3858  0.3025 -0.4019
    7SAPS  H10X  905   6.135   1.757   5.965 -0.5544 -1.5769 -4.8244
    7SAPS  H10Y  906   6.264   1.854   5.896  0.7071  0.8456  0.7466
    7SAPS  C311  907   6.075   1.871   5.799 -0.3715  0.4014 -0.1657
    7SAPS  H11X  908   6.083   1.974   5.758 -0.2044  0.2725 -0.4630
    7SAPS  H11Y  909   5.969   1.853   5.824 -1.1131  2.9185 -1.1881
    7SAPS  C312  910   6.109   1.776   5.688  0.8142  0.7715 -0.0978
    7SAPS  H12X  911   6.097   1.672   5.723  0.7905  0.9893  0.5602
    7SAPS  H12Y  912   6.215   1.778   5.654  0.3771 -2.2495 -1.9777
    7SAPS  C313  913   6.027   1.789   5.562  0.1542 -0.3087 -0.1490
    7SAPS  H13X  914   6.047   1.885   5.509 -2.1666 -0.4866 -1.4779
    7SAPS  H13Y  915   5.921   1.792   5.596  0.4841  1.1705  0.8754
    7SAPS  C314  916   6.049   1.676   5.457 -0.3895 -0.7085 -0.1547
    7SAPS  H14X  917   6.066   1.577   5.505  4.4544  0.0484  0.2005
    7SAPS  H14Y  918   6.144   1.684   5.400  0.3355  0.8806  1.1859
    7SAPS  C315  919   5.938   1.655   5.349 -0.0062 -0.1011 -0.2603
    7SAPS  H15X  920   5.843   1.657   5.406  1.0878  1.4664  1.6257
    7SAPS  H15Y  921   5.961   1.559   5.298  1.5153 -0.2710  0.6765
    7SAPS  C316  922   5.938   1.771   5.250  0.1830 -0.2176  0.2871
    7SAPS  H16X  923   6.025   1.754   5.183 -0.7567 -1.3164 -0.7010
    7SAPS  H16Y  924   5.951   1.867   5.305 -2.9809  1.4422 -1.5422
    7SAPS  C317  925   5.806   1.793   5.177 -0.1435  0.1498 -0.4327
    7SAPS  H17X  926   5.726   1.796   5.254 -0.7313 -1.3865 -0.9574
    7SAPS  H17Y  927   5.789   1.699   5.122 -0.2088  0.2397 -0.5650
    7SAPS  C318  928   5.796   1.913   5.085 -0.2052  0.1149 -0.2234
    7SAPS  H18X  929   5.690   1.920   5.052  0.2205 -3.0535 -2.6829
    7SAPS  H18Y  930   5.852   1.908   4.990  0.7408  0.5833  0.2946
    7SAPS  H18Z  931   5.827   1.999   5.149  0.1884 -1.1677  1.3699
    8SAPS     N  932   6.300   0.002   7.719  0.1936  0.0128  0.0838
    8SAPS   HN1  933   6.388   0.012   7.666  0.2516  2.0268  0.4947
    8SAPS   HN2  934   6.325  -0.015   7.819  0.1918 -1.8295 -0.2016
    8SAPS   HN3  935   6.241  -0.076   7.683  0.1911 -0.2417  0.6255
    8SAPS   C12  936   6.211   0.126   7.706 -0.6324  0.1453 -0.5873
    8SAPS  H12A  937   6.150   0.119   7.794  0.9895  0.4402  0.6119
    8SAPS   C13  938   6.291   0.261   7.714 -0.5502 -0.0220 -0.1838
    8SAPS  O13A  939   6.406   0.257   7.764 -0.1088 -0.0037  0.5192
    8SAPS  O13B  940   6.232   0.370   7.704 -0.1142 -0.4278  0.3562
    8SAPS   C11  941   6.120   0.117   7.578  0.1723 -0.4116  0.3351
    8SAPS  H11A  942   6.175   0.156   7.489 -1.4361 -0.9280 -0.9255
    8SAPS  H11B  943   6.042   0.196   7.590  1.1459  0.7799 -0.8476
    8SAPS     P  944   5.925  -0.047   7.492 -0.0133  0.1378 -0.2778
    8SAPS   O13  945   5.872  -0.179   7.547 -0.2798 -0.2823  0.1592
    8SAPS   O14  946   5.839   0.074   7.499 -0.2793  0.2475  0.1109
    8SAPS   O12  947   6.064  -0.015   7.572  0.1893 -0.1238 -0.2634
    8SAPS   O11  948   5.970  -0.068   7.345  0.4205  0.0317  0.4181
    8SAPS    C1  949   6.087  -0.147   7.331 -0.4499  0.7518  0.0334
    8SAPS    HA  950   6.181  -0.091   7.348 -0.1489 -0.0070  0.8986
    8SAPS    HB  951   6.095  -0.234   7.400 -2.1761  0.0109 -0.6383
    8SAPS    C2  952   6.114  -0.190   7.184 -0.4978  0.2136  0.3334
    8SAPS    HS  953   6.222  -0.212   7.171 -0.6174 -0.1578 -0.0494
    8SAPS   O21  954   6.070  -0.076   7.096 -0.1279 -0.2712 -0.0190
    8SAPS   C21  955   6.146   0.024   7.091 -0.0755 -0.6354 -0.4022
    8SAPS   O22  956   6.257   0.031   7.149 -0.0467  0.4008 -0.0570
    8SAPS   C22  957   6.094   0.119   6.986  0.2472 -0.6097 -0.0041
    8SAPS   H2R  958   5.983   0.120   6.985  0.2543  0.1752 -0.0935
    8SAPS   H2S  959   6.130   0.217   7.024  1.9185 -0.8749 -0.8116
    8SAPS    C3  960   6.032  -0.312   7.145 -0.0153  0.4753  0.0966
    8SAPS    HX  961   5.924  -0.304   7.167  0.2901 -1.0747  2.5892
    8SAPS    HY  962   6.062  -0.398   7.208  0.2157  0.2375 -0.3312
    8SAPS   O31  963   6.052  -0.341   7.006 -0.3542  0.4382  0.5670
    8SAPS   C31  964   6.162  -0.413   6.970  0.0827 -0.6403  0.2232
    8SAPS   O32  965   6.235  -0.470   7.054  0.3825  0.0709 -0.3632
    8SAPS   C32  966   6.187  -0.427   6.824 -0.6312 -0.1999  0.0390
    8SAPS   H2X  967   6.089  -0.464   6.785 -0.7773  0.5160 -0.2919
    8SAPS   H2Y  968   6.273  -0.496   6.811 -0.0471  0.8084 -1.7459
    8SAPS   C23  969   6.140   0.086   6.849  0.4967 -0.1665 -0.0818
    8SAPS   H3R  970   6.124  -0.023   6.829 -0.0722 -0.6776  2.7976
    8SAPS   H3S  971   6.249   0.100   6.837  0.6426  0.8815  2.1044
    8SAPS   C24  972   6.049   0.161   6.760 -0.0934  0.1809  0.3620
    8SAPS   H4R  973   5.944   0.138   6.788 -1.1941  2.5709 -1.4453
    8SAPS   H4S  974   6.059   0.115   6.659 -0.3068 -1.8650  1.2087
    8SAPS   C25  975   6.064   0.309   6.752 -0.0927 -0.7581 -0.4845
    8SAPS   H5R  976   6.010   0.372   6.824 -1.5019  1.1205 -3.0315
    8SAPS   C26  977   6.134   0.384   6.660  0.2883  0.4969 -0.4015
    8SAPS   H6R  978   6.142   0.494   6.669  2.1692  0.5021 -1.5859
    8SAPS   C27  979   6.221   0.323   6.552 -0.0068 -0.2356 -0.1971
    8SAPS   H7R  980   6.184   0.354   6.451  2.3135 -0.3741 -1.1590
    8SAPS   H7S  981   6.215   0.212   6.547 -0.4598 -0.2422  0.4288
    8SAPS   C28  982   6.361   0.360   6.577 -0.3478 -0.2012 -0.0051
    8SAPS   H8R  983   6.413   0.278   6.628 -1.0941 -1.5243 -1.2877
    8SAPS   C29  984   6.428   0.476   6.558  0.1935 -0.2545  0.6478
    8SAPS   H9R  985   6.537   0.479   6.575  0.1465  0.0713  0.9018
    8SAPS  C210  986   6.376   0.602   6.491  0.8262 -0.2156  0.6392
    8SAPS  H10R  987   6.265   0.599   6.495  0.7457 -3.1581 -0.6278
    8SAPS  H10S  988   6.400   0.586   6.383  0.1585  0.5301  0.3673
    8SAPS  C211  989   6.431   0.724   6.544  0.0628 -0.2821  0.1752
    8SAPS  H11R  990   6.494   0.709   6.633 -1.2660 -1.6266  0.9295
    8SAPS  C212  991   6.423   0.845   6.487 -0.4444  0.8578  0.1859
    8SAPS  H12R  992   6.484   0.924   6.534  1.1088  1.1927 -2.2351
    8SAPS  C213  993   6.350   0.878   6.366  0.4553 -0.8308  0.6089
    8SAPS  H13R  994   6.380   0.811   6.282  0.2209  0.0358 -0.1857
    8SAPS  H13S  995   6.380   0.981   6.336 -0.8535 -0.6332 -0.1216
    8SAPS  C214  996   6.201   0.880   6.379 -0.5561  0.3373  0.4089
    8SAPS  H14R  997   6.156   0.890   6.479 -0.6842  0.6333  0.3221
    8SAPS  C215  998   6.116   0.858   6.280  0.1747  0.2381  1.4127
    8SAPS  H15R  999   6.012   0.857   6.315 -0.3093 -0.7769  0.0150
    8SAPS  C216 1000   6.157   0.827   6.137 -0.4092  0.4235  0.4657
    8SAPS  H16R 1001   6.238   0.889   6.093 -0.0148  0.1589  0.8005
    8SAPS  H16S 1002   6.072   0.828   6.066 -1.8659 -1.5785  2.0485
    8SAPS  C217 1003   6.196   0.675   6.121 -0.1486  0.4323 -0.4567
    8SAPS  H17R 1004   6.269   0.651   6.201 -0.5647  0.4225 -0.0730
    8SAPS  H17S 1005   6.261   0.651   6.034 -0.4158  1.1882 -0.8709
    8SAPS  C218 1006   6.076   0.580   6.100 -0.9506  0.3873  0.3533
    8SAPS  H18R 1007   5.991   0.619   6.040 -0.8663 -0.5840 -0.4314
    8SAPS  H18S 1008   6.031   0.570   6.201  0.5390 -1.3004  0.9180
    8SAPS  C219 1009   6.127   0.448   6.041  0.1097 -0.1726  0.0191
    8SAPS  H19R 1010   6.160   0.468   5.937 -2.7231 -0.2293 -0.9622
    8SAPS  H19S 1011   6.042   0.376   6.039  1.6497 -2.0822 -1.9272
    8SAPS  C220 1012   6.245   0.383   6.114 -0.0546  0.3749 -0.5762
    8SAPS  H20R 1013   6.261   0.275   6.093  1.6627  0.6466 -0.8277
    8SAPS  H20S 1014   6.238   0.387   6.224 -0.7451  0.7307 -0.6323
    8SAPS  H20T 1015   6.341   0.427   6.079 -0.3222  1.2580 -0.2194
    8SAPS   C33 1016   6.217  -0.294   6.758 -0.5740 -0.1705 -0.6302
    8SAPS   H3X 1017   6.315  -0.253   6.789 -1.3052  1.1010  0.0835
    8SAPS   H3Y 1018   6.133  -0.228   6.787  0.4863  0.4746  1.1188
    8SAPS   C34 1019   6.229  -0.310   6.602  0.3248 -0.4252 -0.3960
    8SAPS   H4X 1020   6.127  -0.343   6.573 -0.8285  0.4200  2.4155
    8SAPS   H4Y 1021   6.310  -0.380   6.573 -0.5550 -2.0029  0.8145
    8SAPS   C35 1022   6.253  -0.175   6.538  0.2433  0.6983 -0.0058
    8SAPS   H5X 1023   6.342  -0.131   6.588 -0.9019  2.3221  0.7210
    8SAPS   H5Y 1024   6.162  -0.111   6.548 -1.0741 -0.8900 -1.2345
    8SAPS   C36 1025   6.271  -0.185   6.390  0.0405  0.3823  0.3629
    8SAPS   H6X 1026   6.175  -0.206   6.338  0.0786  1.2468 -0.0815
    8SAPS   H6Y 1027   6.333  -0.274   6.368 -1.5455 -0.9781  1.1428
    8SAPS   C37 1028   6.332  -0.058   6.328  0.1917  0.1774 -0.1088
    8SAPS   H7X 1029   6.434  -0.047   6.372 -0.0465 -0.1576  0.5546
    8SAPS   H7Y 1030   6.280   0.031   6.368  0.5761  0.4690 -0.2575
    8SAPS   C38 1031   6.344  -0.049   6.173 -0.2133  0.2533 -0.0704
    8SAPS   H8X 1032   6.414   0.032   6.143  2.3138 -0.9967  2.0819
    8SAPS   H8Y 1033   6.242  -0.051   6.129 -0.7073  0.6240  1.0167
    8SAPS   C39 1034   6.398  -0.180   6.112  0.4359 -0.0857  0.0710
    8SAPS   H9X 1035   6.328  -0.263   6.135 -2.2267  2.1483  0.4934
    8SAPS   H9Y 1036   6.500  -0.198   6.153  1.8103  0.3585 -2.8538
    8SAPS  C310 1037   6.412  -0.166   5.958 -0.6282  0.7492  0.0785
    8SAPS  H10X 1038   6.345  -0.087   5.918 -0.6536 -0.3023 -2.0966
    8SAPS  H10Y 1039   6.392  -0.260   5.901 -0.5993 -1.3314  3.2372
    8SAPS  C311 1040   6.558  -0.123   5.943 -0.2353  0.4734  0.1878
    8SAPS  H11X 1041   6.633  -0.192   5.986  0.1385  1.2813  0.8637
    8SAPS  H11Y 1042   6.570  -0.028   6.000  2.1114  0.2884  0.0711
    8SAPS  C312 1043   6.601  -0.081   5.802  0.1403 -1.1957  0.5534
    8SAPS  H12X 1044   6.709  -0.055   5.796  0.1794 -1.3552  0.5554
    8SAPS  H12Y 1045   6.535   0.005   5.776  2.8154  0.3942 -1.5761
    8SAPS  C313 1046   6.598  -0.192   5.699  0.3485 -0.4158 -0.0966
    8SAPS  H13X 1047   6.497  -0.238   5.693  0.0756  0.0132  1.0564
    8SAPS  H13Y 1048   6.670  -0.271   5.729  0.8662  0.4021  0.8788
    8SAPS  C314 1049   6.632  -0.142   5.554 -0.3406  0.6009  0.0268
    8SAPS  H14X 1050   6.559  -0.064   5.521  0.6208  1.0583 -1.1132
    8SAPS  H14Y 1051   6.611  -0.225   5.483  1.8506  0.6378 -0.7392
    8SAPS  C315 1052   6.770  -0.080   5.537  0.3842  0.5015 -0.1795
    8SAPS  H15X 1053   6.850  -0.146   5.578 -0.4093  1.8110  3.9660
    8SAPS  H15Y 1054   6.781   0.008   5.604 -2.4816  1.2168 -0.5161
    8SAPS  C316 1055   6.813  -0.059   5.396  1.0726 -0.7874 -0.2755
    8SAPS  H16X 1056   6.735   0.009   5.355 -1.1240 -2.3245  1.1303
    8SAPS  H16Y 1057   6.802  -0.158   5.346 -0.2912 -0.1406 -1.3208
    8SAPS  C317 1058   6.953   0.005   5.383 -1.0067  0.0906 -0.1083
    8SAPS  H17X 1059   6.949   0.106   5.429 -2.6933 -0.7225  1.6555
    8SAPS  H17Y 1060   6.973   0.019   5.274  2.8413  3.9673  0.8138
    8SAPS  C318 1061   7.069  -0.069   5.446  0.1964 -0.8330  0.3721
    8SAPS  H18X 1062   7.164  -0.019   5.417  1.4448 -1.2964  3.2364
    8SAPS  H18Y 1063   7.079  -0.176   5.417 -0.5484 -1.4298  2.1346
    8SAPS  H18Z 1064   7.058  -0.066   5.557 -0.1492  1.4302  0.3207
    9SAPS     N 1065   2.749   6.336   7.134 -0.0968 -0.3217  0.5609
    9SAPS   HN1 1066   2.650   6.309   7.148 -0.0090 -0.3077  1.2391
    9SAPS   HN2 1067   2.791   6.393   7.210  1.9753 -1.6281  0.4978
    9SAPS   HN3 1068   2.746   6.396   7.049 -1.2602 -0.5222  0.4503
    9SAPS   C12 1069   2.830   6.211   7.099  0.0699 -0.6218 -0.1867
    9SAPS  H12A 1070   2.932   6.238   7.073  0.9350 -1.5953  1.9447
    9SAPS   C13 1071   2.838   6.099   7.208  0.4367 -0.4034 -0.1529
    9SAPS  O13A 1072   2.765   6.105   7.310  0.3659 -0.5481 -0.2139
    9SAPS  O13B 1073   2.920   5.999   7.190 -0.5186  0.1069 -0.1602
    9SAPS   C11 1074   2.757   6.144   6.980  0.2422 -1.1003 -0.4301
    9SAPS  H11A 1075   2.661   6.096   7.010 -0.6055  0.3532 -0.6702
    9SAPS  H11B 1076   2.818   6.060   6.941 -1.5571 -2.1597 -1.1339
    9SAPS     P 1077   2.825   6.295   6.763  0.5786 -0.2530 -0.0544
    9SAPS   O13 1078   2.881   6.182   6.686 -0.3860  0.2264  0.5189
    9SAPS   O14 1079   2.744   6.394   6.684 -0.6671 -0.4372  0.9596
    9SAPS   O12 1080   2.730   6.232   6.871 -0.0261 -0.5258  0.0023
    9SAPS   O11 1081   2.943   6.368   6.836 -0.1362  0.0983 -0.0047
    9SAPS    C1 1082   3.073   6.388   6.772  0.4467  0.3959 -0.1347
    9SAPS    HA 1083   3.155   6.390   6.848  0.0608  0.7414  0.2729
    9SAPS    HB 1084   3.105   6.305   6.706  0.6600  0.9027 -0.6761
    9SAPS    C2 1085   3.072   6.516   6.693  0.1295  0.2819  0.4379
    9SAPS    HS 1086   3.012   6.597   6.739  1.9866  0.8608  1.9991
    9SAPS   O21 1087   3.021   6.487   6.567  0.2405  1.0016  0.1898
    9SAPS   C21 1088   2.983   6.593   6.499  0.4589 -0.3474  0.3904
    9SAPS   O22 1089   2.994   6.711   6.532  0.7060 -0.2503  0.5980
    9SAPS   C22 1090   2.903   6.545   6.372  0.0373  0.2434 -0.4045
    9SAPS   H2R 1091   2.982   6.499   6.309  0.5711  0.0239  0.4074
    9SAPS   H2S 1092   2.835   6.464   6.404  4.1235 -2.5235  2.2480
    9SAPS    C3 1093   3.223   6.574   6.681 -0.4137 -0.0035 -0.6830
    9SAPS    HX 1094   3.267   6.577   6.783  1.6573 -2.8578 -1.3656
    9SAPS    HY 1095   3.216   6.678   6.642  2.8600  0.8254  0.6068
    9SAPS   O31 1096   3.308   6.496   6.591 -0.2481 -0.0936  0.4732
    9SAPS   C31 1097   3.420   6.556   6.572  0.9643 -1.1536  0.2153
    9SAPS   O32 1098   3.453   6.665   6.623  0.9320 -0.2148  0.0682
    9SAPS   C32 1099   3.511   6.472   6.489 -0.5422  0.0722  0.4442
    9SAPS   H2X 1100   3.464   6.378   6.452  2.0663 -1.1798  0.1036
    9SAPS   H2Y 1101   3.593   6.438   6.556 -0.4704  1.0474  0.8626
    9SAPS   C23 1102   2.817   6.655   6.299 -0.5805  0.1768 -0.7141
    9SAPS   H3R 1103   2.850   6.757   6.327  0.5071 -0.0014 -1.3015
    9SAPS   H3S 1104   2.711   6.646   6.333 -0.6672 -1.5537 -1.3241
    9SAPS   C24 1105   2.820   6.643   6.146  0.5666  0.2223 -0.0986
    9SAPS   H4R 1106   2.773   6.547   6.114 -0.9080  1.0525 -0.4910
    9SAPS   H4S 1107   2.929   6.651   6.125  0.2117 -1.4926 -3.2898
    9SAPS   C25 1108   2.750   6.760   6.086 -0.6494 -0.4781  0.5976
    9SAPS   H5R 1109   2.762   6.850   6.148  1.3342  0.1969 -0.6744
    9SAPS   C26 1110   2.680   6.764   5.971  0.3641 -0.4573 -0.4589
    9SAPS   H6R 1111   2.621   6.851   5.938 -0.4621 -1.3953 -1.5548
    9SAPS   C27 1112   2.668   6.644   5.871  0.1421  0.8300  0.1714
    9SAPS   H7R 1113   2.732   6.555   5.892 -0.9360 -0.6613 -2.3679
    9SAPS   H7S 1114   2.712   6.681   5.776  0.0198 -3.0183 -1.5910
    9SAPS   C28 1115   2.527   6.598   5.845 -0.0185 -0.3967  0.8113
    9SAPS   H8R 1116   2.471   6.577   5.937 -0.6333  1.6252  0.9597
    9SAPS   C29 1117   2.463   6.610   5.725 -0.2206 -0.2040 -0.6507
    9SAPS   H9R 1118   2.354   6.597   5.724 -0.2851  0.0746  0.8820
    9SAPS  C210 1119   2.524   6.649   5.593 -0.7917 -0.7739  0.2968
    9SAPS  H10R 1120   2.608   6.721   5.605 -1.5708 -0.0090  1.3580
    9SAPS  H10S 1121   2.445   6.696   5.530 -0.0640 -0.8352 -0.6842
    9SAPS  C211 1122   2.585   6.528   5.522 -0.4952 -0.8110  0.2255
    9SAPS  H11R 1123   2.655   6.473   5.587  0.5830  1.1270  0.7705
    9SAPS  C212 1124   2.550   6.469   5.408 -0.0489  0.2475 -0.9454
    9SAPS  H12R 1125   2.610   6.386   5.369 -0.2311  0.7170 -2.2682
    9SAPS  C213 1126   2.467   6.531   5.293  0.2043  0.3066  0.7482
    9SAPS  H13R 1127   2.544   6.559   5.219  1.2716 -0.8978  1.3657
    9SAPS  H13S 1128   2.411   6.625   5.315 -2.8317 -0.9074 -1.0619
    9SAPS  C214 1129   2.347   6.451   5.245  0.0282  0.4541  0.4368
    9SAPS  H14R 1130   2.276   6.414   5.320  2.2110 -0.5993  2.0780
    9SAPS  C215 1131   2.320   6.426   5.114 -0.0735  0.1766  0.0228
    9SAPS  H15R 1132   2.235   6.362   5.083 -0.9890  3.0025 -3.9968
    9SAPS  C216 1133   2.407   6.469   4.996 -0.0405  1.5099  0.0709
    9SAPS  H16R 1134   2.422   6.382   4.928 -1.3761  0.6513  0.8221
    9SAPS  H16S 1135   2.509   6.503   5.024  0.3926  0.6312 -0.3819
    9SAPS  C217 1136   2.350   6.586   4.919  0.9807  0.1881 -0.6030
    9SAPS  H17R 1137   2.329   6.674   4.985 -1.7557 -0.4371 -0.5091
    9SAPS  H17S 1138   2.253   6.560   4.873  0.3285  1.6743 -0.1487
    9SAPS  C218 1139   2.445   6.621   4.805 -0.7761 -0.0923 -0.0526
    9SAPS  H18R 1140   2.550   6.601   4.836 -0.6382  0.1291 -0.3597
    9SAPS  H18S 1141   2.435   6.728   4.775 -1.6029 -0.2511 -0.3601
    9SAPS  C219 1142   2.400   6.555   4.671 -0.4002 -0.2386 -1.1362
    9SAPS  H19R 1143   2.374   6.447   4.685 -1.8534  0.3924  2.1394
    9SAPS  H19S 1144   2.473   6.565   4.588  0.6822  1.8560 -0.0105
    9SAPS  C220 1145   2.271   6.625   4.610 -0.3878  0.3995  0.0961
    9SAPS  H20R 1146   2.180   6.603   4.670 -1.0733  1.6102 -0.4838
    9SAPS  H20S 1147   2.246   6.587   4.508 -0.7998 -1.9229  0.9873
    9SAPS  H20T 1148   2.277   6.735   4.616 -0.2807  0.3077  3.1362
    9SAPS   C33 1149   3.592   6.538   6.370 -0.4659 -0.2445 -0.1515
    9SAPS   H3X 1150   3.677   6.471   6.343  1.4343  1.8669  0.2700
    9SAPS   H3Y 1151   3.636   6.628   6.416 -0.1560  0.1091 -1.1162
    9SAPS   C34 1152   3.503   6.583   6.248 -0.5569  0.2579 -0.0859
    9SAPS   H4X 1153   3.421   6.651   6.279  0.1567  1.9975 -1.8068
    9SAPS   H4Y 1154   3.454   6.492   6.208  0.0744  0.3405 -1.0827
    9SAPS   C35 1155   3.578   6.663   6.139  0.0762  0.5582 -0.0650
    9SAPS   H5X 1156   3.682   6.629   6.119  0.6406  2.3129 -0.3164
    9SAPS   H5Y 1157   3.586   6.769   6.172  2.0412  0.8484 -1.2811
    9SAPS   C36 1158   3.496   6.669   6.001 -0.0717  0.3712 -0.2582
    9SAPS   H6X 1159   3.390   6.648   6.026  0.5643 -0.6968  1.7446
    9SAPS   H6Y 1160   3.529   6.583   5.939  0.0913  1.5086 -1.7992
    9SAPS   C37 1161   3.490   6.801   5.937 -0.2071 -0.2261  0.5997
    9SAPS   H7X 1162   3.592   6.816   5.895 -0.1678 -1.4811  0.2114
    9SAPS   H7Y 1163   3.468   6.888   6.003  0.6893  1.3470 -1.0877
    9SAPS   C38 1164   3.390   6.815   5.821 -0.1029  0.2687  0.6367
    9SAPS   H8X 1165   3.395   6.919   5.784 -0.5625  0.0343 -0.1054
    9SAPS   H8Y 1166   3.289   6.806   5.865  0.3855 -0.0586  1.7520
    9SAPS   C39 1167   3.405   6.719   5.700  0.2827  0.3815  0.2942
    9SAPS   H9X 1168   3.327   6.738   5.623 -0.4401 -1.5671  0.4928
    9SAPS   H9Y 1169   3.399   6.612   5.730  1.1276 -0.2258 -1.6010
    9SAPS  C310 1170   3.539   6.732   5.627 -0.3555 -0.1320 -0.3212
    9SAPS  H10X 1171   3.615   6.691   5.697 -0.0483  0.2271 -0.4400
    9SAPS  H10Y 1172   3.561   6.841   5.617 -1.2931 -0.0231 -1.3324
    9SAPS  C311 1173   3.532   6.672   5.485 -0.2474 -0.3530  0.3045
    9SAPS  H11X 1174   3.452   6.700   5.413 -1.1106  0.1638  1.4313
    9SAPS  H11Y 1175   3.520   6.564   5.504  0.0205 -0.2818  0.9011
    9SAPS  C312 1176   3.665   6.664   5.423  0.6658 -0.5412 -0.3747
    9SAPS  H12X 1177   3.732   6.613   5.496  0.6411  0.8084  0.6340
    9SAPS  H12Y 1178   3.707   6.766   5.407 -1.2251  0.2018 -0.8772
    9SAPS  C313 1179   3.669   6.584   5.288  0.0241 -1.2418 -0.3345
    9SAPS  H13X 1180   3.581   6.614   5.228  0.8237  0.8019 -0.5704
    9SAPS  H13Y 1181   3.669   6.477   5.316 -0.6522 -0.4524  3.0952
    9SAPS  C314 1182   3.789   6.616   5.201  0.0586 -0.4598  0.5693
    9SAPS  H14X 1183   3.878   6.629   5.266  0.6216 -0.3770 -0.2039
    9SAPS  H14Y 1184   3.762   6.713   5.153  0.6243 -0.8457 -0.5586
    9SAPS  C315 1185   3.826   6.521   5.088 -0.0041 -0.4806  0.0059
    9SAPS  H15X 1186   3.762   6.522   4.996  2.1163  0.9484 -1.5584
    9SAPS  H15Y 1187   3.815   6.416   5.121  0.9357 -2.1411 -4.3160
    9SAPS  C316 1188   3.971   6.529   5.041 -0.0827  0.5033  0.5100
    9SAPS  H16X 1189   4.040   6.503   5.123  0.5575  0.3862 -0.0569
    9SAPS  H16Y 1190   3.993   6.634   5.012 -1.3275  0.7677  0.4592
    9SAPS  C317 1191   3.998   6.437   4.922  0.4430  0.3389  0.0916
    9SAPS  H17X 1192   3.943   6.472   4.832  0.3357  1.1583  0.4730
    9SAPS  H17Y 1193   3.956   6.337   4.948  1.1475  0.2385  0.9116
    9SAPS  C318 1194   4.142   6.424   4.875  0.0860  0.2015 -0.0214
    9SAPS  H18X 1195   4.168   6.324   4.834  1.3389  0.9425 -1.1378
    9SAPS  H18Y 1196   4.218   6.451   4.952  1.1142 -1.2581 -0.4892
    9SAPS  H18Z 1197   4.162   6.505   4.801  1.8498  0.4072  0.6230
   10SAPS     N 1198   2.979   0.359   7.051  0.3968  0.4429  0.2755
   10SAPS   HN1 1199   3.052   0.416   7.098  1.7097  1.2036 -2.4762
   10SAPS   HN2 1200   2.881   0.361   7.087 -0.0235 -1.4469 -0.6459
   10SAPS   HN3 1201   3.011   0.260   7.051 -0.0660  0.2065 -2.9729
   10SAPS   C12 1202   2.987   0.416   6.916  0.3618  0.3314  0.1348
   10SAPS  H12A 1203   2.937   0.511   6.917 -0.9773 -0.3510  0.7145
   10SAPS   C13 1204   3.126   0.455   6.876  0.0405 -0.1335 -1.2599
   10SAPS  O13A 1205   3.226   0.428   6.954 -0.1764  0.1933  0.6982
   10SAPS  O13B 1206   3.140   0.549   6.791  0.3147 -0.2820 -0.5384
   10SAPS   C11 1207   2.921   0.330   6.805 -0.4414  0.1270  0.0978
   10SAPS  H11A 1208   2.981   0.237   6.797 -1.0030 -0.1952 -0.5029
   10SAPS  H11B 1209   2.920   0.400   6.718  1.7534 -0.6139 -0.5882
   10SAPS     P 1210   2.717   0.169   6.816  0.1435  0.5743  0.0601
   10SAPS   O13 1211   2.768   0.077   6.923 -0.2941 -0.6080  0.0486
   10SAPS   O14 1212   2.569   0.176   6.805  0.8753 -0.7331 -0.1743
   10SAPS   O12 1213   2.788   0.312   6.841  0.1703 -0.2819  0.2986
   10SAPS   O11 1214   2.782   0.121   6.680  0.2427  0.7547  0.4293
   10SAPS    C1 1215   2.765   0.185   6.555 -0.7846  0.5963 -0.6014
   10SAPS    HA 1216   2.681   0.258   6.562 -2.1670 -0.9988  0.4572
   10SAPS    HB 1217   2.859   0.227   6.514 -1.6264 -0.1494 -3.5701
   10SAPS    C2 1218   2.713   0.079   6.447  0.1089 -0.3018  0.2099
   10SAPS    HS 1219   2.798   0.013   6.419  0.2123 -0.6523  1.3180
   10SAPS   O21 1220   2.646   0.149   6.338 -0.1221 -0.4350 -0.0978
   10SAPS   C21 1221   2.722   0.225   6.261 -0.4841  0.0851  0.1918
   10SAPS   O22 1222   2.844   0.230   6.267 -0.5450  0.3695  0.3045
   10SAPS   C22 1223   2.636   0.321   6.176 -0.0153  0.0377 -0.9900
   10SAPS   H2R 1224   2.530   0.289   6.175 -0.8076  2.3004  0.7743
   10SAPS   H2S 1225   2.643   0.415   6.236 -1.3161  0.6868 -1.8148
   10SAPS    C3 1226   2.618  -0.018   6.520 -0.1689  0.2425 -0.2678
   10SAPS    HX 1227   2.543   0.043   6.574 -1.2723 -1.9970  0.8640
   10SAPS    HY 1228   2.681  -0.074   6.592 -1.1512 -0.4613  0.0685
   10SAPS   O31 1229   2.550  -0.107   6.428 -0.3705  0.2900  0.1857
   10SAPS   C31 1230   2.468  -0.191   6.485  0.4663  0.5211  0.3561
   10SAPS   O32 1231   2.442  -0.195   6.607 -0.1285  0.7969 -0.0423
   10SAPS   C32 1232   2.393  -0.284   6.376  0.3587  0.1796  0.3010
   10SAPS   H2X 1233   2.470  -0.353   6.337  2.8591  2.7202  0.4383
   10SAPS   H2Y 1234   2.358  -0.217   6.295 -0.3361 -1.2483 -0.6212
   10SAPS   C23 1235   2.687   0.363   6.033  0.7056 -0.2327 -0.6649
   10SAPS   H3R 1236   2.704   0.267   5.981 -1.4616 -1.5640  0.9189
   10SAPS   H3S 1237   2.787   0.411   6.040  0.5607 -0.0589  0.4363
   10SAPS   C24 1238   2.589   0.449   5.958 -0.5022 -0.9707  0.3433
   10SAPS   H4R 1239   2.554   0.527   6.029 -0.4754  0.2593 -0.9547
   10SAPS   H4S 1240   2.503   0.386   5.928 -0.1238 -1.8898  1.1526
   10SAPS   C25 1241   2.660   0.513   5.841 -1.0470  0.3078  0.7112
   10SAPS   H5R 1242   2.711   0.609   5.854 -0.9001  0.4463 -0.7293
   10SAPS   C26 1243   2.667   0.457   5.717  0.2614 -0.4872  0.3054
   10SAPS   H6R 1244   2.717   0.514   5.637 -0.2856  0.8233  0.8864
   10SAPS   C27 1245   2.600   0.335   5.667 -0.0876  0.2573  0.4632
   10SAPS   H7R 1246   2.618   0.338   5.558  0.3351 -0.2715  0.5154
   10SAPS   H7S 1247   2.492   0.349   5.690  0.0136 -0.4743  1.4767
   10SAPS   C28 1248   2.627   0.201   5.733 -0.7529 -0.1904 -0.7397
   10SAPS   H8R 1249   2.575   0.180   5.828  1.2609  0.7504  0.6621
   10SAPS   C29 1250   2.690   0.096   5.672  0.0602  0.4349 -0.6598
   10SAPS   H9R 1251   2.716   0.013   5.738 -0.7222  1.1046  0.5163
   10SAPS  C210 1252   2.774   0.096   5.544 -0.6854 -0.1453 -0.5290
   10SAPS  H10R 1253   2.874   0.144   5.553  0.0385 -1.2322 -2.2772
   10SAPS  H10S 1254   2.706   0.158   5.482 -0.8904 -0.6225 -0.7793
   10SAPS  C211 1255   2.808  -0.038   5.481  0.9306  0.1055  0.4933
   10SAPS  H11R 1256   2.893  -0.099   5.515  0.6921 -1.0202 -0.8148
   10SAPS  C212 1257   2.740  -0.080   5.370  1.0160  0.1430 -0.5695
   10SAPS  H12R 1258   2.758  -0.182   5.332  0.5337 -0.0378 -0.3269
   10SAPS  C213 1259   2.624  -0.003   5.312  0.2405  0.1074 -0.0855
   10SAPS  H13R 1260   2.648   0.105   5.308  0.0738  0.1983  0.9883
   10SAPS  H13S 1261   2.547  -0.018   5.392  0.9951 -2.0300  0.3083
   10SAPS  C214 1262   2.576  -0.050   5.180  0.2039 -0.1062  1.2099
   10SAPS  H14R 1263   2.543  -0.155   5.184  1.1972 -0.4314  1.1891
   10SAPS  C215 1264   2.558   0.015   5.066  0.3557 -0.3178  0.2552
   10SAPS  H15R 1265   2.497  -0.023   4.983 -0.7029  1.4320  0.1858
   10SAPS  C216 1266   2.612   0.156   5.044 -0.1767 -0.0687  0.2208
   10SAPS  H16R 1267   2.581   0.222   5.128 -0.7551 -2.4406  1.9791
   10SAPS  H16S 1268   2.556   0.201   4.959 -1.1842 -2.2800 -0.3520
   10SAPS  C217 1269   2.761   0.182   4.999 -0.0078  0.0835  0.0514
   10SAPS  H17R 1270   2.767   0.285   4.959  1.2254 -1.6347 -5.0838
   10SAPS  H17S 1271   2.793   0.110   4.920 -1.1717 -0.1898 -0.1905
   10SAPS  C218 1272   2.862   0.175   5.113 -0.7866  0.3454 -0.2470
   10SAPS  H18R 1273   2.871   0.066   5.133  0.4625  0.4458 -0.1930
   10SAPS  H18S 1274   2.819   0.219   5.205  0.5751 -0.1794  0.6680
   10SAPS  C219 1275   2.998   0.235   5.078  0.4097  0.0322 -0.2991
   10SAPS  H19R 1276   2.984   0.346   5.081  0.1002 -0.0227  1.6603
   10SAPS  H19S 1277   3.034   0.204   4.978  0.6642  1.3094 -0.6306
   10SAPS  C220 1278   3.099   0.205   5.185  0.1415 -0.1463 -0.4083
   10SAPS  H20R 1279   3.197   0.257   5.183  1.1724 -1.5700  3.5048
   10SAPS  H20S 1280   3.129   0.099   5.173  1.1400  0.3195 -2.4043
   10SAPS  H20T 1281   3.067   0.223   5.290  2.1161 -1.0638  0.3941
   10SAPS   C33 1282   2.269  -0.368   6.427 -0.7232  0.7455  0.8456
   10SAPS   H3X 1283   2.184  -0.307   6.465 -2.0309  0.5517 -1.5458
   10SAPS   H3Y 1284   2.307  -0.441   6.501  0.0622 -0.2108 -0.4710
   10SAPS   C34 1285   2.196  -0.436   6.312  0.0371  0.4160 -0.6094
   10SAPS   H4X 1286   2.143  -0.365   6.245 -1.7889  1.4848  1.8146
   10SAPS   H4Y 1287   2.113  -0.500   6.349  0.3580 -0.1994 -0.9390
   10SAPS   C35 1288   2.286  -0.516   6.220  0.1240  0.7873 -0.0837
   10SAPS   H5X 1289   2.357  -0.568   6.289 -0.6806 -1.0287 -0.5410
   10SAPS   H5Y 1290   2.334  -0.441   6.155  1.8511  0.3665  0.6360
   10SAPS   C36 1291   2.214  -0.622   6.135 -0.2504  0.4063  0.0605
   10SAPS   H6X 1292   2.171  -0.693   6.209  0.9470  0.4669  0.8437
   10SAPS   H6Y 1293   2.295  -0.669   6.075 -1.4491  0.3354 -1.5914
   10SAPS   C37 1294   2.114  -0.570   6.025 -0.0689 -0.1974  0.6112
   10SAPS   H7X 1295   2.022  -0.522   6.064 -0.0260  0.6645 -0.3421
   10SAPS   H7Y 1296   2.076  -0.665   5.982  2.6173 -1.3380  0.5862
   10SAPS   C38 1297   2.183  -0.481   5.920 -0.5774 -0.6017 -0.0369
   10SAPS   H8X 1298   2.273  -0.532   5.879 -0.0126  1.8456 -2.1323
   10SAPS   H8Y 1299   2.221  -0.390   5.972  1.3585  0.0265 -2.3331
   10SAPS   C39 1300   2.097  -0.453   5.800  0.8531 -0.0540  0.6526
   10SAPS   H9X 1301   2.112  -0.354   5.752  2.4752 -0.3286  0.5184
   10SAPS   H9Y 1302   1.990  -0.447   5.829  0.4044  0.5491 -1.0075
   10SAPS  C310 1303   2.103  -0.567   5.695  0.0328  0.2597  0.5881
   10SAPS  H10X 1304   2.084  -0.664   5.745  2.6685  0.1340  1.5234
   10SAPS  H10Y 1305   2.206  -0.579   5.654  0.5099  0.0726  1.8033
   10SAPS  C311 1306   2.003  -0.551   5.580  0.0846  0.1931  0.5351
   10SAPS  H11X 1307   2.008  -0.453   5.528 -3.1968 -0.7952 -1.9403
   10SAPS  H11Y 1308   1.907  -0.555   5.634 -1.1499 -1.2939 -1.6149
   10SAPS  C312 1309   2.003  -0.658   5.479 -0.6027 -0.9344  0.1658
   10SAPS  H12X 1310   2.024  -0.759   5.522  1.0381 -0.4285  0.6050
   10SAPS  H12Y 1311   2.089  -0.634   5.413 -0.4067 -0.1700  0.6898
   10SAPS  C313 1312   1.887  -0.669   5.371 -0.7104 -0.4810 -0.3558
   10SAPS  H13X 1313   1.870  -0.562   5.344 -0.0885 -0.0530  0.8457
   10SAPS  H13Y 1314   1.793  -0.703   5.421 -0.0203  0.0490  1.4040
   10SAPS  C314 1315   1.916  -0.746   5.244  0.1797  0.7628 -0.0812
   10SAPS  H14X 1316   1.944  -0.850   5.273 -0.3980  0.6413  0.0424
   10SAPS  H14Y 1317   2.009  -0.716   5.190  1.4132 -1.0882  0.8876
   10SAPS  C315 1318   1.796  -0.738   5.139 -1.4552 -0.1567  0.5045
   10SAPS  H15X 1319   1.758  -0.634   5.133 -0.4296  0.1522 -1.1243
   10SAPS  H15Y 1320   1.713  -0.798   5.183 -2.5853  0.8742 -0.1769
   10SAPS  C316 1321   1.799  -0.813   5.006 -0.0126  0.9860  0.6502
   10SAPS  H16X 1322   1.880  -0.777   4.938  2.6588 -0.7945  2.6857
   10SAPS  H16Y 1323   1.697  -0.808   4.964  1.0102 -0.0030 -2.2317
   10SAPS  C317 1324   1.844  -0.961   5.022  0.2952 -0.0037  0.3571
   10SAPS  H17X 1325   1.949  -0.978   5.056 -0.0296 -0.7450  1.0197
   10SAPS  H17Y 1326   1.835  -1.010   4.923 -1.6206  0.1383  0.4217
   10SAPS  C318 1327   1.741  -1.038   5.104 -1.1551 -0.5049  0.2530
   10SAPS  H18X 1328   1.738  -0.993   5.205 -1.7962 -0.2975  0.1462
   10SAPS  H18Y 1329   1.775  -1.141   5.125 -2.1933 -1.1331 -0.9548
   10SAPS  H18Z 1330   1.638  -1.050   5.062 -0.9815 -2.5619  0.2903
   11SAPS     N 1331   2.768   5.994   2.788  1.4518  0.2524  0.0205
   11SAPS   HN1 1332   2.770   6.047   2.877 -1.1090  0.8869 -0.2391
   11SAPS   HN2 1333   2.676   5.948   2.777  1.4235 -0.0977  1.5144
   11SAPS   HN3 1334   2.847   5.927   2.795  0.8762 -0.3800  0.5856
   11SAPS   C12 1335   2.786   6.086   2.675 -0.0670 -0.0718 -0.1546
   11SAPS  H12A 1336   2.834   6.022   2.602 -0.5931 -2.1512  1.2214
   11SAPS   C13 1337   2.657   6.134   2.602  0.3618 -0.0009  0.4813
   11SAPS  O13A 1338   2.542   6.105   2.647 -0.0228 -0.3225 -0.1786
   11SAPS  O13B 1339   2.676   6.220   2.511 -0.4259 -0.5545  0.5536
   11SAPS   C11 1340   2.891   6.205   2.716  0.2868 -0.5424 -0.2068
   11SAPS  H11A 1341   2.834   6.276   2.781  1.2273  0.6118 -0.6063
   11SAPS  H11B 1342   2.910   6.259   2.621  2.1319  1.7530  1.3227
   11SAPS     P 1343   3.142   6.251   2.782  0.2050  0.3000  0.0234
   11SAPS   O13 1344   3.267   6.170   2.784 -0.2737 -0.4329  0.3279
   11SAPS   O14 1345   3.145   6.355   2.679 -0.7220  0.2509  0.1851
   11SAPS   O12 1346   3.012   6.159   2.782 -0.4354 -0.6339  1.0996
   11SAPS   O11 1347   3.124   6.327   2.910  0.1927 -0.1002 -0.7403
   11SAPS    C1 1348   3.103   6.257   3.036 -0.0205 -0.0981  0.0315
   11SAPS    HA 1349   3.020   6.305   3.092  2.4220  1.1560  2.8591
   11SAPS    HB 1350   3.079   6.149   3.022 -0.4378 -0.0810  0.5741
   11SAPS    C2 1351   3.225   6.287   3.125 -0.3902 -0.0083 -1.0960
   11SAPS    HS 1352   3.262   6.392   3.119 -0.4060  0.0155 -0.8008
   11SAPS   O21 1353   3.326   6.190   3.084  0.2736 -0.3217  0.3978
   11SAPS   C21 1354   3.448   6.228   3.113  0.0659  0.3007  0.1878
   11SAPS   O22 1355   3.480   6.336   3.152  0.0752 -0.2172 -0.3484
   11SAPS   C22 1356   3.545   6.116   3.077 -0.6997 -0.4782 -0.2242
   11SAPS   H2R 1357   3.488   6.033   3.031 -1.4440 -0.4681  0.6611
   11SAPS   H2S 1358   3.622   6.152   3.005 -0.1886  0.2544  0.6662
   11SAPS    C3 1359   3.194   6.272   3.280  0.1366  0.0672  0.7589
   11SAPS    HX 1360   3.289   6.301   3.330 -0.3212  0.9118  1.1673
   11SAPS    HY 1361   3.181   6.163   3.296  0.2678 -0.1121 -0.2540
   11SAPS   O31 1362   3.082   6.344   3.341  0.5838  0.0323 -0.1786
   11SAPS   C31 1363   3.100   6.470   3.364 -0.3103 -0.3582 -0.2586
   11SAPS   O32 1364   3.199   6.535   3.337  0.1950  0.5698 -0.0722
   11SAPS   C32 1365   2.976   6.538   3.423 -0.4329  0.6595 -0.1301
   11SAPS   H2X 1366   2.905   6.541   3.338 -0.3602 -0.6697 -0.2587
   11SAPS   H2Y 1367   3.006   6.641   3.450  0.9417  0.2080  0.1653
   11SAPS   C23 1368   3.622   6.063   3.203 -0.3667 -0.1267  0.8957
   11SAPS   H3R 1369   3.689   6.143   3.241  0.6718  0.3155 -1.6690
   11SAPS   H3S 1370   3.701   5.994   3.166 -0.7595  0.0587 -0.3293
   11SAPS   C24 1371   3.530   5.995   3.309  0.1566  0.0329 -0.4499
   11SAPS   H4R 1372   3.585   5.908   3.350  2.4514  2.2043  1.3953
   11SAPS   H4S 1373   3.439   5.945   3.269  1.0879 -2.6920  0.5864
   11SAPS   C25 1374   3.495   6.095   3.422  0.0187 -0.0259  0.1578
   11SAPS   H5R 1375   3.554   6.186   3.407 -0.3743  0.4877  1.5582
   11SAPS   C26 1376   3.390   6.093   3.508 -0.8026 -0.7512 -0.6344
   11SAPS   H6R 1377   3.388   6.171   3.585 -2.2410 -0.2503 -1.1314
   11SAPS   C27 1378   3.293   5.978   3.524  0.2157  0.4188 -0.2970
   11SAPS   H7R 1379   3.352   5.891   3.561 -0.1125 -0.2340 -1.2695
   11SAPS   H7S 1380   3.281   5.937   3.421  1.8396  0.1221 -0.4098
   11SAPS   C28 1381   3.172   6.033   3.600  0.5523 -0.0174 -0.4784
   11SAPS   H8R 1382   3.081   6.031   3.538  0.8045  0.4318 -0.8832
   11SAPS   C29 1383   3.168   6.058   3.739  0.5015 -0.4096 -0.1304
   11SAPS   H9R 1384   3.074   6.096   3.782  0.5272  0.0773 -0.5019
   11SAPS  C210 1385   3.282   6.057   3.834 -0.8236  0.3435 -0.0231
   11SAPS  H10R 1386   3.350   6.142   3.812 -0.6180 -0.2716 -2.0559
   11SAPS  H10S 1387   3.341   5.965   3.813  1.4797  1.4898  1.0747
   11SAPS  C211 1388   3.247   6.053   3.979  0.5589  0.1549  0.0452
   11SAPS  H11R 1389   3.204   6.142   4.026 -2.7009 -1.4446  0.3404
   11SAPS  C212 1390   3.232   5.940   4.049 -0.3673 -0.0080 -0.0769
   11SAPS  H12R 1391   3.212   5.941   4.157 -0.9957 -4.8140  0.0814
   11SAPS  C213 1392   3.273   5.796   4.012 -0.5050 -1.2760 -0.7911
   11SAPS  H13R 1393   3.236   5.785   3.908 -0.0783  2.6584 -1.4775
   11SAPS  H13S 1394   3.213   5.722   4.070 -1.8590  0.7446  0.4925
   11SAPS  C214 1395   3.422   5.759   4.035  0.1433 -0.4286  0.4554
   11SAPS  H14R 1396   3.453   5.754   4.141 -1.2006 -1.4000  0.8187
   11SAPS  C215 1397   3.520   5.740   3.946 -0.2465 -0.7440 -0.0192
   11SAPS  H15R 1398   3.625   5.726   3.978 -0.9701 -0.0847  2.9268
   11SAPS  C216 1399   3.509   5.736   3.796 -0.0534 -0.4256 -0.4185
   11SAPS  H16R 1400   3.498   5.840   3.758  0.1519  0.0675  0.8186
   11SAPS  H16S 1401   3.419   5.676   3.771  0.1656 -0.8541 -0.1833
   11SAPS  C217 1402   3.625   5.678   3.712 -0.0228 -0.3907  0.4280
   11SAPS  H17R 1403   3.645   5.575   3.747 -2.6047 -0.8867  0.5847
   11SAPS  H17S 1404   3.716   5.739   3.731 -0.7467  0.9541 -0.2590
   11SAPS  C218 1405   3.598   5.681   3.565  0.2796 -0.5146  1.0643
   11SAPS  H18R 1406   3.561   5.778   3.527  1.3408 -0.4730  0.0950
   11SAPS  H18S 1407   3.513   5.610   3.550  0.0766  0.1023 -1.0738
   11SAPS  C219 1408   3.718   5.636   3.486  0.2144 -0.4617  0.1627
   11SAPS  H19R 1409   3.755   5.539   3.527 -0.6310 -1.6758 -1.8019
   11SAPS  H19S 1410   3.807   5.702   3.487  1.5634 -2.2084  0.6920
   11SAPS  C220 1411   3.668   5.613   3.338 -0.0187 -0.5202  0.1605
   11SAPS  H20R 1412   3.636   5.708   3.291 -2.2942 -1.4432 -0.2649
   11SAPS  H20S 1413   3.584   5.540   3.338 -0.7197  0.2492 -1.1954
   11SAPS  H20T 1414   3.756   5.576   3.281  0.7987 -2.1689  2.3115
   11SAPS   C33 1415   2.922   6.471   3.553 -0.0843 -0.5943  0.0704
   11SAPS   H3X 1416   2.905   6.363   3.530  0.9384 -0.3506 -2.0663
   11SAPS   H3Y 1417   2.828   6.518   3.588  1.5273  2.3388  0.8201
   11SAPS   C34 1418   3.019   6.482   3.670  0.1191  0.2458  0.0429
   11SAPS   H4X 1419   3.047   6.586   3.698 -2.9933  0.7859  1.5536
   11SAPS   H4Y 1420   3.107   6.425   3.634 -0.6009  0.0249 -1.4268
   11SAPS   C35 1421   2.976   6.420   3.807  0.3609  0.3284  0.8539
   11SAPS   H5X 1422   3.062   6.419   3.877  0.5645  1.1021  0.6197
   11SAPS   H5Y 1423   2.945   6.320   3.768 -1.1715  1.0975  0.0150
   11SAPS   C36 1424   2.861   6.492   3.878  0.1550  0.1858  0.1026
   11SAPS   H6X 1425   2.769   6.492   3.817  0.7158 -2.5606 -0.8791
   11SAPS   H6Y 1426   2.896   6.597   3.886 -0.5071  0.2865  3.2114
   11SAPS   C37 1427   2.822   6.421   4.012 -0.4771 -1.2676 -0.8335
   11SAPS   H7X 1428   2.775   6.321   4.000 -0.1624 -1.3758 -1.1796
   11SAPS   H7Y 1429   2.753   6.487   4.068  0.2808 -0.7359 -0.5121
   11SAPS   C38 1430   2.940   6.409   4.106 -0.4238  0.5464 -0.3516
   11SAPS   H8X 1431   2.980   6.513   4.111  1.0307 -0.0512  1.8536
   11SAPS   H8Y 1432   3.012   6.339   4.060 -1.9967 -1.4245  0.0646
   11SAPS   C39 1433   2.916   6.348   4.249 -0.2666  0.0032 -0.0755
   11SAPS   H9X 1434   2.878   6.246   4.228  0.1144  0.2855 -2.3988
   11SAPS   H9Y 1435   2.837   6.410   4.298  1.1535  1.7657  0.0661
   11SAPS  C310 1436   3.036   6.348   4.338  0.4449 -0.2220 -0.6770
   11SAPS  H10X 1437   3.090   6.445   4.338  0.8716 -0.4564  0.0962
   11SAPS  H10Y 1438   3.109   6.271   4.305  1.6117  0.4120  0.3453
   11SAPS  C311 1439   3.005   6.327   4.482 -0.4488 -0.1477 -0.0908
   11SAPS  H11X 1440   2.975   6.222   4.502  1.5453 -0.7079  0.2432
   11SAPS  H11Y 1441   2.918   6.385   4.518 -0.9244 -1.0305  0.1993
   11SAPS  C312 1442   3.129   6.362   4.569 -0.0259  0.6213  0.2634
   11SAPS  H12X 1443   3.160   6.468   4.581 -0.8319  1.1150 -1.7529
   11SAPS  H12Y 1444   3.215   6.306   4.527  0.1307 -0.7682  2.3043
   11SAPS  C313 1445   3.103   6.293   4.702  0.4942 -0.2464 -0.2823
   11SAPS  H13X 1446   3.108   6.183   4.687 -0.2371 -0.5341  1.3600
   11SAPS  H13Y 1447   3.001   6.312   4.742  0.0794  2.2613 -2.2147
   11SAPS  C314 1448   3.214   6.326   4.803 -0.5384  0.1410 -0.5444
   11SAPS  H14X 1449   3.188   6.258   4.887 -1.4850 -0.2952 -1.1762
   11SAPS  H14Y 1450   3.213   6.434   4.828  1.4908  0.0512  0.1004
   11SAPS  C315 1451   3.360   6.306   4.762  0.3312 -0.3080 -0.0274
   11SAPS  H15X 1452   3.371   6.371   4.673 -0.8339  1.8764  1.3506
   11SAPS  H15Y 1453   3.368   6.198   4.736  1.0894  0.1559 -1.8764
   11SAPS  C316 1454   3.455   6.344   4.867 -0.2064  0.4508  0.2670
   11SAPS  H16X 1455   3.452   6.269   4.950 -3.4060 -3.0407 -2.6510
   11SAPS  H16Y 1456   3.441   6.449   4.900 -0.3678  0.7543 -0.7453
   11SAPS  C317 1457   3.595   6.337   4.815 -0.0322  0.4213  0.4888
   11SAPS  H17X 1458   3.664   6.394   4.881 -0.1101 -0.2698  1.1924
   11SAPS  H17Y 1459   3.599   6.381   4.714 -1.9022 -2.1864 -0.8369
   11SAPS  C318 1460   3.650   6.195   4.805 -0.4961 -0.4894  0.6316
   11SAPS  H18X 1461   3.687   6.160   4.904  0.0330  1.8493  1.3262
   11SAPS  H18Y 1462   3.747   6.199   4.750 -0.4734  1.1428  0.7463
   11SAPS  H18Z 1463   3.579   6.123   4.760 -1.1756 -0.0141  0.9261
   12SAPS     N 1464   2.264   5.535   2.964 -0.1876 -0.0428 -0.1834
   12SAPS   HN1 1465   2.258   5.480   3.052 -1.7000  1.4914  0.7495
   12SAPS   HN2 1466   2.291   5.625   3.009  3.0647 -0.7547 -0.4639
   12SAPS   HN3 1467   2.172   5.551   2.919  0.1767 -0.8340 -1.2396
   12SAPS   C12 1468   2.363   5.480   2.868  0.0514 -0.7754 -0.1245
   12SAPS  H12A 1469   2.335   5.377   2.853  1.5090 -1.0543 -1.1553
   12SAPS   C13 1470   2.388   5.553   2.735 -0.6328 -0.6757  0.4501
   12SAPS  O13A 1471   2.321   5.653   2.703 -0.2069  0.6910  0.5247
   12SAPS  O13B 1472   2.466   5.493   2.654 -0.2109  0.8184  0.0083
   12SAPS   C11 1473   2.502   5.482   2.950  0.8269  0.0152 -0.2078
   12SAPS  H11A 1474   2.513   5.581   3.000 -1.6337 -0.1273  0.7484
   12SAPS  H11B 1475   2.591   5.459   2.887  1.4359 -1.0067  0.9831
   12SAPS     P 1476   2.548   5.229   3.012 -0.2432  0.1182  0.3570
   12SAPS   O13 1477   2.460   5.186   2.908  0.1900 -0.2526  0.1721
   12SAPS   O14 1478   2.696   5.225   2.990 -0.7758 -0.1716  0.4354
   12SAPS   O12 1479   2.514   5.380   3.051  0.1910  0.3743  0.0703
   12SAPS   O11 1480   2.518   5.140   3.140 -0.0345  0.0569  0.6291
   12SAPS    C1 1481   2.489   5.204   3.267 -1.2019  0.3171 -0.2208
   12SAPS    HA 1482   2.552   5.295   3.281 -2.2554  0.8175  1.5585
   12SAPS    HB 1483   2.381   5.230   3.272 -1.3776 -0.3112 -0.6509
   12SAPS    C2 1484   2.535   5.111   3.378 -0.6065  0.6474  0.1984
   12SAPS    HS 1485   2.521   5.172   3.470  1.7478 -1.4488  2.0822
   12SAPS   O21 1486   2.676   5.072   3.370  0.8125 -0.1282  0.2147
   12SAPS   C21 1487   2.764   5.156   3.413  0.6802 -0.5993 -0.5002
   12SAPS   O22 1488   2.742   5.266   3.468  0.3881 -0.0504  0.0643
   12SAPS   C22 1489   2.901   5.093   3.412 -0.6011  0.4377  0.1342
   12SAPS   H2R 1490   2.891   4.985   3.437 -0.0756  0.7591  1.8458
   12SAPS   H2S 1491   2.932   5.094   3.306 -1.3133 -1.0707 -0.1154
   12SAPS    C3 1492   2.450   4.982   3.405 -0.1547 -0.1710 -0.1362
   12SAPS    HX 1493   2.463   4.908   3.324  1.5044 -1.3025  1.0869
   12SAPS    HY 1494   2.346   5.016   3.386  0.2659  0.9710 -0.4492
   12SAPS   O31 1495   2.466   4.924   3.541  0.6301 -0.2802 -0.2650
   12SAPS   C31 1496   2.572   4.858   3.569  0.2543 -0.2357  0.4499
   12SAPS   O32 1497   2.644   4.811   3.478 -0.1523  0.5997 -0.1751
   12SAPS   C32 1498   2.598   4.859   3.717  0.2025 -0.3357 -1.0464
   12SAPS   H2X 1499   2.701   4.826   3.745 -0.1702  1.5138  3.3237
   12SAPS   H2Y 1500   2.519   4.799   3.765 -1.9980  0.4546 -3.4372
   12SAPS   C23 1501   2.996   5.157   3.514 -0.4816 -0.3763  0.4584
   12SAPS   H3R 1502   2.963   5.155   3.620 -0.5978 -1.9251  0.4141
   12SAPS   H3S 1503   2.995   5.266   3.492  0.6326 -0.6758 -1.2826
   12SAPS   C24 1504   3.135   5.105   3.504 -0.3666  0.3696  0.6643
   12SAPS   H4R 1505   3.198   5.166   3.572 -0.6684 -0.5058  1.7590
   12SAPS   H4S 1506   3.165   5.106   3.397 -0.1161  1.3771  0.7339
   12SAPS   C25 1507   3.150   4.961   3.555 -0.4173  0.1357 -0.4237
   12SAPS   H5R 1508   3.166   4.885   3.477 -0.4822 -1.9297  1.4842
   12SAPS   C26 1509   3.147   4.917   3.684  0.0605 -0.4374 -0.4095
   12SAPS   H6R 1510   3.166   4.812   3.711  0.3923 -0.7159 -1.6643
   12SAPS   C27 1511   3.124   5.007   3.805  0.2589 -0.3000 -0.1990
   12SAPS   H7R 1512   3.112   5.116   3.788  2.3967 -0.1507 -1.0125
   12SAPS   H7S 1513   3.219   4.997   3.860 -0.1491 -0.3918  0.5071
   12SAPS   C28 1514   3.002   4.947   3.876 -0.0638 -0.2691  0.5424
   12SAPS   H8R 1515   2.906   4.960   3.824 -0.8727 -1.2055  1.7392
   12SAPS   C29 1516   3.003   4.876   3.987 -0.6920 -0.2053 -0.0949
   12SAPS   H9R 1517   2.907   4.850   4.034 -1.3613  0.2676 -1.1787
   12SAPS  C210 1518   3.120   4.838   4.072 -1.0458 -0.6416 -1.0938
   12SAPS  H10R 1519   3.198   4.799   4.004  1.1620  0.4368  0.7155
   12SAPS  H10S 1520   3.080   4.747   4.123 -0.8796 -0.0376  0.1378
   12SAPS  C211 1521   3.175   4.934   4.178  0.4529  0.4445 -0.3826
   12SAPS  H11R 1522   3.240   5.010   4.132 -0.0913  0.9706 -0.2947
   12SAPS  C212 1523   3.152   4.928   4.315  0.2927  0.0760 -0.1457
   12SAPS  H12R 1524   3.196   5.010   4.373 -0.6802  0.8472 -0.4789
   12SAPS  C213 1525   3.050   4.838   4.389 -0.7569 -0.0829  0.3552
   12SAPS  H13R 1526   2.961   4.827   4.324  1.0864 -0.7049 -2.2647
   12SAPS  H13S 1527   3.008   4.904   4.468 -2.1519  1.8224 -1.8663
   12SAPS  C214 1528   3.099   4.709   4.449  0.6001  0.0315  0.0464
   12SAPS  H14R 1529   3.073   4.622   4.389 -0.3764  1.1068 -1.1390
   12SAPS  C215 1530   3.156   4.685   4.577  1.5914  0.7530 -0.3630
   12SAPS  H15R 1531   3.187   4.581   4.596 -0.9428  0.3376  2.3576
   12SAPS  C216 1532   3.178   4.789   4.682 -0.2768  0.4355  0.7045
   12SAPS  H16R 1533   3.201   4.889   4.639  1.6891 -0.4588 -0.4612
   12SAPS  H16S 1534   3.276   4.761   4.726 -0.4157  0.0286  0.7651
   12SAPS  C217 1535   3.065   4.802   4.787  0.2471  0.2316  0.3870
   12SAPS  H17R 1536   3.055   4.704   4.839  0.1041  0.2026  0.3048
   12SAPS  H17S 1537   2.973   4.832   4.733  0.8954  2.0766  0.2455
   12SAPS  C218 1538   3.086   4.914   4.889 -0.6103  0.1070 -0.6266
   12SAPS  H18R 1539   3.183   4.903   4.943 -1.6227  1.3397  1.5755
   12SAPS  H18S 1540   3.009   4.910   4.969 -0.8761 -2.2991 -0.9107
   12SAPS  C219 1541   3.084   5.044   4.825  0.0403 -0.6352  1.0294
   12SAPS  H19R 1542   3.021   5.039   4.733  0.1820 -0.1226  0.9021
   12SAPS  H19S 1543   3.187   5.070   4.791 -0.7581  1.3146 -0.0607
   12SAPS  C220 1544   3.045   5.162   4.923  0.0094  0.1117  0.6897
   12SAPS  H20R 1545   3.060   5.261   4.875  1.9788 -0.8710 -0.8991
   12SAPS  H20S 1546   3.116   5.152   5.008  0.0056 -1.0596  0.5731
   12SAPS  H20T 1547   2.940   5.158   4.958 -0.3987 -0.8154 -0.5706
   12SAPS   C33 1548   2.588   5.002   3.781  0.1265 -0.5209  0.2231
   12SAPS   H3X 1549   2.494   5.054   3.755  0.2659 -2.0159 -4.0310
   12SAPS   H3Y 1550   2.663   5.064   3.727 -2.5198  1.2152 -1.7344
   12SAPS   C34 1551   2.619   4.994   3.931  0.1401  0.4861 -0.3106
   12SAPS   H4X 1552   2.671   5.082   3.975  1.4762 -0.1564 -0.5549
   12SAPS   H4Y 1553   2.697   4.915   3.923 -1.1037 -0.8882  0.6497
   12SAPS   C35 1554   2.505   4.968   4.036 -0.7879  0.3429  0.0197
   12SAPS   H5X 1555   2.464   4.874   3.993 -2.0105  0.7559  0.2621
   12SAPS   H5Y 1556   2.422   5.042   4.032 -1.6482 -0.6327 -0.7048
   12SAPS   C36 1557   2.552   4.938   4.177 -0.1341  0.3660  0.1600
   12SAPS   H6X 1558   2.581   5.033   4.227  2.8637 -1.1679  1.5724
   12SAPS   H6Y 1559   2.638   4.870   4.163 -0.6757 -0.4711  0.8099
   12SAPS   C37 1560   2.446   4.868   4.259 -0.0021  0.2192 -0.1062
   12SAPS   H7X 1561   2.395   4.793   4.196  1.8149 -1.9317  0.8283
   12SAPS   H7Y 1562   2.376   4.951   4.281  0.4463  0.6662 -0.3373
   12SAPS   C38 1563   2.501   4.827   4.400  0.0981 -0.0258 -0.1058
   12SAPS   H8X 1564   2.594   4.769   4.389 -0.4504 -0.9393 -0.0067
   12SAPS   H8Y 1565   2.427   4.758   4.447 -0.3975 -0.7575 -1.8898
   12SAPS   C39 1566   2.537   4.944   4.491  0.5702  1.1960  0.2859
   12SAPS   H9X 1567   2.446   5.005   4.506  0.1073  0.4301  0.6820
   12SAPS   H9Y 1568   2.605   5.013   4.437 -0.2810  0.6854 -1.5126
   12SAPS  C310 1569   2.601   4.900   4.620  0.3193 -0.2107 -0.1759
   12SAPS  H10X 1570   2.634   4.983   4.686 -0.5908 -0.8010  1.0788
   12SAPS  H10Y 1571   2.697   4.852   4.595  0.0204 -0.3748 -1.0491
   12SAPS  C311 1572   2.500   4.823   4.702  0.2732 -0.1874 -0.4043
   12SAPS  H11X 1573   2.455   4.737   4.647  1.5903 -0.9306 -0.3737
   12SAPS  H11Y 1574   2.413   4.888   4.728  2.4311  2.0890  1.6492
   12SAPS  C312 1575   2.548   4.769   4.841 -1.0780 -0.9222  0.1052
   12SAPS  H12X 1576   2.462   4.720   4.890 -0.7233 -0.0474  1.6794
   12SAPS  H12Y 1577   2.575   4.861   4.897  0.6298 -0.2762 -1.6613
   12SAPS  C313 1578   2.671   4.679   4.837  0.2593  0.0298  0.2695
   12SAPS  H13X 1579   2.758   4.748   4.836 -0.5221  1.0775 -2.0141
   12SAPS  H13Y 1580   2.669   4.615   4.746  0.6295 -0.2138  0.4304
   12SAPS  C314 1581   2.677   4.583   4.956  0.6077 -0.5200  1.0145
   12SAPS  H14X 1582   2.758   4.508   4.944  0.7023 -0.4825  1.4085
   12SAPS  H14Y 1583   2.583   4.525   4.950  1.4898 -1.9314 -0.3307
   12SAPS  C315 1584   2.688   4.642   5.095  0.5861 -0.1113 -0.1992
   12SAPS  H15X 1585   2.677   4.561   5.171  2.0912  1.3801  1.7209
   12SAPS  H15Y 1586   2.614   4.723   5.108  0.3429 -0.2599 -0.6367
   12SAPS  C316 1587   2.834   4.700   5.101 -0.0803  0.2575  0.3236
   12SAPS  H16X 1588   2.841   4.798   5.049  1.4575 -0.0989 -0.1930
   12SAPS  H16Y 1589   2.898   4.629   5.044  0.1288 -0.0457  0.9261
   12SAPS  C317 1590   2.878   4.710   5.254  0.0768  0.7439  0.1959
   12SAPS  H17X 1591   2.870   4.604   5.286  2.2623  0.1553 -0.9490
   12SAPS  H17Y 1592   2.813   4.771   5.320 -0.0590  0.9690 -0.1432
   12SAPS  C318 1593   3.025   4.739   5.284 -0.2192  0.2388  0.6742
   12SAPS  H18X 1594   3.044   4.726   5.393 -2.6521 -0.1593  1.1078
   12SAPS  H18Y 1595   3.061   4.838   5.247  3.4929 -1.6345 -1.1940
   12SAPS  H18Z 1596   3.095   4.676   5.227 -0.8238  0.7841 -0.7368
   13SAPS     N 1597   4.553   4.137   2.166 -0.0411 -0.2853  0.8635
   13SAPS   HN1 1598   4.548   4.179   2.071 -4.1742  0.8254  1.4000
   13SAPS   HN2 1599   4.462   4.094   2.193  0.9533 -0.7803  3.7514
   13SAPS   HN3 1600   4.554   4.214   2.236 -1.9851  0.0844  0.5499
   13SAPS   C12 1601   4.666   4.046   2.182 -0.1701  0.6053  0.0920
   13SAPS  H12A 1602   4.637   3.959   2.239  2.4759 -1.5690 -1.6432
   13SAPS   C13 1603   4.733   3.983   2.061 -0.7177  0.2431  0.9510
   13SAPS  O13A 1604   4.726   4.036   1.944 -0.1041 -0.3886  0.1663
   13SAPS  O13B 1605   4.802   3.882   2.067  0.2755 -0.1438 -0.8304
   13SAPS   C11 1606   4.784   4.099   2.267 -0.0985  0.1762  0.2480
   13SAPS  H11A 1607   4.819   4.176   2.195  1.4671  1.0532  1.8496
   13SAPS  H11B 1608   4.864   4.023   2.278 -0.3812 -0.3894 -1.3942
   13SAPS     P 1609   4.818   4.257   2.462  0.6455 -0.0005 -0.3654
   13SAPS   O13 1610   4.960   4.220   2.443 -0.4590 -0.0133  0.6620
   13SAPS   O14 1611   4.779   4.387   2.414 -0.2179  0.6872  0.0007
   13SAPS   O12 1612   4.732   4.150   2.389 -0.1908  0.4091  0.6823
   13SAPS   O11 1613   4.779   4.251   2.615  0.1641  0.0172 -0.0692
   13SAPS    C1 1614   4.648   4.292   2.658  0.3004  0.0563 -0.0374
   13SAPS    HA 1615   4.642   4.403   2.653 -0.8729 -0.0578 -2.0802
   13SAPS    HB 1616   4.569   4.256   2.589 -0.0934  1.1026 -0.1531
   13SAPS    C2 1617   4.617   4.222   2.800 -0.7341 -0.1858  1.0803
   13SAPS    HS 1618   4.506   4.213   2.811 -0.6845 -1.5458  0.6126
   13SAPS   O21 1619   4.681   4.299   2.902 -0.3342  0.1336  0.0934
   13SAPS   C21 1620   4.615   4.401   2.951  0.5720 -0.9196 -0.0965
   13SAPS   O22 1621   4.507   4.444   2.905  0.9695 -0.1857  0.1395
   13SAPS   C22 1622   4.701   4.456   3.071  0.8490 -0.3360 -0.9173
   13SAPS   H2R 1623   4.811   4.447   3.060  0.8470 -0.9920 -0.4195
   13SAPS   H2S 1624   4.680   4.562   3.096  0.6617 -0.8927  1.4727
   13SAPS    C3 1625   4.666   4.077   2.794 -0.2157 -0.0819  0.6749
   13SAPS    HX 1626   4.775   4.072   2.774 -0.1510 -2.7512  1.3432
   13SAPS    HY 1627   4.623   4.024   2.706  0.8534 -0.0561  0.1143
   13SAPS   O31 1628   4.616   4.013   2.915 -0.0273 -0.5790 -0.2764
   13SAPS   C31 1629   4.696   4.000   3.024  0.1730  0.2892  0.3790
   13SAPS   O32 1630   4.812   4.038   3.048  0.2844 -0.0692  0.7058
   13SAPS   C32 1631   4.613   3.922   3.127 -0.3034  0.2970  0.4573
   13SAPS   H2X 1632   4.668   3.828   3.149  1.8462  0.3464 -3.7278
   13SAPS   H2Y 1633   4.517   3.889   3.083 -0.6966  2.3624 -0.3281
   13SAPS   C23 1634   4.666   4.372   3.196  0.0467  0.2612 -0.5275
   13SAPS   H3R 1635   4.734   4.402   3.279  0.5090 -1.0161 -0.4246
   13SAPS   H3S 1636   4.685   4.263   3.185 -1.5786 -0.4336  2.4173
   13SAPS   C24 1637   4.529   4.380   3.268  0.5565 -0.6540  0.8703
   13SAPS   H4R 1638   4.537   4.326   3.365  1.1842  0.1031  1.2525
   13SAPS   H4S 1639   4.460   4.327   3.199  2.3176 -2.3135  0.3197
   13SAPS   C25 1640   4.473   4.520   3.272 -0.3417  0.6138 -0.5790
   13SAPS   H5R 1641   4.462   4.566   3.173 -3.3820 -0.2780 -0.7626
   13SAPS   C26 1642   4.429   4.576   3.381 -0.1815 -0.4112 -0.2500
   13SAPS   H6R 1643   4.411   4.684   3.373 -2.5714 -0.6248  1.3293
   13SAPS   C27 1644   4.420   4.534   3.524  0.0501  0.6218 -0.1949
   13SAPS   H7R 1645   4.512   4.568   3.575 -0.5672  2.3097 -0.1415
   13SAPS   H7S 1646   4.405   4.424   3.534  2.4218  0.0197 -2.2174
   13SAPS   C28 1647   4.299   4.585   3.604 -0.1223  0.0768 -0.5663
   13SAPS   H8R 1648   4.211   4.620   3.548 -2.7780  1.6300  4.0365
   13SAPS   C29 1649   4.283   4.589   3.743  0.3251 -0.2703  0.4566
   13SAPS   H9R 1650   4.187   4.624   3.784  0.0427  1.0021 -1.1552
   13SAPS  C210 1651   4.383   4.553   3.846 -0.2368 -0.4388 -0.6729
   13SAPS  H10R 1652   4.421   4.641   3.903 -0.2920 -1.3819  0.8820
   13SAPS  H10S 1653   4.473   4.523   3.788  2.3907  1.0069  2.3210
   13SAPS  C211 1654   4.352   4.443   3.946 -0.4292  0.1061  0.0442
   13SAPS  H11R 1655   4.374   4.342   3.911  1.4841 -0.6000  2.9655
   13SAPS  C212 1656   4.285   4.452   4.061 -0.4563 -0.2433 -0.0008
   13SAPS  H12R 1657   4.261   4.360   4.116 -0.2581 -1.2379 -1.4880
   13SAPS  C213 1658   4.261   4.587   4.126  0.4619  0.7142 -0.0519
   13SAPS  H13R 1659   4.310   4.673   4.076 -0.3706  1.7939  0.9176
   13SAPS  H13S 1660   4.311   4.577   4.225 -0.8916  0.1116  0.6012
   13SAPS  C214 1661   4.108   4.612   4.143 -0.3267  0.4665  0.3193
   13SAPS  H14R 1662   4.049   4.559   4.066 -0.6429 -0.9984  1.5314
   13SAPS  C215 1663   4.046   4.689   4.233  0.2285 -0.2297  0.2753
   13SAPS  H15R 1664   3.936   4.703   4.234  0.0140 -1.7087  1.2900
   13SAPS  C216 1665   4.120   4.784   4.324  0.4135  0.7149 -1.1212
   13SAPS  H16R 1666   4.105   4.888   4.290 -1.0048  1.2797  1.0695
   13SAPS  H16S 1667   4.230   4.771   4.317  0.0988 -2.9243 -1.3249
   13SAPS  C217 1668   4.077   4.787   4.475 -0.0744  0.2575  0.1669
   13SAPS  H17R 1669   3.967   4.799   4.466  0.0609  1.3517 -0.1956
   13SAPS  H17S 1670   4.112   4.881   4.522  0.2684  1.5844 -2.5565
   13SAPS  C218 1671   4.115   4.658   4.549  0.0873  0.5709 -0.3863
   13SAPS  H18R 1672   4.094   4.562   4.497  1.4762 -1.0040  1.8040
   13SAPS  H18S 1673   4.065   4.657   4.648 -1.5298  1.6439 -1.1438
   13SAPS  C219 1674   4.269   4.668   4.576  0.1188  0.6292  0.1521
   13SAPS  H19R 1675   4.278   4.771   4.618 -0.6540  1.2543 -1.1607
   13SAPS  H19S 1676   4.330   4.652   4.485 -0.2029  1.1804 -0.1682
   13SAPS  C220 1677   4.322   4.575   4.680 -0.0768 -0.3762 -0.0979
   13SAPS  H20R 1678   4.384   4.631   4.754  0.1449 -2.8401  1.7098
   13SAPS  H20S 1679   4.382   4.496   4.630 -2.2564 -0.6326 -2.4549
   13SAPS  H20T 1680   4.239   4.532   4.740  0.9947 -1.7558  0.4503
   13SAPS   C33 1681   4.581   4.004   3.251  0.8438 -0.5506 -0.1351
   13SAPS   H3X 1682   4.524   4.095   3.223  1.4133 -0.3085 -0.5183
   13SAPS   H3Y 1683   4.672   4.028   3.310  0.7455 -0.3853 -0.0507
   13SAPS   C34 1684   4.502   3.916   3.346 -0.5590 -0.5977 -0.1552
   13SAPS   H4X 1685   4.573   3.839   3.383  1.4875  1.4721  0.5409
   13SAPS   H4Y 1686   4.423   3.855   3.298 -2.2796  2.7642 -2.0052
   13SAPS   C35 1687   4.464   3.998   3.470  0.3015 -0.6108  0.0492
   13SAPS   H5X 1688   4.428   4.100   3.443  1.4758  0.1386  1.1703
   13SAPS   H5Y 1689   4.551   4.011   3.538  0.5097 -2.0286  0.0842
   13SAPS   C36 1690   4.362   3.928   3.561  0.5255  0.2874 -0.0586
   13SAPS   H6X 1691   4.397   3.823   3.570  0.9292  0.4146 -0.1573
   13SAPS   H6Y 1692   4.262   3.928   3.511  1.1263 -0.6507 -1.3173
   13SAPS   C37 1693   4.335   4.002   3.697 -0.2640  0.1797  1.0524
   13SAPS   H7X 1694   4.319   4.111   3.683 -2.0378 -0.2239 -0.4241
   13SAPS   H7Y 1695   4.417   3.983   3.770 -0.9921 -1.1007  1.5750
   13SAPS   C38 1696   4.208   3.960   3.770  0.0448  0.1701 -0.8360
   13SAPS   H8X 1697   4.206   3.849   3.770 -0.3335  0.1728 -0.2269
   13SAPS   H8Y 1698   4.124   3.984   3.702 -1.0179 -2.2496 -0.4919
   13SAPS   C39 1699   4.192   4.014   3.918 -0.1896 -0.6452  0.4688
   13SAPS   H9X 1700   4.217   4.122   3.913 -1.5861 -0.2485  1.4698
   13SAPS   H9Y 1701   4.270   3.968   3.982 -0.4313  0.7828  1.8638
   13SAPS  C310 1702   4.053   3.999   3.977  0.1837 -0.9750 -0.4180
   13SAPS  H10X 1703   4.022   3.893   3.976 -1.5037 -0.5336  0.4216
   13SAPS  H10Y 1704   3.976   4.049   3.914  0.9215 -2.3756 -2.5402
   13SAPS  C311 1705   4.045   4.048   4.128 -0.4175  0.1895  0.4310
   13SAPS  H11X 1706   3.949   4.020   4.176 -1.5818 -0.7229 -2.1909
   13SAPS  H11Y 1707   4.068   4.157   4.138  0.7331  0.2355 -1.8428
   13SAPS  C312 1708   4.146   3.982   4.221  0.3475 -0.7808  0.7059
   13SAPS  H12X 1709   4.250   4.016   4.201 -0.7582  2.2962 -0.4015
   13SAPS  H12Y 1710   4.138   3.871   4.213 -1.2585 -0.7880  1.9336
   13SAPS  C313 1711   4.118   4.023   4.370  0.1437  0.1255  0.4196
   13SAPS  H13X 1712   4.012   4.045   4.395  0.3755  1.4640  0.2802
   13SAPS  H13Y 1713   4.191   4.105   4.382  1.0905 -0.6002 -0.2982
   13SAPS  C314 1714   4.165   3.925   4.473 -0.3985 -0.8110 -0.6460
   13SAPS  H14X 1715   4.270   3.894   4.458 -0.5227 -0.8005 -1.6026
   13SAPS  H14Y 1716   4.102   3.834   4.463 -2.0848  0.4025 -1.6346
   13SAPS  C315 1717   4.147   3.978   4.614 -0.5083 -0.2056  0.2395
   13SAPS  H15X 1718   4.038   3.982   4.633 -0.6849  0.6102 -0.8911
   13SAPS  H15Y 1719   4.180   4.084   4.624 -0.0807 -0.1390 -1.5594
   13SAPS  C316 1720   4.215   3.892   4.724  0.2344  0.1213  0.0451
   13SAPS  H16X 1721   4.220   3.787   4.688 -2.0213 -0.2297  0.6421
   13SAPS  H16Y 1722   4.157   3.890   4.818  0.7838  0.6693  0.4059
   13SAPS  C317 1723   4.363   3.933   4.753 -0.0425 -0.6081 -0.4440
   13SAPS  H17X 1724   4.345   4.032   4.799  0.0115 -0.2481 -1.1957
   13SAPS  H17Y 1725   4.433   3.942   4.668 -1.8998 -0.4783 -2.0249
   13SAPS  C318 1726   4.423   3.853   4.862  0.0367  0.2356 -0.6653
   13SAPS  H18X 1727   4.372   3.862   4.960  1.4178 -2.0326  0.3206
   13SAPS  H18Y 1728   4.529   3.875   4.885  0.4319 -3.8281  2.6036
   13SAPS  H18Z 1729   4.422   3.746   4.832  4.3099  0.3096 -1.7336
   14SAPS     N 1730   3.720   4.378   2.422  0.0011 -0.1140  0.1336
   14SAPS   HN1 1731   3.685   4.440   2.498  0.5220  1.0017 -0.5167
   14SAPS   HN2 1732   3.636   4.359   2.364  1.1359  0.6221 -1.8425
   14SAPS   HN3 1733   3.761   4.292   2.464  1.7993  1.4416  1.7875
   14SAPS   C12 1734   3.807   4.451   2.335 -0.5878 -0.1331  0.4616
   14SAPS  H12A 1735   3.880   4.380   2.299 -0.1868  0.7148 -0.4558
   14SAPS   C13 1736   3.721   4.497   2.210  0.2144  0.8135 -0.3403
   14SAPS  O13A 1737   3.601   4.476   2.191 -0.1124  0.2931 -0.0098
   14SAPS  O13B 1738   3.791   4.545   2.120  0.4238 -0.4731  0.3385
   14SAPS   C11 1739   3.884   4.561   2.409 -0.1100  0.3740 -0.0750
   14SAPS  H11A 1740   3.824   4.639   2.460  2.4022  0.5907  2.8634
   14SAPS  H11B 1741   3.954   4.609   2.338  1.5759 -1.3455  0.3476
   14SAPS     P 1742   4.099   4.541   2.563  0.1058 -0.3666  0.3098
   14SAPS   O13 1743   4.186   4.433   2.531 -0.4112  0.3503 -0.3311
   14SAPS   O14 1744   4.139   4.676   2.524 -0.0242 -0.0068  0.6376
   14SAPS   O12 1745   3.956   4.501   2.518  0.2863  0.0101  0.4500
   14SAPS   O11 1746   4.077   4.537   2.719  0.3576  0.4479 -0.4008
   14SAPS    C1 1747   3.998   4.428   2.775  0.6983  0.6554 -0.6597
   14SAPS    HA 1748   3.901   4.462   2.817 -0.3740  0.7965 -3.1118
   14SAPS    HB 1749   3.982   4.340   2.710 -3.4076  1.0054 -0.3748
   14SAPS    C2 1750   4.065   4.360   2.892  0.2918  0.5412 -0.0434
   14SAPS    HS 1751   3.984   4.293   2.929 -2.6641  2.6524 -2.2319
   14SAPS   O21 1752   4.104   4.457   2.988  0.8152  0.3859 -0.5841
   14SAPS   C21 1753   4.020   4.487   3.095  0.3343 -0.0008 -0.4920
   14SAPS   O22 1754   3.917   4.432   3.124 -0.2618 -0.1737  0.6811
   14SAPS   C22 1755   4.082   4.600   3.181  0.4442  0.9329 -0.6002
   14SAPS   H2R 1756   4.143   4.543   3.255 -1.3529 -1.6437 -0.9416
   14SAPS   H2S 1757   4.144   4.653   3.106  1.5350 -2.1802 -2.0652
   14SAPS    C3 1758   4.186   4.268   2.854 -0.1453 -0.5634  0.2529
   14SAPS    HX 1759   4.262   4.332   2.805  1.4033 -1.3986  1.4634
   14SAPS    HY 1760   4.147   4.192   2.784  3.8353 -2.5178 -0.1393
   14SAPS   O31 1761   4.239   4.202   2.967 -0.2464  0.1039 -0.2976
   14SAPS   C31 1762   4.173   4.104   3.020  0.0911 -0.2929  0.5287
   14SAPS   O32 1763   4.064   4.064   2.976 -0.7905  0.2767 -0.3950
   14SAPS   C32 1764   4.234   4.044   3.147 -0.5895  0.2798  0.1619
   14SAPS   H2X 1765   4.329   4.098   3.166  0.2175 -0.5737 -1.2737
   14SAPS   H2Y 1766   4.253   3.936   3.127 -0.9663 -0.1439  1.9011
   14SAPS   C23 1767   3.976   4.688   3.241  0.6257 -0.0337 -0.2978
   14SAPS   H3R 1768   3.924   4.641   3.328  0.0539  0.6818 -0.2408
   14SAPS   H3S 1769   3.888   4.710   3.177  0.6498  2.6839  0.4728
   14SAPS   C24 1770   4.016   4.830   3.293 -0.3140  0.3712  0.0099
   14SAPS   H4R 1771   4.045   4.885   3.201  1.2313  2.4252  1.6250
   14SAPS   H4S 1772   4.108   4.817   3.354 -0.3807 -0.3166 -0.0236
   14SAPS   C25 1773   3.909   4.903   3.364  0.0511  0.0929  0.0942
   14SAPS   H5R 1774   3.855   4.979   3.306  0.2740  0.6375  0.5871
   14SAPS   C26 1775   3.881   4.892   3.491  0.3909  0.3004 -0.5921
   14SAPS   H6R 1776   3.791   4.947   3.524  0.9916  1.6226 -1.0605
   14SAPS   C27 1777   3.957   4.798   3.585  0.0781  0.0686  0.1303
   14SAPS   H7R 1778   4.010   4.716   3.533  1.4984  0.3035  1.1621
   14SAPS   H7S 1779   3.875   4.758   3.649  0.4767 -1.0597 -0.0434
   14SAPS   C28 1780   4.056   4.879   3.668  0.1622  0.0932 -0.7413
   14SAPS   H8R 1781   4.148   4.905   3.613  1.5189 -4.2134 -0.8833
   14SAPS   C29 1782   4.048   4.911   3.801 -0.3062  0.0423 -0.0067
   14SAPS   H9R 1783   4.142   4.955   3.837 -0.5143  1.8101 -1.4653
   14SAPS  C210 1784   3.937   4.880   3.902  0.0326  0.4436  0.4796
   14SAPS  H10R 1785   3.983   4.878   4.003  1.5702 -1.3869 -0.1999
   14SAPS  H10S 1786   3.889   4.783   3.877  0.9677 -0.0823  0.6887
   14SAPS  C211 1787   3.827   4.984   3.892  0.4526 -0.2029 -0.2025
   14SAPS  H11R 1788   3.757   4.974   3.808  0.1273  2.7536 -0.4085
   14SAPS  C212 1789   3.807   5.088   3.974  0.4841 -0.9811 -0.1337
   14SAPS  H12R 1790   3.723   5.156   3.954 -0.1801 -1.2234  1.6704
   14SAPS  C213 1791   3.891   5.120   4.098  0.2691  0.7598  0.2949
   14SAPS  H13R 1792   3.991   5.152   4.062  0.4017  3.0015  2.4197
   14SAPS  H13S 1793   3.909   5.042   4.175  0.9217  2.3683  1.8459
   14SAPS  C214 1794   3.842   5.240   4.161 -0.1069 -0.2470 -0.4671
   14SAPS  H14R 1795   3.823   5.314   4.082 -2.0389 -2.3258 -2.0863
   14SAPS  C215 1796   3.852   5.275   4.290  0.6186  0.4315 -0.1579
   14SAPS  H15R 1797   3.814   5.375   4.315  0.1449  0.0123  0.8248
   14SAPS  C216 1798   3.907   5.194   4.403 -1.1769  0.4002 -0.5283
   14SAPS  H16R 1799   3.925   5.088   4.373  0.5891 -0.0521  1.7929
   14SAPS  H16S 1800   3.836   5.190   4.489 -1.2104  0.3930 -0.5564
   14SAPS  C217 1801   4.049   5.237   4.447  0.1090  0.2487 -0.6748
   14SAPS  H17R 1802   4.115   5.238   4.357 -2.0923 -0.3924 -2.4059
   14SAPS  H17S 1803   4.085   5.168   4.526 -0.6651  0.7716  0.1431
   14SAPS  C218 1804   4.061   5.373   4.513 -0.6053  0.1167  0.8975
   14SAPS  H18R 1805   4.060   5.456   4.439  4.3942 -0.2446  0.0445
   14SAPS  H18S 1806   4.162   5.390   4.556 -0.5246  1.1683  0.3353
   14SAPS  C219 1807   3.966   5.395   4.638 -0.2424  0.1457  0.7406
   14SAPS  H19R 1808   3.994   5.315   4.709 -0.5433 -0.0145  0.6807
   14SAPS  H19S 1809   3.860   5.386   4.606 -0.0437 -0.9143  0.3175
   14SAPS  C220 1810   3.971   5.533   4.696 -0.2636  0.5388 -0.4721
   14SAPS  H20R 1811   3.885   5.569   4.756  0.8223  0.0473  1.4551
   14SAPS  H20S 1812   3.975   5.607   4.613 -2.5495  0.5112 -0.6669
   14SAPS  H20T 1813   4.061   5.553   4.758  2.8546  0.2601 -4.4484
   14SAPS   C33 1814   4.136   4.063   3.266  0.5675 -0.3951 -0.5350
   14SAPS   H3X 1815   4.166   3.996   3.349 -1.5081 -1.4096 -0.5580
   14SAPS   H3Y 1816   4.036   4.025   3.238 -0.3033  0.8712  0.7116
   14SAPS   C34 1817   4.116   4.207   3.318  0.9725 -0.7566  0.0034
   14SAPS   H4X 1818   4.096   4.275   3.232 -2.5307 -2.0256 -0.3653
   14SAPS   H4Y 1819   4.214   4.245   3.352 -0.0579  0.2441  2.0624
   14SAPS   C35 1820   4.012   4.224   3.425 -1.0031  0.1473 -0.5233
   14SAPS   H5X 1821   4.049   4.173   3.517 -1.2865 -2.1493 -1.6240
   14SAPS   H5Y 1822   3.926   4.160   3.397 -1.7371  1.0700 -0.4268
   14SAPS   C36 1823   3.963   4.363   3.463  0.2880 -0.3225  0.1486
   14SAPS   H6X 1824   3.921   4.404   3.368 -1.8085  0.0127  1.1650
   14SAPS   H6Y 1825   4.044   4.433   3.494 -1.2062  1.9428 -0.7471
   14SAPS   C37 1826   3.839   4.366   3.559  0.5406  0.0389  0.1078
   14SAPS   H7X 1827   3.750   4.316   3.517  0.5706 -1.2135  1.4516
   14SAPS   H7Y 1828   3.819   4.475   3.574  3.4083  0.4991  1.4099
   14SAPS   C38 1829   3.860   4.308   3.700 -0.1209 -0.0787 -0.8201
   14SAPS   H8X 1830   3.954   4.351   3.739 -0.5330 -0.0834  0.1931
   14SAPS   H8Y 1831   3.872   4.198   3.685  0.7444 -0.7301  3.4849
   14SAPS   C39 1832   3.750   4.341   3.794 -1.2638  0.2923 -0.1381
   14SAPS   H9X 1833   3.655   4.292   3.765  0.2489 -1.3524 -2.6764
   14SAPS   H9Y 1834   3.743   4.452   3.802  0.2102  0.3083  1.4128
   14SAPS  C310 1835   3.782   4.295   3.938  0.0315 -0.0567 -0.7846
   14SAPS  H10X 1836   3.879   4.336   3.974 -0.4495 -0.0798  0.5905
   14SAPS  H10Y 1837   3.785   4.184   3.936 -0.9087 -0.1493  0.7104
   14SAPS  C311 1838   3.668   4.345   4.034 -0.1573  0.2591  0.8733
   14SAPS  H11X 1839   3.563   4.339   3.998 -0.2119  2.2541  0.5713
   14SAPS  H11Y 1840   3.690   4.454   4.036  1.4502  0.3101 -4.3969
   14SAPS  C312 1841   3.678   4.293   4.184  0.5009 -0.2640  0.5524
   14SAPS  H12X 1842   3.652   4.185   4.176  0.3742 -0.1702 -0.3909
   14SAPS  H12Y 1843   3.598   4.352   4.234 -1.6455 -0.4376 -2.3853
   14SAPS  C313 1844   3.809   4.328   4.244  0.7581 -0.5343  0.3274
   14SAPS  H13X 1845   3.821   4.438   4.258 -1.5747 -0.1481 -0.2219
   14SAPS  H13Y 1846   3.895   4.295   4.182  0.5550  3.4181 -2.4162
   14SAPS  C314 1847   3.811   4.270   4.382  0.2499 -0.2613 -0.0805
   14SAPS  H14X 1848   3.821   4.160   4.369 -0.3039 -0.2218 -0.9857
   14SAPS  H14Y 1849   3.710   4.298   4.419 -0.1584 -0.5570 -0.9336
   14SAPS  C315 1850   3.915   4.321   4.477 -0.5733 -0.5516 -0.3132
   14SAPS  H15X 1851   3.919   4.432   4.485  2.0744 -0.5889 -0.2043
   14SAPS  H15Y 1852   4.012   4.282   4.441 -0.3924 -0.0880 -0.3245
   14SAPS  C316 1853   3.894   4.266   4.623  0.5719 -0.4214  0.0150
   14SAPS  H16X 1854   3.915   4.157   4.621 -1.9193 -0.9473 -1.3920
   14SAPS  H16Y 1855   3.793   4.295   4.660  0.6471  1.0059 -0.8015
   14SAPS  C317 1856   3.992   4.335   4.721  0.0241 -0.3542  0.0963
   14SAPS  H17X 1857   3.985   4.446   4.718  0.8488 -0.2378 -4.0591
   14SAPS  H17Y 1858   4.094   4.304   4.689  0.8897  0.3833  2.0225
   14SAPS  C318 1859   3.973   4.293   4.870 -0.7140 -0.0363  0.3343
   14SAPS  H18X 1860   3.959   4.182   4.874 -0.9698 -0.0764 -1.2459
   14SAPS  H18Y 1861   3.882   4.344   4.907 -1.5934 -0.2328 -1.4763
   14SAPS  H18Z 1862   4.053   4.318   4.943  0.0824 -1.6387  0.0584
   15SAPS     N 1863   6.261   6.338   3.015 -0.5045 -0.3182 -0.4965
   15SAPS   HN1 1864   6.232   6.413   3.081 -0.0354 -0.0213 -0.6193
   15SAPS   HN2 1865   6.290   6.251   3.064  2.9646 -0.5498 -2.6246
   15SAPS   HN3 1866   6.344   6.367   2.960  0.4207 -0.8110  0.6077
   15SAPS   C12 1867   6.143   6.307   2.935  0.3893  0.2280  0.3254
   15SAPS  H12A 1868   6.129   6.385   2.862 -0.0326 -2.0727 -2.2120
   15SAPS   C13 1869   6.168   6.176   2.854  0.0162 -0.4623 -0.5020
   15SAPS  O13A 1870   6.264   6.100   2.884 -0.0273 -0.5278  0.4832
   15SAPS  O13B 1871   6.079   6.137   2.777  0.4221 -0.0662  0.4766
   15SAPS   C11 1872   6.027   6.300   3.029  0.8256  0.3339 -0.2667
   15SAPS  H11A 1873   5.934   6.280   2.972  0.4384  0.4056  0.3328
   15SAPS  H11B 1874   6.012   6.404   3.065 -2.0872 -0.5981  1.5192
   15SAPS     P 1875   5.937   6.093   3.170 -0.0964 -0.0738  0.2581
   15SAPS   O13 1876   5.914   6.005   3.056  0.2109  0.4576  0.3995
   15SAPS   O14 1877   5.990   6.027   3.291  0.1203 -0.2270 -0.1639
   15SAPS   O12 1878   6.048   6.202   3.136  0.1465 -0.0999 -0.1624
   15SAPS   O11 1879   5.806   6.185   3.197  0.2209 -0.8601 -0.6353
   15SAPS    C1 1880   5.691   6.108   3.237 -0.2913 -0.4482  0.4525
   15SAPS    HA 1881   5.672   6.018   3.175 -0.0525  0.8155 -1.5615
   15SAPS    HB 1882   5.719   6.073   3.339  2.6447 -2.1952 -0.8084
   15SAPS    C2 1883   5.561   6.191   3.232 -0.5631 -0.2801 -0.2510
   15SAPS    HS 1884   5.557   6.231   3.129 -0.4487  0.2984 -0.0351
   15SAPS   O21 1885   5.565   6.290   3.334  0.0094  0.3830  0.2177
   15SAPS   C21 1886   5.485   6.394   3.321  0.1530  0.0228 -0.5802
   15SAPS   O22 1887   5.400   6.405   3.227  0.4256  0.0435  0.4163
   15SAPS   C22 1888   5.508   6.506   3.425 -0.4894 -0.4209  0.1558
   15SAPS   H2R 1889   5.519   6.605   3.376 -1.1837 -1.1980 -1.6417
   15SAPS   H2S 1890   5.416   6.517   3.486 -0.6021  2.1236 -0.3489
   15SAPS    C3 1891   5.430   6.096   3.244 -0.4457  0.1114 -0.3535
   15SAPS    HX 1892   5.430   6.004   3.180 -1.7185 -0.3632  0.3011
   15SAPS    HY 1893   5.337   6.150   3.216  0.0500 -0.0854 -2.6608
   15SAPS   O31 1894   5.410   6.047   3.375  0.2975  0.4052 -0.1371
   15SAPS   C31 1895   5.458   5.928   3.415 -0.2120 -0.1451  0.2107
   15SAPS   O32 1896   5.519   5.844   3.347  0.3895 -0.9751  0.3755
   15SAPS   C32 1897   5.444   5.932   3.572 -0.2629 -0.0439 -0.2381
   15SAPS   H2X 1898   5.351   5.989   3.595 -0.2561  0.1182 -0.6114
   15SAPS   H2Y 1899   5.533   5.985   3.610  0.1992  0.1401 -1.5260
   15SAPS   C23 1900   5.628   6.476   3.518 -0.0719  0.1125 -0.2689
   15SAPS   H3R 1901   5.723   6.473   3.460  0.5086  2.9330  0.3943
   15SAPS   H3S 1902   5.603   6.379   3.567 -1.2079 -0.9909 -2.8721
   15SAPS   C24 1903   5.655   6.585   3.624 -0.1967  0.4460 -0.4094
   15SAPS   H4R 1904   5.690   6.673   3.565  0.3257  0.3364 -0.2739
   15SAPS   H4S 1905   5.742   6.545   3.681 -1.5578 -0.6503  0.9734
   15SAPS   C25 1906   5.547   6.619   3.724 -0.3431  0.2840 -0.3373
   15SAPS   H5R 1907   5.502   6.529   3.768 -0.0199 -0.9259 -2.3240
   15SAPS   C26 1908   5.490   6.740   3.752 -0.5015  0.0396 -1.0073
   15SAPS   H6R 1909   5.413   6.741   3.831 -0.5218  0.1675 -1.0275
   15SAPS   C27 1910   5.530   6.873   3.692  0.7336  0.0703  0.4788
   15SAPS   H7R 1911   5.579   6.855   3.594  0.4779 -1.5979  0.6359
   15SAPS   H7S 1912   5.613   6.910   3.756  1.1765 -1.2058  0.6651
   15SAPS   C28 1913   5.423   6.976   3.673 -0.1378 -0.0077  0.1928
   15SAPS   H8R 1914   5.371   6.984   3.577 -2.4217  1.9888  1.4971
   15SAPS   C29 1915   5.373   7.054   3.777 -0.2988 -0.3712 -0.2027
   15SAPS   H9R 1916   5.307   7.139   3.757  0.4001 -0.0637 -1.2529
   15SAPS  C210 1917   5.422   7.048   3.921 -0.1041 -0.4138  0.0048
   15SAPS  H10R 1918   5.418   7.155   3.951  0.3339 -0.3425 -0.1808
   15SAPS  H10S 1919   5.528   7.016   3.925  0.6952  2.1181  2.0237
   15SAPS  C211 1920   5.346   6.951   4.006  0.4074 -0.3257  0.5017
   15SAPS  H11R 1921   5.260   6.901   3.959  0.8974  1.8100 -3.0198
   15SAPS  C212 1922   5.363   6.927   4.138  0.4599 -0.4273  0.6017
   15SAPS  H12R 1923   5.291   6.860   4.187 -0.0459  1.1853  2.1907
   15SAPS  C213 1924   5.461   6.993   4.231  0.4993  0.6902 -0.0726
   15SAPS  H13R 1925   5.452   6.953   4.335 -0.2679 -0.8760 -0.7207
   15SAPS  H13S 1926   5.446   7.103   4.228 -0.0537  0.6367  0.4983
   15SAPS  C214 1927   5.607   6.976   4.197  0.2240  0.5930 -0.5838
   15SAPS  H14R 1928   5.621   6.906   4.113 -3.6686 -3.2392  1.5847
   15SAPS  C215 1929   5.710   6.991   4.278  0.8841  0.4316  0.2230
   15SAPS  H15R 1930   5.814   6.982   4.242  0.4998  2.8903 -1.8284
   15SAPS  C216 1931   5.708   7.052   4.411  0.5428  0.5420  0.0309
   15SAPS  H16R 1932   5.605   7.089   4.433  0.3193  0.2305 -0.4551
   15SAPS  H16S 1933   5.777   7.137   4.422  1.2252  0.0495 -0.3458
   15SAPS  C217 1934   5.741   6.940   4.516  0.3346 -0.3078 -0.5927
   15SAPS  H17R 1935   5.754   6.844   4.462  1.2643 -0.2909 -0.4169
   15SAPS  H17S 1936   5.648   6.943   4.577 -0.1265 -0.0620 -1.2963
   15SAPS  C218 1937   5.860   6.973   4.599 -0.7055 -0.8644 -0.5765
   15SAPS  H18R 1938   5.924   7.054   4.558 -1.2400 -0.4139 -0.5390
   15SAPS  H18S 1939   5.926   6.885   4.586  0.5738 -0.0356  0.0860
   15SAPS  C219 1940   5.819   6.999   4.746  0.7954  0.0495  0.1912
   15SAPS  H19R 1941   5.733   7.071   4.746  0.1728 -0.6733  0.8328
   15SAPS  H19S 1942   5.899   7.041   4.811 -1.0689  0.2141  2.5331
   15SAPS  C220 1943   5.786   6.869   4.826 -0.4724 -0.4153  0.4427
   15SAPS  H20R 1944   5.712   6.800   4.780 -1.8822 -0.6197  2.8065
   15SAPS  H20S 1945   5.731   6.902   4.917  0.1738  1.3600  0.2197
   15SAPS  H20T 1946   5.872   6.811   4.864 -0.1413  2.0464  3.9679
   15SAPS   C33 1947   5.414   5.796   3.635 -0.6119 -0.1675 -0.1111
   15SAPS   H3X 1948   5.497   5.729   3.606  1.4663  0.8780  2.8773
   15SAPS   H3Y 1949   5.320   5.760   3.587  1.3775 -5.1570 -0.8489
   15SAPS   C34 1950   5.411   5.803   3.786  0.4878 -0.2526  0.2839
   15SAPS   H4X 1951   5.326   5.867   3.820  0.0701 -0.9499  0.5707
   15SAPS   H4Y 1952   5.507   5.844   3.824  0.1907  1.8009 -1.0157
   15SAPS   C35 1953   5.381   5.663   3.843  0.3457  0.0774  0.3878
   15SAPS   H5X 1954   5.462   5.595   3.809  0.3536  0.1855  0.1843
   15SAPS   H5Y 1955   5.281   5.629   3.810  0.2783  0.5855  0.0572
   15SAPS   C36 1956   5.377   5.659   3.990  0.3403  0.3759 -0.6526
   15SAPS   H6X 1957   5.290   5.713   4.034 -0.3560 -1.3728  0.1933
   15SAPS   H6Y 1958   5.468   5.700   4.038 -0.9369 -0.5928  2.9143
   15SAPS   C37 1959   5.346   5.517   4.045 -0.0738  0.1711  0.1607
   15SAPS   H7X 1960   5.415   5.439   4.006  2.0613  1.6469  0.7874
   15SAPS   H7Y 1961   5.243   5.483   4.022 -0.2646  1.3454 -0.8286
   15SAPS   C38 1962   5.366   5.523   4.196 -0.1871 -0.1633 -0.2328
   15SAPS   H8X 1963   5.309   5.592   4.262  1.2112 -0.9547  1.8951
   15SAPS   H8Y 1964   5.475   5.539   4.210 -0.2463  1.3073 -1.1720
   15SAPS   C39 1965   5.348   5.385   4.265 -0.6284  0.2336 -0.2863
   15SAPS   H9X 1966   5.422   5.316   4.219  0.7454  1.9288 -0.7370
   15SAPS   H9Y 1967   5.243   5.353   4.250 -1.8679  0.3356  5.6673
   15SAPS  C310 1968   5.370   5.399   4.418 -0.4981  0.1847  0.1891
   15SAPS  H10X 1969   5.298   5.481   4.438 -0.8757  0.1052 -0.7643
   15SAPS  H10Y 1970   5.473   5.438   4.435 -0.5180  0.3545 -0.0710
   15SAPS  C311 1971   5.340   5.277   4.502  0.2036  0.5254 -0.3152
   15SAPS  H11X 1972   5.425   5.206   4.494 -1.2531 -1.2761 -0.3469
   15SAPS  H11Y 1973   5.245   5.227   4.474  0.5586 -0.4647  0.1967
   15SAPS  C312 1974   5.313   5.317   4.643 -0.1084 -0.4288 -0.3643
   15SAPS  H12X 1975   5.244   5.403   4.662 -1.2668 -1.6555  1.2772
   15SAPS  H12Y 1976   5.404   5.365   4.685  0.6106 -0.3972 -1.9172
   15SAPS  C313 1977   5.252   5.204   4.730 -0.5411  0.0203 -0.2457
   15SAPS  H13X 1978   5.332   5.128   4.747  1.5592  2.7932  4.1307
   15SAPS  H13Y 1979   5.171   5.167   4.664 -2.0159  2.6135 -0.0183
   15SAPS  C314 1980   5.191   5.242   4.862 -0.1107  0.2567  0.3878
   15SAPS  H14X 1981   5.117   5.171   4.904  0.5618 -0.4265  0.4636
   15SAPS  H14Y 1982   5.128   5.332   4.853 -0.7751 -0.3987 -3.5265
   15SAPS  C315 1983   5.290   5.278   4.970 -0.2170 -0.7605  0.2512
   15SAPS  H15X 1984   5.360   5.359   4.940  2.3611 -3.5065 -1.7233
   15SAPS  H15Y 1985   5.345   5.184   4.993 -3.0564 -1.6019  4.9444
   15SAPS  C316 1986   5.222   5.324   5.102  0.0510  0.1277  0.1358
   15SAPS  H16X 1987   5.300   5.320   5.181  0.3100 -0.4620 -0.1456
   15SAPS  H16Y 1988   5.146   5.251   5.137  0.3715 -2.2753 -3.6039
   15SAPS  C317 1989   5.183   5.474   5.101  0.5416 -0.5072 -0.4047
   15SAPS  H17X 1990   5.123   5.500   5.011  0.8692 -0.7678 -0.7014
   15SAPS  H17Y 1991   5.278   5.532   5.096 -1.1884  2.8225  1.5613
   15SAPS  C318 1992   5.121   5.525   5.233  0.2608  0.8036  0.5124
   15SAPS  H18X 1993   5.185   5.498   5.319  2.3701  1.0747 -0.8888
   15SAPS  H18Y 1994   5.016   5.489   5.245  0.3807  0.7818  1.5361
   15SAPS  H18Z 1995   5.109   5.634   5.216 -0.9169  0.6923  0.5418
   16SAPS     N 1996   4.843   0.455   2.985 -0.3515  0.1146  0.4078
   16SAPS   HN1 1997   4.865   0.361   2.946 -0.9202  0.8727 -1.8660
   16SAPS   HN2 1998   4.924   0.520   2.985  0.9144 -1.3925  0.0332
   16SAPS   HN3 1999   4.808   0.443   3.082  0.7565 -0.5466  0.7485
   16SAPS   C12 2000   4.728   0.507   2.907 -0.0185 -0.3096 -0.5802
   16SAPS  H12A 2001   4.750   0.613   2.905 -0.2388 -0.2406  0.2325
   16SAPS   C13 2002   4.718   0.461   2.761  1.2035  0.5476 -0.1251
   16SAPS  O13A 2003   4.827   0.412   2.715  0.1859 -0.8587  0.0118
   16SAPS  O13B 2004   4.625   0.506   2.687  0.0547 -0.1954  0.3172
   16SAPS   C11 2005   4.593   0.500   2.991 -0.3013  0.3086 -0.3959
   16SAPS  H11A 2006   4.551   0.397   3.001 -1.4820  0.7918 -0.1754
   16SAPS  H11B 2007   4.525   0.555   2.923 -0.0390 -0.0212 -0.9237
   16SAPS     P 2008   4.599   0.507   3.254 -0.3241 -0.1021 -0.1104
   16SAPS   O13 2009   4.719   0.421   3.241  0.0613 -0.2759 -0.3636
   16SAPS   O14 2010   4.592   0.613   3.358 -0.3671  0.1212 -0.3096
   16SAPS   O12 2011   4.592   0.579   3.114 -0.1906 -0.6024 -0.1862
   16SAPS   O11 2012   4.471   0.414   3.256 -0.2497  0.4793  0.4518
   16SAPS    C1 2013   4.334   0.441   3.291  0.0388  0.5684  0.0148
   16SAPS    HA 2014   4.308   0.547   3.315  1.7740  0.3463  3.4610
   16SAPS    HB 2015   4.279   0.401   3.203  2.2635 -1.5821 -0.4866
   16SAPS    C2 2016   4.270   0.357   3.407  0.1037 -0.9316  0.8490
   16SAPS    HS 2017   4.228   0.429   3.482 -1.7313 -0.3309 -0.6784
   16SAPS   O21 2018   4.364   0.264   3.460  0.2109  0.4475 -0.1414
   16SAPS   C21 2019   4.430   0.299   3.568 -0.3715 -0.1644  0.4016
   16SAPS   O22 2020   4.425   0.404   3.628  0.3945 -0.2719  0.2558
   16SAPS   C22 2021   4.535   0.189   3.592  0.0700  0.5434 -0.4806
   16SAPS   H2R 2022   4.600   0.247   3.660  1.2352 -1.4858  0.1928
   16SAPS   H2S 2023   4.483   0.103   3.640 -2.0066 -0.3926 -4.0047
   16SAPS    C3 2024   4.137   0.284   3.364  0.2132 -1.0778  0.8727
   16SAPS    HX 2025   4.099   0.219   3.445 -3.7884  0.3388  0.3522
   16SAPS    HY 2026   4.165   0.225   3.274  1.9902  2.0923 -0.8576
   16SAPS   O31 2027   4.035   0.384   3.341  0.3424 -0.7939 -0.2247
   16SAPS   C31 2028   3.928   0.336   3.291  0.1170  0.8221 -0.0480
   16SAPS   O32 2029   3.905   0.225   3.250 -0.2698  0.8076  0.7753
   16SAPS   C32 2030   3.828   0.442   3.269 -0.1842 -0.1020  0.6302
   16SAPS   H2X 2031   3.811   0.440   3.159  0.6769  1.6238  0.4294
   16SAPS   H2Y 2032   3.874   0.540   3.292  2.5382 -1.3820  1.0990
   16SAPS   C23 2033   4.628   0.156   3.478  0.1653  0.6145  0.1448
   16SAPS   H3R 2034   4.667   0.232   3.406 -0.8050  1.1743  0.1879
   16SAPS   H3S 2035   4.572   0.084   3.415  2.2280  0.3231 -1.4822
   16SAPS   C24 2036   4.749   0.077   3.531  0.9185 -0.2042 -0.4678
   16SAPS   H4R 2037   4.789   0.008   3.454  1.2307 -0.8806  0.2874
   16SAPS   H4S 2038   4.711   0.010   3.611  2.6581 -1.1296 -0.3620
   16SAPS   C25 2039   4.863   0.160   3.588  0.0920  0.1105  0.0919
   16SAPS   H5R 2040   4.890   0.230   3.508 -0.8650 -0.8764 -1.1368
   16SAPS   C26 2041   4.926   0.160   3.704  0.2039  0.5089 -0.5453
   16SAPS   H6R 2042   5.002   0.233   3.736 -0.9080  0.6378  2.1060
   16SAPS   C27 2043   4.884   0.073   3.825  0.0246  0.0292 -0.3524
   16SAPS   H7R 2044   4.859  -0.028   3.788  0.6730  0.5255 -2.2616
   16SAPS   H7S 2045   4.791   0.114   3.871 -0.5588 -2.4839  0.8871
   16SAPS   C28 2046   4.988   0.068   3.930 -0.5224 -0.1113 -0.2102
   16SAPS   H8R 2047   5.092   0.078   3.898 -0.8059 -0.9820 -1.4927
   16SAPS   C29 2048   4.966   0.018   4.052 -0.1350  0.5969  0.2670
   16SAPS   H9R 2049   5.052   0.021   4.121 -0.2627 -0.0255  0.4607
   16SAPS  C210 2050   4.833  -0.023   4.111 -0.0549  0.1940 -0.3572
   16SAPS  H10R 2051   4.830  -0.134   4.102  0.4067  0.1005  0.5671
   16SAPS  H10S 2052   4.745   0.011   4.051 -0.1813 -2.0960 -1.5686
   16SAPS  C211 2053   4.835   0.018   4.253 -0.5676  0.2186 -0.0798
   16SAPS  H11R 2054   4.934   0.040   4.297  1.4567 -0.4543 -3.8534
   16SAPS  C212 2055   4.721   0.060   4.317 -0.3556  0.2611  0.9199
   16SAPS  H12R 2056   4.737   0.092   4.421 -1.0505  0.7384  0.8891
   16SAPS  C213 2057   4.573   0.057   4.263  0.1221 -0.1900 -0.4294
   16SAPS  H13R 2058   4.549  -0.040   4.216  2.3987 -1.4071  0.7485
   16SAPS  H13S 2059   4.563   0.137   4.186 -2.9503  0.5627  0.6115
   16SAPS  C214 2060   4.456   0.077   4.361 -0.8924 -0.2021  0.2796
   16SAPS  H14R 2061   4.414  -0.019   4.397 -0.6538  0.0864  1.3867
   16SAPS  C215 2062   4.394   0.193   4.390  0.1353 -0.2902  0.2244
   16SAPS  H15R 2063   4.319   0.193   4.470 -0.3293 -1.5071 -0.1850
   16SAPS  C216 2064   4.447   0.330   4.350 -0.1870 -0.5828  0.8693
   16SAPS  H16R 2065   4.557   0.323   4.344  0.0759  2.0465  1.3664
   16SAPS  H16S 2066   4.416   0.403   4.428 -0.1818  0.0479  0.2870
   16SAPS  C217 2067   4.376   0.380   4.220 -0.1038  0.9292  0.7254
   16SAPS  H17R 2068   4.269   0.406   4.234 -0.7524 -0.6383 -0.8494
   16SAPS  H17S 2069   4.375   0.293   4.150  1.3350  0.9773  0.6183
   16SAPS  C218 2070   4.434   0.509   4.148 -0.0303  0.2309 -0.3172
   16SAPS  H18R 2071   4.528   0.501   4.090 -0.0798  3.3222 -0.9782
   16SAPS  H18S 2072   4.454   0.588   4.223  1.1669  0.1011 -0.4784
   16SAPS  C219 2073   4.315   0.552   4.063 -0.1551  0.4026  0.4966
   16SAPS  H19R 2074   4.228   0.575   4.128  1.0632  0.6674  2.1015
   16SAPS  H19S 2075   4.285   0.465   4.001  0.6417 -1.3460  2.4460
   16SAPS  C220 2076   4.345   0.669   3.973  0.0696 -0.1866  0.1287
   16SAPS  H20R 2077   4.395   0.750   4.030  1.5288  0.1585 -1.5282
   16SAPS  H20S 2078   4.256   0.709   3.921  0.6228  0.8785 -0.0369
   16SAPS  H20T 2079   4.415   0.637   3.892 -1.5859  0.2352 -1.5509
   16SAPS   C33 2080   3.713   0.425   3.370 -0.5721  0.2016 -0.0181
   16SAPS   H3X 2081   3.669   0.523   3.398 -0.0081  0.8913 -1.4387
   16SAPS   H3Y 2082   3.752   0.381   3.464  1.0475 -0.7355 -1.0817
   16SAPS   C34 2083   3.603   0.338   3.312  0.0346  0.3044 -0.3528
   16SAPS   H4X 2084   3.628   0.231   3.322  0.9742  0.7284  2.5983
   16SAPS   H4Y 2085   3.586   0.356   3.203 -2.3681 -0.0744 -0.0924
   16SAPS   C35 2086   3.460   0.348   3.375 -0.2160  0.4580 -0.5830
   16SAPS   H5X 2087   3.391   0.265   3.347  2.3817 -1.8441 -0.6503
   16SAPS   H5Y 2088   3.435   0.453   3.349  1.0953  1.3121  1.3768
   16SAPS   C36 2089   3.467   0.333   3.532 -0.0785  0.3411 -0.1544
   16SAPS   H6X 2090   3.369   0.338   3.584  0.2085  1.1180  0.3306
   16SAPS   H6Y 2091   3.524   0.420   3.571  1.3819 -1.3677  1.8082
   16SAPS   C37 2092   3.540   0.214   3.579 -0.6054  0.8660 -0.8241
   16SAPS   H7X 2093   3.630   0.176   3.527  0.5896 -0.6320  2.0800
   16SAPS   H7Y 2094   3.481   0.120   3.567  1.2241 -1.1441  3.5509
   16SAPS   C38 2095   3.573   0.219   3.732  0.7159  0.1460  0.7345
   16SAPS   H8X 2096   3.475   0.232   3.782 -0.0944  0.2850 -0.8336
   16SAPS   H8Y 2097   3.634   0.303   3.770 -0.3750  0.2752  2.2829
   16SAPS   C39 2098   3.633   0.087   3.780  0.3889 -0.8001  0.1987
   16SAPS   H9X 2099   3.738   0.089   3.744  0.0598 -0.1612 -0.7541
   16SAPS   H9Y 2100   3.597  -0.002   3.725  2.4169  0.6904 -3.9119
   16SAPS  C310 2101   3.598   0.060   3.923  0.3484 -0.5130  0.0184
   16SAPS  H10X 2102   3.615  -0.047   3.946  0.7933 -0.2439  1.0123
   16SAPS  H10Y 2103   3.487   0.062   3.931  0.3911 -1.5951  1.4032
   16SAPS  C311 2104   3.656   0.161   4.026 -1.0800  0.1937  0.3632
   16SAPS  H11X 2105   3.604   0.259   4.029 -0.4051  0.5805 -0.2188
   16SAPS  H11Y 2106   3.760   0.172   3.990 -1.2152  2.3150  0.4949
   16SAPS  C312 2107   3.655   0.118   4.178  0.3666  0.0675  0.1556
   16SAPS  H12X 2108   3.699   0.017   4.189 -0.9184 -0.4850  0.5000
   16SAPS  H12Y 2109   3.548   0.104   4.205  0.7658 -2.5820  0.6085
   16SAPS  C313 2110   3.719   0.224   4.265  0.1600 -0.3781 -0.0265
   16SAPS  H13X 2111   3.658   0.316   4.251  0.6858 -0.1928 -1.3096
   16SAPS  H13Y 2112   3.822   0.251   4.235 -0.1569 -1.4702 -2.3314
   16SAPS  C314 2113   3.716   0.177   4.413  0.6090  0.6958  0.1062
   16SAPS  H14X 2114   3.779   0.086   4.422  2.7169  2.1457  0.4987
   16SAPS  H14Y 2115   3.612   0.144   4.438  0.1598  1.4976 -0.6589
   16SAPS  C315 2116   3.778   0.274   4.507  0.5845 -0.8167 -0.5072
   16SAPS  H15X 2117   3.736   0.375   4.488  0.9460 -0.0631  2.2434
   16SAPS  H15Y 2118   3.887   0.295   4.501  0.6822 -0.6276  1.4244
   16SAPS  C316 2119   3.732   0.258   4.656  0.4270  0.6440 -0.3045
   16SAPS  H16X 2120   3.765   0.164   4.705 -2.6133 -1.1211 -1.3237
   16SAPS  H16Y 2121   3.621   0.253   4.654  0.2358  0.1325  3.3366
   16SAPS  C317 2122   3.772   0.383   4.741  0.1045 -0.0109 -0.4653
   16SAPS  H17X 2123   3.874   0.411   4.706  0.4340  0.3814  0.7745
   16SAPS  H17Y 2124   3.779   0.353   4.848 -0.4178 -1.4068 -0.8011
   16SAPS  C318 2125   3.678   0.503   4.733  0.0003 -0.4349 -0.5924
   16SAPS  H18X 2126   3.692   0.551   4.634 -0.2790  0.2183 -0.3196
   16SAPS  H18Y 2127   3.728   0.575   4.800  2.1382 -2.4419  0.0957
   16SAPS  H18Z 2128   3.569   0.489   4.751 -0.0803 -0.3258 -0.9785
   17SAPS     N 2129   0.772   5.400   2.691  0.4986  0.5066  0.0537
   17SAPS   HN1 2130   0.784   5.388   2.793 -1.6552  0.1127  0.3053
   17SAPS   HN2 2131   0.670   5.418   2.684  0.2878 -0.8735 -0.9082
   17SAPS   HN3 2132   0.782   5.309   2.641  0.1959  0.1430  0.6514
   17SAPS   C12 2133   0.856   5.509   2.640 -0.0229 -0.2281  0.0985
   17SAPS  H12A 2134   0.933   5.458   2.582  0.1465 -1.8177  1.6169
   17SAPS   C13 2135   0.792   5.609   2.536 -0.0203 -0.1564 -0.4423
   17SAPS  O13A 2136   0.689   5.566   2.476  0.2419 -0.0922  0.3679
   17SAPS  O13B 2137   0.845   5.720   2.513  0.5491  0.0136 -0.8388
   17SAPS   C11 2138   0.907   5.580   2.766  0.2360  0.3178  0.7849
   17SAPS  H11A 2139   0.819   5.597   2.831 -0.4080  1.5140 -0.3479
   17SAPS  H11B 2140   0.950   5.680   2.744  0.8215  0.0699  0.7967
   17SAPS     P 2141   1.161   5.544   2.822  0.4756 -0.1760 -0.0562
   17SAPS   O13 2142   1.248   5.434   2.862  0.0303  0.8952  0.1664
   17SAPS   O14 2143   1.188   5.610   2.692 -0.3837  0.1570 -0.0889
   17SAPS   O12 2144   1.004   5.497   2.834  0.0641 -0.6804  1.0116
   17SAPS   O11 2145   1.167   5.650   2.933 -0.1927  0.2881 -1.0965
   17SAPS    C1 2146   1.276   5.741   2.938 -0.5967  0.0276 -0.4401
   17SAPS    HA 2147   1.347   5.697   3.010 -3.9843 -3.0794  1.3112
   17SAPS    HB 2148   1.309   5.767   2.835  0.5821 -0.2451 -0.1355
   17SAPS    C2 2149   1.228   5.878   3.005 -0.1476  0.2279  0.1498
   17SAPS    HS 2150   1.306   5.956   3.018  0.3894 -0.4441  1.0937
   17SAPS   O21 2151   1.178   5.854   3.135  0.2269 -0.7985 -0.4513
   17SAPS   C21 2152   1.264   5.850   3.233  0.4297 -0.1186  0.1947
   17SAPS   O22 2153   1.384   5.873   3.219  0.0254 -0.0765  0.0084
   17SAPS   C22 2154   1.201   5.800   3.364  0.0758 -0.1297  0.3432
   17SAPS   H2R 2155   1.092   5.781   3.354 -0.5184  3.0287 -0.0546
   17SAPS   H2S 2156   1.247   5.701   3.387  1.5712  0.5385  0.3415
   17SAPS    C3 2157   1.117   5.938   2.923  0.5791 -0.0138  0.3670
   17SAPS    HX 2158   1.060   5.852   2.881  1.4628  0.6094 -2.2656
   17SAPS    HY 2159   1.152   5.984   2.829 -0.1688  0.9812  0.5506
   17SAPS   O31 2160   1.009   6.016   2.994  0.0742  0.4570 -0.2253
   17SAPS   C31 2161   1.051   6.114   3.067 -0.3093 -0.6912 -0.8022
   17SAPS   O32 2162   1.159   6.163   3.062  0.6253  0.1432  0.1463
   17SAPS   C32 2163   0.932   6.169   3.148  0.4045 -0.2417  0.1398
   17SAPS   H2X 2164   0.861   6.088   3.174 -1.6010  1.8625  1.5774
   17SAPS   H2Y 2165   0.863   6.233   3.090  0.0219 -0.9161 -0.1655
   17SAPS   C23 2166   1.229   5.899   3.477 -0.2804 -0.2501 -0.1116
   17SAPS   H3R 2167   1.160   5.985   3.483  2.2624  1.8236  2.2154
   17SAPS   H3S 2168   1.331   5.943   3.470  0.3568 -1.4598  0.9396
   17SAPS   C24 2169   1.222   5.831   3.615  0.2110 -0.0190 -1.0149
   17SAPS   H4R 2170   1.118   5.802   3.645  0.2177  0.9058 -0.0019
   17SAPS   H4S 2171   1.248   5.902   3.697  0.6017 -1.7778  0.4503
   17SAPS   C25 2172   1.309   5.707   3.636 -0.3800  0.0966 -0.3857
   17SAPS   H5R 2173   1.292   5.624   3.567 -2.0127  0.6106 -0.6402
   17SAPS   C26 2174   1.398   5.686   3.730 -0.4861 -0.0018  0.1513
   17SAPS   H6R 2175   1.449   5.589   3.724 -1.6615 -0.6012 -0.5274
   17SAPS   C27 2176   1.451   5.791   3.825  0.1806 -0.4606 -0.3546
   17SAPS   H7R 2177   1.397   5.789   3.922  0.5337 -1.2958 -0.1616
   17SAPS   H7S 2178   1.443   5.894   3.785  2.1608 -0.0326  0.2047
   17SAPS   C28 2179   1.597   5.771   3.853  0.1121  0.1784  0.2760
   17SAPS   H8R 2180   1.653   5.731   3.767 -0.4720  0.6834 -0.3467
   17SAPS   C29 2181   1.670   5.797   3.966 -0.2204 -0.4090  0.2964
   17SAPS   H9R 2182   1.777   5.778   3.949 -0.1116  1.7619 -2.0772
   17SAPS  C210 2183   1.614   5.835   4.105  0.1136  0.1826 -0.8868
   17SAPS  H10R 2184   1.534   5.912   4.101  0.5201  0.5498 -2.7262
   17SAPS  H10S 2185   1.698   5.888   4.157  1.3964 -2.7732  0.2516
   17SAPS  C211 2186   1.571   5.715   4.186 -0.2035  0.3500 -0.3656
   17SAPS  H11R 2187   1.520   5.633   4.134 -0.9226 -0.1249  1.0275
   17SAPS  C212 2188   1.592   5.699   4.319  0.3596 -0.9423 -0.0959
   17SAPS  H12R 2189   1.546   5.607   4.358 -2.2505 -0.7437 -2.3484
   17SAPS  C213 2190   1.657   5.795   4.419 -0.9249  0.3010  0.8916
   17SAPS  H13R 2191   1.584   5.863   4.468 -1.0131  0.1077  1.0307
   17SAPS  H13S 2192   1.711   5.871   4.358  0.3532 -1.4245 -0.2092
   17SAPS  C214 2193   1.754   5.727   4.516  0.0953  0.0631 -0.5759
   17SAPS  H14R 2194   1.854   5.695   4.484 -0.2719 -2.5024  0.6369
   17SAPS  C215 2195   1.734   5.709   4.645  0.1627  0.2869 -0.2201
   17SAPS  H15R 2196   1.810   5.654   4.702 -2.1373 -2.2785  0.6149
   17SAPS  C216 2197   1.608   5.736   4.729  0.8145 -0.5235  0.3367
   17SAPS  H16R 2198   1.536   5.799   4.673 -2.4529 -2.2111  2.3204
   17SAPS  H16S 2199   1.635   5.797   4.817 -1.7483  0.9742  0.1816
   17SAPS  C217 2200   1.532   5.617   4.790 -0.2765  0.0740  0.5359
   17SAPS  H17R 2201   1.465   5.658   4.869  0.5545 -1.0494  1.8631
   17SAPS  H17S 2202   1.606   5.551   4.841  0.9880  0.1270 -1.1381
   17SAPS  C218 2203   1.449   5.532   4.690 -0.5518 -0.2443  0.0894
   17SAPS  H18R 2204   1.521   5.501   4.611 -1.3143  2.6082 -1.8486
   17SAPS  H18S 2205   1.369   5.587   4.636 -0.6367 -2.2128 -1.9534
   17SAPS  C219 2206   1.388   5.415   4.765  0.1098  0.3162 -0.6540
   17SAPS  H19R 2207   1.341   5.460   4.855  0.3397  0.3687 -0.5585
   17SAPS  H19S 2208   1.468   5.353   4.811 -1.2371 -0.6557  0.4285
   17SAPS  C220 2209   1.308   5.325   4.676  0.1147  0.1969  0.7003
   17SAPS  H20R 2210   1.218   5.382   4.643  1.0730  0.6423 -1.2974
   17SAPS  H20S 2211   1.288   5.226   4.723 -1.1123 -0.0053 -0.1797
   17SAPS  H20T 2212   1.365   5.291   4.587 -0.4883 -0.9910  0.7376
   17SAPS   C33 2213   0.982   6.247   3.271  0.2483 -0.5556  0.3085
   17SAPS   H3X 2214   1.025   6.342   3.232  1.4728 -1.1310  0.1933
   17SAPS   H3Y 2215   1.060   6.195   3.331 -0.5665  0.8130  2.6838
   17SAPS   C34 2216   0.864   6.288   3.366  0.7241 -0.3367  0.1916
   17SAPS   H4X 2217   0.809   6.199   3.405  0.7221 -0.0514  0.8695
   17SAPS   H4Y 2218   0.788   6.336   3.300 -0.0045 -1.9751 -0.2122
   17SAPS   C35 2219   0.912   6.375   3.480  0.1816  0.3280  0.2702
   17SAPS   H5X 2220   0.974   6.460   3.445 -0.3598 -0.1684 -2.1128
   17SAPS   H5Y 2221   0.973   6.303   3.539 -1.0096 -1.7163 -0.8346
   17SAPS   C36 2222   0.807   6.436   3.565  0.5520 -0.4185 -1.0514
   17SAPS   H6X 2223   0.714   6.375   3.573 -0.3738  1.0515 -0.0816
   17SAPS   H6Y 2224   0.773   6.528   3.511 -1.3310 -0.7129 -0.4520
   17SAPS   C37 2225   0.846   6.488   3.703 -1.3515  1.2375 -0.2911
   17SAPS   H7X 2226   0.761   6.537   3.754 -0.6133  1.8453  0.3853
   17SAPS   H7Y 2227   0.930   6.560   3.697  0.0939 -0.3347  0.0732
   17SAPS   C38 2228   0.876   6.365   3.794  0.0896 -0.3171 -0.2387
   17SAPS   H8X 2229   0.933   6.283   3.746  0.7272  1.4020 -2.6481
   17SAPS   H8Y 2230   0.781   6.314   3.819 -0.6619  0.8120 -0.6928
   17SAPS   C39 2231   0.939   6.409   3.929  0.5171 -0.2896  0.1395
   17SAPS   H9X 2232   0.895   6.502   3.971  2.3590  0.9655 -0.5822
   17SAPS   H9Y 2233   1.048   6.427   3.917  0.3208  1.6934  0.9113
   17SAPS  C310 2234   0.920   6.290   4.035 -0.0669 -0.1856 -0.8577
   17SAPS  H10X 2235   0.994   6.207   4.027  0.0601 -0.4870  2.1172
   17SAPS  H10Y 2236   0.814   6.255   4.034 -0.9344  2.1893  0.4883
   17SAPS  C311 2237   0.943   6.346   4.175  0.0180 -0.8495 -0.3878
   17SAPS  H11X 2238   0.857   6.411   4.199  0.9003  0.3866 -0.5142
   17SAPS  H11Y 2239   1.044   6.391   4.178  1.7074 -4.1763 -2.0058
   17SAPS  C312 2240   0.939   6.238   4.286  0.3770 -0.4359  0.2109
   17SAPS  H12X 2241   1.033   6.179   4.277  0.5458  0.0088 -1.0346
   17SAPS  H12Y 2242   0.853   6.173   4.259 -0.7410  0.8858  0.4993
   17SAPS  C313 2243   0.937   6.292   4.428  0.6937  0.5091 -0.2790
   17SAPS  H13X 2244   0.855   6.366   4.431  1.1962  1.0382  1.2177
   17SAPS  H13Y 2245   1.026   6.356   4.448 -1.1668  2.6186  1.6956
   17SAPS  C314 2246   0.926   6.173   4.517  0.5134 -0.3065  0.5242
   17SAPS  H14X 2247   1.016   6.109   4.503  0.8750 -0.0047  1.3932
   17SAPS  H14Y 2248   0.837   6.113   4.489  0.0559  0.7294 -0.3145
   17SAPS  C315 2249   0.915   6.206   4.664 -0.4187  0.1603  0.3140
   17SAPS  H15X 2250   0.813   6.245   4.686 -2.1714 -3.6891 -0.1454
   17SAPS  H15Y 2251   0.981   6.292   4.689  1.2018 -0.8620 -0.2862
   17SAPS  C316 2252   0.944   6.091   4.759  0.1863 -0.2802 -0.6437
   17SAPS  H16X 2253   1.052   6.064   4.764  0.5254  1.1640  0.2904
   17SAPS  H16Y 2254   0.885   6.000   4.733 -0.8308 -0.1783  1.1082
   17SAPS  C317 2255   0.915   6.133   4.906  0.7403 -0.0884  1.1479
   17SAPS  H17X 2256   0.819   6.189   4.915  1.0819  0.8470 -0.6912
   17SAPS  H17Y 2257   0.998   6.198   4.941  0.0323  0.6700  1.4664
   17SAPS  C318 2258   0.920   6.022   5.006 -0.5202 -0.3815  0.6028
   17SAPS  H18X 2259   0.843   5.947   4.978 -3.2546  2.6801 -0.7024
   17SAPS  H18Y 2260   0.909   6.061   5.110 -1.7808  0.6545  0.0956
   17SAPS  H18Z 2261   1.013   5.962   4.994 -0.9563 -1.3303  1.6901
   18SAPS     N 2262   0.316   5.167   3.053  0.2609 -0.2946 -0.7745
   18SAPS   HN1 2263   0.292   5.158   3.154 -0.0222 -2.3434 -0.9950
   18SAPS   HN2 2264   0.399   5.106   3.039 -0.2824 -1.3284  0.3458
   18SAPS   HN3 2265   0.341   5.265   3.029 -0.1934  0.0360  0.0554
   18SAPS   C12 2266   0.207   5.136   2.951 -0.0165  1.1868 -1.3157
   18SAPS  H12A 2267   0.133   5.214   2.951 -1.2191  0.0878 -0.0888
   18SAPS   C13 2268   0.258   5.145   2.809 -0.4443 -0.0726 -0.3476
   18SAPS  O13A 2269   0.374   5.191   2.785  0.0084  0.1269  0.1690
   18SAPS  O13B 2270   0.172   5.130   2.717 -0.9854  0.4457 -0.2731
   18SAPS   C11 2271   0.144   5.001   2.979  0.2073  0.8924 -0.0908
   18SAPS  H11A 2272   0.063   4.983   2.906 -1.0571  1.8661  1.0070
   18SAPS  H11B 2273   0.091   4.998   3.077 -1.5796  1.1752 -1.0171
   18SAPS     P 2274   0.196   4.739   2.955 -0.3684 -0.0800  0.3378
   18SAPS   O13 2275   0.056   4.715   2.935  0.1784 -0.2075  0.6844
   18SAPS   O14 2276   0.286   4.690   2.852  0.0170 -0.0635 -0.0424
   18SAPS   O12 2277   0.233   4.886   2.976 -0.4122 -0.4306  0.4018
   18SAPS   O11 2278   0.237   4.665   3.092 -0.3923 -0.1976 -0.2599
   18SAPS    C1 2279   0.245   4.749   3.211  0.7239 -0.7040 -0.1429
   18SAPS    HA 2280   0.316   4.832   3.190  1.8169 -1.4668  0.4890
   18SAPS    HB 2281   0.147   4.796   3.235  0.3287 -1.5212 -0.1196
   18SAPS    C2 2282   0.291   4.670   3.332 -0.8152  0.2734 -0.4318
   18SAPS    HS 2283   0.357   4.588   3.297 -2.0662  0.1155 -2.6289
   18SAPS   O21 2284   0.178   4.617   3.398  0.4596 -0.2216 -0.1373
   18SAPS   C21 2285   0.127   4.510   3.342 -0.4812 -0.1028 -0.3149
   18SAPS   O22 2286   0.161   4.449   3.243  0.1200 -0.8775  0.3904
   18SAPS   C22 2287   0.010   4.471   3.427  0.1231 -0.1689  0.1383
   18SAPS   H2R 2288   0.039   4.456   3.534 -1.2316  2.2727  0.9220
   18SAPS   H2S 2289  -0.069   4.548   3.423 -1.1611 -1.4604 -4.0024
   18SAPS    C3 2290   0.382   4.763   3.423  0.2779 -0.3837 -0.1787
   18SAPS    HX 2291   0.337   4.863   3.442 -0.3069 -0.6635 -0.0815
   18SAPS    HY 2292   0.474   4.783   3.364 -0.2509  0.5195 -0.7237
   18SAPS   O31 2293   0.427   4.701   3.545  0.0058  0.3316 -1.0450
   18SAPS   C31 2294   0.509   4.602   3.541  0.2402 -0.5467 -0.5690
   18SAPS   O32 2295   0.554   4.551   3.437 -0.1352  0.0963  0.4398
   18SAPS   C32 2296   0.538   4.549   3.679  0.0784 -0.4137  0.4955
   18SAPS   H2X 2297   0.441   4.539   3.731 -0.6464  2.8778 -0.0105
   18SAPS   H2Y 2298   0.600   4.625   3.730  3.6150 -3.1050  0.6315
   18SAPS   C23 2299  -0.057   4.348   3.370  0.0915 -0.1451  0.1352
   18SAPS   H3R 2300   0.007   4.258   3.356 -0.5499 -0.3765 -1.4692
   18SAPS   H3S 2301  -0.109   4.362   3.273 -0.9938  0.5686  0.8027
   18SAPS   C24 2302  -0.172   4.293   3.464  0.3218  0.0592 -0.3609
   18SAPS   H4R 2303  -0.121   4.265   3.559 -0.2831  1.9860  0.5819
   18SAPS   H4S 2304  -0.208   4.204   3.408 -1.4528  0.1432  0.5846
   18SAPS   C25 2305  -0.276   4.395   3.482  0.1899 -0.2532  0.2290
   18SAPS   H5R 2306  -0.296   4.451   3.390  0.4373  1.2616  1.0588
   18SAPS   C26 2307  -0.345   4.428   3.593  0.4436  0.9268 -0.3775
   18SAPS   H6R 2308  -0.421   4.507   3.587 -0.0047  0.3990 -2.2075
   18SAPS   C27 2309  -0.336   4.358   3.726 -0.5400  0.0024 -0.1606
   18SAPS   H7R 2310  -0.329   4.248   3.717 -0.9206 -0.1138  0.9279
   18SAPS   H7S 2311  -0.434   4.376   3.775 -0.4429 -1.3827  0.5907
   18SAPS   C28 2312  -0.207   4.393   3.798 -0.0613 -0.1674 -0.0928
   18SAPS   H8R 2313  -0.114   4.357   3.752  0.0118 -0.0124 -0.0674
   18SAPS   C29 2314  -0.193   4.455   3.917  0.7238 -0.3088 -0.1027
   18SAPS   H9R 2315  -0.092   4.465   3.958  1.1549 -1.5018 -0.8222
   18SAPS  C210 2316  -0.309   4.505   4.003 -0.1196  0.2568 -0.0403
   18SAPS  H10R 2317  -0.331   4.428   4.081  2.2906 -0.6451 -0.1685
   18SAPS  H10S 2318  -0.401   4.526   3.945 -0.7051  0.6576  0.9960
   18SAPS  C211 2319  -0.260   4.641   4.067  0.5852  0.5102  0.8705
   18SAPS  H11R 2320  -0.205   4.710   4.002  2.6943 -1.9223 -0.0832
   18SAPS  C212 2321  -0.267   4.671   4.195  0.4127 -0.5461 -0.1947
   18SAPS  H12R 2322  -0.232   4.764   4.242 -1.0165 -0.9644  1.8570
   18SAPS  C213 2323  -0.333   4.582   4.302  0.4075  0.5331  0.3929
   18SAPS  H13R 2324  -0.274   4.489   4.320 -0.8809 -0.2684  0.6229
   18SAPS  H13S 2325  -0.432   4.541   4.274 -1.5924  1.1970  5.3587
   18SAPS  C214 2326  -0.350   4.652   4.433 -0.5172  0.3955  0.2557
   18SAPS  H14R 2327  -0.352   4.761   4.425 -1.8911  0.2834 -1.5365
   18SAPS  C215 2328  -0.338   4.599   4.554 -0.0009  0.1973 -0.3439
   18SAPS  H15R 2329  -0.352   4.672   4.636  3.0793  1.0021 -0.4142
   18SAPS  C216 2330  -0.322   4.459   4.598 -0.1309  0.2243 -0.0450
   18SAPS  H16R 2331  -0.212   4.440   4.598 -0.0923  0.4354 -0.6870
   18SAPS  H16S 2332  -0.369   4.397   4.520  2.2367 -0.5164 -0.9702
   18SAPS  C217 2333  -0.372   4.427   4.740 -0.3592  0.3000  0.3813
   18SAPS  H17R 2334  -0.383   4.317   4.751  1.4245  0.0148 -0.2597
   18SAPS  H17S 2335  -0.469   4.478   4.759  0.3401  1.1709  1.7029
   18SAPS  C218 2336  -0.271   4.472   4.854 -0.0824 -0.1063  0.4659
   18SAPS  H18R 2337  -0.292   4.580   4.870 -0.9076 -0.2705  0.5326
   18SAPS  H18S 2338  -0.165   4.455   4.826  0.2643 -2.0683  2.6469
   18SAPS  C219 2339  -0.298   4.405   4.993  0.4948 -0.3315  1.1220
   18SAPS  H19R 2340  -0.213   4.443   5.054  0.4288  0.5199  0.7048
   18SAPS  H19S 2341  -0.273   4.298   4.976 -0.2122 -0.0459 -2.5109
   18SAPS  C220 2342  -0.439   4.416   5.059 -0.5675  0.5300 -0.4670
   18SAPS  H20R 2343  -0.450   4.346   5.145  1.0904  0.9139  0.0785
   18SAPS  H20S 2344  -0.520   4.387   4.989 -1.0114  0.2229  0.1553
   18SAPS  H20T 2345  -0.459   4.519   5.096  0.0316  0.5704 -0.2490
   18SAPS   C33 2346   0.637   4.433   3.691 -0.2668 -0.6756 -1.4841
   18SAPS   H3X 2347   0.722   4.463   3.625 -0.3861  2.5697 -0.3393
   18SAPS   H3Y 2348   0.595   4.337   3.655 -0.2937 -0.4808 -1.9917
   18SAPS   C34 2349   0.689   4.411   3.834  0.3844  0.2172 -0.2952
   18SAPS   H4X 2350   0.771   4.478   3.866 -0.5979  0.6003  1.5903
   18SAPS   H4Y 2351   0.721   4.307   3.854  0.8586  0.4048 -0.0696
   18SAPS   C35 2352   0.575   4.407   3.944  0.5222 -0.0713  0.6379
   18SAPS   H5X 2353   0.496   4.337   3.907  0.6501 -0.6741  1.4774
   18SAPS   H5Y 2354   0.528   4.507   3.951 -0.3886 -0.3445 -0.9146
   18SAPS   C36 2355   0.612   4.357   4.079  0.0662 -0.0282  0.0013
   18SAPS   H6X 2356   0.704   4.411   4.109  0.5465 -0.7283 -0.1727
   18SAPS   H6Y 2357   0.657   4.255   4.072 -1.6421 -0.9358  1.4016
   18SAPS   C37 2358   0.504   4.353   4.191 -0.2106 -0.4636  0.1943
   18SAPS   H7X 2359   0.443   4.261   4.182  0.9102 -1.3716  1.3978
   18SAPS   H7Y 2360   0.439   4.443   4.195 -0.1850 -0.3509 -1.2131
   18SAPS   C38 2361   0.563   4.341   4.328 -0.1524 -0.7745  0.1826
   18SAPS   H8X 2362   0.628   4.430   4.344  0.6641 -1.1833 -0.7989
   18SAPS   H8Y 2363   0.632   4.254   4.327  0.4763 -0.3024 -1.3205
   18SAPS   C39 2364   0.466   4.329   4.446  0.1079  0.6835 -0.8725
   18SAPS   H9X 2365   0.417   4.230   4.434 -1.8600  1.2351  1.6920
   18SAPS   H9Y 2366   0.397   4.413   4.423  1.3002  1.8179 -0.4472
   18SAPS  C310 2367   0.521   4.342   4.592  0.4503 -0.4318  0.1738
   18SAPS  H10X 2368   0.582   4.435   4.602  0.7458 -0.4248 -1.4562
   18SAPS  H10Y 2369   0.594   4.259   4.603  0.8429 -0.3272 -1.3639
   18SAPS  C311 2370   0.409   4.343   4.689  0.1529  0.1621  0.5848
   18SAPS  H11X 2371   0.363   4.242   4.686  0.1423  0.1912 -0.4580
   18SAPS  H11Y 2372   0.330   4.411   4.652 -1.2318 -2.0801 -0.7774
   18SAPS  C312 2373   0.430   4.385   4.830 -0.4302 -0.3668  0.1203
   18SAPS  H12X 2374   0.336   4.400   4.887  0.0802 -1.5791  1.3240
   18SAPS  H12Y 2375   0.492   4.478   4.831 -0.5532 -0.2028 -2.4196
   18SAPS  C313 2376   0.507   4.271   4.908 -0.5919 -0.4829  1.0667
   18SAPS  H13X 2377   0.470   4.172   4.874 -0.3224 -0.3242  0.2829
   18SAPS  H13Y 2378   0.470   4.266   5.012 -2.5386 -2.1261  0.3757
   18SAPS  C314 2379   0.659   4.276   4.902  0.4605  0.0114 -0.2785
   18SAPS  H14X 2380   0.681   4.375   4.947  0.9194 -0.7139  1.1401
   18SAPS  H14Y 2381   0.696   4.285   4.798  0.6274  0.4847 -0.1801
   18SAPS  C315 2382   0.730   4.152   4.964  0.6755  0.4301 -0.1679
   18SAPS  H15X 2383   0.837   4.168   4.940  0.1702 -1.0049 -4.1313
   18SAPS  H15Y 2384   0.695   4.063   4.907 -1.8264 -0.4774  2.5750
   18SAPS  C316 2385   0.714   4.136   5.112 -0.1135 -0.2270  0.0424
   18SAPS  H16X 2386   0.771   4.045   5.142  0.1563 -0.5663 -1.4006
   18SAPS  H16Y 2387   0.607   4.118   5.136 -0.2151  1.1522  0.6814
   18SAPS  C317 2388   0.779   4.254   5.199  0.3005 -0.3777 -0.1287
   18SAPS  H17X 2389   0.731   4.350   5.171  4.4179  1.4258 -1.8519
   18SAPS  H17Y 2390   0.885   4.264   5.165 -0.4431 -2.3445 -3.4610
   18SAPS  C318 2391   0.765   4.245   5.352 -0.0914 -0.2842 -0.1760
   18SAPS  H18X 2392   0.813   4.328   5.408  0.6305  1.4066 -3.1079
   18SAPS  H18Y 2393   0.804   4.149   5.393 -1.3060 -0.5366  0.4278
   18SAPS  H18Z 2394   0.657   4.254   5.375 -0.0285  0.6831 -0.2330
   19SAPS     N 2395   3.332   0.935   2.623  0.1554 -0.1680  0.1500
   19SAPS   HN1 2396   3.231   0.959   2.637  0.9482  3.5190  0.5508
   19SAPS   HN2 2397   3.372   1.026   2.593  0.9659 -0.2718  0.8863
   19SAPS   HN3 2398   3.343   0.870   2.543  2.0750 -0.7764  0.8683
   19SAPS   C12 2399   3.392   0.887   2.744  0.3151 -0.1462  0.3761
   19SAPS  H12A 2400   3.329   0.814   2.793  1.7391 -2.4411 -1.0356
   19SAPS   C13 2401   3.520   0.807   2.709  0.1759 -0.5166  0.6430
   19SAPS  O13A 2402   3.549   0.786   2.588 -0.5435 -0.2358  0.4248
   19SAPS  O13B 2403   3.580   0.748   2.808  0.0728 -0.1118  0.1046
   19SAPS   C11 2404   3.423   0.999   2.846 -0.5460  0.1441 -0.6823
   19SAPS  H11A 2405   3.494   1.077   2.814  0.3668  0.0541  1.0098
   19SAPS  H11B 2406   3.472   0.943   2.929 -0.2222  1.5490  0.0933
   19SAPS     P 2407   3.224   1.000   3.016 -0.1313  0.2482  0.1382
   19SAPS   O13 2408   3.099   1.074   3.036 -0.7967 -0.3968 -0.2964
   19SAPS   O14 2409   3.216   0.853   3.004  0.2083 -0.3014 -0.0429
   19SAPS   O12 2410   3.303   1.061   2.890  0.6603 -0.2218 -0.7888
   19SAPS   O11 2411   3.330   1.037   3.131 -0.1115 -0.0595  0.0880
   19SAPS    C1 2412   3.385   1.171   3.148 -0.6379  0.5225  0.0883
   19SAPS    HA 2413   3.340   1.242   3.075  1.0141  0.9948 -0.5241
   19SAPS    HB 2414   3.368   1.204   3.253  2.2554  1.2005  0.4277
   19SAPS    C2 2415   3.535   1.176   3.134 -1.5974 -0.1237  0.1221
   19SAPS    HS 2416   3.576   1.111   3.054  1.6357  0.5126  1.1442
   19SAPS   O21 2417   3.599   1.129   3.252  0.1336  0.1319  0.2218
   19SAPS   C21 2418   3.608   0.991   3.260 -0.4181 -0.1637 -0.1253
   19SAPS   O22 2419   3.583   0.914   3.171 -0.6091  0.1986  0.4119
   19SAPS   C22 2420   3.628   0.953   3.406 -0.1486 -0.2644 -0.2740
   19SAPS   H2R 2421   3.709   1.017   3.447 -1.4411  1.4465 -0.2717
   19SAPS   H2S 2422   3.544   0.988   3.470  0.6408 -1.7662  1.6906
   19SAPS    C3 2423   3.583   1.323   3.106 -0.2769 -0.6688 -0.3942
   19SAPS    HX 2424   3.548   1.369   3.011  0.6739  1.4718  0.2142
   19SAPS    HY 2425   3.692   1.305   3.095 -0.1155 -1.3864  1.8738
   19SAPS   O31 2426   3.557   1.415   3.217 -0.4063  0.1846 -0.4400
   19SAPS   C31 2427   3.644   1.419   3.320 -0.7527 -0.2032  0.3735
   19SAPS   O32 2428   3.753   1.364   3.323  1.1854 -0.3036 -0.5176
   19SAPS   C32 2429   3.580   1.519   3.423 -0.3543 -0.1250 -0.1635
   19SAPS   H2X 2430   3.513   1.583   3.361 -0.2848  0.8125  0.7019
   19SAPS   H2Y 2431   3.652   1.588   3.473 -1.2691  2.2398 -1.8959
   19SAPS   C23 2432   3.653   0.808   3.437  0.3980  0.4303  0.8006
   19SAPS   H3R 2433   3.740   0.771   3.378  0.4622  0.5207  0.8383
   19SAPS   H3S 2434   3.561   0.758   3.400  1.1483  0.4430 -1.2065
   19SAPS   C24 2435   3.659   0.778   3.586 -0.0041 -0.0496 -0.1584
   19SAPS   H4R 2436   3.753   0.824   3.624  0.3268 -1.5377  0.9090
   19SAPS   H4S 2437   3.663   0.667   3.590 -3.1832 -0.2314  0.8337
   19SAPS   C25 2438   3.555   0.838   3.680 -0.3859 -0.3925  0.0283
   19SAPS   H5R 2439   3.511   0.932   3.642 -0.7763 -0.7234 -0.3604
   19SAPS   C26 2440   3.492   0.781   3.781 -0.5134 -0.2426 -0.3544
   19SAPS   H6R 2441   3.408   0.841   3.819  1.1156  1.9139 -0.0072
   19SAPS   C27 2442   3.510   0.639   3.832 -0.0031  0.5785 -0.0560
   19SAPS   H7R 2443   3.523   0.656   3.941 -0.3511  2.2312 -0.2547
   19SAPS   H7S 2444   3.608   0.594   3.805 -0.2118 -0.3823  0.7112
   19SAPS   C28 2445   3.402   0.548   3.789 -0.6015  0.6280  0.5880
   19SAPS   H8R 2446   3.377   0.572   3.684  2.3395  0.8100 -0.1742
   19SAPS   C29 2447   3.342   0.466   3.868 -0.0131 -0.7721  0.3620
   19SAPS   H9R 2448   3.254   0.408   3.836 -3.0834  3.2184  0.7621
   19SAPS  C210 2449   3.366   0.433   4.014  0.0015  0.1527 -0.3452
   19SAPS  H10R 2450   3.471   0.450   4.047 -0.2274 -0.0260  0.4985
   19SAPS  H10S 2451   3.341   0.329   4.043 -0.3872  0.9789  2.6404
   19SAPS  C211 2452   3.286   0.526   4.106 -0.1851  0.2269  0.1528
   19SAPS  H11R 2453   3.267   0.626   4.064 -0.3129 -0.7726 -2.3541
   19SAPS  C212 2454   3.226   0.491   4.223 -0.4049  0.1375 -0.3922
   19SAPS  H12R 2455   3.191   0.574   4.286 -1.0174  0.5652 -1.2828
   19SAPS  C213 2456   3.231   0.363   4.285  0.1817 -0.1067  0.7263
   19SAPS  H13R 2457   3.333   0.353   4.330 -0.5095 -1.1544  2.1264
   19SAPS  H13S 2458   3.222   0.277   4.215  0.9266 -0.6716  1.3015
   19SAPS  C214 2459   3.124   0.345   4.389  0.6375  0.4374  0.4297
   19SAPS  H14R 2460   3.023   0.376   4.358  0.4587 -0.8495 -0.3427
   19SAPS  C215 2461   3.148   0.319   4.520 -0.0257 -0.1095  0.2743
   19SAPS  H15R 2462   3.064   0.297   4.587 -2.4334  0.4643 -2.3337
   19SAPS  C216 2463   3.283   0.294   4.583  0.8031 -0.6652 -0.0751
   19SAPS  H16R 2464   3.362   0.371   4.572  0.2899 -0.2289 -0.7495
   19SAPS  H16S 2465   3.317   0.195   4.545  1.2962 -0.5594  0.0900
   19SAPS  C217 2466   3.253   0.273   4.734  0.1960  0.2106  0.3852
   19SAPS  H17R 2467   3.189   0.184   4.749 -0.3237  0.8748  2.4949
   19SAPS  H17S 2468   3.204   0.360   4.784 -0.4658  0.9793 -1.5032
   19SAPS  C218 2469   3.385   0.236   4.809 -0.3722  0.2438 -0.1372
   19SAPS  H18R 2470   3.457   0.315   4.782  0.5543 -0.4874  0.1259
   19SAPS  H18S 2471   3.414   0.131   4.783 -2.3116 -1.0250  2.3599
   19SAPS  C219 2472   3.381   0.234   4.962  0.2097 -0.8088  0.5013
   19SAPS  H19R 2473   3.311   0.154   4.994 -1.5451  0.0501 -0.9833
   19SAPS  H19S 2474   3.325   0.328   4.985  0.7780 -0.1910 -0.5599
   19SAPS  C220 2475   3.512   0.225   5.035  0.1180 -0.1583  0.4531
   19SAPS  H20R 2476   3.572   0.142   4.990 -2.1263 -2.2993  1.1946
   19SAPS  H20S 2477   3.504   0.210   5.144  0.2144  2.4920  0.8811
   19SAPS  H20T 2478   3.580   0.307   5.005  1.1343 -1.1126  0.0500
   19SAPS   C33 2479   3.482   1.461   3.525  0.7573  0.6613 -0.0255
   19SAPS   H3X 2480   3.425   1.382   3.471  0.2728  0.0771  1.2876
   19SAPS   H3Y 2481   3.401   1.530   3.557  0.1822  0.4173 -0.9179
   19SAPS   C34 2482   3.536   1.413   3.657  0.2895  0.0852  0.1702
   19SAPS   H4X 2483   3.450   1.377   3.718 -0.3499  0.8585 -0.2443
   19SAPS   H4Y 2484   3.563   1.505   3.713 -0.2449  0.1590  0.3231
   19SAPS   C35 2485   3.639   1.300   3.643 -0.7491 -1.1270 -0.3236
   19SAPS   H5X 2486   3.722   1.345   3.584 -2.4229  1.5202 -0.8201
   19SAPS   H5Y 2487   3.593   1.230   3.570 -3.9139  1.6306 -1.2397
   19SAPS   C36 2488   3.672   1.230   3.777  0.7512  0.3825  0.4555
   19SAPS   H6X 2489   3.584   1.169   3.807  1.2716 -0.2172  0.7728
   19SAPS   H6Y 2490   3.674   1.309   3.855 -2.3876  1.5452 -0.4510
   19SAPS   C37 2491   3.784   1.123   3.775 -0.0200  0.0733 -0.7765
   19SAPS   H7X 2492   3.882   1.166   3.746 -0.7916  3.3712  0.9267
   19SAPS   H7Y 2493   3.747   1.061   3.691 -0.7915 -2.1493  1.1219
   19SAPS   C38 2494   3.803   1.047   3.904  0.2042  0.2793 -0.2898
   19SAPS   H8X 2495   3.701   1.010   3.928 -0.4561  1.6660 -0.8797
   19SAPS   H8Y 2496   3.830   1.117   3.985 -0.8967 -0.3600  0.6683
   19SAPS   C39 2497   3.900   0.932   3.896  0.7048  0.5898  0.8691
   19SAPS   H9X 2498   4.001   0.967   3.869  0.2697  0.5112 -0.9475
   19SAPS   H9Y 2499   3.871   0.855   3.821  0.8837  1.0662  0.3116
   19SAPS  C310 2500   3.925   0.868   4.030  0.2341 -0.5986 -0.4179
   19SAPS  H10X 2501   3.952   0.951   4.098  1.2944 -0.6021 -0.8230
   19SAPS  H10Y 2502   4.025   0.821   4.021  1.4393  1.9924 -1.8364
   19SAPS  C311 2503   3.809   0.777   4.078 -0.8880 -0.3817 -0.0726
   19SAPS  H11X 2504   3.763   0.724   3.992  0.2963  0.7448 -1.4492
   19SAPS  H11Y 2505   3.729   0.849   4.106 -1.7020 -0.6652 -1.6107
   19SAPS  C312 2506   3.827   0.697   4.204 -0.4638  0.1744 -0.2909
   19SAPS  H12X 2507   3.734   0.643   4.233 -0.8806  1.2476  0.4165
   19SAPS  H12Y 2508   3.852   0.770   4.284  0.8553  0.8789 -1.3095
   19SAPS  C313 2509   3.939   0.595   4.197 -0.7489  0.4263  0.1552
   19SAPS  H13X 2510   4.036   0.648   4.185 -1.7605  2.9219  2.2398
   19SAPS  H13Y 2511   3.926   0.517   4.119  1.2553  0.5911 -0.3933
   19SAPS  C314 2512   3.938   0.520   4.336 -0.1283 -0.1619 -0.3937
   19SAPS  H14X 2513   3.992   0.424   4.319  0.5254 -0.4421  2.7788
   19SAPS  H14Y 2514   3.831   0.492   4.347  0.1947 -2.2073 -1.7261
   19SAPS  C315 2515   3.997   0.600   4.452  0.1374 -0.1094 -0.4585
   19SAPS  H15X 2516   3.944   0.557   4.539  0.5120 -0.6477 -0.4936
   19SAPS  H15Y 2517   3.971   0.707   4.440 -1.0836 -0.3631 -0.2345
   19SAPS  C316 2518   4.146   0.574   4.472 -0.2725  0.0977  0.4631
   19SAPS  H16X 2519   4.212   0.628   4.401  0.3853 -0.2535  0.7995
   19SAPS  H16Y 2520   4.155   0.463   4.469 -0.5810  0.0467  1.1376
   19SAPS  C317 2521   4.188   0.623   4.618 -0.4678  0.1228  0.1674
   19SAPS  H17X 2522   4.134   0.555   4.687  2.0225 -1.8845  0.2945
   19SAPS  H17Y 2523   4.153   0.727   4.632 -0.7574  0.1758 -0.8378
   19SAPS  C318 2524   4.333   0.607   4.632 -0.4138 -0.7175 -0.3527
   19SAPS  H18X 2525   4.383   0.661   4.549 -2.7453 -0.2117 -1.5422
   19SAPS  H18Y 2526   4.368   0.502   4.631  0.6485 -0.3668 -0.6945
   19SAPS  H18Z 2527   4.354   0.641   4.735  1.5310 -1.9617 -0.3023
   20SAPS     N 2528   6.278   2.317   2.883 -0.1926  0.1916 -0.4491
   20SAPS   HN1 2529   6.305   2.336   2.982 -2.0206 -1.2848  0.4053
   20SAPS   HN2 2530   6.228   2.400   2.846 -0.2923  1.0806  1.5431
   20SAPS   HN3 2531   6.208   2.240   2.880  0.1765 -0.1083 -2.1272
   20SAPS   C12 2532   6.395   2.291   2.795 -0.3668  0.2395 -0.5690
   20SAPS  H12A 2533   6.464   2.233   2.855 -0.8809 -1.0497 -1.1989
   20SAPS   C13 2534   6.366   2.227   2.659 -0.0086  0.4042 -0.1149
   20SAPS  O13A 2535   6.248   2.193   2.627 -0.1539 -0.2940 -0.5103
   20SAPS  O13B 2536   6.461   2.222   2.571  0.4921  0.0493  0.1769
   20SAPS   C11 2537   6.477   2.424   2.760  0.9322  0.0889  0.4580
   20SAPS  H11A 2538   6.424   2.488   2.686 -1.6396  0.1022  2.1905
   20SAPS  H11B 2539   6.571   2.381   2.719  0.8990  0.1778  0.2844
   20SAPS     P 2540   6.614   2.600   2.894 -0.0668 -0.1955  0.3775
   20SAPS   O13 2541   6.744   2.532   2.869  0.2839 -0.7784  0.2723
   20SAPS   O14 2542   6.583   2.713   2.803 -0.4738  0.0079  0.0693
   20SAPS   O12 2543   6.503   2.489   2.883  0.1935  0.2579  0.2309
   20SAPS   O11 2544   6.607   2.648   3.047  1.2135 -0.2782 -0.0188
   20SAPS    C1 2545   6.490   2.634   3.125  0.0778  0.2194  0.1030
   20SAPS    HA 2546   6.403   2.692   3.089 -0.2339 -0.1917  0.1867
   20SAPS    HB 2547   6.465   2.526   3.136 -0.8072  0.4500  0.3978
   20SAPS    C2 2548   6.522   2.676   3.272 -0.1308 -0.2372 -0.0822
   20SAPS    HS 2549   6.430   2.670   3.334 -0.2503  0.9587 -0.1207
   20SAPS   O21 2550   6.586   2.798   3.284 -0.2769  0.0923 -0.5038
   20SAPS   C21 2551   6.517   2.903   3.260  0.4631  0.1259 -0.5946
   20SAPS   O22 2552   6.403   2.911   3.215  0.2041 -0.3989  0.3332
   20SAPS   C22 2553   6.605   3.024   3.256  0.7548  0.5388  0.1792
   20SAPS   H2R 2554   6.675   2.996   3.175 -0.1178  0.9528 -0.7337
   20SAPS   H2S 2555   6.546   3.112   3.223  1.9603  1.7689  1.1841
   20SAPS    C3 2556   6.615   2.572   3.345 -1.3012  0.5438  0.1771
   20SAPS    HX 2557   6.678   2.626   3.420  0.5257 -0.0277 -0.8736
   20SAPS    HY 2558   6.681   2.533   3.265 -0.5912  1.2761  0.3777
   20SAPS   O31 2559   6.552   2.462   3.414  0.8620 -0.0945 -0.8047
   20SAPS   C31 2560   6.544   2.340   3.358 -0.2636 -0.1257  0.1324
   20SAPS   O32 2561   6.575   2.317   3.243  0.4026  0.0909  0.1754
   20SAPS   C32 2562   6.462   2.255   3.448 -0.2385 -0.4411  0.2567
   20SAPS   H2X 2563   6.442   2.160   3.395 -0.0908 -1.4569  1.9643
   20SAPS   H2Y 2564   6.371   2.314   3.471  0.7274  1.2952 -0.1641
   20SAPS   C23 2565   6.698   3.056   3.372  0.0248  0.1842 -0.4199
   20SAPS   H3R 2566   6.790   3.109   3.338  0.9196 -0.9355  0.1434
   20SAPS   H3S 2567   6.742   2.963   3.416  3.6081  1.6254 -0.6449
   20SAPS   C24 2568   6.635   3.141   3.484 -0.4955 -0.6365  0.6647
   20SAPS   H4R 2569   6.605   3.238   3.440  1.3992 -0.9716 -1.5511
   20SAPS   H4S 2570   6.715   3.172   3.554 -1.8705 -0.0360  2.0267
   20SAPS   C25 2571   6.531   3.072   3.561  0.8308 -0.0423 -0.2092
   20SAPS   H5R 2572   6.428   3.079   3.523  0.6252 -0.6802  0.2026
   20SAPS   C26 2573   6.540   3.021   3.684 -0.4565 -0.6586 -0.2825
   20SAPS   H6R 2574   6.445   2.978   3.719 -2.5723  0.6865 -3.8581
   20SAPS   C27 2575   6.655   2.998   3.776 -0.0988 -0.5024  0.1189
   20SAPS   H7R 2576   6.640   3.057   3.869 -0.1290  1.1178 -0.8755
   20SAPS   H7S 2577   6.748   3.039   3.731 -1.0417  2.1197  0.4061
   20SAPS   C28 2578   6.675   2.850   3.808  0.6233  0.0689 -0.5018
   20SAPS   H8R 2579   6.690   2.787   3.719  2.0754  0.7578 -0.7650
   20SAPS   C29 2580   6.681   2.796   3.932  0.0598  0.1799  0.2665
   20SAPS   H9R 2581   6.688   2.686   3.930  0.6131  0.2130 -1.5212
   20SAPS  C210 2582   6.672   2.869   4.065 -0.6227  0.0268 -0.1938
   20SAPS  H10R 2583   6.763   2.932   4.065 -0.9346  0.5194  1.6184
   20SAPS  H10S 2584   6.700   2.801   4.148  0.2515  0.5833 -0.0252
   20SAPS  C211 2585   6.547   2.945   4.091  0.4855 -0.5402 -0.3429
   20SAPS  H11R 2586   6.490   2.991   4.009 -0.7045  1.6226  1.5940
   20SAPS  C212 2587   6.495   2.952   4.216 -0.2868  0.9447 -0.0754
   20SAPS  H12R 2588   6.398   3.004   4.227 -1.6258 -1.2509 -0.8149
   20SAPS  C213 2589   6.551   2.896   4.344  0.1426 -0.7504 -0.0783
   20SAPS  H13R 2590   6.545   2.975   4.422  0.0362 -0.1455 -0.6943
   20SAPS  H13S 2591   6.660   2.878   4.347  0.6861  2.2458  1.5804
   20SAPS  C214 2592   6.465   2.775   4.376 -0.1641  0.3075 -0.2071
   20SAPS  H14R 2593   6.467   2.698   4.298 -1.4889 -0.0922  0.1404
   20SAPS  C215 2594   6.401   2.753   4.487 -0.0894  0.1742  0.3688
   20SAPS  H15R 2595   6.336   2.665   4.502  0.3390 -0.0376  1.0301
   20SAPS  C216 2596   6.399   2.845   4.605 -0.3825  0.2421 -0.3349
   20SAPS  H16R 2597   6.299   2.839   4.652  0.4404 -2.6789  1.3253
   20SAPS  H16S 2598   6.413   2.953   4.587 -0.7267  0.4644  0.6808
   20SAPS  C217 2599   6.514   2.794   4.697 -0.5411 -0.2574  0.0498
   20SAPS  H17R 2600   6.607   2.783   4.637 -1.9467 -4.5420 -1.7103
   20SAPS  H17S 2601   6.496   2.692   4.736  0.5734  0.7486  3.5805
   20SAPS  C218 2602   6.544   2.878   4.820  0.1903 -0.8468 -0.2338
   20SAPS  H18R 2603   6.572   2.983   4.797  0.1252 -0.4977  1.2052
   20SAPS  H18S 2604   6.624   2.835   4.885  1.0438  0.9230 -0.0674
   20SAPS  C219 2605   6.441   2.888   4.931  0.2989 -0.1860  0.1215
   20SAPS  H19R 2606   6.399   2.786   4.947  2.1021 -1.0585 -0.4624
   20SAPS  H19S 2607   6.369   2.965   4.895  1.0297  0.5641  0.2384
   20SAPS  C220 2608   6.502   2.938   5.055  0.0595 -0.3379 -0.1124
   20SAPS  H20R 2609   6.426   2.912   5.132 -1.0971  0.4354 -0.9646
   20SAPS  H20S 2610   6.518   3.048   5.049 -4.2121  0.4880  0.2275
   20SAPS  H20T 2611   6.587   2.881   5.098  2.4506  2.3516 -0.9383
   20SAPS   C33 2612   6.539   2.209   3.573 -0.2948  0.0616 -0.1155
   20SAPS   H3X 2613   6.592   2.296   3.618 -1.1410  0.8914 -0.6958
   20SAPS   H3Y 2614   6.629   2.151   3.545  1.6348  1.7025  2.2273
   20SAPS   C34 2615   6.461   2.121   3.669 -0.8506  0.4457 -0.5044
   20SAPS   H4X 2616   6.424   2.030   3.616 -0.8385  1.7270 -2.8211
   20SAPS   H4Y 2617   6.375   2.176   3.713  0.3385  1.6105  0.4414
   20SAPS   C35 2618   6.553   2.072   3.789 -0.7760 -0.7221  0.6178
   20SAPS   H5X 2619   6.628   2.150   3.814  2.6553 -3.4587 -0.3713
   20SAPS   H5Y 2620   6.611   1.980   3.768  3.5233  1.1686  3.0007
   20SAPS   C36 2621   6.479   2.035   3.914 -0.0466  0.6578 -0.7424
   20SAPS   H6X 2622   6.401   1.959   3.893 -2.0208  2.3720 -0.0401
   20SAPS   H6Y 2623   6.437   2.125   3.965 -0.2450  0.1594 -0.0118
   20SAPS   C37 2624   6.582   1.962   4.013  0.2145 -0.2456  0.0779
   20SAPS   H7X 2625   6.671   2.028   4.023  1.4226 -1.4978 -1.8292
   20SAPS   H7Y 2626   6.608   1.864   3.968 -0.0387 -1.9523  3.2892
   20SAPS   C38 2627   6.527   1.924   4.157  0.0264 -0.2956 -0.2655
   20SAPS   H8X 2628   6.470   1.829   4.150  0.3224 -0.3801 -1.8298
   20SAPS   H8Y 2629   6.461   2.004   4.197  0.4707 -0.2102  0.3168
   20SAPS   C39 2630   6.645   1.918   4.263  0.7930  0.2093  0.1560
   20SAPS   H9X 2631   6.709   2.008   4.249 -0.5781  0.9618 -1.6775
   20SAPS   H9Y 2632   6.719   1.841   4.232  0.2516 -0.9094  1.5753
   20SAPS  C310 2633   6.594   1.885   4.405 -0.5261 -0.2591  0.5229
   20SAPS  H10X 2634   6.538   1.790   4.420  0.4509 -1.1707 -1.2784
   20SAPS  H10Y 2635   6.524   1.966   4.432  0.2964 -0.0823  2.2265
   20SAPS  C311 2636   6.700   1.890   4.507  0.4450  0.3634 -0.8866
   20SAPS  H11X 2637   6.764   1.980   4.497  0.5399  0.5819  1.2538
   20SAPS  H11Y 2638   6.762   1.798   4.506  0.1416  0.0562  1.7250
   20SAPS  C312 2639   6.646   1.898   4.657 -0.5946  0.1763  0.2181
   20SAPS  H12X 2640   6.613   1.797   4.687  0.7419  0.2055  1.9699
   20SAPS  H12Y 2641   6.558   1.962   4.635  0.6308  1.8334 -0.1437
   20SAPS  C313 2642   6.746   1.955   4.756  0.0820  0.0984  0.2319
   20SAPS  H13X 2643   6.705   1.968   4.858 -0.9468  2.4616 -0.4282
   20SAPS  H13Y 2644   6.763   2.059   4.722  0.5818  0.8386  2.6317
   20SAPS  C314 2645   6.872   1.868   4.747 -0.4082 -0.6311 -0.1281
   20SAPS  H14X 2646   6.963   1.915   4.789 -0.1861 -1.1452 -0.0363
   20SAPS  H14Y 2647   6.908   1.843   4.645  0.2940  1.1633 -0.3677
   20SAPS  C315 2648   6.859   1.733   4.819  0.6260 -0.2791  0.3770
   20SAPS  H15X 2649   6.957   1.684   4.836  1.2452  0.9540  0.5440
   20SAPS  H15Y 2650   6.796   1.662   4.762 -2.0500 -0.5688  3.4461
   20SAPS  C316 2651   6.792   1.732   4.960 -0.1242 -0.3810  0.5293
   20SAPS  H16X 2652   6.696   1.788   4.960 -0.2889 -0.6649  0.3633
   20SAPS  H16Y 2653   6.862   1.791   5.025 -0.3955 -0.0431  0.5189
   20SAPS  C317 2654   6.763   1.596   5.021 -0.5184 -0.1152 -0.0778
   20SAPS  H17X 2655   6.700   1.544   4.945 -0.7965  0.2344 -0.0883
   20SAPS  H17Y 2656   6.717   1.600   5.122 -0.7786 -0.4522 -0.1796
   20SAPS  C318 2657   6.890   1.507   5.039 -0.5182  0.4679 -0.1650
   20SAPS  H18X 2658   6.879   1.411   4.984  1.1904  0.5307 -0.6649
   20SAPS  H18Y 2659   6.912   1.479   5.144 -0.7263  0.7013 -0.0580
   20SAPS  H18Z 2660   6.981   1.537   4.982 -1.3910 -0.5916 -2.2401
   21CHL1    C3 2661   4.660   3.745   6.761 -0.5136  0.1135  0.1202
   21CHL1    H3 2662   4.756   3.791   6.729 -1.9229  1.9277 -1.7657
   21CHL1    O3 2663   4.666   3.743   6.908 -0.0385  0.2182  0.0044
   21CHL1   H3' 2664   4.753   3.703   6.918 -0.0095  0.1555 -0.4748
   21CHL1    C4 2665   4.548   3.836   6.719 -0.4798  0.3511 -0.1914
   21CHL1   H4A 2666   4.466   3.790   6.779  1.5217 -1.9775  0.9666
   21CHL1   H4B 2667   4.570   3.938   6.758 -0.8886  1.3334 -2.3997
   21CHL1    C5 2668   4.509   3.828   6.567 -0.7401  0.3736  0.0317
   21CHL1    C6 2669   4.495   3.941   6.505 -0.3731  0.1108  0.0597
   21CHL1    H6 2670   4.500   4.038   6.559  2.3720  1.0245 -1.6166
   21CHL1    C7 2671   4.465   3.965   6.360 -0.8208  0.4444 -0.9597
   21CHL1   H7A 2672   4.382   4.038   6.349 -2.7010 -1.2189  1.1812
   21CHL1   H7B 2673   4.565   3.996   6.322 -0.9862  1.3647 -0.6636
   21CHL1    C8 2674   4.424   3.834   6.299  0.1546 -0.3466  0.4850
   21CHL1    H8 2675   4.320   3.819   6.334  0.0065 -1.2819 -0.3225
   21CHL1   C14 2676   4.434   3.841   6.150 -0.5161 -0.4674 -0.1676
   21CHL1   H14 2677   4.539   3.868   6.126 -0.9797  0.0485 -1.7308
   21CHL1   C15 2678   4.363   3.955   6.076 -1.0179  0.1038  0.9639
   21CHL1  H15A 2679   4.255   3.944   6.102 -1.3677 -1.6162 -0.9553
   21CHL1  H15B 2680   4.388   4.062   6.093 -2.7495  1.2443 -2.6884
   21CHL1   C16 2681   4.377   3.918   5.927  0.0512 -0.7907  0.6242
   21CHL1  H16A 2682   4.276   3.929   5.881 -0.8775 -4.3746  1.4563
   21CHL1  H16B 2683   4.450   3.995   5.895 -0.0966 -0.8435  0.1477
   21CHL1   C17 2684   4.442   3.774   5.929 -0.3375 -0.5877 -0.5381
   21CHL1   H17 2685   4.552   3.790   5.928 -0.2563 -1.0505 -2.6169
   21CHL1   C13 2686   4.418   3.710   6.072 -0.6551  0.2169 -0.8726
   21CHL1   C18 2687   4.267   3.667   6.082  0.1735  0.1214 -0.2244
   21CHL1  H18A 2688   4.202   3.741   6.030  0.8253  1.3499  0.6513
   21CHL1  H18B 2689   4.251   3.565   6.042 -0.0222 -0.4110  1.1663
   21CHL1  H18C 2690   4.246   3.666   6.191 -0.1379  0.7639 -0.2699
   21CHL1   C12 2691   4.514   3.609   6.121  0.0396  0.3447  0.0019
   21CHL1  H12A 2692   4.495   3.520   6.056 -1.2101  1.8009 -1.7238
   21CHL1  H12B 2693   4.622   3.635   6.109  0.5321 -1.9366 -1.3501
   21CHL1   C11 2694   4.506   3.583   6.269 -0.0684  0.2460 -0.0280
   21CHL1  H11A 2695   4.408   3.536   6.295 -0.9189  1.7995 -0.3242
   21CHL1  H11B 2696   4.581   3.505   6.295 -1.9378 -1.3532  0.8712
   21CHL1    C9 2697   4.516   3.714   6.350 -0.5519 -0.0579  0.6399
   21CHL1    H9 2698   4.619   3.746   6.322 -0.7666 -1.2964 -1.9011
   21CHL1   C10 2699   4.515   3.697   6.496 -0.3426  0.5577 -1.1744
   21CHL1   C19 2700   4.376   3.632   6.541  0.2613 -0.2562  0.4607
   21CHL1  H19A 2701   4.368   3.530   6.498  0.1164 -1.0644  2.3541
   21CHL1  H19B 2702   4.350   3.625   6.648  0.3300 -0.4026  0.4685
   21CHL1  H19C 2703   4.298   3.690   6.488  1.0333  1.2938  0.9624
   21CHL1    C1 2704   4.635   3.611   6.548  0.4502 -0.2206 -0.0661
   21CHL1   H1A 2705   4.613   3.511   6.505 -2.6841  0.0371  0.6992
   21CHL1   H1B 2706   4.731   3.641   6.500  0.7745 -0.4430  0.4436
   21CHL1    C2 2707   4.641   3.607   6.700  0.1639  0.4874 -0.5797
   21CHL1   H2A 2708   4.732   3.551   6.732 -1.6376 -1.8600  0.7687
   21CHL1   H2B 2709   4.563   3.540   6.743  0.0401  1.6427  1.1241
   21CHL1   C20 2710   4.404   3.679   5.811 -0.5178 -0.2652  0.1603
   21CHL1   H20 2711   4.311   3.622   5.830 -0.6150 -0.1138  0.1465
   21CHL1   C21 2712   4.517   3.586   5.784  0.0149  0.0216 -0.1234
   21CHL1  H21A 2713   4.551   3.539   5.879 -1.0369 -1.7350 -0.5769
   21CHL1  H21B 2714   4.607   3.645   5.753 -0.2481  1.0254  0.9440
   21CHL1  H21C 2715   4.490   3.504   5.714  0.7357  0.7326 -1.2749
   21CHL1   C22 2716   4.380   3.763   5.688  0.1268  0.4168 -0.0984
   21CHL1  H22A 2717   4.296   3.833   5.708 -0.8294 -1.0518  1.3025
   21CHL1  H22B 2718   4.468   3.820   5.652  1.6699 -1.0903  1.1340
   21CHL1   C23 2719   4.336   3.681   5.566  0.7093 -0.5513  0.2371
   21CHL1  H23A 2720   4.421   3.621   5.526  1.2338 -0.0209  0.5309
   21CHL1  H23B 2721   4.249   3.618   5.591  0.7364 -0.9728 -0.6843
   21CHL1   C24 2722   4.291   3.777   5.449  0.0634  0.4451  0.1175
   21CHL1  H24A 2723   4.217   3.852   5.482  0.4793  1.8396 -1.9021
   21CHL1  H24B 2724   4.375   3.839   5.412  0.1145 -0.0769 -0.6870
   21CHL1   C25 2725   4.230   3.708   5.321  0.2208  0.4404 -0.3489
   21CHL1   H25 2726   4.139   3.660   5.362  1.5187 -1.0119  1.0231
   21CHL1   C26 2727   4.204   3.807   5.213  0.1914 -0.3459 -0.5279
   21CHL1  H26A 2728   4.128   3.882   5.246  0.9607  0.3168 -0.2299
   21CHL1  H26B 2729   4.297   3.857   5.181  0.3006 -1.0383 -1.3067
   21CHL1  H26C 2730   4.167   3.754   5.123 -2.1546  0.6395 -0.2177
   21CHL1   C27 2731   4.323   3.584   5.276  0.4420  0.5074  0.4741
   21CHL1  H27A 2732   4.430   3.609   5.258  1.7850 -3.1648  2.2551
   21CHL1  H27B 2733   4.315   3.500   5.349  0.3080 -1.1705 -1.3868
   21CHL1  H27C 2734   4.284   3.545   5.180 -2.6601 -0.4014  1.9682
   22CHL1    C3 2735   5.850   4.042   6.691  0.0016  0.0094 -0.4948
   22CHL1    H3 2736   5.746   4.031   6.655  0.9351 -0.8951 -3.1104
   22CHL1    O3 2737   5.869   4.037   6.834  0.0578  0.7054 -0.1122
   22CHL1   H3' 2738   5.811   3.968   6.867  0.2613 -0.1280 -1.4559
   22CHL1    C4 2739   5.931   3.917   6.641 -0.6817 -0.2593  0.4776
   22CHL1   H4A 2740   6.039   3.936   6.661 -0.5506  1.7048 -1.6874
   22CHL1   H4B 2741   5.893   3.826   6.693 -0.6522 -1.4732 -1.5263
   22CHL1    C5 2742   5.911   3.906   6.490 -0.2432 -0.0372 -0.1166
   22CHL1    C6 2743   5.852   3.798   6.432  0.2382 -0.4864 -0.4078
   22CHL1    H6 2744   5.806   3.724   6.499 -1.0625 -2.3157 -3.1894
   22CHL1    C7 2745   5.837   3.783   6.283 -0.1428 -0.1977 -0.0587
   22CHL1   H7A 2746   5.854   3.678   6.249 -3.3561 -0.2476 -1.9762
   22CHL1   H7B 2747   5.736   3.808   6.243  1.7346  6.0477 -1.8862
   22CHL1    C8 2748   5.925   3.886   6.203 -0.2467  0.0576 -0.2072
   22CHL1    H8 2749   6.027   3.843   6.215 -0.2418  0.1679  0.1594
   22CHL1   C14 2750   5.889   3.887   6.049 -0.7505  0.0080 -0.1768
   22CHL1   H14 2751   5.784   3.922   6.044 -1.6937 -2.6728 -1.0100
   22CHL1   C15 2752   5.890   3.751   5.985 -0.5287  0.0254  0.1157
   22CHL1  H15A 2753   5.978   3.686   6.006 -0.7622 -0.6285 -0.8566
   22CHL1  H15B 2754   5.803   3.687   6.013 -0.3549 -0.2477  0.0406
   22CHL1   C16 2755   5.886   3.790   5.835 -0.2886 -0.2770 -0.1656
   22CHL1  H16A 2756   5.960   3.728   5.780  2.3141  2.3351  0.1215
   22CHL1  H16B 2757   5.784   3.765   5.801  0.0335 -2.5084  0.3585
   22CHL1   C17 2758   5.919   3.944   5.824  0.0048  0.1592 -0.2534
   22CHL1   H17 2759   5.817   3.987   5.836 -0.6346 -0.5937 -2.5099
   22CHL1   C13 2760   5.977   3.982   5.960 -0.2685  0.1341  0.1325
   22CHL1   C18 2761   6.125   3.944   5.972 -0.0450  0.0435 -0.3868
   22CHL1  H18A 2762   6.154   3.961   6.078 -2.0250 -1.4333  0.4567
   22CHL1  H18B 2763   6.154   3.842   5.940  3.3368  1.0162 -0.8276
   22CHL1  H18C 2764   6.182   4.013   5.906  0.1055 -2.5469 -3.1636
   22CHL1   C12 2765   5.947   4.126   6.011  0.1819 -0.2161 -0.6107
   22CHL1  H12A 2766   6.008   4.198   5.952  0.8636  1.0083  1.4694
   22CHL1  H12B 2767   5.837   4.143   6.001  0.1226  1.3589  1.8095
   22CHL1   C11 2768   5.983   4.139   6.169 -0.4164 -0.3336 -0.2131
   22CHL1  H11A 2769   6.093   4.137   6.185 -0.5751 -0.5108  0.9935
   22CHL1  H11B 2770   5.937   4.235   6.200 -0.4569  0.0190 -1.3074
   22CHL1    C9 2771   5.915   4.031   6.262 -0.2652  0.9304  0.1394
   22CHL1    H9 2772   5.810   4.066   6.259 -0.1803  1.2288  0.4891
   22CHL1   C10 2773   5.958   4.033   6.412  0.6405 -0.6839  0.3801
   22CHL1   C19 2774   6.114   4.022   6.415  0.0925  0.0074  0.3871
   22CHL1  H19A 2775   6.152   4.025   6.519  0.6954  2.1421  0.1650
   22CHL1  H19B 2776   6.149   3.926   6.371 -0.5095 -0.1459  0.2338
   22CHL1  H19C 2777   6.157   4.113   6.368 -2.6779  2.1325  1.6851
   22CHL1    C1 2778   5.909   4.169   6.475 -0.8161  0.6461  0.8848
   22CHL1   H1A 2779   5.963   4.261   6.444 -0.0645  0.3468  1.2605
   22CHL1   H1B 2780   5.803   4.176   6.444 -0.8377 -1.7301  0.1786
   22CHL1    C2 2781   5.906   4.168   6.635 -0.1011 -0.4061  0.6842
   22CHL1   H2A 2782   5.854   4.262   6.664  0.6884  1.1434 -2.5003
   22CHL1   H2B 2783   6.012   4.190   6.663 -0.2374 -0.5344  1.3198
   22CHL1   C20 2784   5.988   3.975   5.695  0.5770 -0.3264 -0.7620
   22CHL1   H20 2785   6.085   3.922   5.712  0.6830 -0.1146 -0.7011
   22CHL1   C21 2786   6.015   4.130   5.687 -0.2427  0.4167  0.4389
   22CHL1  H21A 2787   5.927   4.196   5.696 -0.6684  0.1747 -1.5004
   22CHL1  H21B 2788   6.083   4.161   5.604 -1.1190  1.5239  0.1188
   22CHL1  H21C 2789   6.075   4.161   5.775 -0.3434 -3.4864  2.0698
   22CHL1   C22 2790   5.912   3.918   5.573  0.0472 -0.0127 -0.1484
   22CHL1  H22A 2791   5.914   3.808   5.567 -2.3709 -0.1056 -0.1129
   22CHL1  H22B 2792   5.809   3.955   5.592  0.1954  0.9505 -1.0682
   22CHL1   C23 2793   5.972   3.972   5.444  0.4065 -0.1066  0.8351
   22CHL1  H23A 2794   5.951   4.080   5.430  3.2013  0.3647 -0.4624
   22CHL1  H23B 2795   6.080   3.945   5.449  0.1210 -1.2697  1.0091
   22CHL1   C24 2796   5.909   3.901   5.319 -0.3045 -0.4085 -0.4022
   22CHL1  H24A 2797   5.953   3.800   5.304  0.0708 -0.3226  0.1297
   22CHL1  H24B 2798   5.799   3.894   5.306 -0.2134  1.1219 -2.6083
   22CHL1   C25 2799   5.949   3.986   5.192  0.7244 -0.6782  0.5507
   22CHL1   H25 2800   5.905   4.086   5.212  1.0130  0.3151 -2.9945
   22CHL1   C26 2801   6.100   4.015   5.176 -0.1264  0.1933 -0.0870
   22CHL1  H26A 2802   6.153   4.081   5.248  0.1081 -0.7431  0.6200
   22CHL1  H26B 2803   6.154   3.919   5.165  0.9083  0.6375  0.9437
   22CHL1  H26C 2804   6.119   4.074   5.084  0.7206  1.0008  0.5833
   22CHL1   C27 2805   5.873   3.928   5.071  0.3571  0.2571 -0.1023
   22CHL1  H27A 2806   5.908   3.826   5.045  2.1518  0.7395  0.3246
   22CHL1  H27B 2807   5.766   3.916   5.101  0.6365 -2.5991  0.0486
   22CHL1  H27C 2808   5.870   3.999   4.985 -0.5806 -0.1742 -0.4395
   23CHL1    C3 2809   4.229   4.963   6.574 -0.2880  0.2461 -0.3020
   23CHL1    H3 2810   4.224   4.853   6.564  4.4076 -0.5045  2.6917
   23CHL1    O3 2811   4.208   4.987   6.715 -0.3468  0.1052 -0.2756
   23CHL1   H3' 2812   4.286   4.950   6.758  1.1255  2.8091 -0.3953
   23CHL1    C4 2813   4.369   5.000   6.531 -0.2004  0.1320 -0.6508
   23CHL1   H4A 2814   4.400   5.104   6.555 -1.4984  0.2093  0.8349
   23CHL1   H4B 2815   4.431   4.930   6.591 -0.3123  0.8398  0.3144
   23CHL1    C5 2816   4.383   4.984   6.385  0.2705  0.2214 -0.5979
   23CHL1    C6 2817   4.479   4.903   6.336 -0.2475 -0.6011 -0.3477
   23CHL1    H6 2818   4.572   4.866   6.381  1.0089  1.0818 -1.4041
   23CHL1    C7 2819   4.501   4.892   6.192 -0.5971 -0.1252  0.0385
   23CHL1   H7A 2820   4.607   4.901   6.161 -0.7681 -2.4977 -1.4774
   23CHL1   H7B 2821   4.483   4.791   6.149 -0.1837 -0.0914 -0.2168
   23CHL1    C8 2822   4.425   4.997   6.106  0.2627  0.5872 -0.0598
   23CHL1    H8 2823   4.476   5.096   6.108  0.7613  0.3796 -1.5220
   23CHL1   C14 2824   4.421   4.950   5.960  0.2977 -0.3228 -0.2740
   23CHL1   H14 2825   4.362   4.856   5.957 -2.1996  1.1717 -3.0063
   23CHL1   C15 2826   4.553   4.911   5.905  0.1681  0.1689 -1.2115
   23CHL1  H15A 2827   4.628   4.990   5.923  2.2053 -2.1823  1.4821
   23CHL1  H15B 2828   4.603   4.829   5.961 -0.3880  0.3077 -0.4932
   23CHL1   C16 2829   4.512   4.878   5.759 -0.1523 -0.5001 -0.0825
   23CHL1  H16A 2830   4.587   4.939   5.705 -1.8010  0.9032 -0.8793
   23CHL1  H16B 2831   4.504   4.770   5.737 -0.6305 -0.9914  2.1545
   23CHL1   C17 2832   4.369   4.942   5.736 -0.1270 -0.4363 -0.2375
   23CHL1   H17 2833   4.289   4.868   5.758 -0.6034  0.4543  1.1576
   23CHL1   C13 2834   4.350   5.036   5.863 -0.0422 -0.0013 -0.5523
   23CHL1   C18 2835   4.416   5.172   5.847  0.7028  0.6351  0.6541
   23CHL1  H18A 2836   4.425   5.219   5.948  1.1129  1.4987  0.2267
   23CHL1  H18B 2837   4.509   5.165   5.787  1.5179 -2.1675  2.0840
   23CHL1  H18C 2838   4.334   5.228   5.798 -0.4184 -0.3197  1.4033
   23CHL1   C12 2839   4.198   5.051   5.904 -0.0526  0.4885 -0.3991
   23CHL1  H12A 2840   4.151   5.125   5.835 -1.2106 -0.9940 -1.2704
   23CHL1  H12B 2841   4.147   4.953   5.894  1.1174 -0.5467  2.7604
   23CHL1   C11 2842   4.182   5.085   6.050 -0.4670  0.1657 -0.1434
   23CHL1  H11A 2843   4.205   5.193   6.059  2.5711 -0.4917  1.0803
   23CHL1  H11B 2844   4.075   5.070   6.077 -0.1935  0.3815  1.1466
   23CHL1    C9 2845   4.283   5.007   6.148  0.5106 -0.2306 -0.4451
   23CHL1    H9 2846   4.245   4.903   6.146 -0.9738  0.2860 -0.1095
   23CHL1   C10 2847   4.278   5.056   6.299 -0.1165  0.3308  0.2436
   23CHL1   C19 2848   4.298   5.207   6.305  0.3452  0.2662  0.3506
   23CHL1  H19A 2849   4.229   5.264   6.239  2.1185 -0.0861 -1.9441
   23CHL1  H19B 2850   4.284   5.243   6.409  0.6290  1.8112 -0.1120
   23CHL1  H19C 2851   4.398   5.228   6.263 -0.2011 -1.1635 -1.8303
   23CHL1    C1 2852   4.138   5.020   6.349 -0.8303  0.2234 -0.3751
   23CHL1   H1A 2853   4.059   5.075   6.293 -0.1007  1.5737 -0.1333
   23CHL1   H1B 2854   4.118   4.912   6.332 -3.7259  0.6022  0.0774
   23CHL1    C2 2855   4.116   5.043   6.499 -0.0385  0.4308 -0.0054
   23CHL1   H2A 2856   4.018   4.999   6.528  1.2103 -1.1562  2.0270
   23CHL1   H2B 2857   4.113   5.149   6.533  0.0706 -0.0299  1.4813
   23CHL1   C20 2858   4.338   5.018   5.607 -0.3173 -0.4001  0.1480
   23CHL1   H20 2859   4.262   5.096   5.630  0.7622  1.2396 -1.5280
   23CHL1   C21 2860   4.278   4.913   5.516 -0.7286  0.3498  0.3248
   23CHL1  H21A 2861   4.245   4.961   5.421 -1.9356 -0.2967  0.4002
   23CHL1  H21B 2862   4.197   4.866   5.576  0.0110 -0.6415  0.5648
   23CHL1  H21C 2863   4.353   4.833   5.500  2.0287  2.2189  2.8377
   23CHL1   C22 2864   4.460   5.077   5.530 -0.5880 -0.2897  0.8347
   23CHL1  H22A 2865   4.542   5.121   5.590  0.9242  0.1847 -1.4366
   23CHL1  H22B 2866   4.501   4.981   5.489 -0.0952  0.2350  0.0708
   23CHL1   C23 2867   4.414   5.174   5.417 -0.5654  0.3073 -0.1299
   23CHL1  H23A 2868   4.366   5.120   5.333 -3.1535  0.4201  1.1739
   23CHL1  H23B 2869   4.342   5.239   5.471  0.7954  0.6986  1.3079
   23CHL1   C24 2870   4.526   5.268   5.369  0.4747 -0.4272 -0.5846
   23CHL1  H24A 2871   4.601   5.201   5.321 -0.3908  0.4913 -3.3973
   23CHL1  H24B 2872   4.488   5.319   5.278 -1.9474 -1.9369 -0.4960
   23CHL1   C25 2873   4.599   5.353   5.476 -0.2680 -0.1766 -0.5913
   23CHL1   H25 2874   4.657   5.284   5.541  0.8618 -1.0595 -2.4414
   23CHL1   C26 2875   4.701   5.448   5.404  0.3851  0.2988  0.2674
   23CHL1  H26A 2876   4.644   5.508   5.331 -0.6860  0.0855  0.9159
   23CHL1  H26B 2877   4.758   5.505   5.481  1.0068  1.8318 -1.2732
   23CHL1  H26C 2878   4.770   5.391   5.337 -2.0540  0.2255 -2.3355
   23CHL1   C27 2879   4.501   5.429   5.560 -0.3024 -0.3241  0.1165
   23CHL1  H27A 2880   4.440   5.356   5.618 -1.6955  0.9486  0.2954
   23CHL1  H27B 2881   4.553   5.494   5.632 -0.0926 -0.0847 -0.2500
   23CHL1  H27C 2882   4.435   5.482   5.488 -0.6143 -1.7815 -0.7115
   24CHL1    C3 2883   5.442   1.115   6.841 -0.3100 -0.0462 -0.5920
   24CHL1    H3 2884   5.460   1.221   6.812 -2.8018  0.1722 -1.5832
   24CHL1    O3 2885   5.472   1.094   6.968 -0.1953  0.4520 -1.0353
   24CHL1   H3' 2886   5.467   0.998   6.973  0.6080  0.4477  0.4742
   24CHL1    C4 2887   5.296   1.090   6.812 -0.2319  0.2863 -0.3115
   24CHL1   H4A 2888   5.266   0.987   6.840  0.5671  0.4973  1.4554
   24CHL1   H4B 2889   5.231   1.155   6.874 -0.8654 -1.8389  1.3672
   24CHL1    C5 2890   5.260   1.105   6.664  1.2360 -0.0595 -0.3696
   24CHL1    C6 2891   5.161   1.194   6.629  0.8376  1.0142 -0.4158
   24CHL1    H6 2892   5.103   1.253   6.701 -1.7944 -1.4093 -0.3729
   24CHL1    C7 2893   5.114   1.213   6.487 -0.5043 -0.4099 -0.5279
   24CHL1   H7A 2894   5.003   1.206   6.484 -0.4874 -2.4674  1.2132
   24CHL1   H7B 2895   5.147   1.317   6.467 -3.1369  0.5045 -0.5381
   24CHL1    C8 2896   5.176   1.106   6.385  0.2667 -0.4542 -0.8255
   24CHL1    H8 2897   5.112   1.016   6.402  0.8499 -0.2691  3.3829
   24CHL1   C14 2898   5.165   1.160   6.240 -0.9877  0.5755 -0.9159
   24CHL1   H14 2899   5.223   1.255   6.239  1.5938 -0.8166  1.3933
   24CHL1   C15 2900   5.025   1.186   6.192 -0.5751 -0.1541 -0.2001
   24CHL1  H15A 2901   4.964   1.103   6.233 -0.6159 -0.2482 -0.4483
   24CHL1  H15B 2902   4.985   1.277   6.242  0.8259  0.2826  0.1622
   24CHL1   C16 2903   5.038   1.198   6.040 -0.2198 -0.3245  0.4220
   24CHL1  H16A 2904   4.953   1.146   5.992 -2.0729  2.2492  0.7530
   24CHL1  H16B 2905   5.027   1.303   6.008  1.1529 -0.0240  0.8395
   24CHL1   C17 2906   5.181   1.138   6.001  0.3478  0.2604  0.3290
   24CHL1   H17 2907   5.253   1.220   5.978  2.8737 -1.8695  0.1686
   24CHL1   C13 2908   5.228   1.071   6.135 -0.6208  0.3407 -0.2874
   24CHL1   C18 2909   5.166   0.932   6.133 -0.5190  0.6213 -0.0756
   24CHL1  H18A 2910   5.174   0.883   6.232  1.8405 -1.0852 -1.0361
   24CHL1  H18B 2911   5.057   0.939   6.111 -0.5352  1.3042  0.1864
   24CHL1  H18C 2912   5.212   0.863   6.060  0.6838  1.0310  0.2752
   24CHL1   C12 2913   5.384   1.064   6.168 -0.3116  0.0362  0.2143
   24CHL1  H12A 2914   5.432   1.006   6.086 -0.3721 -3.4454  2.4150
   24CHL1  H12B 2915   5.433   1.164   6.173 -1.3855  0.5070  2.4369
   24CHL1   C11 2916   5.401   1.007   6.309 -0.6151 -0.1607  0.1730
   24CHL1  H11A 2917   5.380   0.898   6.306 -3.4657  0.3169 -0.1616
   24CHL1  H11B 2918   5.506   1.002   6.343 -0.3421 -1.9155 -0.8088
   24CHL1    C9 2919   5.330   1.085   6.418  0.7900 -0.1430  0.4908
   24CHL1    H9 2920   5.368   1.189   6.423 -1.1416  0.6091  0.1076
   24CHL1   C10 2921   5.348   1.032   6.558 -0.2518  0.1109 -0.3647
   24CHL1   C19 2922   5.315   0.880   6.557  0.8955  0.4356 -0.0824
   24CHL1  H19A 2923   5.213   0.854   6.521  1.5547 -2.2908 -0.1877
   24CHL1  H19B 2924   5.396   0.818   6.511  1.0621  1.2709 -0.9466
   24CHL1  H19C 2925   5.316   0.849   6.663 -0.2857 -1.1863 -0.5051
   24CHL1    C1 2926   5.501   1.055   6.608  0.7975  0.1809  0.3215
   24CHL1   H1A 2927   5.553   0.978   6.547  0.9985 -1.2556  2.2190
   24CHL1   H1B 2928   5.532   1.157   6.577 -0.9918  0.5592 -0.2861
   24CHL1    C2 2929   5.534   1.025   6.749  0.2280  0.0029  0.2375
   24CHL1   H2A 2930   5.639   1.051   6.776  0.5404  0.1904 -1.1090
   24CHL1   H2B 2931   5.514   0.918   6.769  2.8927 -0.9342 -1.5894
   24CHL1   C20 2932   5.174   1.055   5.870  0.0138  0.3756  0.6731
   24CHL1   H20 2933   5.126   0.956   5.889  0.3216  0.0910  0.0062
   24CHL1   C21 2934   5.315   1.026   5.816  0.3586 -0.6079 -0.4499
   24CHL1  H21A 2935   5.367   1.124   5.814 -2.3603  0.9827  1.1744
   24CHL1  H21B 2936   5.308   0.996   5.709 -0.7203  1.7980 -1.1172
   24CHL1  H21C 2937   5.370   0.961   5.888  0.6905  1.7774  1.5841
   24CHL1   C22 2938   5.096   1.126   5.759 -0.3210 -0.7461  0.7235
   24CHL1  H22A 2939   5.107   1.074   5.662  1.4663  0.7332  0.0709
   24CHL1  H22B 2940   4.987   1.127   5.780 -0.1317  0.0260  1.7275
   24CHL1   C23 2941   5.135   1.278   5.731 -0.3962 -0.6744  0.1043
   24CHL1  H23A 2942   5.138   1.336   5.826  1.3719 -0.2320 -0.1813
   24CHL1  H23B 2943   5.241   1.280   5.697  0.3845 -1.6861  2.2410
   24CHL1   C24 2944   5.026   1.343   5.642 -0.3140 -0.5152 -0.0186
   24CHL1  H24A 2945   5.033   1.313   5.536  2.2617  3.0070 -1.0402
   24CHL1  H24B 2946   4.925   1.329   5.685 -0.2683  1.1654  0.7333
   24CHL1   C25 2947   5.054   1.496   5.631 -0.2379  1.4655  1.3123
   24CHL1   H25 2948   5.162   1.521   5.635  0.3835 -0.8477  0.6312
   24CHL1   C26 2949   5.015   1.547   5.487  0.0060  0.0410 -0.2386
   24CHL1  H26A 2950   5.035   1.654   5.468 -0.7049  0.0712 -0.8937
   24CHL1  H26B 2951   5.071   1.485   5.414 -0.5600 -0.5420 -0.1949
   24CHL1  H26C 2952   4.906   1.525   5.478  0.1192 -0.5259 -0.2748
   24CHL1   C27 2953   4.975   1.572   5.735  0.4747 -0.8185 -0.0836
   24CHL1  H27A 2954   5.016   1.534   5.831 -1.3932 -4.2687 -0.4588
   24CHL1  H27B 2955   4.989   1.681   5.725 -0.2682 -0.5775  1.2854
   24CHL1  H27C 2956   4.867   1.546   5.737  0.4489 -0.7237 -0.2644
   25CHL1    C3 2957   2.129   2.810   7.002 -1.0267 -0.2783 -0.2013
   25CHL1    H3 2958   2.030   2.802   7.051  0.0240  2.9301  2.8967
   25CHL1    O3 2959   2.218   2.794   7.113  0.6966  0.4264 -0.3778
   25CHL1   H3' 2960   2.307   2.818   7.086 -0.4277  3.0611 -2.1624
   25CHL1    C4 2961   2.157   2.696   6.908 -0.3745 -0.0490  0.1447
   25CHL1   H4A 2962   2.261   2.696   6.870  0.3491  1.8538  1.9169
   25CHL1   H4B 2963   2.139   2.602   6.965  1.7716 -0.9616 -0.5708
   25CHL1    C5 2964   2.078   2.715   6.777  0.5784 -0.0748  0.5438
   25CHL1    C6 2965   1.983   2.624   6.742 -0.0376  0.2614  0.2398
   25CHL1    H6 2966   1.964   2.539   6.810  0.5972 -1.2953 -1.4319
   25CHL1    C7 2967   1.906   2.631   6.621  0.2312 -0.2057  0.0187
   25CHL1   H7A 2968   1.883   2.530   6.581  1.5877 -1.1726  1.5483
   25CHL1   H7B 2969   1.809   2.678   6.649 -0.3156 -1.9806  1.3097
   25CHL1    C8 2970   1.974   2.721   6.518  0.1418 -0.1219 -0.4947
   25CHL1    H8 2971   2.068   2.683   6.474 -0.4730  1.3781 -3.2996
   25CHL1   C14 2972   1.887   2.734   6.396  0.1598 -0.7790 -0.2468
   25CHL1   H14 2973   1.788   2.776   6.424 -0.3006  1.1909 -4.1513
   25CHL1   C15 2974   1.833   2.607   6.329 -0.1181  0.2524 -0.3068
   25CHL1  H15A 2975   1.915   2.532   6.327 -0.9223 -0.6468  0.0095
   25CHL1  H15B 2976   1.749   2.560   6.383 -0.0505  0.2737 -0.1829
   25CHL1   C16 2977   1.792   2.649   6.186  0.0625  0.9173  0.7219
   25CHL1  H16A 2978   1.855   2.601   6.108 -1.9173 -1.3916  0.4325
   25CHL1  H16B 2979   1.687   2.619   6.165  0.9131 -0.3554 -2.1305
   25CHL1   C17 2980   1.825   2.800   6.173 -0.1713  0.5593  0.4425
   25CHL1   H17 2981   1.728   2.843   6.207 -1.4238 -0.1843 -1.9748
   25CHL1   C13 2982   1.934   2.826   6.282  0.1452  0.2748 -0.2615
   25CHL1   C18 2983   2.065   2.775   6.225 -0.4292  0.5795  0.9960
   25CHL1  H18A 2984   2.137   2.775   6.310 -1.9519  0.1203  2.3300
   25CHL1  H18B 2985   2.060   2.675   6.177 -0.0225  0.4625  1.1902
   25CHL1  H18C 2986   2.102   2.848   6.149 -0.3158  2.1945  2.5335
   25CHL1   C12 2987   1.948   2.969   6.353  0.0913  0.7040 -0.4523
   25CHL1  H12A 2988   1.987   3.045   6.281 -1.1208  1.7807 -0.0004
   25CHL1  H12B 2989   1.853   3.009   6.393 -0.0025  0.2869 -0.2568
   25CHL1   C11 2990   2.052   2.965   6.474  0.6693  0.5490  0.2886
   25CHL1  H11A 2991   2.153   2.948   6.432  0.7408 -1.4926  1.1697
   25CHL1  H11B 2992   2.045   3.065   6.523 -1.5225 -0.1521  1.5351
   25CHL1    C9 2993   2.001   2.861   6.579  0.3517  0.3582 -0.4810
   25CHL1    H9 2994   1.905   2.902   6.617 -0.5166 -0.6084 -1.5786
   25CHL1   C10 2995   2.103   2.844   6.697 -0.5051  0.6234 -0.1192
   25CHL1   C19 2996   2.246   2.863   6.648  0.1927  0.1299  0.1112
   25CHL1  H19A 2997   2.267   2.962   6.603  1.0887  0.2275  0.7104
   25CHL1  H19B 2998   2.327   2.854   6.724  1.2973 -0.3331 -1.0777
   25CHL1  H19C 2999   2.280   2.778   6.584 -1.6673 -1.9986  1.7553
   25CHL1    C1 3000   2.077   2.957   6.796  0.5775 -0.0851  0.2397
   25CHL1   H1A 3001   2.098   3.054   6.746 -0.5281 -0.2850 -0.6398
   25CHL1   H1B 3002   1.970   2.951   6.825  0.8507 -2.3237  0.9631
   25CHL1    C2 3003   2.156   2.944   6.931 -0.2181 -0.3803  0.5752
   25CHL1   H2A 3004   2.152   3.017   7.015  2.2492  2.3017 -1.4339
   25CHL1   H2B 3005   2.263   2.954   6.903 -0.1763  2.3734  1.3487
   25CHL1   C20 3006   1.861   2.843   6.031  0.8644  0.8990 -0.4617
   25CHL1   H20 3007   1.955   2.793   5.999 -0.9333 -2.8196 -0.3625
   25CHL1   C21 3008   1.874   3.002   6.032 -0.5993 -0.2159  0.1198
   25CHL1  H21A 3009   1.870   3.033   5.925 -1.6243 -0.8223 -0.0274
   25CHL1  H21B 3010   1.968   3.040   6.077 -0.9954  2.7494 -1.2761
   25CHL1  H21C 3011   1.789   3.048   6.086 -0.6412  0.1998 -0.2935
   25CHL1   C22 3012   1.739   2.810   5.934 -0.1273 -0.7587 -0.1889
   25CHL1  H22A 3013   1.713   2.703   5.935  0.7866 -1.1708 -4.2047
   25CHL1  H22B 3014   1.656   2.875   5.971  1.2440  1.2099 -0.3948
   25CHL1   C23 3015   1.771   2.835   5.787 -0.0933 -0.2268 -0.7917
   25CHL1  H23A 3016   1.826   2.930   5.766 -0.5462  0.2287  0.0213
   25CHL1  H23B 3017   1.852   2.765   5.759 -0.9485 -0.7104 -2.2016
   25CHL1   C24 3018   1.653   2.809   5.696  0.4613 -0.7025 -0.0591
   25CHL1  H24A 3019   1.622   2.704   5.712 -0.7188 -0.2867  0.5261
   25CHL1  H24B 3020   1.569   2.877   5.722 -0.5643 -1.3367 -1.5512
   25CHL1   C25 3021   1.686   2.826   5.548 -0.0864 -1.0492 -0.5411
   25CHL1   H25 3022   1.768   2.755   5.525  1.3178  0.3312  0.0413
   25CHL1   C26 3023   1.563   2.782   5.468 -0.0702 -0.6592 -0.1710
   25CHL1  H26A 3024   1.485   2.859   5.481  1.6022  1.1178 -0.2200
   25CHL1  H26B 3025   1.591   2.773   5.361  0.8797 -0.7886  0.0814
   25CHL1  H26C 3026   1.532   2.683   5.508  0.3416  0.5571  3.5317
   25CHL1   C27 3027   1.731   2.964   5.510 -0.6858  0.7719  0.0754
   25CHL1  H27A 3028   1.824   2.986   5.566  0.4444 -0.5879 -1.1930
   25CHL1  H27B 3029   1.765   2.975   5.405 -1.9377 -1.5586 -0.6475
   25CHL1  H27C 3030   1.652   3.037   5.540 -3.4750 -2.4230  1.1147
   26CHL1    C3 3031   5.811   6.805   6.789 -0.4626 -0.3236 -0.3600
   26CHL1    H3 3032   5.910   6.842   6.821 -1.8139  1.2484  2.4016
   26CHL1    O3 3033   5.754   6.738   6.899 -0.4892 -0.0258  0.3729
   26CHL1   H3' 3034   5.754   6.646   6.873  0.0644  0.5312 -1.7459
   26CHL1    C4 3035   5.716   6.921   6.750 -0.4230  0.3221  0.2394
   26CHL1   H4A 3036   5.613   6.882   6.765 -0.5426  0.2966 -0.6159
   26CHL1   H4B 3037   5.724   7.005   6.823  0.3271  0.6452 -0.1968
   26CHL1    C5 3038   5.728   6.975   6.606 -0.1518 -0.2495  0.6405
   26CHL1    C6 3039   5.753   7.104   6.583  0.8952 -0.1717  0.4391
   26CHL1    H6 3040   5.757   7.184   6.659 -0.1721  0.0769  0.2453
   26CHL1    C7 3041   5.763   7.169   6.445 -0.7314  0.8891 -0.2782
   26CHL1   H7A 3042   5.718   7.270   6.438 -0.0517  1.4433  2.3149
   26CHL1   H7B 3043   5.869   7.187   6.417 -1.0937  2.2716 -0.8203
   26CHL1    C8 3044   5.706   7.080   6.340  0.8451  1.1178  0.3679
   26CHL1    H8 3045   5.596   7.086   6.356  1.1754  0.1293  3.5954
   26CHL1   C14 3046   5.741   7.133   6.199  0.1294 -0.0457  0.5505
   26CHL1   H14 3047   5.852   7.131   6.194  0.1892 -0.7881  1.6881
   26CHL1   C15 3048   5.703   7.284   6.171  0.0267  0.1195  0.0037
   26CHL1  H15A 3049   5.606   7.309   6.219  0.5435  0.3566  0.9522
   26CHL1  H15B 3050   5.781   7.354   6.206  0.9664 -0.6326 -0.5372
   26CHL1   C16 3051   5.698   7.273   6.017  0.0421  0.1997  0.2517
   26CHL1  H16A 3052   5.596   7.301   5.985 -0.1280 -0.0164  0.6095
   26CHL1  H16B 3053   5.776   7.330   5.962  0.0825  0.7647  0.8850
   26CHL1   C17 3054   5.736   7.120   5.970  0.2255 -0.3094  0.5964
   26CHL1   H17 3055   5.847   7.113   5.961  0.1842 -0.2696  0.0358
   26CHL1   C13 3056   5.694   7.035   6.086 -0.0687 -0.1471  0.2795
   26CHL1   C18 3057   5.540   7.018   6.083  0.6124  0.6804 -0.2186
   26CHL1  H18A 3058   5.509   7.012   6.189 -0.2952 -2.0859 -0.5727
   26CHL1  H18B 3059   5.486   7.100   6.030  0.1494 -1.1650 -2.7856
   26CHL1  H18C 3060   5.516   6.926   6.026  1.8690 -1.3917  2.3862
   26CHL1   C12 3061   5.772   6.902   6.106 -0.3404 -0.1084  0.4192
   26CHL1  H12A 3062   5.748   6.830   6.025  0.4910 -0.0297  0.0910
   26CHL1  H12B 3063   5.881   6.921   6.103 -0.4001  0.1275 -1.0966
   26CHL1   C11 3064   5.731   6.838   6.239  0.1463 -0.0444 -0.7937
   26CHL1  H11A 3065   5.623   6.816   6.234 -0.3358  2.3616 -2.4885
   26CHL1  H11B 3066   5.797   6.752   6.265  1.2242  1.1301  0.5539
   26CHL1    C9 3067   5.756   6.936   6.359  0.1832  0.1220  0.5503
   26CHL1    H9 3068   5.866   6.950   6.359  0.1624  0.3412 -0.5523
   26CHL1   C10 3069   5.725   6.873   6.491  0.6201 -0.7916 -0.8467
   26CHL1   C19 3070   5.590   6.798   6.490  0.3408 -0.4620 -0.0890
   26CHL1  H19A 3071   5.515   6.865   6.444 -0.2429 -0.9396  0.1481
   26CHL1  H19B 3072   5.597   6.703   6.434  4.8224  0.7265 -1.9596
   26CHL1  H19C 3073   5.543   6.782   6.590 -0.4704 -1.3064 -0.5968
   26CHL1    C1 3074   5.837   6.773   6.536  0.0771  0.1733  0.2032
   26CHL1   H1A 3075   5.848   6.692   6.460  0.3280  1.0335 -0.7084
   26CHL1   H1B 3076   5.936   6.823   6.524  0.1846 -0.0759  0.0361
   26CHL1    C2 3077   5.828   6.703   6.675 -0.5623  0.7811  0.4321
   26CHL1   H2A 3078   5.911   6.630   6.684 -2.0248 -1.0845 -0.4216
   26CHL1   H2B 3079   5.730   6.650   6.671  0.1486 -0.4953 -0.7643
   26CHL1   C20 3080   5.695   7.086   5.827  0.2571 -0.2865  0.0983
   26CHL1   H20 3081   5.587   7.061   5.821  0.3280 -0.7895  0.9172
   26CHL1   C21 3082   5.785   6.971   5.779 -0.4543  0.5851 -0.5210
   26CHL1  H21A 3083   5.889   7.009   5.784  0.2218 -1.2227  0.2171
   26CHL1  H21B 3084   5.769   6.942   5.673  0.7217 -1.5122 -0.2002
   26CHL1  H21C 3085   5.764   6.880   5.839  1.2020  2.4313  3.2036
   26CHL1   C22 3086   5.719   7.208   5.730  0.6555 -0.1362 -0.8311
   26CHL1  H22A 3087   5.661   7.298   5.761  2.0468  0.4307  0.2793
   26CHL1  H22B 3088   5.822   7.249   5.721  0.6893 -0.1313 -0.4411
   26CHL1   C23 3089   5.661   7.201   5.589  0.2397  0.8129 -0.2432
   26CHL1  H23A 3090   5.712   7.119   5.534  0.3237  0.0802  0.9082
   26CHL1  H23B 3091   5.555   7.172   5.605 -0.1521  2.7913  1.0482
   26CHL1   C24 3092   5.672   7.334   5.521  0.1502  0.4350 -0.3451
   26CHL1  H24A 3093   5.638   7.412   5.592  3.2338  0.0931  1.6647
   26CHL1  H24B 3094   5.780   7.357   5.515  0.0886  1.2587  1.2103
   26CHL1   C25 3095   5.621   7.342   5.379 -0.1485 -0.2364 -0.2469
   26CHL1   H25 3096   5.510   7.348   5.379 -0.1076  0.8187  0.4031
   26CHL1   C26 3097   5.665   7.479   5.328  0.0837 -0.0767 -0.2001
   26CHL1  H26A 3098   5.651   7.466   5.218  2.1071  0.3049 -0.5398
   26CHL1  H26B 3099   5.610   7.564   5.373 -1.4687 -0.4718 -1.2731
   26CHL1  H26C 3100   5.774   7.491   5.344  0.1757 -0.9870 -0.1150
   26CHL1   C27 3101   5.674   7.230   5.295 -0.0850  0.3337 -0.2846
   26CHL1  H27A 3102   5.785   7.238   5.297  0.0252 -0.7166  2.8284
   26CHL1  H27B 3103   5.654   7.130   5.340  2.2127  0.3771  0.9805
   26CHL1  H27C 3104   5.629   7.243   5.194  1.5155 -1.5501 -1.2984
   27CHL1    C3 3105   4.813   4.127   6.859  0.1439 -0.1398  0.9166
   27CHL1    H3 3106   4.743   4.041   6.856  2.2830 -1.9592 -0.5266
   27CHL1    O3 3107   4.823   4.185   6.987 -0.0830  0.0909 -0.3482
   27CHL1   H3' 3108   4.877   4.124   7.039  2.0601  0.9215 -1.4572
   27CHL1    C4 3109   4.953   4.082   6.804  0.6885  0.2869  0.0881
   27CHL1   H4A 3110   5.024   4.167   6.814  0.5898  0.2848  0.8901
   27CHL1   H4B 3111   4.988   3.998   6.867 -1.7669 -0.3183  0.7824
   27CHL1    C5 3112   4.954   4.032   6.658  0.7190  0.1832  0.4704
   27CHL1    C6 3113   4.988   3.906   6.626  0.3193 -0.0439 -0.0684
   27CHL1    H6 3114   5.034   3.837   6.698  1.0949 -1.2761 -1.6606
   27CHL1    C7 3115   4.987   3.860   6.484  0.0971  0.7415 -0.6543
   27CHL1   H7A 3116   5.078   3.804   6.456 -0.3425  0.5103 -1.6916
   27CHL1   H7B 3117   4.896   3.797   6.480 -0.4611  1.4246  0.6453
   27CHL1    C8 3118   4.970   3.975   6.376 -0.1520  0.3461 -0.1337
   27CHL1    H8 3119   5.062   4.036   6.366 -0.2962  0.7479  0.9011
   27CHL1   C14 3120   4.929   3.903   6.247 -0.1264  0.3666 -0.3048
   27CHL1   H14 3121   4.826   3.869   6.271  0.0457 -1.7761 -2.2695
   27CHL1   C15 3122   5.021   3.794   6.187  0.2735 -0.3953  0.4749
   27CHL1  H15A 3123   5.122   3.840   6.178  0.3733 -0.1728  2.4308
   27CHL1  H15B 3124   5.018   3.701   6.247  0.6706  0.2533  1.5129
   27CHL1   C16 3125   4.966   3.779   6.041 -0.3134 -0.3160 -0.3665
   27CHL1  H16A 3126   5.051   3.774   5.970  0.2696  1.4289  0.1623
   27CHL1  H16B 3127   4.913   3.683   6.023 -0.1090 -0.7708  1.3485
   27CHL1   C17 3128   4.873   3.898   6.013  0.6106  0.4070 -0.5468
   27CHL1   H17 3129   4.772   3.859   6.038  0.7370 -1.0987 -2.1296
   27CHL1   C13 3130   4.903   4.002   6.133  0.0557  0.0563  0.5546
   27CHL1   C18 3131   5.038   4.078   6.091 -0.4318  0.1991  0.5592
   27CHL1  H18A 3132   5.091   4.126   6.176 -3.6821  0.9209  2.3467
   27CHL1  H18B 3133   5.116   4.018   6.039  0.4866  3.3535 -2.0893
   27CHL1  H18C 3134   5.029   4.159   6.016  0.3476  0.6191  0.9029
   27CHL1   C12 3135   4.786   4.094   6.181  0.6260  0.3091  0.7312
   27CHL1  H12A 3136   4.761   4.171   6.106  0.1903 -0.7258 -0.2116
   27CHL1  H12B 3137   4.695   4.032   6.197 -0.2266  1.7106  1.5462
   27CHL1   C11 3138   4.805   4.167   6.317 -0.6229 -0.0713  0.3189
   27CHL1  H11A 3139   4.881   4.243   6.292 -0.1936 -0.4607  0.4237
   27CHL1  H11B 3140   4.703   4.205   6.338  0.0354  3.2571 -1.7740
   27CHL1    C9 3141   4.852   4.067   6.421 -0.2183 -0.0150  0.0635
   27CHL1    H9 3142   4.773   3.990   6.429  0.9211 -1.5280 -2.3255
   27CHL1   C10 3143   4.887   4.134   6.555 -0.3614  0.1185  0.3126
   27CHL1   C19 3144   4.989   4.240   6.531 -0.5150  0.2955 -0.2122
   27CHL1  H19A 3145   5.030   4.281   6.626 -0.9897 -1.0269  0.5864
   27CHL1  H19B 3146   5.075   4.199   6.473 -2.0834 -0.4071 -2.1252
   27CHL1  H19C 3147   4.946   4.331   6.484  1.0216  0.9590 -0.4150
   27CHL1    C1 3148   4.757   4.179   6.616 -0.2304  0.0659 -0.4133
   27CHL1   H1A 3149   4.713   4.257   6.551 -0.3557  1.0512  0.8151
   27CHL1   H1B 3150   4.690   4.090   6.611  1.3108 -1.0487 -3.1849
   27CHL1    C2 3151   4.758   4.230   6.764 -0.2012  0.2489  0.3675
   27CHL1   H2A 3152   4.655   4.264   6.791 -0.5912  0.3282 -1.1213
   27CHL1   H2B 3153   4.824   4.319   6.768 -1.3554  1.2284 -0.9266
   27CHL1   C20 3154   4.863   3.943   5.864 -0.4886 -0.3883 -0.1768
   27CHL1   H20 3155   4.963   3.970   5.823 -1.9940 -0.4736 -4.3949
   27CHL1   C21 3156   4.773   4.065   5.854 -0.1066  0.1638  0.4953
   27CHL1  H21A 3157   4.805   4.149   5.918 -0.1778 -0.6768  1.6650
   27CHL1  H21B 3158   4.673   4.040   5.897 -1.3462  3.3432 -0.2663
   27CHL1  H21C 3159   4.751   4.111   5.755 -2.3677  1.3658  1.4895
   27CHL1   C22 3160   4.818   3.831   5.769  0.3808 -0.6292  0.2698
   27CHL1  H22A 3161   4.893   3.750   5.777  1.4572  0.3924  0.7028
   27CHL1  H22B 3162   4.718   3.795   5.803  0.1643 -1.4501 -1.1663
   27CHL1   C23 3163   4.826   3.876   5.620  1.2073 -0.4077 -0.7735
   27CHL1  H23A 3164   4.759   3.962   5.598  2.5903  0.2384 -2.7404
   27CHL1  H23B 3165   4.923   3.918   5.586  1.7046 -0.9911 -0.1084
   27CHL1   C24 3166   4.773   3.769   5.527 -0.3816 -0.1117 -0.3111
   27CHL1  H24A 3167   4.836   3.678   5.534  0.7793  0.4920 -1.9985
   27CHL1  H24B 3168   4.667   3.746   5.550 -1.3973  2.1223 -2.2547
   27CHL1   C25 3169   4.780   3.808   5.377  0.6335 -0.1652  0.6063
   27CHL1   H25 3170   4.888   3.834   5.370  0.4422  1.0132  1.6937
   27CHL1   C26 3171   4.751   3.693   5.284  0.1312 -0.3775 -0.0099
   27CHL1  H26A 3172   4.660   3.641   5.320 -1.3705  1.4184 -1.0957
   27CHL1  H26B 3173   4.733   3.739   5.185  0.3162  0.5468  0.3777
   27CHL1  H26C 3174   4.836   3.621   5.278  2.5002  2.2363  0.3714
   27CHL1   C27 3175   4.685   3.926   5.337 -0.4479  0.1702  0.5322
   27CHL1  H27A 3176   4.577   3.901   5.333 -1.0010  2.0521  2.2528
   27CHL1  H27B 3177   4.706   3.951   5.231 -1.5859 -0.1417  0.2255
   27CHL1  H27C 3178   4.707   4.017   5.395  0.6060  1.4633 -1.7672
   28CHL1    C3 3179   5.440   0.832   3.546 -0.5063 -0.0118  0.3423
   28CHL1    H3 3180   5.530   0.772   3.519 -0.2243 -0.0179  1.2479
   28CHL1    O3 3181   5.382   0.863   3.425  0.1759 -0.2200  0.6169
   28CHL1   H3' 3182   5.447   0.912   3.375 -0.3723  0.0538  0.1525
   28CHL1    C4 3183   5.343   0.753   3.635 -0.8402  0.4704 -0.1082
   28CHL1   H4A 3184   5.262   0.829   3.646 -1.9813 -0.6928 -0.2789
   28CHL1   H4B 3185   5.311   0.669   3.570 -2.0256  0.4834  0.4209
   28CHL1    C5 3186   5.398   0.704   3.768  0.4176 -0.6348  0.4482
   28CHL1    C6 3187   5.400   0.580   3.813  0.3828 -0.1947 -0.6405
   28CHL1    H6 3188   5.351   0.503   3.751  1.6915 -2.6041  1.1508
   28CHL1    C7 3189   5.467   0.529   3.935  0.3400  0.4792  0.6023
   28CHL1   H7A 3190   5.395   0.468   3.993  1.1444  1.8841  3.2290
   28CHL1   H7B 3191   5.544   0.462   3.891  1.1392  2.7997 -1.8030
   28CHL1    C8 3192   5.522   0.630   4.032 -0.9604 -0.0538  0.6502
   28CHL1    H8 3193   5.440   0.657   4.102 -1.0483 -1.2623  1.0549
   28CHL1   C14 3194   5.637   0.576   4.119 -0.2776  0.3961  0.0198
   28CHL1   H14 3195   5.726   0.558   4.054 -0.2439  0.5823  0.0153
   28CHL1   C15 3196   5.607   0.438   4.187  0.6961 -0.2363  0.1356
   28CHL1  H15A 3197   5.502   0.451   4.220  1.6775  0.5680  3.2366
   28CHL1  H15B 3198   5.612   0.360   4.108 -1.0009  0.4624 -0.7218
   28CHL1   C16 3199   5.705   0.438   4.305  0.8320 -0.1093  0.5558
   28CHL1  H16A 3200   5.649   0.424   4.400  1.4925  2.6703  1.4408
   28CHL1  H16B 3201   5.782   0.358   4.296 -0.0771 -0.8002 -1.7433
   28CHL1   C17 3202   5.779   0.576   4.307  0.2223  0.4118  0.4778
   28CHL1   H17 3203   5.870   0.567   4.244 -0.0592  1.8538 -0.1888
   28CHL1   C13 3204   5.679   0.671   4.231 -1.0595  0.2055  0.0813
   28CHL1   C18 3205   5.566   0.707   4.330 -0.1808 -0.2136  0.2246
   28CHL1  H18A 3206   5.597   0.760   4.422  1.8707  0.1987 -0.6346
   28CHL1  H18B 3207   5.492   0.778   4.288 -1.2851  0.0442  2.4916
   28CHL1  H18C 3208   5.516   0.614   4.363 -1.0751 -0.6099 -2.0124
   28CHL1   C12 3209   5.736   0.798   4.154 -0.7980 -0.1440  0.3018
   28CHL1  H12A 3210   5.773   0.865   4.234  0.7279 -0.8545  0.2276
   28CHL1  H12B 3211   5.828   0.764   4.101 -0.6452  0.7353 -0.0067
   28CHL1   C11 3212   5.632   0.859   4.055  0.3736 -0.0868 -0.2757
   28CHL1  H11A 3213   5.555   0.908   4.118 -0.2511  0.4743 -1.4517
   28CHL1  H11B 3214   5.672   0.946   4.000  2.4074 -0.1150  1.0518
   28CHL1    C9 3215   5.567   0.755   3.958 -0.1943 -0.6106 -0.5835
   28CHL1    H9 3216   5.655   0.715   3.903  0.5284  0.4021 -0.1861
   28CHL1   C10 3217   5.478   0.813   3.849 -0.3151  0.6001  0.9732
   28CHL1   C19 3218   5.382   0.909   3.920 -0.2643 -0.0310  0.3790
   28CHL1  H19A 3219   5.434   1.000   3.957 -1.5686  1.1756 -0.6255
   28CHL1  H19B 3220   5.314   0.962   3.849  0.1662  0.6284  0.4462
   28CHL1  H19C 3221   5.329   0.867   4.008  0.6135  0.5157  1.1890
   28CHL1    C1 3222   5.567   0.893   3.746  0.3936  0.1399 -0.3418
   28CHL1   H1A 3223   5.599   0.984   3.801  1.4564 -1.3050  1.5937
   28CHL1   H1B 3224   5.662   0.837   3.729  0.8635  0.8594 -0.1283
   28CHL1    C2 3225   5.503   0.947   3.625  0.1371  0.2427 -0.4325
   28CHL1   H2A 3226   5.573   1.003   3.560 -0.4765 -0.8785 -2.1211
   28CHL1   H2B 3227   5.419   1.017   3.644  0.2778  0.3882 -0.3533
   28CHL1   C20 3228   5.823   0.614   4.451  0.0638  0.6409  0.5250
   28CHL1   H20 3229   5.735   0.608   4.518 -1.8856  4.0533 -1.4647
   28CHL1   C21 3230   5.882   0.754   4.450 -0.2299  0.2453  0.2321
   28CHL1  H21A 3231   5.796   0.821   4.431 -0.8379  0.0023  1.9411
   28CHL1  H21B 3232   5.948   0.768   4.362  0.4044  1.0371  0.8185
   28CHL1  H21C 3233   5.931   0.788   4.544  0.3086 -0.3104  0.1598
   28CHL1   C22 3234   5.917   0.502   4.503  0.5551  0.2907 -0.1460
   28CHL1  H22A 3235   5.867   0.403   4.519  0.8310  0.0198 -0.9221
   28CHL1  H22B 3236   6.012   0.496   4.447  0.6332  0.1200  0.0047
   28CHL1   C23 3237   5.954   0.523   4.651 -0.4619  0.6685 -0.3184
   28CHL1  H23A 3238   6.021   0.612   4.652  1.8400 -0.9637  0.0136
   28CHL1  H23B 3239   5.860   0.550   4.703 -0.1834  0.2515  0.4245
   28CHL1   C24 3240   6.033   0.404   4.707  1.1864 -0.0669  0.0669
   28CHL1  H24A 3241   5.959   0.321   4.717  0.3303  0.7574  0.7300
   28CHL1  H24B 3242   6.106   0.380   4.627 -0.6755 -1.8393 -1.2375
   28CHL1   C25 3243   6.096   0.427   4.844 -0.0018  0.2935 -0.1390
   28CHL1   H25 3244   6.188   0.490   4.842  0.9496 -1.0742 -0.3081
   28CHL1   C26 3245   6.000   0.495   4.948  0.3560 -0.7371  0.3335
   28CHL1  H26A 3246   5.905   0.440   4.963  0.0794 -0.5743 -0.7630
   28CHL1  H26B 3247   6.060   0.509   5.041  0.1635 -2.3865  0.7410
   28CHL1  H26C 3248   5.990   0.597   4.906  0.8367 -1.2234 -1.0248
   28CHL1   C27 3249   6.150   0.296   4.916  0.5024 -0.1336  0.4439
   28CHL1  H27A 3250   6.082   0.209   4.914 -1.0906  1.0687  0.3996
   28CHL1  H27B 3251   6.242   0.275   4.857  0.3551  0.9068 -0.1877
   28CHL1  H27C 3252   6.186   0.316   5.019 -2.6793 -0.4568  1.7128
   29CHL1    C3 3253   3.369   5.586   6.434  1.0922 -0.8061 -0.4329
   29CHL1    H3 3254   3.283   5.517   6.442 -0.4716  1.1661  0.9153
   29CHL1    O3 3255   3.427   5.591   6.561  0.3112  0.1204 -0.4283
   29CHL1   H3' 3256   3.508   5.642   6.547  0.5901 -0.1634  0.1179
   29CHL1    C4 3257   3.469   5.539   6.338 -0.2999  0.1510 -0.1522
   29CHL1   H4A 3258   3.563   5.597   6.343  0.7018 -1.3903 -0.5920
   29CHL1   H4B 3259   3.504   5.436   6.361  0.1847  0.2845 -0.2794
   29CHL1    C5 3260   3.422   5.543   6.195 -0.4785 -0.3810 -0.1142
   29CHL1    C6 3261   3.419   5.431   6.122 -0.5024 -0.1673  0.1678
   29CHL1    H6 3262   3.457   5.337   6.165  0.7597  1.1020  1.9984
   29CHL1    C7 3263   3.352   5.423   5.990 -0.4905 -0.1940  0.5261
   29CHL1   H7A 3264   3.400   5.351   5.920 -1.1473 -1.1321  1.0222
   29CHL1   H7B 3265   3.255   5.381   6.022 -1.1933 -0.3058 -1.5891
   29CHL1    C8 3266   3.337   5.567   5.928 -0.5528  0.2909 -0.7982
   29CHL1    H8 3267   3.440   5.597   5.898 -0.5593 -2.3453 -4.0408
   29CHL1   C14 3268   3.261   5.569   5.794 -0.4030  0.0951 -0.9796
   29CHL1   H14 3269   3.164   5.524   5.826  0.7491 -0.6654  1.7494
   29CHL1   C15 3270   3.307   5.471   5.683  0.3752 -0.0579  0.4031
   29CHL1  H15A 3271   3.416   5.462   5.665  0.3175 -0.8076  0.3819
   29CHL1  H15B 3272   3.265   5.372   5.714  0.4096  0.5068  2.4187
   29CHL1   C16 3273   3.230   5.512   5.560 -0.3092  0.1720 -0.5376
   29CHL1  H16A 3274   3.298   5.530   5.474  2.6083  1.4031  1.8476
   29CHL1  H16B 3275   3.154   5.442   5.519  1.0185 -1.8613  0.3080
   29CHL1   C17 3276   3.165   5.650   5.604 -0.7156 -0.4870 -0.9808
   29CHL1   H17 3277   3.061   5.624   5.635 -1.4968  3.1606  0.0255
   29CHL1   C13 3278   3.231   5.700   5.733 -0.1515 -0.3493  0.0664
   29CHL1   C18 3279   3.370   5.766   5.695  0.5536  0.1419  0.0600
   29CHL1  H18A 3280   3.430   5.695   5.634  1.2014 -0.6780  1.5990
   29CHL1  H18B 3281   3.354   5.860   5.637 -0.9305 -1.0603 -1.5691
   29CHL1  H18C 3282   3.431   5.797   5.783  0.3355 -0.6265  0.4808
   29CHL1   C12 3283   3.145   5.785   5.835  0.0431  0.2774 -0.5698
   29CHL1  H12A 3284   3.137   5.888   5.792  0.1972  0.9136  0.8584
   29CHL1  H12B 3285   3.041   5.746   5.840 -0.1329  0.8686  0.7273
   29CHL1   C11 3286   3.213   5.796   5.968  0.1154  0.0173 -0.3583
   29CHL1  H11A 3287   3.299   5.863   5.948 -0.1342  0.5238  0.2584
   29CHL1  H11B 3288   3.153   5.832   6.054 -0.7958 -0.6763 -0.6865
   29CHL1    C9 3289   3.272   5.660   6.030  0.1082 -0.7112  0.3693
   29CHL1    H9 3290   3.182   5.597   6.045 -1.3603  0.2874 -3.1646
   29CHL1   C10 3291   3.359   5.674   6.155  0.4750  0.2586  0.2705
   29CHL1   C19 3292   3.475   5.773   6.136  0.0865  0.2481 -0.5910
   29CHL1  H19A 3293   3.550   5.739   6.061 -0.6565 -2.1456 -0.3412
   29CHL1  H19B 3294   3.426   5.868   6.107  0.9840  0.9147  0.0197
   29CHL1  H19C 3295   3.526   5.789   6.233  0.9053 -1.3255 -0.7289
   29CHL1    C1 3296   3.259   5.731   6.267 -0.2994 -0.2326  0.0498
   29CHL1   H1A 3297   3.224   5.836   6.251 -0.4700 -0.3323 -0.2353
   29CHL1   H1B 3298   3.173   5.661   6.265 -0.4821 -0.0032 -0.2155
   29CHL1    C2 3299   3.316   5.727   6.401  0.5309 -0.5852 -1.0347
   29CHL1   H2A 3300   3.240   5.747   6.479  1.1810 -1.2539 -0.2118
   29CHL1   H2B 3301   3.399   5.799   6.413  1.4585 -1.7141 -0.4785
   29CHL1   C20 3302   3.158   5.750   5.490 -1.1048  0.1818 -0.0155
   29CHL1   H20 3303   3.261   5.786   5.465  0.4813 -0.9612  4.0987
   29CHL1   C21 3304   3.071   5.877   5.523  0.1271 -0.2754 -0.2835
   29CHL1  H21A 3305   3.064   5.946   5.436 -1.6947 -0.2791 -0.1770
   29CHL1  H21B 3306   3.125   5.937   5.600  1.5381 -1.7018 -0.1104
   29CHL1  H21C 3307   2.968   5.849   5.554 -0.4163  0.7829 -1.0725
   29CHL1   C22 3308   3.096   5.675   5.359 -0.2817 -0.8847  0.6612
   29CHL1  H22A 3309   3.093   5.749   5.276  0.0900 -1.8512 -0.2477
   29CHL1  H22B 3310   3.168   5.601   5.317  1.4370  0.6214  0.8012
   29CHL1   C23 3311   2.949   5.620   5.366  0.1111  0.1979  0.6482
   29CHL1  H23A 3312   2.958   5.514   5.398  0.7959  0.1199  0.2059
   29CHL1  H23B 3313   2.883   5.673   5.439 -1.1891 -1.9724  1.1334
   29CHL1   C24 3314   2.877   5.623   5.225 -0.5036  0.2482 -0.1870
   29CHL1  H24A 3315   2.873   5.727   5.186 -0.5349 -0.0478 -0.9892
   29CHL1  H24B 3316   2.954   5.577   5.159  1.6202  2.3245  0.7137
   29CHL1   C25 3317   2.749   5.546   5.207  0.1180 -0.1296 -0.6013
   29CHL1   H25 3318   2.788   5.442   5.203  1.7369  0.4236  0.0433
   29CHL1   C26 3319   2.650   5.545   5.332  0.7544  0.5859 -0.9699
   29CHL1  H26A 3320   2.610   5.646   5.355  1.1306  0.3805  0.7165
   29CHL1  H26B 3321   2.571   5.467   5.323  3.2147 -2.5239  2.0543
   29CHL1  H26C 3322   2.704   5.509   5.422 -1.7198 -2.4521 -0.5327
   29CHL1   C27 3323   2.682   5.578   5.081  0.4884  0.2101  0.8165
   29CHL1  H27A 3324   2.604   5.504   5.053  0.1080  0.3592  1.4597
   29CHL1  H27B 3325   2.643   5.682   5.079 -1.0803 -0.3568  0.2745
   29CHL1  H27C 3326   2.755   5.576   4.998  0.5464 -0.3052  0.8765
   30CHL1    C3 3327   4.653   6.609   6.345 -0.6715 -0.6479  0.8342
   30CHL1    H3 3328   4.615   6.709   6.316  1.1303  0.6379  2.6725
   30CHL1    O3 3329   4.658   6.594   6.483  0.5251 -0.0942  0.7096
   30CHL1   H3' 3330   4.587   6.656   6.505 -0.1817  1.0090 -3.6593
   30CHL1    C4 3331   4.557   6.507   6.290  0.0179  0.4785  0.1859
   30CHL1   H4A 3332   4.590   6.406   6.323  1.3229  0.0982 -2.0970
   30CHL1   H4B 3333   4.453   6.517   6.331 -1.4193 -0.7711 -2.8816
   30CHL1    C5 3334   4.553   6.517   6.141 -0.0424 -0.1460  0.7258
   30CHL1    C6 3335   4.444   6.549   6.071  0.3676  0.6493 -0.3675
   30CHL1    H6 3336   4.347   6.550   6.123  0.7535 -1.6647  0.5176
   30CHL1    C7 3337   4.431   6.558   5.923  0.1925  0.6819 -0.0952
   30CHL1   H7A 3338   4.330   6.526   5.891  0.0894  0.0909  0.7907
   30CHL1   H7B 3339   4.436   6.661   5.883  1.6015  0.5812 -0.2424
   30CHL1    C8 3340   4.543   6.475   5.860  0.3690 -0.5395  0.5481
   30CHL1    H8 3341   4.536   6.367   5.886 -1.7513 -0.3842  0.7946
   30CHL1   C14 3342   4.544   6.504   5.710  0.4477  0.6264  0.4531
   30CHL1   H14 3343   4.575   6.609   5.688 -0.1105  0.3433 -2.0707
   30CHL1   C15 3344   4.411   6.488   5.644  0.2501 -0.0162 -0.1436
   30CHL1  H15A 3345   4.355   6.402   5.686 -1.4473  0.1849 -1.9034
   30CHL1  H15B 3346   4.344   6.575   5.659  1.7397  1.0879  0.3089
   30CHL1   C16 3347   4.450   6.475   5.493  0.0356  0.1064  0.5717
   30CHL1  H16A 3348   4.405   6.384   5.448 -0.0629  0.5508 -0.2500
   30CHL1  H16B 3349   4.413   6.563   5.436  1.2724  0.1370 -0.1981
   30CHL1   C17 3350   4.609   6.473   5.493 -0.0201 -0.4631  0.2428
   30CHL1   H17 3351   4.650   6.570   5.457 -0.0541 -0.9433 -1.1548
   30CHL1   C13 3352   4.649   6.428   5.631  0.4707 -0.2814 -0.1646
   30CHL1   C18 3353   4.622   6.274   5.640  0.1779 -0.5045  0.1299
   30CHL1  H18A 3354   4.636   6.234   5.743  2.4274 -1.3781 -0.4576
   30CHL1  H18B 3355   4.521   6.246   5.605 -0.2582  1.1730 -0.0088
   30CHL1  H18C 3356   4.684   6.206   5.578 -1.8460  0.7111 -3.5109
   30CHL1   C12 3357   4.785   6.474   5.686 -0.0336  0.1002 -0.2023
   30CHL1  H12A 3358   4.862   6.404   5.647  0.2142  0.9956 -1.3545
   30CHL1  H12B 3359   4.804   6.578   5.654 -0.2301  0.3637  0.5044
   30CHL1   C11 3360   4.799   6.458   5.840 -0.3454 -1.0111  0.5034
   30CHL1  H11A 3361   4.801   6.348   5.847 -0.3091 -1.0798 -0.4898
   30CHL1  H11B 3362   4.893   6.508   5.873 -0.2727 -0.9826  0.2586
   30CHL1    C9 3363   4.676   6.519   5.919 -0.0697 -0.4394  0.0020
   30CHL1    H9 3364   4.680   6.629   5.900 -0.9883 -0.0277  1.8622
   30CHL1   C10 3365   4.685   6.490   6.072 -0.4606  0.2178  0.2032
   30CHL1   C19 3366   4.726   6.340   6.095 -0.4234 -0.9248  0.5881
   30CHL1  H19A 3367   4.664   6.276   6.029 -0.6127  0.5669 -0.7439
   30CHL1  H19B 3368   4.829   6.320   6.059  0.0090 -1.6728  2.1618
   30CHL1  H19C 3369   4.717   6.307   6.201 -1.7842 -1.1562  0.4131
   30CHL1    C1 3370   4.798   6.575   6.138  0.2977  0.4604 -0.8210
   30CHL1   H1A 3371   4.895   6.524   6.116 -0.2300 -0.9063 -0.0875
   30CHL1   H1B 3372   4.798   6.683   6.112  0.2157  0.3297 -1.3712
   30CHL1    C2 3373   4.791   6.575   6.295  0.1203  0.0112  1.0039
   30CHL1   H2A 3374   4.856   6.646   6.350 -0.2991  0.5367  0.8269
   30CHL1   H2B 3375   4.814   6.471   6.328 -1.1209 -0.6116 -0.0272
   30CHL1   C20 3376   4.662   6.386   5.379 -0.5192 -0.1687 -0.7322
   30CHL1   H20 3377   4.613   6.286   5.377  1.9781 -1.5122 -3.4518
   30CHL1   C21 3378   4.810   6.374   5.391 -0.6227 -0.1176  0.5123
   30CHL1  H21A 3379   4.861   6.470   5.414  0.4123  0.0608 -2.1860
   30CHL1  H21B 3380   4.846   6.330   5.296  0.0397  1.2822  0.0952
   30CHL1  H21C 3381   4.842   6.301   5.469 -1.6926 -0.5904  0.5296
   30CHL1   C22 3382   4.625   6.442   5.236 -1.1275  0.3867  0.1022
   30CHL1  H22A 3383   4.514   6.453   5.236 -1.3903 -1.4543 -2.4102
   30CHL1  H22B 3384   4.668   6.540   5.210 -0.9408  0.1412 -0.5188
   30CHL1   C23 3385   4.642   6.338   5.125 -0.0733 -0.0829 -1.1519
   30CHL1  H23A 3386   4.748   6.312   5.109  0.4399  2.0303 -1.4982
   30CHL1  H23B 3387   4.582   6.245   5.138  1.8489 -1.4455 -1.7179
   30CHL1   C24 3388   4.595   6.387   4.988  0.1531  0.0563 -0.0425
   30CHL1  H24A 3389   4.487   6.412   4.993 -0.5328 -2.5038 -0.4599
   30CHL1  H24B 3390   4.654   6.474   4.952 -0.3804  0.1285 -0.7656
   30CHL1   C25 3391   4.608   6.281   4.873  0.3046 -0.4468  0.5678
   30CHL1   H25 3392   4.715   6.259   4.858 -0.1671 -1.5062 -1.5342
   30CHL1   C26 3393   4.538   6.151   4.909  0.2795  0.4107  0.7288
   30CHL1  H26A 3394   4.580   6.101   4.999  1.8632 -0.4911 -0.4650
   30CHL1  H26B 3395   4.428   6.166   4.905  0.3403  0.6505 -1.8813
   30CHL1  H26C 3396   4.559   6.090   4.819 -2.6992  1.2474 -0.6573
   30CHL1   C27 3397   4.554   6.332   4.746 -0.0940  0.1249  0.6112
   30CHL1  H27A 3398   4.559   6.264   4.659 -0.9542 -1.9296  2.0750
   30CHL1  H27B 3399   4.453   6.376   4.754 -1.3377 -2.0218 -1.8611
   30CHL1  H27C 3400   4.620   6.419   4.725 -1.5378  1.2457  0.5460
   31CHL1    C3 3401   4.980   5.561   6.758  0.2450 -0.1828 -0.5685
   31CHL1    H3 3402   4.975   5.451   6.748  1.7575 -0.2986 -0.3738
   31CHL1    O3 3403   4.974   5.589   6.895 -0.6478 -0.2228 -0.4830
   31CHL1   H3' 3404   5.040   5.537   6.942 -1.1165 -0.3458  0.0435
   31CHL1    C4 3405   5.117   5.601   6.698 -0.5787 -1.5682 -0.3412
   31CHL1   H4A 3406   5.152   5.702   6.730  2.6812 -2.8353  0.4911
   31CHL1   H4B 3407   5.193   5.543   6.755  2.6051 -0.1713 -2.8538
   31CHL1    C5 3408   5.120   5.576   6.549 -0.5572 -0.0387  0.6993
   31CHL1    C6 3409   5.210   5.491   6.494  0.3671 -0.5750  0.1730
   31CHL1    H6 3410   5.294   5.464   6.559 -0.1651 -0.0898  1.0777
   31CHL1    C7 3411   5.219   5.467   6.346 -0.3105  0.5447  0.4393
   31CHL1   H7A 3412   5.326   5.461   6.315 -0.4576 -2.3583  0.2817
   31CHL1   H7B 3413   5.192   5.360   6.337 -3.2699  1.0922  1.6841
   31CHL1    C8 3414   5.134   5.564   6.262 -0.1783  0.1146 -0.2707
   31CHL1    H8 3415   5.190   5.658   6.243 -2.2902  1.6472  0.6946
   31CHL1   C14 3416   5.114   5.513   6.124 -0.2081 -0.5622  1.0905
   31CHL1   H14 3417   5.062   5.415   6.131  1.4339 -1.8675 -2.4288
   31CHL1   C15 3418   5.243   5.491   6.043  0.5635 -0.2918  0.3359
   31CHL1  H15A 3419   5.302   5.583   6.058  1.9168 -0.9512 -0.7654
   31CHL1  H15B 3420   5.296   5.396   6.064  0.0978 -0.6534 -0.0877
   31CHL1   C16 3421   5.199   5.492   5.888 -0.8132 -0.3158 -0.5981
   31CHL1  H16A 3422   5.262   5.558   5.825  0.4253 -0.0057  0.8971
   31CHL1  H16B 3423   5.205   5.391   5.842  0.2620 -0.4653 -0.1537
   31CHL1   C17 3424   5.045   5.525   5.898 -0.2474 -0.3413 -0.3596
   31CHL1   H17 3425   4.995   5.429   5.920  2.0058 -1.4084  0.4758
   31CHL1   C13 3426   5.025   5.599   6.030  0.1768 -0.0682 -0.5332
   31CHL1   C18 3427   5.084   5.746   6.015 -0.6787  0.8485 -0.3138
   31CHL1  H18A 3428   5.019   5.815   5.958  1.2330  1.8663 -1.3641
   31CHL1  H18B 3429   5.087   5.789   6.117  0.0622  0.8763 -0.3422
   31CHL1  H18C 3430   5.188   5.740   5.975 -0.9257 -1.8935 -0.7146
   31CHL1   C12 3431   4.889   5.605   6.088  0.0352 -0.1142  0.0152
   31CHL1  H12A 3432   4.821   5.674   6.033  0.7286  0.9771  0.4957
   31CHL1  H12B 3433   4.836   5.507   6.090 -1.3420  0.5895 -0.4432
   31CHL1   C11 3434   4.889   5.663   6.232  0.4674 -0.0052 -0.0304
   31CHL1  H11A 3435   4.896   5.773   6.223 -0.8667 -0.0022 -1.5474
   31CHL1  H11B 3436   4.791   5.636   6.277  1.8088 -3.8384  1.0026
   31CHL1    C9 3437   4.992   5.587   6.322  0.2021  0.0016 -0.1245
   31CHL1    H9 3438   4.953   5.485   6.343  0.4566  0.0860  0.8314
   31CHL1   C10 3439   5.002   5.643   6.471  0.0501  0.6364 -0.5612
   31CHL1   C19 3440   5.027   5.792   6.453  0.3092  0.3790  0.2107
   31CHL1  H19A 3441   5.046   5.841   6.551  1.4819  0.7245 -0.1714
   31CHL1  H19B 3442   5.117   5.815   6.392  0.1833  0.3776  0.0234
   31CHL1  H19C 3443   4.938   5.851   6.420 -1.0394 -0.5447  2.0265
   31CHL1    C1 3444   4.869   5.608   6.547 -0.3712 -0.2706 -0.3896
   31CHL1   H1A 3445   4.784   5.654   6.491  1.0455  1.4874 -1.1900
   31CHL1   H1B 3446   4.858   5.498   6.540  0.4403 -0.3486 -0.4361
   31CHL1    C2 3447   4.853   5.632   6.698 -0.4030  0.5589 -0.0216
   31CHL1   H2A 3448   4.760   5.583   6.735  0.4716  0.3413  2.0238
   31CHL1   H2B 3449   4.851   5.738   6.732 -2.2281  0.4478  0.3255
   31CHL1   C20 3450   4.990   5.574   5.764 -0.1367 -0.2166  0.4614
   31CHL1   H20 3451   5.018   5.678   5.737 -3.1692 -0.0899 -2.8693
   31CHL1   C21 3452   4.841   5.579   5.760 -0.1003  0.0019  0.2976
   31CHL1  H21A 3453   4.812   5.646   5.844  2.4669  0.1688  1.1257
   31CHL1  H21B 3454   4.799   5.477   5.777  1.2685 -0.8399 -1.1260
   31CHL1  H21C 3455   4.800   5.624   5.667  0.6624  1.7219  0.7516
   31CHL1   C22 3456   5.036   5.485   5.641 -0.1805 -0.5473  0.4619
   31CHL1  H22A 3457   4.979   5.528   5.556 -1.5547  0.5564  1.8750
   31CHL1  H22B 3458   5.146   5.495   5.627 -0.2980 -1.0714 -0.9886
   31CHL1   C23 3459   5.009   5.335   5.643 -0.4831 -0.5066 -0.5150
   31CHL1  H23A 3460   5.033   5.288   5.741 -0.7248 -0.3782 -0.3944
   31CHL1  H23B 3461   4.899   5.330   5.631 -0.4696  0.4961 -1.1868
   31CHL1   C24 3462   5.093   5.264   5.542 -0.3418  0.8195 -0.3973
   31CHL1  H24A 3463   5.088   5.308   5.440  3.0869 -0.8855 -1.4505
   31CHL1  H24B 3464   5.191   5.265   5.595 -1.3019 -0.6133  1.5226
   31CHL1   C25 3465   5.047   5.121   5.523 -0.3957 -0.7327 -0.0207
   31CHL1   H25 3466   5.036   5.076   5.624 -0.7864 -0.9366 -0.1540
   31CHL1   C26 3467   4.910   5.099   5.446  0.0668  0.2667  0.1541
   31CHL1  H26A 3468   4.865   5.000   5.465  1.7601 -0.6883 -0.5552
   31CHL1  H26B 3469   4.833   5.176   5.467  0.7483  1.7634 -2.3034
   31CHL1  H26C 3470   4.934   5.109   5.338  0.1436 -1.0387  0.0369
   31CHL1   C27 3471   5.169   5.041   5.464 -0.1087 -0.5542  0.3121
   31CHL1  H27A 3472   5.146   4.933   5.450 -0.6256 -0.4577  0.3974
   31CHL1  H27B 3473   5.195   5.078   5.362 -0.9223  0.2299  0.3770
   31CHL1  H27C 3474   5.258   5.060   5.528 -0.3488 -0.1334  0.5260
   32CHL1    C3 3475   3.876   3.210   6.635  0.0524  0.3647  0.3329
   32CHL1    H3 3476   3.785   3.154   6.606  0.1830  0.2203  0.2011
   32CHL1    O3 3477   3.890   3.218   6.777 -0.1699 -0.3840 -0.2640
   32CHL1   H3' 3478   3.938   3.298   6.796 -0.4142 -0.0949 -0.8552
   32CHL1    C4 3479   4.001   3.147   6.582  0.4001 -0.5587 -0.0233
   32CHL1   H4A 3480   4.086   3.212   6.609 -1.5494  1.9504  0.4088
   32CHL1   H4B 3481   4.016   3.051   6.637  2.2489 -0.3535 -0.1074
   32CHL1    C5 3482   4.007   3.134   6.432  0.2953  0.4261 -0.4911
   32CHL1    C6 3483   4.008   3.014   6.376 -0.1320  1.0132 -0.3516
   32CHL1    H6 3484   3.999   2.928   6.445 -0.3477  1.0120 -0.3806
   32CHL1    C7 3485   4.012   2.998   6.221  0.1895 -0.0613 -0.6936
   32CHL1   H7A 3486   4.087   2.919   6.199  0.4186 -0.1274  0.2746
   32CHL1   H7B 3487   3.911   2.971   6.183  0.5357  0.6551 -2.1622
   32CHL1    C8 3488   4.040   3.134   6.148 -0.1042  0.0372 -0.3506
   32CHL1    H8 3489   4.147   3.159   6.160 -0.6051  2.5966 -0.7149
   32CHL1   C14 3490   4.014   3.115   6.000 -0.2848 -0.2415 -0.2507
   32CHL1   H14 3491   3.907   3.085   5.992 -0.9738  1.7529  0.7603
   32CHL1   C15 3492   4.097   3.010   5.922  0.5231  0.1853  0.0099
   32CHL1  H15A 3493   4.199   3.015   5.963  0.9005 -1.3896 -0.6694
   32CHL1  H15B 3494   4.056   2.909   5.946 -1.5068  1.8410  4.6555
   32CHL1   C16 3495   4.073   3.044   5.773 -0.2993  0.1575  0.0806
   32CHL1  H16A 3496   4.173   3.046   5.724 -1.0546  0.8091 -1.5110
   32CHL1  H16B 3497   4.009   2.969   5.722  1.7792 -0.2399 -2.1180
   32CHL1   C17 3498   4.007   3.189   5.778  0.1885 -0.2122  0.5870
   32CHL1   H17 3499   3.898   3.171   5.763  0.2049  0.4846 -0.4711
   32CHL1   C13 3500   4.020   3.243   5.923 -0.2420  0.2398  0.5659
   32CHL1   C18 3501   4.161   3.296   5.935  0.1879 -0.4287 -0.0764
   32CHL1  H18A 3502   4.229   3.244   5.864  0.0054 -0.9229  0.1047
   32CHL1  H18B 3503   4.176   3.400   5.899  0.5765  1.6268  5.1651
   32CHL1  H18C 3504   4.206   3.296   6.037 -0.0904 -2.2161  0.0821
   32CHL1   C12 3505   3.916   3.340   5.965  0.2013 -0.0415 -0.6126
   32CHL1  H12A 3506   3.911   3.438   5.914  0.2959 -0.4358 -1.3881
   32CHL1  H12B 3507   3.812   3.300   5.959  0.2787 -0.3287 -0.1201
   32CHL1   C11 3508   3.944   3.361   6.119 -0.4041 -0.5715  0.3732
   32CHL1  H11A 3509   4.034   3.426   6.122 -0.5400 -0.2939 -1.1073
   32CHL1  H11B 3510   3.866   3.431   6.157  0.7961  3.0009 -3.0827
   32CHL1    C9 3511   3.954   3.237   6.206 -0.1096 -0.2803  0.2641
   32CHL1    H9 3512   3.856   3.185   6.201 -0.3847  0.3204 -3.7089
   32CHL1   C10 3513   3.985   3.267   6.360 -0.4820 -0.0332  0.3849
   32CHL1   C19 3514   4.110   3.358   6.380 -0.7799 -0.0078  0.3958
   32CHL1  H19A 3515   4.143   3.369   6.485 -1.3037 -0.9831  0.6782
   32CHL1  H19B 3516   4.193   3.320   6.316 -1.9287 -0.0427 -1.1418
   32CHL1  H19C 3517   4.081   3.459   6.346  1.2038  0.3672 -0.3123
   32CHL1    C1 3518   3.859   3.341   6.416  0.1458 -0.0718  0.1231
   32CHL1   H1A 3519   3.843   3.441   6.372 -1.1200 -0.6734 -0.8391
   32CHL1   H1B 3520   3.769   3.281   6.393  0.3975 -1.6776  2.8772
   32CHL1    C2 3521   3.866   3.348   6.569 -1.0278  0.5207 -0.4494
   32CHL1   H2A 3522   3.780   3.406   6.609 -0.7968 -0.2079  1.1618
   32CHL1   H2B 3523   3.951   3.415   6.596 -2.3864  2.0952  0.0977
   32CHL1   C20 3524   4.041   3.278   5.649  0.9410 -0.6615 -0.3904
   32CHL1   H20 3525   4.151   3.270   5.640  1.5373  2.5600  2.1797
   32CHL1   C21 3526   4.004   3.429   5.655  0.5788  0.2154  0.3778
   32CHL1  H21A 3527   4.049   3.471   5.748 -1.2487  0.9813  0.9517
   32CHL1  H21B 3528   3.895   3.448   5.658  0.7520  1.6226 -1.0577
   32CHL1  H21C 3529   4.053   3.485   5.573  0.7709  0.8681  0.9265
   32CHL1   C22 3530   3.979   3.211   5.522 -0.3009 -0.2774  0.3404
   32CHL1  H22A 3531   3.972   3.101   5.535 -1.4666 -0.3596 -0.7541
   32CHL1  H22B 3532   3.874   3.249   5.515  0.6117  2.1695 -2.4416
   32CHL1   C23 3533   4.046   3.241   5.387  0.2162 -0.2603 -0.2606
   32CHL1  H23A 3534   4.043   3.351   5.372 -2.1263 -0.0676  1.0769
   32CHL1  H23B 3535   4.154   3.219   5.398  0.6073  2.4982  2.7685
   32CHL1   C24 3536   3.993   3.160   5.269 -0.0179  0.1455  0.8061
   32CHL1  H24A 3537   4.006   3.050   5.278 -0.4449  0.0649  0.5245
   32CHL1  H24B 3538   3.885   3.181   5.251  0.1929 -0.8871 -2.2062
   32CHL1   C25 3539   4.079   3.202   5.139 -0.0529  0.6204  0.3068
   32CHL1   H25 3540   4.161   3.271   5.170  1.4241 -1.1630  0.5356
   32CHL1   C26 3541   4.145   3.080   5.069 -0.3196 -0.0168 -1.3605
   32CHL1  H26A 3542   4.205   3.018   5.140 -2.5756 -3.2501 -2.0313
   32CHL1  H26B 3543   4.071   3.012   5.022 -0.4002 -1.9274  1.2638
   32CHL1  H26C 3544   4.209   3.109   4.984  0.9077 -0.7796 -0.7306
   32CHL1   C27 3545   3.992   3.265   5.025  0.6759  1.3198 -0.1127
   32CHL1  H27A 3546   3.908   3.200   4.993  1.1591  1.0480 -0.8751
   32CHL1  H27B 3547   3.945   3.350   5.078 -2.8355 -0.6035  0.1270
   32CHL1  H27C 3548   4.051   3.296   4.936  0.1926  3.3858  0.2309
   33CHL1    C3 3549   1.886   3.557   6.952  0.1203 -0.1179  0.1099
   33CHL1    H3 3550   1.812   3.640   6.950  0.6286  0.3994 -2.8792
   33CHL1    O3 3551   1.918   3.532   7.092 -0.1246 -0.5013  0.0170
   33CHL1   H3' 3552   1.982   3.460   7.086 -1.9437 -2.3694  1.4885
   33CHL1    C4 3553   1.834   3.424   6.894  0.1822 -0.4199 -0.7507
   33CHL1   H4A 3554   1.901   3.340   6.924  0.5761 -0.1905 -0.9730
   33CHL1   H4B 3555   1.732   3.397   6.928  0.8150 -1.2770  0.5330
   33CHL1    C5 3556   1.820   3.428   6.745 -0.1478 -0.2781  0.2352
   33CHL1    C6 3557   1.706   3.393   6.685 -0.6720  0.0936  0.5090
   33CHL1    H6 3558   1.622   3.361   6.748  0.9535 -0.4031  2.5647
   33CHL1    C7 3559   1.694   3.384   6.535 -0.0836  0.8931 -0.1072
   33CHL1   H7A 3560   1.645   3.289   6.502 -0.2820  1.2144 -0.7655
   33CHL1   H7B 3561   1.619   3.456   6.494 -0.2832  0.6539 -0.1710
   33CHL1    C8 3562   1.830   3.411   6.458  0.7189  1.1262  0.0039
   33CHL1    H8 3563   1.880   3.311   6.462 -1.1019  0.1838  0.0060
   33CHL1   C14 3564   1.801   3.443   6.317 -0.0127  0.1176  0.5851
   33CHL1   H14 3565   1.754   3.544   6.328 -1.6844 -0.7024  1.3116
   33CHL1   C15 3566   1.690   3.359   6.244 -0.1635 -0.6404 -0.0257
   33CHL1  H15A 3567   1.700   3.252   6.271  2.6622 -0.5843 -0.5429
   33CHL1  H15B 3568   1.590   3.399   6.273  0.2083  0.6803 -0.5064
   33CHL1   C16 3569   1.718   3.393   6.096 -0.3527  0.2623  0.2086
   33CHL1  H16A 3570   1.732   3.296   6.043  0.5070 -0.2795  1.3678
   33CHL1  H16B 3571   1.636   3.455   6.054  0.8504  2.1683  0.5718
   33CHL1   C17 3572   1.848   3.477   6.083  0.1299  0.1303 -0.0811
   33CHL1   H17 3573   1.829   3.586   6.081  1.3147  0.3534 -1.5398
   33CHL1   C13 3574   1.923   3.451   6.218 -0.3118 -0.2090  0.4379
   33CHL1   C18 3575   2.007   3.317   6.209  0.2943  0.1620 -0.1927
   33CHL1  H18A 3576   1.945   3.241   6.155  1.6735 -0.9392 -0.2904
   33CHL1  H18B 3577   2.099   3.340   6.152  1.0587  0.3706  1.1043
   33CHL1  H18C 3578   2.046   3.292   6.310 -0.0881  0.9303  0.1479
   33CHL1   C12 3579   2.012   3.562   6.279 -0.1051  0.0186  0.4594
   33CHL1  H12A 3580   2.099   3.581   6.214  1.5561  1.8310  3.0539
   33CHL1  H12B 3581   1.954   3.656   6.275  0.4893  0.3586 -0.1700
   33CHL1   C11 3582   2.037   3.534   6.429 -0.1436 -0.4638 -0.2753
   33CHL1  H11A 3583   2.100   3.443   6.439 -0.6334 -0.6961  0.9419
   33CHL1  H11B 3584   2.097   3.619   6.470  0.0020 -1.1339  0.9555
   33CHL1    C9 3585   1.909   3.514   6.517  0.0163  0.0656  0.5183
   33CHL1    H9 3586   1.840   3.601   6.521 -0.8929 -0.6570  1.2447
   33CHL1   C10 3587   1.945   3.478   6.668 -0.3423 -0.4522 -0.1329
   33CHL1   C19 3588   2.061   3.375   6.671 -0.1246 -0.2398  0.3865
   33CHL1  H19A 3589   2.158   3.421   6.643 -1.2193  1.8349 -0.1716
   33CHL1  H19B 3590   2.074   3.349   6.778 -2.1826 -0.7302  0.5647
   33CHL1  H19C 3591   2.036   3.280   6.619 -0.1054 -0.2737  0.4399
   33CHL1    C1 3592   1.997   3.603   6.736  0.5043  0.7092 -0.2518
   33CHL1   H1A 3593   2.090   3.636   6.685 -0.4268  1.0816 -1.7764
   33CHL1   H1B 3594   1.919   3.679   6.710 -0.7963  0.4496  2.5329
   33CHL1    C2 3595   2.021   3.599   6.889  0.5291  0.3177  0.3819
   33CHL1   H2A 3596   2.060   3.692   6.934  0.5232 -0.1393  1.3679
   33CHL1   H2B 3597   2.095   3.521   6.918  1.2466  1.0867  0.6463
   33CHL1   C20 3598   1.922   3.447   5.947  0.1311 -0.3529  0.3125
   33CHL1   H20 3599   1.945   3.338   5.946 -1.7786 -0.8006 -0.1516
   33CHL1   C21 3600   2.060   3.527   5.949  0.3763 -0.7783  0.4320
   33CHL1  H21A 3601   2.121   3.476   6.025  0.0674 -0.4669  0.8954
   33CHL1  H21B 3602   2.051   3.635   5.975  0.8663 -1.0647  1.8608
   33CHL1  H21C 3603   2.119   3.515   5.855  1.6612 -0.2419  1.1504
   33CHL1   C22 3604   1.848   3.482   5.812 -0.0814  0.5256 -0.3826
   33CHL1  H22A 3605   1.914   3.445   5.730 -0.8481 -0.8974 -0.3918
   33CHL1  H22B 3606   1.754   3.424   5.803  0.0977  0.0421  0.7507
   33CHL1   C23 3607   1.813   3.630   5.793  0.6027  0.4327  0.5996
   33CHL1  H23A 3608   1.760   3.665   5.884 -0.2250  1.2207 -0.1603
   33CHL1  H23B 3609   1.901   3.698   5.788  1.5213 -0.6349  1.6874
   33CHL1   C24 3610   1.726   3.665   5.669 -0.7713  0.0912  0.5671
   33CHL1  H24A 3611   1.627   3.616   5.683 -1.1008  0.5249 -0.2112
   33CHL1  H24B 3612   1.722   3.775   5.680  0.7761  0.2332 -0.1210
   33CHL1   C25 3613   1.787   3.633   5.528  0.1064 -0.5974  0.5710
   33CHL1   H25 3614   1.793   3.523   5.517 -0.1893 -0.3619 -3.6927
   33CHL1   C26 3615   1.690   3.686   5.420 -0.1145 -0.2385  0.6347
   33CHL1  H26A 3616   1.682   3.797   5.426  2.7464  0.5353 -4.1276
   33CHL1  H26B 3617   1.748   3.677   5.326 -0.5194 -0.7511  0.4321
   33CHL1  H26C 3618   1.592   3.634   5.429 -1.8268  2.6956  0.3534
   33CHL1   C27 3619   1.933   3.703   5.507  0.5388  0.3900  0.1464
   33CHL1  H27A 3620   1.970   3.661   5.411 -1.2830  1.8183 -1.2647
   33CHL1  H27B 3621   1.920   3.811   5.485  0.5337  0.4061  0.2265
   33CHL1  H27C 3622   2.004   3.673   5.587  0.6142 -1.5552 -0.5928
   34CHL1    C3 3623   4.696   0.165   6.356 -0.4456  0.7240  1.3081
   34CHL1    H3 3624   4.794   0.188   6.310 -1.2738 -0.1908 -1.1185
   34CHL1    O3 3625   4.691   0.169   6.496 -0.1111 -0.1772  0.2359
   34CHL1   H3' 3626   4.600   0.188   6.522  0.5848  1.9310  1.3321
   34CHL1    C4 3627   4.589   0.261   6.289 -0.0981 -0.0462  0.2493
   34CHL1   H4A 3628   4.494   0.231   6.338  0.7342 -4.4403 -0.3901
   34CHL1   H4B 3629   4.602   0.361   6.335  0.3628  0.2016 -0.3996
   34CHL1    C5 3630   4.602   0.248   6.141 -0.2025 -0.1067  0.1782
   34CHL1    C6 3631   4.642   0.349   6.068 -0.5859 -0.1939  0.7709
   34CHL1    H6 3632   4.634   0.453   6.104  0.7238  0.8941 -1.7288
   34CHL1    C7 3633   4.656   0.340   5.920  0.8256  0.3947 -0.1983
   34CHL1   H7A 3634   4.594   0.423   5.883  0.8582  0.1611 -0.7807
   34CHL1   H7B 3635   4.764   0.345   5.895  0.5321  1.3740 -1.3492
   34CHL1    C8 3636   4.596   0.212   5.856  0.0745  0.2881  0.0470
   34CHL1    H8 3637   4.485   0.214   5.851  0.0846 -0.7806 -1.1364
   34CHL1   C14 3638   4.631   0.193   5.712  0.9958 -0.9310  0.6208
   34CHL1   H14 3639   4.742   0.187   5.716  1.1504 -1.8296 -2.5356
   34CHL1   C15 3640   4.610   0.314   5.619  0.1459  0.1100 -0.1804
   34CHL1  H15A 3641   4.504   0.346   5.631 -1.3353 -4.1967  0.1126
   34CHL1  H15B 3642   4.678   0.401   5.621  0.0114  0.3639 -2.8410
   34CHL1   C16 3643   4.619   0.260   5.476 -0.5016 -0.3520  0.0430
   34CHL1  H16A 3644   4.524   0.286   5.426 -0.0627 -0.1457 -0.6926
   34CHL1  H16B 3645   4.706   0.284   5.412 -1.0445  1.9621  0.1015
   34CHL1   C17 3646   4.639   0.105   5.488 -0.6218 -0.6006  0.4310
   34CHL1   H17 3647   4.746   0.079   5.495 -0.8378 -1.5133  0.4521
   34CHL1   C13 3648   4.583   0.074   5.636  0.1703 -0.1090  0.0309
   34CHL1   C18 3649   4.425   0.074   5.632  0.3498  0.1143 -0.4356
   34CHL1  H18A 3650   4.380   0.079   5.733 -0.4031 -0.2345 -0.7483
   34CHL1  H18B 3651   4.388   0.171   5.592  0.8505  0.7405  0.5925
   34CHL1  H18C 3652   4.385  -0.016   5.581 -0.4730  1.2580 -1.8771
   34CHL1   C12 3653   4.642  -0.044   5.713 -0.2298 -0.5894 -0.0008
   34CHL1  H12A 3654   4.600  -0.136   5.668  0.1636 -0.5827 -0.3881
   34CHL1  H12B 3655   4.752  -0.042   5.694 -0.3364 -1.4293 -0.8078
   34CHL1   C11 3656   4.604  -0.044   5.865 -0.3737 -0.0646 -0.4992
   34CHL1  H11A 3657   4.494  -0.062   5.859 -0.7253  1.5382  0.6035
   34CHL1  H11B 3658   4.648  -0.134   5.913  1.6986  0.9263 -0.4184
   34CHL1    C9 3659   4.638   0.093   5.939 -0.0969 -0.3558 -0.6888
   34CHL1    H9 3660   4.749   0.086   5.943  0.1303  2.0096 -1.2063
   34CHL1   C10 3661   4.582   0.104   6.080 -0.5934 -1.0295 -0.3756
   34CHL1   C19 3662   4.435   0.071   6.089 -0.1514 -0.0770  0.5459
   34CHL1  H19A 3663   4.376   0.134   6.019  1.1138 -0.2296 -0.7071
   34CHL1  H19B 3664   4.408  -0.037   6.082  0.2606 -0.0916 -1.3191
   34CHL1  H19C 3665   4.394   0.103   6.187 -0.6531  0.0477  0.2991
   34CHL1    C1 3666   4.660   0.005   6.167  0.5891  0.4930 -0.4744
   34CHL1   H1A 3667   4.605  -0.089   6.148 -1.0603  1.2800  0.1891
   34CHL1   H1B 3668   4.765  -0.009   6.135  1.1300 -2.4473  2.1062
   34CHL1    C2 3669   4.657   0.018   6.317  0.4320  0.5613  0.1442
   34CHL1   H2A 3670   4.731  -0.053   6.359 -0.5152 -1.6767 -1.7946
   34CHL1   H2B 3671   4.559  -0.004   6.363  1.2327 -2.4058  0.5862
   34CHL1   C20 3672   4.594   0.025   5.370  0.5568 -0.1314 -0.3520
   34CHL1   H20 3673   4.483   0.033   5.363  0.4980  0.8511  1.2833
   34CHL1   C21 3674   4.610  -0.126   5.396 -0.4678 -0.1938 -0.1347
   34CHL1  H21A 3675   4.548  -0.161   5.481 -0.0649  3.3640  1.8391
   34CHL1  H21B 3676   4.716  -0.143   5.423 -0.4494 -0.1095 -0.1515
   34CHL1  H21C 3677   4.585  -0.184   5.305  0.1579  1.4052 -1.3761
   34CHL1   C22 3678   4.661   0.059   5.232  0.4249 -0.5761  0.2372
   34CHL1  H22A 3679   4.635   0.166   5.217 -0.2307 -0.5556  1.3682
   34CHL1  H22B 3680   4.771   0.045   5.235  0.3363 -2.1191 -1.4648
   34CHL1   C23 3681   4.619  -0.018   5.109  0.9458 -0.1753  0.5662
   34CHL1  H23A 3682   4.654  -0.123   5.121  0.7761 -0.7153 -2.6639
   34CHL1  H23B 3683   4.508  -0.022   5.112  0.9647 -4.2219  1.7124
   34CHL1   C24 3684   4.664   0.039   4.980  0.2782  0.2544 -0.6617
   34CHL1  H24A 3685   4.653   0.149   4.996  2.4951  0.1032  3.6099
   34CHL1  H24B 3686   4.772   0.018   4.963  0.7839  1.3176  0.9681
   34CHL1   C25 3687   4.593  -0.002   4.854  0.4834 -0.0454  0.0609
   34CHL1   H25 3688   4.488   0.029   4.876  0.3722  0.2517 -0.8638
   34CHL1   C26 3689   4.654   0.087   4.743 -0.3938 -0.3581 -0.5247
   34CHL1  H26A 3690   4.647   0.194   4.769  1.9059  0.0752 -1.4990
   34CHL1  H26B 3691   4.764   0.077   4.731 -0.2179 -2.3843  2.0008
   34CHL1  H26C 3692   4.613   0.066   4.642  0.2711 -1.3558 -0.6091
   34CHL1   C27 3693   4.603  -0.149   4.821 -0.0396  0.1084 -0.4199
   34CHL1  H27A 3694   4.543  -0.175   4.731 -0.8133 -0.9945  0.3881
   34CHL1  H27B 3695   4.709  -0.181   4.809 -0.1213 -0.6685  0.8058
   34CHL1  H27C 3696   4.574  -0.207   4.911  2.1751  0.3907  0.5556
   35CHL1    C3 3697   6.886   0.026   6.396 -0.4086  0.0140  0.5165
   35CHL1    H3 3698   6.992   0.040   6.368 -0.7918 -0.2063 -1.0960
   35CHL1    O3 3699   6.880  -0.090   6.477  0.2717 -0.1855 -0.6407
   35CHL1   H3' 3700   6.786  -0.093   6.495 -0.1278  0.9105 -2.2640
   35CHL1    C4 3701   6.832   0.145   6.479  0.4147 -0.0526  0.5714
   35CHL1   H4A 3702   6.733   0.111   6.518 -0.3269  2.3673  0.9868
   35CHL1   H4B 3703   6.896   0.145   6.569  1.2185  0.4167  0.0087
   35CHL1    C5 3704   6.827   0.271   6.395 -0.4633  0.2872  0.1969
   35CHL1    C6 3705   6.888   0.379   6.442  0.4278 -0.3169  0.2301
   35CHL1    H6 3706   6.919   0.380   6.547 -2.4264  1.1942  1.1608
   35CHL1    C7 3707   6.885   0.509   6.368  0.0001 -0.6849 -0.1143
   35CHL1   H7A 3708   6.858   0.590   6.438  1.0529  0.0956 -0.5779
   35CHL1   H7B 3709   6.988   0.525   6.330  0.5777 -2.4242  0.5949
   35CHL1    C8 3710   6.779   0.501   6.254  0.4656 -0.1138 -0.0860
   35CHL1    H8 3711   6.681   0.521   6.302  2.0639  1.3230  2.9309
   35CHL1   C14 3712   6.797   0.628   6.161 -0.4192 -0.3981 -0.3281
   35CHL1   H14 3713   6.899   0.612   6.120  0.2307  0.9400  0.6620
   35CHL1   C15 3714   6.784   0.763   6.231 -0.2337 -0.8697 -0.3056
   35CHL1  H15A 3715   6.698   0.772   6.301  0.5212 -1.0832  0.6568
   35CHL1  H15B 3716   6.865   0.778   6.304 -1.0909  1.1675  0.2939
   35CHL1   C16 3717   6.791   0.859   6.118 -0.3518 -0.4856 -0.3753
   35CHL1  H16A 3718   6.725   0.945   6.142  2.1207  1.9042 -1.5103
   35CHL1  H16B 3719   6.898   0.887   6.106 -0.4965 -0.3639 -1.5305
   35CHL1   C17 3720   6.749   0.774   5.988  0.3899  0.3387 -0.0433
   35CHL1   H17 3721   6.848   0.756   5.940  1.0914  3.8621 -0.1533
   35CHL1   C13 3722   6.707   0.639   6.039 -1.0373  0.0872  0.3309
   35CHL1   C18 3723   6.566   0.658   6.087 -0.4316 -0.3222  0.2438
   35CHL1  H18A 3724   6.546   0.763   6.115 -1.1566 -1.0801  2.9343
   35CHL1  H18B 3725   6.494   0.629   6.007 -0.4447  1.8734 -0.5972
   35CHL1  H18C 3726   6.539   0.593   6.174  0.2682 -0.8167  0.1015
   35CHL1   C12 3727   6.726   0.510   5.955 -0.8888  0.4684  0.3530
   35CHL1  H12A 3728   6.651   0.521   5.874 -0.6238  2.3010  0.3158
   35CHL1  H12B 3729   6.828   0.494   5.913  0.2445 -1.1984  3.3933
   35CHL1   C11 3730   6.702   0.382   6.037  0.2270  0.3533  0.3982
   35CHL1  H11A 3731   6.594   0.385   6.064 -0.1338  0.4133 -0.9661
   35CHL1  H11B 3732   6.732   0.290   5.983  0.0541  0.1614  0.6296
   35CHL1    C9 3733   6.781   0.377   6.169  0.0934  0.2262 -0.2183
   35CHL1    H9 3734   6.886   0.370   6.131 -0.9616  0.3547 -3.4364
   35CHL1   C10 3735   6.754   0.256   6.257 -0.2123  0.0493  0.2189
   35CHL1   C19 3736   6.600   0.247   6.294 -0.3561 -0.0014 -0.6310
   35CHL1  H19A 3737   6.543   0.239   6.199  1.5122  0.2351 -1.8212
   35CHL1  H19B 3738   6.566   0.155   6.348 -2.3284  1.4294  0.7220
   35CHL1  H19C 3739   6.567   0.332   6.358 -0.8494  2.0519 -3.4215
   35CHL1    C1 3740   6.799   0.122   6.181  0.8654 -0.0629  0.1120
   35CHL1   H1A 3741   6.721   0.108   6.102  1.3909  1.0355 -0.6253
   35CHL1   H1B 3742   6.899   0.151   6.143  1.5117 -1.0401  1.0026
   35CHL1    C2 3743   6.801   0.002   6.270 -0.0460 -0.4038  0.1315
   35CHL1   H2A 3744   6.835  -0.090   6.217  0.0208 -1.8451  2.5561
   35CHL1   H2B 3745   6.697  -0.012   6.307 -0.2951  3.4337  1.3069
   35CHL1   C20 3746   6.678   0.844   5.878 -0.3996  0.2109 -0.7330
   35CHL1   H20 3747   6.589   0.882   5.933  0.4762  1.4806 -0.1684
   35CHL1   C21 3748   6.640   0.757   5.759 -0.8385  0.6750 -0.0120
   35CHL1  H21A 3749   6.627   0.826   5.673  1.1988  0.5333 -0.4815
   35CHL1  H21B 3750   6.541   0.710   5.778  0.9887 -3.4994  0.2761
   35CHL1  H21C 3751   6.723   0.687   5.740 -0.5723  0.9890 -0.0143
   35CHL1   C22 3752   6.745   0.973   5.822  0.1422  0.6612 -0.2457
   35CHL1  H22A 3753   6.688   0.996   5.729  0.8491 -0.5152 -0.9997
   35CHL1  H22B 3754   6.736   1.052   5.899 -3.5616  1.5182 -1.3786
   35CHL1   C23 3755   6.893   0.949   5.782  0.4009 -0.5523 -0.4899
   35CHL1  H23A 3756   6.945   0.941   5.879  0.0130 -1.0072 -0.3111
   35CHL1  H23B 3757   6.904   0.850   5.732  1.8135  0.2690 -1.8596
   35CHL1   C24 3758   6.953   1.057   5.701  0.8397  0.3599 -0.2918
   35CHL1  H24A 3759   6.954   1.148   5.764  0.8570 -1.7019  2.9070
   35CHL1  H24B 3760   7.057   1.024   5.680  1.4268  1.6033  0.5188
   35CHL1   C25 3761   6.886   1.079   5.562  0.3424  0.1519 -0.2617
   35CHL1   H25 3762   6.781   1.111   5.576  0.7353  1.0667  0.7320
   35CHL1   C26 3763   6.945   1.202   5.506 -0.3141  0.0685  0.2256
   35CHL1  H26A 3764   6.930   1.281   5.582 -2.8466  1.3985 -1.4981
   35CHL1  H26B 3765   7.054   1.188   5.488  0.2223  1.9393  1.7525
   35CHL1  H26C 3766   6.887   1.222   5.414 -0.0606 -0.6090 -0.0959
   35CHL1   C27 3767   6.893   0.956   5.474  0.2007  0.0086  0.1772
   35CHL1  H27A 3768   6.864   0.986   5.371 -2.5551  0.0059  0.8830
   35CHL1  H27B 3769   6.994   0.911   5.458  0.6441  1.2661 -0.6936
   35CHL1  H27C 3770   6.825   0.875   5.509 -0.3337  0.2134 -0.3618
   36CHL1    C3 3771   4.228   4.532   6.665 -0.0633  0.2005 -1.0331
   36CHL1    H3 3772   4.282   4.626   6.642  1.3224 -0.3770 -0.2678
   36CHL1    O3 3773   4.176   4.546   6.801 -0.6080  0.4333 -0.1339
   36CHL1   H3' 3774   4.093   4.497   6.801 -0.4346  0.1348  0.0168
   36CHL1    C4 3775   4.111   4.506   6.566  0.8198 -0.1966 -0.7661
   36CHL1   H4A 3776   4.059   4.415   6.601 -0.5784  1.2613  1.1594
   36CHL1   H4B 3777   4.033   4.579   6.597  0.6498 -0.3439 -0.8475
   36CHL1    C5 3778   4.150   4.513   6.419 -0.4504 -0.5822 -0.4347
   36CHL1    C6 3779   4.093   4.606   6.342  0.5470 -0.0054 -0.3687
   36CHL1    H6 3780   4.010   4.667   6.380  0.4061  0.4300 -1.3292
   36CHL1    C7 3781   4.127   4.622   6.198  0.2746 -0.3573 -0.8359
   36CHL1   H7A 3782   4.034   4.632   6.138 -1.0618  0.5138  1.2937
   36CHL1   H7B 3783   4.177   4.721   6.192 -1.8153  0.7335 -1.1181
   36CHL1    C8 3784   4.224   4.515   6.145  0.8230  0.2714 -0.2282
   36CHL1    H8 3785   4.152   4.430   6.137  1.0327 -0.3627  3.2046
   36CHL1   C14 3786   4.274   4.546   6.006  0.2687 -0.1589 -0.5840
   36CHL1   H14 3787   4.327   4.643   5.995  0.0604 -0.0155 -0.3403
   36CHL1   C15 3788   4.167   4.566   5.901  0.5945  0.3778 -0.1612
   36CHL1  H15A 3789   4.082   4.495   5.915 -0.5819  1.0906 -3.0221
   36CHL1  H15B 3790   4.127   4.669   5.903  1.1947  0.6110 -0.1632
   36CHL1   C16 3791   4.235   4.533   5.767  0.0259 -0.6531 -0.2329
   36CHL1  H16A 3792   4.184   4.450   5.713  1.2581 -0.4560 -1.7906
   36CHL1  H16B 3793   4.234   4.610   5.686  2.1834 -1.9869 -1.6502
   36CHL1   C17 3794   4.378   4.486   5.801 -0.0247 -0.4244  0.0376
   36CHL1   H17 3795   4.434   4.582   5.801 -0.4130 -0.0818 -3.1336
   36CHL1   C13 3796   4.359   4.438   5.944  0.1295 -0.6662 -0.8004
   36CHL1   C18 3797   4.289   4.301   5.940  0.1683 -0.1714  0.3666
   36CHL1  H18A 3798   4.357   4.217   5.913 -0.2952  0.0948 -1.7774
   36CHL1  H18B 3799   4.246   4.273   6.038 -0.1037 -0.2520  0.2243
   36CHL1  H18C 3800   4.207   4.286   5.868 -0.3936 -1.2182  1.2070
   36CHL1   C12 3801   4.480   4.422   6.030 -1.0038 -0.4869  0.6487
   36CHL1  H12A 3802   4.546   4.339   5.997 -1.8176 -0.8250 -0.1582
   36CHL1  H12B 3803   4.539   4.516   6.040 -0.2259 -0.8872 -0.0421
   36CHL1   C11 3804   4.437   4.387   6.177  0.2484 -0.2621  0.2960
   36CHL1  H11A 3805   4.390   4.286   6.179 -1.5220  0.4615 -1.6479
   36CHL1  H11B 3806   4.528   4.373   6.240  0.8061 -0.8515 -0.6162
   36CHL1    C9 3807   4.331   4.480   6.247  0.7951  0.5729  0.1894
   36CHL1    H9 3808   4.387   4.574   6.267  3.5618 -1.2702  1.7903
   36CHL1   C10 3809   4.275   4.428   6.381 -0.5040 -0.5342  0.0781
   36CHL1   C19 3810   4.218   4.287   6.369 -0.1219  0.4416 -0.5048
   36CHL1  H19A 3811   4.163   4.255   6.461 -0.6136  0.5825 -0.7458
   36CHL1  H19B 3812   4.148   4.286   6.283 -1.6514 -0.2715  0.6941
   36CHL1  H19C 3813   4.297   4.213   6.343 -0.5095 -0.2207  0.1529
   36CHL1    C1 3814   4.380   4.431   6.496 -0.0495 -0.0564  0.0439
   36CHL1   H1A 3815   4.459   4.354   6.483 -0.3075 -0.8543  2.5333
   36CHL1   H1B 3816   4.431   4.529   6.483 -2.2316  1.0881 -0.3701
   36CHL1    C2 3817   4.323   4.414   6.640  0.6580  0.4573 -0.3835
   36CHL1   H2A 3818   4.404   4.416   6.717  1.5297 -0.6297 -1.2227
   36CHL1   H2B 3819   4.280   4.312   6.648  2.6123 -0.4604 -0.9064
   36CHL1   C20 3820   4.434   4.390   5.693  0.1489 -0.0544  0.1651
   36CHL1   H20 3821   4.376   4.296   5.701  1.5967 -0.8610  1.7678
   36CHL1   C21 3822   4.582   4.351   5.717  0.5413 -0.0948 -0.3079
   36CHL1  H21A 3823   4.590   4.304   5.818 -0.5524  2.2534  0.9494
   36CHL1  H21B 3824   4.647   4.441   5.724  0.9562 -0.3757 -0.4718
   36CHL1  H21C 3825   4.621   4.279   5.642 -0.7827 -1.1948  0.0314
   36CHL1   C22 3826   4.421   4.450   5.553  0.6392 -0.2181  0.4593
   36CHL1  H22A 3827   4.318   4.481   5.526  0.1715 -1.3871  0.8550
   36CHL1  H22B 3828   4.481   4.543   5.558 -2.2211  1.6978  1.5541
   36CHL1   C23 3829   4.468   4.359   5.433 -0.0734 -0.2455  0.0382
   36CHL1  H23A 3830   4.577   4.375   5.418 -0.0042 -0.7176 -0.0007
   36CHL1  H23B 3831   4.445   4.251   5.445 -0.3946 -0.2107 -0.2543
   36CHL1   C24 3832   4.389   4.398   5.304  0.3476 -0.0119 -0.4328
   36CHL1  H24A 3833   4.284   4.362   5.299  0.6838 -1.5003  1.9592
   36CHL1  H24B 3834   4.381   4.509   5.294  0.4270 -0.1664 -2.7970
   36CHL1   C25 3835   4.447   4.337   5.182 -0.4757 -0.4909  0.4936
   36CHL1   H25 3836   4.555   4.363   5.180 -0.9457  1.6453 -0.4270
   36CHL1   C26 3837   4.433   4.187   5.173  0.2103  0.5898 -0.4672
   36CHL1  H26A 3838   4.326   4.156   5.173  1.2448 -3.7185  0.1977
   36CHL1  H26B 3839   4.468   4.141   5.078  1.8171  0.2037  0.2762
   36CHL1  H26C 3840   4.496   4.138   5.251  2.1191  3.6397  0.0745
   36CHL1   C27 3841   4.387   4.393   5.053  0.6419 -0.0251 -0.0567
   36CHL1  H27A 3842   4.281   4.360   5.052  0.4242  0.5956  0.7684
   36CHL1  H27B 3843   4.401   4.503   5.057 -0.7756  0.1477  1.1412
   36CHL1  H27C 3844   4.447   4.354   4.967 -0.6882  1.8234 -1.9229
   37CHL1    C3 3845   6.322   3.541   6.736  0.0092 -0.2211 -0.0600
   37CHL1    H3 3846   6.219   3.508   6.711 -0.3883  1.1002 -0.2347
   37CHL1    O3 3847   6.327   3.530   6.873 -0.6796 -0.2819 -0.8632
   37CHL1   H3' 3848   6.415   3.507   6.902 -0.9901  0.5915  0.9395
   37CHL1    C4 3849   6.423   3.444   6.673 -0.0837  0.2112  0.4351
   37CHL1   H4A 3850   6.522   3.473   6.715  1.2081 -3.1407  0.0543
   37CHL1   H4B 3851   6.414   3.340   6.709 -1.0388 -0.3682 -1.3525
   37CHL1    C5 3852   6.425   3.453   6.522 -0.2963  0.0002 -0.0434
   37CHL1    C6 3853   6.405   3.343   6.449 -0.3239  0.7779 -0.4813
   37CHL1    H6 3854   6.383   3.252   6.507 -0.3830  0.9284 -0.2644
   37CHL1    C7 3855   6.402   3.336   6.304 -0.1408 -0.3073  0.0370
   37CHL1   H7A 3856   6.469   3.259   6.261  0.3127  1.0146 -1.7497
   37CHL1   H7B 3857   6.304   3.302   6.265 -0.0331 -0.5498 -0.0229
   37CHL1    C8 3858   6.440   3.472   6.235 -0.0431 -0.0466 -1.8861
   37CHL1    H8 3859   6.551   3.464   6.231 -0.0430 -2.4923  0.5343
   37CHL1   C14 3860   6.379   3.488   6.095  0.5178 -0.0099 -0.5845
   37CHL1   H14 3861   6.269   3.505   6.104  0.9088  1.3294  3.7052
   37CHL1   C15 3862   6.396   3.365   5.996 -0.2283 -0.3365  0.3610
   37CHL1  H15A 3863   6.501   3.330   6.010  0.0742  0.6863  0.6712
   37CHL1  H15B 3864   6.325   3.287   6.030 -1.1641  0.1975 -0.3176
   37CHL1   C16 3865   6.374   3.432   5.859  1.1267 -0.0788 -0.0009
   37CHL1  H16A 3866   6.438   3.400   5.774 -1.3476  1.2434 -2.5330
   37CHL1  H16B 3867   6.271   3.407   5.825  0.8353 -2.3229  2.2670
   37CHL1   C17 3868   6.375   3.585   5.881 -0.1508 -0.0328 -0.5650
   37CHL1   H17 3869   6.270   3.619   5.875 -0.5589 -1.1099  0.1864
   37CHL1   C13 3870   6.422   3.612   6.021 -0.3159  0.1112  0.1530
   37CHL1   C18 3871   6.577   3.619   6.023  0.2361  0.0992  0.6925
   37CHL1  H18A 3872   6.625   3.532   5.972 -0.6653 -0.0479  0.0808
   37CHL1  H18B 3873   6.620   3.713   5.982  2.8581 -0.7150  1.3326
   37CHL1  H18C 3874   6.621   3.626   6.124  0.1180 -0.0730  0.7560
   37CHL1   C12 3875   6.370   3.740   6.094  0.0790  0.0076 -0.0384
   37CHL1  H12A 3876   6.411   3.834   6.052  1.0745 -0.5648 -0.3834
   37CHL1  H12B 3877   6.259   3.747   6.105  0.2062  1.1456  0.6878
   37CHL1   C11 3878   6.414   3.734   6.238  0.0234  0.3019 -0.4346
   37CHL1  H11A 3879   6.523   3.751   6.241  0.0782  0.0932 -1.0886
   37CHL1  H11B 3880   6.362   3.818   6.289 -2.2694 -1.3921  0.2019
   37CHL1    C9 3881   6.396   3.592   6.317 -0.5145 -0.3747 -0.4226
   37CHL1    H9 3882   6.285   3.581   6.319 -0.4109 -1.3690  0.5174
   37CHL1   C10 3883   6.444   3.593   6.466  0.2567 -0.2132  0.0696
   37CHL1   C19 3884   6.595   3.633   6.481 -0.0260 -0.1605  0.0929
   37CHL1  H19A 3885   6.644   3.551   6.425 -1.8906  0.1009 -2.0939
   37CHL1  H19B 3886   6.625   3.729   6.432 -0.3575  0.8644  1.8202
   37CHL1  H19C 3887   6.620   3.633   6.589 -2.5674  1.8001  0.7950
   37CHL1    C1 3888   6.348   3.696   6.535  0.9388 -0.1873 -0.3806
   37CHL1   H1A 3889   6.360   3.803   6.509  1.7124 -0.2637 -0.3688
   37CHL1   H1B 3890   6.242   3.687   6.505  0.5844 -1.8867  1.1634
   37CHL1    C2 3891   6.342   3.686   6.687 -0.0157 -0.1769 -0.8691
   37CHL1   H2A 3892   6.257   3.744   6.728 -1.3230 -2.2040 -0.5594
   37CHL1   H2B 3893   6.439   3.712   6.736 -0.2223  0.3696 -0.7459
   37CHL1   C20 3894   6.438   3.649   5.757 -0.6872  0.5113  0.1805
   37CHL1   H20 3895   6.545   3.618   5.757 -0.9863 -0.5719  0.8709
   37CHL1   C21 3896   6.417   3.803   5.754  0.5918 -0.1249 -0.3724
   37CHL1  H21A 3897   6.417   3.839   5.859  0.7718 -1.6874  0.1909
   37CHL1  H21B 3898   6.319   3.828   5.708  2.4779  1.3187 -4.0716
   37CHL1  H21C 3899   6.489   3.861   5.692  1.0317  0.0985  0.3328
   37CHL1   C22 3900   6.364   3.609   5.624 -0.1406  0.3157  0.1190
   37CHL1  H22A 3901   6.358   3.499   5.612 -0.0666  0.3802 -0.5157
   37CHL1  H22B 3902   6.258   3.641   5.634 -0.4349  0.1001 -1.9039
   37CHL1   C23 3903   6.423   3.667   5.489 -0.6144  0.3022 -0.8467
   37CHL1  H23A 3904   6.397   3.774   5.473  0.1500  0.5254 -0.6638
   37CHL1  H23B 3905   6.534   3.655   5.492 -0.6717 -0.1978 -0.6659
   37CHL1   C24 3906   6.376   3.589   5.374  0.0779  0.2184  0.3222
   37CHL1  H24A 3907   6.426   3.490   5.373 -1.0992 -0.4004  0.3236
   37CHL1  H24B 3908   6.266   3.575   5.381 -0.2877  2.7985  0.5545
   37CHL1   C25 3909   6.406   3.664   5.242 -0.0852 -0.1879 -0.3498
   37CHL1   H25 3910   6.374   3.770   5.257  0.2303 -0.0060 -0.9471
   37CHL1   C26 3911   6.552   3.656   5.208 -1.0425  0.4396  0.9414
   37CHL1  H26A 3912   6.572   3.553   5.172  0.9048  0.7833  0.9594
   37CHL1  H26B 3913   6.564   3.720   5.118 -1.8981 -1.3363 -0.4905
   37CHL1  H26C 3914   6.628   3.687   5.283 -1.9221 -0.5713  2.3016
   37CHL1   C27 3915   6.317   3.616   5.129 -0.5594  0.0968 -0.1411
   37CHL1  H27A 3916   6.211   3.642   5.145 -0.7431 -1.2495  1.1329
   37CHL1  H27B 3917   6.335   3.660   5.029 -2.0321  1.6108  0.2243
   37CHL1  H27C 3918   6.328   3.505   5.123 -1.7732  0.0483 -1.9660
   38CHL1    C3 3919   4.297   1.950   6.926 -0.0052 -0.7771  0.2884
   38CHL1    H3 3920   4.355   1.856   6.911 -0.4906 -1.0190 -0.1013
   38CHL1    O3 3921   4.277   1.977   7.064  0.0307 -0.4957 -0.4052
   38CHL1   H3' 3922   4.361   2.007   7.099 -0.7670  0.8833  0.4206
   38CHL1    C4 3923   4.377   2.068   6.865  0.0653  0.1609  0.3872
   38CHL1   H4A 3924   4.326   2.165   6.883  1.1269  0.8069 -0.0073
   38CHL1   H4B 3925   4.479   2.070   6.911  0.5742 -1.2092 -0.6378
   38CHL1    C5 3926   4.405   2.055   6.713  0.7022  0.6882  0.0346
   38CHL1    C6 3927   4.531   2.054   6.663 -0.1221  0.7285  0.2787
   38CHL1    H6 3928   4.614   2.061   6.735 -0.6291  1.6257  0.7822
   38CHL1    C7 3929   4.553   2.057   6.510 -0.4905  0.4605  0.0390
   38CHL1   H7A 3930   4.636   2.130   6.495 -0.5026  0.1851 -1.6335
   38CHL1   H7B 3931   4.594   1.960   6.474  1.5046  1.6054 -0.9469
   38CHL1    C8 3932   4.426   2.091   6.430 -0.1205  1.0213 -0.0476
   38CHL1    H8 3933   4.398   2.197   6.449  1.6829  1.4989  0.1041
   38CHL1   C14 3934   4.440   2.070   6.281  0.1967  0.2258 -0.2380
   38CHL1   H14 3935   4.468   1.962   6.284 -0.6684  0.0100  1.3772
   38CHL1   C15 3936   4.542   2.140   6.202 -0.2539 -0.3302 -0.4205
   38CHL1  H15A 3937   4.539   2.243   6.245 -1.9513 -0.9830  1.1466
   38CHL1  H15B 3938   4.641   2.091   6.208 -0.4678 -0.7314 -0.1272
   38CHL1   C16 3939   4.498   2.132   6.055 -0.2997  0.7610  0.2039
   38CHL1  H16A 3940   4.476   2.233   6.015  0.9575  0.0972 -2.3116
   38CHL1  H16B 3941   4.573   2.094   5.983 -0.1161  2.1238 -0.3490
   38CHL1   C17 3942   4.370   2.050   6.050  0.0996 -0.1855  0.0389
   38CHL1   H17 3943   4.404   1.945   6.042 -1.1313 -0.6628  0.8229
   38CHL1   C13 3944   4.310   2.073   6.190 -0.4313  0.5402 -0.0992
   38CHL1   C18 3945   4.249   2.213   6.197 -0.2043  0.0357 -0.0566
   38CHL1  H18A 3946   4.234   2.249   6.301  0.3510  0.2960 -0.0637
   38CHL1  H18B 3947   4.330   2.276   6.154  0.9414 -0.8587  0.7153
   38CHL1  H18C 3948   4.157   2.227   6.135 -0.4160  2.1050  0.6663
   38CHL1   C12 3949   4.214   1.969   6.242  0.1402 -0.1255 -0.2444
   38CHL1  H12A 3950   4.111   1.978   6.201  0.2857  0.3291 -0.5143
   38CHL1  H12B 3951   4.263   1.869   6.235 -0.3372 -0.5069  1.3132
   38CHL1   C11 3952   4.181   1.998   6.385 -0.1643  0.3770 -0.2038
   38CHL1  H11A 3953   4.127   2.094   6.401 -2.3949 -1.2711  3.3405
   38CHL1  H11B 3954   4.110   1.924   6.427 -0.1396 -0.2213 -1.1955
   38CHL1    C9 3955   4.311   2.003   6.481 -0.0373 -0.4480 -0.0523
   38CHL1    H9 3956   4.346   1.898   6.468 -1.7484 -1.1762  0.8565
   38CHL1   C10 3957   4.276   2.029   6.633 -0.3983  0.2462  0.7541
   38CHL1   C19 3958   4.189   2.162   6.628 -0.0296 -0.0306 -0.4587
   38CHL1  H19A 3959   4.081   2.138   6.617 -0.3269 -0.2293  2.2766
   38CHL1  H19B 3960   4.204   2.228   6.716 -0.3985 -0.2207 -0.2509
   38CHL1  H19C 3961   4.225   2.232   6.550 -0.4849  3.1533  2.0034
   38CHL1    C1 3962   4.198   1.915   6.700  0.1501  0.4252  0.5536
   38CHL1   H1A 3963   4.100   1.900   6.650  0.2543 -0.3995  0.5965
   38CHL1   H1B 3964   4.253   1.821   6.678  2.1643  1.6885 -0.0942
   38CHL1    C2 3965   4.170   1.936   6.846  0.1679  0.3073  0.3212
   38CHL1   H2A 3966   4.115   1.842   6.870  0.3621 -0.0723 -0.6805
   38CHL1   H2B 3967   4.116   2.031   6.864  1.3244  1.4710 -2.0144
   38CHL1   C20 3968   4.290   2.068   5.928 -0.2480  0.8513  0.1160
   38CHL1   H20 3969   4.276   2.176   5.910  0.5081  0.5489 -2.8174
   38CHL1   C21 3970   4.153   2.006   5.926  0.4398 -0.7009  0.0794
   38CHL1  H21A 3971   4.095   2.058   6.005  0.8122 -0.0555 -0.0643
   38CHL1  H21B 3972   4.154   1.896   5.946  2.1823 -0.6294  0.4959
   38CHL1  H21C 3973   4.092   2.022   5.834  3.3575 -1.9258 -2.2217
   38CHL1   C22 3974   4.355   2.021   5.799 -0.7937  0.4557 -0.3314
   38CHL1  H22A 3975   4.462   2.049   5.789 -0.2825 -0.0611  2.6589
   38CHL1  H22B 3976   4.346   1.911   5.786  0.3284  0.5064 -1.7302
   38CHL1   C23 3977   4.306   2.090   5.673  0.4583  0.4211  0.2329
   38CHL1  H23A 3978   4.202   2.059   5.652  0.6255  0.4447 -0.7037
   38CHL1  H23B 3979   4.298   2.201   5.681  0.9540  0.4742  0.0663
   38CHL1   C24 3980   4.391   2.059   5.544  0.2639  0.6985  0.1112
   38CHL1  H24A 3981   4.497   2.090   5.547  0.7842 -0.7751 -1.6438
   38CHL1  H24B 3982   4.400   1.950   5.528  1.0299  0.4325  2.0891
   38CHL1   C25 3983   4.349   2.145   5.414 -1.2100  0.0471 -0.2085
   38CHL1   H25 3984   4.325   2.246   5.455 -1.3553 -0.5170  1.1409
   38CHL1   C26 3985   4.455   2.140   5.302 -0.5115 -0.3476  0.3780
   38CHL1  H26A 3986   4.552   2.188   5.327  0.1461  0.5653 -3.3742
   38CHL1  H26B 3987   4.473   2.037   5.263 -1.8038 -0.0915 -0.9900
   38CHL1  H26C 3988   4.420   2.203   5.218 -0.2796  1.7559  1.7789
   38CHL1   C27 3989   4.230   2.089   5.359  0.4611 -0.1328 -1.0351
   38CHL1  H27A 3990   4.238   1.978   5.359 -0.9074 -0.2472 -1.2295
   38CHL1  H27B 3991   4.138   2.100   5.420  0.1555  0.4677 -1.5949
   38CHL1  H27C 3992   4.210   2.121   5.255 -3.7675 -0.6180 -0.5783
   39CHL1    C3 3993   0.211   2.112   6.829  0.8334 -0.2996 -0.5777
   39CHL1    H3 3994   0.125   2.045   6.809  0.3149  0.6938 -1.8343
   39CHL1    O3 3995   0.280   2.082   6.946  0.1484 -0.2056 -0.6123
   39CHL1   H3' 3996   0.265   2.162   6.997  0.5296  0.3080 -1.2991
   39CHL1    C4 3997   0.316   2.098   6.720  0.9597  0.1247 -0.3754
   39CHL1   H4A 3998   0.411   2.155   6.734  0.3008  0.7501  2.0751
   39CHL1   H4B 3999   0.349   1.992   6.722  2.0352  0.4531 -0.2473
   39CHL1    C5 4000   0.246   2.140   6.589 -0.3859  0.5629 -0.1344
   39CHL1    C6 4001   0.238   2.055   6.487  0.1173  0.5298  0.1512
   39CHL1    H6 4002   0.284   1.956   6.502  0.8566  0.8274 -0.0835
   39CHL1    C7 4003   0.191   2.097   6.351 -0.4878 -0.8623 -0.4635
   39CHL1   H7A 4004   0.264   2.065   6.274  0.1062 -0.5574 -0.0315
   39CHL1   H7B 4005   0.091   2.051   6.335 -1.0583 -0.5941  1.8779
   39CHL1    C8 4006   0.167   2.252   6.329 -0.3440 -0.1511 -0.1727
   39CHL1    H8 4007   0.268   2.293   6.306  0.2389 -1.3951  0.0820
   39CHL1   C14 4008   0.073   2.283   6.213 -1.5331 -0.0912 -0.4248
   39CHL1   H14 4009  -0.027   2.256   6.252 -1.6479  1.0159  0.0886
   39CHL1   C15 4010   0.093   2.216   6.077 -0.1922  0.4115 -0.4849
   39CHL1  H15A 4011   0.200   2.221   6.045 -0.1083 -0.4825 -0.3492
   39CHL1  H15B 4012   0.075   2.108   6.064  1.6384  0.1272 -1.0519
   39CHL1   C16 4013   0.004   2.295   5.982 -0.3115 -0.0787 -0.2107
   39CHL1  H16A 4014   0.052   2.295   5.882 -0.4783  0.4987 -0.2938
   39CHL1  H16B 4015  -0.099   2.257   5.966 -0.7873  0.6647  0.9036
   39CHL1   C17 4016  -0.030   2.427   6.058  1.1748 -0.4049 -0.2413
   39CHL1   H17 4017  -0.126   2.417   6.115  1.8875  0.2047  1.1159
   39CHL1   C13 4018   0.061   2.430   6.184 -0.0436  0.2364 -0.2447
   39CHL1   C18 4019   0.208   2.490   6.145 -0.3454 -0.0652  0.6764
   39CHL1  H18A 4020   0.198   2.600   6.128  2.0921 -0.0221 -0.8708
   39CHL1  H18B 4021   0.287   2.458   6.215 -0.6725 -3.0465 -0.1794
   39CHL1  H18C 4022   0.239   2.451   6.046 -1.9869 -0.3171  0.2209
   39CHL1   C12 4023   0.013   2.500   6.310  0.3530  0.0292 -0.1794
   39CHL1  H12A 4024   0.005   2.610   6.299 -1.9658  0.0075  0.8472
   39CHL1  H12B 4025  -0.088   2.462   6.335 -0.5059  1.4380 -1.3848
   39CHL1   C11 4026   0.097   2.474   6.430  0.7855 -0.5782  0.3750
   39CHL1  H11A 4027   0.201   2.507   6.408  0.7546 -0.1846  0.8151
   39CHL1  H11B 4028   0.050   2.514   6.522 -2.4136  0.1279 -1.4087
   39CHL1    C9 4029   0.123   2.321   6.454  0.1775 -0.5850  0.0169
   39CHL1    H9 4030   0.022   2.277   6.472 -0.5265  1.1986  0.7048
   39CHL1   C10 4031   0.199   2.290   6.581 -0.5769 -0.0025 -0.3834
   39CHL1   C19 4032   0.332   2.375   6.583 -0.2611  0.3227 -0.0968
   39CHL1  H19A 4033   0.384   2.359   6.680  0.5122 -1.7759 -0.8053
   39CHL1  H19B 4034   0.400   2.359   6.497  0.8008  0.9333  0.6084
   39CHL1  H19C 4035   0.304   2.483   6.583  2.2022  1.0188 -0.0232
   39CHL1    C1 4036   0.111   2.321   6.708  0.3401 -0.3560  0.5669
   39CHL1   H1A 4037   0.122   2.432   6.715 -0.7079 -0.2510  0.8003
   39CHL1   H1B 4038   0.004   2.294   6.697 -0.6333  2.5917  1.6405
   39CHL1    C2 4039   0.165   2.259   6.838  0.2119  0.2596 -1.2099
   39CHL1   H2A 4040   0.089   2.270   6.918 -0.2773  1.2252 -1.7907
   39CHL1   H2B 4041   0.253   2.319   6.870  1.8091 -2.0254 -1.0590
   39CHL1   C20 4042  -0.058   2.548   5.980  0.2234  0.2364  0.0848
   39CHL1   H20 4043   0.025   2.570   5.909  0.1902  0.3385  0.0776
   39CHL1   C21 4044  -0.076   2.680   6.068  0.3553 -0.1732  0.0204
   39CHL1  H21A 4045  -0.121   2.759   6.003 -1.9773 -0.0388  1.6852
   39CHL1  H21B 4046   0.015   2.725   6.114 -0.2476 -0.1631  1.2308
   39CHL1  H21C 4047  -0.149   2.652   6.146  0.8182 -2.3840 -0.2922
   39CHL1   C22 4048  -0.180   2.531   5.887  0.8187 -0.3259 -0.4911
   39CHL1  H22A 4049  -0.178   2.424   5.857  3.1217 -1.2185  2.3232
   39CHL1  H22B 4050  -0.273   2.572   5.931  0.5459  0.6821 -1.9336
   39CHL1   C23 4051  -0.150   2.605   5.757  0.1446 -0.8242 -0.3538
   39CHL1  H23A 4052  -0.171   2.713   5.772 -0.0446 -0.7185 -1.3589
   39CHL1  H23B 4053  -0.047   2.594   5.718 -0.4548 -1.0624 -1.9405
   39CHL1   C24 4054  -0.247   2.562   5.647  0.2444 -0.8394 -0.5288
   39CHL1  H24A 4055  -0.227   2.457   5.616  3.1068 -0.4690 -0.2350
   39CHL1  H24B 4056  -0.351   2.559   5.686 -0.4144 -1.1504 -2.2003
   39CHL1   C25 4057  -0.238   2.657   5.521 -0.1625 -0.4115  0.4885
   39CHL1   H25 4058  -0.129   2.670   5.502 -0.7549  1.0352 -2.4854
   39CHL1   C26 4059  -0.294   2.582   5.403  0.1707  0.1577 -1.1578
   39CHL1  H26A 4060  -0.397   2.556   5.436  1.3430 -0.0490  2.8221
   39CHL1  H26B 4061  -0.300   2.651   5.316  0.0654  0.5951 -0.8131
   39CHL1  H26C 4062  -0.244   2.484   5.388  1.3663  0.3042  1.3182
   39CHL1   C27 4063  -0.305   2.797   5.536  0.1050  0.1129 -0.5850
   39CHL1  H27A 4064  -0.260   2.848   5.624  0.0867 -0.5847 -0.1624
   39CHL1  H27B 4065  -0.298   2.864   5.448 -1.8429  0.4718 -0.5088
   39CHL1  H27C 4066  -0.413   2.783   5.560  0.1242 -0.6537 -0.9220
   40CHL1    C3 4067   6.471   1.591   6.917 -0.2639 -0.2265 -0.1916
   40CHL1    H3 4068   6.568   1.630   6.879  0.1862 -1.0458  0.0888
   40CHL1    O3 4069   6.453   1.633   7.052  0.6865  0.2927  0.5821
   40CHL1   H3' 4070   6.391   1.569   7.087  1.1718 -0.7884 -0.4746
   40CHL1    C4 4071   6.359   1.647   6.826 -0.0562  0.6195 -0.1121
   40CHL1   H4A 4072   6.264   1.599   6.858 -0.2211  0.3530 -0.9684
   40CHL1   H4B 4073   6.341   1.756   6.838 -1.8099  0.1266  2.6517
   40CHL1    C5 4074   6.365   1.608   6.682 -0.0055 -0.0643 -0.2681
   40CHL1    C6 4075   6.353   1.699   6.585  0.1973  0.6132  0.0908
   40CHL1    H6 4076   6.351   1.805   6.617 -1.2590 -0.2386  3.2178
   40CHL1    C7 4077   6.347   1.669   6.440 -0.7792 -1.1383  0.2321
   40CHL1   H7A 4078   6.275   1.726   6.376 -0.3001 -1.2119 -0.3797
   40CHL1   H7B 4079   6.443   1.693   6.390 -1.4193 -0.6161 -0.7833
   40CHL1    C8 4080   6.337   1.517   6.413 -0.1839 -0.4211 -0.4174
   40CHL1    H8 4081   6.230   1.495   6.434 -1.0045  3.6605  0.5393
   40CHL1   C14 4082   6.362   1.488   6.264  0.5605 -0.1327 -0.6614
   40CHL1   H14 4083   6.455   1.541   6.234 -0.2768  1.2086 -0.9749
   40CHL1   C15 4084   6.258   1.549   6.168 -0.1720  0.1082  0.2777
   40CHL1  H15A 4085   6.159   1.550   6.218 -0.5509 -0.8364 -0.4226
   40CHL1  H15B 4086   6.284   1.655   6.148 -0.8567  0.2310  0.0075
   40CHL1   C16 4087   6.272   1.457   6.041  0.1373 -0.5170  0.2594
   40CHL1  H16A 4088   6.177   1.400   6.028 -0.2112  0.0502  0.2553
   40CHL1  H16B 4089   6.286   1.517   5.949 -2.5979  0.6254  0.4627
   40CHL1   C17 4090   6.373   1.342   6.071  0.3683 -0.2818 -0.3948
   40CHL1   H17 4091   6.467   1.390   6.037  0.0138 -0.0569 -1.0725
   40CHL1   C13 4092   6.368   1.342   6.228 -0.2758 -0.2224  0.3238
   40CHL1   C18 4093   6.243   1.260   6.268 -0.3623  0.5720 -0.2394
   40CHL1  H18A 4094   6.249   1.150   6.257  1.5892  0.3017  2.4721
   40CHL1  H18B 4095   6.228   1.292   6.373  0.1451 -0.9449  0.3215
   40CHL1  H18C 4096   6.156   1.297   6.208 -0.7006  0.2690  0.0606
   40CHL1   C12 4097   6.488   1.290   6.302 -0.0158  0.6000 -0.4855
   40CHL1  H12A 4098   6.510   1.186   6.272  0.2891  0.3644  0.4959
   40CHL1  H12B 4099   6.574   1.356   6.276 -0.8268  1.9078  0.0158
   40CHL1   C11 4100   6.468   1.295   6.454 -0.1995  0.0644  0.2867
   40CHL1  H11A 4101   6.386   1.226   6.485  0.3173 -0.6268  0.1511
   40CHL1  H11B 4102   6.553   1.265   6.518 -0.4041 -0.0228  0.5178
   40CHL1    C9 4103   6.432   1.439   6.505  0.5856 -0.0144 -0.0210
   40CHL1    H9 4104   6.524   1.500   6.486 -0.0119  1.2758  1.0444
   40CHL1   C10 4105   6.386   1.457   6.654 -0.4132 -0.7701  0.3824
   40CHL1   C19 4106   6.265   1.362   6.677  0.4309  0.2947 -0.3737
   40CHL1  H19A 4107   6.294   1.256   6.661  0.3776  0.1833  0.2380
   40CHL1  H19B 4108   6.246   1.378   6.785  3.7177 -0.4143  0.4244
   40CHL1  H19C 4109   6.175   1.380   6.615 -0.4235 -0.4040  0.6264
   40CHL1    C1 4110   6.494   1.407   6.755  0.2859  0.3328  0.0455
   40CHL1   H1A 4111   6.480   1.298   6.744  1.6128  0.0416  0.9579
   40CHL1   H1B 4112   6.592   1.434   6.710  0.4304  3.5209  1.9488
   40CHL1    C2 4113   6.481   1.442   6.904  0.2783  0.0593 -0.3732
   40CHL1   H2A 4114   6.573   1.410   6.958  0.4103 -1.2710 -1.3369
   40CHL1   H2B 4115   6.387   1.395   6.940  0.1837  1.0702  0.7445
   40CHL1   C20 4116   6.345   1.217   5.986  0.0622  0.0624  0.9054
   40CHL1   H20 4117   6.242   1.182   6.009  0.7663 -2.0007  1.0947
   40CHL1   C21 4118   6.446   1.111   6.026 -0.5359  0.7000 -0.1854
   40CHL1  H21A 4119   6.548   1.155   6.036 -1.0688  1.7505  1.1393
   40CHL1  H21B 4120   6.445   1.027   5.955  0.6355  1.8838 -1.6641
   40CHL1  H21C 4121   6.420   1.070   6.126 -1.5618 -1.3602 -1.2443
   40CHL1   C22 4122   6.362   1.235   5.827 -0.8367  0.0191  0.2426
   40CHL1  H22A 4123   6.324   1.335   5.797 -0.5391  0.1716  0.3638
   40CHL1  H22B 4124   6.471   1.239   5.805 -0.9858  0.7776 -0.4203
   40CHL1   C23 4125   6.281   1.129   5.758 -0.3995  0.5610  0.3635
   40CHL1  H23A 4126   6.332   1.030   5.764  0.0125  0.7458 -0.0799
   40CHL1  H23B 4127   6.182   1.124   5.809  0.0645 -2.6729  1.1914
   40CHL1   C24 4128   6.251   1.175   5.615  0.2784  0.1830  0.1412
   40CHL1  H24A 4129   6.226   1.283   5.615  0.5429  0.2505  1.4792
   40CHL1  H24B 4130   6.324   1.150   5.535  0.1401 -2.6142  0.8024
   40CHL1   C25 4131   6.137   1.084   5.560  0.7315  0.0431  0.3872
   40CHL1   H25 4132   6.040   1.109   5.609  0.4425 -0.0148 -0.1518
   40CHL1   C26 4133   6.110   1.114   5.406 -0.6080  0.1385 -0.4230
   40CHL1  H26A 4134   6.205   1.130   5.351 -0.5628 -0.0900 -0.4140
   40CHL1  H26B 4135   6.054   1.035   5.350  0.0085 -0.6122 -0.0076
   40CHL1  H26C 4136   6.058   1.211   5.393 -0.6465  0.3333  1.0459
   40CHL1   C27 4137   6.158   0.941   5.569 -0.5143 -0.1873 -0.5006
   40CHL1  H27A 4138   6.139   0.902   5.671 -1.9835  3.5439  0.8132
   40CHL1  H27B 4139   6.086   0.893   5.499 -0.0150  0.1205 -1.2472
   40CHL1  H27C 4140   6.258   0.900   5.542 -0.4197 -0.9251  0.8869
   41CHL1    C3 4141   2.085   0.317   6.658 -0.2303  0.5254  0.4258
   41CHL1    H3 4142   1.975   0.301   6.657 -0.1846 -0.0850 -2.1753
   41CHL1    O3 4143   2.130   0.356   6.787 -0.0559  0.1127 -0.1718
   41CHL1   H3' 4144   2.225   0.373   6.782 -0.1797  0.4750 -1.7221
   41CHL1    C4 4145   2.154   0.188   6.619  0.5835 -0.6064 -0.2068
   41CHL1   H4A 4146   2.263   0.204   6.629  0.3137  0.0276  2.5253
   41CHL1   H4B 4147   2.140   0.102   6.688  3.1024  0.4144  1.7507
   41CHL1    C5 4148   2.128   0.161   6.478 -0.3569  0.1975  0.3032
   41CHL1    C6 4149   2.088   0.036   6.445  0.1882  0.4810  0.1514
   41CHL1    H6 4150   2.076  -0.039   6.525  1.0902  0.4636  0.2711
   41CHL1    C7 4151   2.069  -0.015   6.303 -0.3494 -0.8898 -0.1024
   41CHL1   H7A 4152   2.114  -0.117   6.296 -2.9588 -2.1597  0.5513
   41CHL1   H7B 4153   1.960  -0.012   6.285 -0.5284 -0.4720  1.0184
   41CHL1    C8 4154   2.140   0.081   6.203  0.3267 -0.6303  0.3297
   41CHL1    H8 4155   2.250   0.071   6.216  0.5769  2.0076  0.7501
   41CHL1   C14 4156   2.103   0.054   6.055 -0.1683 -0.7218 -0.4806
   41CHL1   H14 4157   1.995   0.078   6.050 -0.0572 -0.0534  0.0951
   41CHL1   C15 4158   2.120  -0.093   6.015  0.8172  0.2431  0.3213
   41CHL1  H15A 4159   2.215  -0.136   6.052  0.4162 -2.4797 -1.5091
   41CHL1  H15B 4160   2.031  -0.145   6.057 -1.2839  3.6804  0.5574
   41CHL1   C16 4161   2.108  -0.092   5.864  0.0586 -0.1310 -0.6215
   41CHL1  H16A 4162   2.192  -0.151   5.823  0.8420  0.4654  0.0851
   41CHL1  H16B 4163   2.007  -0.130   5.839 -0.6441 -0.6235  2.5637
   41CHL1   C17 4164   2.120   0.066   5.816  0.0622 -0.4835  0.1924
   41CHL1   H17 4165   2.017   0.103   5.802  0.7943  1.4563 -0.4814
   41CHL1   C13 4166   2.172   0.135   5.943  0.0988  0.2029 -0.7468
   41CHL1   C18 4167   2.329   0.124   5.950  0.3112 -0.2455 -0.3762
   41CHL1  H18A 4168   2.372   0.027   5.917  0.5274  0.5301 -2.6062
   41CHL1  H18B 4169   2.362   0.203   5.879 -1.2127 -0.5263 -1.4547
   41CHL1  H18C 4170   2.360   0.142   6.055 -0.7767 -1.4630  0.1905
   41CHL1   C12 4171   2.132   0.275   5.975 -0.3992 -0.7478  0.0169
   41CHL1  H12A 4172   2.176   0.341   5.898 -3.5764  0.0840 -1.2472
   41CHL1  H12B 4173   2.023   0.288   5.963 -1.0872 -1.0114  4.3115
   41CHL1   C11 4174   2.160   0.313   6.117  0.0550  0.4511 -0.2498
   41CHL1  H11A 4175   2.270   0.321   6.124  0.3715 -2.8639  0.1550
   41CHL1  H11B 4176   2.113   0.413   6.119  0.6221  0.8069 -2.3749
   41CHL1    C9 4177   2.100   0.224   6.231 -0.3538  0.3988  0.8486
   41CHL1    H9 4178   1.989   0.230   6.227 -0.2258  3.9469 -0.8507
   41CHL1   C10 4179   2.144   0.272   6.369 -0.1316  0.8740 -0.6044
   41CHL1   C19 4180   2.301   0.290   6.371 -0.1194  0.5434  0.0792
   41CHL1  H19A 4181   2.353   0.206   6.320  0.1578 -0.0038  1.2367
   41CHL1  H19B 4182   2.328   0.383   6.316 -0.5792  0.7125  0.1422
   41CHL1  H19C 4183   2.349   0.296   6.471  1.6357 -3.0596 -0.3881
   41CHL1    C1 4184   2.083   0.403   6.419 -0.1071 -1.0876  0.2924
   41CHL1   H1A 4185   2.111   0.487   6.351 -1.8541  0.1640  1.0477
   41CHL1   H1B 4186   1.973   0.392   6.418 -0.0246 -1.9931 -0.9236
   41CHL1    C2 4187   2.112   0.438   6.564  0.2941 -0.2505  0.3059
   41CHL1   H2A 4188   2.054   0.522   6.607 -0.6838 -1.9857  2.5852
   41CHL1   H2B 4189   2.219   0.465   6.573  0.0238  0.9443  0.1292
   41CHL1   C20 4190   2.184   0.088   5.676  1.0216  0.0693 -0.3908
   41CHL1   H20 4191   2.287   0.047   5.683  1.2493  0.9017  2.0784
   41CHL1   C21 4192   2.200   0.236   5.652 -0.5568  0.2965  0.1165
   41CHL1  H21A 4193   2.285   0.270   5.714  0.8015  0.1831 -1.5902
   41CHL1  H21B 4194   2.104   0.286   5.672 -0.2071  0.3146  1.8737
   41CHL1  H21C 4195   2.232   0.267   5.550  3.9328  0.9861  1.5160
   41CHL1   C22 4196   2.104   0.028   5.557  0.7768  0.3645  0.1878
   41CHL1  H22A 4197   1.995   0.037   5.579  0.6510 -0.4977 -0.0196
   41CHL1  H22B 4198   2.130   0.099   5.476  1.4135 -0.7527 -0.6201
   41CHL1   C23 4199   2.139  -0.117   5.527 -0.1270  0.7280  0.4463
   41CHL1  H23A 4200   2.249  -0.122   5.513 -0.1163  1.1944  0.3570
   41CHL1  H23B 4201   2.118  -0.193   5.605  0.1336  0.8937  0.6813
   41CHL1   C24 4202   2.086  -0.181   5.393  0.1817  0.4410 -0.2783
   41CHL1  H24A 4203   2.148  -0.271   5.372 -0.1139  0.1419  0.1197
   41CHL1  H24B 4204   1.985  -0.226   5.393  1.0374 -1.6172 -1.2319
   41CHL1   C25 4205   2.100  -0.091   5.269  0.2895  0.3263 -0.1669
   41CHL1   H25 4206   2.035  -0.001   5.271  0.7051  0.6839 -1.6719
   41CHL1   C26 4207   2.244  -0.047   5.250  0.3944  0.2319  0.4183
   41CHL1  H26A 4208   2.263  -0.008   5.148 -0.7461  1.1993  0.5544
   41CHL1  H26B 4209   2.272   0.033   5.323  2.6904 -2.0328  2.2132
   41CHL1  H26C 4210   2.315  -0.129   5.274 -0.1145 -0.5222 -0.6069
   41CHL1   C27 4211   2.050  -0.166   5.149  0.0300  0.5491 -0.0763
   41CHL1  H27A 4212   2.097  -0.267   5.152  0.2507  0.5210 -2.6300
   41CHL1  H27B 4213   1.940  -0.182   5.161  0.1084 -0.6127 -0.7789
   41CHL1  H27C 4214   2.085  -0.110   5.060 -0.8476  0.4881 -0.4769
   42CHL1    C3 4215   0.371   1.168   6.676 -0.5859 -0.2086 -0.2387
   42CHL1    H3 4216   0.321   1.071   6.657  1.9099 -1.6446  0.1224
   42CHL1    O3 4217   0.349   1.200   6.812  0.6918  0.2278 -0.3802
   42CHL1   H3' 4218   0.436   1.231   6.840  1.8353 -0.4566 -2.8825
   42CHL1    C4 4219   0.521   1.153   6.648 -0.2577 -0.7389 -0.0580
   42CHL1   H4A 4220   0.561   1.252   6.679 -1.2943 -0.4787  0.4723
   42CHL1   H4B 4221   0.551   1.079   6.725 -4.1403 -1.7693  0.6643
   42CHL1    C5 4222   0.563   1.127   6.508  0.2484 -0.1162 -0.0131
   42CHL1    C6 4223   0.648   1.029   6.470 -0.6366 -0.4112  0.0129
   42CHL1    H6 4224   0.694   0.957   6.540  0.3191  1.1632  1.0632
   42CHL1    C7 4225   0.687   1.002   6.324  0.1184 -0.0165  0.1632
   42CHL1   H7A 4226   0.795   0.975   6.318 -0.0235 -1.2289  2.1136
   42CHL1   H7B 4227   0.622   0.917   6.293 -0.3815 -0.4738  2.2777
   42CHL1    C8 4228   0.651   1.130   6.235  0.3542  0.8620  0.1167
   42CHL1    H8 4229   0.721   1.212   6.264  0.8092  0.4199  0.2882
   42CHL1   C14 4230   0.661   1.100   6.091  0.4262 -0.2119 -0.3169
   42CHL1   H14 4231   0.594   1.014   6.072 -0.3873  0.0835  1.0529
   42CHL1   C15 4232   0.796   1.060   6.042  0.0952 -0.1394  0.0716
   42CHL1  H15A 4233   0.870   1.122   6.097  0.2380 -1.5652  1.5824
   42CHL1  H15B 4234   0.826   0.956   6.068  2.6651  0.6154  0.4648
   42CHL1   C16 4235   0.797   1.081   5.891  0.8230  0.1506  0.5345
   42CHL1  H16A 4236   0.882   1.145   5.859 -0.0590  1.8386  1.4004
   42CHL1  H16B 4237   0.801   0.985   5.835  3.7052 -0.7918  2.1532
   42CHL1   C17 4238   0.661   1.143   5.859 -0.0184 -0.4077  0.5946
   42CHL1   H17 4239   0.593   1.055   5.859 -2.3152  1.2960 -0.1629
   42CHL1   C13 4240   0.622   1.215   5.993  0.2007  0.5003  0.4688
   42CHL1   C18 4241   0.697   1.348   6.026  0.1192 -0.5547 -0.0618
   42CHL1  H18A 4242   0.807   1.341   6.012  0.0088 -1.1718 -0.6696
   42CHL1  H18B 4243   0.671   1.422   5.947  0.7328 -0.8531 -0.5575
   42CHL1  H18C 4244   0.680   1.396   6.125 -1.7156  0.2951 -0.7497
   42CHL1   C12 4245   0.473   1.243   6.008 -0.1472 -0.4687 -0.7744
   42CHL1  H12A 4246   0.444   1.327   5.941 -1.1906  2.2019  2.7434
   42CHL1  H12B 4247   0.410   1.158   5.976 -0.5467 -0.8915  1.0219
   42CHL1   C11 4248   0.437   1.268   6.158  0.0364  0.3577 -0.5328
   42CHL1  H11A 4249   0.447   1.378   6.175 -0.8517  0.2609  0.7275
   42CHL1  H11B 4250   0.327   1.257   6.172  0.1578  1.3451  1.5931
   42CHL1    C9 4251   0.508   1.175   6.265  0.8983 -0.1414  0.0844
   42CHL1    H9 4252   0.440   1.088   6.259 -0.4091  0.9564 -2.1732
   42CHL1   C10 4253   0.496   1.229   6.412 -0.1462  0.3455 -0.0919
   42CHL1   C19 4254   0.576   1.364   6.419  0.1706  0.0277  0.2585
   42CHL1  H19A 4255   0.565   1.403   6.523  1.6900 -1.1342  0.8966
   42CHL1  H19B 4256   0.680   1.357   6.381 -0.9142 -0.9601 -2.7473
   42CHL1  H19C 4257   0.515   1.428   6.352  1.7025 -0.9550 -2.1660
   42CHL1    C1 4258   0.342   1.250   6.443 -0.3073 -0.0001  0.2133
   42CHL1   H1A 4259   0.298   1.327   6.378  1.2202  0.8425  0.1395
   42CHL1   H1B 4260   0.295   1.151   6.423 -0.9009  0.3035  0.0884
   42CHL1    C2 4261   0.309   1.276   6.585  0.6300 -0.4964 -0.1075
   42CHL1   H2A 4262   0.200   1.282   6.610  1.1241  0.9521  1.9653
   42CHL1   H2B 4263   0.363   1.368   6.616  0.5319 -1.1478  2.1752
   42CHL1   C20 4264   0.639   1.223   5.728  0.0520  0.1662 -0.9289
   42CHL1   H20 4265   0.651   1.331   5.749 -1.6020  0.6058 -2.0794
   42CHL1   C21 4266   0.497   1.189   5.667  0.5232 -0.1778  0.0819
   42CHL1  H21A 4267   0.485   1.237   5.567  2.8027 -0.8815 -0.5830
   42CHL1  H21B 4268   0.418   1.220   5.739 -0.5764  0.7128 -1.4303
   42CHL1  H21C 4269   0.485   1.078   5.667  1.3965 -0.2977  1.6771
   42CHL1   C22 4270   0.747   1.197   5.623 -0.0533 -0.3224 -0.2210
   42CHL1  H22A 4271   0.844   1.224   5.670 -0.5092  0.9500  0.0478
   42CHL1  H22B 4272   0.744   1.093   5.585  3.0399 -0.7520  0.4753
   42CHL1   C23 4273   0.754   1.286   5.495 -0.0206 -0.3544  0.1792
   42CHL1  H23A 4274   0.656   1.274   5.443  1.0886 -1.7388 -1.7362
   42CHL1  H23B 4275   0.751   1.393   5.521  0.5805 -0.4903  0.8059
   42CHL1   C24 4276   0.870   1.250   5.406  0.0922 -0.0036  0.3726
   42CHL1  H24A 4277   0.963   1.275   5.461  0.5563 -2.0088  0.5801
   42CHL1  H24B 4278   0.872   1.143   5.375 -1.3848 -0.7359  2.4928
   42CHL1   C25 4279   0.886   1.333   5.272  0.3796 -0.3703 -0.2335
   42CHL1   H25 4280   0.878   1.440   5.303 -1.0656 -0.5670  0.1257
   42CHL1   C26 4281   1.024   1.314   5.214 -0.1020 -0.7661  0.8716
   42CHL1  H26A 4282   1.042   1.396   5.142 -1.6852 -0.3623  0.8914
   42CHL1  H26B 4283   1.111   1.326   5.283  1.7049  0.8270 -1.5301
   42CHL1  H26C 4284   1.035   1.220   5.155 -1.8293  0.5731 -1.7652
   42CHL1   C27 4285   0.775   1.314   5.168 -0.2220 -0.2212 -0.5006
   42CHL1  H27A 4286   0.775   1.219   5.111 -1.7036 -1.1662  0.9815
   42CHL1  H27B 4287   0.673   1.321   5.213 -0.5060 -0.4507 -1.0936
   42CHL1  H27C 4288   0.784   1.403   5.102  2.3289  0.3373  0.4813
   43CHL1    C3 4289   2.011   4.021   7.013 -0.1486  0.1133  0.2340
   43CHL1    H3 4290   2.068   3.929   6.985  0.6872  0.1709  1.6507
   43CHL1    O3 4291   2.018   4.009   7.155  0.6681 -0.1829  0.4196
   43CHL1   H3' 4292   1.944   4.053   7.198  2.9619  3.0202  1.4498
   43CHL1    C4 4293   2.088   4.137   6.959 -1.5089 -0.6394 -0.7100
   43CHL1   H4A 4294   2.042   4.233   6.992 -1.8051 -1.0650  0.1311
   43CHL1   H4B 4295   2.188   4.135   7.008 -0.2906  1.9990 -2.7613
   43CHL1    C5 4296   2.103   4.130   6.809 -0.2334 -0.2144  0.4315
   43CHL1    C6 4297   2.215   4.117   6.745 -0.3407 -0.0718  0.2198
   43CHL1    H6 4298   2.303   4.135   6.808  0.0363 -2.3974  0.4230
   43CHL1    C7 4299   2.230   4.109   6.597  0.1389 -1.0727  0.4888
   43CHL1   H7A 4300   2.297   4.196   6.576  0.1120 -1.1354  0.1281
   43CHL1   H7B 4301   2.279   4.021   6.551 -0.6728 -0.5724 -1.4453
   43CHL1    C8 4302   2.097   4.138   6.520 -0.6228  0.0865  0.3772
   43CHL1    H8 4303   2.076   4.248   6.519 -0.0432  0.2632  2.8479
   43CHL1   C14 4304   2.117   4.085   6.378 -0.2502  0.1334 -0.2934
   43CHL1   H14 4305   2.131   3.976   6.396 -0.1089  0.6467  3.5270
   43CHL1   C15 4306   2.243   4.130   6.293  0.6383 -0.6567  0.0876
   43CHL1  H15A 4307   2.241   4.241   6.288  2.7600 -0.6233 -1.6080
   43CHL1  H15B 4308   2.338   4.099   6.342  0.5291 -1.4319 -0.1846
   43CHL1   C16 4309   2.208   4.074   6.159  0.5659  0.6858  0.3097
   43CHL1  H16A 4310   2.224   4.158   6.087  0.4329  0.9351  0.5689
   43CHL1  H16B 4311   2.278   3.993   6.131 -0.0354  0.7279 -1.3932
   43CHL1   C17 4312   2.055   4.033   6.156  0.2096 -0.3039 -0.1132
   43CHL1   H17 4313   2.058   3.923   6.169  3.0336 -0.1445  1.6665
   43CHL1   C13 4314   1.999   4.093   6.286 -0.3690 -0.9617 -0.1661
   43CHL1   C18 4315   1.963   4.244   6.267  0.6026 -0.2156  0.2816
   43CHL1  H18A 4316   1.966   4.309   6.357  3.1924 -0.8568  0.7161
   43CHL1  H18B 4317   2.030   4.300   6.198  0.2567 -0.2117 -0.0545
   43CHL1  H18C 4318   1.860   4.254   6.226  0.6318  1.3714  0.5181
   43CHL1   C12 4319   1.880   4.022   6.349  0.2733  0.3346 -0.2916
   43CHL1  H12A 4320   1.780   4.039   6.302  0.3272  1.7162  0.0385
   43CHL1  H12B 4321   1.896   3.913   6.342  1.1027  0.0742  3.5043
   43CHL1   C11 4322   1.853   4.068   6.492  0.6648  0.5760  1.2718
   43CHL1  H11A 4323   1.808   4.170   6.491 -0.0873  0.2785 -1.1317
   43CHL1  H11B 4324   1.774   4.011   6.547  0.1593 -0.2973 -0.2884
   43CHL1    C9 4325   1.978   4.065   6.589 -0.1301  0.2808  0.3938
   43CHL1    H9 4326   2.015   3.960   6.590 -2.0274 -0.4290  0.2870
   43CHL1   C10 4327   1.964   4.117   6.732  0.4130  0.0392 -0.5668
   43CHL1   C19 4328   1.896   4.253   6.742 -0.1316 -0.3700 -0.3468
   43CHL1  H19A 4329   1.807   4.247   6.677  0.2091  0.6287 -0.9184
   43CHL1  H19B 4330   1.867   4.274   6.848  1.1999 -1.7743  0.3413
   43CHL1  H19C 4331   1.956   4.336   6.698  0.5381 -1.0460 -0.7338
   43CHL1    C1 4332   1.875   4.009   6.806 -0.2803 -0.9662 -0.1933
   43CHL1   H1A 4333   1.771   4.011   6.767 -0.7062 -1.0127  0.9286
   43CHL1   H1B 4334   1.929   3.916   6.781  0.8133 -0.2966 -0.4062
   43CHL1    C2 4335   1.868   4.021   6.960 -0.0218 -0.0618 -0.3248
   43CHL1   H2A 4336   1.818   3.929   6.996  0.5224 -0.2203  0.0342
   43CHL1   H2B 4337   1.804   4.108   6.986 -0.6875 -0.6495  0.0345
   43CHL1   C20 4338   1.989   4.058   6.021 -0.0320  0.5212  0.7191
   43CHL1   H20 4339   1.995   4.168   6.005  0.7885  0.6474  1.7343
   43CHL1   C21 4340   1.845   4.014   6.028 -0.4666  0.8141 -0.1064
   43CHL1  H21A 4341   1.838   3.906   6.051 -0.1206  0.8768  0.2887
   43CHL1  H21B 4342   1.792   4.055   5.939 -0.5197  4.7224  1.5289
   43CHL1  H21C 4343   1.803   4.061   6.120 -1.0368 -1.9188  1.1314
   43CHL1   C22 4344   2.068   3.979   5.915 -0.1385  0.3604  0.1547
   43CHL1  H22A 4345   2.172   4.018   5.912 -0.5608  1.4478 -0.9296
   43CHL1  H22B 4346   2.073   3.869   5.929 -1.6159  0.4196  1.3976
   43CHL1   C23 4347   2.025   4.000   5.765 -0.4270 -0.0713  0.2863
   43CHL1  H23A 4348   2.095   3.940   5.704 -1.5476 -1.3013  0.1686
   43CHL1  H23B 4349   1.920   3.965   5.754  0.2822 -1.9631 -0.7978
   43CHL1   C24 4350   2.035   4.146   5.725 -0.5379  0.4223  0.4749
   43CHL1  H24A 4351   1.962   4.214   5.774 -1.3431  0.4151 -0.6657
   43CHL1  H24B 4352   2.139   4.174   5.750 -0.4073 -0.4879  0.9803
   43CHL1   C25 4353   2.029   4.162   5.569  0.7482 -0.7820  0.1329
   43CHL1   H25 4354   1.962   4.088   5.521 -0.4184  0.3824 -0.0902
   43CHL1   C26 4355   1.957   4.295   5.529  0.4627 -0.5932  0.0383
   43CHL1  H26A 4356   1.941   4.287   5.420  2.1262  0.1144 -0.2799
   43CHL1  H26B 4357   1.858   4.299   5.580 -0.1447 -1.8195 -0.9812
   43CHL1  H26C 4358   2.014   4.386   5.556  0.8125 -0.8897  0.3099
   43CHL1   C27 4359   2.175   4.163   5.519 -0.6148  0.2533  0.1789
   43CHL1  H27A 4360   2.221   4.063   5.537  0.1165  0.5897  0.2153
   43CHL1  H27B 4361   2.170   4.181   5.409  2.9833 -0.5085 -0.2580
   43CHL1  H27C 4362   2.229   4.249   5.564 -0.0696  0.2690 -0.4806
   44CHL1    C3 4363   3.506   4.439   6.818  0.6394 -0.1454 -0.0559
   44CHL1    H3 4364   3.410   4.383   6.820  0.0674  0.8190  1.6150
   44CHL1    O3 4365   3.536   4.481   6.950  0.4008  0.3504 -0.4163
   44CHL1   H3' 4366   3.588   4.407   6.985 -0.8773 -0.8124 -0.8904
   44CHL1    C4 4367   3.617   4.343   6.755 -0.0985 -0.4296 -0.0616
   44CHL1   H4A 4368   3.715   4.389   6.779  0.4424 -1.2169 -0.7004
   44CHL1   H4B 4369   3.610   4.242   6.801  0.1312 -0.2755  0.3127
   44CHL1    C5 4370   3.624   4.332   6.603  0.0129 -0.3374 -0.2926
   44CHL1    C6 4371   3.639   4.209   6.545  0.1925  0.2863  0.1050
   44CHL1    H6 4372   3.660   4.114   6.597 -1.0451  0.3657  0.7860
   44CHL1    C7 4373   3.641   4.191   6.395  0.5500  0.7833  0.4982
   44CHL1   H7A 4374   3.728   4.128   6.368 -0.6303 -1.8906  2.4866
   44CHL1   H7B 4375   3.554   4.128   6.368  0.5767  1.2704 -0.8175
   44CHL1    C8 4376   3.658   4.327   6.321  0.3335 -0.1877  0.0427
   44CHL1    H8 4377   3.765   4.356   6.329  0.3859 -0.0706 -0.9107
   44CHL1   C14 4378   3.632   4.306   6.171 -0.2432  0.2009 -0.1868
   44CHL1   H14 4379   3.527   4.270   6.163 -0.3578  0.8482 -1.9369
   44CHL1   C15 4380   3.710   4.196   6.104 -0.8535 -0.4038 -0.0595
   44CHL1  H15A 4381   3.817   4.196   6.135 -0.8823  1.0248  0.1261
   44CHL1  H15B 4382   3.680   4.091   6.126  2.6267 -1.2878  1.2102
   44CHL1   C16 4383   3.689   4.216   5.955 -0.0319 -0.3594 -0.5566
   44CHL1  H16A 4384   3.785   4.225   5.899 -0.4073 -0.4047 -1.2260
   44CHL1  H16B 4385   3.635   4.130   5.909  0.0799  0.4221 -2.2293
   44CHL1   C17 4386   3.603   4.350   5.940  0.0467  0.4406  0.6315
   44CHL1   H17 4387   3.497   4.320   5.948 -0.3871  1.3144 -1.3009
   44CHL1   C13 4388   3.635   4.425   6.070  0.4796  0.4282  0.0783
   44CHL1   C18 4389   3.770   4.490   6.057  0.1833  0.3273 -0.1047
   44CHL1  H18A 4390   3.824   4.491   6.154 -0.7713  0.3323  0.4425
   44CHL1  H18B 4391   3.830   4.431   5.984 -1.7211 -0.0105 -1.4952
   44CHL1  H18C 4392   3.762   4.595   6.022  0.5127  0.8733  1.3998
   44CHL1   C12 4393   3.529   4.526   6.133 -0.2023 -0.0662 -0.3021
   44CHL1  H12A 4394   3.539   4.616   6.068  0.2030  0.4800  0.5030
   44CHL1  H12B 4395   3.426   4.485   6.125  0.0413 -0.6656 -0.3765
   44CHL1   C11 4396   3.571   4.568   6.278  0.2689 -0.2784  0.1616
   44CHL1  H11A 4397   3.678   4.597   6.267 -0.3799  1.7832 -1.3776
   44CHL1  H11B 4398   3.514   4.656   6.316  1.3516  1.7134 -2.5114
   44CHL1    C9 4399   3.575   4.437   6.377 -0.2363 -0.2180  0.3705
   44CHL1    H9 4400   3.472   4.398   6.361  0.0426 -0.2279 -1.6588
   44CHL1   C10 4401   3.601   4.465   6.527  0.7443  0.3969 -0.2104
   44CHL1   C19 4402   3.735   4.550   6.542  0.3696  0.5591 -0.1076
   44CHL1  H19A 4403   3.820   4.492   6.501 -1.5524 -1.7112 -1.1563
   44CHL1  H19B 4404   3.739   4.650   6.494  0.6438  0.2464 -0.7566
   44CHL1  H19C 4405   3.760   4.558   6.650  2.1019 -1.0075 -0.3384
   44CHL1    C1 4406   3.479   4.545   6.582 -0.5597 -0.3016  0.2268
   44CHL1   H1A 4407   3.469   4.641   6.527  0.4595 -0.7590 -0.7845
   44CHL1   H1B 4408   3.394   4.477   6.558 -1.7006  1.4515 -0.8951
   44CHL1    C2 4409   3.489   4.569   6.732 -0.4066  0.5956 -0.0179
   44CHL1   H2A 4410   3.397   4.614   6.774 -1.7066 -1.0934 -0.9390
   44CHL1   H2B 4411   3.569   4.643   6.752 -1.3762  2.0686 -1.3900
   44CHL1   C20 4412   3.620   4.420   5.808 -0.2172  0.0488  0.3300
   44CHL1   H20 4413   3.723   4.462   5.801  0.6481 -2.0754 -0.5013
   44CHL1   C21 4414   3.512   4.524   5.785  0.1859 -0.6770 -0.0849
   44CHL1  H21A 4415   3.524   4.576   5.688 -0.0930  0.1877  0.3315
   44CHL1  H21B 4416   3.525   4.608   5.856 -0.4448  0.2060 -0.9942
   44CHL1  H21C 4417   3.407   4.487   5.788  0.0775 -0.3357  1.2380
   44CHL1   C22 4418   3.616   4.312   5.695 -0.4841  0.2194 -0.2552
   44CHL1  H22A 4419   3.716   4.264   5.700  0.3065  1.9508  2.5724
   44CHL1  H22B 4420   3.535   4.238   5.715 -0.6380  0.5955  0.5178
   44CHL1   C23 4421   3.608   4.364   5.543  0.3956  0.3764 -0.1718
   44CHL1  H23A 4422   3.519   4.429   5.531 -0.4209 -1.0061 -2.2866
   44CHL1  H23B 4423   3.702   4.411   5.508  0.8456 -0.6757 -0.4131
   44CHL1   C24 4424   3.584   4.233   5.461 -0.9816 -0.4130 -0.1614
   44CHL1  H24A 4425   3.674   4.168   5.469 -0.1065  0.7379 -0.4240
   44CHL1  H24B 4426   3.499   4.181   5.510  0.1661 -1.9432  0.2736
   44CHL1   C25 4427   3.532   4.260   5.318  0.5993  0.0702  0.1132
   44CHL1   H25 4428   3.438   4.319   5.331 -0.0568 -0.7785 -0.6170
   44CHL1   C26 4429   3.637   4.350   5.240  0.0323 -0.0361  0.8784
   44CHL1  H26A 4430   3.642   4.454   5.280 -1.8544 -0.1298  1.4389
   44CHL1  H26B 4431   3.742   4.313   5.236  0.6854  1.3986  3.0925
   44CHL1  H26C 4432   3.597   4.353   5.136  1.1208 -0.7440  0.4254
   44CHL1   C27 4433   3.494   4.128   5.238 -0.1983 -0.6283  0.3955
   44CHL1  H27A 4434   3.584   4.071   5.206 -0.4582 -1.4488  1.1012
   44CHL1  H27B 4435   3.431   4.055   5.292  0.6545 -1.0553  0.8184
   44CHL1  H27C 4436   3.438   4.165   5.149  1.1064 -2.2728 -1.1753
   45CHL1    C3 4437   3.168   4.981   6.655  0.1927  0.4867 -0.2004
   45CHL1    H3 4438   3.082   4.911   6.658  1.6056 -1.2956  2.5776
   45CHL1    O3 4439   3.222   4.998   6.787  0.1329  0.3528  0.5537
   45CHL1   H3' 4440   3.210   5.092   6.803 -1.3584  0.3016 -0.0434
   45CHL1    C4 4441   3.280   4.919   6.573  0.8980  0.2116  0.0259
   45CHL1   H4A 4442   3.374   4.975   6.591  1.4156 -0.5773 -0.1758
   45CHL1   H4B 4443   3.306   4.817   6.609  0.7200 -0.4013 -1.5161
   45CHL1    C5 4444   3.238   4.917   6.431 -1.3648  0.3156  0.6589
   45CHL1    C6 4445   3.228   4.799   6.363  0.4322  0.1571 -0.1028
   45CHL1    H6 4446   3.256   4.707   6.415  1.1064 -0.0417 -0.8058
   45CHL1    C7 4447   3.195   4.774   6.215 -0.2792  0.0243 -0.5388
   45CHL1   H7A 4448   3.272   4.701   6.181  0.8889  1.5178 -1.2441
   45CHL1   H7B 4449   3.091   4.738   6.200  0.0544 -0.7712 -1.0203
   45CHL1    C8 4450   3.210   4.907   6.140  0.6818 -0.1097  0.0856
   45CHL1    H8 4451   3.318   4.933   6.135  0.4914  0.4618 -1.3381
   45CHL1   C14 4452   3.162   4.887   5.999 -0.0117  0.6988 -0.0866
   45CHL1   H14 4453   3.055   4.858   6.012  0.2818 -0.2805  0.2159
   45CHL1   C15 4454   3.226   4.768   5.923  0.1808 -0.5075  0.7668
   45CHL1  H15A 4455   3.336   4.775   5.930  0.1366 -0.1077  1.1422
   45CHL1  H15B 4456   3.198   4.666   5.957 -1.1712 -0.2618  0.4560
   45CHL1   C16 4457   3.171   4.801   5.788 -0.0570  0.7208  0.0900
   45CHL1  H16A 4458   3.260   4.785   5.724  1.1329  0.2843  1.7979
   45CHL1  H16B 4459   3.097   4.725   5.755 -0.1191  0.4331  0.8755
   45CHL1   C17 4460   3.114   4.940   5.792  0.2926 -0.2481  0.2787
   45CHL1   H17 4461   3.006   4.925   5.811  0.3237  1.0738  1.6384
   45CHL1   C13 4462   3.167   5.009   5.916  0.0963 -0.4183 -0.1786
   45CHL1   C18 4463   3.315   5.053   5.891 -0.5620 -0.0459  0.2173
   45CHL1  H18A 4464   3.368   5.093   5.980 -0.7277 -0.1157  0.3487
   45CHL1  H18B 4465   3.377   4.966   5.864 -2.9032 -2.2267  1.3741
   45CHL1  H18C 4466   3.317   5.127   5.809 -0.6449  0.7268  0.8963
   45CHL1   C12 4467   3.082   5.124   5.981 -0.1287 -0.5179 -0.0938
   45CHL1  H12A 4468   3.096   5.214   5.917 -3.6534  1.2977  1.4352
   45CHL1  H12B 4469   2.973   5.105   5.970  0.0605 -1.0863 -1.1470
   45CHL1   C11 4470   3.119   5.147   6.128 -0.1664  0.4312 -0.5846
   45CHL1  H11A 4471   3.216   5.203   6.127 -0.3599  0.7553 -1.4338
   45CHL1  H11B 4472   3.046   5.216   6.175  0.4411 -0.5548  1.9655
   45CHL1    C9 4473   3.140   5.020   6.219  0.0945  0.3776  0.4626
   45CHL1    H9 4474   3.041   4.974   6.240 -0.1606  1.4166  1.6594
   45CHL1   C10 4475   3.201   5.046   6.363  0.4773  0.7244  0.0607
   45CHL1   C19 4476   3.316   5.145   6.362  0.2327  0.3895  0.3645
   45CHL1  H19A 4477   3.389   5.114   6.283  0.4102 -0.7290  0.9462
   45CHL1  H19B 4478   3.298   5.252   6.338  0.3949  0.6869  1.5144
   45CHL1  H19C 4479   3.366   5.143   6.461 -1.2080  0.6140  1.1167
   45CHL1    C1 4480   3.086   5.113   6.452 -0.3501  0.2894 -0.1901
   45CHL1   H1A 4481   3.067   5.211   6.404  0.3923 -0.6786 -2.6158
   45CHL1   H1B 4482   2.991   5.057   6.438 -0.1237 -0.2652  0.4774
   45CHL1    C2 4483   3.127   5.119   6.599  0.5049 -0.0208 -0.7561
   45CHL1   H2A 4484   3.050   5.164   6.665  3.9883  1.1771  2.8828
   45CHL1   H2B 4485   3.213   5.189   6.608 -0.3764  1.0676 -0.5852
   45CHL1   C20 4486   3.123   5.027   5.668 -0.6544 -0.1358 -0.1275
   45CHL1   H20 4487   3.125   5.133   5.702 -1.3991 -0.4131  0.8096
   45CHL1   C21 4488   2.999   5.012   5.584  0.4025 -0.1975 -0.1221
   45CHL1  H21A 4489   2.925   5.067   5.647  0.6311 -0.1289  0.0859
   45CHL1  H21B 4490   2.972   4.907   5.560  2.1312 -0.3478 -1.6452
   45CHL1  H21C 4491   3.003   5.072   5.490 -2.3582  0.1914 -0.0704
   45CHL1   C22 4492   3.244   4.994   5.573 -0.0774  0.3732 -0.4149
   45CHL1  H22A 4493   3.333   4.967   5.634 -0.6110  0.8740  0.5904
   45CHL1  H22B 4494   3.226   4.899   5.517 -0.2826 -1.0656  1.9663
   45CHL1   C23 4495   3.276   5.105   5.469 -0.6510 -0.2775  0.2996
   45CHL1  H23A 4496   3.200   5.097   5.388 -0.7052  2.3972  0.0092
   45CHL1  H23B 4497   3.266   5.207   5.511 -1.2727 -1.2388  2.6941
   45CHL1   C24 4498   3.415   5.092   5.396  0.5247  0.2040 -0.5674
   45CHL1  H24A 4499   3.480   5.125   5.479 -0.5452  0.3972  0.2091
   45CHL1  H24B 4500   3.441   4.985   5.381  2.2088  0.7912 -2.1873
   45CHL1   C25 4501   3.447   5.187   5.279 -0.1934  0.2577 -0.3223
   45CHL1   H25 4502   3.384   5.279   5.286 -1.1137 -0.5265  3.1918
   45CHL1   C26 4503   3.598   5.218   5.272  0.1451  0.2620  0.0011
   45CHL1  H26A 4504   3.654   5.123   5.284 -1.4120 -1.0981 -2.5258
   45CHL1  H26B 4505   3.626   5.259   5.172  2.2140 -0.9059  0.0431
   45CHL1  H26C 4506   3.631   5.288   5.351  0.7925  0.7778 -0.7092
   45CHL1   C27 4507   3.398   5.113   5.152  0.5382 -0.4451  0.5066
   45CHL1  H27A 4508   3.432   5.167   5.061  1.0969 -1.2252  0.2301
   45CHL1  H27B 4509   3.443   5.011   5.157  0.3814 -0.4586  1.9612
   45CHL1  H27C 4510   3.288   5.097   5.147  0.3752  0.7372  0.1845
   46CHL1    C3 4511   4.853   1.870   6.789  0.1735  0.0807  0.7099
   46CHL1    H3 4512   4.793   1.955   6.750  0.9918 -0.8475 -2.9503
   46CHL1    O3 4513   4.886   1.900   6.921 -0.2237 -0.1974  0.3439
   46CHL1   H3' 4514   4.977   1.929   6.910 -0.1161 -0.2301  1.1048
   46CHL1    C4 4515   4.761   1.740   6.780  0.4632  0.2525 -0.1173
   46CHL1   H4A 4516   4.822   1.657   6.823 -1.1485 -0.2997  1.1951
   46CHL1   H4B 4517   4.669   1.746   6.841 -1.3128  0.1608 -2.6453
   46CHL1    C5 4518   4.724   1.709   6.637 -1.1981 -0.5850 -0.4960
   46CHL1    C6 4519   4.596   1.691   6.607 -0.8089  0.2244 -0.6084
   46CHL1    H6 4520   4.524   1.679   6.690 -0.7920  1.3609 -0.4176
   46CHL1    C7 4521   4.552   1.639   6.472 -0.3240 -0.5852 -1.2525
   46CHL1   H7A 4522   4.494   1.546   6.488  0.7918 -0.8564  1.7396
   46CHL1   H7B 4523   4.486   1.718   6.430  0.4012  0.9449  0.3621
   46CHL1    C8 4524   4.661   1.622   6.362  0.3829 -0.6070  0.4181
   46CHL1    H8 4525   4.697   1.517   6.354 -1.1371 -1.0224 -2.2983
   46CHL1   C14 4526   4.603   1.665   6.224 -0.1445 -0.6572  0.1209
   46CHL1   H14 4527   4.575   1.772   6.236 -0.6165 -0.9492  2.0808
   46CHL1   C15 4528   4.474   1.597   6.189  0.4622 -0.5083  0.2399
   46CHL1  H15A 4529   4.484   1.494   6.230  0.0280 -0.9571 -0.7683
   46CHL1  H15B 4530   4.385   1.634   6.244  0.5389  0.8440 -0.4950
   46CHL1   C16 4531   4.457   1.617   6.040  0.1419 -0.0883 -0.1843
   46CHL1  H16A 4532   4.451   1.512   6.003  2.5107 -0.7844  1.1630
   46CHL1  H16B 4533   4.366   1.677   6.020  0.6048  0.7908  0.2875
   46CHL1   C17 4534   4.581   1.698   5.996 -0.4593 -0.8901 -0.1270
   46CHL1   H17 4535   4.570   1.806   6.020 -0.4031 -0.3500 -2.2987
   46CHL1   C13 4536   4.686   1.661   6.102 -0.4991  0.9271  0.3665
   46CHL1   C18 4537   4.744   1.520   6.075  0.1465  0.6877  0.1476
   46CHL1  H18A 4538   4.827   1.532   6.002  0.8250 -1.2522  0.5301
   46CHL1  H18B 4539   4.791   1.471   6.163  0.4850  0.6663 -0.0395
   46CHL1  H18C 4540   4.678   1.444   6.028 -0.3853  1.0836  0.2471
   46CHL1   C12 4541   4.803   1.763   6.122 -0.9332  0.1670  0.0546
   46CHL1  H12A 4542   4.884   1.747   6.047 -0.3289 -1.7775  1.0481
   46CHL1  H12B 4543   4.767   1.868   6.123  0.2106  0.5662  0.5990
   46CHL1   C11 4544   4.870   1.727   6.260  0.7324 -0.6505  0.2499
   46CHL1  H11A 4545   4.916   1.626   6.250  2.7771  0.2262  0.1704
   46CHL1  H11B 4546   4.954   1.797   6.284  2.0919 -1.8522 -0.8258
   46CHL1    C9 4547   4.774   1.727   6.385  0.2905  0.2339 -0.7292
   46CHL1    H9 4548   4.731   1.829   6.394 -0.1465 -0.0590  1.0574
   46CHL1   C10 4549   4.836   1.720   6.530  0.3715 -0.0604 -0.4637
   46CHL1   C19 4550   4.923   1.594   6.548  0.1866  0.3437 -0.4901
   46CHL1  H19A 4551   4.924   1.527   6.459  1.2237  0.1478 -0.3424
   46CHL1  H19B 4552   5.029   1.624   6.558  0.6028 -1.9168  4.5726
   46CHL1  H19C 4553   4.910   1.532   6.639  0.1379 -0.3341 -0.9516
   46CHL1    C1 4554   4.930   1.846   6.548  0.0767  0.3625 -0.4157
   46CHL1   H1A 4555   5.021   1.838   6.486 -0.0108  0.8723 -0.6147
   46CHL1   H1B 4556   4.875   1.938   6.520 -1.1386  0.3103  1.5764
   46CHL1    C2 4557   4.977   1.867   6.692  0.3703 -0.2282 -1.2782
   46CHL1   H2A 4558   5.034   1.961   6.705 -0.9327  0.3511  0.6840
   46CHL1   H2B 4559   5.045   1.787   6.730  0.4570  1.4040  2.4411
   46CHL1   C20 4560   4.630   1.689   5.855  0.0327  0.3389  0.4929
   46CHL1   H20 4561   4.707   1.611   5.840 -2.2278 -1.5049 -2.8184
   46CHL1   C21 4562   4.705   1.824   5.816 -0.2014 -0.1492  0.3215
   46CHL1  H21A 4563   4.773   1.860   5.897 -1.6406  3.0358  0.2740
   46CHL1  H21B 4564   4.625   1.900   5.806  0.1538  0.4362  1.6811
   46CHL1  H21C 4565   4.768   1.825   5.725 -1.7783 -0.0234 -0.7989
   46CHL1   C22 4566   4.523   1.657   5.747  0.4688  0.5538 -0.5130
   46CHL1  H22A 4567   4.475   1.559   5.768 -0.9971  1.4903  0.6578
   46CHL1  H22B 4568   4.433   1.720   5.767 -0.6263 -1.7432  2.3938
   46CHL1   C23 4569   4.562   1.664   5.600 -0.0411 -0.6308 -0.3115
   46CHL1  H23A 4570   4.573   1.772   5.580 -0.7657 -0.6376 -0.8030
   46CHL1  H23B 4571   4.659   1.611   5.590  0.3682  0.0585 -0.0366
   46CHL1   C24 4572   4.451   1.606   5.507  0.0309 -0.0448 -0.3934
   46CHL1  H24A 4573   4.442   1.498   5.531  1.2402 -1.0774 -3.9459
   46CHL1  H24B 4574   4.355   1.655   5.534  0.3183  0.6172 -0.5541
   46CHL1   C25 4575   4.473   1.631   5.355  0.4803 -0.4413 -0.7549
   46CHL1   H25 4576   4.386   1.577   5.313  1.3585 -0.7080 -2.3355
   46CHL1   C26 4577   4.463   1.778   5.318  0.1743  0.0455 -0.2605
   46CHL1  H26A 4578   4.460   1.786   5.207 -0.9901  0.1970 -0.2327
   46CHL1  H26B 4579   4.364   1.808   5.360 -0.2797  1.1416 -1.9773
   46CHL1  H26C 4580   4.548   1.839   5.354 -1.7524  3.6776 -1.3576
   46CHL1   C27 4581   4.606   1.569   5.306  0.1085  0.6966  0.1631
   46CHL1  H27A 4582   4.598   1.460   5.325  0.0035 -0.2279 -4.2036
   46CHL1  H27B 4583   4.611   1.571   5.195 -3.3253 -0.7875 -0.1485
   46CHL1  H27C 4584   4.696   1.610   5.357  0.4891  0.5654 -0.4001
   47CHL1    C3 4585   6.020   5.893   6.424 -0.6388 -0.4015 -0.7173
   47CHL1    H3 4586   6.127   5.910   6.449 -0.7043 -1.8364  0.7122
   47CHL1    O3 4587   5.980   5.793   6.516  0.2256 -0.4890  0.1605
   47CHL1   H3' 4588   6.060   5.780   6.568 -0.5048  0.4122  1.5826
   47CHL1    C4 4589   5.934   6.023   6.445  0.8307 -0.2073  0.4748
   47CHL1   H4A 4590   5.826   5.998   6.445  0.2817  1.9325  1.1884
   47CHL1   H4B 4591   5.954   6.048   6.552 -1.5774  1.4038  0.6232
   47CHL1    C5 4592   5.967   6.148   6.360 -0.3873 -0.2061 -0.2402
   47CHL1    C6 4593   5.969   6.277   6.404 -0.5616  0.0052  0.1186
   47CHL1    H6 4594   5.947   6.293   6.511 -2.0628  0.2147 -0.1929
   47CHL1    C7 4595   5.983   6.394   6.309 -0.6138 -0.1835 -0.7371
   47CHL1   H7A 4596   5.904   6.470   6.326 -0.3865  0.1725 -1.2213
   47CHL1   H7B 4597   6.088   6.428   6.323 -0.6523  0.0719 -1.0607
   47CHL1    C8 4598   5.970   6.350   6.159 -0.4630 -0.0542 -0.0641
   47CHL1    H8 4599   5.862   6.338   6.136 -1.0303  1.5562  1.5204
   47CHL1   C14 4600   6.029   6.458   6.069  0.2251  0.5730  0.3006
   47CHL1   H14 4601   6.140   6.458   6.079  0.2324  2.6310  0.7293
   47CHL1   C15 4602   5.994   6.603   6.097 -0.3815 -0.6919  0.4483
   47CHL1  H15A 4603   5.884   6.590   6.103 -0.5527 -0.6239 -1.7158
   47CHL1  H15B 4604   6.040   6.639   6.192  1.3173 -2.6931  0.4710
   47CHL1   C16 4605   6.041   6.677   5.968 -0.2561  0.5888 -0.3109
   47CHL1  H16A 4606   5.957   6.743   5.938 -1.4094 -0.8056 -0.2285
   47CHL1  H16B 4607   6.131   6.739   5.988 -1.3349  1.6377  1.4931
   47CHL1   C17 4608   6.077   6.564   5.864 -0.6448  0.1625  0.7226
   47CHL1   H17 4609   6.188   6.556   5.870 -0.7034 -0.7015  0.7339
   47CHL1   C13 4610   6.016   6.436   5.920 -0.8849 -0.1815  0.4526
   47CHL1   C18 4611   5.871   6.431   5.877  0.7143  0.0548  0.2479
   47CHL1  H18A 4612   5.811   6.525   5.882  1.1350  0.3291  0.2038
   47CHL1  H18B 4613   5.858   6.396   5.772  0.5278  0.4175  0.1463
   47CHL1  H18C 4614   5.811   6.367   5.945  1.1582  1.3823  1.9443
   47CHL1   C12 4615   6.093   6.298   5.885  0.5878  0.2420 -0.5668
   47CHL1  H12A 4616   6.071   6.291   5.776 -3.3721 -1.8402  0.1760
   47CHL1  H12B 4617   6.200   6.303   5.915  0.0292  2.3799  1.3756
   47CHL1   C11 4618   6.043   6.182   5.970  0.1569  0.0612 -0.1271
   47CHL1  H11A 4619   5.943   6.151   5.933 -0.1275  0.3601  0.3788
   47CHL1  H11B 4620   6.117   6.100   5.956 -1.0331 -0.9346 -0.8118
   47CHL1    C9 4621   6.035   6.220   6.117 -1.2498  0.4939 -0.1532
   47CHL1    H9 4622   6.140   6.233   6.152 -1.0201  0.2731 -0.7425
   47CHL1   C10 4623   5.979   6.104   6.208  0.1951 -0.9494 -0.9799
   47CHL1   C19 4624   5.829   6.074   6.169 -0.1869 -0.4417  0.6830
   47CHL1  H19A 4625   5.760   6.161   6.167 -1.4479 -1.3470 -3.5919
   47CHL1  H19B 4626   5.827   6.024   6.070 -3.0954  2.1741 -0.7891
   47CHL1  H19C 4627   5.784   5.999   6.238  1.7548 -3.6838 -1.3604
   47CHL1    C1 4628   6.060   5.970   6.198 -0.5031  0.0505 -0.6049
   47CHL1   H1A 4629   6.043   5.951   6.090 -0.8217  1.2893 -0.7844
   47CHL1   H1B 4630   6.169   5.991   6.195 -0.1273 -1.8390 -1.6965
   47CHL1    C2 4631   6.021   5.847   6.283  0.1549 -0.3572  0.2496
   47CHL1   H2A 4632   6.095   5.766   6.265  1.8127  0.8959  1.1077
   47CHL1   H2B 4633   5.919   5.813   6.257  0.5225 -0.5724 -0.9817
   47CHL1   C20 4634   6.065   6.615   5.715  0.1142  0.2770  0.9997
   47CHL1   H20 4635   5.959   6.642   5.700  0.7233  1.9614 -0.6327
   47CHL1   C21 4636   6.113   6.515   5.608  0.0028 -0.2590 -0.0997
   47CHL1  H21A 4637   6.112   6.570   5.511 -2.1593 -1.5915 -0.9114
   47CHL1  H21B 4638   6.037   6.434   5.604  0.1023 -0.3210 -0.8407
   47CHL1  H21C 4639   6.216   6.473   5.616 -0.6217 -2.0049 -0.7087
   47CHL1   C22 4640   6.149   6.748   5.701  0.0644 -0.1111  0.4657
   47CHL1  H22A 4641   6.113   6.822   5.776 -3.5895 -1.3792  0.1598
   47CHL1  H22B 4642   6.259   6.744   5.718  0.3247  3.0747  0.1321
   47CHL1   C23 4643   6.129   6.825   5.572 -0.5628  0.7286 -0.3735
   47CHL1  H23A 4644   6.172   6.772   5.483 -1.9548  0.8536 -1.1543
   47CHL1  H23B 4645   6.023   6.840   5.541  0.3058  0.5832 -3.8747
   47CHL1   C24 4646   6.186   6.965   5.570 -0.0790  0.2844 -0.0009
   47CHL1  H24A 4647   6.140   7.025   5.652 -0.2685 -3.3783  2.7966
   47CHL1  H24B 4648   6.296   6.950   5.575  0.0054 -1.5436 -3.8693
   47CHL1   C25 4649   6.171   7.036   5.434  0.4042 -0.5831  0.5325
   47CHL1   H25 4650   6.231   7.129   5.447  1.9716 -1.2302 -1.5480
   47CHL1   C26 4651   6.236   6.957   5.323 -0.1739 -0.0806  0.7959
   47CHL1  H26A 4652   6.244   7.022   5.234  0.2233 -2.5375 -1.0562
   47CHL1  H26B 4653   6.336   6.925   5.361  0.7120 -0.2797 -1.5422
   47CHL1  H26C 4654   6.188   6.861   5.295  2.8587 -0.9567 -1.9720
   47CHL1   C27 4655   6.029   7.086   5.420 -0.2545 -0.0059 -0.2789
   47CHL1  H27A 4656   5.999   7.143   5.510  0.6650 -0.8916  0.6099
   47CHL1  H27B 4657   6.028   7.163   5.340  1.0822  0.9805  0.6117
   47CHL1  H27C 4658   5.952   7.008   5.402 -0.5129  0.5973 -1.9809
   48CHL1    C3 4659   2.740   5.925   6.537  0.6631  0.0027 -0.8942
   48CHL1    H3 4660   2.703   5.822   6.518  0.4966 -0.5041  1.7248
   48CHL1    O3 4661   2.797   5.935   6.663 -0.0211  0.1215 -0.1613
   48CHL1   H3' 4662   2.830   6.025   6.664 -0.9322  0.4947 -1.4798
   48CHL1    C4 4663   2.854   5.950   6.441 -0.5032  1.0050  0.4938
   48CHL1   H4A 4664   2.889   6.053   6.461 -0.0220  0.9947 -0.2702
   48CHL1   H4B 4665   2.940   5.882   6.460 -2.1559 -1.0789  0.9839
   48CHL1    C5 4666   2.806   5.954   6.296 -0.0609  0.5181 -0.3490
   48CHL1    C6 4667   2.876   5.885   6.201 -0.4656 -0.2413 -0.4022
   48CHL1    H6 4668   2.972   5.837   6.227 -0.9323 -1.5898 -1.1282
   48CHL1    C7 4669   2.845   5.901   6.058  0.1689 -0.2431 -0.0248
   48CHL1   H7A 4670   2.943   5.926   6.013  1.1516 -2.6743  0.5745
   48CHL1   H7B 4671   2.820   5.802   6.013 -2.3691  1.0717 -1.7283
   48CHL1    C8 4672   2.737   6.009   6.028 -0.8256  0.5840  0.1599
   48CHL1    H8 4673   2.790   6.107   6.024 -0.4846  0.4185  0.5131
   48CHL1   C14 4674   2.677   5.973   5.892 -0.1995  0.1314 -0.4117
   48CHL1   H14 4675   2.614   5.881   5.900 -1.8083  1.2707  0.4887
   48CHL1   C15 4676   2.771   5.946   5.778 -0.2941 -0.4005 -0.0069
   48CHL1  H15A 4677   2.847   6.025   5.768 -0.6086  0.0461  0.9686
   48CHL1  H15B 4678   2.827   5.850   5.776  0.1647 -0.1211 -0.8060
   48CHL1   C16 4679   2.684   5.955   5.645  0.2258  0.1784  0.2232
   48CHL1  H16A 4680   2.739   6.029   5.583 -1.3602  1.8921  0.7821
   48CHL1  H16B 4681   2.665   5.857   5.597  2.2203 -1.1123  1.8712
   48CHL1   C17 4682   2.544   6.006   5.701  0.1037  0.4692 -0.0718
   48CHL1   H17 4683   2.478   5.917   5.713  0.5922 -0.1267 -1.6182
   48CHL1   C13 4684   2.572   6.071   5.833 -0.0382  0.6996 -0.0744
   48CHL1   C18 4685   2.632   6.219   5.809 -0.6953  0.7342 -0.2511
   48CHL1  H18A 4686   2.677   6.256   5.903  1.5826 -1.0644 -0.5470
   48CHL1  H18B 4687   2.707   6.213   5.727 -0.8633  0.3859 -0.3845
   48CHL1  H18C 4688   2.550   6.289   5.780 -1.7622 -0.9825 -1.5963
   48CHL1   C12 4689   2.465   6.077   5.944  0.4280  1.7037  0.4591
   48CHL1  H12A 4690   2.372   6.129   5.912 -0.3586  0.3653  0.5168
   48CHL1  H12B 4691   2.435   5.971   5.958  0.8191  1.6686  1.0443
   48CHL1   C11 4692   2.520   6.129   6.082  0.1084  0.0004  0.4633
   48CHL1  H11A 4693   2.552   6.236   6.076 -0.5995  0.1450 -2.0535
   48CHL1  H11B 4694   2.440   6.111   6.156  1.8436  1.3223  2.8113
   48CHL1    C9 4695   2.631   6.032   6.135 -0.5468 -0.0446 -0.0604
   48CHL1    H9 4696   2.572   5.938   6.144  0.1829 -0.4137  1.0235
   48CHL1   C10 4697   2.684   6.046   6.276 -0.6234 -0.1581 -0.2141
   48CHL1   C19 4698   2.722   6.195   6.286  0.4018 -0.2405  0.5226
   48CHL1  H19A 4699   2.757   6.208   6.390 -0.7267  0.1528  0.8668
   48CHL1  H19B 4700   2.805   6.228   6.220  0.0927  3.7844  1.8840
   48CHL1  H19C 4701   2.637   6.266   6.284 -0.2911 -1.0382 -1.5243
   48CHL1    C1 4702   2.578   6.026   6.378  0.5326  0.2430  0.0401
   48CHL1   H1A 4703   2.497   6.102   6.367  2.0927  1.7432 -1.7691
   48CHL1   H1B 4704   2.524   5.929   6.370 -0.4769  0.9011 -1.9905
   48CHL1    C2 4705   2.625   6.026   6.526  0.0201 -0.8060 -0.3772
   48CHL1   H2A 4706   2.547   5.978   6.589 -0.2791 -0.1434 -0.2333
   48CHL1   H2B 4707   2.631   6.130   6.562 -0.8547 -0.6535 -0.6409
   48CHL1   C20 4708   2.469   6.095   5.598 -0.0927  0.4556 -0.1237
   48CHL1   H20 4709   2.525   6.191   5.589  0.1907  0.3326  0.3082
   48CHL1   C21 4710   2.323   6.123   5.650 -0.3233 -0.2307 -0.3369
   48CHL1  H21A 4711   2.268   6.181   5.572 -2.4696  0.4955  1.6224
   48CHL1  H21B 4712   2.265   6.030   5.669  1.0814 -1.1059 -0.2106
   48CHL1  H21C 4713   2.329   6.186   5.741 -2.2242 -1.8172  0.9629
   48CHL1   C22 4714   2.451   6.045   5.456 -0.3833  0.0057 -0.7881
   48CHL1  H22A 4715   2.390   6.119   5.400 -1.8247  0.2373  0.9842
   48CHL1  H22B 4716   2.549   6.045   5.403 -0.0599  1.0765 -0.2185
   48CHL1   C23 4717   2.386   5.906   5.439 -0.2587  0.0483  0.1470
   48CHL1  H23A 4718   2.427   5.826   5.505 -1.9498 -2.5166 -1.7228
   48CHL1  H23B 4719   2.276   5.911   5.451 -0.6975 -1.8334 -2.3752
   48CHL1   C24 4720   2.426   5.864   5.295 -0.3987  0.2699  0.4493
   48CHL1  H24A 4721   2.534   5.870   5.270 -0.4248 -2.7434 -0.8410
   48CHL1  H24B 4722   2.393   5.758   5.282 -0.1627  0.3043 -0.5068
   48CHL1   C25 4723   2.362   5.952   5.188 -0.4088  0.7605  0.3245
   48CHL1   H25 4724   2.411   6.051   5.199 -2.4080  1.6372  1.7854
   48CHL1   C26 4725   2.410   5.916   5.044  0.2659 -0.1412 -0.1841
   48CHL1  H26A 4726   2.378   5.821   4.998  0.2222  0.7739 -2.1346
   48CHL1  H26B 4727   2.371   5.995   4.977  2.1018 -0.5005 -1.7548
   48CHL1  H26C 4728   2.521   5.916   5.040  0.3784  2.3611  0.7860
   48CHL1   C27 4729   2.207   5.969   5.195 -0.4396  0.9119 -0.5622
   48CHL1  H27A 4730   2.161   6.014   5.104 -2.3854  0.6440  0.2296
   48CHL1  H27B 4731   2.159   5.872   5.219  1.9812  0.3732  2.7549
   48CHL1  H27C 4732   2.183   6.048   5.270  0.8271  0.3354  0.4769
   49CHL1    C3 4733   2.535   0.829   3.275  0.0790 -0.9191  0.3972
   49CHL1    H3 4734   2.430   0.793   3.271  0.6754 -2.6669 -1.2751
   49CHL1    O3 4735   2.576   0.848   3.139  0.3533 -0.1019 -0.1799
   49CHL1   H3' 4736   2.671   0.852   3.150  0.1505  0.9803  1.5748
   49CHL1    C4 4737   2.538   0.958   3.347  0.6269  0.1708  0.4241
   49CHL1   H4A 4738   2.641   0.995   3.329 -0.6175  2.7240 -2.3120
   49CHL1   H4B 4739   2.475   1.033   3.295 -0.1288 -1.9895 -2.0123
   49CHL1    C5 4740   2.490   0.950   3.494 -0.3341 -1.2874 -0.5794
   49CHL1    C6 4741   2.392   1.031   3.544  0.5450  0.0522 -0.4312
   49CHL1    H6 4742   2.331   1.097   3.481 -2.3312 -0.4508  1.6418
   49CHL1    C7 4743   2.352   1.029   3.685  0.5882  0.3307 -0.4857
   49CHL1   H7A 4744   2.339   1.132   3.722 -0.2636  0.1468 -0.2386
   49CHL1   H7B 4745   2.258   0.971   3.700  1.2997 -0.9729 -0.9000
   49CHL1    C8 4746   2.446   0.943   3.779 -0.0290  0.5338  0.2596
   49CHL1    H8 4747   2.524   1.014   3.814 -0.5602  1.1466  0.2178
   49CHL1   C14 4748   2.367   0.903   3.899 -0.3377  0.9476  0.4215
   49CHL1   H14 4749   2.286   0.833   3.870 -0.3552  0.0016  2.5296
   49CHL1   C15 4750   2.288   1.009   3.975 -0.1534 -0.1283 -0.6466
   49CHL1  H15A 4751   2.349   1.099   3.997  0.3101 -0.3315 -1.0924
   49CHL1  H15B 4752   2.194   1.045   3.927  0.3354  2.5937  0.2764
   49CHL1   C16 4753   2.255   0.943   4.108  0.2619 -0.5705  0.2426
   49CHL1  H16A 4754   2.276   1.021   4.185  3.5282 -0.4847 -0.6011
   49CHL1  H16B 4755   2.145   0.927   4.117 -0.0132  0.7439 -0.5248
   49CHL1   C17 4756   2.329   0.808   4.113  0.0940 -0.4683 -0.2521
   49CHL1   H17 4757   2.261   0.734   4.067 -0.4283  0.7108 -1.4707
   49CHL1   C13 4758   2.438   0.823   4.007 -0.5327  0.1964  0.3934
   49CHL1   C18 4759   2.556   0.912   4.065 -0.6361 -0.0198 -0.2148
   49CHL1  H18A 4760   2.513   1.009   4.098  0.9404  1.2058 -1.6149
   49CHL1  H18B 4761   2.613   0.849   4.136 -1.5717 -0.8900 -0.2071
   49CHL1  H18C 4762   2.631   0.929   3.985  0.3289  0.1948  0.7128
   49CHL1   C12 4763   2.488   0.698   3.934  0.1165  0.4121  0.7212
   49CHL1  H12A 4764   2.557   0.638   3.997  0.3265  1.9701  2.0473
   49CHL1  H12B 4765   2.400   0.634   3.912 -0.5423  1.7021 -0.5159
   49CHL1   C11 4766   2.559   0.724   3.807  0.8892 -0.3770  0.3595
   49CHL1  H11A 4767   2.645   0.777   3.853 -0.0964 -0.9330  3.0374
   49CHL1  H11B 4768   2.590   0.622   3.774 -0.1921 -1.5187  2.6393
   49CHL1    C9 4769   2.485   0.818   3.709 -0.5101  0.1706 -0.1698
   49CHL1    H9 4770   2.398   0.758   3.676 -1.4748  1.5072 -0.1158
   49CHL1   C10 4771   2.567   0.839   3.571  0.3832 -0.0399  0.0254
   49CHL1   C19 4772   2.713   0.881   3.600 -0.5436 -0.0009 -0.1253
   49CHL1  H19A 4773   2.774   0.907   3.511  0.8658 -1.2650  0.4197
   49CHL1  H19B 4774   2.718   0.971   3.665  0.6061 -1.9597  2.6787
   49CHL1  H19C 4775   2.764   0.802   3.659 -0.3948  0.2845  0.1338
   49CHL1    C1 4776   2.564   0.704   3.489 -0.9878  0.0663  0.4621
   49CHL1   H1A 4777   2.629   0.626   3.533 -1.5396 -1.1082 -0.7340
   49CHL1   H1B 4778   2.463   0.660   3.474  0.0379 -1.5174 -2.5117
   49CHL1    C2 4779   2.611   0.710   3.342  0.0786 -0.2784  0.7923
   49CHL1   H2A 4780   2.592   0.616   3.286  0.3617  0.1351 -0.0163
   49CHL1   H2B 4781   2.718   0.740   3.333 -0.2140  0.6756  0.3429
   49CHL1   C20 4782   2.364   0.769   4.262  0.7236 -0.7252 -0.7468
   49CHL1   H20 4783   2.444   0.838   4.298 -1.7093  0.5842  2.6382
   49CHL1   C21 4784   2.416   0.627   4.271  0.3761 -0.2262 -0.3951
   49CHL1  H21A 4785   2.332   0.559   4.246 -1.3239  1.1461  1.2024
   49CHL1  H21B 4786   2.460   0.597   4.369 -0.3222  1.8956  0.6246
   49CHL1  H21C 4787   2.501   0.615   4.200  1.7112 -1.4583  1.3260
   49CHL1   C22 4788   2.253   0.788   4.371 -0.1264 -0.1322  1.4451
   49CHL1  H22A 4789   2.189   0.877   4.349  1.0712  0.8978  1.9941
   49CHL1  H22B 4790   2.183   0.703   4.368 -0.3210  0.0367  1.0228
   49CHL1   C23 4791   2.307   0.817   4.513  0.0055 -0.0171  0.2199
   49CHL1  H23A 4792   2.390   0.745   4.535 -0.8597 -1.0180  0.3012
   49CHL1  H23B 4793   2.349   0.920   4.516 -0.6877  0.2599  0.4571
   49CHL1   C24 4794   2.207   0.815   4.627 -0.2635  0.3806  0.0089
   49CHL1  H24A 4795   2.126   0.886   4.602 -0.3919 -0.1197 -1.0398
   49CHL1  H24B 4796   2.163   0.714   4.640 -0.5511  0.4077 -0.7484
   49CHL1   C25 4797   2.246   0.875   4.767 -0.3400  0.8252  0.0278
   49CHL1   H25 4798   2.340   0.828   4.804 -0.6586  0.1144 -0.0538
   49CHL1   C26 4799   2.277   1.026   4.751 -0.2907 -0.4928 -0.0681
   49CHL1  H26A 4800   2.299   1.067   4.852 -1.2221 -1.6141  0.6124
   49CHL1  H26B 4801   2.366   1.044   4.686 -0.4817  0.1813 -0.1555
   49CHL1  H26C 4802   2.186   1.081   4.719 -0.2074  0.0305  0.5584
   49CHL1   C27 4803   2.127   0.829   4.862 -0.3582 -0.3361  0.7312
   49CHL1  H27A 4804   2.159   0.878   4.957  1.1655 -1.0876  0.6339
   49CHL1  H27B 4805   2.030   0.871   4.829  0.0604 -0.7493 -1.1163
   49CHL1  H27C 4806   2.123   0.718   4.865  2.9490 -0.5528  1.8430
   50CHL1    C3 4807   5.392   2.308   3.221  0.0202 -0.6945 -0.0740
   50CHL1    H3 4808   5.348   2.405   3.251  0.7772 -0.2243 -0.4632
   50CHL1    O3 4809   5.392   2.308   3.080 -0.3076  0.3180  0.4733
   50CHL1   H3' 4810   5.437   2.387   3.050 -0.0673 -0.6949 -2.1381
   50CHL1    C4 4811   5.539   2.300   3.272 -0.6317  0.7128  0.3743
   50CHL1   H4A 4812   5.592   2.211   3.232  0.7458  0.7009  2.1065
   50CHL1   H4B 4813   5.588   2.385   3.219  0.1885 -0.2662 -0.5007
   50CHL1    C5 4814   5.554   2.308   3.421  0.0333  0.6731  0.5311
   50CHL1    C6 4815   5.619   2.408   3.479  0.7045  0.1032  0.1780
   50CHL1    H6 4816   5.656   2.489   3.415 -2.5571  1.5355 -0.0994
   50CHL1    C7 4817   5.624   2.409   3.629 -0.8477 -0.4681 -0.0557
   50CHL1   H7A 4818   5.720   2.446   3.669 -0.4772 -1.4498 -0.0148
   50CHL1   H7B 4819   5.542   2.476   3.664  0.7401  0.7678  1.4498
   50CHL1    C8 4820   5.598   2.275   3.702  0.0831 -0.2271  0.5039
   50CHL1    H8 4821   5.672   2.201   3.666 -0.7222 -0.7422 -0.1069
   50CHL1   C14 4822   5.597   2.294   3.849  0.4039 -0.3349  0.8384
   50CHL1   H14 4823   5.498   2.343   3.864 -1.0919 -3.0560  0.5949
   50CHL1   C15 4824   5.708   2.365   3.928 -0.8102 -0.7831 -0.5051
   50CHL1  H15A 4825   5.801   2.311   3.900  1.1235  1.3781  1.3302
   50CHL1  H15B 4826   5.722   2.474   3.916  1.8720 -1.2529 -2.7051
   50CHL1   C16 4827   5.670   2.331   4.072  0.6712  0.3874  0.0647
   50CHL1  H16A 4828   5.762   2.301   4.127 -0.4181 -1.1352  1.1379
   50CHL1  H16B 4829   5.624   2.419   4.122 -0.4425  0.0879 -0.4014
   50CHL1   C17 4830   5.570   2.215   4.070  0.4017 -0.7523 -0.3926
   50CHL1   H17 4831   5.472   2.267   4.079  1.1979  0.5832  1.2896
   50CHL1   C13 4832   5.572   2.169   3.927  0.1148  0.1633 -0.4335
   50CHL1   C18 4833   5.679   2.065   3.913 -0.5625  0.1639  0.5028
   50CHL1  H18A 4834   5.693   2.050   3.804 -0.5965 -0.7730  0.6247
   50CHL1  H18B 4835   5.773   2.101   3.961  0.7161 -1.2347 -0.8508
   50CHL1  H18C 4836   5.648   1.968   3.956  1.3857  0.4651  2.7514
   50CHL1   C12 4837   5.439   2.108   3.883  0.0184  0.7030 -0.5595
   50CHL1  H12A 4838   5.418   2.007   3.923  1.5308  0.9193  0.8905
   50CHL1  H12B 4839   5.354   2.175   3.910 -0.7801  0.2326 -1.8353
   50CHL1   C11 4840   5.432   2.087   3.731  0.0869  0.6170 -0.0901
   50CHL1  H11A 4841   5.500   2.005   3.699  2.3711  1.3045  2.6616
   50CHL1  H11B 4842   5.326   2.058   3.715  0.1513  0.7583 -0.8413
   50CHL1    C9 4843   5.466   2.217   3.649  0.3432  0.6276  0.0580
   50CHL1    H9 4844   5.388   2.293   3.670 -1.7237 -1.3818  0.0869
   50CHL1   C10 4845   5.471   2.193   3.499 -0.1750 -0.6231 -0.2805
   50CHL1   C19 4846   5.544   2.059   3.459  0.0010 -0.5656 -0.6108
   50CHL1  H19A 4847   5.653   2.062   3.478  0.4716  2.2041 -3.0178
   50CHL1  H19B 4848   5.483   1.974   3.498 -0.4188  0.3878  0.9112
   50CHL1  H19C 4849   5.555   2.049   3.349 -0.3850 -0.7841 -0.6310
   50CHL1    C1 4850   5.319   2.180   3.437  0.6808  0.5089  0.2147
   50CHL1   H1A 4851   5.270   2.089   3.477  0.1894  1.1945  1.2404
   50CHL1   H1B 4852   5.252   2.259   3.480  0.8467 -0.0513  1.5582
   50CHL1    C2 4853   5.306   2.193   3.278 -0.3547  0.2953 -0.7896
   50CHL1   H2A 4854   5.202   2.213   3.246 -0.6990  0.8613  0.5789
   50CHL1   H2B 4855   5.346   2.101   3.230 -1.3675 -0.6840  0.1793
   50CHL1   C20 4856   5.585   2.124   4.187 -0.2628 -0.6954 -0.1983
   50CHL1   H20 4857   5.692   2.093   4.187 -0.4172 -1.2258 -0.6148
   50CHL1   C21 4858   5.488   2.004   4.183  0.1252 -0.1825  0.6480
   50CHL1  H21A 4859   5.512   1.944   4.093  0.7622  0.3822  0.4305
   50CHL1  H21B 4860   5.389   2.048   4.160  0.4627 -0.6950 -2.1664
   50CHL1  H21C 4861   5.489   1.941   4.275  1.7642  2.0965  2.3070
   50CHL1   C22 4862   5.575   2.190   4.330  0.3243  0.2105  1.0797
   50CHL1  H22A 4863   5.621   2.291   4.328  3.1286 -0.9220 -3.0120
   50CHL1  H22B 4864   5.468   2.199   4.361  0.1086  0.9190  0.1955
   50CHL1   C23 4865   5.645   2.117   4.441  0.1476 -0.2106 -0.3894
   50CHL1  H23A 4866   5.597   2.019   4.465  0.4621 -0.0025  1.2194
   50CHL1  H23B 4867   5.747   2.087   4.410 -0.1299 -0.0188 -1.5187
   50CHL1   C24 4868   5.671   2.197   4.567  0.1709 -0.6671  0.3883
   50CHL1  H24A 4869   5.709   2.299   4.546 -0.6762 -0.2195  0.9639
   50CHL1  H24B 4870   5.569   2.218   4.605 -0.8252 -2.1420 -1.3444
   50CHL1   C25 4871   5.754   2.114   4.667  0.0922 -0.3900  0.9553
   50CHL1   H25 4872   5.859   2.109   4.630  0.3346 -1.0639  1.7017
   50CHL1   C26 4873   5.750   2.188   4.799 -0.5283 -0.0520  0.4153
   50CHL1  H26A 4874   5.838   2.150   4.855 -1.3219  0.4854  2.0741
   50CHL1  H26B 4875   5.754   2.299   4.788  0.9656 -0.1885 -0.7720
   50CHL1  H26C 4876   5.658   2.163   4.855 -0.9121 -0.5503 -0.4258
   50CHL1   C27 4877   5.702   1.970   4.684 -0.6022  0.5754 -0.0789
   50CHL1  H27A 4878   5.734   1.928   4.782 -0.9423 -0.8282 -0.5491
   50CHL1  H27B 4879   5.592   1.961   4.675 -0.4140 -0.0050 -2.2928
   50CHL1  H27C 4880   5.733   1.907   4.598 -1.0376  2.1020 -1.3915
   51CHL1    C3 4881   5.402   5.407   3.457 -0.1022  0.0184 -0.5405
   51CHL1    H3 4882   5.459   5.483   3.514  0.3730  0.3224 -1.3940
   51CHL1    O3 4883   5.436   5.427   3.312 -0.3649 -0.2148 -0.3795
   51CHL1   H3' 4884   5.520   5.472   3.322 -0.1848 -0.8832  1.7952
   51CHL1    C4 4885   5.437   5.267   3.500  0.6344  0.3183  0.2484
   51CHL1   H4A 4886   5.394   5.213   3.412  1.6064  0.3259 -0.2418
   51CHL1   H4B 4887   5.548   5.261   3.493  0.9153  3.3267  0.7574
   51CHL1    C5 4888   5.383   5.218   3.632 -0.2162 -0.8067  0.0923
   51CHL1    C6 4889   5.469   5.177   3.729 -0.0098 -0.5428 -0.3658
   51CHL1    H6 4890   5.578   5.172   3.717 -0.0089 -1.1436 -0.1265
   51CHL1    C7 4891   5.432   5.140   3.871 -0.1559  0.0925  0.0244
   51CHL1   H7A 4892   5.494   5.062   3.919  0.1108  0.1525 -0.2223
   51CHL1   H7B 4893   5.452   5.222   3.943 -0.5921 -0.0552  0.3172
   51CHL1    C8 4894   5.283   5.117   3.887 -0.2781 -0.2043  0.3509
   51CHL1    H8 4895   5.275   5.018   3.838 -2.4359 -0.4142  1.0052
   51CHL1   C14 4896   5.243   5.110   4.039  0.7257  0.1367  0.2548
   51CHL1   H14 4897   5.264   5.215   4.069  0.5248 -0.3037  2.0322
   51CHL1   C15 4898   5.324   5.017   4.136 -0.1855 -0.1682 -0.2489
   51CHL1  H15A 4899   5.348   4.921   4.086  2.8730  0.2398  0.2496
   51CHL1  H15B 4900   5.416   5.067   4.175 -0.5046 -0.5206  1.0139
   51CHL1   C16 4901   5.226   5.009   4.259  0.4031 -0.1963  0.1784
   51CHL1  H16A 4902   5.195   4.902   4.262 -1.0525  0.1501 -1.0304
   51CHL1  H16B 4903   5.277   5.031   4.355  2.2125 -1.6300 -0.3843
   51CHL1   C17 4904   5.097   5.084   4.216 -0.6331 -0.1607  0.6793
   51CHL1   H17 4905   5.104   5.184   4.266  2.5615 -0.1477  0.4484
   51CHL1   C13 4906   5.095   5.084   4.064  0.3033 -0.8836 -0.2788
   51CHL1   C18 4907   5.064   4.943   4.005  0.4224 -0.0633 -0.1455
   51CHL1  H18A 4908   5.088   4.950   3.897  1.0100  1.4555  0.0621
   51CHL1  H18B 4909   5.134   4.870   4.051  1.1054 -0.8721 -2.3355
   51CHL1  H18C 4910   4.961   4.908   4.026  0.3409  0.4367  0.3305
   51CHL1   C12 4911   5.018   5.204   4.002 -0.4710 -0.1638  0.5460
   51CHL1  H12A 4912   4.908   5.206   4.015 -0.4142  2.1248  1.0457
   51CHL1  H12B 4913   5.059   5.289   4.060 -0.3438 -0.7079  1.2767
   51CHL1   C11 4914   5.048   5.216   3.847  0.0243 -0.5759  0.0697
   51CHL1  H11A 4915   5.016   5.124   3.793 -0.7050  0.8297 -2.0160
   51CHL1  H11B 4916   4.987   5.299   3.806 -0.4392 -0.4911  0.9092
   51CHL1    C9 4917   5.202   5.224   3.810  0.5486 -0.1286 -0.1879
   51CHL1    H9 4918   5.240   5.318   3.854  0.7044  1.2889 -3.1307
   51CHL1   C10 4919   5.232   5.245   3.661 -0.5105  0.3330  0.3372
   51CHL1   C19 4920   5.154   5.151   3.572  0.1036  0.1782  0.9118
   51CHL1  H19A 4921   5.171   5.047   3.605  0.2094 -0.2622 -0.4711
   51CHL1  H19B 4922   5.046   5.177   3.577  0.0115 -0.4256  2.6563
   51CHL1  H19C 4923   5.188   5.166   3.467 -1.2067  0.7690  0.5462
   51CHL1    C1 4924   5.193   5.385   3.616 -0.7118 -0.2715 -0.8160
   51CHL1   H1A 4925   5.084   5.405   3.603 -0.4551  1.4867 -0.5647
   51CHL1   H1B 4926   5.221   5.453   3.699 -2.2151 -1.5007  0.7637
   51CHL1    C2 4927   5.250   5.428   3.481 -0.5327  0.2102  0.5084
   51CHL1   H2A 4928   5.223   5.535   3.474  1.6042  0.7732  0.2822
   51CHL1   H2B 4929   5.207   5.369   3.398  0.7476  0.1340 -0.1234
   51CHL1   C20 4930   4.975   5.015   4.286 -0.3109 -0.7829  0.6943
   51CHL1   H20 4931   4.961   4.911   4.250  0.2407  0.1469 -2.5424
   51CHL1   C21 4932   4.839   5.089   4.246 -0.3576  0.2675  0.7490
   51CHL1  H21A 4933   4.757   5.036   4.299  0.8327 -2.2063  0.2895
   51CHL1  H21B 4934   4.834   5.058   4.139  0.0408  2.8478 -0.0912
   51CHL1  H21C 4935   4.836   5.199   4.257  0.6498  0.5418 -1.1741
   51CHL1   C22 4936   5.005   5.017   4.434 -0.2145 -0.5322 -0.4997
   51CHL1  H22A 4937   5.085   4.942   4.450  1.5297  0.9574 -1.9263
   51CHL1  H22B 4938   5.049   5.113   4.468 -0.7736 -0.1339 -0.8762
   51CHL1   C23 4939   4.886   4.984   4.522 -0.0238 -0.2094  0.3348
   51CHL1  H23A 4940   4.802   5.054   4.501 -0.2965 -0.9100 -1.0031
   51CHL1  H23B 4941   4.855   4.882   4.493 -0.9631 -0.8975  3.4003
   51CHL1   C24 4942   4.923   4.982   4.674 -0.2280  0.8054 -0.1484
   51CHL1  H24A 4943   5.005   4.910   4.692 -1.6062 -0.9275 -0.5248
   51CHL1  H24B 4944   4.963   5.085   4.688 -0.4085  0.6746  1.4367
   51CHL1   C25 4945   4.800   4.969   4.761 -0.1823  0.2953  0.2013
   51CHL1   H25 4946   4.724   5.039   4.722 -0.5455 -0.6126 -0.7871
   51CHL1   C26 4947   4.739   4.834   4.755 -0.1407 -0.1557  0.5967
   51CHL1  H26A 4948   4.807   4.749   4.777 -0.1869 -0.3514  0.0090
   51CHL1  H26B 4949   4.654   4.817   4.825  0.9671 -1.0250  1.7773
   51CHL1  H26C 4950   4.706   4.812   4.651 -1.8070 -0.1605  1.0910
   51CHL1   C27 4951   4.833   5.011   4.907 -0.2262  0.6471  0.1699
   51CHL1  H27A 4952   4.925   4.967   4.951  0.0147  0.6415 -0.3180
   51CHL1  H27B 4953   4.846   5.121   4.921  2.9033  0.2155  1.5859
   51CHL1  H27C 4954   4.756   4.975   4.977  2.3366 -2.1378  1.7513
   52CHL1    C3 4955   1.089   6.820   3.576 -0.1772  0.2295  0.2523
   52CHL1    H3 4956   1.018   6.734   3.573  0.8140 -0.6108 -2.4868
   52CHL1    O3 4957   1.069   6.880   3.450 -0.9170  0.1210 -0.4704
   52CHL1   H3' 4958   1.135   6.950   3.452  0.6379 -1.2684 -0.7431
   52CHL1    C4 4959   1.067   6.929   3.677 -0.6658  0.0476  1.1398
   52CHL1   H4A 4960   1.133   7.018   3.669  0.5390 -0.5989  3.0259
   52CHL1   H4B 4961   0.968   6.975   3.657  0.1080  0.9814 -0.8176
   52CHL1    C5 4962   1.078   6.878   3.816 -0.1603 -0.4619  0.2875
   52CHL1    C6 4963   0.980   6.901   3.901 -0.1395  0.0906 -0.4029
   52CHL1    H6 4964   0.898   6.966   3.866 -0.0820  0.9115  0.9471
   52CHL1    C7 4965   0.979   6.853   4.044 -0.3774  0.8203 -0.2491
   52CHL1   H7A 4966   0.935   6.927   4.114 -0.2315 -0.7541  1.5994
   52CHL1   H7B 4967   0.916   6.761   4.045  1.4861 -0.5284 -0.4622
   52CHL1    C8 4968   1.126   6.812   4.097  0.6674 -0.0354  0.8591
   52CHL1    H8 4969   1.175   6.909   4.118  2.0351 -0.6175  0.5425
   52CHL1   C14 4970   1.109   6.727   4.223  0.8143 -0.1578  0.2867
   52CHL1   H14 4971   1.057   6.639   4.182  1.7725  0.0030 -1.3399
   52CHL1   C15 4972   1.012   6.779   4.334  0.0233 -0.0648 -0.3511
   52CHL1  H15A 4973   1.006   6.889   4.345  0.9635 -0.1215  1.1060
   52CHL1  H15B 4974   0.908   6.748   4.309 -0.8937  1.4585  1.3193
   52CHL1   C16 4975   1.058   6.703   4.458 -0.9019  0.5931 -0.2732
   52CHL1  H16A 4976   1.103   6.770   4.534 -1.3952  0.9548 -0.3009
   52CHL1  H16B 4977   0.974   6.643   4.497 -0.1944 -2.8062 -3.3653
   52CHL1   C17 4978   1.182   6.615   4.411  0.2269 -0.4020  0.3439
   52CHL1   H17 4979   1.136   6.517   4.387 -0.3871 -0.4665  1.6801
   52CHL1   C13 4980   1.236   6.689   4.288  0.0786  0.3995  0.0209
   52CHL1   C18 4981   1.317   6.806   4.331  0.6143  1.3093 -0.3307
   52CHL1  H18A 4982   1.269   6.857   4.417  0.0290  1.4583 -0.7348
   52CHL1  H18B 4983   1.421   6.783   4.363  1.0255  0.0074 -2.4160
   52CHL1  H18C 4984   1.331   6.873   4.243  0.3004  1.9292  0.0820
   52CHL1   C12 4985   1.315   6.609   4.185  0.1984  0.0967  0.0953
   52CHL1  H12A 4986   1.412   6.572   4.225 -0.9604 -1.5897  1.4823
   52CHL1  H12B 4987   1.268   6.510   4.164 -1.4714  0.2884  2.5226
   52CHL1   C11 4988   1.333   6.679   4.047 -0.6799 -0.2514 -0.4288
   52CHL1  H11A 4989   1.407   6.761   4.062 -1.5440  0.4378  0.1714
   52CHL1  H11B 4990   1.371   6.606   3.972  0.6577 -0.9046  0.8274
   52CHL1    C9 4991   1.195   6.732   3.991 -1.0240 -0.3547  0.1906
   52CHL1    H9 4992   1.133   6.639   3.984 -2.2448 -0.0277  4.3272
   52CHL1   C10 4993   1.207   6.805   3.852  0.2676  0.5741 -0.4694
   52CHL1   C19 4994   1.322   6.910   3.848  0.6105  0.0146  0.4919
   52CHL1  H19A 4995   1.422   6.863   3.860  1.0789  1.1675  1.3905
   52CHL1  H19B 4996   1.338   6.969   3.755 -0.8641  0.4030  0.4675
   52CHL1  H19C 4997   1.302   6.993   3.920  0.2604 -0.1843  0.6254
   52CHL1    C1 4998   1.229   6.701   3.736  0.8160 -0.5991 -0.0392
   52CHL1   H1A 4999   1.320   6.640   3.749  0.7302 -0.3309  2.1196
   52CHL1   H1B 5000   1.145   6.629   3.750  0.4210 -0.1305  0.0237
   52CHL1    C2 5001   1.228   6.764   3.601 -1.2412  0.4442  0.3042
   52CHL1   H2A 5002   1.257   6.694   3.520  3.2347  2.1935  0.1355
   52CHL1   H2B 5003   1.287   6.856   3.579 -1.1729  0.9859  2.5044
   52CHL1   C20 5004   1.272   6.591   4.529  0.3697  0.1873 -1.0467
   52CHL1   H20 5005   1.319   6.686   4.563  1.1936  0.0890 -1.8649
   52CHL1   C21 5006   1.393   6.497   4.491  0.7359  0.5800  0.6237
   52CHL1  H21A 5007   1.359   6.411   4.430  0.3873 -0.5939  2.4297
   52CHL1  H21B 5008   1.446   6.452   4.577  0.5219  0.4617  0.6933
   52CHL1  H21C 5009   1.457   6.559   4.423 -1.5766  1.5166 -0.8279
   52CHL1   C22 5010   1.199   6.530   4.660 -0.6533 -0.1862  0.2885
   52CHL1  H22A 5011   1.126   6.611   4.686  2.0536  1.8196  2.2367
   52CHL1  H22B 5012   1.145   6.436   4.637 -0.8760 -0.4404  1.7654
   52CHL1   C23 5013   1.296   6.516   4.783  0.6074 -0.1954 -0.2742
   52CHL1  H23A 5014   1.368   6.434   4.765  0.1031 -0.9972  1.2095
   52CHL1  H23B 5015   1.355   6.608   4.802  0.8918 -0.3402 -0.4570
   52CHL1   C24 5016   1.227   6.480   4.915  0.4305 -0.0890  0.7672
   52CHL1  H24A 5017   1.141   6.547   4.933 -2.0648 -3.0428  0.6131
   52CHL1  H24B 5018   1.179   6.381   4.903  2.0023 -0.8220  0.2831
   52CHL1   C25 5019   1.329   6.472   5.042 -0.6952  0.0962 -0.4486
   52CHL1   H25 5020   1.403   6.553   5.023 -1.2936  1.0718  1.1719
   52CHL1   C26 5021   1.261   6.499   5.182 -0.7681  0.6224  0.0759
   52CHL1  H26A 5022   1.185   6.418   5.186  0.7035 -0.7785  1.1285
   52CHL1  H26B 5023   1.331   6.495   5.268  0.8154 -3.0690 -1.1602
   52CHL1  H26C 5024   1.204   6.594   5.180 -0.7485  0.6385  0.3302
   52CHL1   C27 5025   1.418   6.344   5.042  0.6732  0.3765  0.5292
   52CHL1  H27A 5026   1.502   6.339   5.115  2.7677  2.1727 -1.6173
   52CHL1  H27B 5027   1.354   6.257   5.068  0.9549 -0.0065 -0.0413
   52CHL1  H27C 5028   1.468   6.319   4.946 -0.6750  0.0016 -0.1008
   53CHL1    C3 5029   0.557   0.087   3.442 -0.2931  0.8031  0.1390
   53CHL1    H3 5030   0.667   0.075   3.455 -0.5403 -1.2206  0.7396
   53CHL1    O3 5031   0.519   0.112   3.307 -0.3818  0.5170  0.2300
   53CHL1   H3' 5032   0.426   0.133   3.311  0.0139  3.4670 -1.7862
   53CHL1    C4 5033   0.491  -0.049   3.487 -0.2647 -0.7699  0.2772
   53CHL1   H4A 5034   0.385  -0.039   3.455 -0.0783  0.4970 -0.0273
   53CHL1   H4B 5035   0.527  -0.127   3.416  0.8305  1.2878 -1.5732
   53CHL1    C5 5036   0.528  -0.079   3.631 -0.2579 -0.4603  0.1946
   53CHL1    C6 5037   0.584  -0.196   3.666 -0.4907  0.1202  0.1372
   53CHL1    H6 5038   0.604  -0.269   3.585  1.5212 -2.3764  2.6966
   53CHL1    C7 5039   0.609  -0.240   3.807 -0.0580  0.2911  0.5367
   53CHL1   H7A 5040   0.583  -0.345   3.832  2.5598 -0.9000 -1.3562
   53CHL1   H7B 5041   0.718  -0.234   3.826 -0.2525 -0.4471  2.0403
   53CHL1    C8 5042   0.533  -0.156   3.913 -0.3599  0.5818 -0.5251
   53CHL1    H8 5043   0.427  -0.189   3.912 -0.1183 -0.2178 -0.7320
   53CHL1   C14 5044   0.590  -0.177   4.052 -0.5920 -0.3014  0.1531
   53CHL1   H14 5045   0.698  -0.161   4.035 -0.7769  0.1818 -0.5634
   53CHL1   C15 5046   0.595  -0.312   4.116 -0.3320  0.4083 -1.0789
   53CHL1  H15A 5047   0.498  -0.367   4.116 -0.9616  1.4714 -2.3653
   53CHL1  H15B 5048   0.664  -0.370   4.050  2.1794  2.7079 -0.6286
   53CHL1   C16 5049   0.645  -0.296   4.259 -0.2472  0.5429 -0.2612
   53CHL1  H16A 5050   0.582  -0.352   4.332  0.9354 -0.4546  0.0309
   53CHL1  H16B 5051   0.745  -0.339   4.282 -1.0259 -0.6243  1.1302
   53CHL1   C17 5052   0.621  -0.151   4.290  0.3259  0.0117 -0.1238
   53CHL1   H17 5053   0.720  -0.103   4.274  1.2046 -1.0164  1.9001
   53CHL1   C13 5054   0.535  -0.097   4.165  0.7442 -0.0393 -0.1488
   53CHL1   C18 5055   0.377  -0.136   4.190 -0.3574 -0.1607  1.0134
   53CHL1  H18A 5056   0.319  -0.123   4.095 -0.3140 -2.4498  0.6201
   53CHL1  H18B 5057   0.382  -0.241   4.226  2.2788  0.0500  1.4206
   53CHL1  H18C 5058   0.337  -0.067   4.267 -1.6549 -0.9168  1.0543
   53CHL1   C12 5059   0.559   0.050   4.129  0.0311  0.4800  1.0512
   53CHL1  H12A 5060   0.507   0.115   4.203 -1.1074  0.5394  0.2258
   53CHL1  H12B 5061   0.666   0.076   4.140  0.2871 -0.4143  0.7222
   53CHL1   C11 5062   0.494   0.086   3.993 -0.4673  0.3428  0.7450
   53CHL1  H11A 5063   0.383   0.082   4.000 -0.4269  0.1499  1.3656
   53CHL1  H11B 5064   0.522   0.192   3.972  0.3209 -0.4254 -2.6894
   53CHL1    C9 5065   0.545  -0.005   3.876 -0.4519 -0.0796 -0.4989
   53CHL1    H9 5066   0.655   0.008   3.880 -0.6246  1.2091  1.6479
   53CHL1   C10 5067   0.493   0.028   3.729 -0.4749  0.5479 -0.9678
   53CHL1   C19 5068   0.334   0.032   3.730 -0.5288 -0.7541  0.0747
   53CHL1  H19A 5069   0.297   0.108   3.802  1.4344 -2.2285  2.8627
   53CHL1  H19B 5070   0.280   0.042   3.634  0.6174  1.7069 -0.3783
   53CHL1  H19C 5071   0.294  -0.063   3.772 -1.8779  0.2585  1.1926
   53CHL1    C1 5072   0.549   0.169   3.679  0.6498  0.0689  0.6366
   53CHL1   H1A 5073   0.495   0.246   3.738 -0.8790 -0.7631  0.3951
   53CHL1   H1B 5074   0.659   0.175   3.688  0.7224 -1.4337  1.0313
   53CHL1    C2 5075   0.516   0.199   3.535 -0.1599  0.1334  1.1225
   53CHL1   H2A 5076   0.572   0.287   3.496 -1.4260  0.1554 -0.8006
   53CHL1   H2B 5077   0.406   0.218   3.532 -0.5081 -1.3680  3.0979
   53CHL1   C20 5078   0.571  -0.130   4.437 -0.2776 -0.4900 -0.3138
   53CHL1   H20 5079   0.479  -0.185   4.465  1.4676 -2.7717  1.2946
   53CHL1   C21 5080   0.541   0.021   4.458  0.8874  0.2227 -0.2555
   53CHL1  H21A 5081   0.510   0.038   4.564 -0.4605 -0.3887 -0.5305
   53CHL1  H21B 5082   0.456   0.063   4.401  0.6856  1.2390  0.7572
   53CHL1  H21C 5083   0.628   0.081   4.426 -0.3915  2.1109 -0.3650
   53CHL1   C22 5084   0.678  -0.170   4.540  0.5008  0.1326 -0.3479
   53CHL1  H22A 5085   0.722  -0.266   4.506  1.3836 -0.0804  1.3189
   53CHL1  H22B 5086   0.759  -0.095   4.552  0.2745  0.6873 -2.0180
   53CHL1   C23 5087   0.628  -0.205   4.684 -0.9070  0.1079  0.2853
   53CHL1  H23A 5088   0.601  -0.111   4.737 -1.3740 -0.9647  2.0387
   53CHL1  H23B 5089   0.539  -0.271   4.684 -0.0486 -1.0848  0.5352
   53CHL1   C24 5090   0.753  -0.260   4.763 -0.1141  0.9863 -0.4513
   53CHL1  H24A 5091   0.825  -0.324   4.707 -1.1771 -0.9589  0.2909
   53CHL1  H24B 5092   0.809  -0.172   4.801 -0.2563  1.4725 -1.3397
   53CHL1   C25 5093   0.721  -0.335   4.892  0.2563  0.1847 -0.0025
   53CHL1   H25 5094   0.651  -0.271   4.951 -0.5765 -2.7258  2.4385
   53CHL1   C26 5095   0.656  -0.471   4.864 -0.7902  0.4504 -1.4668
   53CHL1  H26A 5096   0.564  -0.454   4.805 -1.6896 -0.3303 -0.3477
   53CHL1  H26B 5097   0.720  -0.548   4.817 -0.1410  0.7209 -1.0458
   53CHL1  H26C 5098   0.623  -0.513   4.962 -0.2719  2.4568 -0.3734
   53CHL1   C27 5099   0.843  -0.354   4.973 -0.2214 -0.1166 -0.1604
   53CHL1  H27A 5100   0.897  -0.262   5.007  3.4044 -1.9149 -0.5678
   53CHL1  H27B 5101   0.823  -0.407   5.069  0.4288 -1.7655 -0.9140
   53CHL1  H27C 5102   0.918  -0.411   4.914 -1.5918 -1.1360 -0.9660
   54CHL1    C3 5103   6.516   6.470   3.787  0.4871 -0.2388  0.1994
   54CHL1    H3 5104   6.576   6.564   3.777 -0.3321  0.2603 -0.1773
   54CHL1    O3 5105   6.511   6.411   3.656  0.9109 -0.2695 -0.2632
   54CHL1   H3' 5106   6.432   6.450   3.617 -0.8365 -1.7267  1.5714
   54CHL1    C4 5107   6.566   6.386   3.897  0.1327  0.0280 -0.0167
   54CHL1   H4A 5108   6.513   6.288   3.890  1.3059 -0.5523 -1.4944
   54CHL1   H4B 5109   6.673   6.371   3.871  0.2986  0.7185  0.2542
   54CHL1    C5 5110   6.557   6.444   4.029  0.5518  0.3387 -0.3877
   54CHL1    C6 5111   6.660   6.443   4.112 -0.2425  0.6663 -0.0298
   54CHL1    H6 5112   6.757   6.401   4.083  0.6745  0.9184  2.3984
   54CHL1    C7 5113   6.662   6.483   4.249  0.1277  0.9209  0.5160
   54CHL1   H7A 5114   6.713   6.403   4.306 -0.5603  0.0550 -0.0545
   54CHL1   H7B 5115   6.728   6.573   4.248  2.6198 -0.7874  0.2231
   54CHL1    C8 5116   6.515   6.503   4.293  0.2998 -0.7167  0.6413
   54CHL1    H8 5117   6.480   6.401   4.318  1.3869 -1.4598 -0.6858
   54CHL1   C14 5118   6.516   6.590   4.420 -0.0542 -0.0264  0.2031
   54CHL1   H14 5119   6.564   6.688   4.400 -0.4131  0.0541 -0.2731
   54CHL1   C15 5120   6.596   6.538   4.543 -0.1656  1.0008 -0.4930
   54CHL1  H15A 5121   6.586   6.429   4.558  0.5795  0.9072 -0.6562
   54CHL1  H15B 5122   6.699   6.576   4.529 -0.2540  1.2825 -0.3942
   54CHL1   C16 5123   6.532   6.606   4.670 -0.5871  0.3944  0.1167
   54CHL1  H16A 5124   6.497   6.534   4.746 -0.6602  0.2647 -0.0396
   54CHL1  H16B 5125   6.605   6.676   4.716 -0.7588  1.2580 -0.8884
   54CHL1   C17 5126   6.413   6.693   4.614  0.2894 -0.1907  0.5605
   54CHL1   H17 5127   6.456   6.793   4.592  0.2146  0.1585  1.9129
   54CHL1   C13 5128   6.378   6.624   4.482  0.0987  0.8275 -0.0124
   54CHL1   C18 5129   6.308   6.487   4.519 -0.1773 -0.0748  0.0502
   54CHL1  H18A 5130   6.306   6.423   4.428  1.9808  0.7339 -0.6407
   54CHL1  H18B 5131   6.356   6.429   4.600 -2.7423 -0.4399  1.4084
   54CHL1  H18C 5132   6.207   6.519   4.550 -0.0209 -0.1824  0.6799
   54CHL1   C12 5133   6.295   6.699   4.385  0.3480 -0.9958  0.1392
   54CHL1  H12A 5134   6.192   6.718   4.423 -0.3323 -0.2184 -1.9664
   54CHL1  H12B 5135   6.345   6.792   4.351 -0.8385 -0.0844  0.8366
   54CHL1   C11 5136   6.284   6.615   4.256 -0.2207  0.0458  0.9628
   54CHL1  H11A 5137   6.231   6.518   4.272 -0.6939  0.3189  1.0589
   54CHL1  H11B 5138   6.227   6.665   4.175 -0.4596  0.3167  1.2958
   54CHL1    C9 5139   6.425   6.578   4.191 -0.5602  0.0104 -0.5868
   54CHL1    H9 5140   6.476   6.674   4.169  2.5099 -1.5176 -0.6124
   54CHL1   C10 5141   6.418   6.497   4.063  0.2526 -0.1600  0.7948
   54CHL1   C19 5142   6.317   6.370   4.076 -0.4274  0.3593  0.2095
   54CHL1  H19A 5143   6.318   6.298   3.991 -3.4100 -0.9335  1.1752
   54CHL1  H19B 5144   6.330   6.313   4.170  1.9542 -2.5032 -1.6422
   54CHL1  H19C 5145   6.218   6.419   4.074 -0.7850 -0.3329 -1.4809
   54CHL1    C1 5146   6.365   6.587   3.947 -0.2954 -0.2303 -0.1533
   54CHL1   H1A 5147   6.262   6.621   3.968 -0.5532 -0.2565 -1.3003
   54CHL1   H1B 5148   6.420   6.684   3.941  1.3362 -1.1586 -0.8885
   54CHL1    C2 5149   6.373   6.522   3.804  0.0601  0.5227 -0.6032
   54CHL1   H2A 5150   6.330   6.596   3.734 -0.7175  0.2369 -0.4456
   54CHL1   H2B 5151   6.307   6.433   3.813  0.6117  0.2909  1.9676
   54CHL1   C20 5152   6.303   6.711   4.728 -0.9064 -0.4851 -0.4612
   54CHL1   H20 5153   6.263   6.610   4.754 -1.1992 -0.1444  0.4441
   54CHL1   C21 5154   6.188   6.799   4.685 -0.1657  0.5126 -0.0140
   54CHL1  H21A 5155   6.131   6.829   4.775  0.3601  1.5231 -0.0050
   54CHL1  H21B 5156   6.134   6.738   4.610 -0.0275 -0.4855  0.6773
   54CHL1  H21C 5157   6.231   6.886   4.631 -0.8146 -0.2321 -1.8041
   54CHL1   C22 5158   6.360   6.760   4.864  0.2055 -0.4199  1.2546
   54CHL1  H22A 5159   6.284   6.763   4.945 -0.9928 -2.5525  0.2621
   54CHL1  H22B 5160   6.445   6.691   4.884  0.3465 -0.6957 -0.2273
   54CHL1   C23 5161   6.425   6.900   4.860  0.3470  0.2075  0.2814
   54CHL1  H23A 5162   6.529   6.881   4.827 -0.1311 -1.7375 -0.2193
   54CHL1  H23B 5163   6.361   6.972   4.804  1.0770  1.4675  1.0284
   54CHL1   C24 5164   6.443   6.966   4.999 -0.5669 -0.0426  0.4232
   54CHL1  H24A 5165   6.338   6.971   5.037 -1.1097 -0.3671 -0.9390
   54CHL1  H24B 5166   6.494   6.885   5.054 -2.4472 -2.4683 -1.1841
   54CHL1   C25 5167   6.510   7.100   5.013  1.2182 -0.3890 -0.2915
   54CHL1   H25 5168   6.460   7.159   4.933  1.2766 -0.6149 -0.4983
   54CHL1   C26 5169   6.486   7.161   5.151 -0.0345 -0.0838  0.0097
   54CHL1  H26A 5170   6.523   7.266   5.156  2.2335 -0.8959  2.3048
   54CHL1  H26B 5171   6.376   7.164   5.163 -0.4363  2.3357 -3.0578
   54CHL1  H26C 5172   6.532   7.108   5.237  0.2208  0.7793  0.4177
   54CHL1   C27 5173   6.657   7.087   4.986 -0.3029  0.1297  0.2025
   54CHL1  H27A 5174   6.708   7.171   4.934  1.0612 -1.0114 -0.3580
   54CHL1  H27B 5175   6.710   7.075   5.083  1.1876 -1.8035 -0.7668
   54CHL1  H27C 5176   6.691   6.999   4.927 -1.0927  1.1887 -1.9245
   55CHL1    C3 5177   5.968   3.217   3.589  0.7344  0.4745  0.6786
   55CHL1    H3 5178   5.858   3.226   3.600  0.6238 -1.5950  1.7388
   55CHL1    O3 5179   5.992   3.225   3.452 -0.0911  0.4725 -0.5017
   55CHL1   H3' 5180   6.058   3.160   3.426 -1.4851 -0.9774 -0.6637
   55CHL1    C4 5181   6.067   3.314   3.667  0.2541  0.2471  0.1472
   55CHL1   H4A 5182   6.171   3.279   3.650  0.1618  1.4344 -3.7571
   55CHL1   H4B 5183   6.062   3.418   3.629 -1.6347  0.2819  0.3755
   55CHL1    C5 5184   6.034   3.297   3.812  0.9644  0.0350  0.2149
   55CHL1    C6 5185   5.990   3.400   3.887  0.2644  0.3777  0.2275
   55CHL1    H6 5186   5.988   3.503   3.848 -1.7903 -0.1481 -1.2001
   55CHL1    C7 5187   5.965   3.380   4.031  0.4177  0.3622 -0.6037
   55CHL1   H7A 5188   6.001   3.471   4.084  0.9709  0.0288 -0.4004
   55CHL1   H7B 5189   5.856   3.378   4.052  0.7786  1.7266  1.8106
   55CHL1    C8 5190   6.020   3.257   4.093 -0.1121  0.4722 -0.2877
   55CHL1    H8 5191   6.131   3.256   4.097 -0.0801 -0.7602 -0.8591
   55CHL1   C14 5192   5.969   3.230   4.237 -0.1868  0.1643 -0.3999
   55CHL1   H14 5193   5.860   3.218   4.224  0.2876 -2.5259 -2.8797
   55CHL1   C15 5194   5.982   3.343   4.345  0.5278  0.6531 -0.4688
   55CHL1  H15A 5195   6.086   3.383   4.349  1.0562 -0.7641  1.4456
   55CHL1  H15B 5196   5.908   3.426   4.335  1.3523  1.4261 -0.3413
   55CHL1   C16 5197   5.953   3.273   4.470  0.5167 -0.7393 -0.0810
   55CHL1  H16A 5198   6.040   3.280   4.539  1.3175  0.2589 -1.1575
   55CHL1  H16B 5199   5.863   3.306   4.526  0.9573  1.3486 -0.5229
   55CHL1   C17 5200   5.948   3.122   4.441 -0.3847  0.7309  0.7309
   55CHL1   H17 5201   5.843   3.098   4.415 -0.3693  2.0040 -0.5871
   55CHL1   C13 5202   6.017   3.104   4.302  0.2250 -0.3698 -0.5714
   55CHL1   C18 5203   6.175   3.108   4.336  0.6884  0.5336 -0.1628
   55CHL1  H18A 5204   6.224   3.141   4.242 -1.2079  1.5228 -0.8614
   55CHL1  H18B 5205   6.201   3.188   4.408 -1.1526 -0.5736  1.8432
   55CHL1  H18C 5206   6.217   3.013   4.374 -1.9472 -1.9029 -2.7825
   55CHL1   C12 5207   5.976   2.987   4.212  0.1142  0.5352 -0.5443
   55CHL1  H12A 5208   6.007   2.892   4.262 -0.2976  0.1326 -1.0401
   55CHL1  H12B 5209   5.869   2.966   4.193  0.7883 -0.7722 -3.4468
   55CHL1   C11 5210   6.037   3.000   4.078 -0.1013  0.0384  0.6651
   55CHL1  H11A 5211   6.147   3.004   4.093  0.1381 -0.3661 -0.8088
   55CHL1  H11B 5212   6.025   2.911   4.013 -0.3229 -0.6047  1.5714
   55CHL1    C9 5213   5.990   3.131   4.002  0.4859 -0.6854 -0.0369
   55CHL1    H9 5214   5.879   3.126   3.991  0.6029  0.1250 -2.0802
   55CHL1   C10 5215   6.047   3.158   3.862 -0.2064  0.1161  0.2397
   55CHL1   C19 5216   6.199   3.125   3.868  0.3210  0.3617  0.5175
   55CHL1  H19A 5217   6.250   3.138   3.770 -1.5546 -0.7603 -0.6895
   55CHL1  H19B 5218   6.245   3.175   3.956  1.2213 -1.9352  1.4044
   55CHL1  H19C 5219   6.214   3.017   3.886  0.2581  0.3568  0.5427
   55CHL1    C1 5220   5.984   3.047   3.766  0.6807 -0.0321  0.1446
   55CHL1   H1A 5221   6.016   2.947   3.803  1.0029 -0.5157 -1.3633
   55CHL1   H1B 5222   5.876   3.061   3.784 -0.2069 -2.0641 -2.9556
   55CHL1    C2 5223   6.003   3.072   3.617 -0.2421 -0.1262 -0.1909
   55CHL1   H2A 5224   5.930   3.006   3.565  0.3778  0.0607 -1.3503
   55CHL1   H2B 5225   6.110   3.055   3.593  0.0729 -1.3585  1.8482
   55CHL1   C20 5226   5.999   3.027   4.551  0.4030 -1.2017 -0.1535
   55CHL1   H20 5227   6.105   3.045   4.577  0.0811 -0.9238  0.9951
   55CHL1   C21 5228   5.983   2.875   4.523  0.2539 -0.1307 -0.0474
   55CHL1  H21A 5229   6.070   2.827   4.474 -1.8602 -3.9075 -0.5264
   55CHL1  H21B 5230   5.892   2.862   4.460 -0.1394 -1.4338  0.7601
   55CHL1  H21C 5231   5.969   2.833   4.625 -1.5705 -0.5965 -0.4544
   55CHL1   C22 5232   5.914   3.054   4.678 -0.2217  0.0872 -0.1810
   55CHL1  H22A 5233   5.970   3.009   4.763 -0.1330 -1.2758 -0.9262
   55CHL1  H22B 5234   5.906   3.163   4.700  0.1287  0.2636 -0.8919
   55CHL1   C23 5235   5.771   3.007   4.680  0.1646  0.5075 -0.1523
   55CHL1  H23A 5236   5.720   3.043   4.588 -1.2601 -1.3696 -0.1612
   55CHL1  H23B 5237   5.777   2.896   4.672  1.3464  0.4464  1.2646
   55CHL1   C24 5238   5.704   3.024   4.816 -0.0612 -0.0884  0.3003
   55CHL1  H24A 5239   5.772   2.994   4.899 -0.0937 -1.6367 -0.2150
   55CHL1  H24B 5240   5.680   3.131   4.833 -1.5272 -0.5723  1.4008
   55CHL1   C25 5241   5.573   2.938   4.830 -0.2818  0.9670 -0.1217
   55CHL1   H25 5242   5.590   2.835   4.791  1.6578  0.9688  0.6407
   55CHL1   C26 5243   5.539   2.932   4.979 -0.1224 -0.4088  0.8870
   55CHL1  H26A 5244   5.440   2.883   4.998 -1.9104  2.9135  0.9105
   55CHL1  H26B 5245   5.622   2.877   5.028  1.1209  0.8295  0.2405
   55CHL1  H26C 5246   5.521   3.026   5.035  0.6479 -1.1573  2.4711
   55CHL1   C27 5247   5.457   3.007   4.760  0.3057 -0.2052 -0.3923
   55CHL1  H27A 5248   5.435   3.107   4.803  0.7614  0.2369 -1.1606
   55CHL1  H27B 5249   5.486   3.017   4.653  0.1760  0.5001 -0.3624
   55CHL1  H27C 5250   5.366   2.945   4.750 -0.0146  0.4251 -1.6138
   56CHL1    C3 5251   6.007   5.775   3.523  0.2739  0.1268  0.8786
   56CHL1    H3 5252   6.078   5.855   3.553  0.9775 -0.7371  1.5949
   56CHL1    O3 5253   6.018   5.780   3.383 -0.2271 -0.1058 -0.2321
   56CHL1   H3' 5254   5.981   5.867   3.362  1.6325  0.8279  0.1745
   56CHL1    C4 5255   6.048   5.642   3.560 -0.6836 -0.0800  0.3388
   56CHL1   H4A 5256   5.994   5.567   3.499  1.8134 -1.6360 -0.1253
   56CHL1   H4B 5257   6.150   5.634   3.516  0.1263  1.9053  1.6933
   56CHL1    C5 5258   6.037   5.606   3.707 -0.0061  0.4380  0.0130
   56CHL1    C6 5259   6.149   5.564   3.773  0.1573  0.4462 -0.3825
   56CHL1    H6 5260   6.247   5.550   3.725  0.2461 -2.0772  0.3835
   56CHL1    C7 5261   6.138   5.526   3.918 -0.1674 -0.1794 -0.1653
   56CHL1   H7A 5262   6.192   5.430   3.933 -0.5758 -0.6093 -1.3583
   56CHL1   H7B 5263   6.188   5.605   3.978  0.0420 -0.1399 -0.3886
   56CHL1    C8 5264   5.992   5.508   3.969 -0.2008 -0.4326 -0.4082
   56CHL1    H8 5265   5.947   5.412   3.935  0.1137 -0.1823 -1.5355
   56CHL1   C14 5266   5.994   5.511   4.126  0.3161 -0.1831 -0.4604
   56CHL1   H14 5267   6.053   5.603   4.146  1.2193 -1.0006  0.8631
   56CHL1   C15 5268   6.065   5.395   4.200  0.2407  0.2538  0.3967
   56CHL1  H15A 5269   6.037   5.295   4.160  0.1783 -0.2382  1.6209
   56CHL1  H15B 5270   6.172   5.414   4.174  0.3057 -0.9994 -0.3458
   56CHL1   C16 5271   6.024   5.419   4.342  0.1649 -0.8537  0.6431
   56CHL1  H16A 5272   5.990   5.320   4.381  2.0124 -2.1595 -0.8541
   56CHL1  H16B 5273   6.109   5.470   4.392  1.1003 -2.3827  0.6788
   56CHL1   C17 5274   5.905   5.527   4.339  0.4379  0.3906 -0.1585
   56CHL1   H17 5275   5.954   5.625   4.357  1.5050 -0.4023  1.4832
   56CHL1   C13 5276   5.859   5.522   4.194 -0.3624  0.1869  0.3433
   56CHL1   C18 5277   5.763   5.395   4.165 -0.1384  0.1495 -0.7027
   56CHL1  H18A 5278   5.656   5.421   4.180  0.0025  0.0276  0.5806
   56CHL1  H18B 5279   5.779   5.367   4.059 -0.0204  1.7392 -1.1308
   56CHL1  H18C 5280   5.791   5.309   4.229  1.0354 -0.1291 -1.5636
   56CHL1   C12 5281   5.796   5.649   4.138 -0.1114 -0.1233  0.2373
   56CHL1  H12A 5282   5.705   5.672   4.198  1.3153  1.5466  1.8726
   56CHL1  H12B 5283   5.868   5.732   4.155  1.2696 -0.6015 -2.5567
   56CHL1   C11 5284   5.772   5.636   3.989 -0.4365  0.0596  0.3242
   56CHL1  H11A 5285   5.712   5.544   3.977  2.9060 -2.7004  2.7646
   56CHL1  H11B 5286   5.721   5.725   3.947  0.1121  1.9715  3.3588
   56CHL1    C9 5287   5.908   5.624   3.921  0.4544 -0.0229 -0.0664
   56CHL1    H9 5288   5.965   5.716   3.946 -1.3799  1.7798 -2.1044
   56CHL1   C10 5289   5.900   5.639   3.767 -0.6172 -0.5028  0.1665
   56CHL1   C19 5290   5.803   5.526   3.720  0.1459  0.3523 -0.6026
   56CHL1  H19A 5291   5.785   5.513   3.611 -0.6332  0.3171 -0.4775
   56CHL1  H19B 5292   5.832   5.426   3.758 -1.3833 -0.0649 -0.4901
   56CHL1  H19C 5293   5.703   5.560   3.756  0.4732  0.8829 -0.1817
   56CHL1    C1 5294   5.857   5.789   3.731  0.8817  0.1983 -0.3545
   56CHL1   H1A 5295   5.751   5.795   3.764  0.9443  1.5462 -0.3475
   56CHL1   H1B 5296   5.917   5.869   3.779  0.0169 -0.4734  1.9903
   56CHL1    C2 5297   5.859   5.801   3.577 -0.2715 -0.0569 -0.1690
   56CHL1   H2A 5298   5.832   5.903   3.543 -1.0604 -0.5243 -0.9864
   56CHL1   H2B 5299   5.799   5.720   3.529  2.5585 -2.7557  0.5009
   56CHL1   C20 5300   5.807   5.488   4.450 -0.5681  0.0845  0.1182
   56CHL1   H20 5301   5.762   5.389   4.425  3.4127 -1.7301 -0.6096
   56CHL1   C21 5302   5.687   5.587   4.451  0.0772  0.4263 -0.1636
   56CHL1  H21A 5303   5.632   5.574   4.547  0.5671 -0.4960  0.0121
   56CHL1  H21B 5304   5.610   5.568   4.373 -0.8601  0.1465  0.7956
   56CHL1  H21C 5305   5.719   5.693   4.452  1.4861  0.0197 -0.3848
   56CHL1   C22 5306   5.867   5.480   4.592  0.3389  0.1098 -0.3370
   56CHL1  H22A 5307   5.972   5.449   4.573  0.6183  2.1505 -2.5568
   56CHL1  H22B 5308   5.865   5.578   4.644 -3.0178 -0.3302  0.6283
   56CHL1   C23 5309   5.794   5.385   4.683  0.4133 -0.1991 -0.3377
   56CHL1  H23A 5310   5.686   5.411   4.678  0.4385  0.4155  1.6683
   56CHL1  H23B 5311   5.818   5.282   4.649  1.9655  0.4977 -1.4972
   56CHL1   C24 5312   5.844   5.401   4.825  0.3498  0.7490 -0.0465
   56CHL1  H24A 5313   5.954   5.417   4.821  0.4683 -0.2372 -1.2721
   56CHL1  H24B 5314   5.799   5.493   4.870  0.4451  0.6507  0.2527
   56CHL1   C25 5315   5.808   5.278   4.910 -0.5000  0.5108 -0.0213
   56CHL1   H25 5316   5.859   5.191   4.865 -0.3558 -0.4341  1.8892
   56CHL1   C26 5317   5.858   5.302   5.048  0.3161  0.1869  0.2321
   56CHL1  H26A 5318   5.821   5.228   5.123 -2.6692  0.9064 -0.4315
   56CHL1  H26B 5319   5.969   5.299   5.052  0.4916 -0.1579 -2.8725
   56CHL1  H26C 5320   5.818   5.399   5.083 -0.5495 -0.1283  0.1423
   56CHL1   C27 5321   5.659   5.264   4.921  0.3736  0.3616  0.0682
   56CHL1  H27A 5322   5.612   5.360   4.952 -0.1330  0.8521 -2.0565
   56CHL1  H27B 5323   5.618   5.233   4.823 -0.7644 -0.2915  0.7206
   56CHL1  H27C 5324   5.631   5.183   4.992 -1.7115 -1.0254 -2.1760
   57CHL1    C3 5325   5.513   3.460   3.640 -0.5946 -0.0879 -0.6751
   57CHL1    H3 5326   5.477   3.566   3.638  0.9228  0.5149  1.3402
   57CHL1    O3 5327   5.559   3.423   3.509 -0.4836  0.1583 -0.0031
   57CHL1   H3' 5328   5.590   3.334   3.528  1.0656  0.6736  0.0674
   57CHL1    C4 5329   5.624   3.462   3.743 -0.2621 -0.0522 -0.3590
   57CHL1   H4A 5330   5.673   3.362   3.754 -1.2222 -0.4525  0.4706
   57CHL1   H4B 5331   5.710   3.524   3.710  0.8935 -0.6178  1.4138
   57CHL1    C5 5332   5.587   3.480   3.890  0.7043  0.4178  0.4121
   57CHL1    C6 5333   5.628   3.577   3.962 -0.4241  0.1840  0.4594
   57CHL1    H6 5334   5.694   3.654   3.920  0.7696 -0.6627  0.7560
   57CHL1    C7 5335   5.599   3.593   4.105  0.2599  0.0915  0.4760
   57CHL1   H7A 5336   5.701   3.619   4.139  0.1841  0.4207  0.4468
   57CHL1   H7B 5337   5.537   3.682   4.127 -1.6616 -0.1254 -3.0941
   57CHL1    C8 5338   5.545   3.475   4.174  0.1669 -0.0405 -0.3413
   57CHL1    H8 5339   5.627   3.400   4.178  0.8235  0.6345 -0.9376
   57CHL1   C14 5340   5.491   3.514   4.313  0.1212  0.1802  0.0422
   57CHL1   H14 5341   5.397   3.569   4.291 -0.0368 -0.9729 -2.5145
   57CHL1   C15 5342   5.581   3.595   4.405 -0.6624 -0.4959 -0.3194
   57CHL1  H15A 5343   5.678   3.541   4.408 -0.7241 -0.5923  0.1230
   57CHL1  H15B 5344   5.597   3.702   4.382  2.6520 -0.8964 -0.2953
   57CHL1   C16 5345   5.512   3.574   4.545  0.2636  0.0861  0.7640
   57CHL1  H16A 5346   5.586   3.530   4.614  1.5757  1.0386  0.0239
   57CHL1  H16B 5347   5.475   3.671   4.584 -0.2842 -0.8149  2.5876
   57CHL1   C17 5348   5.391   3.473   4.522  0.0586 -0.0505 -0.2334
   57CHL1   H17 5349   5.307   3.541   4.496  0.5574 -0.0719 -1.9654
   57CHL1   C13 5350   5.430   3.395   4.397 -0.6013 -0.0099  0.1360
   57CHL1   C18 5351   5.544   3.282   4.422  0.1226 -0.5703  0.5922
   57CHL1  H18A 5352   5.594   3.254   4.327  0.7891  0.6830  0.5522
   57CHL1  H18B 5353   5.622   3.323   4.491 -0.2415  0.8474  0.1823
   57CHL1  H18C 5354   5.502   3.190   4.469 -2.1977 -0.8714 -1.8869
   57CHL1   C12 5355   5.315   3.351   4.305 -0.1328  0.1005 -1.0744
   57CHL1  H12A 5356   5.256   3.265   4.344 -2.4810  1.3929 -1.5427
   57CHL1  H12B 5357   5.240   3.432   4.287  0.7821  1.2945  0.3273
   57CHL1   C11 5358   5.357   3.303   4.165  0.3909  0.0436 -0.1916
   57CHL1  H11A 5359   5.427   3.218   4.183  0.0387 -0.6834 -2.0722
   57CHL1  H11B 5360   5.261   3.259   4.131  0.1708 -1.7434  2.4177
   57CHL1    C9 5361   5.430   3.416   4.092  0.3362  0.0316 -0.3231
   57CHL1    H9 5362   5.352   3.493   4.074 -0.6955 -1.1042 -0.9095
   57CHL1   C10 5363   5.480   3.380   3.942  0.4511 -0.1963 -0.1001
   57CHL1   C19 5364   5.533   3.228   3.934 -0.3197  0.5037  0.5183
   57CHL1  H19A 5365   5.453   3.154   3.956  0.2649 -0.6389 -0.9636
   57CHL1  H19B 5366   5.561   3.188   3.834  1.9000 -0.9121  1.6073
   57CHL1  H19C 5367   5.621   3.207   4.000 -0.6688 -0.9364  0.5729
   57CHL1    C1 5368   5.354   3.394   3.842  0.6168  0.3935  0.6773
   57CHL1   H1A 5369   5.277   3.320   3.875 -0.8185  0.9273 -1.2720
   57CHL1   H1B 5370   5.316   3.498   3.853 -2.0787 -0.3471 -0.7762
   57CHL1    C2 5371   5.398   3.366   3.695 -0.6027  0.3550 -0.1270
   57CHL1   H2A 5372   5.322   3.374   3.616  0.1001 -1.8699 -1.1001
   57CHL1   H2B 5373   5.435   3.262   3.681 -1.0782 -0.2654  2.6012
   57CHL1   C20 5374   5.349   3.401   4.647 -0.2995  0.0945 -0.4008
   57CHL1   H20 5375   5.438   3.339   4.676 -0.0715 -0.1773 -1.6429
   57CHL1   C21 5376   5.242   3.297   4.621  0.0161  0.1575 -0.8166
   57CHL1  H21A 5377   5.268   3.227   4.539 -0.0828 -0.7597 -0.0796
   57CHL1  H21B 5378   5.151   3.355   4.594 -0.3043 -0.9338 -2.1756
   57CHL1  H21C 5379   5.207   3.234   4.706  2.9225  0.1657  0.4950
   57CHL1   C22 5380   5.313   3.492   4.762  0.3098 -0.7795 -0.4070
   57CHL1  H22A 5381   5.304   3.429   4.853 -0.6468 -0.0231  0.0414
   57CHL1  H22B 5382   5.396   3.563   4.782  0.7595 -1.3402 -0.2684
   57CHL1   C23 5383   5.195   3.594   4.742  0.3889 -0.4912 -0.4402
   57CHL1  H23A 5384   5.222   3.645   4.647 -0.2698  1.1050  0.1969
   57CHL1  H23B 5385   5.098   3.540   4.731  0.3478 -0.1506 -1.9187
   57CHL1   C24 5386   5.175   3.687   4.860 -0.2454  0.5079 -0.2468
   57CHL1  H24A 5387   5.201   3.622   4.947  1.2603  0.2520 -0.8567
   57CHL1  H24B 5388   5.258   3.760   4.853 -0.6897  1.0558  0.1180
   57CHL1   C25 5389   5.026   3.743   4.868 -0.4601  0.9061  0.5873
   57CHL1   H25 5390   5.006   3.792   4.771  2.7498  2.1203  0.4245
   57CHL1   C26 5391   4.928   3.622   4.903  0.4899  0.3341  0.0529
   57CHL1  H26A 5392   4.918   3.538   4.831 -2.2204 -1.0144  1.8130
   57CHL1  H26B 5393   4.967   3.577   4.996  0.5891 -1.1640 -0.6747
   57CHL1  H26C 5394   4.822   3.651   4.921 -0.1716 -2.0243  0.3281
   57CHL1   C27 5395   5.004   3.852   4.980  0.1460  0.6079  0.4045
   57CHL1  H27A 5396   4.906   3.904   4.980  0.6387  1.7570  3.3244
   57CHL1  H27B 5397   5.008   3.800   5.078  0.3782 -2.2617 -1.0434
   57CHL1  H27C 5398   5.084   3.929   4.978  1.5672 -0.8285  0.1712
   58CHL1    C3 5399   4.985   2.627   3.434 -0.7806  0.4142 -0.4361
   58CHL1    H3 5400   4.996   2.736   3.455  0.3997  0.3317 -0.5948
   58CHL1    O3 5401   4.987   2.603   3.293 -0.0438  0.1799  0.6204
   58CHL1   H3' 5402   4.963   2.511   3.281  1.2983  0.1225 -2.6400
   58CHL1    C4 5403   5.113   2.557   3.470 -0.7790  0.1974  0.2657
   58CHL1   H4A 5404   5.121   2.450   3.441 -1.4229 -0.5312  2.5678
   58CHL1   H4B 5405   5.194   2.606   3.411 -1.0326 -0.1740 -0.4036
   58CHL1    C5 5406   5.136   2.550   3.622  0.2926  0.1969 -0.0981
   58CHL1    C6 5407   5.243   2.608   3.674 -0.4457 -0.5233  0.1513
   58CHL1    H6 5408   5.321   2.639   3.602  0.6547 -0.6249  1.2651
   58CHL1    C7 5409   5.279   2.598   3.815 -0.4140 -0.6518 -0.5745
   58CHL1   H7A 5410   5.386   2.571   3.820 -0.4013 -1.1026 -2.4882
   58CHL1   H7B 5411   5.271   2.702   3.855 -2.6404 -0.5414 -1.1686
   58CHL1    C8 5412   5.192   2.504   3.895  1.1679  0.4284 -0.5363
   58CHL1    H8 5413   5.222   2.399   3.876  0.2602  0.1676 -0.5558
   58CHL1   C14 5414   5.200   2.535   4.035 -0.1230 -0.0454 -0.8950
   58CHL1   H14 5415   5.164   2.638   4.052 -0.7774 -0.1709 -1.4828
   58CHL1   C15 5416   5.347   2.541   4.091 -0.6002 -0.5416 -1.1227
   58CHL1  H15A 5417   5.408   2.461   4.045  2.5185  0.7781  0.4631
   58CHL1  H15B 5418   5.387   2.642   4.072 -1.6982 -0.0202 -0.7988
   58CHL1   C16 5419   5.327   2.527   4.243  0.3747  0.2955  0.4865
   58CHL1  H16A 5420   5.389   2.444   4.285  0.6486  0.3241  0.1478
   58CHL1  H16B 5421   5.351   2.623   4.293  0.1912  1.2488 -1.1897
   58CHL1   C17 5422   5.174   2.503   4.257 -0.4264  0.2573 -0.5141
   58CHL1   H17 5423   5.126   2.603   4.263 -0.7029  0.1706 -1.2593
   58CHL1   C13 5424   5.121   2.443   4.131 -1.1173  0.5340  0.2887
   58CHL1   C18 5425   5.159   2.299   4.123 -0.6010 -0.6901 -0.7029
   58CHL1  H18A 5426   5.109   2.256   4.213 -0.7678 -1.7488 -1.2922
   58CHL1  H18B 5427   5.120   2.251   4.030 -3.0753  0.3425 -0.2856
   58CHL1  H18C 5428   5.269   2.291   4.133 -0.5839 -0.0250 -0.2802
   58CHL1   C12 5429   4.974   2.466   4.096 -0.2030 -0.5407 -0.0396
   58CHL1  H12A 5430   4.912   2.403   4.164  0.0919 -0.3771  0.3869
   58CHL1  H12B 5431   4.958   2.572   4.126  1.3592 -0.1895 -0.3868
   58CHL1   C11 5432   4.941   2.445   3.952 -0.8290 -0.4490  0.3615
   58CHL1  H11A 5433   4.944   2.335   3.932  2.8268 -0.2709 -0.7781
   58CHL1  H11B 5434   4.836   2.478   3.936 -0.8029 -1.3239 -2.0332
   58CHL1    C9 5435   5.042   2.521   3.859 -0.2419 -0.0125 -0.1154
   58CHL1    H9 5436   5.025   2.630   3.875  1.4569  0.3002 -0.2291
   58CHL1   C10 5437   5.022   2.492   3.705  0.0042 -0.0901 -0.0156
   58CHL1   C19 5438   5.038   2.336   3.672 -0.3553 -0.3716  0.4364
   58CHL1  H19A 5439   5.135   2.292   3.703 -2.3545 -4.6967  1.3473
   58CHL1  H19B 5440   4.969   2.285   3.744  0.7758  1.3687  2.9104
   58CHL1  H19C 5441   5.016   2.313   3.566  3.2948 -0.3036 -0.4471
   58CHL1    C1 5442   4.896   2.557   3.656 -0.0743 -0.2798  0.1004
   58CHL1   H1A 5443   4.800   2.523   3.700  0.4132  0.0134  1.4389
   58CHL1   H1B 5444   4.901   2.662   3.692  0.8799  0.0171 -0.8455
   58CHL1    C2 5445   4.869   2.565   3.505 -0.1600  0.0680 -0.2420
   58CHL1   H2A 5446   4.773   2.618   3.489 -0.6129 -0.4528  0.6770
   58CHL1   H2B 5447   4.869   2.460   3.470 -0.9127 -0.8002  2.1593
   58CHL1   C20 5448   5.128   2.430   4.384 -0.4108 -0.8060  0.2360
   58CHL1   H20 5449   5.041   2.371   4.347 -1.0456 -0.0332  0.4745
   58CHL1   C21 5450   5.100   2.532   4.490  0.1966 -0.2156  0.4203
   58CHL1  H21A 5451   5.107   2.489   4.592 -1.8987  0.3906  0.8642
   58CHL1  H21B 5452   4.993   2.555   4.474  0.2999 -0.3723 -0.5875
   58CHL1  H21C 5453   5.159   2.626   4.487 -0.8451  0.5813  2.6132
   58CHL1   C22 5454   5.211   2.307   4.441 -0.1742 -0.4905  0.2977
   58CHL1  H22A 5455   5.257   2.255   4.355  1.0081  3.3658 -1.6433
   58CHL1  H22B 5456   5.292   2.346   4.507  0.1658 -1.5066  0.4945
   58CHL1   C23 5457   5.136   2.211   4.534 -0.1864  0.3618 -0.3521
   58CHL1  H23A 5458   5.066   2.274   4.592  1.6997  0.8259  1.5143
   58CHL1  H23B 5459   5.082   2.145   4.462  1.9404 -1.9811  0.0478
   58CHL1   C24 5460   5.230   2.124   4.611 -0.0638  0.0172 -0.1468
   58CHL1  H24A 5461   5.311   2.086   4.545 -1.2620 -0.0443 -1.6561
   58CHL1  H24B 5462   5.278   2.188   4.687  1.1813 -1.0638  0.0015
   58CHL1   C25 5463   5.158   1.997   4.667 -0.0722 -0.4331  0.1348
   58CHL1   H25 5464   5.115   1.942   4.581 -1.8329  0.7630  0.1936
   58CHL1   C26 5465   5.252   1.914   4.735  0.5067  0.9112 -0.1990
   58CHL1  H26A 5466   5.215   1.814   4.765 -1.2512  1.8818  0.9911
   58CHL1  H26B 5467   5.346   1.906   4.676  0.5948 -0.4478  0.0937
   58CHL1  H26C 5468   5.275   1.967   4.829  1.5687  0.8851 -0.4351
   58CHL1   C27 5469   5.049   2.035   4.769 -0.4287 -0.3753  0.2871
   58CHL1  H27A 5470   5.077   2.077   4.868  1.5801  1.5476 -0.9969
   58CHL1  H27B 5471   4.986   2.113   4.719 -1.7035 -0.7702  1.2385
   58CHL1  H27C 5472   4.980   1.952   4.793 -3.0603  1.9014  1.0880
   59CHL1    C3 5473   3.660   2.949   3.823  0.3893 -0.6391  0.4534
   59CHL1    H3 5474   3.683   2.846   3.789  0.2499 -0.3367 -0.5973
   59CHL1    O3 5475   3.651   3.039   3.713 -0.0879 -0.0531  0.2363
   59CHL1   H3' 5476   3.743   3.051   3.687 -0.4807 -0.4752 -1.4607
   59CHL1    C4 5477   3.528   2.938   3.894  0.3676 -0.7665  0.1431
   59CHL1   H4A 5478   3.497   3.036   3.938 -1.0718 -0.5950 -1.1821
   59CHL1   H4B 5479   3.445   2.914   3.824  1.4715  0.7302 -1.7694
   59CHL1    C5 5480   3.529   2.847   4.017 -1.1032  0.3133  0.2494
   59CHL1    C6 5481   3.433   2.750   4.035  0.2792 -0.2349  0.3044
   59CHL1    H6 5482   3.359   2.731   3.956 -0.7344  0.9693  0.9353
   59CHL1    C7 5483   3.432   2.662   4.155 -0.0330 -0.0816  0.2839
   59CHL1   H7A 5484   3.329   2.630   4.182 -0.5088  0.1394 -1.1998
   59CHL1   H7B 5485   3.481   2.565   4.129  0.1204 -0.0235  0.3542
   59CHL1    C8 5486   3.520   2.715   4.273 -0.4886 -0.4479  0.0643
   59CHL1    H8 5487   3.451   2.790   4.318  2.3687  1.3196  1.7829
   59CHL1   C14 5488   3.544   2.607   4.375 -0.4035 -0.2115 -0.5112
   59CHL1   H14 5489   3.599   2.524   4.327  0.7879  0.2504  0.0294
   59CHL1   C15 5490   3.425   2.530   4.438 -0.4617  0.2094 -0.1413
   59CHL1  H15A 5491   3.348   2.604   4.469 -1.0715 -0.5121  0.0830
   59CHL1  H15B 5492   3.377   2.467   4.360  0.6490 -0.6127 -0.1939
   59CHL1   C16 5493   3.488   2.449   4.552  0.3933  0.7803 -0.0624
   59CHL1  H16A 5494   3.411   2.458   4.631  0.0841  1.5311 -0.4441
   59CHL1  H16B 5495   3.505   2.346   4.513 -4.0091 -0.6678  1.2999
   59CHL1   C17 5496   3.620   2.519   4.579 -0.7829 -0.6265 -0.8207
   59CHL1   H17 5497   3.700   2.454   4.537 -0.2897 -1.4425  1.2493
   59CHL1   C13 5498   3.628   2.653   4.496 -0.4392  0.2244 -0.2896
   59CHL1   C18 5499   3.564   2.775   4.567  0.1360 -0.3279 -0.2584
   59CHL1  H18A 5500   3.540   2.852   4.490 -2.2203 -1.7031 -1.0118
   59CHL1  H18B 5501   3.464   2.751   4.610  0.4705  2.0285  2.1179
   59CHL1  H18C 5502   3.621   2.818   4.651 -0.1843  0.6514 -0.5229
   59CHL1   C12 5503   3.764   2.686   4.435 -0.6708  0.1644 -0.6353
   59CHL1  H12A 5504   3.834   2.722   4.513 -2.0220  0.7163  0.3723
   59CHL1  H12B 5505   3.804   2.592   4.391 -1.8459 -1.1205  0.9391
   59CHL1   C11 5506   3.754   2.796   4.337 -0.0401 -0.0714  0.4543
   59CHL1  H11A 5507   3.735   2.896   4.383 -0.0669  0.5155 -0.7918
   59CHL1  H11B 5508   3.858   2.796   4.296  1.0130 -0.8884  2.9246
   59CHL1    C9 5509   3.651   2.770   4.223  0.1057  0.4402  0.1112
   59CHL1    H9 5510   3.693   2.684   4.168 -1.9126 -1.1263  0.8782
   59CHL1   C10 5511   3.640   2.879   4.119  0.3478 -0.0669  0.8928
   59CHL1   C19 5512   3.604   3.011   4.202  0.8846 -0.5466 -0.3612
   59CHL1  H19A 5513   3.571   3.092   4.132 -0.1381 -1.7050 -1.2702
   59CHL1  H19B 5514   3.516   2.999   4.269 -1.2686  1.4100 -2.6054
   59CHL1  H19C 5515   3.692   3.044   4.260 -0.1340  0.8651  0.4645
   59CHL1    C1 5516   3.772   2.908   4.038 -0.6892 -0.3793 -0.0142
   59CHL1   H1A 5517   3.844   2.954   4.111 -1.2756  0.2153  0.1989
   59CHL1   H1B 5518   3.816   2.810   4.008  2.5240 -0.0872  2.9977
   59CHL1    C2 5519   3.763   3.014   3.918 -0.0789 -0.2633 -0.1776
   59CHL1   H2A 5520   3.864   3.017   3.872 -0.4266  0.5217 -0.9130
   59CHL1   H2B 5521   3.730   3.114   3.950 -1.7376 -0.8325 -0.0312
   59CHL1   C20 5522   3.647   2.537   4.731 -0.1890 -0.7654  0.0461
   59CHL1   H20 5523   3.583   2.622   4.762  2.0554  0.4303  1.7738
   59CHL1   C21 5524   3.790   2.581   4.763  0.0890  0.7492 -0.3373
   59CHL1  H21A 5525   3.843   2.515   4.692  0.7692  0.0198  0.8153
   59CHL1  H21B 5526   3.824   2.566   4.868  0.0705 -0.7041 -0.5275
   59CHL1  H21C 5527   3.810   2.687   4.738  0.2412  0.7729 -0.1213
   59CHL1   C22 5528   3.607   2.413   4.825  0.4770 -0.2330 -0.0382
   59CHL1  H22A 5529   3.505   2.375   4.800  0.8934 -0.6081 -1.2353
   59CHL1  H22B 5530   3.674   2.326   4.812  1.8724  0.6966  0.6989
   59CHL1   C23 5531   3.596   2.462   4.970 -0.2701  0.2235  0.3946
   59CHL1  H23A 5532   3.584   2.368   5.027 -0.1193  0.4775  0.8458
   59CHL1  H23B 5533   3.688   2.512   5.008 -0.6278  1.4997 -0.3505
   59CHL1   C24 5534   3.471   2.535   5.000 -0.4589  0.0992  0.8065
   59CHL1  H24A 5535   3.474   2.633   4.948 -0.8968 -0.3334 -0.0511
   59CHL1  H24B 5536   3.389   2.471   4.961 -1.5117  2.0243 -0.2912
   59CHL1   C25 5537   3.439   2.566   5.145  0.3103  0.3463 -0.6285
   59CHL1   H25 5538   3.430   2.466   5.192 -0.8480 -0.6108 -2.7283
   59CHL1   C26 5539   3.548   2.652   5.223  0.0416 -0.0089 -0.0554
   59CHL1  H26A 5540   3.653   2.623   5.201  0.4421  2.3394 -1.7003
   59CHL1  H26B 5541   3.540   2.760   5.196 -1.4252  0.0369  0.4684
   59CHL1  H26C 5542   3.542   2.641   5.333 -0.8266  0.0327 -0.0906
   59CHL1   C27 5543   3.298   2.626   5.157 -0.1355  0.4682 -0.1666
   59CHL1  H27A 5544   3.258   2.631   5.261 -1.0409 -0.4744 -0.4456
   59CHL1  H27B 5545   3.301   2.726   5.109  0.0730 -0.1625 -1.5302
   59CHL1  H27C 5546   3.223   2.570   5.097 -1.0093  1.3722  0.0590
   60CHL1    C3 5547   2.977   1.338   3.347 -0.6043  0.0478  0.0654
   60CHL1    H3 5548   2.871   1.346   3.380 -1.1943 -0.7817 -1.5001
   60CHL1    O3 5549   2.987   1.396   3.218  0.7549 -0.1722 -0.3616
   60CHL1   H3' 5550   3.080   1.416   3.203  0.8374 -0.0430  0.2751
   60CHL1    C4 5551   3.072   1.406   3.453  0.1103 -0.3658 -0.0383
   60CHL1   H4A 5552   3.180   1.408   3.429 -0.4599  0.1438 -2.8283
   60CHL1   H4B 5553   3.037   1.512   3.453 -0.1905 -0.4123 -2.4159
   60CHL1    C5 5554   3.053   1.341   3.590  0.6051 -0.4628  0.5975
   60CHL1    C6 5555   3.022   1.414   3.694  0.4266  0.0073  0.5332
   60CHL1    H6 5556   3.015   1.522   3.678  0.1586 -0.1503 -0.4645
   60CHL1    C7 5557   2.999   1.353   3.829 -0.3474 -0.0322 -0.0240
   60CHL1   H7A 5558   3.040   1.430   3.898  1.8445 -1.7221  0.6574
   60CHL1   H7B 5559   2.892   1.346   3.860  0.2699  1.7784  2.9304
   60CHL1    C8 5560   3.050   1.206   3.851  0.0995  0.1357  0.4244
   60CHL1    H8 5561   3.160   1.217   3.856  0.1592  0.9607 -1.7018
   60CHL1   C14 5562   2.984   1.147   3.968  0.4967 -0.1652  0.4856
   60CHL1   H14 5563   2.876   1.132   3.944  0.4950 -0.5981  0.7415
   60CHL1   C15 5564   2.980   1.240   4.093 -0.1433 -0.3206  0.2957
   60CHL1  H15A 5565   3.079   1.288   4.109 -0.3711  0.7139 -1.1904
   60CHL1  H15B 5566   2.908   1.321   4.073  1.9727  1.3418 -1.0921
   60CHL1   C16 5567   2.955   1.131   4.207  0.2774 -0.3704  0.5319
   60CHL1  H16A 5568   3.046   1.137   4.270 -0.1984  0.3596  1.1707
   60CHL1  H16B 5569   2.871   1.172   4.268  1.0923  2.3382 -0.0280
   60CHL1   C17 5570   2.940   0.993   4.136 -0.4956  0.1765 -0.3738
   60CHL1   H17 5571   2.832   0.986   4.112 -0.1693 -1.2660 -1.5871
   60CHL1   C13 5572   3.020   1.007   4.003 -0.3255 -0.0657 -0.9509
   60CHL1   C18 5573   3.169   1.000   4.042 -0.2587 -0.0069  0.4204
   60CHL1  H18A 5574   3.203   1.060   4.129 -2.0656  0.5926  0.7598
   60CHL1  H18B 5575   3.181   0.893   4.069 -0.4967 -0.3543 -0.8149
   60CHL1  H18C 5576   3.238   1.016   3.957 -1.0722 -1.7556 -0.6335
   60CHL1   C12 5577   2.980   0.915   3.876 -0.2501 -0.7682 -1.0537
   60CHL1  H12A 5578   3.001   0.807   3.887  1.9677 -0.6722 -3.3052
   60CHL1  H12B 5579   2.870   0.917   3.861 -0.4765 -1.8955  0.3074
   60CHL1   C11 5580   3.045   0.967   3.743  0.1084  0.5781  0.3999
   60CHL1  H11A 5581   3.148   0.924   3.744 -0.3493 -1.5435 -5.5349
   60CHL1  H11B 5582   2.996   0.904   3.665 -0.9295  0.1043  1.3962
   60CHL1    C9 5583   3.019   1.122   3.725  0.8201 -0.5244 -1.0691
   60CHL1    H9 5584   2.909   1.131   3.738  1.0945 -0.6127  2.2231
   60CHL1   C10 5585   3.062   1.189   3.603 -0.2215 -0.4352  0.2015
   60CHL1   C19 5586   3.221   1.161   3.580 -0.3551  0.6219  0.5042
   60CHL1  H19A 5587   3.262   1.213   3.491  1.3684 -0.3497  0.6824
   60CHL1  H19B 5588   3.265   1.183   3.679  0.9517  1.7421 -0.2911
   60CHL1  H19C 5589   3.238   1.054   3.554 -3.2820 -0.1517  1.4276
   60CHL1    C1 5590   2.994   1.117   3.479  0.2318  0.0012 -0.7242
   60CHL1   H1A 5591   3.011   1.007   3.467 -2.4163 -0.3207 -2.2693
   60CHL1   H1B 5592   2.884   1.120   3.494  0.3922 -1.3451  0.9720
   60CHL1    C2 5593   3.010   1.189   3.341 -0.3030 -0.0898 -0.0125
   60CHL1   H2A 5594   2.944   1.141   3.266 -3.5807  2.2827  1.0925
   60CHL1   H2B 5595   3.116   1.185   3.307 -0.3914  0.8626 -0.4279
   60CHL1   C20 5596   2.984   0.883   4.234 -0.5822 -0.2054  0.1938
   60CHL1   H20 5597   3.094   0.880   4.249 -0.3718 -1.2775 -1.3677
   60CHL1   C21 5598   2.963   0.749   4.167  0.2785 -0.1052 -0.0852
   60CHL1  H21A 5599   2.870   0.757   4.108 -1.4945  1.3231  2.6967
   60CHL1  H21B 5600   2.940   0.667   4.238 -3.9581  1.2800  0.3925
   60CHL1  H21C 5601   3.044   0.714   4.100  0.3595  0.0211 -0.0561
   60CHL1   C22 5602   2.908   0.895   4.371 -0.1714 -0.2580  0.1449
   60CHL1  H22A 5603   2.908   0.998   4.412 -1.5322  0.5722 -1.7891
   60CHL1  H22B 5604   2.804   0.867   4.345 -0.3081 -0.0911  0.5096
   60CHL1   C23 5605   2.960   0.801   4.477 -0.0341  0.8526 -0.0098
   60CHL1  H23A 5606   2.939   0.693   4.463  1.7789  0.5111 -0.3945
   60CHL1  H23B 5607   3.070   0.815   4.467  0.8025 -3.4088  1.3033
   60CHL1   C24 5608   2.907   0.836   4.623 -0.3901  0.7631  0.3063
   60CHL1  H24A 5609   2.950   0.934   4.652 -1.1412  0.9040  0.9927
   60CHL1  H24B 5610   2.796   0.842   4.616 -0.4364  1.6545  1.3994
   60CHL1   C25 5611   2.942   0.735   4.730 -0.7442 -0.0315 -0.4845
   60CHL1   H25 5612   2.909   0.635   4.693 -1.6959  0.7441 -1.8229
   60CHL1   C26 5613   3.092   0.731   4.758 -0.3385  0.6551  0.0772
   60CHL1  H26A 5614   3.132   0.806   4.830  0.8142 -1.4041  1.7322
   60CHL1  H26B 5615   3.111   0.629   4.797 -0.4249  0.6832  0.1902
   60CHL1  H26C 5616   3.155   0.756   4.669 -1.0270 -1.0151 -0.9173
   60CHL1   C27 5617   2.867   0.754   4.861  0.3862  0.1614  0.1314
   60CHL1  H27A 5618   2.759   0.734   4.845 -0.3140  2.9949  0.7246
   60CHL1  H27B 5619   2.895   0.663   4.918  0.6998 -0.8010 -1.4952
   60CHL1  H27C 5620   2.888   0.853   4.908  1.6617  0.1284 -0.3325
   61CHL1    C3 5621   5.089   4.239   3.422  0.8997  0.4306 -0.3404
   61CHL1    H3 5622   5.173   4.171   3.447 -0.4931 -0.6256  1.7172
   61CHL1    O3 5623   5.113   4.308   3.299 -0.3949  0.9443  0.2444
   61CHL1   H3' 5624   5.054   4.272   3.233  1.6329 -2.5592  0.0962
   61CHL1    C4 5625   4.961   4.160   3.401  1.0557  0.9817 -0.0669
   61CHL1   H4A 5626   4.888   4.232   3.358  0.5608  0.8216  0.4988
   61CHL1   H4B 5627   4.988   4.082   3.327 -0.0109  0.1135  0.4422
   61CHL1    C5 5628   4.893   4.114   3.524  0.3382 -0.2279 -1.1626
   61CHL1    C6 5629   4.861   3.983   3.539 -0.4353 -0.0566 -0.4604
   61CHL1    H6 5630   4.872   3.909   3.458 -2.9795 -1.4921  0.4172
   61CHL1    C7 5631   4.806   3.919   3.667 -0.3417  0.0695 -0.2104
   61CHL1   H7A 5632   4.718   3.855   3.644 -1.1882  1.0236  0.3121
   61CHL1   H7B 5633   4.879   3.847   3.711 -1.3123 -1.7797 -1.4730
   61CHL1    C8 5634   4.772   4.018   3.776  0.0620 -0.3446 -0.5981
   61CHL1    H8 5635   4.675   4.069   3.756 -0.2648 -1.0852 -0.9235
   61CHL1   C14 5636   4.751   3.959   3.917  0.1836 -0.0209 -0.0794
   61CHL1   H14 5637   4.856   3.929   3.936  0.3674  0.7806  0.1736
   61CHL1   C15 5638   4.659   3.842   3.924  0.5497  0.3130  0.2698
   61CHL1  H15A 5639   4.558   3.871   3.886  0.0124 -0.8426  0.7590
   61CHL1  H15B 5640   4.692   3.748   3.876 -0.2602 -0.2322  0.7635
   61CHL1   C16 5641   4.660   3.820   4.076 -0.3123  0.2449  0.5385
   61CHL1  H16A 5642   4.551   3.812   4.099 -0.0937 -1.2556  1.1406
   61CHL1  H16B 5643   4.704   3.723   4.105  1.9765  0.8777 -0.6016
   61CHL1   C17 5644   4.724   3.947   4.149 -0.4032  0.0284  0.2733
   61CHL1   H17 5645   4.828   3.914   4.166  0.0617  0.3799 -1.5833
   61CHL1   C13 5646   4.722   4.051   4.035  0.1749 -0.3054 -0.8765
   61CHL1   C18 5647   4.581   4.108   4.025 -0.2403 -0.4673 -0.7989
   61CHL1  H18A 5648   4.499   4.034   4.015  0.5090 -1.3965 -0.2925
   61CHL1  H18B 5649   4.557   4.171   4.113  0.1948  0.0532 -1.0497
   61CHL1  H18C 5650   4.588   4.174   3.936 -0.3613  0.6669  0.0180
   61CHL1   C12 5651   4.834   4.165   4.041 -0.2021  0.3339  0.2938
   61CHL1  H12A 5652   4.789   4.242   4.107 -1.0191 -0.0575  0.2053
   61CHL1  H12B 5653   4.931   4.129   4.081  0.5439  1.1091 -0.7843
   61CHL1   C11 5654   4.853   4.223   3.901 -0.0419 -0.0979  0.0916
   61CHL1  H11A 5655   4.755   4.275   3.887  1.1121  1.6177 -2.0800
   61CHL1  H11B 5656   4.935   4.294   3.924 -0.6481  0.3022  1.1409
   61CHL1    C9 5657   4.880   4.124   3.782 -0.3371 -0.1939  0.2553
   61CHL1    H9 5658   4.975   4.069   3.796  0.6332  1.9908  3.1777
   61CHL1   C10 5659   4.897   4.207   3.652 -0.2274 -0.2161  0.5804
   61CHL1   C19 5660   4.787   4.307   3.626 -0.1875 -0.0148 -0.0579
   61CHL1  H19A 5661   4.692   4.251   3.609 -0.2469  0.6209 -2.1371
   61CHL1  H19B 5662   4.778   4.381   3.708  4.3170  2.4080 -1.4042
   61CHL1  H19C 5663   4.819   4.367   3.538  1.4072  0.9560  1.1304
   61CHL1    C1 5664   5.036   4.282   3.663 -1.0682 -0.0230 -0.7818
   61CHL1   H1A 5665   5.022   4.361   3.740  2.1209  0.0916 -0.1811
   61CHL1   H1B 5666   5.120   4.216   3.692 -0.8667  0.6232  0.1426
   61CHL1    C2 5667   5.078   4.345   3.529 -0.7484  0.7392 -0.8103
   61CHL1   H2A 5668   5.174   4.400   3.540 -0.9150  0.6243  2.1695
   61CHL1   H2B 5669   4.992   4.409   3.501 -1.8495 -0.3700 -0.0834
   61CHL1   C20 5670   4.653   3.979   4.278  0.8833 -0.1667 -0.1767
   61CHL1   H20 5671   4.551   4.013   4.252 -0.1290 -1.6798  1.6152
   61CHL1   C21 5672   4.743   4.087   4.349  0.5038  1.3845 -0.0233
   61CHL1  H21A 5673   4.852   4.076   4.334  0.5413 -1.4341  1.5950
   61CHL1  H21B 5674   4.718   4.079   4.457  2.3269  1.0274  0.4069
   61CHL1  H21C 5675   4.711   4.190   4.325 -2.3364  0.9908  1.5471
   61CHL1   C22 5676   4.630   3.867   4.384 -0.0791  0.4108  0.5813
   61CHL1  H22A 5677   4.578   3.902   4.476 -1.3633  1.3165 -0.4466
   61CHL1  H22B 5678   4.556   3.801   4.334  0.2507 -1.4857  2.4480
   61CHL1   C23 5679   4.752   3.784   4.417 -0.2802  0.2126  0.2652
   61CHL1  H23A 5680   4.825   3.771   4.334  0.9799 -0.8404  1.4879
   61CHL1  H23B 5681   4.812   3.831   4.498  0.7502 -0.2454 -0.2140
   61CHL1   C24 5682   4.707   3.640   4.456  0.9987 -0.1098  0.4309
   61CHL1  H24A 5683   4.622   3.647   4.527  0.6060 -2.2054  0.2378
   61CHL1  H24B 5684   4.662   3.591   4.366 -2.9158 -0.0284  2.1165
   61CHL1   C25 5685   4.822   3.549   4.509 -1.1368 -0.6807  0.1541
   61CHL1   H25 5686   4.860   3.602   4.600 -0.6501 -0.9189  0.0919
   61CHL1   C26 5687   4.768   3.415   4.549  0.1932  0.1207 -0.1511
   61CHL1  H26A 5688   4.763   3.342   4.466  1.0209 -0.8411  0.6334
   61CHL1  H26B 5689   4.827   3.363   4.627  0.6264  0.7519 -0.0460
   61CHL1  H26C 5690   4.666   3.434   4.590  0.0920  2.2594 -1.2428
   61CHL1   C27 5691   4.942   3.535   4.412 -0.0665  0.3677  0.2218
   61CHL1  H27A 5692   5.023   3.472   4.456  1.3932  0.6655 -1.8765
   61CHL1  H27B 5693   4.905   3.500   4.314 -0.1046  0.1253  0.3234
   61CHL1  H27C 5694   4.997   3.631   4.396  0.1144  0.2261 -0.0016
   62CHL1    C3 5695   5.983   4.966   3.603 -0.1321  0.7370 -1.1577
   62CHL1    H3 5696   6.033   4.867   3.599 -1.4411  0.0301 -0.7201
   62CHL1    O3 5697   5.983   5.022   3.472 -0.4718  0.1891  0.0611
   62CHL1   H3' 5698   5.905   4.989   3.426  0.6331 -1.4836 -0.7348
   62CHL1    C4 5699   5.840   4.959   3.656  0.2789  0.5556 -0.0066
   62CHL1   H4A 5700   5.786   5.057   3.649 -0.6116  0.0301 -0.7761
   62CHL1   H4B 5701   5.778   4.900   3.585 -0.7684  0.5406  0.8806
   62CHL1    C5 5702   5.833   4.901   3.797  0.0964  0.0427  0.1542
   62CHL1    C6 5703   5.751   4.796   3.827  0.3925 -0.2898 -0.4103
   62CHL1    H6 5704   5.697   4.735   3.753  1.3404 -0.6343 -0.8370
   62CHL1    C7 5705   5.743   4.742   3.966  0.8601  0.1015  0.0380
   62CHL1   H7A 5706   5.645   4.692   3.980 -0.0362  1.8132  0.1953
   62CHL1   H7B 5707   5.816   4.659   3.976  1.0653  0.2843  0.0514
   62CHL1    C8 5708   5.781   4.843   4.079  1.4764 -0.7078 -1.0593
   62CHL1    H8 5709   5.696   4.914   4.087 -0.7892 -3.3610  0.1947
   62CHL1   C14 5710   5.806   4.780   4.212  0.6580  0.1601  0.4571
   62CHL1   H14 5711   5.899   4.720   4.205 -1.3327 -3.1031 -0.1969
   62CHL1   C15 5712   5.704   4.675   4.262  0.2286 -0.0241 -0.2458
   62CHL1  H15A 5713   5.599   4.710   4.247 -0.0145 -0.4640  0.4274
   62CHL1  H15B 5714   5.723   4.581   4.206 -0.4273 -0.7055  0.6435
   62CHL1   C16 5715   5.729   4.660   4.413 -0.1085  0.1871 -0.5808
   62CHL1  H16A 5716   5.631   4.678   4.461  1.1034  2.1706  1.2878
   62CHL1  H16B 5717   5.766   4.556   4.425  0.4697  0.3972 -0.5527
   62CHL1   C17 5718   5.825   4.774   4.447  0.4394 -0.6658 -0.1647
   62CHL1   H17 5719   5.930   4.739   4.442  0.9260  0.7420 -0.2377
   62CHL1   C13 5720   5.826   4.875   4.322 -0.3131 -0.2352 -0.4534
   62CHL1   C18 5721   5.710   4.972   4.335  0.3365 -0.0413 -0.4745
   62CHL1  H18A 5722   5.716   5.053   4.260  1.6807  0.4969  0.1698
   62CHL1  H18B 5723   5.611   4.929   4.310  0.3726  0.7226 -2.0493
   62CHL1  H18C 5724   5.694   5.015   4.436 -0.8651  1.6561 -1.3441
   62CHL1   C12 5725   5.961   4.945   4.300  0.7990 -0.1007  0.2637
   62CHL1  H12A 5726   5.980   5.028   4.371 -0.6968  0.3903  0.1254
   62CHL1  H12B 5727   6.041   4.869   4.313 -0.2349 -0.9830  1.8769
   62CHL1   C11 5728   5.965   5.007   4.159  0.5227 -0.4775 -0.0388
   62CHL1  H11A 5729   5.903   5.099   4.165  2.0256  0.5173  1.4096
   62CHL1  H11B 5730   6.066   5.040   4.125  0.3472 -0.3687 -0.4701
   62CHL1    C9 5731   5.911   4.911   4.044 -0.6777 -0.4594 -0.5989
   62CHL1    H9 5732   5.984   4.829   4.032 -0.6948 -0.7594  1.1042
   62CHL1   C10 5733   5.912   4.980   3.906 -0.1267 -0.0968 -0.5901
   62CHL1   C19 5734   5.846   5.121   3.926 -0.5463 -0.1229  0.0288
   62CHL1  H19A 5735   5.749   5.129   3.980 -2.0643  0.5362 -2.6070
   62CHL1  H19B 5736   5.916   5.194   3.971  1.3162 -0.9211 -1.4147
   62CHL1  H19C 5737   5.821   5.167   3.828 -1.5845  0.9608  0.7771
   62CHL1    C1 5738   6.057   4.998   3.845 -0.3703  1.0115 -0.0938
   62CHL1   H1A 5739   6.112   5.065   3.914 -0.9908  1.7488 -0.2979
   62CHL1   H1B 5740   6.100   4.896   3.852 -1.0639  0.7934  1.3627
   62CHL1    C2 5741   6.067   5.050   3.694  0.1376  0.4625 -0.0608
   62CHL1   H2A 5742   6.172   5.065   3.662  0.5201 -1.2415  0.3054
   62CHL1   H2B 5743   6.019   5.149   3.680  0.2103  0.3437 -1.1948
   62CHL1   C20 5744   5.800   4.830   4.589  0.0606  0.4647 -0.8878
   62CHL1   H20 5745   5.698   4.871   4.603  0.0357 -0.5608  3.1282
   62CHL1   C21 5746   5.899   4.940   4.615  0.3297  0.4410  0.1725
   62CHL1  H21A 5747   6.007   4.921   4.600  0.1462  0.4735 -1.4302
   62CHL1  H21B 5748   5.892   4.979   4.719 -1.1855 -0.1137  0.3039
   62CHL1  H21C 5749   5.874   5.028   4.552 -1.5989 -0.3811 -0.2861
   62CHL1   C22 5750   5.817   4.726   4.701  0.2368 -0.1808  0.3337
   62CHL1  H22A 5751   5.847   4.635   4.645  0.8385  1.2678 -1.7871
   62CHL1  H22B 5752   5.894   4.752   4.777 -1.6965  1.1542  1.9765
   62CHL1   C23 5753   5.688   4.687   4.775 -0.2979  0.6328  0.3464
   62CHL1  H23A 5754   5.605   4.676   4.701 -0.8588  2.1337  0.7149
   62CHL1  H23B 5755   5.699   4.591   4.830 -0.5900  1.1767  1.3754
   62CHL1   C24 5756   5.649   4.786   4.879  0.7206 -0.6521 -0.5704
   62CHL1  H24A 5757   5.732   4.844   4.923  0.4796 -0.6257 -0.1487
   62CHL1  H24B 5758   5.581   4.863   4.836 -0.8281  0.2907  3.2232
   62CHL1   C25 5759   5.554   4.741   5.001 -0.7123 -0.2734  0.8196
   62CHL1   H25 5760   5.481   4.668   4.959 -1.5841  0.8618  0.3194
   62CHL1   C26 5761   5.640   4.661   5.099 -0.3001  0.1734 -0.0959
   62CHL1  H26A 5762   5.739   4.708   5.119  1.9746 -4.1013  0.0270
   62CHL1  H26B 5763   5.592   4.643   5.197  0.4027  1.8031  0.5835
   62CHL1  H26C 5764   5.660   4.559   5.059  4.4270  1.3576 -1.4787
   62CHL1   C27 5765   5.487   4.867   5.054  0.4159 -0.7876 -0.2057
   62CHL1  H27A 5766   5.427   4.923   4.979 -2.6735 -1.1333  1.8215
   62CHL1  H27B 5767   5.415   4.853   5.138  0.3781 -1.8028 -0.3952
   62CHL1  H27C 5768   5.566   4.931   5.099  0.3853 -0.0221 -1.2134
   63CHL1    C3 5769   4.523   1.834   3.564 -0.3544  0.1991 -0.5195
   63CHL1    H3 5770   4.622   1.884   3.557 -0.0915 -0.4887 -1.8395
   63CHL1    O3 5771   4.454   1.868   3.444  0.0716 -0.1499 -0.3252
   63CHL1   H3' 5772   4.439   1.961   3.457 -1.3987 -0.5483  1.1931
   63CHL1    C4 5773   4.545   1.682   3.574 -0.0242  0.4967  0.5185
   63CHL1   H4A 5774   4.444   1.637   3.562  0.7996 -0.9297 -1.9428
   63CHL1   H4B 5775   4.591   1.642   3.480  0.6252  0.7187  0.7350
   63CHL1    C5 5776   4.621   1.629   3.695  0.6601 -0.0742 -0.4959
   63CHL1    C6 5777   4.740   1.568   3.694 -0.5088 -0.1820 -0.6050
   63CHL1    H6 5778   4.801   1.544   3.605  0.4775 -0.4208  0.1279
   63CHL1    C7 5779   4.800   1.518   3.822 -0.2264 -0.3423 -0.5728
   63CHL1   H7A 5780   4.828   1.412   3.804 -1.4880 -0.9488  0.8535
   63CHL1   H7B 5781   4.897   1.569   3.839 -0.5071 -0.2866  0.9890
   63CHL1    C8 5782   4.710   1.528   3.949 -0.6910  0.4711  0.1734
   63CHL1    H8 5783   4.639   1.443   3.946  0.4777 -0.5579  0.8550
   63CHL1   C14 5784   4.791   1.501   4.077 -0.5603  0.9183 -0.2554
   63CHL1   H14 5785   4.866   1.582   4.079  3.6983 -2.6695  1.1830
   63CHL1   C15 5786   4.879   1.368   4.090  0.5038 -0.1410  0.6059
   63CHL1  H15A 5787   4.831   1.275   4.055  3.8653 -1.3362 -1.2502
   63CHL1  H15B 5788   4.980   1.373   4.046  0.3223 -2.6596 -0.2489
   63CHL1   C16 5789   4.895   1.363   4.246 -0.7234  0.3044 -0.0604
   63CHL1  H16A 5790   4.867   1.265   4.290  2.6679 -0.9972 -0.4932
   63CHL1  H16B 5791   5.004   1.376   4.266 -0.6418 -1.8082  1.1483
   63CHL1   C17 5792   4.823   1.484   4.313 -0.3538 -0.3231  0.2403
   63CHL1   H17 5793   4.897   1.567   4.310  0.0409 -0.6915 -0.2477
   63CHL1   C13 5794   4.711   1.510   4.206  0.2110 -0.6778 -0.8205
   63CHL1   C18 5795   4.605   1.404   4.215  0.6061 -0.3936 -0.6517
   63CHL1  H18A 5796   4.648   1.303   4.196 -2.9798 -2.1835 -0.0984
   63CHL1  H18B 5797   4.562   1.401   4.318 -0.4498 -1.9603 -1.1021
   63CHL1  H18C 5798   4.519   1.424   4.148  0.2689  0.5009  0.0338
   63CHL1   C12 5799   4.646   1.657   4.214  0.3850 -0.4510 -0.0333
   63CHL1  H12A 5800   4.591   1.672   4.309 -0.6096 -0.0917 -0.6529
   63CHL1  H12B 5801   4.737   1.720   4.205  0.6228 -0.9059 -0.8799
   63CHL1   C11 5802   4.567   1.692   4.088  0.6387 -0.7385 -0.3600
   63CHL1  H11A 5803   4.477   1.627   4.097  0.3467 -0.0993  1.6581
   63CHL1  H11B 5804   4.523   1.794   4.091  1.7990 -0.2580  1.6341
   63CHL1    C9 5805   4.633   1.660   3.948 -0.8683  0.3829 -0.2484
   63CHL1    H9 5806   4.711   1.738   3.935 -1.5956  0.9060 -1.7050
   63CHL1   C10 5807   4.549   1.680   3.824  0.0677  0.4418 -0.2705
   63CHL1   C19 5808   4.425   1.595   3.834 -0.8163  0.3467 -0.1107
   63CHL1  H19A 5809   4.365   1.617   3.925 -1.4629 -0.6261 -0.2854
   63CHL1  H19B 5810   4.348   1.634   3.763  0.3246  1.3076 -0.8646
   63CHL1  H19C 5811   4.442   1.488   3.810 -1.8630  0.1387  0.0434
   63CHL1    C1 5812   4.507   1.828   3.822 -0.1485 -0.4614 -0.3856
   63CHL1   H1A 5813   4.448   1.851   3.913 -1.2061  0.1559 -1.2080
   63CHL1   H1B 5814   4.593   1.898   3.836  0.1976 -0.8548 -0.5241
   63CHL1    C2 5815   4.441   1.871   3.688 -0.5079  0.0756 -0.7320
   63CHL1   H2A 5816   4.411   1.977   3.675 -0.7191  0.0706 -0.2837
   63CHL1   H2B 5817   4.345   1.815   3.681  0.4391 -2.0072  1.8248
   63CHL1   C20 5818   4.785   1.463   4.467 -0.4915  0.4335 -0.5987
   63CHL1   H20 5819   4.702   1.390   4.480  1.8718 -1.8732  4.0207
   63CHL1   C21 5820   4.751   1.595   4.535  0.1233 -0.4391 -1.0224
   63CHL1  H21A 5821   4.653   1.631   4.496 -1.0727 -1.5463  0.7925
   63CHL1  H21B 5822   4.825   1.672   4.503 -2.7551  2.9419 -0.1981
   63CHL1  H21C 5823   4.754   1.590   4.646  0.3744 -1.8695 -1.0755
   63CHL1   C22 5824   4.893   1.401   4.558  0.9624 -0.2104  0.5445
   63CHL1  H22A 5825   4.947   1.324   4.498  1.4443  0.4436  0.1208
   63CHL1  H22B 5826   4.970   1.480   4.570  2.0477 -1.4146  1.9192
   63CHL1   C23 5827   4.848   1.341   4.688 -0.0660  0.4702  0.1456
   63CHL1  H23A 5828   4.795   1.418   4.748  1.1996  0.3748  1.4258
   63CHL1  H23B 5829   4.777   1.256   4.677 -2.8360  2.4265  1.6963
   63CHL1   C24 5830   4.961   1.290   4.778 -0.3667 -0.0707  0.1567
   63CHL1  H24A 5831   5.037   1.370   4.783 -0.6665  0.2423 -0.2569
   63CHL1  H24B 5832   4.919   1.275   4.880 -1.2914 -0.1959 -0.2233
   63CHL1   C25 5833   5.012   1.151   4.728  0.2346 -0.0952  0.9643
   63CHL1   H25 5834   4.938   1.088   4.674  0.4155  0.2464  0.3132
   63CHL1   C26 5835   5.135   1.148   4.630  1.0047 -0.0214  0.1368
   63CHL1  H26A 5836   5.131   1.235   4.562  1.2808  1.4343  1.9063
   63CHL1  H26B 5837   5.231   1.163   4.684  0.1054  3.1178  1.1001
   63CHL1  H26C 5838   5.141   1.057   4.567  3.5561 -0.6132  1.1250
   63CHL1   C27 5839   5.041   1.067   4.843 -0.2890  0.4396 -0.8106
   63CHL1  H27A 5840   5.140   1.095   4.886 -0.2159 -2.2758  1.0004
   63CHL1  H27B 5841   4.968   1.089   4.923 -0.3993 -0.8155 -0.5534
   63CHL1  H27C 5842   5.047   0.957   4.828  0.1848  0.3536 -0.0599
   64CHL1    C3 5843   1.676   1.983   3.403  0.5943 -0.1320 -0.6872
   64CHL1    H3 5844   1.649   2.078   3.454  0.8714 -0.0288 -0.7302
   64CHL1    O3 5845   1.671   2.005   3.265  0.0625 -0.0500 -0.4910
   64CHL1   H3' 5846   1.674   1.919   3.222 -0.7840 -0.6959  0.6726
   64CHL1    C4 5847   1.816   1.945   3.454  0.0376  0.0619 -0.5596
   64CHL1   H4A 5848   1.856   1.848   3.419 -0.3366 -0.2977  0.0097
   64CHL1   H4B 5849   1.892   2.023   3.428  3.3060 -1.9572  2.0931
   64CHL1    C5 5850   1.818   1.927   3.610 -0.2303 -0.4463  0.5124
   64CHL1    C6 5851   1.904   2.000   3.685  0.1294  0.6968  0.0912
   64CHL1    H6 5852   1.981   2.063   3.639 -0.2593  2.2751  1.4780
   64CHL1    C7 5853   1.907   1.992   3.837  0.2913 -0.2858  0.0361
   64CHL1   H7A 5854   2.013   2.011   3.865  0.0173  2.2312 -0.3703
   64CHL1   H7B 5855   1.848   2.076   3.878 -1.2127 -1.5567  0.5711
   64CHL1    C8 5856   1.832   1.868   3.901 -0.6046 -0.7586 -0.5519
   64CHL1    H8 5857   1.892   1.776   3.882  0.7925  0.0677 -0.2789
   64CHL1   C14 5858   1.805   1.888   4.051  0.5014  0.4294 -0.2764
   64CHL1   H14 5859   1.742   1.979   4.054  0.0448  0.1557 -1.1004
   64CHL1   C15 5860   1.919   1.917   4.152  0.3911 -0.2410  0.5460
   64CHL1  H15A 5861   2.003   1.847   4.135  0.3335  0.0268 -0.9597
   64CHL1  H15B 5862   1.939   2.023   4.126 -4.1158  0.6746  0.0378
   64CHL1   C16 5863   1.852   1.890   4.286 -0.8416  0.2515 -0.1248
   64CHL1  H16A 5864   1.911   1.810   4.336  0.8189  0.8707 -1.0234
   64CHL1  H16B 5865   1.842   1.982   4.349  0.2871 -0.6842  1.5021
   64CHL1   C17 5866   1.706   1.833   4.257  1.0202 -0.5608  0.0940
   64CHL1   H17 5867   1.642   1.923   4.250 -0.1359 -1.3604  0.0307
   64CHL1   C13 5868   1.719   1.773   4.120  0.8412  0.0377  0.2870
   64CHL1   C18 5869   1.796   1.646   4.109  0.2304  0.0018 -0.1548
   64CHL1  H18A 5870   1.892   1.645   4.166  0.5438  2.0852 -0.5821
   64CHL1  H18B 5871   1.721   1.576   4.151 -0.2177  0.8244  0.4413
   64CHL1  H18C 5872   1.810   1.609   4.005 -2.8454  0.0808 -0.6971
   64CHL1   C12 5873   1.587   1.762   4.044  0.3763  0.4822  0.3598
   64CHL1  H12A 5874   1.524   1.677   4.079  1.3362  0.5490  2.4523
   64CHL1  H12B 5875   1.521   1.848   4.066  0.0250  0.5891 -1.0572
   64CHL1   C11 5876   1.608   1.739   3.893  0.1209  0.2882 -0.5605
   64CHL1  H11A 5877   1.647   1.637   3.875  1.3983  0.8451 -1.0663
   64CHL1  H11B 5878   1.506   1.748   3.852 -0.4583  0.5159  0.8625
   64CHL1    C9 5879   1.698   1.847   3.827 -0.4049  0.3170  0.4755
   64CHL1    H9 5880   1.643   1.941   3.852  0.6710  0.1912  3.7493
   64CHL1   C10 5881   1.710   1.837   3.666  0.2553 -0.2014 -0.4165
   64CHL1   C19 5882   1.747   1.691   3.642  0.8907 -0.1667  0.1723
   64CHL1  H19A 5883   1.653   1.633   3.657 -0.2474  1.9277  1.6072
   64CHL1  H19B 5884   1.781   1.684   3.537  2.6165  1.6885  0.5381
   64CHL1  H19C 5885   1.831   1.660   3.708  2.3935  1.4301 -0.9002
   64CHL1    C1 5886   1.568   1.861   3.597  0.5905 -0.0372  0.3777
   64CHL1   H1A 5887   1.497   1.782   3.630  1.2045 -1.0770 -0.7070
   64CHL1   H1B 5888   1.530   1.956   3.639  1.1668 -0.1374  1.1416
   64CHL1    C2 5889   1.583   1.871   3.444 -0.1249  0.1570 -0.5731
   64CHL1   H2A 5890   1.486   1.892   3.394 -0.6546  0.1934  0.4417
   64CHL1   H2B 5891   1.625   1.774   3.412 -0.3004 -0.7116  1.6682
   64CHL1   C20 5892   1.660   1.752   4.377  0.7997 -0.2993 -0.8851
   64CHL1   H20 5893   1.727   1.663   4.377  2.7790  1.1345 -1.6369
   64CHL1   C21 5894   1.508   1.718   4.353  0.3258  0.3110 -0.2556
   64CHL1  H21A 5895   1.472   1.650   4.432 -1.9613 -0.4010 -1.8107
   64CHL1  H21B 5896   1.495   1.657   4.261  0.3794  2.4337 -1.7668
   64CHL1  H21C 5897   1.441   1.807   4.354 -1.2296 -0.6269 -3.8021
   64CHL1   C22 5898   1.674   1.815   4.520 -0.2420 -0.1626 -0.5126
   64CHL1  H22A 5899   1.774   1.847   4.554 -0.4833 -0.0935  0.1355
   64CHL1  H22B 5900   1.626   1.916   4.521  2.3339  1.1379  0.9326
   64CHL1   C23 5901   1.613   1.730   4.635 -0.1526 -0.1404  0.4885
   64CHL1  H23A 5902   1.511   1.771   4.655 -0.0686  0.2779  0.0682
   64CHL1  H23B 5903   1.603   1.624   4.602 -0.0519 -0.4777  1.5180
   64CHL1   C24 5904   1.702   1.744   4.755 -0.1358 -0.0408 -0.3149
   64CHL1  H24A 5905   1.808   1.725   4.727 -0.2538 -0.3513 -0.5578
   64CHL1  H24B 5906   1.688   1.851   4.781 -0.1165 -0.6409  2.3926
   64CHL1   C25 5907   1.668   1.672   4.886  0.4609 -0.1140  1.0188
   64CHL1   H25 5908   1.565   1.700   4.916 -0.6625 -3.2383  0.4849
   64CHL1   C26 5909   1.666   1.522   4.868  0.2374 -0.2705 -0.0707
   64CHL1  H26A 5910   1.764   1.485   4.831  0.8428  1.8218 -0.7086
   64CHL1  H26B 5911   1.644   1.474   4.965  1.1692 -0.0062  0.2818
   64CHL1  H26C 5912   1.579   1.512   4.800 -2.0000  1.2991  2.3732
   64CHL1   C27 5913   1.780   1.700   4.991 -0.1809 -0.2561  0.7456
   64CHL1  H27A 5914   1.792   1.808   5.012 -1.4909  0.2442 -0.8167
   64CHL1  H27B 5915   1.756   1.643   5.084  1.5924 -2.0975  0.1529
   64CHL1  H27C 5916   1.868   1.652   4.944 -0.9563 -0.0719 -0.9872
   65CHL1    C3 5917   0.634   5.446   3.725 -0.1993  0.7620 -0.5445
   65CHL1    H3 5918   0.564   5.531   3.717 -1.3545 -0.1117  0.0580
   65CHL1    O3 5919   0.697   5.417   3.599 -0.0200  0.0316  0.0144
   65CHL1   H3' 5920   0.785   5.394   3.627  0.8908  0.6421 -2.1051
   65CHL1    C4 5921   0.744   5.468   3.826 -0.0997 -0.1810 -0.1990
   65CHL1   H4A 5922   0.811   5.379   3.815  1.1247  0.7123 -0.2312
   65CHL1   H4B 5923   0.795   5.563   3.799 -2.7761  1.5935  0.5816
   65CHL1    C5 5924   0.701   5.462   3.975 -0.1231 -0.3975 -0.2466
   65CHL1    C6 5925   0.745   5.550   4.061  0.2856 -0.4606 -0.2811
   65CHL1    H6 5926   0.821   5.626   4.038  0.6592 -0.8522 -0.3591
   65CHL1    C7 5927   0.714   5.561   4.207  0.0119  0.4342  0.1793
   65CHL1   H7A 5928   0.807   5.581   4.265  1.0591 -2.5953 -0.2919
   65CHL1   H7B 5929   0.638   5.640   4.229 -0.5104  0.2596 -0.9408
   65CHL1    C8 5930   0.659   5.420   4.256  0.5130 -0.7220 -0.5649
   65CHL1    H8 5931   0.746   5.351   4.256  1.7268  0.7474  0.1484
   65CHL1   C14 5932   0.614   5.433   4.400  0.0815  0.4354  0.5712
   65CHL1   H14 5933   0.524   5.499   4.399  0.6181  1.1917  1.2883
   65CHL1   C15 5934   0.719   5.492   4.498 -0.2124  0.2736  0.1462
   65CHL1  H15A 5935   0.815   5.444   4.470 -1.7377 -1.6282 -2.2090
   65CHL1  H15B 5936   0.719   5.603   4.487 -0.3578  0.3959  1.2241
   65CHL1   C16 5937   0.669   5.452   4.635 -0.1743 -0.1591  0.2426
   65CHL1  H16A 5938   0.740   5.384   4.687  0.5600 -1.1884 -1.9718
   65CHL1  H16B 5939   0.634   5.538   4.696 -0.1359 -0.1868  0.3043
   65CHL1   C17 5940   0.539   5.364   4.609 -0.5413 -0.6732 -0.4787
   65CHL1   H17 5941   0.459   5.442   4.614  1.5641  1.4804  2.6609
   65CHL1   C13 5942   0.567   5.309   4.463  1.1378  0.0484  0.4692
   65CHL1   C18 5943   0.668   5.192   4.467  0.4717 -0.2222  0.4411
   65CHL1  H18A 5944   0.694   5.158   4.364 -0.7478 -1.3698  0.4906
   65CHL1  H18B 5945   0.755   5.212   4.533 -1.1277 -0.1226  2.5978
   65CHL1  H18C 5946   0.615   5.112   4.523 -1.0011  1.8887  2.2384
   65CHL1   C12 5947   0.447   5.258   4.377  0.3060 -0.4197  0.8679
   65CHL1  H12A 5948   0.412   5.159   4.414 -0.4887 -0.7842 -0.7578
   65CHL1  H12B 5949   0.366   5.333   4.383  1.2300  0.5832  0.9964
   65CHL1   C11 5950   0.478   5.240   4.222  0.2051  0.4636 -0.2523
   65CHL1  H11A 5951   0.523   5.138   4.216 -2.0790 -0.5587 -1.4010
   65CHL1  H11B 5952   0.375   5.229   4.180  1.0640  1.2390 -2.7122
   65CHL1    C9 5953   0.557   5.364   4.163 -0.0353 -0.9011  0.5355
   65CHL1    H9 5954   0.481   5.445   4.161  2.3356  1.4248 -0.9928
   65CHL1   C10 5955   0.613   5.347   4.022  0.6637 -0.1975 -0.3779
   65CHL1   C19 5956   0.699   5.217   4.020 -0.0547 -0.1544  0.5999
   65CHL1  H19A 5957   0.636   5.126   4.009  2.5847 -1.7928 -2.8484
   65CHL1  H19B 5958   0.763   5.212   3.929  0.2275  0.7211  0.7429
   65CHL1  H19C 5959   0.767   5.202   4.107 -1.5623 -0.0192  1.8543
   65CHL1    C1 5960   0.501   5.328   3.916 -0.2913 -0.3949 -0.1910
   65CHL1   H1A 5961   0.444   5.232   3.926 -0.5445 -0.1560  0.7690
   65CHL1   H1B 5962   0.422   5.406   3.916  0.4207  0.4228  2.4433
   65CHL1    C2 5963   0.550   5.321   3.771 -0.0637  0.6653  0.2751
   65CHL1   H2A 5964   0.455   5.317   3.712 -1.0219 -1.2244  1.8269
   65CHL1   H2B 5965   0.602   5.224   3.760 -0.6323  0.4797 -1.0169
   65CHL1   C20 5966   0.482   5.273   4.725 -0.1301  0.2500 -0.2974
   65CHL1   H20 5967   0.532   5.175   4.730  0.7072  0.7231  1.3248
   65CHL1   C21 5968   0.336   5.232   4.700 -0.1460  0.4997 -0.5370
   65CHL1  H21A 5969   0.309   5.168   4.613  0.6906 -1.4373  0.5466
   65CHL1  H21B 5970   0.273   5.322   4.694 -1.4534 -0.3741 -0.2803
   65CHL1  H21C 5971   0.301   5.170   4.785 -0.4460  2.2452  0.6669
   65CHL1   C22 5972   0.509   5.337   4.864  0.9048 -0.3622  0.0288
   65CHL1  H22A 5973   0.472   5.258   4.933 -1.7274 -0.9079 -1.8720
   65CHL1  H22B 5974   0.616   5.347   4.893  0.2347 -2.2469  3.9020
   65CHL1   C23 5975   0.434   5.468   4.898 -0.1604  0.2344 -0.1635
   65CHL1  H23A 5976   0.430   5.536   4.810 -0.0292 -1.8380 -1.8614
   65CHL1  H23B 5977   0.330   5.434   4.918 -0.2671  0.3873 -0.4600
   65CHL1   C24 5978   0.489   5.526   5.032  0.3579  0.1909 -0.5219
   65CHL1  H24A 5979   0.596   5.556   5.028  0.7959 -0.3559  3.5600
   65CHL1  H24B 5980   0.426   5.613   5.061 -0.0109 -1.0186  2.5996
   65CHL1   C25 5981   0.488   5.426   5.150  0.4694  0.0458  0.2239
   65CHL1   H25 5982   0.553   5.341   5.120  1.2379  0.6857  0.0356
   65CHL1   C26 5983   0.556   5.501   5.261  0.1434  0.8715  0.4010
   65CHL1  H26A 5984   0.488   5.583   5.294  0.4492  1.0371  0.6218
   65CHL1  H26B 5985   0.557   5.440   5.354  0.6340  0.5888  0.2162
   65CHL1  H26C 5986   0.648   5.556   5.231  0.8462 -0.1244  0.6881
   65CHL1   C27 5987   0.344   5.385   5.196  0.4334 -0.4178  0.2331
   65CHL1  H27A 5988   0.281   5.360   5.108 -0.6030  1.0931  0.5047
   65CHL1  H27B 5989   0.351   5.298   5.265 -1.9687 -0.5204  0.4338
   65CHL1  H27C 5990   0.302   5.465   5.261  0.3131 -0.2064 -0.1015
   66CHL1    C3 5991   6.928   5.323   3.641 -0.5120  0.3464 -0.6674
   66CHL1    H3 5992   6.851   5.402   3.654  0.3562  1.3192 -1.2812
   66CHL1    O3 5993   6.966   5.330   3.500  0.1339  0.2304 -0.2481
   66CHL1   H3' 5994   6.900   5.281   3.450  0.2643 -1.0441  0.7524
   66CHL1    C4 5995   7.048   5.364   3.726 -0.0538 -0.3427  0.1776
   66CHL1   H4A 5996   7.132   5.300   3.692 -0.6257  0.0817 -2.2732
   66CHL1   H4B 5997   7.077   5.469   3.701  1.6331 -0.6212  0.8573
   66CHL1    C5 5998   7.009   5.358   3.877  0.3784 -0.0975 -0.1446
   66CHL1    C6 5999   7.006   5.462   3.953 -0.4998 -0.3957  0.1286
   66CHL1    H6 6000   7.029   5.563   3.913 -0.1173 -0.2524  0.6984
   66CHL1    C7 6001   6.970   5.455   4.096 -0.2031  0.6665  0.2005
   66CHL1   H7A 6002   7.044   5.523   4.143 -0.8035  1.2023  0.3856
   66CHL1   H7B 6003   6.865   5.489   4.108 -0.4924  0.5014 -1.5445
   66CHL1    C8 6004   6.983   5.311   4.156  0.3277  0.6330 -0.4400
   66CHL1    H8 6005   7.090   5.281   4.157  0.9936  2.8842 -0.4895
   66CHL1   C14 6006   6.919   5.296   4.297  0.6820 -0.3048  0.4176
   66CHL1   H14 6007   6.812   5.323   4.284  1.7036  3.6623 -1.2374
   66CHL1   C15 6008   6.961   5.389   4.410  0.6187  0.1882  0.3126
   66CHL1  H15A 6009   7.067   5.422   4.413  0.5443  0.4754 -0.1456
   66CHL1  H15B 6010   6.903   5.483   4.401 -0.9319 -0.2775  3.7707
   66CHL1   C16 6011   6.923   5.320   4.540 -0.0993  0.4653  0.1253
   66CHL1  H16A 6012   7.017   5.306   4.599 -0.9677 -1.9961  1.0336
   66CHL1  H16B 6013   6.848   5.374   4.603 -1.5641  0.6730 -1.7194
   66CHL1   C17 6014   6.862   5.186   4.496 -0.5368 -0.1240 -1.3615
   66CHL1   H17 6015   6.753   5.202   4.495 -0.5100  0.7514  1.7475
   66CHL1   C13 6016   6.919   5.155   4.354 -0.1333 -0.5980  0.2561
   66CHL1   C18 6017   7.061   5.089   4.353 -0.0291  0.5868 -0.5866
   66CHL1  H18A 6018   7.128   5.147   4.419  0.4545 -0.0142 -0.5377
   66CHL1  H18B 6019   7.059   4.984   4.391 -0.6929  1.4758  1.9996
   66CHL1  H18C 6020   7.114   5.089   4.255  0.1739  1.1461 -0.4758
   66CHL1   C12 6021   6.830   5.068   4.262  0.5980  0.3780  0.1435
   66CHL1  H12A 6022   6.820   4.965   4.304 -0.4674 -0.3929 -1.8664
   66CHL1  H12B 6023   6.726   5.107   4.267 -0.1399 -1.0441 -2.4272
   66CHL1   C11 6024   6.884   5.068   4.112 -0.0785  0.5897  0.3160
   66CHL1  H11A 6025   6.981   5.014   4.104  0.1653  1.2097 -1.3396
   66CHL1  H11B 6026   6.816   5.005   4.051  0.4615  0.8923 -0.6165
   66CHL1    C9 6027   6.902   5.218   4.064 -0.2363 -0.2378 -0.4737
   66CHL1    H9 6028   6.804   5.270   4.067  1.6599  3.7172 -0.0210
   66CHL1   C10 6029   6.957   5.227   3.921  0.1150  0.4404 -0.0480
   66CHL1   C19 6030   7.076   5.129   3.899  0.1597 -0.1121 -0.2485
   66CHL1  H19A 6031   7.114   5.130   3.795 -0.6374  2.4740 -0.5825
   66CHL1  H19B 6032   7.161   5.130   3.970 -0.0843 -3.1392  0.2174
   66CHL1  H19C 6033   7.038   5.024   3.903  1.4102 -0.5383  1.5395
   66CHL1    C1 6034   6.839   5.189   3.826  0.5371 -0.4255  0.4109
   66CHL1   H1A 6035   6.807   5.089   3.864  0.0629  0.9152  3.9580
   66CHL1   H1B 6036   6.767   5.271   3.849  0.7693 -0.4294  1.1827
   66CHL1    C2 6037   6.876   5.187   3.679  0.0961 -0.4866 -0.3830
   66CHL1   H2A 6038   6.784   5.165   3.621 -0.6339 -1.4611  1.0876
   66CHL1   H2B 6039   6.955   5.114   3.650  0.2806 -0.2960 -0.3623
   66CHL1   C20 6040   6.885   5.070   4.601 -0.5336  0.2429 -0.5985
   66CHL1   H20 6041   6.991   5.036   4.591 -0.7098 -0.3487 -0.4922
   66CHL1   C21 6042   6.806   4.943   4.573  0.4707  0.8084 -0.7936
   66CHL1  H21A 6043   6.857   4.871   4.505 -0.2445 -1.4186  0.9050
   66CHL1  H21B 6044   6.700   4.962   4.547 -0.1661 -0.9492  0.3624
   66CHL1  H21C 6045   6.816   4.886   4.667  3.7555 -0.2459 -1.6256
   66CHL1   C22 6046   6.874   5.108   4.751  0.2731 -0.0327  0.5561
   66CHL1  H22A 6047   6.910   5.019   4.807  0.5678 -0.6212 -0.5577
   66CHL1  H22B 6048   6.958   5.177   4.777  1.2520 -1.2842  0.8097
   66CHL1   C23 6049   6.735   5.150   4.798 -0.2344  0.2807 -0.1216
   66CHL1  H23A 6050   6.713   5.251   4.758 -0.4139  0.4314  0.3540
   66CHL1  H23B 6051   6.661   5.084   4.747  2.1065 -1.6254 -1.2380
   66CHL1   C24 6052   6.728   5.147   4.958  0.8063 -0.2617  0.5541
   66CHL1  H24A 6053   6.631   5.192   4.988  0.8623 -0.4057  0.9588
   66CHL1  H24B 6054   6.734   5.044   5.001 -0.0805 -0.5308  0.0652
   66CHL1   C25 6055   6.841   5.233   5.023 -0.2752 -0.3304 -0.6313
   66CHL1   H25 6056   6.936   5.175   5.011 -1.3810 -2.8842  1.8309
   66CHL1   C26 6057   6.853   5.380   4.965 -0.1622  0.0349  0.1436
   66CHL1  H26A 6058   6.891   5.390   4.861  0.4406  1.2265  0.4660
   66CHL1  H26B 6059   6.752   5.427   4.964 -0.1869  0.0224 -1.4822
   66CHL1  H26C 6060   6.911   5.440   5.038 -2.1979 -0.3409  2.2089
   66CHL1   C27 6061   6.811   5.247   5.177 -0.7506  0.2318  0.1788
   66CHL1  H27A 6062   6.715   5.300   5.192 -2.5414 -2.1291 -2.1268
   66CHL1  H27B 6063   6.890   5.298   5.236  0.2221 -2.5648  1.4868
   66CHL1  H27C 6064   6.811   5.147   5.226  1.2889 -0.6543 -1.4701
   67CHL1    C3 6065   6.426   1.131   3.442 -0.1296 -0.0046 -0.3211
   67CHL1    H3 6066   6.420   1.021   3.424  4.0914 -0.2912 -1.0956
   67CHL1    O3 6067   6.358   1.197   3.337  0.6171 -0.6906  0.5717
   67CHL1   H3' 6068   6.357   1.290   3.359  0.4144 -0.9172  1.5559
   67CHL1    C4 6069   6.369   1.181   3.577 -0.5094 -0.4791 -0.3105
   67CHL1   H4A 6070   6.348   1.290   3.572 -1.8998 -0.7819 -2.2245
   67CHL1   H4B 6071   6.268   1.134   3.579 -0.9864  0.5121  0.2325
   67CHL1    C5 6072   6.449   1.135   3.699  0.2906 -0.3494 -0.6220
   67CHL1    C6 6073   6.376   1.068   3.797 -0.1044 -0.1990  0.1433
   67CHL1    H6 6074   6.271   1.047   3.770  0.8757 -2.0793 -2.6030
   67CHL1    C7 6075   6.446   1.012   3.917  1.2362  0.6016 -0.8798
   67CHL1   H7A 6076   6.390   1.040   4.008 -0.7066 -1.1215 -1.4907
   67CHL1   H7B 6077   6.447   0.901   3.911  0.4596  0.4998  0.6085
   67CHL1    C8 6078   6.588   1.058   3.938 -0.2099 -0.3860 -0.8045
   67CHL1    H8 6079   6.578   1.157   3.987  3.3254  0.1814 -0.9658
   67CHL1   C14 6080   6.666   0.971   4.030 -0.0939 -0.5827  0.3572
   67CHL1   H14 6081   6.687   0.876   3.977  0.3726 -0.6074  0.5870
   67CHL1   C15 6082   6.594   0.925   4.159  0.4498 -0.4781  0.5598
   67CHL1  H15A 6083   6.523   0.999   4.200 -0.3716  0.8936 -2.9618
   67CHL1  H15B 6084   6.521   0.851   4.121 -0.3945  1.0575 -0.9279
   67CHL1   C16 6085   6.704   0.880   4.252 -0.4609 -0.1975  0.6299
   67CHL1  H16A 6086   6.698   0.943   4.344 -1.9329 -0.0201  0.4421
   67CHL1  H16B 6087   6.697   0.772   4.277  2.2489 -0.3462  1.0756
   67CHL1   C17 6088   6.831   0.902   4.173 -0.5359  0.0236 -0.4705
   67CHL1   H17 6089   6.856   0.810   4.115  0.2085 -0.3733  0.4556
   67CHL1   C13 6090   6.800   1.009   4.070 -0.7189 -0.7077 -0.0328
   67CHL1   C18 6091   6.794   1.147   4.141 -0.1301 -0.2136  0.1573
   67CHL1  H18A 6092   6.730   1.223   4.091 -0.3595 -0.6163 -0.1590
   67CHL1  H18B 6093   6.759   1.139   4.247  0.3248  1.9640  0.5284
   67CHL1  H18C 6094   6.896   1.190   4.149 -0.0232 -0.0599 -1.6721
   67CHL1   C12 6095   6.884   1.016   3.945  0.1400  0.1558  0.3765
   67CHL1  H12A 6096   6.985   1.061   3.954  0.4587  0.3201 -2.8243
   67CHL1  H12B 6097   6.893   0.911   3.911  0.8976 -0.2315  1.6975
   67CHL1   C11 6098   6.817   1.102   3.836 -0.3610  0.3939 -0.6541
   67CHL1  H11A 6099   6.820   1.206   3.875  3.3785 -0.2207  1.1274
   67CHL1  H11B 6100   6.868   1.114   3.739  1.1345 -2.2405 -0.2775
   67CHL1    C9 6101   6.667   1.064   3.804 -0.5520  0.4239 -0.1672
   67CHL1    H9 6102   6.672   0.957   3.776 -0.6961 -0.4065  2.6651
   67CHL1   C10 6103   6.602   1.156   3.698 -0.1334 -0.5558  0.5111
   67CHL1   C19 6104   6.624   1.311   3.727  0.5754 -0.1990  0.2530
   67CHL1  H19A 6105   6.567   1.380   3.661 -0.0046  0.6637  1.6043
   67CHL1  H19B 6106   6.591   1.327   3.832 -3.0467 -0.6649 -0.6535
   67CHL1  H19C 6107   6.726   1.345   3.700  0.4537 -0.3900 -0.4584
   67CHL1    C1 6108   6.664   1.137   3.560  0.5412  0.8566  0.0980
   67CHL1   H1A 6109   6.762   1.188   3.553  1.3254 -0.5773  0.2939
   67CHL1   H1B 6110   6.691   1.031   3.538 -0.8694 -0.0441  2.3136
   67CHL1    C2 6111   6.572   1.182   3.437 -0.2148 -0.0305 -0.1509
   67CHL1   H2A 6112   6.625   1.149   3.345  2.3640  4.0026 -0.3676
   67CHL1   H2B 6113   6.571   1.293   3.427 -3.1715  0.0674  0.3066
   67CHL1   C20 6114   6.956   0.912   4.276  0.6306 -0.0299  0.1051
   67CHL1   H20 6115   6.936   1.004   4.334 -1.8114 -1.3478  1.5486
   67CHL1   C21 6116   7.084   0.915   4.197  0.3806  0.3427  0.3416
   67CHL1  H21A 6117   7.179   0.904   4.254  1.5245  1.6501 -1.2047
   67CHL1  H21B 6118   7.077   1.007   4.135  0.9176  1.9341  2.5178
   67CHL1  H21C 6119   7.091   0.836   4.119  2.2990  0.2525  0.5529
   67CHL1   C22 6120   6.944   0.800   4.383 -0.5971 -0.2932 -0.5106
   67CHL1  H22A 6121   6.849   0.796   4.441 -0.8628 -0.8262 -0.9681
   67CHL1  H22B 6122   6.953   0.701   4.333 -0.2816  1.4791 -4.2997
   67CHL1   C23 6123   7.046   0.820   4.492 -0.1113  0.5570 -0.4378
   67CHL1  H23A 6124   7.145   0.792   4.451 -0.1002 -0.4807  0.2679
   67CHL1  H23B 6125   7.061   0.929   4.510 -1.2062  0.9937 -1.9765
   67CHL1   C24 6126   7.016   0.756   4.632  0.1960  0.1235  0.8703
   67CHL1  H24A 6127   6.923   0.787   4.682 -0.1410 -1.1222  1.0637
   67CHL1  H24B 6128   7.005   0.645   4.630  2.7555 -0.2930  3.3472
   67CHL1   C25 6129   7.123   0.774   4.734 -0.8946 -0.4806  0.6622
   67CHL1   H25 6130   7.133   0.885   4.742 -0.7117 -0.5189  0.9920
   67CHL1   C26 6131   7.076   0.721   4.865  0.2938  0.4483 -0.1052
   67CHL1  H26A 6132   7.040   0.616   4.868  2.1533 -0.3057 -1.5824
   67CHL1  H26B 6133   7.148   0.732   4.949  0.5032  0.4338 -0.2818
   67CHL1  H26C 6134   6.998   0.796   4.890  1.0127  1.3930 -0.6243
   67CHL1   C27 6135   7.262   0.714   4.705  0.1747  0.0455  0.4467
   67CHL1  H27A 6136   7.317   0.706   4.802 -1.5496 -0.2144  1.4384
   67CHL1  H27B 6137   7.237   0.612   4.669  0.5386  0.6514 -1.6631
   67CHL1  H27C 6138   7.317   0.760   4.620 -0.8867 -2.2272 -1.5856
   68CHL1    C3 6139   3.352   3.381   3.412 -0.1078 -0.0444 -0.9870
   68CHL1    H3 6140   3.292   3.287   3.404 -1.3956  0.6481  0.1511
   68CHL1    O3 6141   3.384   3.409   3.278 -0.7553 -0.0144  0.0911
   68CHL1   H3' 6142   3.456   3.472   3.289 -0.5711 -0.5213  2.2305
   68CHL1    C4 6143   3.274   3.507   3.463 -0.5641 -0.2497 -0.5316
   68CHL1   H4A 6144   3.322   3.604   3.436 -0.9045  0.2853  0.7322
   68CHL1   H4B 6145   3.189   3.514   3.391  0.5854  1.2219 -1.8119
   68CHL1    C5 6146   3.242   3.484   3.605 -0.3848  0.0326 -0.1320
   68CHL1    C6 6147   3.116   3.491   3.645 -0.5855  0.5611 -0.0855
   68CHL1    H6 6148   3.032   3.517   3.579 -1.4220 -0.5582  0.5020
   68CHL1    C7 6149   3.072   3.487   3.784 -0.7493  0.2188 -0.6858
   68CHL1   H7A 6150   2.999   3.568   3.806 -0.4009 -0.0268  1.6000
   68CHL1   H7B 6151   3.021   3.390   3.803 -2.7360  1.3661  0.0894
   68CHL1    C8 6152   3.193   3.487   3.884 -0.1416 -0.1573  0.0414
   68CHL1    H8 6153   3.223   3.594   3.888  1.3404 -0.3726 -2.9089
   68CHL1   C14 6154   3.152   3.443   4.025 -0.1128 -0.0330  0.1598
   68CHL1   H14 6155   3.133   3.333   4.027 -0.1606 -0.0180  0.9187
   68CHL1   C15 6156   3.032   3.511   4.081  1.0370  0.3168 -0.4184
   68CHL1  H15A 6157   3.025   3.616   4.047  1.2394  0.4345 -0.0964
   68CHL1  H15B 6158   2.937   3.463   4.046  1.5647 -0.4944 -0.7729
   68CHL1   C16 6159   3.044   3.479   4.231 -0.2934  0.2890  0.8320
   68CHL1  H16A 6160   3.034   3.578   4.280  1.9213  0.9569  0.0794
   68CHL1  H16B 6161   2.966   3.406   4.261 -0.9782  1.2819  1.4883
   68CHL1   C17 6162   3.195   3.419   4.255 -1.0729 -0.0929  0.0881
   68CHL1   H17 6163   3.187   3.309   4.263 -0.2834 -0.0736  1.3964
   68CHL1   C13 6164   3.265   3.465   4.127 -0.1626  0.1979  0.5241
   68CHL1   C18 6165   3.302   3.622   4.148 -0.2921  0.1140 -0.2512
   68CHL1  H18A 6166   3.397   3.619   4.206  1.3585  0.8856 -2.7461
   68CHL1  H18B 6167   3.335   3.669   4.053  0.9949 -0.6063 -0.1828
   68CHL1  H18C 6168   3.221   3.683   4.193 -1.3693 -1.4231 -0.0170
   68CHL1   C12 6169   3.389   3.379   4.087  0.3596 -0.2458 -0.1558
   68CHL1  H12A 6170   3.476   3.424   4.139  0.5064  1.3761 -1.7016
   68CHL1  H12B 6171   3.375   3.270   4.104 -0.3537 -0.2606 -0.7809
   68CHL1   C11 6172   3.430   3.413   3.945  0.3823  0.6763 -0.4289
   68CHL1  H11A 6173   3.461   3.520   3.937 -1.1526  1.0914 -1.2177
   68CHL1  H11B 6174   3.511   3.343   3.915  0.5467  0.2271  0.9856
   68CHL1    C9 6175   3.316   3.400   3.840 -0.3480  0.0937  0.5032
   68CHL1    H9 6176   3.281   3.295   3.842  0.3240 -0.1691  2.9985
   68CHL1   C10 6177   3.362   3.439   3.697 -0.1867 -0.7476 -0.6429
   68CHL1   C19 6178   3.450   3.571   3.708  0.4835  0.6676  0.8594
   68CHL1  H19A 6179   3.477   3.594   3.603  0.3971 -0.9520  0.4544
   68CHL1  H19B 6180   3.405   3.663   3.752  0.6027  1.2513 -0.1959
   68CHL1  H19C 6181   3.547   3.548   3.757  0.8311  1.0247  0.3500
   68CHL1    C1 6182   3.445   3.319   3.635  0.3263 -0.7886 -0.2315
   68CHL1   H1A 6183   3.536   3.293   3.693  1.3025 -0.5905 -1.6307
   68CHL1   H1B 6184   3.382   3.228   3.625  0.2502 -0.7304 -0.2886
   68CHL1    C2 6185   3.482   3.351   3.491 -0.5137 -0.5504  0.5441
   68CHL1   H2A 6186   3.548   3.271   3.452  0.3862 -0.1351  1.1675
   68CHL1   H2B 6187   3.543   3.444   3.488 -1.4844  0.3297  3.8666
   68CHL1   C20 6188   3.262   3.461   4.389 -0.3068  0.1560 -0.4289
   68CHL1   H20 6189   3.320   3.555   4.379  0.2751 -0.0146  1.0438
   68CHL1   C21 6190   3.370   3.346   4.421  1.1022  0.8092  0.2003
   68CHL1  H21A 6191   3.316   3.258   4.462 -1.2953  2.1702  0.1281
   68CHL1  H21B 6192   3.443   3.360   4.503 -1.3085 -0.0755  2.6517
   68CHL1  H21C 6193   3.425   3.325   4.326  1.6056  2.1613  0.1729
   68CHL1   C22 6194   3.165   3.478   4.503 -0.1920 -0.4688 -0.3380
   68CHL1  H22A 6195   3.108   3.572   4.489  0.5697  0.5551  2.7103
   68CHL1  H22B 6196   3.096   3.391   4.514 -1.9940  0.8910 -0.5128
   68CHL1   C23 6197   3.220   3.491   4.645 -0.2034  0.4702  1.0614
   68CHL1  H23A 6198   3.298   3.415   4.666  0.7936  1.2646  0.3729
   68CHL1  H23B 6199   3.261   3.594   4.655  1.0011  0.0050  1.0531
   68CHL1   C24 6200   3.116   3.470   4.759 -0.1693 -0.1918  0.0964
   68CHL1  H24A 6201   3.047   3.557   4.765 -1.3422 -1.1803  1.7742
   68CHL1  H24B 6202   3.067   3.372   4.743 -1.7798  0.2215  2.0435
   68CHL1   C25 6203   3.186   3.461   4.899 -0.0861 -0.1860 -0.0776
   68CHL1   H25 6204   3.269   3.392   4.873 -1.1114 -2.3374  2.0489
   68CHL1   C26 6205   3.243   3.593   4.943 -0.1654 -0.4843 -0.0221
   68CHL1  H26A 6206   3.157   3.664   4.945  0.8018  0.7392  1.7975
   68CHL1  H26B 6207   3.279   3.588   5.048 -0.8831  1.6489  0.3684
   68CHL1  H26C 6208   3.322   3.619   4.869 -1.0943 -2.9611 -2.0055
   68CHL1   C27 6209   3.100   3.399   5.003 -0.2790 -1.1967 -0.2261
   68CHL1  H27A 6210   3.146   3.402   5.104 -2.6552  1.0735  0.8990
   68CHL1  H27B 6211   3.004   3.454   5.010 -0.3376 -1.2547 -0.5580
   68CHL1  H27C 6212   3.084   3.290   4.983  1.3355 -1.7818  1.3614
   69CHL1    C3 6213   1.123   1.693   3.497  0.0572  0.0555 -0.7286
   69CHL1    H3 6214   1.176   1.600   3.527  3.1155  1.5591 -1.0556
   69CHL1    O3 6215   1.124   1.699   3.358  0.2876 -0.0800  0.0587
   69CHL1   H3' 6216   1.080   1.618   3.330  2.6793 -0.9287 -1.5015
   69CHL1    C4 6217   0.989   1.708   3.563  0.4057  0.0772 -0.6253
   69CHL1   H4A 6218   0.949   1.809   3.537  0.2585  0.2769  0.3580
   69CHL1   H4B 6219   0.916   1.635   3.524 -0.3783 -0.6597  2.0698
   69CHL1    C5 6220   0.995   1.692   3.712  1.1327 -0.4338  0.3914
   69CHL1    C6 6221   0.933   1.595   3.786 -0.4426 -0.1303  0.4790
   69CHL1    H6 6222   0.874   1.521   3.731 -0.4594  0.2647 -0.0450
   69CHL1    C7 6223   0.929   1.591   3.935  0.1120 -0.3333  0.2457
   69CHL1   H7A 6224   0.823   1.591   3.966  0.1552  0.3406  0.4022
   69CHL1   H7B 6225   0.981   1.501   3.974  2.4950 -0.1957 -2.2996
   69CHL1    C8 6226   0.978   1.721   3.995 -0.2900 -0.2302 -0.5060
   69CHL1    H8 6227   0.901   1.800   3.987  0.9549  1.9135  4.5208
   69CHL1   C14 6228   1.010   1.701   4.143  0.1106 -0.5130 -0.0771
   69CHL1   H14 6229   1.094   1.627   4.138 -0.3840 -1.0842  0.0017
   69CHL1   C15 6230   0.914   1.622   4.235  0.6001  0.1941  0.8557
   69CHL1  H15A 6231   0.806   1.646   4.232  0.3757 -0.9055 -0.6365
   69CHL1  H15B 6232   0.908   1.514   4.213 -2.6607  0.5006 -0.2173
   69CHL1   C16 6233   0.959   1.655   4.376 -0.1312 -0.1962  0.7471
   69CHL1  H16A 6234   0.874   1.702   4.430 -0.2947  1.9316 -1.1999
   69CHL1  H16B 6235   0.990   1.572   4.442  3.8676 -0.0868 -0.6937
   69CHL1   C17 6236   1.080   1.763   4.359 -0.1886 -0.2345  0.0027
   69CHL1   H17 6237   1.176   1.711   4.342  0.6940  1.6632 -1.1784
   69CHL1   C13 6238   1.065   1.823   4.216  0.2524  0.4381 -0.0411
   69CHL1   C18 6239   0.953   1.933   4.220 -0.3381 -0.2998 -0.2157
   69CHL1  H18A 6240   0.925   1.964   4.117  0.8691 -0.7280 -0.6875
   69CHL1  H18B 6241   0.862   1.889   4.267 -1.9335  2.4445 -0.5099
   69CHL1  H18C 6242   0.985   2.023   4.278 -1.3125  0.5378 -0.9309
   69CHL1   C12 6243   1.202   1.861   4.151 -0.4585 -0.7069 -0.6292
   69CHL1  H12A 6244   1.241   1.953   4.200 -1.9501 -0.5719  0.3744
   69CHL1  H12B 6245   1.274   1.777   4.165  0.3993 -0.0846 -1.1738
   69CHL1   C11 6246   1.188   1.893   4.004 -0.8012  0.2400  0.2078
   69CHL1  H11A 6247   1.146   1.995   4.004  0.1644  0.6646  1.5735
   69CHL1  H11B 6248   1.289   1.893   3.957 -0.9434  2.6879 -0.2010
   69CHL1    C9 6249   1.107   1.778   3.929 -0.1704 -0.5493 -0.1790
   69CHL1    H9 6250   1.173   1.690   3.918 -1.0057 -0.9219 -2.9550
   69CHL1   C10 6251   1.083   1.803   3.776  0.2792 -0.3963 -0.0788
   69CHL1   C19 6252   1.009   1.942   3.772 -0.6016  0.2908  0.0245
   69CHL1  H19A 6253   0.971   1.981   3.675 -0.2815  1.0581  0.1969
   69CHL1  H19B 6254   0.911   1.932   3.822 -0.2199  1.4551  1.0703
   69CHL1  H19C 6255   1.074   2.015   3.825  0.6232 -2.4474  2.5295
   69CHL1    C1 6256   1.218   1.826   3.691  0.3019 -0.0718  0.8241
   69CHL1   H1A 6257   1.263   1.924   3.720  0.7170 -0.1737  0.5269
   69CHL1   H1B 6258   1.277   1.740   3.728 -0.3762 -0.1006  1.8942
   69CHL1    C2 6259   1.201   1.817   3.540 -0.1504 -0.4070  0.1899
   69CHL1   H2A 6260   1.300   1.837   3.493 -0.3467  1.1700  0.3980
   69CHL1   H2B 6261   1.139   1.902   3.505  0.9574  0.2066 -0.3208
   69CHL1   C20 6262   1.101   1.868   4.474  0.2552 -0.2823 -0.5003
   69CHL1   H20 6263   1.153   1.952   4.423  0.1632 -1.5622 -2.8307
   69CHL1   C21 6264   1.194   1.791   4.575 -0.3128  0.1299  0.3482
   69CHL1  H21A 6265   1.149   1.690   4.586 -1.0600  0.2224 -1.4801
   69CHL1  H21B 6266   1.201   1.847   4.671 -0.7089  0.4519  0.1951
   69CHL1  H21C 6267   1.298   1.778   4.539  0.7462  0.8584  2.9215
   69CHL1   C22 6268   0.974   1.918   4.549 -0.4061  0.2548 -0.2136
   69CHL1  H22A 6269   0.895   1.941   4.475  1.2812  0.3144 -2.0844
   69CHL1  H22B 6270   0.921   1.848   4.617 -1.8413  0.1004 -1.4503
   69CHL1   C23 6271   0.982   2.059   4.617 -0.2101 -0.0787 -0.2216
   69CHL1  H23A 6272   1.058   2.054   4.698  2.1833  2.4606 -2.1397
   69CHL1  H23B 6273   1.028   2.119   4.536  1.2982 -0.8131  0.0525
   69CHL1   C24 6274   0.852   2.113   4.674 -0.1129  0.4194 -0.1114
   69CHL1  H24A 6275   0.866   2.212   4.722  0.6197 -0.1448  0.8767
   69CHL1  H24B 6276   0.778   2.103   4.591  0.3652 -2.9695 -0.2600
   69CHL1   C25 6277   0.782   2.031   4.796 -0.0018 -0.4380  0.3863
   69CHL1   H25 6278   0.752   1.933   4.755  1.1849 -1.2940  1.4944
   69CHL1   C26 6279   0.868   2.021   4.929  0.5674 -0.1305  0.3752
   69CHL1  H26A 6280   0.810   1.961   5.002 -0.3349 -1.0211 -1.0117
   69CHL1  H26B 6281   0.967   1.973   4.909 -0.4601 -1.8286 -0.9936
   69CHL1  H26C 6282   0.876   2.125   4.967 -0.1649 -0.0981  0.4448
   69CHL1   C27 6283   0.649   2.103   4.846 -0.5837  0.5544  0.2775
   69CHL1  H27A 6284   0.574   2.083   4.767 -0.3812 -2.7241  0.7811
   69CHL1  H27B 6285   0.613   2.045   4.934 -0.5209  0.1264  0.0276
   69CHL1  H27C 6286   0.657   2.212   4.866  0.2076  0.1492  2.4381
   70CHL1    C3 6287   4.578   5.114   3.387 -0.1866  0.3391  0.0100
   70CHL1    H3 6288   4.654   5.036   3.410 -0.4777 -0.3036 -1.1511
   70CHL1    O3 6289   4.577   5.137   3.252  0.6009  0.1619 -0.0633
   70CHL1   H3' 6290   4.502   5.193   3.231 -0.2208 -0.9381 -0.1281
   70CHL1    C4 6291   4.442   5.069   3.443  0.0133  0.5221 -0.6355
   70CHL1   H4A 6292   4.358   5.134   3.410 -1.2805 -0.2053  1.0857
   70CHL1   H4B 6293   4.420   4.972   3.395  0.9503  1.3168 -2.8072
   70CHL1    C5 6294   4.458   5.065   3.596 -0.8016 -0.5253 -0.2506
   70CHL1    C6 6295   4.443   4.945   3.657 -0.0041 -0.5006  1.1452
   70CHL1    H6 6296   4.412   4.858   3.598  2.0901 -2.1063  2.2601
   70CHL1    C7 6297   4.453   4.932   3.811 -0.3218  0.8367 -0.2347
   70CHL1   H7A 6298   4.374   4.864   3.848 -0.3661  0.8903 -0.2294
   70CHL1   H7B 6299   4.553   4.899   3.846 -0.7738  0.4524  0.7324
   70CHL1    C8 6300   4.430   5.072   3.874 -0.0310 -1.0501  0.0179
   70CHL1    H8 6301   4.325   5.102   3.857  0.0146 -0.3738  0.8509
   70CHL1   C14 6302   4.457   5.062   4.024 -0.4479 -0.3799 -0.2436
   70CHL1   H14 6303   4.562   5.026   4.032 -0.2632 -0.1003 -1.2478
   70CHL1   C15 6304   4.379   4.953   4.090 -0.2798 -0.3651 -0.8323
   70CHL1  H15A 6305   4.268   4.953   4.079 -0.2942  0.5695 -0.7907
   70CHL1  H15B 6306   4.420   4.852   4.070 -1.0255 -0.9050  0.3100
   70CHL1   C16 6307   4.397   4.990   4.242  0.0194 -0.3832 -0.9064
   70CHL1  H16A 6308   4.299   4.999   4.293  1.2756 -3.3140  2.4045
   70CHL1  H16B 6309   4.453   4.910   4.295  0.2178  0.7333  0.6195
   70CHL1   C17 6310   4.474   5.128   4.252 -0.3120  0.6032  0.7948
   70CHL1   H17 6311   4.581   5.105   4.270  1.1894  5.9616  0.2893
   70CHL1   C13 6312   4.454   5.182   4.114  0.3656  0.2569 -0.5316
   70CHL1   C18 6313   4.322   5.256   4.105  0.2745  0.0516 -0.9966
   70CHL1  H18A 6314   4.251   5.208   4.175  1.7727 -0.1535  0.4257
   70CHL1  H18B 6315   4.321   5.361   4.141 -0.2636 -0.9386  2.1182
   70CHL1  H18C 6316   4.289   5.266   3.999  0.1422 -1.9703 -1.1982
   70CHL1   C12 6317   4.563   5.282   4.059 -0.2934  0.0684 -0.0251
   70CHL1  H12A 6318   4.548   5.386   4.095 -1.7147  0.0532 -0.5104
   70CHL1  H12B 6319   4.668   5.249   4.070  0.2827  1.0399 -2.1232
   70CHL1   C11 6320   4.549   5.299   3.902 -0.6425  0.3250 -0.1284
   70CHL1  H11A 6321   4.459   5.362   3.889 -0.6192  0.0088 -2.0742
   70CHL1  H11B 6322   4.633   5.362   3.864  0.7966 -1.0973  0.5507
   70CHL1    C9 6323   4.528   5.175   3.816  0.5416 -0.0573 -0.3622
   70CHL1    H9 6324   4.626   5.123   3.823  0.6441  0.1919  0.0684
   70CHL1   C10 6325   4.505   5.195   3.667 -0.3200  0.6697  0.0034
   70CHL1   C19 6326   4.404   5.306   3.638 -0.0429 -0.2639  0.1048
   70CHL1  H19A 6327   4.312   5.299   3.700 -0.3534 -0.0419 -0.3321
   70CHL1  H19B 6328   4.447   5.400   3.678 -0.5958 -0.0391  0.1866
   70CHL1  H19C 6329   4.372   5.323   3.533 -1.0149 -0.6042  0.3330
   70CHL1    C1 6330   4.643   5.235   3.601 -0.5622 -0.1352 -0.5336
   70CHL1   H1A 6331   4.670   5.335   3.642  0.2261 -0.3883 -0.4135
   70CHL1   H1B 6332   4.716   5.157   3.632 -1.3488 -1.0139 -0.8484
   70CHL1    C2 6333   4.638   5.242   3.445 -0.0819  0.4612  0.1358
   70CHL1   H2A 6334   4.741   5.268   3.412 -0.6335  2.4627 -0.1564
   70CHL1   H2B 6335   4.573   5.326   3.413 -0.5676  0.7323  1.7148
   70CHL1   C20 6336   4.443   5.215   4.377 -0.2488 -0.3441 -0.3962
   70CHL1   H20 6337   4.344   5.263   4.358 -0.4321 -0.6891 -0.3207
   70CHL1   C21 6338   4.558   5.325   4.400 -0.2341  0.1829 -0.0123
   70CHL1  H21A 6339   4.568   5.400   4.319  0.1454 -0.9359 -1.0506
   70CHL1  H21B 6340   4.658   5.276   4.402 -1.2137 -1.9260  0.5644
   70CHL1  H21C 6341   4.537   5.387   4.489  1.1491 -0.4988  0.8213
   70CHL1   C22 6342   4.440   5.128   4.506  0.0532 -0.4096  0.1122
   70CHL1  H22A 6343   4.356   5.056   4.504 -0.1640 -0.1529 -1.2681
   70CHL1  H22B 6344   4.532   5.065   4.503  0.6327  0.4277 -0.5340
   70CHL1   C23 6345   4.430   5.209   4.636  0.1174  0.5509 -0.1729
   70CHL1  H23A 6346   4.528   5.258   4.656  0.8363 -0.3285 -1.3798
   70CHL1  H23B 6347   4.357   5.293   4.632 -0.8586 -0.2670  0.1221
   70CHL1   C24 6348   4.408   5.121   4.755 -0.4201 -0.1146  0.3510
   70CHL1  H24A 6349   4.303   5.084   4.759 -0.7123  0.3523 -1.8531
   70CHL1  H24B 6350   4.476   5.033   4.752 -0.8683 -0.5718  2.2435
   70CHL1   C25 6351   4.417   5.208   4.880  0.7230 -0.0597  0.4109
   70CHL1   H25 6352   4.521   5.246   4.890  0.0339  1.9411  0.2602
   70CHL1   C26 6353   4.316   5.327   4.896  0.6040 -0.6780 -0.6339
   70CHL1  H26A 6354   4.212   5.287   4.897  0.6262 -0.7797  1.1185
   70CHL1  H26B 6355   4.333   5.363   5.000 -0.7238 -0.5490 -0.4453
   70CHL1  H26C 6356   4.325   5.413   4.826 -1.7084  0.1522 -0.0204
   70CHL1   C27 6357   4.409   5.125   5.009  0.2886  0.0697 -0.2010
   70CHL1  H27A 6358   4.309   5.076   5.018  0.2680  0.2370  0.4627
   70CHL1  H27B 6359   4.479   5.040   5.022 -1.5533 -1.5162 -0.1000
   70CHL1  H27C 6360   4.417   5.196   5.093  1.5708 -0.1336 -0.1394
   71CHL1    C3 6361   1.068   2.824   3.603  0.0732 -0.1994 -0.5558
   71CHL1    H3 6362   0.990   2.763   3.653 -0.1717  0.6862  0.1615
   71CHL1    O3 6363   1.051   2.811   3.458 -0.4492 -0.3375 -0.5492
   71CHL1   H3' 6364   1.141   2.788   3.435  0.7219  0.7913  2.3440
   71CHL1    C4 6365   1.078   2.974   3.650  0.5563  0.6947  0.9526
   71CHL1   H4A 6366   1.151   3.036   3.594 -0.1447  2.3451  1.8059
   71CHL1   H4B 6367   0.979   3.020   3.630  0.4881 -0.0282 -0.5437
   71CHL1    C5 6368   1.106   2.976   3.799  0.3181 -0.3306 -0.3829
   71CHL1    C6 6369   1.022   3.042   3.883  0.3952 -0.1111 -0.9203
   71CHL1    H6 6370   0.935   3.100   3.849  0.8913  0.8829 -0.5364
   71CHL1    C7 6371   1.051   3.039   4.034  0.1944 -0.2942  0.1578
   71CHL1   H7A 6372   1.021   3.137   4.078  0.1052  0.7876 -2.1415
   71CHL1   H7B 6373   0.989   2.961   4.082 -0.1663  0.5679  1.1120
   71CHL1    C8 6374   1.202   3.003   4.075 -0.0341  0.1692 -0.1626
   71CHL1    H8 6375   1.271   3.086   4.049  2.1511 -1.6107 -0.4016
   71CHL1   C14 6376   1.200   2.971   4.223  0.3151 -0.3407  0.8020
   71CHL1   H14 6377   1.126   2.888   4.230  2.2435 -2.1044  0.9854
   71CHL1   C15 6378   1.145   3.077   4.315 -0.5967  0.1323  0.0416
   71CHL1  H15A 6379   1.191   3.177   4.298  1.1527 -0.9849 -2.3307
   71CHL1  H15B 6380   1.035   3.092   4.312 -0.6068  0.5776  1.6716
   71CHL1   C16 6381   1.193   3.031   4.452 -0.4234 -0.2976 -0.8017
   71CHL1  H16A 6382   1.257   3.109   4.500 -2.0514 -0.6623  2.2423
   71CHL1  H16B 6383   1.110   3.020   4.525 -1.5822  2.3973 -1.5810
   71CHL1   C17 6384   1.275   2.906   4.428 -0.1823 -0.1137  0.0595
   71CHL1   H17 6385   1.205   2.819   4.429  0.1632 -0.3825  0.8374
   71CHL1   C13 6386   1.325   2.913   4.282  0.2519  0.4852  0.3763
   71CHL1   C18 6387   1.429   3.017   4.265  0.2311  0.4533  0.9433
   71CHL1  H18A 6388   1.475   3.014   4.164 -2.4268 -2.7565 -0.3423
   71CHL1  H18B 6389   1.402   3.118   4.302  0.2044 -0.0296  2.2824
   71CHL1  H18C 6390   1.507   2.993   4.341 -0.6531  0.6190  1.9319
   71CHL1   C12 6391   1.348   2.777   4.214 -0.6923  0.0007  0.2579
   71CHL1  H12A 6392   1.439   2.721   4.246 -1.1634 -0.1081  1.4410
   71CHL1  H12B 6393   1.254   2.718   4.218 -1.5184  1.1374 -1.1499
   71CHL1   C11 6394   1.358   2.798   4.055  1.0444 -0.0138  1.0239
   71CHL1  H11A 6395   1.447   2.859   4.025 -0.0024  2.0051  1.7976
   71CHL1  H11B 6396   1.367   2.697   4.011  1.6967  0.5381 -0.1401
   71CHL1    C9 6397   1.233   2.872   4.002  0.3451 -0.4526  0.3305
   71CHL1    H9 6398   1.149   2.804   4.030  0.6800 -0.8198  0.4575
   71CHL1   C10 6399   1.230   2.892   3.845  0.2679  0.1576  0.1928
   71CHL1   C19 6400   1.350   2.974   3.794  0.1698  0.0853  0.1858
   71CHL1  H19A 6401   1.455   2.942   3.811  0.0654  0.0571  0.8224
   71CHL1  H19B 6402   1.345   2.991   3.685 -1.9231 -0.6574  0.1078
   71CHL1  H19C 6403   1.339   3.075   3.838 -0.3148  1.5197 -2.9699
   71CHL1    C1 6404   1.230   2.747   3.783 -0.3107 -0.6816 -0.0953
   71CHL1   H1A 6405   1.331   2.703   3.791  0.3691  0.7943 -0.2926
   71CHL1   H1B 6406   1.146   2.686   3.823 -0.8057 -1.1740 -1.7934
   71CHL1    C2 6407   1.201   2.744   3.628 -0.5701 -0.1021 -0.3988
   71CHL1   H2A 6408   1.191   2.637   3.599 -0.8454  0.2751 -1.7636
   71CHL1   H2B 6409   1.288   2.790   3.577 -0.7507  1.7839  0.8931
   71CHL1   C20 6410   1.369   2.872   4.545 -0.0166  0.6840  0.3703
   71CHL1   H20 6411   1.438   2.958   4.561  0.6697  0.3105 -0.5049
   71CHL1   C21 6412   1.458   2.744   4.506  0.3423  0.5797  0.0679
   71CHL1  H21A 6413   1.541   2.762   4.435 -0.3932 -0.6361 -1.1622
   71CHL1  H21B 6414   1.391   2.665   4.464  0.3932  0.5067  0.1234
   71CHL1  H21C 6415   1.517   2.697   4.587  0.4877  0.0482 -0.3336
   71CHL1   C22 6416   1.295   2.850   4.677 -0.4696 -0.3039 -0.7004
   71CHL1  H22A 6417   1.231   2.936   4.706  1.4504 -0.1619  3.7298
   71CHL1  H22B 6418   1.218   2.770   4.670  0.1995 -1.3665  2.6273
   71CHL1   C23 6419   1.387   2.812   4.795  0.2572 -0.3636 -0.9955
   71CHL1  H23A 6420   1.404   2.703   4.805  0.3103 -0.2275  0.5797
   71CHL1  H23B 6421   1.481   2.870   4.781  0.9492 -1.7212 -2.2883
   71CHL1   C24 6422   1.313   2.844   4.923 -0.3334  0.0939  0.3911
   71CHL1  H24A 6423   1.280   2.948   4.938  1.0406  0.1825  3.7374
   71CHL1  H24B 6424   1.230   2.772   4.940 -0.7780  0.9749  2.1543
   71CHL1   C25 6425   1.393   2.812   5.058 -0.1223  0.1472 -0.0558
   71CHL1   H25 6426   1.492   2.856   5.037  0.9056 -1.8475  0.3787
   71CHL1   C26 6427   1.326   2.871   5.183  0.2650 -0.0319 -0.1060
   71CHL1  H26A 6428   1.327   2.982   5.169 -0.9864  0.0861  0.6502
   71CHL1  H26B 6429   1.221   2.836   5.185  0.5224 -1.4278 -3.5433
   71CHL1  H26C 6430   1.378   2.830   5.272 -2.2454  0.9419  1.9285
   71CHL1   C27 6431   1.430   2.668   5.085 -0.8217 -0.3510 -0.0573
   71CHL1  H27A 6432   1.492   2.625   5.004 -0.9221 -2.1721  0.8004
   71CHL1  H27B 6433   1.500   2.658   5.171 -1.8824 -1.3121  0.7287
   71CHL1  H27C 6434   1.342   2.601   5.084 -1.5793  0.6181 -1.0602
   72CHL1    C3 6435   0.962   2.227   3.488 -0.1565 -0.1371 -0.7785
   72CHL1    H3 6436   1.017   2.133   3.513  1.9252  1.5193  1.2698
   72CHL1    O3 6437   0.960   2.222   3.347  0.5324  0.2747  0.8288
   72CHL1   H3' 6438   0.885   2.279   3.325  0.4078 -0.6213 -1.4126
   72CHL1    C4 6439   0.823   2.242   3.553 -0.0519 -0.6177 -0.1340
   72CHL1   H4A 6440   0.770   2.329   3.510  0.0730  0.4963  1.8866
   72CHL1   H4B 6441   0.764   2.155   3.518 -0.0538  0.0217 -1.8341
   72CHL1    C5 6442   0.828   2.258   3.699  0.4411  0.0078 -0.6186
   72CHL1    C6 6443   0.747   2.181   3.776  0.1575 -0.3207  0.1495
   72CHL1    H6 6444   0.677   2.106   3.738  2.2465 -1.9618 -0.6150
   72CHL1    C7 6445   0.744   2.199   3.921  0.4790 -0.7193  0.3877
   72CHL1   H7A 6446   0.636   2.214   3.946  0.2523 -0.7028 -0.5520
   72CHL1   H7B 6447   0.787   2.114   3.976 -1.0605 -1.6869  0.1480
   72CHL1    C8 6448   0.804   2.331   3.975  0.2507  0.2291 -0.7139
   72CHL1    H8 6449   0.731   2.411   3.953  1.8738  1.6229 -1.2296
   72CHL1   C14 6450   0.837   2.323   4.132  0.4429 -0.4011 -0.1068
   72CHL1   H14 6451   0.919   2.248   4.138  0.8527 -0.0026 -0.6236
   72CHL1   C15 6452   0.723   2.272   4.223 -0.7601  0.0758 -0.3088
   72CHL1  H15A 6453   0.633   2.326   4.185 -0.5366  0.3243 -0.4837
   72CHL1  H15B 6454   0.723   2.161   4.215 -1.0637 -0.1251  1.8002
   72CHL1   C16 6455   0.763   2.316   4.364 -0.9229 -0.3878  0.5841
   72CHL1  H16A 6456   0.686   2.387   4.400 -0.3689  1.1118 -1.0765
   72CHL1  H16B 6457   0.770   2.226   4.430  1.7232  1.1201  2.5613
   72CHL1   C17 6458   0.895   2.395   4.347 -0.2631  0.3148  0.6970
   72CHL1   H17 6459   0.973   2.318   4.366 -0.4347 -0.0925 -0.2145
   72CHL1   C13 6460   0.896   2.445   4.196 -0.2324 -0.3347  0.3474
   72CHL1   C18 6461   0.809   2.570   4.171 -0.6677 -0.1031  0.0867
   72CHL1  H18A 6462   0.708   2.559   4.216  0.0194  1.2260  2.0624
   72CHL1  H18B 6463   0.857   2.653   4.227  0.1562  0.0138 -0.7822
   72CHL1  H18C 6464   0.790   2.604   4.067 -1.0536 -1.7903 -0.4322
   72CHL1   C12 6465   1.031   2.461   4.126 -0.7886 -0.7462 -0.2169
   72CHL1  H12A 6466   1.081   2.553   4.162  0.5627 -0.3184 -2.9334
   72CHL1  H12B 6467   1.098   2.376   4.151  0.6574 -0.3535 -2.4228
   72CHL1   C11 6468   1.011   2.486   3.967 -0.5219 -0.4604  0.5444
   72CHL1  H11A 6469   0.950   2.577   3.951  0.6055  0.2762  0.3263
   72CHL1  H11B 6470   1.109   2.511   3.922 -0.9791  0.9440  0.2834
   72CHL1    C9 6471   0.936   2.370   3.904  0.1822  0.2777  0.0250
   72CHL1    H9 6472   1.001   2.281   3.919  1.7696  1.6637  1.8422
   72CHL1   C10 6473   0.921   2.374   3.751 -0.4397  0.7255 -0.1499
   72CHL1   C19 6474   0.853   2.505   3.710  0.0026 -0.6872  0.0641
   72CHL1  H19A 6475   0.746   2.504   3.736 -0.2557 -1.6755 -0.9345
   72CHL1  H19B 6476   0.906   2.590   3.758  0.0626  1.0200 -2.7599
   72CHL1  H19C 6477   0.862   2.527   3.601 -1.0068  1.3239  0.3554
   72CHL1    C1 6478   1.054   2.368   3.678 -0.2435 -0.2023 -0.3458
   72CHL1   H1A 6479   1.091   2.468   3.710  0.8976 -1.6292  3.2151
   72CHL1   H1B 6480   1.113   2.282   3.715 -0.5951 -0.9314 -1.4271
   72CHL1    C2 6481   1.052   2.344   3.530  0.4151 -0.3396 -0.0103
   72CHL1   H2A 6482   1.159   2.338   3.498  0.7319  3.2760 -0.0886
   72CHL1   H2B 6483   1.008   2.434   3.483  0.5342 -1.0928 -1.6373
   72CHL1   C20 6484   0.910   2.511   4.446  0.4508  0.2543  0.2648
   72CHL1   H20 6485   0.821   2.576   4.436 -0.3627 -0.8440  0.2473
   72CHL1   C21 6486   1.044   2.586   4.425  0.1791 -0.0975  0.8832
   72CHL1  H21A 6487   1.023   2.655   4.341 -2.0835 -4.8899 -2.9407
   72CHL1  H21B 6488   1.122   2.514   4.391 -1.5170 -2.0500  0.9242
   72CHL1  H21C 6489   1.071   2.656   4.508 -0.2969  2.4819 -1.0043
   72CHL1   C22 6490   0.899   2.451   4.584  0.3686 -0.6074 -0.0841
   72CHL1  H22A 6491   0.794   2.414   4.591 -0.2060  0.6371 -1.3729
   72CHL1  H22B 6492   0.972   2.370   4.602  0.4049 -0.9189 -1.5152
   72CHL1   C23 6493   0.897   2.546   4.708 -0.0799 -0.0007  0.2193
   72CHL1  H23A 6494   0.988   2.610   4.705 -0.1780  0.1548  0.5489
   72CHL1  H23B 6495   0.818   2.624   4.716 -1.6697 -1.4635 -0.4637
   72CHL1   C24 6496   0.892   2.456   4.834  0.1549 -0.4976  0.8782
   72CHL1  H24A 6497   0.791   2.410   4.845 -1.1220  2.1094  0.7626
   72CHL1  H24B 6498   0.979   2.387   4.832  0.5200 -0.0869 -2.0873
   72CHL1   C25 6499   0.907   2.536   4.964  0.2004 -0.6014 -0.3132
   72CHL1   H25 6500   0.999   2.598   4.964 -0.6734  0.8979  2.7011
   72CHL1   C26 6501   0.782   2.626   4.997  0.1931  0.8768 -0.6101
   72CHL1  H26A 6502   0.793   2.691   5.087  0.5255 -2.2148  1.7530
   72CHL1  H26B 6503   0.764   2.702   4.917  0.5703 -0.5605 -2.1122
   72CHL1  H26C 6504   0.691   2.568   5.023  1.3897 -0.6545  0.3040
   72CHL1   C27 6505   0.922   2.452   5.085 -0.6235 -0.4822 -0.4076
   72CHL1  H27A 6506   0.935   2.510   5.179  0.9772 -1.2798 -0.1064
   72CHL1  H27B 6507   0.832   2.388   5.098  0.9480 -2.2703  2.9395
   72CHL1  H27C 6508   1.005   2.379   5.080 -0.7018 -0.5090 -1.5825
   73CHL1    C3 6509   1.789   2.699   3.501 -0.3195  0.9685  1.0381
   73CHL1    H3 6510   1.760   2.595   3.524 -0.7164  0.2863 -2.0898
   73CHL1    O3 6511   1.757   2.743   3.370 -0.1183  0.1331  0.3321
   73CHL1   H3' 6512   1.811   2.821   3.358 -0.7860  0.7211  0.9878
   73CHL1    C4 6513   1.729   2.793   3.604 -0.2006 -0.3662 -1.1027
   73CHL1   H4A 6514   1.752   2.898   3.576  0.7252 -0.1361  0.4249
   73CHL1   H4B 6515   1.618   2.787   3.601 -0.7677  3.4530  2.9526
   73CHL1    C5 6516   1.777   2.760   3.745 -0.0180  0.4850  0.1511
   73CHL1    C6 6517   1.686   2.736   3.842 -0.4909  0.6756  0.0156
   73CHL1    H6 6518   1.580   2.732   3.814 -0.5633 -0.6550  0.4040
   73CHL1    C7 6519   1.735   2.724   3.984 -0.8018 -0.4528  0.1055
   73CHL1   H7A 6520   1.675   2.775   4.062  0.6042 -1.9230  2.2399
   73CHL1   H7B 6521   1.742   2.617   4.011 -0.7106 -0.1020  1.5208
   73CHL1    C8 6522   1.878   2.793   4.011 -0.4406  0.4946 -0.6862
   73CHL1    H8 6523   1.876   2.904   4.004 -0.7651  0.6037  0.7835
   73CHL1   C14 6524   1.921   2.752   4.150 -0.5534  0.5318  0.0828
   73CHL1   H14 6525   1.936   2.642   4.147  0.9056  0.7138 -1.5492
   73CHL1   C15 6526   1.827   2.781   4.270  0.6519  0.0730  0.2266
   73CHL1  H15A 6527   1.791   2.884   4.252  2.1233  0.3369 -1.4679
   73CHL1  H15B 6528   1.745   2.711   4.300  1.5938 -0.2824  2.1491
   73CHL1   C16 6529   1.921   2.772   4.395  0.1720  0.8658 -0.2066
   73CHL1  H16A 6530   1.899   2.859   4.460 -0.1113 -0.8863  2.1702
   73CHL1  H16B 6531   1.903   2.674   4.445  0.0321 -0.2881 -2.3838
   73CHL1   C17 6532   2.067   2.765   4.340  0.0966 -0.1678  0.5346
   73CHL1   H17 6533   2.076   2.655   4.327 -1.2547 -0.0472 -2.3996
   73CHL1   C13 6534   2.053   2.804   4.190 -1.0138 -0.7945  0.4906
   73CHL1   C18 6535   2.057   2.960   4.187 -0.4237  0.2352 -0.3388
   73CHL1  H18A 6536   1.977   3.002   4.252 -0.1526 -1.4551  1.1752
   73CHL1  H18B 6537   2.158   2.983   4.228  1.2690 -0.7142 -3.6560
   73CHL1  H18C 6538   2.053   3.001   4.084  1.2825  0.3045 -0.4043
   73CHL1   C12 6539   2.169   2.746   4.096 -0.0491 -0.5272 -0.4913
   73CHL1  H12A 6540   2.261   2.789   4.140 -0.0660 -1.1338  0.1380
   73CHL1  H12B 6541   2.180   2.638   4.117 -1.6077 -0.3476  1.5972
   73CHL1   C11 6542   2.132   2.773   3.952  0.3104  0.0193 -0.2838
   73CHL1  H11A 6543   2.155   2.880   3.937  0.8496 -0.0839 -0.2094
   73CHL1  H11B 6544   2.198   2.721   3.879  1.6194 -0.6215  1.2980
   73CHL1    C9 6545   1.980   2.742   3.916 -0.7528  0.4664 -0.0025
   73CHL1    H9 6546   1.969   2.631   3.920 -0.2783  0.3844 -0.6129
   73CHL1   C10 6547   1.930   2.769   3.769 -0.0678 -0.5022 -0.2567
   73CHL1   C19 6548   1.988   2.906   3.738  0.0922 -0.0534  0.7074
   73CHL1  H19A 6549   1.968   2.976   3.823  0.3858 -2.2531  2.6793
   73CHL1  H19B 6550   2.099   2.894   3.731  0.0065 -0.1267 -0.6114
   73CHL1  H19C 6551   1.951   2.951   3.644 -1.2139  2.1090  2.1447
   73CHL1    C1 6552   1.992   2.678   3.660 -0.5537  0.1808  0.7083
   73CHL1   H1A 6553   2.101   2.701   3.668 -0.9739  2.1717  1.4717
   73CHL1   H1B 6554   1.972   2.571   3.682 -2.1554  0.6644  1.7354
   73CHL1    C2 6555   1.943   2.706   3.511 -0.2007  0.3837 -0.4326
   73CHL1   H2A 6556   1.997   2.628   3.453  1.0453 -1.1729  2.5746
   73CHL1   H2B 6557   1.985   2.804   3.479 -0.4969  1.0098  1.0121
   73CHL1   C20 6558   2.178   2.816   4.432 -0.5094 -0.7328 -0.0225
   73CHL1   H20 6559   2.261   2.831   4.360 -0.8454 -0.5916 -0.3806
   73CHL1   C21 6560   2.213   2.714   4.537 -0.2911  0.5569 -0.5215
   73CHL1  H21A 6561   2.316   2.738   4.572  0.1460  0.5605 -1.7439
   73CHL1  H21B 6562   2.209   2.620   4.478 -1.6257  0.4112 -0.2121
   73CHL1  H21C 6563   2.133   2.706   4.613 -0.3938 -0.6926 -0.7526
   73CHL1   C22 6564   2.142   2.944   4.515  0.9284  0.4377  0.0783
   73CHL1  H22A 6565   2.083   3.012   4.451  0.0483 -0.9539 -0.6395
   73CHL1  H22B 6566   2.073   2.914   4.597  0.2663 -0.2929 -0.7325
   73CHL1   C23 6567   2.260   3.037   4.549  0.5040  0.5854  0.8736
   73CHL1  H23A 6568   2.344   2.988   4.604 -0.4520  1.7786  3.5693
   73CHL1  H23B 6569   2.308   3.057   4.451  0.6507  2.6232  1.3202
   73CHL1   C24 6570   2.237   3.157   4.643 -0.3135  0.3898 -0.5048
   73CHL1  H24A 6571   2.171   3.127   4.727  1.8775  0.2454  1.2542
   73CHL1  H24B 6572   2.338   3.180   4.682  0.0107 -0.9538 -0.5113
   73CHL1   C25 6573   2.176   3.279   4.575  0.1615  0.2314  0.2066
   73CHL1   H25 6574   2.096   3.237   4.511  0.4289  0.4192 -0.2582
   73CHL1   C26 6575   2.112   3.372   4.676 -0.6106 -1.6125 -0.0372
   73CHL1  H26A 6576   2.024   3.427   4.636 -0.3539 -1.0621  0.1330
   73CHL1  H26B 6577   2.069   3.315   4.761 -3.7088 -1.9373 -1.6701
   73CHL1  H26C 6578   2.174   3.458   4.710 -0.9732 -2.0160  1.7102
   73CHL1   C27 6579   2.272   3.347   4.479  0.0768 -0.4078 -0.0708
   73CHL1  H27A 6580   2.369   3.367   4.528 -0.0176 -0.7620  0.2589
   73CHL1  H27B 6581   2.296   3.285   4.390 -0.1575  0.2304 -0.5901
   73CHL1  H27C 6582   2.227   3.446   4.457 -0.1695  0.0297  2.2019
   74CHL1    C3 6583   1.911   1.320   3.554  0.4950  0.6473  0.1233
   74CHL1    H3 6584   1.918   1.431   3.556  3.7730  0.5659  2.6146
   74CHL1    O3 6585   1.934   1.276   3.424  0.5211  0.3559  0.2277
   74CHL1   H3' 6586   1.986   1.195   3.432  1.0361  0.6636  0.0719
   74CHL1    C4 6587   2.032   1.260   3.632 -0.4085  0.0708 -0.8576
   74CHL1   H4A 6588   2.043   1.152   3.613 -0.9807 -0.1382 -0.0585
   74CHL1   H4B 6589   2.123   1.305   3.587 -2.5920  1.8915 -3.8259
   74CHL1    C5 6590   2.024   1.284   3.777 -0.3132  0.2255 -0.4960
   74CHL1    C6 6591   2.126   1.357   3.835  0.0408  1.5905  0.0513
   74CHL1    H6 6592   2.206   1.397   3.770  1.0262 -0.6660 -0.1914
   74CHL1    C7 6593   2.130   1.376   3.982 -0.5940  0.9486  0.4659
   74CHL1   H7A 6594   2.230   1.361   4.026 -0.7265 -1.6279  0.0123
   74CHL1   H7B 6595   2.108   1.483   4.005 -0.1238  0.8383  1.4784
   74CHL1    C8 6596   2.035   1.280   4.058  0.3145 -0.4625  0.3225
   74CHL1    H8 6597   2.075   1.176   4.048  1.4140  0.1445 -2.5942
   74CHL1   C14 6598   2.027   1.323   4.200 -0.1943  0.4336 -0.4062
   74CHL1   H14 6599   1.984   1.425   4.196  1.0528  0.9864 -0.2796
   74CHL1   C15 6600   2.155   1.333   4.282  0.0916 -1.1032 -0.8115
   74CHL1  H15A 6601   2.235   1.256   4.277  1.2574 -0.3433  2.8903
   74CHL1  H15B 6602   2.201   1.434   4.274 -0.9278 -0.4424  0.9861
   74CHL1   C16 6603   2.112   1.326   4.424  0.5090 -0.2044 -0.2516
   74CHL1  H16A 6604   2.157   1.232   4.463  1.3374  0.1542 -0.3252
   74CHL1  H16B 6605   2.146   1.406   4.493  3.3907 -1.4152 -0.0881
   74CHL1   C17 6606   1.953   1.312   4.433  0.1172  0.2612  0.0828
   74CHL1   H17 6607   1.908   1.413   4.433 -2.5947 -0.8305 -0.7412
   74CHL1   C13 6608   1.925   1.244   4.290 -0.2441 -0.3319 -0.0190
   74CHL1   C18 6609   1.962   1.092   4.299 -0.2677 -0.3819  0.0875
   74CHL1  H18A 6610   2.066   1.090   4.336 -0.1627  0.1201 -0.1672
   74CHL1  H18B 6611   1.904   1.041   4.379  0.7210 -0.0125  1.0625
   74CHL1  H18C 6612   1.950   1.032   4.205  0.3769 -0.4574  0.0482
   74CHL1   C12 6613   1.789   1.269   4.228 -0.0564 -0.0710  0.3573
   74CHL1  H12A 6614   1.713   1.212   4.286  0.1017 -2.1425 -1.3253
   74CHL1  H12B 6615   1.763   1.376   4.239  0.7659  0.1214  0.4895
   74CHL1   C11 6616   1.777   1.226   4.082 -0.2765  0.1621 -0.3424
   74CHL1  H11A 6617   1.779   1.115   4.080 -0.1409  0.1648 -0.3167
   74CHL1  H11B 6618   1.682   1.267   4.040  0.4077  1.0392 -1.0788
   74CHL1    C9 6619   1.896   1.287   3.995  0.5878  0.3961  0.3418
   74CHL1    H9 6620   1.866   1.393   3.989 -1.2976 -0.0190  1.6518
   74CHL1   C10 6621   1.900   1.236   3.847 -0.4558  0.2351  0.1332
   74CHL1   C19 6622   1.909   1.076   3.851  0.1179 -0.1191  0.6796
   74CHL1  H19A 6623   1.810   1.027   3.866 -0.2005  0.3392  0.0981
   74CHL1  H19B 6624   1.949   1.034   3.756 -1.0163 -1.0722  0.5925
   74CHL1  H19C 6625   1.985   1.048   3.927  1.3085 -0.2502 -0.5187
   74CHL1    C1 6626   1.776   1.292   3.769  0.1095 -0.0359  0.5185
   74CHL1   H1A 6627   1.676   1.261   3.806 -0.7647  2.1856  0.1983
   74CHL1   H1B 6628   1.771   1.403   3.774 -5.4365 -0.0290  1.7271
   74CHL1    C2 6629   1.784   1.270   3.613  0.1177 -0.3049  0.2973
   74CHL1   H2A 6630   1.694   1.316   3.566 -0.7089 -0.8047  1.3600
   74CHL1   H2B 6631   1.771   1.160   3.603 -2.2817  0.0287 -1.1228
   74CHL1   C20 6632   1.906   1.243   4.560 -0.6373 -0.8842  0.3281
   74CHL1   H20 6633   1.956   1.143   4.557  1.0144 -0.1014  0.9057
   74CHL1   C21 6634   1.752   1.242   4.568 -0.5149 -0.2386  0.2827
   74CHL1  H21A 6635   1.726   1.165   4.492 -1.4347 -1.5924  1.8953
   74CHL1  H21B 6636   1.699   1.338   4.550  0.9872  0.3011 -1.6339
   74CHL1  H21C 6637   1.712   1.188   4.657  1.3799 -1.4952  0.4298
   74CHL1   C22 6638   1.958   1.315   4.688  0.8230  0.3530  0.5138
   74CHL1  H22A 6639   2.068   1.332   4.688  0.5890  2.2905  2.3021
   74CHL1  H22B 6640   1.920   1.420   4.682 -1.1681 -0.3963 -2.5574
   74CHL1   C23 6641   1.917   1.243   4.823  0.8830 -0.5158  0.8743
   74CHL1  H23A 6642   1.806   1.243   4.834  0.7308  2.4329  0.0072
   74CHL1  H23B 6643   1.949   1.137   4.812  0.9507 -0.4955  0.8789
   74CHL1   C24 6644   1.996   1.295   4.937 -0.0793  0.1360 -0.6595
   74CHL1  H24A 6645   2.104   1.282   4.918 -0.1355  0.1983 -1.0380
   74CHL1  H24B 6646   1.981   1.405   4.945  2.3188  0.4867 -0.4230
   74CHL1   C25 6647   1.942   1.248   5.069  0.3018  0.0345 -0.2107
   74CHL1   H25 6648   1.834   1.272   5.086  0.0781  0.0118 -1.5093
   74CHL1   C26 6649   1.948   1.093   5.078  0.3882  0.3915 -0.1630
   74CHL1  H26A 6650   2.052   1.060   5.055  1.0626  2.0222  0.4301
   74CHL1  H26B 6651   1.908   1.060   5.177 -1.2355 -0.7237 -1.1434
   74CHL1  H26C 6652   1.884   1.053   4.997 -0.7573 -2.0637  1.7840
   74CHL1   C27 6653   2.013   1.310   5.190  0.4011 -0.3740  0.4207
   74CHL1  H27A 6654   1.964   1.275   5.283 -0.6613 -1.7704 -0.6338
   74CHL1  H27B 6655   2.116   1.268   5.194  0.2183 -0.7679  1.1106
   74CHL1  H27C 6656   2.008   1.420   5.175 -0.1566 -0.6776 -2.0860
   75CHL1    C3 6657   0.896   0.449   3.411  0.2683 -0.0841  0.1051
   75CHL1    H3 6658   0.839   0.354   3.414  2.2434 -1.3224  2.3498
   75CHL1    O3 6659   0.908   0.508   3.276 -0.6212  0.0822 -0.3173
   75CHL1   H3' 6660   0.971   0.458   3.224  1.0812 -0.3477  2.0151
   75CHL1    C4 6661   0.830   0.560   3.503 -0.6043 -0.0916  0.1313
   75CHL1   H4A 6662   0.893   0.651   3.501 -1.1183  0.2620 -0.2699
   75CHL1   H4B 6663   0.732   0.583   3.457 -2.5780 -2.0693  3.0029
   75CHL1    C5 6664   0.826   0.518   3.645 -0.4407 -0.3970 -0.5226
   75CHL1    C6 6665   0.713   0.512   3.712  0.5910 -0.0605  0.1545
   75CHL1    H6 6666   0.616   0.536   3.666  0.7197  0.3183  0.0801
   75CHL1    C7 6667   0.700   0.467   3.860  0.0916  0.8620  0.3318
   75CHL1   H7A 6668   0.638   0.544   3.911  1.2918  1.8572  0.3352
   75CHL1   H7B 6669   0.648   0.370   3.872 -1.3493  1.2547 -2.1223
   75CHL1    C8 6670   0.838   0.456   3.934 -0.7887 -0.2660 -0.7067
   75CHL1    H8 6671   0.868   0.557   3.967  0.0249 -1.6311  3.3769
   75CHL1   C14 6672   0.824   0.373   4.057  0.5879 -0.1583  0.5822
   75CHL1   H14 6673   0.792   0.271   4.026 -0.0571 -0.3143  1.7450
   75CHL1   C15 6674   0.708   0.411   4.152  0.0735 -0.2176  0.4355
   75CHL1  H15A 6675   0.695   0.521   4.156  0.1330  0.0074 -2.7473
   75CHL1  H15B 6676   0.612   0.362   4.125  0.4416 -0.3795 -0.6218
   75CHL1   C16 6677   0.752   0.352   4.289 -0.3671 -0.5855  0.2862
   75CHL1  H16A 6678   0.754   0.437   4.360  3.1195 -0.0149 -0.3403
   75CHL1  H16B 6679   0.678   0.274   4.319  0.9430 -1.1581  2.2085
   75CHL1   C17 6680   0.890   0.285   4.267  0.2015  0.5833 -0.1970
   75CHL1   H17 6681   0.863   0.180   4.239 -1.0593  0.1708  2.2728
   75CHL1   C13 6682   0.953   0.350   4.141  0.4303 -0.7109  0.2757
   75CHL1   C18 6683   1.013   0.489   4.177  0.5126  0.3565  0.5177
   75CHL1  H18A 6684   1.043   0.544   4.086 -0.5996 -0.4234 -0.3584
   75CHL1  H18B 6685   0.938   0.555   4.225 -0.6866 -0.3119 -0.3654
   75CHL1  H18C 6686   1.101   0.487   4.244  1.3269  1.4436 -0.4864
   75CHL1   C12 6687   1.042   0.271   4.051 -0.2365  0.5222 -0.0138
   75CHL1  H12A 6688   1.140   0.246   4.097  0.0147  0.7622 -0.4055
   75CHL1  H12B 6689   0.991   0.174   4.035 -1.0121  0.7785  0.8393
   75CHL1   C11 6690   1.064   0.333   3.914 -0.0470  0.0139 -0.0688
   75CHL1  H11A 6691   1.132   0.419   3.931  1.4442 -1.7382  4.6211
   75CHL1  H11B 6692   1.116   0.255   3.855  0.1202 -1.1569  1.5620
   75CHL1    C9 6693   0.937   0.381   3.838  0.0219 -0.0567  0.1629
   75CHL1    H9 6694   0.882   0.288   3.813 -0.0845 -0.1352  0.6710
   75CHL1   C10 6695   0.962   0.459   3.706 -0.2794 -0.3506  0.5448
   75CHL1   C19 6696   1.066   0.574   3.731  0.3207  0.3021 -0.7676
   75CHL1  H19A 6697   1.028   0.637   3.814 -0.9000 -0.9189 -0.3688
   75CHL1  H19B 6698   1.164   0.524   3.745 -0.0471 -0.2988 -0.2694
   75CHL1  H19C 6699   1.071   0.642   3.643 -0.3934  2.3481  0.6891
   75CHL1    C1 6700   1.025   0.358   3.603 -0.0266 -0.0976 -0.3302
   75CHL1   H1A 6701   1.129   0.333   3.633 -0.0756  0.4189  0.3076
   75CHL1   H1B 6702   0.970   0.262   3.612  1.1787 -0.9954 -2.0787
   75CHL1    C2 6703   1.039   0.400   3.459  0.9050 -0.6027  0.0969
   75CHL1   H2A 6704   1.065   0.317   3.390 -1.9684  0.1986 -2.1491
   75CHL1   H2B 6705   1.107   0.486   3.447  0.2438  0.6433  3.9022
   75CHL1   C20 6706   0.977   0.274   4.393 -0.2818  0.4955 -0.1873
   75CHL1   H20 6707   0.991   0.377   4.434 -0.4722  0.9551 -1.2276
   75CHL1   C21 6708   1.124   0.227   4.367 -1.0950  0.5565  0.7021
   75CHL1  H21A 6709   1.186   0.300   4.311  0.3051 -1.2833 -0.2849
   75CHL1  H21B 6710   1.127   0.128   4.316  0.0784  0.9750 -0.1058
   75CHL1  H21C 6711   1.175   0.202   4.462  0.5661  2.0220  0.2463
   75CHL1   C22 6712   0.911   0.193   4.510 -0.6497  0.0650 -0.3906
   75CHL1  H22A 6713   0.808   0.230   4.528 -0.7489 -0.3916 -0.0109
   75CHL1  H22B 6714   0.898   0.087   4.479  2.2689 -0.7475  0.8171
   75CHL1   C23 6715   0.980   0.208   4.645  0.2036 -0.1297 -0.9111
   75CHL1  H23A 6716   1.080   0.161   4.648  0.6983  0.9285  1.0738
   75CHL1  H23B 6717   1.006   0.315   4.664  2.0204 -0.7805  0.4801
   75CHL1   C24 6718   0.902   0.139   4.756 -1.0695 -0.3809 -0.0346
   75CHL1  H24A 6719   0.795   0.166   4.758 -1.0543 -0.3107  2.6102
   75CHL1  H24B 6720   0.907   0.030   4.735  2.1386 -0.1716 -0.9649
   75CHL1   C25 6721   0.973   0.152   4.898  0.1596  0.2262  0.0533
   75CHL1   H25 6722   0.994   0.260   4.913 -3.5422  1.1861 -0.6322
   75CHL1   C26 6723   0.875   0.102   5.009 -0.0962 -0.2860  0.4035
   75CHL1  H26A 6724   0.845  -0.004   4.991  2.4820 -0.9763 -0.3856
   75CHL1  H26B 6725   0.914   0.104   5.113 -0.6168 -2.3270  0.6766
   75CHL1  H26C 6726   0.780   0.159   5.005  0.9281  1.4275 -1.4984
   75CHL1   C27 6727   1.105   0.080   4.898 -0.1418 -0.4318 -0.1665
   75CHL1  H27A 6728   1.083  -0.021   4.859  1.4966 -2.2337  3.1078
   75CHL1  H27B 6729   1.187   0.116   4.833  0.2749  0.8527  1.0036
   75CHL1  H27C 6730   1.139   0.062   5.003 -1.4421  0.3012  0.4007
   76CHL1    C3 6731   1.586   2.420   3.655 -0.1957  0.1008  0.5907
   76CHL1    H3 6732   1.617   2.526   3.670 -0.5498  0.3877 -0.6014
   76CHL1    O3 6733   1.592   2.381   3.521  0.3183 -0.4043  0.4659
   76CHL1   H3' 6734   1.685   2.366   3.507  0.4540  1.2037 -0.6117
   76CHL1    C4 6735   1.679   2.311   3.721 -0.5030  0.4069  0.3849
   76CHL1   H4A 6736   1.644   2.214   3.681  0.9699 -0.0490  0.1612
   76CHL1   H4B 6737   1.785   2.314   3.690 -0.3783  1.0165  0.8398
   76CHL1    C5 6738   1.672   2.322   3.870  0.3727 -0.0603  0.4348
   76CHL1    C6 6739   1.778   2.352   3.944 -0.0288 -0.1736 -0.0731
   76CHL1    H6 6740   1.878   2.363   3.900  0.8692 -1.2008  1.5924
   76CHL1    C7 6741   1.777   2.343   4.090 -0.0384 -0.0600  0.9009
   76CHL1   H7A 6742   1.867   2.290   4.128  0.1719  0.8263  1.6675
   76CHL1   H7B 6743   1.776   2.448   4.125  0.7807  0.1604  0.2925
   76CHL1    C8 6744   1.642   2.288   4.154  0.4944  0.2858 -0.0699
   76CHL1    H8 6745   1.631   2.178   4.140  1.6146  0.1672 -0.0805
   76CHL1   C14 6746   1.629   2.347   4.296 -0.3334 -0.1053  1.2904
   76CHL1   H14 6747   1.596   2.453   4.287  1.1905  0.4527  1.8719
   76CHL1   C15 6748   1.736   2.345   4.406 -0.1550 -0.1760 -0.5446
   76CHL1  H15A 6749   1.779   2.243   4.413  1.4185  0.3741 -1.6809
   76CHL1  H15B 6750   1.810   2.424   4.379 -0.8871  0.1848 -1.5619
   76CHL1   C16 6751   1.667   2.360   4.545 -0.4958  0.6590  0.1019
   76CHL1  H16A 6752   1.706   2.290   4.622 -0.9790 -0.6388 -0.8061
   76CHL1  H16B 6753   1.696   2.458   4.589  1.1510 -0.1195  0.8611
   76CHL1   C17 6754   1.511   2.347   4.511 -0.3613 -0.0174 -0.0985
   76CHL1   H17 6755   1.484   2.454   4.503 -0.5673  0.1377  2.0865
   76CHL1   C13 6756   1.504   2.286   4.363 -0.6351  0.6447  0.0555
   76CHL1   C18 6757   1.504   2.128   4.369  0.0029  0.5594  0.0467
   76CHL1  H18A 6758   1.416   2.099   4.430 -0.4197  0.7209 -0.4847
   76CHL1  H18B 6759   1.498   2.079   4.270 -1.7613 -1.4118  1.0560
   76CHL1  H18C 6760   1.598   2.108   4.424 -0.2041  2.5475  1.2531
   76CHL1   C12 6761   1.380   2.331   4.284  0.5258  0.2702 -0.1790
   76CHL1  H12A 6762   1.296   2.291   4.346  1.0580  1.8066  1.6197
   76CHL1  H12B 6763   1.372   2.441   4.285 -1.0429  0.2027  2.0955
   76CHL1   C11 6764   1.383   2.291   4.133  0.3788 -0.8472 -0.6021
   76CHL1  H11A 6765   1.357   2.183   4.130 -0.1587 -0.7958  1.2332
   76CHL1  H11B 6766   1.297   2.335   4.079  0.5119 -2.2161 -2.0230
   76CHL1    C9 6767   1.514   2.336   4.076  0.2554 -0.2492 -0.1272
   76CHL1    H9 6768   1.519   2.446   4.095 -1.2751 -0.6198  3.1471
   76CHL1   C10 6769   1.525   2.305   3.926 -0.4502 -0.2249  0.3749
   76CHL1   C19 6770   1.474   2.161   3.895 -0.1549 -0.1338  1.0481
   76CHL1  H19A 6771   1.489   2.143   3.786 -0.5312 -0.7503  1.0985
   76CHL1  H19B 6772   1.541   2.089   3.946  3.3205  0.9778 -1.5352
   76CHL1  H19C 6773   1.375   2.130   3.934  0.0915 -0.2202  1.6122
   76CHL1    C1 6774   1.428   2.400   3.855  1.2174 -0.4559  0.4706
   76CHL1   H1A 6775   1.321   2.373   3.868  1.1443  0.1484  1.1507
   76CHL1   H1B 6776   1.442   2.505   3.889 -1.6608  0.6830 -1.5187
   76CHL1    C2 6777   1.437   2.405   3.698  0.0683  0.4748 -0.4014
   76CHL1   H2A 6778   1.369   2.486   3.665  1.0035  0.8833 -1.3795
   76CHL1   H2B 6779   1.381   2.310   3.686 -1.3749  0.8063  2.5481
   76CHL1   C20 6780   1.412   2.294   4.614  0.6359 -0.0322 -0.9153
   76CHL1   H20 6781   1.311   2.271   4.574 -0.3802 -2.8302  2.7126
   76CHL1   C21 6782   1.402   2.416   4.712  0.1098  0.2544 -0.6537
   76CHL1  H21A 6783   1.506   2.452   4.727  0.0033  0.9925 -1.5419
   76CHL1  H21B 6784   1.361   2.391   4.812 -1.1467 -0.8513 -1.4060
   76CHL1  H21C 6785   1.349   2.501   4.664  0.4042 -0.4039 -2.2106
   76CHL1   C22 6786   1.454   2.167   4.700 -0.0000  0.0899  0.4192
   76CHL1  H22A 6787   1.482   2.082   4.634  2.2570  0.6166  0.6261
   76CHL1  H22B 6788   1.549   2.197   4.750  1.3085 -0.1456 -1.8150
   76CHL1   C23 6789   1.348   2.115   4.800  0.0197  0.2753 -0.2776
   76CHL1  H23A 6790   1.335   2.188   4.883 -2.6765 -0.7106  0.2492
   76CHL1  H23B 6791   1.253   2.123   4.743 -0.9698 -0.3934  1.2076
   76CHL1   C24 6792   1.370   1.974   4.849 -0.4363  0.4162 -0.5161
   76CHL1  H24A 6793   1.377   1.900   4.767 -2.0450 -0.5061  0.1301
   76CHL1  H24B 6794   1.465   1.991   4.906 -0.9499  1.4744  0.0625
   76CHL1   C25 6795   1.263   1.915   4.945 -0.3634 -1.0266 -1.2129
   76CHL1   H25 6796   1.165   1.918   4.893  0.1006  3.2886 -2.2073
   76CHL1   C26 6797   1.294   1.769   4.971 -0.2069 -0.3381  0.3745
   76CHL1  H26A 6798   1.392   1.772   5.023 -1.2842 -1.6391  2.6493
   76CHL1  H26B 6799   1.225   1.729   5.048  0.0487 -1.0347  0.2489
   76CHL1  H26C 6800   1.295   1.706   4.879  0.0449  1.4392 -0.8877
   76CHL1   C27 6801   1.248   1.997   5.080  0.0251  0.2559  0.3264
   76CHL1  H27A 6802   1.186   2.087   5.059 -0.7579 -0.2163  0.5548
   76CHL1  H27B 6803   1.195   1.934   5.155 -0.4864  2.1186  1.6067
   76CHL1  H27C 6804   1.347   2.033   5.115  0.2922 -0.3809  0.2458
   77SOPE     N 6805   5.781   6.899   7.121 -0.2252  0.4528 -0.1887
   77SOPE   HN1 6806   5.783   6.849   7.029  0.5704 -0.4382  0.2964
   77SOPE   HN2 6807   5.753   6.997   7.097 -0.7884 -0.2691 -2.8793
   77SOPE   HN3 6808   5.875   6.911   7.163 -1.2058  0.5097  2.1407
   77SOPE   C12 6809   5.671   6.842   7.212  0.3367 -0.1795  0.0768
   77SOPE  H12A 6810   5.665   6.903   7.305  0.0797  1.2422 -0.8427
   77SOPE  H12B 6811   5.702   6.737   7.230  0.5579 -0.2864 -0.8906
   77SOPE   C11 6812   5.535   6.838   7.123  0.5052 -0.6890 -0.3722
   77SOPE  H11A 6813   5.453   6.797   7.185  1.9212 -0.4525  1.7423
   77SOPE  H11B 6814   5.565   6.768   7.041  0.7458  0.2175 -1.0830
   77SOPE     P 6815   5.421   7.074   7.129  0.0272 -0.1061 -0.0849
   77SOPE   O13 6816   5.496   7.203   7.113 -0.0218  0.0296  0.5588
   77SOPE   O14 6817   5.389   7.045   7.270  0.0733  0.0239 -0.2398
   77SOPE   O12 6818   5.497   6.959   7.065  0.3999 -0.2341  0.2026
   77SOPE   O11 6819   5.292   7.078   7.046  0.1966 -0.7233 -0.4011
   77SOPE    C1 6820   5.237   6.955   6.987  0.4065  0.0430  0.0569
   77SOPE    HA 6821   5.128   6.973   6.976 -0.1618 -2.9192 -0.0260
   77SOPE    HB 6822   5.240   6.870   7.059  3.1090  0.4642  0.5282
   77SOPE    C2 6823   5.284   6.915   6.850  0.0527 -0.1718 -0.7592
   77SOPE    HS 6824   5.395   6.912   6.856  0.0968  2.0085  1.1169
   77SOPE   O21 6825   5.229   7.007   6.750  0.2187 -0.7923  0.0216
   77SOPE   C21 6826   5.314   7.094   6.697  0.2270 -0.9065 -0.7181
   77SOPE   O22 6827   5.429   7.106   6.739  1.0738  0.2674  0.1598
   77SOPE   C22 6828   5.256   7.157   6.575  0.7459  0.2134 -0.0590
   77SOPE   H2R 6829   5.152   7.193   6.586  1.2251  1.9514 -0.7819
   77SOPE   H2S 6830   5.260   7.081   6.494  2.2699 -0.6796  0.8075
   77SOPE    C3 6831   5.245   6.763   6.814 -0.1588 -0.0898  0.4221
   77SOPE    HX 6832   5.134   6.766   6.820 -0.5079  1.9893 -3.8071
   77SOPE    HY 6833   5.279   6.690   6.891  1.2198  1.1807  1.0754
   77SOPE   O31 6834   5.291   6.734   6.680 -0.3120 -1.0271  0.1650
   77SOPE   C31 6835   5.244   6.610   6.640 -0.8761 -0.1776 -0.3279
   77SOPE   O32 6836   5.183   6.539   6.711 -0.2572 -0.2406 -0.5506
   77SOPE   C32 6837   5.281   6.575   6.500  0.2594  0.0297  0.4725
   77SOPE   H2X 6838   5.255   6.469   6.479 -2.0593  0.5309  0.4938
   77SOPE   H2Y 6839   5.389   6.591   6.482  0.4023 -1.0869  0.2227
   77SOPE   C23 6840   5.361   7.264   6.532 -0.6369  0.2637 -0.2302
   77SOPE   H3R 6841   5.446   7.211   6.484 -1.5425 -1.7459  0.3116
   77SOPE   H3S 6842   5.395   7.325   6.619  0.7238  0.0485 -0.5893
   77SOPE   C24 6843   5.301   7.359   6.429 -0.2313 -0.5717 -0.4604
   77SOPE   H4R 6844   5.211   7.411   6.468  1.5073  1.7663  0.7212
   77SOPE   H4S 6845   5.381   7.436   6.423 -0.6099 -0.0798  0.4734
   77SOPE   C25 6846   5.276   7.293   6.291 -0.3654 -0.4587  0.0537
   77SOPE   H5R 6847   5.377   7.249   6.274 -0.5075 -0.3791 -1.0580
   77SOPE   H5S 6848   5.204   7.209   6.287 -2.4049  1.2437 -2.6868
   77SOPE   C26 6849   5.240   7.390   6.182 -0.0771  0.0150 -0.4235
   77SOPE   H6R 6850   5.166   7.464   6.220 -0.4998  0.3126 -1.7547
   77SOPE   H6S 6851   5.332   7.446   6.153  0.1642  0.3560  0.9286
   77SOPE   C27 6852   5.178   7.320   6.060 -0.7645 -0.2117 -0.5689
   77SOPE   H7R 6853   5.256   7.246   6.031 -0.7729 -0.8495  0.9497
   77SOPE   H7S 6854   5.088   7.262   6.090  0.3396 -1.7828 -0.1775
   77SOPE   C28 6855   5.160   7.412   5.946 -0.3198 -0.2705  0.1811
   77SOPE   H8R 6856   5.104   7.500   5.984 -1.7138 -1.2715  0.5406
   77SOPE   H8S 6857   5.256   7.449   5.906 -0.1598 -0.1407  0.6778
   77SOPE   C29 6858   5.092   7.344   5.828  0.3424  0.6002  0.2999
   77SOPE   H91 6859   4.989   7.312   5.846  0.2112 -0.1004 -1.5635
   77SOPE  C210 6860   5.142   7.329   5.702  0.0652  0.0374 -0.3268
   77SOPE  H101 6861   5.072   7.294   5.625 -1.1455 -0.5272  0.9720
   77SOPE  C211 6862   5.270   7.384   5.651  0.1708 -0.7334  1.0867
   77SOPE  H11R 6863   5.301   7.334   5.557 -2.5994  0.3381 -0.5440
   77SOPE  H11S 6864   5.346   7.381   5.731  1.7110  0.5629 -0.2550
   77SOPE  C212 6865   5.256   7.536   5.611  0.2551  0.1026  0.4240
   77SOPE  H12R 6866   5.351   7.573   5.566  0.5446 -3.8895 -2.8815
   77SOPE  H12S 6867   5.241   7.600   5.700 -2.2129 -0.2252  0.3049
   77SOPE  C213 6868   5.145   7.567   5.508 -0.1056  0.9127 -0.4718
   77SOPE  H13R 6869   5.046   7.560   5.557 -0.0433 -0.4152 -0.4869
   77SOPE  H13S 6870   5.160   7.499   5.421  1.9488  0.3480  0.2748
   77SOPE  C214 6871   5.171   7.699   5.446 -0.3362 -0.0213 -0.4708
   77SOPE  H14R 6872   5.277   7.708   5.412 -0.3452  0.4594 -0.3776
   77SOPE  H14S 6873   5.166   7.760   5.539 -0.9483 -0.6819 -0.0648
   77SOPE  C215 6874   5.081   7.741   5.332  0.8569 -0.0212  0.0082
   77SOPE  H15R 6875   5.101   7.848   5.309  1.7639 -0.0023  0.7871
   77SOPE  H15S 6876   4.979   7.717   5.369  1.7669  0.7973  3.3835
   77SOPE  C216 6877   5.099   7.668   5.198  0.8198  0.6476  0.3103
   77SOPE  H16R 6878   5.040   7.708   5.113 -1.2403  0.1322  1.4310
   77SOPE  H16S 6879   5.068   7.562   5.212 -2.2010  1.4513  0.3523
   77SOPE  C217 6880   5.239   7.679   5.143 -0.2448  0.6611 -0.2583
   77SOPE  H17R 6881   5.240   7.623   5.047  0.4132 -0.5461  0.4286
   77SOPE  H17S 6882   5.311   7.612   5.193 -0.4044 -0.7917 -1.8927
   77SOPE  C218 6883   5.283   7.822   5.117  1.0586 -0.4207  0.2165
   77SOPE  H18R 6884   5.364   7.824   5.041 -0.8779 -0.9318 -1.9944
   77SOPE  H18S 6885   5.325   7.846   5.217 -1.1233 -2.3742  1.7031
   77SOPE  H18T 6886   5.205   7.899   5.100  1.5265 -0.3111 -1.7340
   77SOPE   C33 6887   5.202   6.650   6.394  0.0164 -0.5173 -0.3246
   77SOPE   H3X 6888   5.093   6.657   6.414 -0.1295  0.7676 -1.4011
   77SOPE   H3Y 6889   5.204   6.588   6.302  0.1372 -0.4883 -0.3418
   77SOPE   C34 6890   5.263   6.789   6.373  0.4258 -0.4698 -0.1506
   77SOPE   H4X 6891   5.369   6.772   6.344  1.0290  1.2768  0.9281
   77SOPE   H4Y 6892   5.254   6.846   6.468 -2.1984  0.5559 -0.9191
   77SOPE   C35 6893   5.200   6.887   6.270 -0.1356  1.3196 -0.3312
   77SOPE   H5X 6894   5.240   6.990   6.262 -2.5955  2.3443 -0.6210
   77SOPE   H5Y 6895   5.095   6.906   6.303 -1.2544 -0.1603 -2.6753
   77SOPE   C36 6896   5.198   6.824   6.125  0.7189  0.4542  0.1951
   77SOPE   H6X 6897   5.167   6.717   6.127 -0.6515  0.7360 -2.3114
   77SOPE   H6Y 6898   5.305   6.834   6.097  1.0879  0.4016  1.5333
   77SOPE   C37 6899   5.103   6.893   6.024  0.0218  1.0051  0.0854
   77SOPE   H7X 6900   5.114   7.003   6.011 -2.2553  1.1168 -1.3406
   77SOPE   H7Y 6901   5.003   6.874   6.069  0.1455  1.1849  0.4387
   77SOPE   C38 6902   5.129   6.827   5.883  0.4663 -0.1055 -0.0978
   77SOPE   H8X 6903   5.088   6.723   5.885  1.2758 -0.4961  3.8959
   77SOPE   H8Y 6904   5.238   6.823   5.864  0.4390 -2.1673 -0.0251
   77SOPE   C39 6905   5.069   6.922   5.775 -0.2429  0.1644  0.4694
   77SOPE   H9X 6906   5.117   7.022   5.780 -1.8514  0.9277  2.3104
   77SOPE   H9Y 6907   4.963   6.941   5.805 -0.3097  2.0133 -0.7865
   77SOPE  C310 6908   5.084   6.853   5.637 -0.1495 -0.6834  1.0507
   77SOPE  H10X 6909   5.041   6.751   5.639 -0.4787 -0.5471  1.0443
   77SOPE  H10Y 6910   5.190   6.838   5.611 -0.6233 -1.0265 -0.8537
   77SOPE  C311 6911   5.009   6.944   5.528  1.1175  0.5591 -0.2816
   77SOPE  H11X 6912   5.040   7.044   5.565  2.1870 -0.0294  0.4671
   77SOPE  H11Y 6913   4.899   6.942   5.539  1.2938  0.9524  2.1366
   77SOPE  C312 6914   5.039   6.925   5.377  0.3954 -0.4434  0.3509
   77SOPE  H12X 6915   5.144   6.954   5.353  0.7108 -1.4129  0.4958
   77SOPE  H12Y 6916   4.972   6.974   5.304 -0.4927 -3.6723 -1.1820
   77SOPE  C313 6917   5.032   6.775   5.338 -0.0803  0.0953  0.6783
   77SOPE  H13X 6918   4.943   6.730   5.386  0.2759 -0.0001  1.2637
   77SOPE  H13Y 6919   5.127   6.729   5.374  0.8777  0.7888 -0.8325
   77SOPE  C314 6920   5.012   6.771   5.188  0.2287  0.2252  0.6640
   77SOPE  H14X 6921   5.093   6.822   5.132 -0.2435 -0.5393 -0.7884
   77SOPE  H14Y 6922   4.915   6.824   5.175  1.3015  2.2577  0.6480
   77SOPE  C315 6923   5.006   6.632   5.126  0.0369  0.9026  0.5615
   77SOPE  H15X 6924   4.926   6.577   5.181 -0.6995  2.1254  0.7634
   77SOPE  H15Y 6925   5.105   6.586   5.147 -0.9677 -1.2142  0.9605
   77SOPE  C316 6926   4.982   6.633   4.969  0.7388 -0.0389  0.4444
   77SOPE  H16X 6927   5.055   6.703   4.922 -0.7870  1.7840  0.6847
   77SOPE  H16Y 6928   4.888   6.691   4.956  1.5521  1.7074  1.8909
   77SOPE  C317 6929   5.011   6.490   4.908  0.2903 -0.1562  1.0075
   77SOPE  H17X 6930   4.945   6.408   4.942 -0.3386 -0.9168 -1.7431
   77SOPE  H17Y 6931   5.117   6.465   4.932  0.1646 -1.0207  0.7153
   77SOPE  C318 6932   5.012   6.477   4.754  0.4787 -0.6084 -0.7302
   77SOPE  H18X 6933   5.093   6.412   4.714  0.0974 -1.0938 -0.7294
   77SOPE  H18Y 6934   5.022   6.573   4.699 -0.3366  0.1258  0.3649
   77SOPE  H18Z 6935   4.913   6.436   4.726  0.3472 -1.7903  1.2455
   78SOPE     N 6936   5.561   4.346   7.443  0.3205 -0.2650 -0.0441
   78SOPE   HN1 6937   5.577   4.281   7.363 -1.5082 -3.2407  1.7807
   78SOPE   HN2 6938   5.542   4.447   7.427 -0.3516 -0.3111  0.4048
   78SOPE   HN3 6939   5.647   4.346   7.501  1.3919  2.1983 -1.4910
   78SOPE   C12 6940   5.444   4.297   7.515  0.9085 -0.3076 -0.0105
   78SOPE  H12A 6941   5.438   4.352   7.612  0.5524 -1.4093  0.6083
   78SOPE  H12B 6942   5.466   4.191   7.539  1.0360 -0.5165 -1.0274
   78SOPE   C11 6943   5.321   4.298   7.424 -0.2264 -0.0538 -0.5580
   78SOPE  H11A 6944   5.283   4.401   7.405 -2.5086 -0.6355  0.5344
   78SOPE  H11B 6945   5.239   4.255   7.485 -0.0872 -2.7014 -2.1089
   78SOPE     P 6946   5.208   4.209   7.206 -0.0859  0.3241 -0.2358
   78SOPE   O13 6947   5.079   4.186   7.276 -0.1349  0.1887 -0.6267
   78SOPE   O14 6948   5.247   4.098   7.117 -0.0043  0.1813  0.5659
   78SOPE   O12 6949   5.324   4.218   7.307  0.0223  0.5098 -0.2290
   78SOPE   O11 6950   5.228   4.352   7.137 -0.4391  0.5029 -0.3482
   78SOPE    C1 6951   5.343   4.374   7.052  0.2574  0.2736  0.1015
   78SOPE    HA 6952   5.429   4.304   7.059 -1.5094 -2.2746 -1.7295
   78SOPE    HB 6953   5.380   4.470   7.093 -1.0682  0.8609 -0.0426
   78SOPE    C2 6954   5.302   4.393   6.905  0.6093  0.2107 -0.3308
   78SOPE    HS 6955   5.208   4.451   6.904  0.9546  0.9418  2.1576
   78SOPE   O21 6956   5.275   4.258   6.846 -0.8449  0.0014  0.1681
   78SOPE   C21 6957   5.379   4.179   6.825  0.2992  0.4226 -0.1155
   78SOPE   O22 6958   5.496   4.209   6.845  0.5449  0.5267  0.3658
   78SOPE   C22 6959   5.343   4.048   6.764  0.3545 -0.0041  1.1123
   78SOPE   H2R 6960   5.237   4.040   6.732 -0.5083  0.1445  3.7405
   78SOPE   H2S 6961   5.360   3.971   6.842 -0.7880  0.5376  1.9241
   78SOPE    C3 6962   5.408   4.467   6.822 -0.1344  0.1108 -0.3057
   78SOPE    HX 6963   5.511   4.430   6.840 -0.2887 -1.3971 -2.2770
   78SOPE    HY 6964   5.421   4.572   6.857  0.8269 -0.9516  2.8966
   78SOPE   O31 6965   5.376   4.457   6.679  0.1383 -0.0873 -0.3359
   78SOPE   C31 6966   5.302   4.560   6.623 -0.5359 -0.5321 -0.5218
   78SOPE   O32 6967   5.267   4.660   6.683  0.0323 -0.3768  0.6079
   78SOPE   C32 6968   5.266   4.514   6.480  0.5218 -0.4098  0.0469
   78SOPE   H2X 6969   5.160   4.485   6.468  0.7618 -0.2058 -3.9966
   78SOPE   H2Y 6970   5.324   4.429   6.439  0.6313 -0.4848  0.3551
   78SOPE   C23 6971   5.431   4.017   6.642  0.5209 -0.1362 -0.0660
   78SOPE   H3R 6972   5.396   3.918   6.604 -1.6791  0.1238  1.1192
   78SOPE   H3S 6973   5.538   4.005   6.668  0.7572  3.2964  1.0326
   78SOPE   C24 6974   5.416   4.120   6.527  0.6040  0.4760 -1.1718
   78SOPE   H4R 6975   5.307   4.140   6.515  0.3059 -1.0545 -1.1757
   78SOPE   H4S 6976   5.456   4.221   6.549  1.0378 -0.0429  0.5760
   78SOPE   C25 6977   5.474   4.069   6.399  0.8791  0.5591 -0.1370
   78SOPE   H5R 6978   5.582   4.097   6.399  1.4981 -1.5767  1.0970
   78SOPE   H5S 6979   5.466   3.958   6.389  1.1662  0.4906  0.3258
   78SOPE   C26 6980   5.406   4.125   6.280  0.5983  0.3842  0.4487
   78SOPE   H6R 6981   5.312   4.066   6.268 -0.0889  1.7636 -1.4185
   78SOPE   H6S 6982   5.374   4.232   6.288 -1.5608 -0.0210 -1.5486
   78SOPE   C27 6983   5.499   4.111   6.155 -0.2733  0.0864  0.0360
   78SOPE   H7R 6984   5.590   4.174   6.155 -0.3120  0.3716 -3.6798
   78SOPE   H7S 6985   5.535   4.006   6.167 -1.6142 -0.3778  0.1787
   78SOPE   C28 6986   5.417   4.142   6.028  0.6341 -0.4079 -0.2027
   78SOPE   H8R 6987   5.315   4.100   6.038  0.6069  0.1166  2.6152
   78SOPE   H8S 6988   5.407   4.253   6.030  2.6782 -0.1612 -0.8648
   78SOPE   C29 6989   5.481   4.113   5.901 -0.3740 -0.2605  0.5677
   78SOPE   H91 6990   5.589   4.104   5.913 -0.4378  0.8998  2.3856
   78SOPE  C210 6991   5.410   4.069   5.792 -1.0157 -0.7276  0.2303
   78SOPE  H101 6992   5.467   4.029   5.707 -1.2181 -1.6762  0.5257
   78SOPE  C211 6993   5.266   4.099   5.775  0.2578 -0.0566  0.2824
   78SOPE  H11R 6994   5.220   4.165   5.851 -2.0471 -2.5101  1.1683
   78SOPE  H11S 6995   5.207   4.006   5.789  0.2919 -0.5339 -2.2560
   78SOPE  C212 6996   5.240   4.156   5.631 -0.7294 -0.2898 -0.4865
   78SOPE  H12R 6997   5.249   4.073   5.558 -0.7364 -0.7454  0.0291
   78SOPE  H12S 6998   5.318   4.230   5.602 -0.1488 -1.5761 -2.3685
   78SOPE  C213 6999   5.102   4.220   5.613 -0.0492 -0.4084 -0.3174
   78SOPE  H13R 7000   5.080   4.307   5.679  0.6934 -0.9760  0.7066
   78SOPE  H13S 7001   5.022   4.149   5.647 -0.2748 -0.9033 -1.8129
   78SOPE  C214 7002   5.069   4.262   5.472 -0.3833  0.0106 -0.1900
   78SOPE  H14R 7003   5.111   4.180   5.410  0.5807 -1.0469  1.7722
   78SOPE  H14S 7004   5.118   4.353   5.433  2.1373 -0.5922  1.3639
   78SOPE  C215 7005   4.925   4.250   5.433  0.0570  0.1557 -0.0311
   78SOPE  H15R 7006   4.873   4.313   5.507  1.0841  1.2932 -0.2405
   78SOPE  H15S 7007   4.894   4.144   5.442  1.5943 -0.6213 -2.6041
   78SOPE  C216 7008   4.895   4.301   5.298  0.2690  0.0076  0.0894
   78SOPE  H16R 7009   4.930   4.406   5.286  0.7106  0.0683  1.6652
   78SOPE  H16S 7010   4.787   4.295   5.273  0.5666 -2.1087 -0.9789
   78SOPE  C217 7011   4.956   4.220   5.181  0.7690 -0.0990  0.4033
   78SOPE  H17R 7012   4.957   4.112   5.207 -0.1946 -0.2053  0.0316
   78SOPE  H17S 7013   5.064   4.244   5.167  1.0566 -0.1409  2.3025
   78SOPE  C218 7014   4.869   4.233   5.054 -0.4008  0.7615  0.3062
   78SOPE  H18R 7015   4.900   4.158   4.978  0.5210 -0.7325  2.0862
   78SOPE  H18S 7016   4.867   4.341   5.029 -2.6167  0.7168  0.0786
   78SOPE  H18T 7017   4.764   4.200   5.070 -0.7195  1.0781 -0.9999
   78SOPE   C33 7018   5.294   4.611   6.355  0.6203 -0.2507 -0.2063
   78SOPE   H3X 7019   5.398   4.650   6.357 -0.5467  3.5143 -2.6470
   78SOPE   H3Y 7020   5.221   4.694   6.368 -1.3130 -2.0403  0.9735
   78SOPE   C34 7021   5.261   4.531   6.224  0.6222 -0.1880  0.3079
   78SOPE   H4X 7022   5.164   4.478   6.214  0.8420 -0.2718 -1.7616
   78SOPE   H4Y 7023   5.333   4.447   6.227  0.6692 -0.1973 -0.8664
   78SOPE   C35 7024   5.297   4.623   6.103 -0.0558 -0.7318  0.2262
   78SOPE   H5X 7025   5.407   4.632   6.100 -0.0458 -1.0984 -1.4734
   78SOPE   H5Y 7026   5.253   4.724   6.119  0.1383 -0.9128  2.0235
   78SOPE   C36 7027   5.256   4.562   5.966  0.1325  0.1551  0.3642
   78SOPE   H6X 7028   5.146   4.564   5.947  0.0459 -0.8960  0.7100
   78SOPE   H6Y 7029   5.266   4.453   5.986  0.0463  0.4408  2.0794
   78SOPE   C37 7030   5.330   4.611   5.845 -0.1354  0.2370 -0.0850
   78SOPE   H7X 7031   5.438   4.606   5.870 -0.0952 -1.3379 -0.5272
   78SOPE   H7Y 7032   5.298   4.718   5.839  0.0579  0.4493  1.9658
   78SOPE   C38 7033   5.328   4.525   5.717  0.4874  0.1508  0.1214
   78SOPE   H8X 7034   5.224   4.495   5.691  0.6971  0.0857 -0.6539
   78SOPE   H8Y 7035   5.372   4.428   5.749  1.4999  0.7269  0.5261
   78SOPE   C39 7036   5.400   4.580   5.600 -0.3638 -0.3899  0.5196
   78SOPE   H9X 7037   5.416   4.505   5.519  1.7903 -1.1197  1.5217
   78SOPE   H9Y 7038   5.505   4.599   5.631  0.3695 -1.9642 -0.8476
   78SOPE  C310 7039   5.324   4.696   5.528 -0.1486  1.0742 -0.2666
   78SOPE  H10X 7040   5.298   4.769   5.607  1.8644  1.7378 -0.1454
   78SOPE  H10Y 7041   5.230   4.666   5.477  0.2586  1.7333 -1.4408
   78SOPE  C311 7042   5.414   4.772   5.424 -0.4372  0.0791 -0.7229
   78SOPE  H11X 7043   5.359   4.847   5.362 -1.0784 -2.0374 -2.9013
   78SOPE  H11Y 7044   5.475   4.709   5.356  3.2780  0.9405  1.5410
   78SOPE  C312 7045   5.518   4.861   5.498 -0.6491 -0.3846  0.1089
   78SOPE  H12X 7046   5.571   4.791   5.566  2.1861  1.7484  0.2584
   78SOPE  H12Y 7047   5.478   4.931   5.575  0.7791  1.0679 -0.4148
   78SOPE  C313 7048   5.627   4.931   5.416  0.3463  0.1572 -0.9045
   78SOPE  H13X 7049   5.575   5.015   5.365  2.3445  2.3455  0.4790
   78SOPE  H13Y 7050   5.671   4.873   5.332  0.0241 -1.7661  0.1905
   78SOPE  C314 7051   5.734   4.996   5.509  0.4053 -0.1649  1.1718
   78SOPE  H14X 7052   5.782   4.919   5.574 -2.5503 -0.7919  2.8092
   78SOPE  H14Y 7053   5.679   5.075   5.564 -0.9160  0.1100 -0.4329
   78SOPE  C315 7054   5.838   5.065   5.423  0.5029  0.2736  0.3371
   78SOPE  H15X 7055   5.796   5.150   5.366 -0.7178 -0.4803  0.0731
   78SOPE  H15Y 7056   5.887   5.005   5.344 -1.2373  2.0868 -2.2569
   78SOPE  C316 7057   5.946   5.116   5.519 -0.8753 -0.1171  0.5853
   78SOPE  H16X 7058   5.971   5.044   5.599 -2.7580  0.5892  1.8938
   78SOPE  H16Y 7059   5.912   5.209   5.570 -2.7386  0.3862 -1.3888
   78SOPE  C317 7060   6.066   5.154   5.436 -0.3556 -0.0054  0.9416
   78SOPE  H17X 7061   6.024   5.226   5.362  0.0290  0.9730  1.6452
   78SOPE  H17Y 7062   6.100   5.069   5.373 -0.5575 -1.2976  2.5258
   78SOPE  C318 7063   6.180   5.228   5.495  0.1025 -0.7647  0.2276
   78SOPE  H18X 7064   6.251   5.265   5.418 -1.0534  4.0543  1.1809
   78SOPE  H18Y 7065   6.239   5.164   5.565  0.5659 -0.0990  0.4551
   78SOPE  H18Z 7066   6.128   5.313   5.545 -2.1427 -0.8993 -1.7215
   79SOPE     N 7067   0.545   3.446   7.561  0.0672  0.0097  1.0239
   79SOPE   HN1 7068   0.446   3.419   7.579  0.1227 -1.2515 -0.3225
   79SOPE   HN2 7069   0.585   3.418   7.653  1.2680 -0.6837  0.3230
   79SOPE   HN3 7070   0.550   3.549   7.554  0.3677 -0.0005  1.0669
   79SOPE   C12 7071   0.617   3.382   7.443  0.2178 -0.5947  0.5156
   79SOPE  H12A 7072   0.659   3.286   7.478 -0.3059 -2.3861 -3.2839
   79SOPE  H12B 7073   0.705   3.447   7.425  0.3395 -0.4403  1.5918
   79SOPE   C11 7074   0.532   3.373   7.314 -0.4558 -0.2322 -0.5626
   79SOPE  H11A 7075   0.598   3.376   7.225  0.3401  2.4809  0.0071
   79SOPE  H11B 7076   0.485   3.474   7.309 -0.2797 -0.1359 -0.2830
   79SOPE     P 7077   0.286   3.288   7.285 -0.1070  0.2007 -0.0256
   79SOPE   O13 7078   0.259   3.396   7.381  0.4422 -0.3637  0.8944
   79SOPE   O14 7079   0.209   3.163   7.299 -0.4623  0.1352 -0.0512
   79SOPE   O12 7080   0.441   3.260   7.303 -0.0032  0.0773  0.6413
   79SOPE   O11 7081   0.272   3.344   7.141  0.0818 -0.3067  0.3430
   79SOPE    C1 7082   0.339   3.276   7.029  0.6132 -0.1123  0.0097
   79SOPE    HA 7083   0.318   3.168   7.038  0.2855  0.0551  1.4825
   79SOPE    HB 7084   0.449   3.293   7.026  0.6459 -0.0537  1.1851
   79SOPE    C2 7085   0.278   3.314   6.895  0.2506 -0.2427 -0.0476
   79SOPE    HS 7086   0.345   3.267   6.820  1.2020  0.8525  0.0801
   79SOPE   O21 7087   0.262   3.455   6.880 -0.0275  0.3115  0.1056
   79SOPE   C21 7088   0.367   3.524   6.848 -0.8066 -0.9661  0.3810
   79SOPE   O22 7089   0.477   3.474   6.818  0.0953 -0.0253  0.1474
   79SOPE   C22 7090   0.346   3.672   6.866 -0.2096 -1.2805  0.0187
   79SOPE   H2R 7091   0.305   3.694   6.967 -0.9904  0.4580 -0.6251
   79SOPE   H2S 7092   0.270   3.695   6.788  1.3091 -1.3226 -1.5520
   79SOPE    C3 7093   0.143   3.254   6.876  0.0367 -0.6088  0.8159
   79SOPE    HX 7094   0.077   3.305   6.950 -0.1175 -0.6912  0.7343
   79SOPE    HY 7095   0.128   3.148   6.904  0.5879 -0.6506  0.9624
   79SOPE   O31 7096   0.091   3.277   6.739 -0.5970 -0.7694 -0.1894
   79SOPE   C31 7097  -0.033   3.255   6.724 -0.2763  0.4485  0.2261
   79SOPE   O32 7098  -0.108   3.198   6.805  0.1405  0.1897 -0.1539
   79SOPE   C32 7099  -0.083   3.303   6.587 -0.1622  0.1935 -0.8141
   79SOPE   H2X 7100  -0.191   3.278   6.581 -0.4132 -0.0344  2.6275
   79SOPE   H2Y 7101  -0.034   3.243   6.507  0.0053 -0.9095  0.0902
   79SOPE   C23 7102   0.482   3.743   6.853 -0.3550 -0.0016  0.3569
   79SOPE   H3R 7103   0.519   3.733   6.749 -1.4512 -0.5834  0.0027
   79SOPE   H3S 7104   0.555   3.698   6.924 -2.4870 -2.5287  1.1026
   79SOPE   C24 7105   0.468   3.891   6.893 -0.2443  0.5885 -0.5306
   79SOPE   H4R 7106   0.373   3.933   6.853 -1.5767  0.2539  2.0739
   79SOPE   H4S 7107   0.466   3.898   7.004  0.1545 -2.4543 -0.2568
   79SOPE   C25 7108   0.588   3.990   6.849 -0.3057 -0.0425  0.0327
   79SOPE   H5R 7109   0.585   4.069   6.927 -1.2738 -0.1929  0.1595
   79SOPE   H5S 7110   0.682   3.932   6.865 -0.0644  0.7757  1.8614
   79SOPE   C26 7111   0.575   4.031   6.698 -0.0335  0.0429 -1.0538
   79SOPE   H6R 7112   0.586   3.937   6.640  0.1446 -0.4167 -0.2891
   79SOPE   H6S 7113   0.470   4.063   6.679 -0.1495  0.0660 -0.3772
   79SOPE   C27 7114   0.688   4.124   6.677 -0.4574 -0.2133  0.2531
   79SOPE   H7R 7115   0.666   4.220   6.727  2.0494  0.1849  0.7043
   79SOPE   H7S 7116   0.783   4.096   6.727  1.2237  0.4603 -2.3513
   79SOPE   C28 7117   0.724   4.150   6.526  0.1622  0.1586 -0.0571
   79SOPE   H8R 7118   0.796   4.234   6.518 -1.7495  1.8441 -0.5151
   79SOPE   H8S 7119   0.771   4.058   6.485  0.9462 -1.1263  3.4284
   79SOPE   C29 7120   0.604   4.190   6.439  0.5078  0.5072  0.4379
   79SOPE   H91 7121   0.519   4.120   6.436 -0.0238  1.1604  0.0975
   79SOPE  C210 7122   0.598   4.307   6.369 -0.6193 -0.8805 -1.0463
   79SOPE  H101 7123   0.513   4.329   6.302  0.1904 -0.8977 -2.0999
   79SOPE  C211 7124   0.715   4.406   6.360  0.1787  0.1036 -0.1581
   79SOPE  H11R 7125   0.708   4.456   6.260 -1.8472 -0.3440 -0.2916
   79SOPE  H11S 7126   0.809   4.353   6.383 -0.5517 -0.2203  2.3345
   79SOPE  C212 7127   0.700   4.530   6.457  0.2458 -0.6328 -0.0418
   79SOPE  H12R 7128   0.789   4.596   6.447 -1.2459  1.8547  1.9512
   79SOPE  H12S 7129   0.695   4.501   6.564 -0.0425  4.1744  1.4655
   79SOPE  C213 7130   0.577   4.616   6.428  0.4451 -0.5195 -0.2101
   79SOPE  H13R 7131   0.560   4.687   6.512  0.5676  1.8777 -2.1215
   79SOPE  H13S 7132   0.485   4.555   6.417  1.9225 -2.6325 -1.6369
   79SOPE  C214 7133   0.588   4.714   6.312 -0.2671  0.3152  0.2697
   79SOPE  H14R 7134   0.576   4.659   6.217  0.3592  2.0991 -0.8916
   79SOPE  H14S 7135   0.689   4.760   6.309 -0.0590 -0.0301  1.4149
   79SOPE  C215 7136   0.497   4.830   6.330  0.5538  0.1524  0.0106
   79SOPE  H15R 7137   0.485   4.867   6.226  0.6034 -2.2032 -0.9039
   79SOPE  H15S 7138   0.527   4.913   6.397  0.1407  0.0606  0.3134
   79SOPE  C216 7139   0.356   4.781   6.353  1.0054 -0.6051 -0.3096
   79SOPE  H16R 7140   0.343   4.742   6.456 -2.7695 -1.4143 -0.9232
   79SOPE  H16S 7141   0.319   4.699   6.287 -1.9389  0.0559  0.3463
   79SOPE  C217 7142   0.249   4.886   6.341  0.6888 -0.8294 -0.3512
   79SOPE  H17R 7143   0.231   4.921   6.237  1.5248 -1.5319 -0.7463
   79SOPE  H17S 7144   0.281   4.973   6.403 -0.4451  0.3957 -1.4237
   79SOPE  C218 7145   0.115   4.837   6.396  0.1991 -0.2037 -0.0187
   79SOPE  H18R 7146   0.026   4.895   6.362 -0.1533  0.3476  1.7544
   79SOPE  H18S 7147   0.118   4.843   6.507 -2.7080  3.1519  0.0526
   79SOPE  H18T 7148   0.100   4.731   6.365 -0.0798  0.2353 -1.4407
   79SOPE   C33 7149  -0.061   3.451   6.573 -0.0763  0.3823 -0.8681
   79SOPE   H3X 7150   0.038   3.482   6.612 -1.0413 -0.0660  2.1780
   79SOPE   H3Y 7151  -0.140   3.508   6.627  0.0642  1.5673 -1.8682
   79SOPE   C34 7152  -0.053   3.497   6.425  0.4379 -0.7644 -0.8072
   79SOPE   H4X 7153  -0.080   3.604   6.415  1.6079 -0.2982  0.6939
   79SOPE   H4Y 7154  -0.125   3.443   6.360 -0.1364  0.9191 -1.6206
   79SOPE   C35 7155   0.096   3.489   6.367  0.3270  1.0943  0.2841
   79SOPE   H5X 7156   0.133   3.390   6.402  0.6375  1.1065 -0.0081
   79SOPE   H5Y 7157   0.168   3.565   6.405  0.3873  0.0708  2.4326
   79SOPE   C36 7158   0.111   3.491   6.215 -0.2193 -0.0141 -0.3325
   79SOPE   H6X 7159   0.068   3.585   6.175 -0.1686  0.2933  0.3077
   79SOPE   H6Y 7160   0.046   3.411   6.173 -1.7776  1.3567 -0.6414
   79SOPE   C37 7161   0.255   3.473   6.165  0.1211  0.8691 -0.6133
   79SOPE   H7X 7162   0.307   3.396   6.225 -1.4890  0.5110  0.3994
   79SOPE   H7Y 7163   0.306   3.570   6.181 -0.4455  1.1228 -0.2750
   79SOPE   C38 7164   0.267   3.441   6.017  0.3580 -0.5084  0.2353
   79SOPE   H8X 7165   0.223   3.523   5.957  0.7501  1.0537  2.0179
   79SOPE   H8Y 7166   0.205   3.348   6.010  1.7135 -1.4210 -0.0222
   79SOPE   C39 7167   0.411   3.417   5.985 -0.2984 -0.3732 -0.8717
   79SOPE   H9X 7168   0.449   3.328   6.041  2.7761  1.3489  0.0171
   79SOPE   H9Y 7169   0.468   3.505   6.022 -0.9691  0.1352 -1.0366
   79SOPE  C310 7170   0.426   3.406   5.834 -0.0006  0.1987  0.7758
   79SOPE  H10X 7171   0.325   3.378   5.796  0.1852 -1.2307  1.2967
   79SOPE  H10Y 7172   0.495   3.325   5.803  1.8852  2.1248 -0.3612
   79SOPE  C311 7173   0.472   3.536   5.766 -0.9692 -0.4786  0.0495
   79SOPE  H11X 7174   0.430   3.616   5.831 -0.1620  0.8201 -0.9982
   79SOPE  H11Y 7175   0.437   3.537   5.661 -2.1096 -0.3590  0.4140
   79SOPE  C312 7176   0.625   3.557   5.766  0.2231 -1.2939 -0.1404
   79SOPE  H12X 7177   0.678   3.485   5.700  0.7936  0.6595 -1.9461
   79SOPE  H12Y 7178   0.666   3.550   5.869 -2.8843 -1.1074  1.2330
   79SOPE  C313 7179   0.662   3.693   5.700 -0.3039  0.0658 -0.1088
   79SOPE  H13X 7180   0.609   3.774   5.754 -1.6269 -0.9825  0.2307
   79SOPE  H13Y 7181   0.617   3.696   5.599 -0.7879 -1.2098  0.0448
   79SOPE  C314 7182   0.810   3.731   5.703  0.1747  0.1521 -0.0711
   79SOPE  H14X 7183   0.866   3.639   5.675  0.5981 -0.3020  2.0573
   79SOPE  H14Y 7184   0.836   3.758   5.808 -1.0475 -0.2116  0.3536
   79SOPE  C315 7185   0.843   3.847   5.601  0.8146 -0.1227 -0.0776
   79SOPE  H15X 7186   0.792   3.939   5.636  1.7656  0.2568  0.3410
   79SOPE  H15Y 7187   0.798   3.824   5.502 -0.8633  3.6474 -0.3542
   79SOPE  C316 7188   0.986   3.873   5.560 -0.6098 -0.7990 -0.0704
   79SOPE  H16X 7189   0.974   3.951   5.482 -2.2692  2.0492  2.8001
   79SOPE  H16Y 7190   1.041   3.780   5.534 -0.0978 -0.9064  1.3398
   79SOPE  C317 7191   1.081   3.938   5.667  0.9360  0.8638 -0.1605
   79SOPE  H17X 7192   1.086   3.867   5.752 -0.8255  0.4085 -0.3940
   79SOPE  H17Y 7193   1.019   4.025   5.698  0.5479  0.0383  1.4821
   79SOPE  C318 7194   1.220   3.966   5.618  0.1740 -0.4207 -0.1555
   79SOPE  H18X 7195   1.264   3.870   5.584 -0.1590 -0.5188 -0.3157
   79SOPE  H18Y 7196   1.282   4.009   5.699 -1.2582  2.0535 -0.2658
   79SOPE  H18Z 7197   1.225   4.040   5.535  1.1764 -1.3572 -0.9500
   80SOPE     N 7198   5.628   5.043   7.209 -0.0028  0.0387  0.1088
   80SOPE   HN1 7199   5.578   4.957   7.180 -0.4638  0.8854 -1.7619
   80SOPE   HN2 7200   5.728   5.020   7.226 -0.1087 -0.0466  0.6654
   80SOPE   HN3 7201   5.594   5.053   7.307 -1.1002  1.5130 -0.3747
   80SOPE   C12 7202   5.567   5.167   7.139  0.0660 -0.5316 -0.7578
   80SOPE  H12A 7203   5.610   5.156   7.037  1.1753 -0.6115 -0.2973
   80SOPE  H12B 7204   5.603   5.255   7.195 -2.1560 -1.5190  2.5239
   80SOPE   C11 7205   5.414   5.146   7.139  0.2327  0.3575  0.1297
   80SOPE  H11A 7206   5.396   5.055   7.077 -0.5152  1.2467 -1.0110
   80SOPE  H11B 7207   5.360   5.225   7.082  2.9922  3.2402  1.2534
   80SOPE     P 7208   5.304   5.222   7.356  0.1562 -0.1821  0.0361
   80SOPE   O13 7209   5.405   5.330   7.387  0.0459 -0.3938  0.1561
   80SOPE   O14 7210   5.250   5.171   7.479  0.1924  0.3376 -0.6027
   80SOPE   O12 7211   5.368   5.110   7.270  0.0822  0.3307  0.0244
   80SOPE   O11 7212   5.194   5.277   7.261  0.2358 -0.9321 -0.2563
   80SOPE    C1 7213   5.062   5.230   7.265  0.1078  0.0900  0.9974
   80SOPE    HA 7214   4.999   5.320   7.243 -1.2244 -0.8789  0.6759
   80SOPE    HB 7215   5.038   5.189   7.365 -1.0756 -1.9890 -0.0540
   80SOPE    C2 7216   5.042   5.121   7.151 -0.3413 -0.0248  0.4998
   80SOPE    HS 7217   5.120   5.042   7.165 -0.0245  0.2954  0.5488
   80SOPE   O21 7218   5.052   5.198   7.026 -0.0501  0.7621  0.1963
   80SOPE   C21 7219   5.114   5.132   6.930 -0.5481  0.9483  0.1435
   80SOPE   O22 7220   5.165   5.019   6.936  0.3569  0.0833  0.5609
   80SOPE   C22 7221   5.109   5.212   6.802 -0.3506  0.0815 -0.9718
   80SOPE   H2R 7222   5.143   5.316   6.821  0.1161 -0.4000  1.1845
   80SOPE   H2S 7223   5.004   5.210   6.767 -0.0754  2.1368 -2.0779
   80SOPE    C3 7224   4.904   5.047   7.155  0.0604  0.5864 -0.4579
   80SOPE    HX 7225   4.820   5.119   7.160 -0.0750  0.4080 -0.0830
   80SOPE    HY 7226   4.906   4.998   7.255 -0.2663 -0.4890 -0.9658
   80SOPE   O31 7227   4.886   4.951   7.045 -0.4024 -0.0276 -0.3580
   80SOPE   C31 7228   4.943   4.835   7.059  0.0097  0.7623  0.1144
   80SOPE   O32 7229   4.997   4.794   7.165  0.1897 -0.3840 -0.1048
   80SOPE   C32 7230   4.915   4.755   6.932  0.8874 -0.1396 -0.2586
   80SOPE   H2X 7231   4.934   4.648   6.952  1.3626 -0.2146 -1.0559
   80SOPE   H2Y 7232   4.996   4.786   6.862 -0.5277  1.1464 -1.4089
   80SOPE   C23 7233   5.210   5.160   6.695  0.1346 -0.5775  0.0688
   80SOPE   H3R 7234   5.287   5.095   6.742 -0.3792 -0.7174  0.7247
   80SOPE   H3S 7235   5.265   5.247   6.652  0.5033 -0.6050  0.4763
   80SOPE   C24 7236   5.148   5.089   6.578  0.2456  0.2007  1.0303
   80SOPE   H4R 7237   5.071   5.017   6.614 -0.5568  1.0963  1.1371
   80SOPE   H4S 7238   5.110   5.165   6.506  1.3213 -0.5480 -0.3715
   80SOPE   C25 7239   5.247   5.017   6.486 -0.1824  0.4550  0.2669
   80SOPE   H5R 7240   5.307   4.959   6.559 -0.7022  0.6051  0.8186
   80SOPE   H5S 7241   5.198   4.952   6.410  0.7281 -1.8313  1.5532
   80SOPE   C26 7242   5.344   5.111   6.416  0.5683 -0.0807 -0.5521
   80SOPE   H6R 7243   5.270   5.173   6.360 -1.0003  0.2440  1.7251
   80SOPE   H6S 7244   5.399   5.170   6.492  1.6148 -2.7282  0.8665
   80SOPE   C27 7245   5.447   5.034   6.335 -0.0892 -0.1595 -0.7204
   80SOPE   H7R 7246   5.493   4.969   6.413  0.4561 -0.2141 -1.0805
   80SOPE   H7S 7247   5.394   4.958   6.273  0.6706 -2.0641  0.8383
   80SOPE   C28 7248   5.561   5.115   6.265 -0.0108  0.5304 -0.2526
   80SOPE   H8R 7249   5.627   5.047   6.206 -1.0442  0.3184 -1.2027
   80SOPE   H8S 7250   5.508   5.183   6.195 -0.4962  0.5504  0.1281
   80SOPE   C29 7251   5.646   5.189   6.364  0.1514 -0.7340  0.5941
   80SOPE   H91 7252   5.677   5.125   6.447  0.7258  0.8691  1.6539
   80SOPE  C210 7253   5.691   5.318   6.356 -0.1908 -0.2323  0.4460
   80SOPE  H101 7254   5.745   5.364   6.440  2.7705  1.4153 -2.1148
   80SOPE  C211 7255   5.649   5.411   6.239 -0.3782  0.1607  0.6046
   80SOPE  H11R 7256   5.641   5.506   6.296 -0.3075 -0.2924  1.3808
   80SOPE  H11S 7257   5.551   5.387   6.193  0.1047  0.3766 -0.5623
   80SOPE  C212 7258   5.762   5.401   6.139 -0.8665 -0.0354 -0.2287
   80SOPE  H12R 7259   5.757   5.300   6.095 -1.0272 -1.2771  2.4583
   80SOPE  H12S 7260   5.862   5.402   6.186 -0.7355 -1.3050 -0.4489
   80SOPE  C213 7261   5.745   5.508   6.031  0.3636  0.1082 -0.0612
   80SOPE  H13R 7262   5.832   5.510   5.962 -0.1082  0.5047 -0.6551
   80SOPE  H13S 7263   5.732   5.598   6.094 -2.3769  0.2361 -0.6705
   80SOPE  C214 7264   5.622   5.492   5.944  0.1111 -0.2402  0.2463
   80SOPE  H14R 7265   5.623   5.582   5.878  0.5470  0.1759  0.8087
   80SOPE  H14S 7266   5.533   5.484   6.009 -0.7038 -0.4542 -0.8642
   80SOPE  C215 7267   5.623   5.375   5.840 -0.3305 -0.2721  0.2975
   80SOPE  H15R 7268   5.588   5.281   5.887 -1.5925 -0.0250 -0.1222
   80SOPE  H15S 7269   5.731   5.351   5.825 -0.6120 -0.3198 -2.2354
   80SOPE  C216 7270   5.552   5.398   5.706  0.2749 -0.5083  0.1446
   80SOPE  H16R 7271   5.597   5.494   5.670  0.1079  0.0380  1.3382
   80SOPE  H16S 7272   5.442   5.410   5.713  0.2937  0.0219 -0.3422
   80SOPE  C217 7273   5.565   5.294   5.599  0.0460  0.2204  0.6872
   80SOPE  H17R 7274   5.523   5.198   5.637 -0.5586 -0.0473 -0.6095
   80SOPE  H17S 7275   5.673   5.274   5.585 -0.0812 -0.6978  0.9155
   80SOPE  C218 7276   5.503   5.334   5.466  0.0038 -0.6298  0.0968
   80SOPE  H18R 7277   5.395   5.357   5.475  0.0055 -0.9646  1.1042
   80SOPE  H18S 7278   5.512   5.252   5.391  2.3349 -0.2853 -0.0857
   80SOPE  H18T 7279   5.549   5.428   5.430 -0.8293  0.7159  2.3370
   80SOPE   C33 7280   4.780   4.771   6.866  0.4609 -0.5230 -0.1611
   80SOPE   H3X 7281   4.758   4.875   6.834  1.5639 -0.0669  0.5014
   80SOPE   H3Y 7282   4.702   4.738   6.937  1.6383  0.4825  1.6777
   80SOPE   C34 7283   4.769   4.678   6.744  0.0415  0.4021 -0.1065
   80SOPE   H4X 7284   4.666   4.672   6.703  0.1107 -1.3151 -0.0976
   80SOPE   H4Y 7285   4.793   4.577   6.785 -0.7385  0.7416  1.2713
   80SOPE   C35 7286   4.850   4.704   6.623 -0.3381 -0.5786  0.4837
   80SOPE   H5X 7287   4.953   4.670   6.645 -0.2485 -0.5667  0.0741
   80SOPE   H5Y 7288   4.838   4.812   6.599 -1.2641 -1.0632 -1.4347
   80SOPE   C36 7289   4.812   4.614   6.505 -0.6604  0.5761 -0.1176
   80SOPE   H6X 7290   4.702   4.602   6.491 -0.6233 -0.4556  0.3845
   80SOPE   H6Y 7291   4.854   4.512   6.523 -2.3345 -0.2901 -0.8247
   80SOPE   C37 7292   4.862   4.668   6.376 -1.0659  0.8414  0.9561
   80SOPE   H7X 7293   4.970   4.693   6.382 -0.5104 -0.6238 -1.4282
   80SOPE   H7Y 7294   4.812   4.765   6.358  1.8904  1.8776 -3.1960
   80SOPE   C38 7295   4.824   4.589   6.245  0.1346 -0.1548 -0.3509
   80SOPE   H8X 7296   4.713   4.583   6.254 -0.2039  0.9869 -2.8593
   80SOPE   H8Y 7297   4.862   4.485   6.238  0.4824 -0.1124  0.7939
   80SOPE   C39 7298   4.856   4.674   6.120  0.0160  0.5762 -0.0385
   80SOPE   H9X 7299   4.957   4.719   6.132  0.1357  0.2933  0.0226
   80SOPE   H9Y 7300   4.790   4.763   6.112  0.2705  0.7493 -0.2307
   80SOPE  C310 7301   4.845   4.605   5.987  0.4544 -0.5255  0.7097
   80SOPE  H10X 7302   4.741   4.570   5.971  0.6644 -0.2771 -1.5917
   80SOPE  H10Y 7303   4.910   4.515   5.983 -2.2234 -2.5545 -2.2310
   80SOPE  C311 7304   4.893   4.695   5.870  0.4070 -0.6124  0.0198
   80SOPE  H11X 7305   4.999   4.724   5.888  1.1724 -3.6197  1.0160
   80SOPE  H11Y 7306   4.842   4.793   5.866  0.3812 -0.5611  1.2834
   80SOPE  C312 7307   4.872   4.634   5.733  0.2132 -0.2186  0.1692
   80SOPE  H12X 7308   4.767   4.609   5.706  0.7674 -1.0338 -1.2905
   80SOPE  H12Y 7309   4.931   4.541   5.737  0.8751  0.2315  2.6203
   80SOPE  C313 7310   4.933   4.722   5.622 -0.7663 -0.6532 -0.1164
   80SOPE  H13X 7311   5.043   4.735   5.622 -0.7036 -1.1633 -0.1716
   80SOPE  H13Y 7312   4.901   4.828   5.630 -1.3255 -0.8568  0.4513
   80SOPE  C314 7313   4.900   4.655   5.488  0.5117  0.1239 -0.2139
   80SOPE  H14X 7314   4.906   4.544   5.478 -0.9931  0.0430 -0.3827
   80SOPE  H14Y 7315   4.975   4.699   5.418  0.0755 -1.1393 -1.5182
   80SOPE  C315 7316   4.762   4.703   5.447  0.3393  0.1253 -0.1889
   80SOPE  H15X 7317   4.762   4.814   5.452 -0.0234  0.0744  3.0186
   80SOPE  H15Y 7318   4.679   4.693   5.521 -0.3795  1.6886 -0.7412
   80SOPE  C316 7319   4.722   4.652   5.303  0.6991  0.0470 -0.4419
   80SOPE  H16X 7320   4.705   4.543   5.320  0.4483  0.5117  3.0931
   80SOPE  H16Y 7321   4.803   4.672   5.231  0.7407  2.3285  0.1742
   80SOPE  C317 7322   4.597   4.723   5.258  0.4300  0.2553 -0.5956
   80SOPE  H17X 7323   4.603   4.833   5.273  0.2140  0.1119  0.6491
   80SOPE  H17Y 7324   4.514   4.677   5.316  0.7101 -2.5694 -2.2586
   80SOPE  C318 7325   4.567   4.706   5.112  0.7274  0.5378  0.1159
   80SOPE  H18X 7326   4.650   4.755   5.057  1.9417 -2.3233 -0.7836
   80SOPE  H18Y 7327   4.468   4.746   5.081  0.5923 -0.4492 -0.8331
   80SOPE  H18Z 7328   4.586   4.597   5.099 -1.8013  0.1354 -0.8486
   81SOPE     N 7329   1.320   6.060   7.603 -0.3673 -0.5066 -0.4896
   81SOPE   HN1 7330   1.411   6.046   7.651  0.6374  0.2453 -2.1030
   81SOPE   HN2 7331   1.336   6.019   7.509 -2.2859 -0.5855 -0.8349
   81SOPE   HN3 7332   1.305   6.162   7.588  1.9557  0.1191  1.0228
   81SOPE   C12 7333   1.215   5.991   7.675  0.1370 -0.0091  0.0536
   81SOPE  H12A 7334   1.211   6.039   7.775  1.8879  3.1434 -1.2469
   81SOPE  H12B 7335   1.234   5.883   7.691  0.3113 -0.3276 -2.0452
   81SOPE   C11 7336   1.075   6.019   7.622 -0.1346  1.3911 -0.0762
   81SOPE  H11A 7337   1.013   5.973   7.701  1.0377  1.8982  1.1888
   81SOPE  H11B 7338   1.055   5.964   7.528 -0.7966  1.0322  0.2680
   81SOPE     P 7339   0.928   6.228   7.563  0.4676  0.6465  0.0788
   81SOPE   O13 7340   0.951   6.374   7.563 -0.1576  0.2254 -0.7804
   81SOPE   O14 7341   0.803   6.163   7.613  0.2510  0.1912 -0.5418
   81SOPE   O12 7342   1.055   6.164   7.630  0.2368 -0.2500  0.0830
   81SOPE   O11 7343   0.941   6.170   7.412 -0.2068  0.1820  0.2753
   81SOPE    C1 7344   1.067   6.199   7.349  1.0624  0.3220 -0.0605
   81SOPE    HA 7345   1.147   6.128   7.380 -0.3059  0.1267  3.4411
   81SOPE    HB 7346   1.105   6.300   7.373 -0.8996  0.6036  2.1144
   81SOPE    C2 7347   1.050   6.190   7.190 -0.3833 -0.4860 -0.0311
   81SOPE    HS 7348   1.120   6.267   7.153 -2.2085  0.9249 -0.6989
   81SOPE   O21 7349   0.917   6.226   7.146 -0.3112  0.0681 -0.2386
   81SOPE   C21 7350   0.881   6.350   7.167 -0.5646 -0.5681 -0.3897
   81SOPE   O22 7351   0.946   6.444   7.208 -0.2712  0.4002  0.2010
   81SOPE   C22 7352   0.743   6.362   7.122  0.6073  0.0814 -1.1106
   81SOPE   H2R 7353   0.686   6.391   7.213  0.9115 -0.6704 -0.6733
   81SOPE   H2S 7354   0.709   6.260   7.095 -2.0986  0.3360  0.9639
   81SOPE    C3 7355   1.074   6.046   7.138  1.1361 -0.4143  0.1970
   81SOPE    HX 7356   1.010   5.977   7.197  2.2746  1.5331  4.0942
   81SOPE    HY 7357   1.179   6.016   7.155  0.8741 -1.3245  0.2554
   81SOPE   O31 7358   1.045   6.034   6.995 -0.5990  0.2389 -0.3397
   81SOPE   C31 7359   1.103   6.119   6.899  0.0488 -0.0966  0.3197
   81SOPE   O32 7360   1.190   6.198   6.922 -0.8498  0.6543  0.3029
   81SOPE   C32 7361   1.012   6.110   6.777  0.2411 -0.0457  0.3530
   81SOPE   H2X 7362   0.929   6.184   6.776  0.3642  0.1004 -1.2138
   81SOPE   H2Y 7363   0.973   6.006   6.777 -1.1614  0.4581  0.3540
   81SOPE   C23 7364   0.739   6.461   6.998  0.0729  0.3996 -0.3600
   81SOPE   H3R 7365   0.793   6.396   6.927 -0.1599 -0.7488  0.4862
   81SOPE   H3S 7366   0.799   6.553   7.019  2.1372 -1.3174  1.8828
   81SOPE   C24 7367   0.603   6.483   6.937  0.0305 -0.3711 -0.0112
   81SOPE   H4R 7368   0.558   6.387   6.903  1.5145 -1.1172  0.0765
   81SOPE   H4S 7369   0.549   6.521   7.026 -2.4228 -1.2621 -1.0274
   81SOPE   C25 7370   0.600   6.583   6.821  0.4989  0.0904 -0.3869
   81SOPE   H5R 7371   0.660   6.670   6.856  0.0210  0.0723  0.5111
   81SOPE   H5S 7372   0.648   6.544   6.729  0.2663 -1.8063  0.2473
   81SOPE   C26 7373   0.466   6.651   6.803 -0.1554 -0.8028  0.7759
   81SOPE   H6R 7374   0.421   6.670   6.903 -0.3533 -3.6250  1.3071
   81SOPE   H6S 7375   0.493   6.752   6.765 -0.6695  0.0672  2.5940
   81SOPE   C27 7376   0.371   6.582   6.703  0.0496 -0.5710 -0.1388
   81SOPE   H7R 7377   0.392   6.473   6.705  0.0041 -0.5910 -0.6288
   81SOPE   H7S 7378   0.264   6.593   6.733  0.0136 -0.4147 -0.3225
   81SOPE   C28 7379   0.399   6.634   6.560  0.6202  0.3523  0.1614
   81SOPE   H8R 7380   0.391   6.744   6.544 -0.6286 -0.1287 -3.4177
   81SOPE   H8S 7381   0.506   6.613   6.541  0.4222 -0.8315  0.2565
   81SOPE   C29 7382   0.319   6.565   6.452 -0.3662 -0.6802 -0.7328
   81SOPE   H91 7383   0.242   6.492   6.481 -1.1963  0.3907 -0.1455
   81SOPE  C210 7384   0.332   6.595   6.322  0.2475  0.5972  0.1816
   81SOPE  H101 7385   0.276   6.528   6.255  0.0150  3.8370 -3.2570
   81SOPE  C211 7386   0.400   6.699   6.241  0.5309 -1.0013 -0.4893
   81SOPE  H11R 7387   0.497   6.673   6.194  1.4549  1.4415 -0.1112
   81SOPE  H11S 7388   0.425   6.782   6.311 -2.9429 -0.4041  0.2094
   81SOPE  C212 7389   0.301   6.780   6.150 -0.9887  0.0196  0.3008
   81SOPE  H12R 7390   0.352   6.867   6.104 -1.7895  2.1482  3.1448
   81SOPE  H12S 7391   0.223   6.836   6.206  0.2813  2.1521  0.0248
   81SOPE  C213 7392   0.239   6.698   6.038  0.3037 -0.4255  0.4791
   81SOPE  H13R 7393   0.196   6.609   6.088  1.0728 -0.9706  0.1897
   81SOPE  H13S 7394   0.303   6.665   5.953  0.6124 -1.5247  1.1276
   81SOPE  C214 7395   0.122   6.774   5.967  0.4991  0.2186 -0.0669
   81SOPE  H14R 7396   0.157   6.854   5.899 -1.5946 -0.1001 -1.6253
   81SOPE  H14S 7397   0.058   6.811   6.051 -1.2382 -0.5746 -0.9812
   81SOPE  C215 7398   0.029   6.676   5.887  0.2693 -0.2791 -0.5462
   81SOPE  H15R 7399  -0.060   6.721   5.838 -0.3388  0.1186  0.8961
   81SOPE  H15S 7400  -0.002   6.599   5.961 -0.0959 -1.0240 -1.4409
   81SOPE  C216 7401   0.114   6.607   5.776  0.1585  0.2364 -0.4442
   81SOPE  H16R 7402   0.199   6.557   5.827  0.9461  1.6022 -0.3532
   81SOPE  H16S 7403   0.151   6.675   5.696  1.9381 -1.7952 -1.4528
   81SOPE  C217 7404   0.017   6.491   5.712  0.0404 -0.2272 -0.3107
   81SOPE  H17R 7405  -0.037   6.548   5.633 -0.6298 -0.6476 -0.1624
   81SOPE  H17S 7406  -0.048   6.470   5.800  0.6169 -0.0967  0.1604
   81SOPE  C218 7407   0.090   6.373   5.643  0.1602  0.7635 -0.9272
   81SOPE  H18R 7408   0.032   6.279   5.633  2.6977 -1.0350  0.2578
   81SOPE  H18S 7409   0.179   6.349   5.705 -1.0908 -0.5674  0.4558
   81SOPE  H18T 7410   0.134   6.411   5.548  4.3348  0.0978  0.5328
   81SOPE   C33 7411   1.099   6.131   6.647  0.1036  0.1687 -0.6987
   81SOPE   H3X 7412   1.044   6.082   6.563 -2.6022 -1.5662  1.9057
   81SOPE   H3Y 7413   1.191   6.072   6.664 -0.1880  0.2701  1.4587
   81SOPE   C34 7414   1.102   6.281   6.616 -0.2269 -0.4857 -0.1797
   81SOPE   H4X 7415   1.190   6.290   6.548 -1.4261 -1.5972 -1.9525
   81SOPE   H4Y 7416   1.120   6.340   6.709 -0.7361 -2.0487  0.9473
   81SOPE   C35 7417   0.981   6.320   6.531 -0.1523 -0.3294  0.2145
   81SOPE   H5X 7418   0.887   6.310   6.590  1.5148 -1.0947  2.9373
   81SOPE   H5Y 7419   0.988   6.259   6.439  2.4964  0.9591 -0.5592
   81SOPE   C36 7420   0.990   6.468   6.495  0.4701 -0.2488  0.5887
   81SOPE   H6X 7421   1.083   6.484   6.436  1.8260 -0.8178  2.4483
   81SOPE   H6Y 7422   0.982   6.539   6.580  0.3018 -0.1163  0.4635
   81SOPE   C37 7423   0.880   6.517   6.395  0.0833  0.3610 -0.5620
   81SOPE   H7X 7424   0.790   6.557   6.446 -0.9551 -0.7157 -1.4870
   81SOPE   H7Y 7425   0.843   6.424   6.346 -1.0203 -0.4918  1.7462
   81SOPE   C38 7426   0.934   6.619   6.294  0.1268  0.5064 -0.0387
   81SOPE   H8X 7427   1.031   6.579   6.256 -0.7789 -0.2866 -1.6374
   81SOPE   H8Y 7428   0.964   6.701   6.362  1.7575 -0.4195  0.4159
   81SOPE   C39 7429   0.844   6.669   6.182  0.3791 -0.1854  0.1816
   81SOPE   H9X 7430   0.886   6.758   6.129  1.9101 -1.2521 -0.4845
   81SOPE   H9Y 7431   0.740   6.697   6.207 -0.4251 -0.5449 -2.4812
   81SOPE  C310 7432   0.836   6.561   6.069  0.1306  0.7973  0.3335
   81SOPE  H10X 7433   0.778   6.472   6.100 -0.2837  0.5253 -1.1875
   81SOPE  H10Y 7434   0.940   6.529   6.049 -0.8121 -1.5861 -1.0763
   81SOPE  C311 7435   0.784   6.617   5.937  0.2919  0.6956 -0.3534
   81SOPE  H11X 7436   0.781   6.530   5.867 -2.3394  0.3363  0.0756
   81SOPE  H11Y 7437   0.852   6.700   5.910 -0.4881  2.1502  1.8998
   81SOPE  C312 7438   0.640   6.673   5.950 -0.6473 -0.0509  0.5206
   81SOPE  H12X 7439   0.636   6.753   6.027  1.5882  0.3357  0.3046
   81SOPE  H12Y 7440   0.571   6.592   5.982 -2.2079  0.5970 -1.0289
   81SOPE  C313 7441   0.580   6.721   5.818  0.4033 -0.1033 -0.4223
   81SOPE  H13X 7442   0.650   6.796   5.775  1.1454 -0.4559  0.1430
   81SOPE  H13Y 7443   0.499   6.791   5.849  0.2629  0.1476 -1.3360
   81SOPE  C314 7444   0.520   6.606   5.740  0.1222  0.1543 -0.1107
   81SOPE  H14X 7445   0.438   6.560   5.800  1.5341  0.4372  2.1373
   81SOPE  H14Y 7446   0.595   6.524   5.732 -1.2006 -1.1941  0.6971
   81SOPE  C315 7447   0.491   6.651   5.600  0.1485  0.5245  0.0865
   81SOPE  H15X 7448   0.588   6.700   5.575  2.0885 -2.6590  0.7116
   81SOPE  H15Y 7449   0.402   6.717   5.592  0.1977  0.4346 -1.8891
   81SOPE  C316 7450   0.465   6.539   5.497  0.1952 -1.0735  0.3177
   81SOPE  H16X 7451   0.382   6.472   5.529  0.5909 -0.0539  3.8765
   81SOPE  H16Y 7452   0.552   6.470   5.490  0.3137 -0.8939 -0.0480
   81SOPE  C317 7453   0.435   6.601   5.351  0.0633 -0.0458  0.3392
   81SOPE  H17X 7454   0.522   6.660   5.316 -1.1022  0.1523 -2.4864
   81SOPE  H17Y 7455   0.357   6.678   5.368  0.8279  0.6589  0.7264
   81SOPE  C318 7456   0.397   6.494   5.242  0.1117  0.0997 -0.2925
   81SOPE  H18X 7457   0.417   6.534   5.140  0.4281 -0.2320 -0.3588
   81SOPE  H18Y 7458   0.296   6.451   5.260  0.0337  0.1330 -0.6398
   81SOPE  H18Z 7459   0.462   6.405   5.250 -0.8857 -0.6615 -0.3619
   82SOPE     N 7460   1.798   1.161   7.383  0.0691 -0.2332 -0.2200
   82SOPE   HN1 7461   1.778   1.182   7.283  3.0026 -1.2123 -1.1179
   82SOPE   HN2 7462   1.860   1.078   7.385  0.5143  0.1020  1.0597
   82SOPE   HN3 7463   1.712   1.143   7.439 -0.0062 -0.4745 -0.4132
   82SOPE   C12 7464   1.856   1.288   7.431 -0.1541  0.7569 -0.0613
   82SOPE  H12A 7465   1.917   1.327   7.346  2.2683 -3.6118 -0.6002
   82SOPE  H12B 7466   1.921   1.256   7.514 -0.4012 -0.5278 -0.3511
   82SOPE   C11 7467   1.748   1.389   7.478  0.1636  0.2032  0.0116
   82SOPE  H11A 7468   1.798   1.465   7.542  0.1588  0.3887 -0.2029
   82SOPE  H11B 7469   1.676   1.330   7.539  0.3360 -1.2315 -1.1082
   82SOPE     P 7470   1.665   1.598   7.355  0.4697  0.1518  0.4997
   82SOPE   O13 7471   1.791   1.667   7.339  0.0169 -0.5446 -0.0094
   82SOPE   O14 7472   1.582   1.640   7.471  0.1615  0.2543 -0.7720
   82SOPE   O12 7473   1.682   1.441   7.362 -0.0342 -0.4060 -0.1064
   82SOPE   O11 7474   1.579   1.613   7.218 -0.7861 -0.1979 -0.0116
   82SOPE    C1 7475   1.469   1.528   7.190 -0.4055  0.1901 -0.1131
   82SOPE    HA 7476   1.383   1.595   7.172 -0.3202  0.9260  1.9113
   82SOPE    HB 7477   1.445   1.463   7.276  2.5919 -1.3066 -0.2703
   82SOPE    C2 7478   1.509   1.432   7.068  0.1887 -0.1558 -0.4353
   82SOPE    HS 7479   1.604   1.377   7.086  0.1901  0.3378  1.2846
   82SOPE   O21 7480   1.532   1.518   6.953  0.5383 -0.0750  0.4951
   82SOPE   C21 7481   1.659   1.561   6.950 -0.3218  0.4515 -0.5051
   82SOPE   O22 7482   1.754   1.516   7.012 -0.3781 -0.6492  0.1374
   82SOPE   C22 7483   1.655   1.685   6.855  0.2908 -0.3189  0.2730
   82SOPE   H2R 7484   1.666   1.773   6.922  0.4677  1.2772 -1.7501
   82SOPE   H2S 7485   1.558   1.683   6.801  0.2798 -1.5376  0.3080
   82SOPE    C3 7486   1.389   1.332   7.049  0.1512 -0.2367 -0.2757
   82SOPE    HX 7487   1.287   1.374   7.065 -0.7654 -2.3775 -0.1782
   82SOPE    HY 7488   1.410   1.257   7.128  2.5486  0.1657 -0.4662
   82SOPE   O31 7489   1.411   1.263   6.924  0.2478  0.0937  0.1095
   82SOPE   C31 7490   1.356   1.307   6.815 -1.6712  0.6142 -0.4357
   82SOPE   O32 7491   1.272   1.397   6.807  0.4182  0.1338  0.1604
   82SOPE   C32 7492   1.399   1.222   6.694  0.1232 -0.8390 -0.0042
   82SOPE   H2X 7493   1.337   1.130   6.684  0.0971 -0.7995 -0.2178
   82SOPE   H2Y 7494   1.502   1.190   6.720 -0.5926 -1.8471  1.7787
   82SOPE   C23 7495   1.774   1.700   6.753 -0.4922  0.6928  0.2588
   82SOPE   H3R 7496   1.864   1.657   6.802 -1.1966 -1.1899 -0.0242
   82SOPE   H3S 7497   1.784   1.811   6.746 -2.4345  1.0535  2.0600
   82SOPE   C24 7498   1.745   1.644   6.620  0.0711  0.0154  0.5612
   82SOPE   H4R 7499   1.719   1.536   6.621 -4.4629  0.8846  0.6169
   82SOPE   H4S 7500   1.663   1.694   6.565  1.2373  0.6760 -0.6145
   82SOPE   C25 7501   1.870   1.680   6.538  0.1536  0.7576 -0.0772
   82SOPE   H5R 7502   1.907   1.784   6.547 -0.0558  0.7310  1.2125
   82SOPE   H5S 7503   1.964   1.629   6.569  0.9359  1.4288 -1.2324
   82SOPE   C26 7504   1.837   1.648   6.387 -0.3416 -0.3107 -0.7694
   82SOPE   H6R 7505   1.754   1.573   6.387  1.0573 -1.9230  0.3937
   82SOPE   H6S 7506   1.799   1.742   6.341 -2.4988 -1.0804 -0.7068
   82SOPE   C27 7507   1.960   1.606   6.304  0.0478  0.6540 -0.3714
   82SOPE   H7R 7508   2.004   1.509   6.337 -0.4260  0.8920  0.9913
   82SOPE   H7S 7509   1.922   1.586   6.201 -0.3442  1.2256 -0.3420
   82SOPE   C28 7510   2.074   1.707   6.293  0.1842  0.1837 -0.0639
   82SOPE   H8R 7511   2.097   1.734   6.398  0.7835  1.1038 -0.4184
   82SOPE   H8S 7512   2.162   1.657   6.247 -0.6930 -1.3583 -0.1493
   82SOPE   C29 7513   2.047   1.836   6.213  0.3239  1.1810 -0.6921
   82SOPE   H91 7514   2.028   1.920   6.281 -0.8981 -0.7661  1.4997
   82SOPE  C210 7515   2.039   1.844   6.077  0.3000  0.6804 -0.2686
   82SOPE  H101 7516   2.014   1.938   6.025 -0.8841  0.8311  0.5128
   82SOPE  C211 7517   2.060   1.726   5.982 -0.2269 -0.1043 -0.1795
   82SOPE  H11R 7518   1.970   1.661   5.978 -0.5034  0.2448  0.2832
   82SOPE  H11S 7519   2.152   1.673   6.015  0.0364  0.9219  0.8163
   82SOPE  C212 7520   2.086   1.752   5.834 -0.3178 -0.7201  0.2333
   82SOPE  H12R 7521   2.097   1.666   5.765 -1.1071  1.3440 -2.6929
   82SOPE  H12S 7522   2.183   1.805   5.821  1.0993 -2.2113  3.6298
   82SOPE  C213 7523   1.979   1.836   5.765  0.5303  0.1485  0.1410
   82SOPE  H13R 7524   1.970   1.934   5.816 -0.7174  1.5446 -2.5146
   82SOPE  H13S 7525   1.889   1.771   5.761 -0.1237  1.0680 -0.9111
   82SOPE  C214 7526   2.021   1.868   5.615  0.4496 -0.1159 -0.5471
   82SOPE  H14R 7527   2.049   1.772   5.567  2.0502 -0.3542  0.7445
   82SOPE  H14S 7528   2.111   1.931   5.601 -2.5259  4.3963 -1.2975
   82SOPE  C215 7529   1.912   1.945   5.536  0.4852 -0.4649 -0.1201
   82SOPE  H15R 7530   1.913   2.052   5.564 -1.3543 -0.8900  1.7799
   82SOPE  H15S 7531   1.807   1.914   5.551 -0.1341  1.4389 -0.2347
   82SOPE  C216 7532   1.934   1.931   5.389  0.1952  0.0063  0.2112
   82SOPE  H16R 7533   1.916   1.826   5.356 -1.2660  0.2413  0.2202
   82SOPE  H16S 7534   2.039   1.952   5.359  0.5211 -3.5546 -1.7343
   82SOPE  C217 7535   1.834   2.032   5.316 -0.3474  0.7382  0.6379
   82SOPE  H17R 7536   1.879   2.060   5.218 -1.4854  2.5347  0.5774
   82SOPE  H17S 7537   1.811   2.124   5.375 -3.7280  1.0692 -0.9268
   82SOPE  C218 7538   1.702   1.972   5.274  0.0656  0.0762  0.2424
   82SOPE  H18R 7539   1.703   1.870   5.230 -0.6781  0.0162  0.3494
   82SOPE  H18S 7540   1.647   2.049   5.215  2.7595  1.6768 -0.3322
   82SOPE  H18T 7541   1.638   1.969   5.365  0.7205  0.1553  0.7148
   82SOPE   C33 7542   1.415   1.313   6.566  0.3463 -0.1466 -0.3307
   82SOPE   H3X 7543   1.477   1.405   6.576  1.4279 -0.8140 -0.6819
   82SOPE   H3Y 7544   1.318   1.333   6.517  1.0917 -1.5780 -2.5335
   82SOPE   C34 7545   1.495   1.230   6.460  0.5164  0.4226  0.2572
   82SOPE   H4X 7546   1.466   1.125   6.483  1.4538  0.0505 -0.1831
   82SOPE   H4Y 7547   1.604   1.229   6.481  0.2672  0.7280  1.6545
   82SOPE   C35 7548   1.461   1.262   6.317  0.3092  0.0644 -0.2012
   82SOPE   H5X 7549   1.491   1.368   6.305  0.9730 -0.2125 -1.1340
   82SOPE   H5Y 7550   1.350   1.253   6.309  0.3347 -1.6702  0.9707
   82SOPE   C36 7551   1.542   1.190   6.211 -1.0462 -0.0280 -0.0104
   82SOPE   H6X 7552   1.492   1.092   6.192  0.8899 -1.1034  0.2377
   82SOPE   H6Y 7553   1.645   1.173   6.248 -0.5962 -0.4553 -1.3997
   82SOPE   C37 7554   1.546   1.282   6.084 -0.0696  0.1048  0.0689
   82SOPE   H7X 7555   1.608   1.371   6.108  1.0835 -0.6900  0.1098
   82SOPE   H7Y 7556   1.443   1.318   6.061  1.2357  4.4126  0.0707
   82SOPE   C38 7557   1.613   1.209   5.960  0.4648 -0.4720  0.2486
   82SOPE   H8X 7558   1.716   1.176   5.985  1.1716  0.3001 -1.5287
   82SOPE   H8Y 7559   1.630   1.282   5.878  1.0008 -1.2524 -0.3402
   82SOPE   C39 7560   1.529   1.099   5.893 -0.5618 -0.1405  0.0102
   82SOPE   H9X 7561   1.438   1.150   5.855  0.4993  2.4904  0.8229
   82SOPE   H9Y 7562   1.507   1.022   5.970  0.3742 -0.3813  0.0464
   82SOPE  C310 7563   1.612   1.022   5.792 -0.0555 -0.5197 -0.0139
   82SOPE  H10X 7564   1.551   0.939   5.748 -1.7617  1.4560 -1.5918
   82SOPE  H10Y 7565   1.701   0.978   5.841  0.7165 -1.3805 -2.0667
   82SOPE  C311 7566   1.650   1.107   5.670  0.6129  0.0922 -0.1663
   82SOPE  H11X 7567   1.705   1.198   5.701 -1.4542  0.8658  1.5336
   82SOPE  H11Y 7568   1.559   1.140   5.615  0.1368 -0.6271  0.1569
   82SOPE  C312 7569   1.725   1.020   5.575 -0.1108 -0.1952  0.4169
   82SOPE  H12X 7570   1.719   1.074   5.479 -0.9760  1.6419  1.4560
   82SOPE  H12Y 7571   1.679   0.920   5.559 -1.7049  0.5844 -0.0772
   82SOPE  C313 7572   1.870   0.999   5.628  0.5407 -0.6419 -0.4646
   82SOPE  H13X 7573   1.869   0.943   5.723 -2.1960  0.6442  0.3877
   82SOPE  H13Y 7574   1.903   1.100   5.658  0.1009 -0.3814 -0.8264
   82SOPE  C314 7575   1.957   0.945   5.513  0.0329 -0.7652 -0.0027
   82SOPE  H14X 7576   2.059   0.953   5.556 -0.9344 -0.1347  2.3303
   82SOPE  H14Y 7577   1.943   1.005   5.420 -1.1201 -2.2356 -0.8213
   82SOPE  C315 7578   1.931   0.803   5.482 -0.1694  0.2313 -0.1036
   82SOPE  H15X 7579   1.840   0.804   5.419 -0.2409 -1.4703 -0.0648
   82SOPE  H15Y 7580   1.905   0.741   5.571 -1.8532 -0.6003 -1.1235
   82SOPE  C316 7581   2.033   0.744   5.385  0.1301 -0.4756  0.1561
   82SOPE  H16X 7582   2.130   0.761   5.436 -0.2693  1.1657  0.3944
   82SOPE  H16Y 7583   2.028   0.806   5.293 -1.0629  2.2511  1.9436
   82SOPE  C317 7584   2.003   0.597   5.366 -0.4951 -0.3659 -0.2151
   82SOPE  H17X 7585   1.902   0.586   5.321 -0.2538 -0.6598 -0.6941
   82SOPE  H17Y 7586   2.002   0.546   5.465  0.1862  2.1997  1.2247
   82SOPE  C318 7587   2.101   0.528   5.274  0.1920 -0.1785  0.2164
   82SOPE  H18X 7588   2.110   0.582   5.177 -2.0070 -0.8656 -0.4265
   82SOPE  H18Y 7589   2.067   0.426   5.246  1.7494 -0.0650 -2.4449
   82SOPE  H18Z 7590   2.201   0.517   5.321  1.9961  1.7759 -2.8467
   83SOPE     N 7591   0.226   1.580   2.560  0.1607  0.5351  0.0221
   83SOPE   HN1 7592   0.142   1.521   2.571 -0.9192  2.1693  0.9368
   83SOPE   HN2 7593   0.215   1.666   2.618  0.1225  1.3033 -1.0956
   83SOPE   HN3 7594   0.253   1.614   2.465 -0.0561  1.5471  0.3098
   83SOPE   C12 7595   0.340   1.512   2.622  1.0562 -0.1215 -0.4948
   83SOPE  H12A 7596   0.297   1.459   2.710 -1.8307  1.5459 -0.7636
   83SOPE  H12B 7597   0.403   1.595   2.663 -0.7678  0.9241  0.3450
   83SOPE   C11 7598   0.410   1.435   2.522 -0.8602  0.4509  0.5556
   83SOPE  H11A 7599   0.501   1.390   2.568 -1.7275 -1.1412  0.7767
   83SOPE  H11B 7600   0.453   1.508   2.450 -1.5437  1.5280  1.2038
   83SOPE     P 7601   0.305   1.196   2.516 -0.2199 -0.0406  0.2901
   83SOPE   O13 7602   0.437   1.125   2.528  0.5182  0.0029 -0.5128
   83SOPE   O14 7603   0.188   1.129   2.460 -0.0830  0.7216  0.2424
   83SOPE   O12 7604   0.330   1.337   2.449  0.2603  0.2995  0.6146
   83SOPE   O11 7605   0.275   1.238   2.662  0.4338  0.4460  0.1045
   83SOPE    C1 7606   0.168   1.183   2.739  0.9846 -0.8146 -0.2592
   83SOPE    HA 7607   0.197   1.086   2.784  1.6550  0.3992  2.1075
   83SOPE    HB 7608   0.078   1.153   2.681 -1.8057  2.6035  1.8866
   83SOPE    C2 7609   0.128   1.272   2.860  0.8266  0.6632 -0.3815
   83SOPE    HS 7610   0.102   1.373   2.822 -0.3919  0.0318 -1.2974
   83SOPE   O21 7611   0.224   1.272   2.960  0.5702 -0.0816  0.2807
   83SOPE   C21 7612   0.266   1.386   2.997 -0.3419 -0.1125 -0.0133
   83SOPE   O22 7613   0.219   1.500   2.966  0.8978  0.0826  0.2781
   83SOPE   C22 7614   0.393   1.371   3.077  0.2628 -0.3001 -0.4305
   83SOPE   H2R 7615   0.478   1.416   3.022  2.0375 -0.4633  2.0355
   83SOPE   H2S 7616   0.403   1.263   3.098 -1.3460 -0.0955  1.7013
   83SOPE    C3 7617  -0.006   1.227   2.922  0.0174 -0.6726 -0.0939
   83SOPE    HX 7618   0.012   1.125   2.962  1.2852 -0.1023  0.8546
   83SOPE    HY 7619  -0.077   1.226   2.837  2.9127 -0.2539 -2.6792
   83SOPE   O31 7620  -0.052   1.305   3.027  0.1177 -0.3081  0.6783
   83SOPE   C31 7621  -0.167   1.279   3.085  0.3870  0.8242 -0.0734
   83SOPE   O32 7622  -0.226   1.168   3.076 -0.6930 -0.6282 -0.0325
   83SOPE   C32 7623  -0.210   1.404   3.152  0.1839  0.5707 -0.1554
   83SOPE   H2X 7624  -0.312   1.386   3.192 -0.4281 -2.9296 -2.8062
   83SOPE   H2Y 7625  -0.200   1.488   3.080  0.3885  0.4469 -0.2722
   83SOPE   C23 7626   0.401   1.449   3.216  0.4762  0.1411  0.0765
   83SOPE   H3R 7627   0.383   1.559   3.207  2.3663  0.4338 -0.4335
   83SOPE   H3S 7628   0.502   1.438   3.260 -0.0210 -1.2892  0.9239
   83SOPE   C24 7629   0.307   1.384   3.320  0.2541  0.3314 -0.2973
   83SOPE   H4R 7630   0.210   1.367   3.267  1.0267 -4.4554 -0.5586
   83SOPE   H4S 7631   0.347   1.282   3.336  0.8648  0.7418  0.9031
   83SOPE   C25 7632   0.289   1.471   3.448  0.4117 -0.2674  0.2453
   83SOPE   H5R 7633   0.392   1.499   3.479  1.0563  1.8343 -3.2700
   83SOPE   H5S 7634   0.231   1.563   3.429  0.6850 -0.0984  0.2264
   83SOPE   C26 7635   0.231   1.388   3.566  0.0581 -0.6587  0.3694
   83SOPE   H6R 7636   0.126   1.357   3.549  0.8662 -3.9011  0.6256
   83SOPE   H6S 7637   0.292   1.295   3.569 -1.0039 -1.3622  0.7891
   83SOPE   C27 7638   0.244   1.476   3.694  0.1108 -0.4772 -0.2429
   83SOPE   H7R 7639   0.352   1.477   3.719 -0.3088 -0.8202  1.8369
   83SOPE   H7S 7640   0.203   1.576   3.668 -0.2787 -0.7605 -0.7251
   83SOPE   C28 7641   0.155   1.424   3.805  0.7361  0.3626 -0.0857
   83SOPE   H8R 7642   0.050   1.449   3.782  1.1893  2.0203 -0.5196
   83SOPE   H8S 7643   0.167   1.314   3.810  0.7750  0.3121 -1.0884
   83SOPE   C29 7644   0.187   1.499   3.935  0.8181  0.5875  1.1037
   83SOPE   H91 7645   0.165   1.607   3.935 -1.8214  0.1461 -0.1038
   83SOPE  C210 7646   0.240   1.449   4.052 -0.2931  0.3378 -0.1618
   83SOPE  H101 7647   0.219   1.513   4.139 -3.3180 -1.7046  0.7853
   83SOPE  C211 7648   0.282   1.310   4.087 -0.3610  0.2626  0.3895
   83SOPE  H11R 7649   0.228   1.238   4.023  1.2249  0.8224 -1.6756
   83SOPE  H11S 7650   0.272   1.287   4.195 -1.0294  0.4831  0.3780
   83SOPE  C212 7651   0.432   1.301   4.058 -0.0627 -0.6594  0.6579
   83SOPE  H12R 7652   0.445   1.335   3.952 -1.8871  2.4714  1.3244
   83SOPE  H12S 7653   0.468   1.196   4.065  1.8750 -0.0557  0.4181
   83SOPE  C213 7654   0.526   1.371   4.152 -0.4235  0.0943  0.4963
   83SOPE  H13R 7655   0.504   1.479   4.160  1.0275  0.4493 -0.0029
   83SOPE  H13S 7656   0.622   1.352   4.099 -0.2237 -0.8120  1.1620
   83SOPE  C214 7657   0.543   1.286   4.285 -0.2479  0.0016 -0.3909
   83SOPE  H14R 7658   0.566   1.187   4.240  0.5673 -0.2325  0.5067
   83SOPE  H14S 7659   0.450   1.288   4.345 -0.1174  0.2051 -0.1949
   83SOPE  C215 7660   0.659   1.360   4.361  0.5169  0.5049  0.9654
   83SOPE  H15R 7661   0.634   1.468   4.354  0.7402  0.5538  0.9059
   83SOPE  H15S 7662   0.752   1.327   4.311 -0.4636 -1.7962  0.5750
   83SOPE  C216 7663   0.662   1.323   4.507  0.4455  0.1064  0.0426
   83SOPE  H16R 7664   0.670   1.212   4.500 -1.8313 -0.0982 -0.0416
   83SOPE  H16S 7665   0.564   1.362   4.542  0.2588  1.5157 -1.9005
   83SOPE  C217 7666   0.778   1.377   4.587 -0.1733 -0.3708 -0.2113
   83SOPE  H17R 7667   0.772   1.487   4.573 -1.7020 -0.1205  1.8821
   83SOPE  H17S 7668   0.874   1.343   4.542 -0.5862 -3.0999  0.7708
   83SOPE  C218 7669   0.772   1.358   4.741  0.1124  0.9088  0.5561
   83SOPE  H18R 7670   0.675   1.399   4.779 -0.8354  2.2295 -2.9011
   83SOPE  H18S 7671   0.858   1.405   4.794 -0.0009  2.5270 -0.6105
   83SOPE  H18T 7672   0.769   1.250   4.766 -0.0307  0.8052  0.1103
   83SOPE   C33 7673  -0.123   1.426   3.269 -0.6250  0.7460 -0.4313
   83SOPE   H3X 7674  -0.017   1.422   3.236  0.1747  0.5914  1.9949
   83SOPE   H3Y 7675  -0.132   1.343   3.342 -1.5765  0.9497 -0.3131
   83SOPE   C34 7676  -0.132   1.566   3.322 -0.0101  0.3524  0.5758
   83SOPE   H4X 7677  -0.141   1.641   3.240 -0.6141  0.9507  1.1657
   83SOPE   H4Y 7678  -0.048   1.591   3.391 -0.6605  2.1463  0.7904
   83SOPE   C35 7679  -0.259   1.602   3.402 -0.1621 -0.8665 -0.4612
   83SOPE   H5X 7680  -0.265   1.530   3.488  2.4793 -1.1313 -0.4181
   83SOPE   H5Y 7681  -0.349   1.598   3.337 -0.6613 -0.7180  0.2017
   83SOPE   C36 7682  -0.237   1.752   3.449  0.8405  0.8021 -0.8909
   83SOPE   H6X 7683  -0.234   1.810   3.354  1.1887 -1.2136 -2.1826
   83SOPE   H6Y 7684  -0.133   1.759   3.486  0.1667 -1.6611  1.8512
   83SOPE   C37 7685  -0.343   1.794   3.550  0.2804  0.2124 -0.0638
   83SOPE   H7X 7686  -0.443   1.785   3.502  0.2648  3.1998 -0.7838
   83SOPE   H7Y 7687  -0.323   1.899   3.581  0.7922  0.1564 -0.1972
   83SOPE   C38 7688  -0.356   1.706   3.675 -0.2375  0.1142 -0.2283
   83SOPE   H8X 7689  -0.377   1.599   3.652 -1.9435 -0.1293  2.0789
   83SOPE   H8Y 7690  -0.436   1.743   3.743  2.1087  3.0081  1.1996
   83SOPE   C39 7691  -0.223   1.688   3.760  0.0566  0.1678  0.1583
   83SOPE   H9X 7692  -0.191   1.791   3.785  0.6642  0.3661 -1.3639
   83SOPE   H9Y 7693  -0.149   1.645   3.690 -0.4493  1.0303 -0.9347
   83SOPE  C310 7694  -0.234   1.595   3.881  0.5442  0.2851  0.7340
   83SOPE  H10X 7695  -0.203   1.498   3.838  1.5175  1.3468 -1.0808
   83SOPE  H10Y 7696  -0.341   1.597   3.909  0.7771  1.0515  1.6395
   83SOPE  C311 7697  -0.155   1.631   4.010 -0.5634  0.0673 -0.7078
   83SOPE  H11X 7698  -0.187   1.728   4.052 -0.0751 -0.6453  1.4771
   83SOPE  H11Y 7699  -0.047   1.654   4.005 -1.1743  3.6360 -0.2163
   83SOPE  C312 7700  -0.180   1.539   4.121  1.0023  0.4578 -0.3876
   83SOPE  H12X 7701  -0.130   1.442   4.099 -0.7038 -1.2490  2.6153
   83SOPE  H12Y 7702  -0.288   1.517   4.138  0.6620 -1.1292 -3.7960
   83SOPE  C313 7703  -0.115   1.587   4.247 -0.3861  0.2686 -1.0575
   83SOPE  H13X 7704  -0.187   1.633   4.318 -0.8304 -1.2519 -0.4797
   83SOPE  H13Y 7705  -0.032   1.657   4.224 -0.6042  1.5384  1.6198
   83SOPE  C314 7706  -0.056   1.464   4.321 -0.6508 -0.1134  0.8298
   83SOPE  H14X 7707   0.024   1.413   4.262 -3.0668 -2.3011 -0.7408
   83SOPE  H14Y 7708  -0.136   1.389   4.334 -1.0311 -0.0056 -0.6446
   83SOPE  C315 7709   0.004   1.494   4.459  0.6426 -0.2988 -0.1059
   83SOPE  H15X 7710  -0.061   1.564   4.515 -3.3594 -1.4378 -2.8762
   83SOPE  H15Y 7711   0.094   1.558   4.448  0.0431  0.9729  1.9813
   83SOPE  C316 7712   0.057   1.370   4.541 -0.0907 -0.9549 -0.3254
   83SOPE  H16X 7713  -0.020   1.290   4.541 -0.8601 -0.3370  2.8977
   83SOPE  H16Y 7714   0.062   1.411   4.644 -1.4822  3.3875 -1.7441
   83SOPE  C317 7715   0.189   1.313   4.487  0.1149  0.1794 -0.1306
   83SOPE  H17X 7716   0.254   1.402   4.470 -1.2120  1.4305  1.1030
   83SOPE  H17Y 7717   0.174   1.267   4.387  2.8894 -3.8242  1.0540
   83SOPE  C318 7718   0.257   1.220   4.582  0.6323 -0.0344 -0.9417
   83SOPE  H18X 7719   0.190   1.133   4.601 -1.0486  1.4142  0.1026
   83SOPE  H18Y 7720   0.290   1.253   4.683 -1.6806 -0.0148 -0.1355
   83SOPE  H18Z 7721   0.347   1.178   4.532 -0.8959 -3.2706 -1.2204
   84SOPE     N 7722   0.067   5.764   3.139  0.8105  0.6951 -0.9782
   84SOPE   HN1 7723   0.041   5.846   3.197 -1.0624 -1.3750  1.3135
   84SOPE   HN2 7724  -0.015   5.728   3.086  1.8095 -0.7016 -1.6373
   84SOPE   HN3 7725   0.085   5.691   3.211 -3.4069  1.3227  1.0051
   84SOPE   C12 7726   0.178   5.764   3.042 -0.3509 -0.5688  0.3832
   84SOPE  H12A 7727   0.173   5.854   2.978 -0.6044 -0.5959  0.3642
   84SOPE  H12B 7728   0.177   5.671   2.981 -0.1750 -0.6217  0.4590
   84SOPE   C11 7729   0.314   5.772   3.124 -0.1417  0.5800 -0.4190
   84SOPE  H11A 7730   0.304   5.866   3.182 -4.7242  0.7988 -1.2131
   84SOPE  H11B 7731   0.401   5.785   3.056  1.8054  0.7764  1.9695
   84SOPE     P 7732   0.407   5.531   3.163 -0.3256 -0.2206  0.0235
   84SOPE   O13 7733   0.466   5.540   3.028  0.1354 -0.5116  0.3230
   84SOPE   O14 7734   0.318   5.410   3.180  0.0462 -0.0523  0.2956
   84SOPE   O12 7735   0.336   5.657   3.211 -0.0758 -0.3967 -0.4014
   84SOPE   O11 7736   0.522   5.513   3.271 -0.3764 -0.7679 -0.7418
   84SOPE    C1 7737   0.624   5.619   3.264 -0.6702 -0.0463 -0.1534
   84SOPE    HA 7738   0.609   5.690   3.180  2.7929  1.8107  0.6069
   84SOPE    HB 7739   0.720   5.564   3.254 -1.5261 -1.5818 -0.1333
   84SOPE    C2 7740   0.625   5.720   3.380 -0.0038 -0.1429 -0.0051
   84SOPE    HS 7741   0.661   5.665   3.470  0.0104  0.5411  0.4168
   84SOPE   O21 7742   0.493   5.783   3.400 -0.0560 -0.2371  0.0780
   84SOPE   C21 7743   0.408   5.724   3.480 -0.4946  0.1646 -0.9318
   84SOPE   O22 7744   0.431   5.623   3.548  0.2346 -0.3703  0.4577
   84SOPE   C22 7745   0.284   5.815   3.494 -0.0068  0.2368 -0.2284
   84SOPE   H2R 7746   0.220   5.780   3.411  2.1798  0.1821 -1.9939
   84SOPE   H2S 7747   0.311   5.922   3.486 -1.9232  0.8201  0.5280
   84SOPE    C3 7748   0.740   5.828   3.355  0.3802  0.3720 -0.4706
   84SOPE    HX 7749   0.708   5.867   3.256 -0.0212 -0.4603 -0.6786
   84SOPE    HY 7750   0.838   5.780   3.337  0.4764  0.9070 -1.4264
   84SOPE   O31 7751   0.737   5.930   3.458  0.1615 -0.2089  0.4442
   84SOPE   C31 7752   0.796   5.899   3.572  0.8324 -0.2115  0.6368
   84SOPE   O32 7753   0.839   5.786   3.600 -0.1479 -0.5950 -0.0182
   84SOPE   C32 7754   0.781   6.022   3.659 -0.5975  0.4365  0.7410
   84SOPE   H2X 7755   0.714   6.106   3.629  1.2605  1.9218  0.5788
   84SOPE   H2Y 7756   0.878   6.070   3.637  0.6196 -3.1364 -2.9900
   84SOPE   C23 7757   0.213   5.796   3.634  0.2841  0.6064 -0.0401
   84SOPE   H3R 7758   0.219   5.691   3.667  0.2355  0.9589  1.1192
   84SOPE   H3S 7759   0.104   5.816   3.628  0.1212 -0.1900  0.2752
   84SOPE   C24 7760   0.285   5.882   3.742 -0.1563 -0.0182  0.9929
   84SOPE   H4R 7761   0.395   5.880   3.734 -0.2674 -0.2619 -0.9560
   84SOPE   H4S 7762   0.265   5.990   3.722  2.2687  0.5042  1.0995
   84SOPE   C25 7763   0.245   5.846   3.884 -0.3037 -0.2788 -0.7701
   84SOPE   H5R 7764   0.274   5.935   3.943  2.5817 -0.3753 -1.8796
   84SOPE   H5S 7765   0.134   5.839   3.889 -0.4412  0.0822 -2.6571
   84SOPE   C26 7766   0.341   5.737   3.940  0.3530 -0.2983 -0.1697
   84SOPE   H6R 7767   0.316   5.640   3.891  0.5480  0.2073 -1.2966
   84SOPE   H6S 7768   0.446   5.765   3.918  0.1790 -0.2209 -0.9261
   84SOPE   C27 7769   0.332   5.708   4.092 -0.1749  0.0867 -0.6789
   84SOPE   H7R 7770   0.239   5.653   4.117  0.2538 -0.7978 -0.9888
   84SOPE   H7S 7771   0.404   5.625   4.110  0.0124  0.3005 -0.4436
   84SOPE   C28 7772   0.344   5.830   4.195 -0.1902  0.6577  0.0523
   84SOPE   H8R 7773   0.385   5.799   4.293 -0.2216 -0.1206 -0.1781
   84SOPE   H8S 7774   0.424   5.898   4.157  0.0856  1.0101  1.2115
   84SOPE   C29 7775   0.213   5.895   4.220  0.3655 -0.4674 -0.1218
   84SOPE   H91 7776   0.175   5.963   4.142 -3.2602 -0.6655  1.2765
   84SOPE  C210 7777   0.125   5.871   4.320  0.9184 -0.2657  0.5049
   84SOPE  H101 7778   0.029   5.923   4.334  0.5222 -1.3038  1.9920
   84SOPE  C211 7779   0.138   5.778   4.435  0.5492  0.2887 -0.7912
   84SOPE  H11R 7780   0.233   5.722   4.440  0.0361 -0.5703 -0.4367
   84SOPE  H11S 7781   0.060   5.698   4.431  2.0869 -1.2320 -2.5590
   84SOPE  C212 7782   0.129   5.837   4.574 -0.4750 -0.2965  0.5127
   84SOPE  H12R 7783   0.041   5.906   4.576 -1.2730 -1.2489 -0.4713
   84SOPE  H12S 7784   0.216   5.904   4.590 -1.4687  0.6993  2.1760
   84SOPE  C213 7785   0.120   5.735   4.689 -0.6237 -0.5879  0.7412
   84SOPE  H13R 7786   0.212   5.676   4.710  1.0396  1.3494 -0.7520
   84SOPE  H13S 7787   0.043   5.667   4.646 -0.5119 -0.8592  0.9654
   84SOPE  C214 7788   0.052   5.791   4.816  0.1568 -0.4932 -0.7952
   84SOPE  H14R 7789   0.003   5.695   4.845 -1.9406  1.3830  2.5621
   84SOPE  H14S 7790  -0.029   5.866   4.804  1.3022  0.8508 -0.3995
   84SOPE  C215 7791   0.147   5.846   4.923 -0.1616 -0.0709 -0.4430
   84SOPE  H15R 7792   0.182   5.935   4.867 -0.4110  0.1228 -0.2946
   84SOPE  H15S 7793   0.230   5.775   4.943 -0.1062 -0.3110 -1.4484
   84SOPE  C216 7794   0.071   5.885   5.052 -0.2362  0.5083  0.5955
   84SOPE  H16R 7795   0.044   5.791   5.103  1.7276 -0.5604 -0.2121
   84SOPE  H16S 7796  -0.022   5.942   5.030 -1.3105 -1.3256  0.1837
   84SOPE  C217 7797   0.168   5.949   5.153 -0.0074  0.4243  0.3884
   84SOPE  H17R 7798   0.268   5.900   5.149  0.7305  1.8836 -3.3100
   84SOPE  H17S 7799   0.125   5.933   5.254  0.1112 -2.1751  0.0806
   84SOPE  C218 7800   0.185   6.101   5.128 -0.8978  0.4116  0.7302
   84SOPE  H18R 7801   0.173   6.128   5.021  0.5506  0.4222  0.5513
   84SOPE  H18S 7802   0.289   6.129   5.155 -1.6743  2.2134  2.0797
   84SOPE  H18T 7803   0.127   6.167   5.196 -0.7532  1.7743 -0.4334
   84SOPE   C33 7804   0.777   6.002   3.814  0.2070 -0.6020  0.8121
   84SOPE   H3X 7805   0.684   5.946   3.835  0.1221 -0.6713  0.2749
   84SOPE   H3Y 7806   0.764   6.106   3.853  0.6878 -0.6914  1.2286
   84SOPE   C34 7807   0.902   5.937   3.870 -0.0181  0.2852 -0.4004
   84SOPE   H4X 7808   0.993   6.000   3.860  1.0318 -0.5695  2.6822
   84SOPE   H4Y 7809   0.921   5.837   3.824  1.6355  0.1856  0.4497
   84SOPE   C35 7810   0.881   5.915   4.017 -1.0380 -0.3419 -0.0641
   84SOPE   H5X 7811   0.798   5.842   4.027  0.0736 -1.8214 -1.2800
   84SOPE   H5Y 7812   0.846   6.012   4.060  0.6706 -0.0179  0.6970
   84SOPE   C36 7813   1.005   5.866   4.090  0.5662 -0.5349  0.4876
   84SOPE   H6X 7814   1.089   5.936   4.071 -0.5237  0.9214  0.8653
   84SOPE   H6Y 7815   1.033   5.771   4.039 -1.1919 -1.2747  0.8081
   84SOPE   C37 7816   0.978   5.856   4.235  0.2540  0.1515 -0.9057
   84SOPE   H7X 7817   0.902   5.779   4.262  0.1357  0.1647 -1.1875
   84SOPE   H7Y 7818   0.950   5.955   4.278 -1.0358 -0.3593 -0.5096
   84SOPE   C38 7819   1.108   5.809   4.306  0.5048 -0.1257 -0.5731
   84SOPE   H8X 7820   1.185   5.881   4.272  0.1011  0.2066 -0.8025
   84SOPE   H8Y 7821   1.122   5.707   4.264 -0.4871 -0.4148 -0.2357
   84SOPE   C39 7822   1.107   5.810   4.459  0.2890  0.8049 -0.1775
   84SOPE   H9X 7823   1.065   5.906   4.496  0.5968  0.7058  0.4374
   84SOPE   H9Y 7824   1.213   5.805   4.492  0.5171 -1.8576 -1.0455
   84SOPE  C310 7825   1.031   5.692   4.524  0.4846  0.8924  0.6973
   84SOPE  H10X 7826   1.058   5.594   4.479  0.8007 -0.1089  2.9285
   84SOPE  H10Y 7827   0.924   5.716   4.507  0.5276  1.3386  1.0365
   84SOPE  C311 7828   1.050   5.681   4.680  0.7613  0.7974 -0.9925
   84SOPE  H11X 7829   1.004   5.772   4.724 -1.3514 -0.1183 -1.1800
   84SOPE  H11Y 7830   1.158   5.673   4.706  0.2756 -0.1501  0.9932
   84SOPE  C312 7831   0.971   5.563   4.743  0.3466  0.6510  0.0888
   84SOPE  H12X 7832   0.980   5.477   4.673 -0.3349  0.8919 -0.3062
   84SOPE  H12Y 7833   0.862   5.581   4.760 -0.7331 -2.2016 -2.7893
   84SOPE  C313 7834   1.024   5.525   4.878 -0.0278  0.4703  0.4019
   84SOPE  H13X 7835   1.134   5.510   4.885 -0.2506 -0.8110  2.0245
   84SOPE  H13Y 7836   0.972   5.432   4.910 -1.3358  0.3136 -2.0116
   84SOPE  C314 7837   0.989   5.620   4.992  0.4276 -0.5826  0.1112
   84SOPE  H14X 7838   0.881   5.646   4.998  0.5263  0.2901 -1.3332
   84SOPE  H14Y 7839   1.036   5.716   4.961 -0.9454  0.0464 -0.1217
   84SOPE  C315 7840   1.031   5.573   5.131  0.4517 -0.1470 -0.3598
   84SOPE  H15X 7841   1.134   5.535   5.116  1.1258  1.1864  0.6708
   84SOPE  H15Y 7842   0.957   5.494   5.153 -1.2005  1.0410 -1.3886
   84SOPE  C316 7843   1.032   5.674   5.240 -0.8117  1.0605 -0.3783
   84SOPE  H16X 7844   1.102   5.759   5.221  1.0167 -0.3284 -0.0678
   84SOPE  H16Y 7845   1.066   5.630   5.336 -3.1017  1.0288  0.4851
   84SOPE  C317 7846   0.897   5.738   5.275 -0.2412  0.8113  0.0783
   84SOPE  H17X 7847   0.826   5.653   5.284  2.8929 -1.9922  0.4891
   84SOPE  H17Y 7848   0.876   5.792   5.181  3.6769  0.6186 -1.0833
   84SOPE  C318 7849   0.913   5.819   5.402 -0.1286  0.1453 -0.3089
   84SOPE  H18X 7850   1.013   5.868   5.406 -0.4648  0.8007  0.2385
   84SOPE  H18Y 7851   0.911   5.746   5.486  0.8247 -1.3312 -1.5097
   84SOPE  H18Z 7852   0.834   5.895   5.417  1.1152  0.9603  2.9852
   85SOPE     N 7853   4.178   4.897   2.679 -0.6884  0.5627  0.4691
   85SOPE   HN1 7854   4.130   4.881   2.769  0.7815 -0.1612  1.1730
   85SOPE   HN2 7855   4.146   4.982   2.628 -0.0221  2.1128  2.5046
   85SOPE   HN3 7856   4.143   4.817   2.622  0.1227  0.3858  0.2044
   85SOPE   C12 7857   4.326   4.904   2.685  0.3883  0.6290 -0.3942
   85SOPE  H12A 7858   4.357   4.860   2.589 -1.6531  0.0507 -0.8237
   85SOPE  H12B 7859   4.372   4.834   2.758 -1.1746  0.7066  0.7306
   85SOPE   C11 7860   4.378   5.043   2.712 -0.4954  0.1325  0.1959
   85SOPE  H11A 7861   4.489   5.042   2.713 -0.4885 -0.6146 -0.1590
   85SOPE  H11B 7862   4.347   5.078   2.813  2.3061  0.7859  0.9153
   85SOPE     P 7863   4.364   5.281   2.614 -0.0292  0.2481  0.2256
   85SOPE   O13 7864   4.277   5.361   2.530  0.2989 -0.9535 -0.6473
   85SOPE   O14 7865   4.509   5.302   2.576 -0.5569  0.2739 -0.4627
   85SOPE   O12 7866   4.327   5.127   2.610  0.0734  0.7294  0.0838
   85SOPE   O11 7867   4.337   5.324   2.763  0.4122  0.3505  0.3046
   85SOPE    C1 7868   4.408   5.429   2.827 -0.3430 -0.3721  0.5371
   85SOPE    HA 7869   4.373   5.532   2.803  0.0712 -0.5105 -0.7232
   85SOPE    HB 7870   4.513   5.428   2.791 -0.7123  2.4332 -0.8602
   85SOPE    C2 7871   4.412   5.420   2.987  0.7229  0.9881  0.3465
   85SOPE    HS 7872   4.469   5.326   3.003 -1.5138 -0.5464 -0.2987
   85SOPE   O21 7873   4.276   5.401   3.026 -0.7540 -0.4577 -0.4847
   85SOPE   C21 7874   4.264   5.326   3.130  0.0977  0.1122 -0.3353
   85SOPE   O22 7875   4.350   5.278   3.200 -0.0527 -0.0112 -0.2304
   85SOPE   C22 7876   4.119   5.327   3.177  0.2583 -0.5840  0.8951
   85SOPE   H2R 7877   4.056   5.252   3.124 -0.2109  0.6490 -0.3503
   85SOPE   H2S 7878   4.072   5.425   3.153 -0.0716 -0.3826  2.2469
   85SOPE    C3 7879   4.469   5.551   3.050  0.0502  0.5972  0.2222
   85SOPE    HX 7880   4.384   5.620   3.030  1.1921  1.4836 -1.8574
   85SOPE    HY 7881   4.558   5.582   2.991 -0.1727  0.6779 -0.0714
   85SOPE   O31 7882   4.511   5.531   3.190  0.0433  0.6155 -0.4671
   85SOPE   C31 7883   4.546   5.649   3.240  0.0423  0.0224 -0.4923
   85SOPE   O32 7884   4.519   5.758   3.190 -0.2842  0.2219  0.6247
   85SOPE   C32 7885   4.622   5.630   3.369  0.1682 -1.4319 -0.6505
   85SOPE   H2X 7886   4.688   5.541   3.358 -0.5246 -2.1894  0.9153
   85SOPE   H2Y 7887   4.549   5.601   3.448  0.0144  1.1408  0.2376
   85SOPE   C23 7888   4.103   5.294   3.328 -0.3778 -0.4156  0.0142
   85SOPE   H3R 7889   4.179   5.340   3.394 -0.5554 -1.5028  0.9889
   85SOPE   H3S 7890   4.126   5.186   3.330  0.8588 -0.2243 -1.7831
   85SOPE   C24 7891   3.960   5.315   3.372  0.1009 -0.2918 -0.0320
   85SOPE   H4R 7892   3.931   5.421   3.360  0.9492 -0.0714 -0.1868
   85SOPE   H4S 7893   3.896   5.253   3.305 -0.1934  0.5481 -0.5462
   85SOPE   C25 7894   3.934   5.272   3.522 -0.4387  0.2032  1.1228
   85SOPE   H5R 7895   3.834   5.307   3.557 -0.4319  1.7003 -0.2227
   85SOPE   H5S 7896   3.947   5.162   3.529  0.8477  0.2174 -0.6098
   85SOPE   C26 7897   4.037   5.335   3.617 -0.5969  0.2548  0.0884
   85SOPE   H6R 7898   4.133   5.278   3.611  0.9401  2.7987 -1.2286
   85SOPE   H6S 7899   4.071   5.439   3.600  1.7402 -0.5021 -0.2818
   85SOPE   C27 7900   3.989   5.333   3.768  0.0884 -0.3397  0.0380
   85SOPE   H7R 7901   3.881   5.354   3.752 -0.2289 -1.4615  0.6547
   85SOPE   H7S 7902   4.005   5.233   3.812  1.0749 -0.0748  0.3311
   85SOPE   C28 7903   4.049   5.446   3.854  0.6619 -0.6293  0.6572
   85SOPE   H8R 7904   4.042   5.409   3.958  1.7807 -5.0834 -0.6427
   85SOPE   H8S 7905   4.160   5.439   3.847  0.7801 -0.7097  2.3471
   85SOPE   C29 7906   3.995   5.584   3.827 -0.5369 -0.0529 -0.0581
   85SOPE   H91 7907   3.950   5.601   3.729 -2.1586  2.2359  0.9898
   85SOPE  C210 7908   3.982   5.685   3.915 -0.2884 -0.0351  0.1379
   85SOPE  H101 7909   3.928   5.774   3.878  1.8270 -0.1757 -3.8535
   85SOPE  C211 7910   4.012   5.676   4.055 -0.2235  0.2899 -0.5156
   85SOPE  H11R 7911   4.069   5.771   4.071 -2.3265  1.6927 -0.9257
   85SOPE  H11S 7912   4.093   5.603   4.075  0.6454  1.0309 -1.2417
   85SOPE  C212 7913   3.884   5.663   4.140 -1.0796 -0.3074 -0.3378
   85SOPE  H12R 7914   3.821   5.580   4.102 -2.4203  0.6279 -0.2264
   85SOPE  H12S 7915   3.829   5.758   4.125 -0.8926  0.2094  1.9352
   85SOPE  C213 7916   3.898   5.637   4.291  0.8822 -0.3763  0.9385
   85SOPE  H13R 7917   3.964   5.713   4.338 -0.3281  1.9862 -0.9602
   85SOPE  H13S 7918   3.952   5.541   4.302  2.3688  0.6936  3.7015
   85SOPE  C214 7919   3.756   5.634   4.362 -0.3952 -0.4761  0.3973
   85SOPE  H14R 7920   3.774   5.592   4.463  1.9189 -1.0127 -0.1950
   85SOPE  H14S 7921   3.702   5.562   4.297 -0.3362  1.5086 -2.0348
   85SOPE  C215 7922   3.671   5.768   4.352 -0.4475 -0.4888 -0.1336
   85SOPE  H15R 7923   3.655   5.802   4.247 -0.9393 -0.0514  0.0736
   85SOPE  H15S 7924   3.735   5.850   4.390  1.6021 -1.5533 -1.1312
   85SOPE  C216 7925   3.535   5.759   4.426 -0.3735  0.1572  0.3335
   85SOPE  H16R 7926   3.553   5.729   4.531 -0.3392  1.9638  0.8760
   85SOPE  H16S 7927   3.470   5.676   4.394 -1.7500  1.3705 -0.1270
   85SOPE  C217 7928   3.463   5.893   4.413 -0.1302  0.2638 -0.3193
   85SOPE  H17R 7929   3.448   5.915   4.305  0.3258 -1.3692 -0.7329
   85SOPE  H17S 7930   3.519   5.972   4.467 -0.9958  0.7899 -0.1686
   85SOPE  C218 7931   3.331   5.880   4.485 -0.0911 -0.3414 -0.0957
   85SOPE  H18R 7932   3.282   5.977   4.507  0.6780  0.2990 -1.1106
   85SOPE  H18S 7933   3.342   5.824   4.580  0.2814 -3.2256 -1.7274
   85SOPE  H18T 7934   3.256   5.833   4.417 -1.0223 -0.4985  1.0146
   85SOPE   C33 7935   4.703   5.752   3.421 -0.0987 -0.8235  1.0941
   85SOPE   H3X 7936   4.643   5.841   3.448 -2.4905 -1.3530 -1.9507
   85SOPE   H3Y 7937   4.777   5.773   3.340 -0.4041 -0.6891  0.8500
   85SOPE   C34 7938   4.783   5.714   3.544 -0.6906 -0.0787 -0.1437
   85SOPE   H4X 7939   4.832   5.617   3.521 -0.7272 -0.6047  1.8260
   85SOPE   H4Y 7940   4.710   5.693   3.625 -0.8123 -0.0758 -0.2524
   85SOPE   C35 7941   4.894   5.817   3.581  0.0399 -0.4626 -0.2298
   85SOPE   H5X 7942   4.850   5.919   3.581  0.7710 -0.1343  0.9988
   85SOPE   H5Y 7943   4.965   5.805   3.495 -0.5597 -0.9574 -0.6649
   85SOPE   C36 7944   4.971   5.782   3.713  0.3520 -0.1395  0.0358
   85SOPE   H6X 7945   5.046   5.859   3.744 -0.7472  0.5992  0.9546
   85SOPE   H6Y 7946   5.031   5.690   3.699  1.2154 -0.0273  2.5366
   85SOPE   C37 7947   4.879   5.757   3.835 -0.7185  0.2237  0.1212
   85SOPE   H7X 7948   4.807   5.679   3.802 -0.9191  0.2006  0.6033
   85SOPE   H7Y 7949   4.823   5.851   3.853 -1.1636  0.5329 -2.4266
   85SOPE   C38 7950   4.964   5.704   3.951 -0.6564  0.3694  0.1715
   85SOPE   H8X 7951   5.048   5.777   3.957 -0.0471 -0.2825 -0.3221
   85SOPE   H8Y 7952   5.019   5.609   3.935 -0.2569  1.0962 -3.8620
   85SOPE   C39 7953   4.892   5.695   4.087 -0.2153 -0.4579  0.1131
   85SOPE   H9X 7954   4.803   5.629   4.079  0.2234 -0.8876 -1.7056
   85SOPE   H9Y 7955   4.856   5.795   4.118  0.3732  0.3847 -1.7334
   85SOPE  C310 7956   4.987   5.630   4.190 -1.0444 -0.0645 -0.8079
   85SOPE  H10X 7957   5.067   5.706   4.206 -3.3073  2.0529  1.2447
   85SOPE  H10Y 7958   5.028   5.537   4.145  0.1538 -0.0608  0.2089
   85SOPE  C311 7959   4.921   5.591   4.326  0.0455 -0.0438  0.0899
   85SOPE  H11X 7960   4.833   5.523   4.318 -0.8881  0.8770  1.9688
   85SOPE  H11Y 7961   4.871   5.684   4.358 -0.7677  0.6578 -2.8878
   85SOPE  C312 7962   5.028   5.542   4.420  0.4105 -0.3513  0.5021
   85SOPE  H12X 7963   5.115   5.610   4.429 -0.9731  1.5905 -0.0596
   85SOPE  H12Y 7964   5.060   5.443   4.380 -0.7937  0.1470 -1.8261
   85SOPE  C313 7965   4.976   5.523   4.565  0.2203  0.1258  0.7155
   85SOPE  H13X 7966   4.928   5.623   4.573  1.5641  0.7730  1.1001
   85SOPE  H13Y 7967   5.060   5.520   4.638  1.2099 -1.6996 -0.4314
   85SOPE  C314 7968   4.894   5.405   4.574  0.1036  0.5940 -1.1304
   85SOPE  H14X 7969   4.943   5.323   4.518 -0.7967 -1.3290  0.7657
   85SOPE  H14Y 7970   4.803   5.440   4.520  0.4558  1.7043 -1.0319
   85SOPE  C315 7971   4.865   5.352   4.718  0.5042  0.0905  0.2769
   85SOPE  H15X 7972   4.961   5.305   4.748 -0.1599 -0.5518  1.4696
   85SOPE  H15Y 7973   4.799   5.263   4.724 -0.0828  0.4449 -0.6521
   85SOPE  C316 7974   4.831   5.466   4.813 -0.3027  0.6719 -0.6892
   85SOPE  H16X 7975   4.737   5.515   4.778 -1.2481 -0.0806  0.7033
   85SOPE  H16Y 7976   4.915   5.538   4.825 -1.2008  1.5332  0.8793
   85SOPE  C317 7977   4.796   5.413   4.956 -0.6894 -0.2144 -0.0292
   85SOPE  H17X 7978   4.886   5.371   5.005 -0.6902  0.5610  0.6629
   85SOPE  H17Y 7979   4.725   5.327   4.951 -0.4080 -0.5194  0.9238
   85SOPE  C318 7980   4.748   5.527   5.053 -0.7855 -0.0860 -0.5551
   85SOPE  H18X 7981   4.748   5.472   5.150  0.5021 -1.5989 -1.3757
   85SOPE  H18Y 7982   4.648   5.573   5.038  0.2737  2.7827  0.4709
   85SOPE  H18Z 7983   4.819   5.612   5.056 -1.6523  0.6567 -0.7646
   86SOPE     N 7984   4.456   3.293   2.235  0.2073 -0.7743 -0.3033
   86SOPE   HN1 7985   4.433   3.284   2.134 -2.6271 -1.4092  0.3053
   86SOPE   HN2 7986   4.552   3.259   2.252  0.3023 -1.1814 -1.5277
   86SOPE   HN3 7987   4.399   3.218   2.279 -1.4906  1.0055  0.7008
   86SOPE   C12 7988   4.400   3.420   2.287 -0.7465 -0.5535 -0.0625
   86SOPE  H12A 7989   4.342   3.450   2.197 -0.2946 -1.5681 -0.7089
   86SOPE  H12B 7990   4.490   3.484   2.295  0.2741 -1.3493 -3.3427
   86SOPE   C11 7991   4.311   3.419   2.416 -0.1611  0.8102 -0.4477
   86SOPE  H11A 7992   4.220   3.358   2.399  0.1748  0.5072 -1.2080
   86SOPE  H11B 7993   4.281   3.524   2.435 -0.2125  1.1137 -2.0740
   86SOPE     P 7994   4.341   3.336   2.672  0.4986 -0.2660 -0.3014
   86SOPE   O13 7995   4.420   3.225   2.721  0.0192  0.4033 -0.3506
   86SOPE   O14 7996   4.193   3.314   2.674 -0.9054 -0.9285 -0.0868
   86SOPE   O12 7997   4.392   3.364   2.519  0.4722 -0.0814  0.1215
   86SOPE   O11 7998   4.370   3.469   2.760  0.6524 -0.5099 -0.0928
   86SOPE    C1 7999   4.473   3.565   2.722 -0.4159 -0.2332  0.3478
   86SOPE    HA 8000   4.433   3.666   2.700  0.9190  0.2152 -0.1103
   86SOPE    HB 8001   4.517   3.539   2.624  0.2461  1.2554  0.2217
   86SOPE    C2 8002   4.583   3.572   2.833 -0.1305  0.1314  0.9671
   86SOPE    HS 8003   4.633   3.472   2.838  1.1976  0.6318 -1.0049
   86SOPE   O21 8004   4.524   3.600   2.955  0.8373  0.4997  0.5441
   86SOPE   C21 8005   4.572   3.535   3.059  0.6789 -0.4661 -0.4893
   86SOPE   O22 8006   4.651   3.443   3.057 -0.1767  0.0904  0.5062
   86SOPE   C22 8007   4.491   3.581   3.184  0.0894 -0.0933  0.2782
   86SOPE   H2R 8008   4.395   3.624   3.148 -0.1438  0.2561  1.2826
   86SOPE   H2S 8009   4.556   3.662   3.222  0.7827  0.1867 -1.4022
   86SOPE    C3 8010   4.691   3.673   2.799 -0.0030  0.2850 -0.8613
   86SOPE    HX 8011   4.647   3.771   2.775 -2.1207 -0.5087 -0.4345
   86SOPE    HY 8012   4.749   3.640   2.710  0.5794 -0.9924 -0.0505
   86SOPE   O31 8013   4.781   3.699   2.915 -0.1947  0.2378 -0.3880
   86SOPE   C31 8014   4.910   3.720   2.882  0.2992  0.3477 -0.3521
   86SOPE   O32 8015   4.948   3.757   2.771 -0.1283 -0.2972 -0.0594
   86SOPE   C32 8016   4.999   3.704   3.006 -0.0481 -0.2678  0.3543
   86SOPE   H2X 8017   5.065   3.793   3.001  1.1350 -1.1851 -2.8632
   86SOPE   H2Y 8018   5.056   3.613   2.977  0.8263  0.3292  0.1480
   86SOPE   C23 8019   4.494   3.489   3.308  0.6973 -0.4234  0.4710
   86SOPE   H3R 8020   4.580   3.419   3.296  1.4975  0.6861 -0.6443
   86SOPE   H3S 8021   4.409   3.418   3.301  1.5935 -1.5152  0.3557
   86SOPE   C24 8022   4.502   3.574   3.434 -0.1884 -0.0883  0.2478
   86SOPE   H4R 8023   4.593   3.637   3.432  1.4805 -2.3965 -0.7832
   86SOPE   H4S 8024   4.418   3.647   3.429  0.8434  1.1354  0.1892
   86SOPE   C25 8025   4.494   3.480   3.553  0.1766 -0.4378 -0.3212
   86SOPE   H5R 8026   4.419   3.400   3.534  0.4509 -0.0529 -3.5968
   86SOPE   H5S 8027   4.589   3.422   3.557 -0.2925 -1.3358 -1.6501
   86SOPE   C26 8028   4.466   3.544   3.690 -0.5202 -0.3831  0.3025
   86SOPE   H6R 8029   4.546   3.617   3.719  0.4731 -1.7637  1.1649
   86SOPE   H6S 8030   4.384   3.619   3.688 -0.8789 -0.7809  0.0703
   86SOPE   C27 8031   4.453   3.442   3.801  0.8827 -0.3365 -0.2219
   86SOPE   H7R 8032   4.356   3.388   3.796  1.1778 -1.0299  1.0732
   86SOPE   H7S 8033   4.524   3.357   3.790  1.2426  0.0812 -1.2784
   86SOPE   C28 8034   4.456   3.508   3.938  0.2028 -0.4621  0.1376
   86SOPE   H8R 8035   4.444   3.423   4.009 -1.2642  0.2868  0.8207
   86SOPE   H8S 8036   4.559   3.549   3.944 -0.1804  0.3855  1.0781
   86SOPE   C29 8037   4.348   3.601   3.980 -0.4857  0.4058  0.1197
   86SOPE   H91 8038   4.295   3.663   3.906 -0.7198  0.7351  0.5574
   86SOPE  C210 8039   4.304   3.616   4.105 -0.3607 -0.2284 -0.2785
   86SOPE  H101 8040   4.226   3.692   4.122  0.3191  0.3661  0.2067
   86SOPE  C211 8041   4.373   3.562   4.227  0.3119 -0.1247  0.8204
   86SOPE  H11R 8042   4.436   3.643   4.270  0.5168 -0.2235  0.7101
   86SOPE  H11S 8043   4.449   3.483   4.208  0.3768  0.1154  0.0617
   86SOPE  C212 8044   4.273   3.519   4.335 -0.3488 -0.7908 -0.1099
   86SOPE  H12R 8045   4.207   3.440   4.293 -3.3594  1.3605  0.2645
   86SOPE  H12S 8046   4.203   3.603   4.352 -0.3530 -0.6527 -0.7917
   86SOPE  C213 8047   4.339   3.464   4.461  0.1055  0.3216 -0.5544
   86SOPE  H13R 8048   4.392   3.546   4.512  0.8904 -0.5591  0.0705
   86SOPE  H13S 8049   4.416   3.391   4.428  1.2684  1.1106  0.3370
   86SOPE  C214 8050   4.234   3.397   4.549 -0.2670 -0.6866  0.0331
   86SOPE  H14R 8051   4.179   3.322   4.488 -0.1593  0.7819 -1.9910
   86SOPE  H14S 8052   4.152   3.469   4.568 -0.1918 -0.7726  0.6847
   86SOPE  C215 8053   4.294   3.333   4.680  0.0463  0.0950  0.4502
   86SOPE  H15R 8054   4.365   3.250   4.663 -1.6666 -1.6118  1.2925
   86SOPE  H15S 8055   4.208   3.289   4.734  1.4000 -0.3839  2.3158
   86SOPE  C216 8056   4.369   3.435   4.768 -0.0895 -0.9309  0.2885
   86SOPE  H16R 8057   4.311   3.530   4.760  0.3136 -0.7798 -1.1204
   86SOPE  H16S 8058   4.469   3.452   4.723 -1.1568  0.7423 -1.5831
   86SOPE  C217 8059   4.371   3.387   4.909 -0.0093  0.1459  0.0469
   86SOPE  H17R 8060   4.266   3.392   4.944 -0.0818  0.8269 -0.2572
   86SOPE  H17S 8061   4.420   3.467   4.967 -1.7049  1.4411 -0.2364
   86SOPE  C218 8062   4.415   3.246   4.946  0.0118  0.3205 -0.0249
   86SOPE  H18R 8063   4.408   3.227   5.055  1.1037 -2.7508 -0.3810
   86SOPE  H18S 8064   4.522   3.224   4.926  1.0481  0.3972  4.4488
   86SOPE  H18T 8065   4.361   3.163   4.893 -0.6419 -0.6266  2.0269
   86SOPE   C33 8066   4.922   3.696   3.141  0.1798 -0.0748  0.1157
   86SOPE   H3X 8067   4.844   3.618   3.145 -0.1530  0.2157 -0.6364
   86SOPE   H3Y 8068   4.882   3.799   3.153 -0.2244 -0.1328 -0.7192
   86SOPE   C34 8069   5.015   3.659   3.252 -0.7164  0.6172  0.2601
   86SOPE   H4X 8070   5.078   3.748   3.275  1.5971 -0.6095 -1.0408
   86SOPE   H4Y 8071   5.079   3.575   3.220  2.7119  1.9825  2.8186
   86SOPE   C35 8072   4.930   3.621   3.376 -0.1926  0.5166 -0.2921
   86SOPE   H5X 8073   4.886   3.522   3.351  0.1655  0.1665  0.4209
   86SOPE   H5Y 8074   4.840   3.685   3.392  0.4310  1.4425 -0.3942
   86SOPE   C36 8075   5.004   3.616   3.512  0.2302 -0.4876 -0.1057
   86SOPE   H6X 8076   5.051   3.712   3.542 -0.5406  0.1925 -1.0272
   86SOPE   H6Y 8077   5.091   3.552   3.489  1.2788  1.0128 -0.4637
   86SOPE   C37 8078   4.921   3.572   3.635 -0.3259  0.9815  0.4649
   86SOPE   H7X 8079   4.826   3.626   3.657 -0.0341  1.2075  1.1812
   86SOPE   H7Y 8080   4.983   3.599   3.723  0.5158  1.6971 -0.3178
   86SOPE   C38 8081   4.888   3.417   3.639  0.3554  0.2232 -0.0920
   86SOPE   H8X 8082   4.972   3.356   3.598 -0.4375  0.2686 -1.8609
   86SOPE   H8Y 8083   4.806   3.404   3.566 -0.5130  0.2852  0.8455
   86SOPE   C39 8084   4.843   3.369   3.774 -0.5299  0.0248 -0.3027
   86SOPE   H9X 8085   4.812   3.263   3.768 -1.0647  0.0660  1.2241
   86SOPE   H9Y 8086   4.752   3.422   3.809  0.6502  1.5850  0.5867
   86SOPE  C310 8087   4.943   3.388   3.888  0.1895  0.3340  0.0899
   86SOPE  H10X 8088   4.945   3.491   3.931 -2.2696 -0.5223  2.5832
   86SOPE  H10Y 8089   5.038   3.361   3.837 -1.6663 -4.5497 -1.3876
   86SOPE  C311 8090   4.921   3.286   4.007  0.2402 -1.2586  0.0387
   86SOPE  H11X 8091   5.013   3.283   4.069 -0.9083  2.9106  2.2857
   86SOPE  H11Y 8092   4.925   3.189   3.954 -1.7460 -0.7277 -1.1802
   86SOPE  C312 8093   4.800   3.298   4.096  0.2535 -0.6445  0.4938
   86SOPE  H12X 8094   4.710   3.295   4.031 -0.9279  1.0758  1.9387
   86SOPE  H12Y 8095   4.792   3.399   4.143 -1.5669  0.3330 -1.7170
   86SOPE  C313 8096   4.789   3.190   4.198  0.1420  0.0929  0.3451
   86SOPE  H13X 8097   4.850   3.203   4.290 -0.1963  0.2606  0.5456
   86SOPE  H13Y 8098   4.823   3.094   4.154  0.9552  0.5934 -0.1451
   86SOPE  C314 8099   4.650   3.163   4.247  0.6633 -0.1601 -0.2075
   86SOPE  H14X 8100   4.595   3.154   4.151  2.3617 -0.7626 -1.1514
   86SOPE  H14Y 8101   4.616   3.255   4.299  0.0628 -1.2220  1.3553
   86SOPE  C315 8102   4.634   3.036   4.333  0.1682 -0.9033  0.3332
   86SOPE  H15X 8103   4.717   2.964   4.325  0.2525 -0.9731  1.5964
   86SOPE  H15Y 8104   4.542   2.982   4.302  0.1887 -0.4952 -0.4553
   86SOPE  C316 8105   4.633   3.064   4.487  0.3296  0.0942 -0.0260
   86SOPE  H16X 8106   4.546   3.131   4.506 -0.2028 -0.7527  0.5911
   86SOPE  H16Y 8107   4.728   3.112   4.517  0.3951 -0.2046  0.2526
   86SOPE  C317 8108   4.612   2.934   4.573 -0.1853  0.4436  0.3089
   86SOPE  H17X 8109   4.686   2.859   4.538 -2.5648 -1.9249  0.0916
   86SOPE  H17Y 8110   4.521   2.882   4.536 -0.5944 -0.4394  2.4520
   86SOPE  C318 8111   4.596   2.949   4.717  0.1891 -0.2247 -0.6301
   86SOPE  H18X 8112   4.696   2.967   4.763 -0.6613  0.7887  0.9369
   86SOPE  H18Y 8113   4.546   2.855   4.748 -0.4004 -0.2840 -1.7018
   86SOPE  H18Z 8114   4.527   3.030   4.749 -0.7202 -1.7455  1.4562
   87SOPE     N 8115   0.005   2.983   3.006 -0.4907 -0.2991  0.2152
   87SOPE   HN1 8116   0.101   2.945   3.016 -0.2301  0.2640 -0.0750
   87SOPE   HN2 8117   0.014   3.076   3.054  0.4202 -0.0503 -0.3993
   87SOPE   HN3 8118  -0.067   2.929   3.058 -0.2390 -0.8175  0.0321
   87SOPE   C12 8119  -0.030   3.011   2.862 -0.2556  0.0110 -0.1034
   87SOPE  H12A 8120  -0.007   2.926   2.794  1.0407  1.8101 -2.0592
   87SOPE  H12B 8121   0.032   3.095   2.824 -1.4670 -0.1968 -2.7188
   87SOPE   C11 8122  -0.178   3.032   2.841  0.4769 -0.3377 -0.7392
   87SOPE  H11A 8123  -0.237   2.943   2.873 -0.2629  0.4079  0.0369
   87SOPE  H11B 8124  -0.197   3.048   2.733  1.6808 -1.4257 -1.1348
   87SOPE     P 8125  -0.249   3.289   2.895 -0.2962  0.1253  0.3199
   87SOPE   O13 8126  -0.394   3.340   2.901  0.3269 -0.1336  0.6144
   87SOPE   O14 8127  -0.170   3.313   2.770  0.3227  0.1341  1.1085
   87SOPE   O12 8128  -0.241   3.137   2.930 -0.1259 -0.6202 -0.1409
   87SOPE   O11 8129  -0.163   3.336   3.023  0.0409 -0.7843 -0.5632
   87SOPE    C1 8130  -0.181   3.472   3.068  0.1986  1.0856 -0.6357
   87SOPE    HA 8131  -0.235   3.538   2.997  0.4805  1.2072 -0.7402
   87SOPE    HB 8132  -0.083   3.522   3.088  1.3287 -0.7822 -1.2300
   87SOPE    C2 8133  -0.255   3.489   3.208 -0.3017  0.0557  0.7883
   87SOPE    HS 8134  -0.262   3.596   3.238 -0.6785  1.3558 -3.3266
   87SOPE   O21 8135  -0.199   3.407   3.306 -0.3091 -0.2380  0.4747
   87SOPE   C21 8136  -0.099   3.475   3.367  0.3636  0.0659 -0.4372
   87SOPE   O22 8137  -0.053   3.582   3.333  0.4472 -0.0942  0.3903
   87SOPE   C22 8138  -0.040   3.386   3.473  0.2058  0.0068 -0.2286
   87SOPE   H2R 8139   0.069   3.408   3.473  0.6825 -2.1085  0.6851
   87SOPE   H2S 8140  -0.057   3.281   3.441 -0.8150  0.7018 -2.1433
   87SOPE    C3 8141  -0.406   3.452   3.188  0.0958  0.3862 -0.2757
   87SOPE    HX 8142  -0.411   3.341   3.176 -0.6270  0.6184 -2.3683
   87SOPE    HY 8143  -0.438   3.508   3.098  1.9611  1.1231 -0.5101
   87SOPE   O31 8144  -0.499   3.497   3.295 -0.3476  0.0068 -0.3033
   87SOPE   C31 8145  -0.594   3.420   3.332  0.8908 -0.0052  0.1569
   87SOPE   O32 8146  -0.596   3.300   3.314  0.5717  0.6240  0.1915
   87SOPE   C32 8147  -0.699   3.491   3.417 -0.4469 -0.4097  0.3687
   87SOPE   H2X 8148  -0.768   3.415   3.460 -0.4685 -0.2143  0.6900
   87SOPE   H2Y 8149  -0.767   3.547   3.349 -0.6121 -0.0088  0.8599
   87SOPE   C23 8150  -0.098   3.419   3.616  0.5050 -0.6823  0.6075
   87SOPE   H3R 8151  -0.207   3.398   3.626  0.1744  0.5110 -0.1288
   87SOPE   H3S 8152  -0.109   3.530   3.626 -2.3519 -0.8218 -0.0040
   87SOPE   C24 8153  -0.020   3.365   3.731 -0.6826  0.2791  0.2183
   87SOPE   H4R 8154   0.001   3.264   3.690  0.8600  0.3388  0.8195
   87SOPE   H4S 8155   0.071   3.429   3.736  0.9445 -1.9066  0.0090
   87SOPE   C25 8156  -0.104   3.345   3.856  0.6982  0.5079  0.2589
   87SOPE   H5R 8157  -0.144   3.443   3.889  1.4644 -0.0697  3.1163
   87SOPE   H5S 8158  -0.190   3.278   3.835  0.8635  0.3593  0.0485
   87SOPE   C26 8159  -0.031   3.281   3.975 -0.0619 -0.7138  0.3945
   87SOPE   H6R 8160   0.024   3.189   3.948  1.2283  0.4633 -1.2030
   87SOPE   H6S 8161   0.046   3.349   4.019  0.5457 -1.5984  0.7303
   87SOPE   C27 8162  -0.133   3.252   4.086 -0.1376  0.3936 -0.8583
   87SOPE   H7R 8163  -0.173   3.345   4.129 -1.2754 -0.6811  0.5037
   87SOPE   H7S 8164  -0.213   3.192   4.037  0.0014 -0.7640  0.2553
   87SOPE   C28 8165  -0.075   3.167   4.206  0.5896 -1.0949  0.0871
   87SOPE   H8R 8166  -0.043   3.075   4.153 -0.3936 -1.4715  0.1322
   87SOPE   H8S 8167   0.012   3.229   4.238 -1.2985  0.7573  1.9592
   87SOPE   C29 8168  -0.175   3.143   4.322  0.0400 -0.4837 -0.2859
   87SOPE   H91 8169  -0.277   3.120   4.289 -1.3384  0.8913  2.6445
   87SOPE  C210 8170  -0.154   3.159   4.457  0.2563  0.3506 -0.0726
   87SOPE  H101 8171  -0.234   3.134   4.528  1.3897 -0.0528  1.1138
   87SOPE  C211 8172  -0.033   3.201   4.542  0.0616  0.0318  0.3031
   87SOPE  H11R 8173  -0.039   3.293   4.604 -0.4153  1.2083 -1.4323
   87SOPE  H11S 8174   0.032   3.240   4.461 -1.1125  0.9848 -0.2056
   87SOPE  C212 8175   0.039   3.098   4.630  0.0260 -0.0663 -0.1239
   87SOPE  H12R 8176   0.138   3.141   4.654 -0.7197  0.5669  2.0282
   87SOPE  H12S 8177   0.057   3.001   4.579  1.2495 -1.2559  2.3616
   87SOPE  C213 8178  -0.029   3.071   4.773 -1.0759  0.2356 -0.6530
   87SOPE  H13R 8179   0.035   3.000   4.830  2.4218  3.6056  0.0597
   87SOPE  H13S 8180  -0.133   3.033   4.763 -1.2376  0.5040 -0.0664
   87SOPE  C214 8181  -0.021   3.192   4.868 -0.0948 -0.0947  0.6399
   87SOPE  H14R 8182  -0.062   3.283   4.818  1.0002  0.4901  0.7755
   87SOPE  H14S 8183   0.083   3.221   4.894  0.4770 -0.7209 -0.8327
   87SOPE  C215 8184  -0.103   3.164   4.999  0.3329 -0.4309  0.0005
   87SOPE  H15R 8185  -0.065   3.069   5.042  0.7382 -0.9098 -1.3689
   87SOPE  H15S 8186  -0.211   3.150   4.978  0.0242  0.1469  1.1442
   87SOPE  C216 8187  -0.087   3.285   5.099 -1.2234  0.2499  0.4127
   87SOPE  H16R 8188  -0.145   3.372   5.060 -0.9608 -0.5439 -1.9092
   87SOPE  H16S 8189   0.019   3.315   5.116 -1.9123  1.9905  2.0023
   87SOPE  C217 8190  -0.138   3.245   5.234  0.3463 -0.2519 -0.1278
   87SOPE  H17R 8191  -0.059   3.228   5.310 -1.5186  2.2714  2.5879
   87SOPE  H17S 8192  -0.194   3.149   5.234  3.6466 -2.3522  0.4676
   87SOPE  C218 8193  -0.224   3.353   5.297 -0.8353  0.4223 -0.2406
   87SOPE  H18R 8194  -0.170   3.448   5.314  2.1953 -0.5822 -3.1921
   87SOPE  H18S 8195  -0.260   3.310   5.393 -2.7800  1.0983 -0.6216
   87SOPE  H18T 8196  -0.318   3.375   5.242 -0.5034 -1.8832 -1.9024
   87SOPE   C33 8197  -0.643   3.596   3.518  0.2633  0.4007 -0.0520
   87SOPE   H3X 8198  -0.728   3.647   3.568 -1.4160 -2.8176  0.6726
   87SOPE   H3Y 8199  -0.585   3.672   3.463  0.5978  0.7672  0.7900
   87SOPE   C34 8200  -0.559   3.530   3.625 -0.2764  0.0826  0.5432
   87SOPE   H4X 8201  -0.454   3.512   3.592 -0.4003  0.9049 -0.3723
   87SOPE   H4Y 8202  -0.604   3.435   3.659 -0.9690  0.0827 -0.3465
   87SOPE   C35 8203  -0.554   3.614   3.743 -0.3927  0.3566 -0.5943
   87SOPE   H5X 8204  -0.647   3.673   3.754 -1.2242 -0.0133 -4.4751
   87SOPE   H5Y 8205  -0.476   3.693   3.735 -1.4607  1.6538  1.2046
   87SOPE   C36 8206  -0.532   3.537   3.867  0.1243 -0.0414  0.2399
   87SOPE   H6X 8207  -0.446   3.471   3.847 -1.5217 -2.5115  0.9037
   87SOPE   H6Y 8208  -0.622   3.484   3.905  1.0131  0.7136  3.8139
   87SOPE   C37 8209  -0.497   3.627   3.984  0.0450  0.4083  0.4178
   87SOPE   H7X 8210  -0.593   3.678   4.007 -0.5289 -0.4729 -0.0054
   87SOPE   H7Y 8211  -0.414   3.694   3.953  0.6320 -0.3107  0.4187
   87SOPE   C38 8212  -0.444   3.538   4.103  1.0729  0.0317  0.0011
   87SOPE   H8X 8213  -0.350   3.487   4.074  1.5038 -0.4335  2.0500
   87SOPE   H8Y 8214  -0.517   3.455   4.114  3.5017 -2.4666 -1.3848
   87SOPE   C39 8215  -0.441   3.624   4.229 -0.0432  0.0039 -0.1642
   87SOPE   H9X 8216  -0.544   3.657   4.255 -0.3414  0.7964 -2.2148
   87SOPE   H9Y 8217  -0.376   3.711   4.206 -0.0009  0.0694  0.1886
   87SOPE  C310 8218  -0.391   3.538   4.351 -0.3234 -0.8774  0.9057
   87SOPE  H10X 8219  -0.340   3.613   4.415  1.8422 -0.4894 -1.1336
   87SOPE  H10Y 8220  -0.315   3.463   4.319  0.1959 -0.0687  0.2069
   87SOPE  C311 8221  -0.510   3.485   4.418 -0.0486  0.0416 -0.4094
   87SOPE  H11X 8222  -0.585   3.442   4.347  1.3874  0.2163 -2.0937
   87SOPE  H11Y 8223  -0.552   3.577   4.465 -0.0485 -0.0575 -0.2155
   87SOPE  C312 8224  -0.484   3.399   4.538  0.0785 -0.5259  0.1301
   87SOPE  H12X 8225  -0.400   3.446   4.594  0.2826  0.3866 -0.8894
   87SOPE  H12Y 8226  -0.451   3.298   4.506  0.5563 -0.5794  0.7575
   87SOPE  C313 8227  -0.613   3.377   4.616  0.5578 -0.0801 -0.4271
   87SOPE  H13X 8228  -0.692   3.349   4.544  0.7684  1.2248 -1.1955
   87SOPE  H13Y 8229  -0.647   3.469   4.669 -0.5541 -0.7428  0.0550
   87SOPE  C314 8230  -0.611   3.267   4.723 -0.4206 -0.4288 -0.3199
   87SOPE  H14X 8231  -0.519   3.264   4.785  0.0137  0.3512 -0.9128
   87SOPE  H14Y 8232  -0.639   3.174   4.669 -4.8009 -0.0040  0.8296
   87SOPE  C315 8233  -0.722   3.299   4.817  0.0783  0.8288 -0.5710
   87SOPE  H15X 8234  -0.815   3.312   4.758  0.5294 -3.6007 -2.6710
   87SOPE  H15Y 8235  -0.699   3.391   4.874  0.4791  1.7119 -2.1108
   87SOPE  C316 8236  -0.756   3.186   4.920  0.0166 -0.5407  0.2729
   87SOPE  H16X 8237  -0.655   3.153   4.952  0.9223  1.6528 -0.1457
   87SOPE  H16Y 8238  -0.798   3.106   4.855 -1.3192  0.8037 -0.5731
   87SOPE  C317 8239  -0.838   3.226   5.039  0.8525 -0.9233  0.4541
   87SOPE  H17X 8240  -0.945   3.245   5.014  1.1883  2.2099  0.9681
   87SOPE  H17Y 8241  -0.803   3.318   5.091 -0.3672  0.6143 -1.3143
   87SOPE  C318 8242  -0.839   3.126   5.156 -0.1324 -0.0928  0.6655
   87SOPE  H18X 8243  -0.730   3.113   5.174  1.5012  3.7487 -3.9702
   87SOPE  H18Y 8244  -0.896   3.039   5.117 -0.3582  0.5967 -0.5900
   87SOPE  H18Z 8245  -0.897   3.157   5.246 -0.3443  0.2527  0.4134
   88SOPE     N 8246   1.408   4.003   2.973  0.6750  0.1121  0.1705
   88SOPE   HN1 8247   1.387   3.924   3.038  0.9265 -2.1116 -2.2564
   88SOPE   HN2 8248   1.497   3.981   2.923 -0.6082 -0.0576 -2.1880
   88SOPE   HN3 8249   1.427   4.094   3.018  2.1641  0.8383 -1.7579
   88SOPE   C12 8250   1.292   4.023   2.884  0.3102  0.5975 -0.6210
   88SOPE  H12A 8251   1.286   3.931   2.823  0.4906 -0.9154  1.5354
   88SOPE  H12B 8252   1.312   4.116   2.826  1.4679 -0.0417 -1.2833
   88SOPE   C11 8253   1.164   4.039   2.978  0.4212  0.5948 -0.2575
   88SOPE  H11A 8254   1.077   4.075   2.919 -0.8191  0.3312  1.3317
   88SOPE  H11B 8255   1.176   4.127   3.045 -0.3897  0.2395  0.3769
   88SOPE     P 8256   1.071   3.794   2.994  0.3256 -0.7323  0.1239
   88SOPE   O13 8257   1.171   3.722   2.911  0.4154 -0.2446  0.4708
   88SOPE   O14 8258   0.951   3.830   2.918 -0.1503  0.2085 -0.1607
   88SOPE   O12 8259   1.137   3.921   3.058 -0.4191 -0.9503  0.4031
   88SOPE   O11 8260   1.032   3.697   3.114 -0.1900  0.2427  0.3851
   88SOPE    C1 8261   1.125   3.689   3.226 -0.2649 -0.0868  0.3646
   88SOPE    HA 8262   1.215   3.754   3.213 -1.3532  1.3382 -0.2767
   88SOPE    HB 8263   1.170   3.588   3.231  2.5856  1.0677  0.2826
   88SOPE    C2 8264   1.058   3.730   3.360  0.1873  0.5930 -0.0094
   88SOPE    HS 8265   1.139   3.730   3.435 -1.3522 -1.6655  1.8061
   88SOPE   O21 8266   0.941   3.653   3.392  0.3627  0.1125 -0.5991
   88SOPE   C21 8267   0.928   3.631   3.522 -0.3962 -0.0437 -0.1819
   88SOPE   O22 8268   1.017   3.645   3.610  0.8029 -0.2718  0.0258
   88SOPE   C22 8269   0.789   3.576   3.546 -0.0966 -0.1447  0.3232
   88SOPE   H2R 8270   0.761   3.524   3.452 -0.3973  2.4897 -1.1248
   88SOPE   H2S 8271   0.737   3.673   3.531  2.7370  1.3380 -0.5168
   88SOPE    C3 8272   1.010   3.875   3.360  0.5632 -0.5935 -0.0171
   88SOPE    HX 8273   0.903   3.868   3.332  0.0974  0.9274  1.1821
   88SOPE    HY 8274   1.061   3.933   3.280 -1.6999 -0.5076 -1.4969
   88SOPE   O31 8275   1.011   3.926   3.494 -0.2527 -0.1470 -0.3500
   88SOPE   C31 8276   1.091   4.026   3.522  0.0723  0.0779  0.8947
   88SOPE   O32 8277   1.168   4.081   3.448  0.3982  0.5147  0.2595
   88SOPE   C32 8278   1.086   4.060   3.673  0.6027 -0.4618  0.2593
   88SOPE   H2X 8279   0.997   4.121   3.701  0.1698 -0.8443 -0.2563
   88SOPE   H2Y 8280   1.175   4.121   3.699  1.7579 -1.8568 -0.2680
   88SOPE   C23 8281   0.768   3.492   3.670 -0.4831 -0.6005 -0.1843
   88SOPE   H3R 8282   0.840   3.408   3.663 -2.0468 -1.9070 -1.4934
   88SOPE   H3S 8283   0.670   3.441   3.655 -0.6046  0.0593 -1.8433
   88SOPE   C24 8284   0.775   3.568   3.798 -0.0187  0.5002  0.5887
   88SOPE   H4R 8285   0.869   3.627   3.807  1.6344 -2.0923  1.4336
   88SOPE   H4S 8286   0.691   3.639   3.808 -0.8528 -0.2640 -0.8128
   88SOPE   C25 8287   0.770   3.456   3.907  0.8725 -0.2269 -0.1917
   88SOPE   H5R 8288   0.689   3.384   3.884  2.4799 -1.7794 -1.2588
   88SOPE   H5S 8289   0.865   3.398   3.913  1.0142 -0.2280 -2.0284
   88SOPE   C26 8290   0.730   3.522   4.036  0.1645  0.4365 -1.2666
   88SOPE   H6R 8291   0.806   3.597   4.067 -0.3521  0.4856 -0.0819
   88SOPE   H6S 8292   0.635   3.579   4.027 -0.7412 -0.3731  1.8997
   88SOPE   C27 8293   0.703   3.418   4.155 -0.1364 -0.6714  0.1167
   88SOPE   H7R 8294   0.642   3.469   4.233  1.4737  0.8314  0.4562
   88SOPE   H7S 8295   0.628   3.343   4.123 -1.3329  0.1848  0.8320
   88SOPE   C28 8296   0.831   3.347   4.205 -0.5191 -0.5205  0.2677
   88SOPE   H8R 8297   0.796   3.280   4.287 -1.2275  0.4028  0.7406
   88SOPE   H8S 8298   0.878   3.283   4.127  0.6419 -0.2178  0.6892
   88SOPE   C29 8299   0.933   3.452   4.247 -0.5062 -0.5569  0.0491
   88SOPE   H91 8300   1.004   3.474   4.165 -0.9449  2.4497  0.3615
   88SOPE  C210 8301   0.924   3.526   4.363  0.2971 -0.4151  0.7670
   88SOPE  H101 8302   1.008   3.593   4.389  0.1251 -0.2644  0.9369
   88SOPE  C211 8303   0.826   3.515   4.477  0.0717 -0.2693 -0.3399
   88SOPE  H11R 8304   0.740   3.449   4.451  0.7577 -1.7472  1.0015
   88SOPE  H11S 8305   0.789   3.618   4.495  0.6689 -0.0665 -0.2743
   88SOPE  C212 8306   0.881   3.448   4.597 -0.9663 -0.1192 -0.6716
   88SOPE  H12R 8307   0.918   3.344   4.586 -0.2472  0.1307 -0.6502
   88SOPE  H12S 8308   0.799   3.448   4.672 -0.9589 -1.5510 -0.6504
   88SOPE  C213 8309   0.994   3.533   4.674 -1.1315 -0.8292  0.4581
   88SOPE  H13R 8310   0.947   3.632   4.687 -0.2896 -0.4975  1.1153
   88SOPE  H13S 8311   1.087   3.535   4.613 -1.2393 -1.1329  0.2797
   88SOPE  C214 8312   1.029   3.470   4.815  0.1621  0.3224  0.3220
   88SOPE  H14R 8313   1.118   3.519   4.860  1.7422 -2.1048  0.0050
   88SOPE  H14S 8314   1.065   3.367   4.797  0.2587  0.5734 -1.0304
   88SOPE  C215 8315   0.899   3.476   4.910  0.0696  1.1707 -0.1966
   88SOPE  H15R 8316   0.841   3.381   4.913  1.8974 -0.0105 -0.3656
   88SOPE  H15S 8317   0.843   3.567   4.881 -0.3736  0.9076 -0.1683
   88SOPE  C216 8318   0.947   3.504   5.057 -0.2279 -0.2343  0.5315
   88SOPE  H16R 8319   1.020   3.588   5.060 -0.3898 -0.1098  1.2101
   88SOPE  H16S 8320   0.991   3.407   5.088 -2.3859 -1.5218 -0.1826
   88SOPE  C217 8321   0.831   3.547   5.146 -0.5553  1.0079 -0.8500
   88SOPE  H17R 8322   0.747   3.475   5.154  0.0749  0.2732 -0.6525
   88SOPE  H17S 8323   0.787   3.636   5.095 -1.6714 -0.6994 -3.0462
   88SOPE  C218 8324   0.889   3.571   5.283 -0.1826 -0.3934  0.0103
   88SOPE  H18R 8325   0.983   3.630   5.280  0.3723 -0.9457  3.1093
   88SOPE  H18S 8326   0.918   3.469   5.316  2.2970  0.8198  1.8989
   88SOPE  H18T 8327   0.813   3.617   5.350  0.9624  0.7236  0.5920
   88SOPE   C33 8328   1.086   3.937   3.771 -0.0962  0.4159 -0.9418
   88SOPE   H3X 8329   1.183   3.885   3.762 -0.2998 -0.0925 -0.2953
   88SOPE   H3Y 8330   1.001   3.868   3.751  0.5716 -0.3169 -1.3281
   88SOPE   C34 8331   1.067   3.982   3.920  0.1569  0.1856  0.4757
   88SOPE   H4X 8332   0.971   4.035   3.934  0.5379  0.8958  0.4575
   88SOPE   H4Y 8333   1.157   4.036   3.957  0.6246 -0.2185 -0.0581
   88SOPE   C35 8334   1.078   3.862   4.020  0.4377  0.0075  0.4617
   88SOPE   H5X 8335   1.178   3.859   4.069  0.7585 -0.6567 -0.2237
   88SOPE   H5Y 8336   1.066   3.767   3.963 -0.5109 -0.2882  1.1212
   88SOPE   C36 8337   0.961   3.871   4.120 -0.3214 -0.1937  0.3918
   88SOPE   H6X 8338   0.953   3.771   4.167  0.1720 -0.0145  0.8756
   88SOPE   H6Y 8339   0.868   3.889   4.064  0.6394 -2.6633 -2.2226
   88SOPE   C37 8340   0.982   3.980   4.218  0.9756 -0.2458  0.4391
   88SOPE   H7X 8341   1.025   4.067   4.163 -2.5694  0.9331 -0.7647
   88SOPE   H7Y 8342   1.054   3.952   4.297 -0.7080  0.6387  2.3637
   88SOPE   C38 8343   0.850   4.023   4.289  0.1769  0.1308  0.1022
   88SOPE   H8X 8344   0.812   3.927   4.328  0.1463  0.6948  1.5504
   88SOPE   H8Y 8345   0.777   4.061   4.214  0.5356  0.2203 -0.2055
   88SOPE   C39 8346   0.865   4.127   4.411 -0.0558  0.4104  1.0044
   88SOPE   H9X 8347   0.774   4.182   4.442  0.4198  0.2683  2.7573
   88SOPE   H9Y 8348   0.922   4.214   4.371 -0.3221 -0.5435 -1.6539
   88SOPE  C310 8349   0.935   4.075   4.532  0.3371  0.0895  0.0513
   88SOPE  H10X 8350   0.949   4.167   4.594 -0.1034 -0.7635  1.4517
   88SOPE  H10Y 8351   1.037   4.042   4.502 -0.5871 -3.2533  0.2054
   88SOPE  C311 8352   0.873   3.960   4.616 -0.3785 -0.1140  0.4222
   88SOPE  H11X 8353   0.861   3.874   4.547 -0.0130 -0.9940  1.4390
   88SOPE  H11Y 8354   0.767   3.988   4.635 -0.6344 -1.3191  0.8143
   88SOPE  C312 8355   0.945   3.940   4.749 -0.7624  0.3887  0.4889
   88SOPE  H12X 8356   0.888   3.860   4.800  1.1428 -1.1632  0.2826
   88SOPE  H12Y 8357   0.937   4.036   4.804 -0.7350  0.5048  0.2907
   88SOPE  C313 8358   1.090   3.893   4.741  0.8810  0.4273  0.5109
   88SOPE  H13X 8359   1.157   3.976   4.708  0.6455  0.3526 -0.1829
   88SOPE  H13Y 8360   1.105   3.808   4.671  1.5608  0.1593  0.9751
   88SOPE  C314 8361   1.138   3.839   4.876 -0.7727 -0.1498 -1.3040
   88SOPE  H14X 8362   1.064   3.762   4.905  0.0091 -0.6431 -0.5722
   88SOPE  H14Y 8363   1.128   3.917   4.955 -2.2682  0.1357 -1.7391
   88SOPE  C315 8364   1.282   3.799   4.867 -0.4973 -0.1313  0.3146
   88SOPE  H15X 8365   1.342   3.871   4.807 -1.4421  0.1964 -0.2606
   88SOPE  H15Y 8366   1.297   3.695   4.832  0.6055 -0.7590  2.4666
   88SOPE  C316 8367   1.356   3.809   5.008  0.9241 -0.0856  0.0760
   88SOPE  H16X 8368   1.367   3.917   5.031  0.3074  0.3518 -1.5806
   88SOPE  H16Y 8369   1.463   3.780   5.004  1.1796  0.3446  2.3426
   88SOPE  C317 8370   1.296   3.738   5.125 -0.4645 -0.4443  0.1800
   88SOPE  H17X 8371   1.298   3.628   5.119 -2.1894 -0.4484 -0.6369
   88SOPE  H17Y 8372   1.190   3.771   5.131 -0.8908 -1.9658  1.5729
   88SOPE  C318 8373   1.366   3.779   5.263  0.5942 -0.0727 -0.5371
   88SOPE  H18X 8374   1.300   3.741   5.344  2.8701 -0.0222  1.4655
   88SOPE  H18Y 8375   1.371   3.889   5.270 -0.8807  0.2198 -2.8263
   88SOPE  H18Z 8376   1.466   3.730   5.266  0.3745 -0.4661  0.8395
   89SAPC     N 8377   6.401   5.668   7.793  0.3733 -0.1305 -0.0410
   89SAPC   C12 8378   6.512   5.718   7.700 -0.3052  0.2917  0.1157
   89SAPC  H12A 8379   6.604   5.677   7.741 -1.0931 -2.6059 -0.7965
   89SAPC  H12B 8380   6.512   5.824   7.717 -3.3391 -0.1745  4.5936
   89SAPC   C13 8381   6.415   5.526   7.813 -0.2297 -0.0175 -0.4634
   89SAPC  H13A 8382   6.500   5.500   7.874 -1.7618 -0.9250  1.3988
   89SAPC  H13B 8383   6.324   5.487   7.857 -2.0137  1.1906 -2.8896
   89SAPC  H13C 8384   6.444   5.482   7.719  1.1586 -3.8922  1.5506
   89SAPC   C14 8385   6.414   5.733   7.929  0.3892  0.1865 -0.2361
   89SAPC  H14A 8386   6.504   5.703   7.982  1.2982  1.7787 -0.8164
   89SAPC  H14B 8387   6.410   5.841   7.935 -0.5404  0.2183 -1.1404
   89SAPC  H14C 8388   6.344   5.700   8.004 -0.7182  1.0350 -0.8776
   89SAPC   C15 8389   6.261   5.694   7.737  0.7296 -0.1952  0.0935
   89SAPC  H15A 8390   6.245   5.800   7.727 -0.6419 -0.5128 -1.4857
   89SAPC  H15B 8391   6.251   5.638   7.645  0.6440 -0.3239  0.1803
   89SAPC  H15C 8392   6.183   5.663   7.805 -1.9854 -0.8046 -3.0436
   89SAPC   C11 8393   6.510   5.682   7.546 -0.4721  0.3464 -0.5972
   89SAPC  H11A 8394   6.589   5.741   7.493  1.7492 -0.5601  1.5050
   89SAPC  H11B 8395   6.418   5.726   7.501  0.6528  2.2973 -1.1136
   89SAPC     P 8396   6.668   5.492   7.466 -0.3407  0.0042 -0.1696
   89SAPC   O13 8397   6.779   5.531   7.548  0.5195  0.3781 -0.0387
   89SAPC   O14 8398   6.657   5.347   7.445  0.8439 -0.0647 -0.0477
   89SAPC   O12 8399   6.529   5.547   7.524 -0.1795  0.6036  0.2746
   89SAPC   O11 8400   6.676   5.555   7.325 -0.6814 -0.3129  0.6224
   89SAPC    C1 8401   6.558   5.560   7.241 -0.0327  0.3629 -0.6016
   89SAPC    HA 8402   6.486   5.475   7.250  0.2520  0.0983 -0.7748
   89SAPC    HB 8403   6.502   5.653   7.264  0.9554  0.8003  0.1159
   89SAPC    C2 8404   6.579   5.569   7.086 -0.5132  0.7056  0.0102
   89SAPC    HS 8405   6.485   5.619   7.052  0.3344  2.2442 -0.1837
   89SAPC   O21 8406   6.612   5.439   7.031 -1.0853 -0.2529 -0.1953
   89SAPC   C21 8407   6.521   5.385   6.947 -0.3879  0.0090 -0.0344
   89SAPC   O22 8408   6.428   5.449   6.903 -0.3929 -0.0776  0.0196
   89SAPC   C22 8409   6.563   5.247   6.916  0.7493  0.1707 -0.0835
   89SAPC   H2R 8410   6.672   5.251   6.898  0.6661 -1.6294 -1.2816
   89SAPC   H2S 8411   6.550   5.184   7.007 -1.1820  0.3468 -0.1855
   89SAPC    C3 8412   6.696   5.662   7.053 -1.1536 -0.1438  0.5095
   89SAPC    HX 8413   6.790   5.618   7.093 -1.0857  0.2596  0.8023
   89SAPC    HY 8414   6.679   5.754   7.113 -1.6001  0.9655 -1.2430
   89SAPC   O31 8415   6.694   5.713   6.919  0.1510 -0.4356  0.3206
   89SAPC   C31 8416   6.760   5.625   6.842 -0.1244 -0.4074  0.5017
   89SAPC   O32 8417   6.836   5.539   6.885 -0.0615 -0.1670  0.1947
   89SAPC   C32 8418   6.757   5.670   6.704 -0.0257 -0.5749  0.4640
   89SAPC   H2X 8419   6.820   5.602   6.642  0.2194 -0.4640  0.5902
   89SAPC   H2Y 8420   6.788   5.777   6.702 -5.2157  1.1797 -0.0675
   89SAPC   C23 8421   6.488   5.173   6.795 -0.3814  0.2194  0.2495
   89SAPC   H3R 8422   6.379   5.195   6.801 -0.5336 -0.6936  0.9895
   89SAPC   H3S 8423   6.500   5.064   6.813 -0.5398  0.5458  2.7091
   89SAPC   C24 8424   6.548   5.207   6.660 -0.4647 -0.3906  0.1106
   89SAPC   H4R 8425   6.655   5.175   6.657 -0.2590  0.2676  0.3297
   89SAPC   H4S 8426   6.555   5.318   6.660  1.5086 -0.4632 -1.0941
   89SAPC   C25 8427   6.464   5.155   6.542  0.3899  0.1541 -0.8015
   89SAPC   H5R 8428   6.491   5.055   6.504 -0.7441  0.3070 -2.0650
   89SAPC   C26 8429   6.363   5.222   6.480 -0.3151  0.3470 -0.0433
   89SAPC   H6R 8430   6.308   5.168   6.403  1.2404  0.2680 -1.1504
   89SAPC   C27 8431   6.324   5.361   6.509  0.4621 -0.6385  0.2635
   89SAPC   H7R 8432   6.371   5.429   6.435  0.6401 -2.2546 -1.1886
   89SAPC   H7S 8433   6.359   5.402   6.606 -0.1699 -1.6091  0.9128
   89SAPC   C28 8434   6.174   5.390   6.500 -0.7463  0.1068  0.1575
   89SAPC   H8R 8435   6.111   5.373   6.588 -2.1948 -0.0126 -0.8702
   89SAPC   C29 8436   6.105   5.447   6.398  0.2659  0.0684 -0.8157
   89SAPC   H9R 8437   5.996   5.444   6.405  0.2031 -1.3231 -1.8464
   89SAPC  C210 8438   6.158   5.489   6.268 -0.1916  0.0193  0.1806
   89SAPC  H10R 8439   6.208   5.588   6.279 -0.7535  0.1147  2.2125
   89SAPC  H10S 8440   6.065   5.507   6.210  0.1061  2.4451  0.3164
   89SAPC  C211 8441   6.242   5.395   6.191  0.0745  0.6069  0.0931
   89SAPC  H11R 8442   6.280   5.306   6.244  0.4854  0.9571  0.3991
   89SAPC  C212 8443   6.298   5.426   6.076 -0.4323  0.3957  0.2607
   89SAPC  H12R 8444   6.375   5.359   6.035 -0.5259  0.1763  0.4451
   89SAPC  C213 8445   6.275   5.552   5.999 -0.5454 -0.7437 -0.6290
   89SAPC  H13R 8446   6.361   5.582   5.935  0.1335  0.7769  0.9031
   89SAPC  H13S 8447   6.288   5.632   6.075  3.0831  1.7180 -3.4676
   89SAPC  C214 8448   6.151   5.562   5.922  0.5271 -0.4723 -0.0752
   89SAPC  H14R 8449   6.091   5.470   5.933  3.7504 -2.6839  0.3856
   89SAPC  C215 8450   6.103   5.663   5.851 -0.2581 -0.6362  0.0908
   89SAPC  H15R 8451   6.006   5.650   5.801 -0.5533  1.3527  0.0583
   89SAPC  C216 8452   6.171   5.795   5.830 -0.0210  0.4101 -0.4761
   89SAPC  H16R 8453   6.281   5.790   5.846 -0.0497  1.8295  0.3431
   89SAPC  H16S 8454   6.122   5.865   5.901 -0.0791  1.0472 -1.1351
   89SAPC  C217 8455   6.145   5.863   5.691  0.2934 -0.4559 -0.4734
   89SAPC  H17R 8456   6.160   5.973   5.699 -2.7670  0.3660 -3.6122
   89SAPC  H17S 8457   6.039   5.850   5.662  0.5946  2.0715 -3.1849
   89SAPC  C218 8458   6.227   5.811   5.582 -0.5528 -0.6129  0.7205
   89SAPC  H18R 8459   6.175   5.722   5.544  0.5123 -1.5694  1.4207
   89SAPC  H18S 8460   6.332   5.788   5.613  0.5813 -0.8102 -2.8447
   89SAPC  C219 8461   6.243   5.907   5.454  0.6770  0.6813 -0.3484
   89SAPC  H19R 8462   6.141   5.949   5.443 -0.2115 -1.1643  0.3631
   89SAPC  H19S 8463   6.270   5.852   5.361  0.7277 -0.0612  0.1027
   89SAPC  C220 8464   6.356   6.007   5.475  0.6430 -0.7514 -0.2559
   89SAPC  H20R 8465   6.456   5.960   5.489  0.4868 -1.1527 -0.4743
   89SAPC  H20S 8466   6.329   6.067   5.565  1.0279  0.4462 -0.9134
   89SAPC  H20T 8467   6.370   6.068   5.383  0.4783 -0.2668  0.0318
   89SAPC   C33 8468   6.615   5.654   6.644 -0.0211 -0.1414  0.3055
   89SAPC   H3X 8469   6.549   5.675   6.731  2.7939 -2.7465  3.3784
   89SAPC   H3Y 8470   6.597   5.546   6.627  0.0532 -0.1481  0.2660
   89SAPC   C34 8471   6.578   5.736   6.522 -0.2974  0.1264  0.1336
   89SAPC   H4X 8472   6.589   5.846   6.534  0.8495 -0.0698  1.0051
   89SAPC   H4Y 8473   6.468   5.729   6.506 -0.2843  2.0009 -1.0899
   89SAPC   C35 8474   6.653   5.694   6.393  0.0269 -0.6995  0.2306
   89SAPC   H5X 8475   6.642   5.583   6.388  1.6181 -0.8233 -2.0064
   89SAPC   H5Y 8476   6.762   5.714   6.398 -0.1366  0.0781  0.9447
   89SAPC   C36 8477   6.590   5.741   6.264  0.2969 -0.4548  0.2294
   89SAPC   H6X 8478   6.479   5.751   6.266  0.3250 -0.2136  0.9060
   89SAPC   H6Y 8479   6.598   5.665   6.183 -1.4482 -1.4349  0.9150
   89SAPC   C37 8480   6.638   5.880   6.227 -1.0643  0.5062  0.2440
   89SAPC   H7X 8481   6.748   5.886   6.222 -1.0861 -0.0445 -2.4913
   89SAPC   H7Y 8482   6.603   5.955   6.301  0.2551  0.7463  0.6324
   89SAPC   C38 8483   6.590   5.904   6.080  0.4901  0.3652 -0.1412
   89SAPC   H8X 8484   6.605   6.013   6.065  1.5910 -0.1360 -3.4844
   89SAPC   H8Y 8485   6.482   5.882   6.061  0.4906  0.5832 -0.3999
   89SAPC   C39 8486   6.676   5.845   5.970  0.4347  0.4352 -0.3436
   89SAPC   H9X 8487   6.775   5.818   6.011 -0.3058  0.5839  1.6700
   89SAPC   H9Y 8488   6.694   5.926   5.896  0.0836 -0.7816 -1.7997
   89SAPC  C310 8489   6.599   5.735   5.906  0.2227 -0.3457 -0.1341
   89SAPC  H10X 8490   6.493   5.753   5.881  0.0888  1.5352  1.4883
   89SAPC  H10Y 8491   6.590   5.646   5.972 -0.3122 -1.0495 -1.1395
   89SAPC  C311 8492   6.670   5.690   5.783  0.2541  0.3817  0.1048
   89SAPC  H11X 8493   6.763   5.637   5.812 -1.8190 -3.1934  0.9046
   89SAPC  H11Y 8494   6.695   5.783   5.727 -0.6790 -0.2040 -1.3528
   89SAPC  C312 8495   6.591   5.595   5.700 -0.0442 -0.2943  0.0009
   89SAPC  H12X 8496   6.499   5.642   5.660  0.0105 -1.4919 -1.6361
   89SAPC  H12Y 8497   6.562   5.512   5.768 -0.6337 -1.5887 -1.7548
   89SAPC  C313 8498   6.672   5.540   5.579 -0.2113  0.3743 -0.5825
   89SAPC  H13X 8499   6.760   5.482   5.614 -1.5556 -0.8853  0.9041
   89SAPC  H13Y 8500   6.711   5.627   5.523  0.2421  2.8281  3.2007
   89SAPC  C314 8501   6.584   5.448   5.496  0.2878 -0.2195  0.9029
   89SAPC  H14X 8502   6.636   5.435   5.399  0.7602  0.6507  1.0315
   89SAPC  H14Y 8503   6.489   5.501   5.475  1.0109  1.3810  1.5433
   89SAPC  C315 8504   6.570   5.302   5.557  0.0146 -0.5162 -0.3683
   89SAPC  H15X 8505   6.460   5.304   5.571  0.1460 -0.7570  0.8478
   89SAPC  H15Y 8506   6.611   5.290   5.660 -3.5892 -0.1831  1.2448
   89SAPC  C316 8507   6.613   5.194   5.461 -0.4399  0.2549 -0.5753
   89SAPC  H16X 8508   6.722   5.175   5.469 -0.6074 -0.6809 -0.4258
   89SAPC  H16Y 8509   6.596   5.213   5.353  2.0100 -0.5371 -1.1786
   89SAPC  C317 8510   6.559   5.051   5.486 -0.6071 -0.3797  0.4854
   89SAPC  H17X 8511   6.449   5.060   5.504 -0.4700 -0.9426  1.7435
   89SAPC  H17Y 8512   6.599   5.025   5.586 -0.9119 -0.3080  0.6302
   89SAPC  C318 8513   6.605   4.950   5.382 -0.2698  0.0094  0.6502
   89SAPC  H18X 8514   6.536   4.865   5.404  0.6728 -1.1730 -0.7780
   89SAPC  H18Y 8515   6.713   4.926   5.391  0.2550  1.1207 -1.9293
   89SAPC  H18Z 8516   6.589   4.975   5.275  1.6247 -2.8818 -0.4447
   90SAPC     N 8517   6.127   0.692   7.439 -0.8691 -0.2120 -0.1060
   90SAPC   C12 8518   6.126   0.734   7.292  0.1826  0.0388  0.0671
   90SAPC  H12A 8519   6.078   0.830   7.275  1.7779  0.2046 -5.4861
   90SAPC  H12B 8520   6.063   0.670   7.232 -0.3291  2.1454 -1.8310
   90SAPC   C13 8521   5.983   0.674   7.485 -0.2051 -0.8282  0.1614
   90SAPC  H13A 8522   5.929   0.605   7.421 -1.1568  0.5481 -0.5866
   90SAPC  H13B 8523   5.969   0.637   7.585 -1.8805 -0.2853  0.1683
   90SAPC  H13C 8524   5.918   0.760   7.489 -2.4164 -2.3405 -0.7671
   90SAPC   C14 8525   6.180   0.549   7.441  1.0518  0.0534 -0.8225
   90SAPC  H14A 8526   6.282   0.546   7.404  1.5982 -0.1815  0.6431
   90SAPC  H14B 8527   6.181   0.496   7.535 -0.7533 -0.4115 -1.0270
   90SAPC  H14C 8528   6.128   0.485   7.371  0.7189 -3.1108  2.0328
   90SAPC   C15 8529   6.208   0.785   7.523 -0.2123 -0.1545 -0.0696
   90SAPC  H15A 8530   6.186   0.891   7.517  0.8761  0.2297  1.9322
   90SAPC  H15B 8531   6.210   0.751   7.625  0.4195 -1.7972 -0.5920
   90SAPC  H15C 8532   6.310   0.776   7.486 -0.5668 -2.0229 -0.7258
   90SAPC   C11 8533   6.267   0.741   7.234 -0.1400  0.7051  0.0923
   90SAPC  H11A 8534   6.347   0.798   7.285  0.5892  0.7265 -1.0421
   90SAPC  H11B 8535   6.265   0.793   7.135  2.7571 -0.0272 -0.4211
   90SAPC     P 8536   6.292   0.501   7.101  0.4760 -0.1139 -0.0225
   90SAPC   O13 8537   6.406   0.493   7.010 -0.5974  0.2945 -0.0798
   90SAPC   O14 8538   6.241   0.374   7.154  0.9473  0.0898  0.4013
   90SAPC   O12 8539   6.324   0.604   7.217  0.2015 -0.4267 -0.8373
   90SAPC   O11 8540   6.168   0.579   7.026 -0.8137 -0.5568 -0.0574
   90SAPC    C1 8541   6.202   0.656   6.905  0.6992  0.0273 -1.2946
   90SAPC    HA 8542   6.271   0.737   6.939 -0.4967  0.9984 -1.1287
   90SAPC    HB 8543   6.253   0.590   6.832  0.9289  0.3615 -1.4371
   90SAPC    C2 8544   6.076   0.728   6.845  0.3566 -0.4773 -0.5337
   90SAPC    HS 8545   6.032   0.802   6.915  1.8473  0.5323 -0.6174
   90SAPC   O21 8546   5.980   0.623   6.803  0.2213 -0.0541  0.0196
   90SAPC   C21 8547   5.860   0.657   6.788  0.4817  0.5749  0.2462
   90SAPC   O22 8548   5.813   0.767   6.808 -0.5553 -0.0267  0.1289
   90SAPC   C22 8549   5.789   0.542   6.722 -0.1261 -0.0414 -0.4534
   90SAPC   H2R 8550   5.854   0.483   6.653  0.0971 -2.2878  1.5451
   90SAPC   H2S 8551   5.762   0.486   6.814 -0.0129  0.3514 -0.1790
   90SAPC    C3 8552   6.124   0.803   6.722 -0.2817  0.7201 -0.1514
   90SAPC    HX 8553   6.127   0.731   6.638 -1.6317  2.3295 -1.6611
   90SAPC    HY 8554   6.225   0.844   6.743 -0.9733  1.1624  2.7406
   90SAPC   O31 8555   6.041   0.909   6.674  0.2734 -1.3129  0.2927
   90SAPC   C31 8556   6.050   1.019   6.750 -0.7148 -0.3285  0.8202
   90SAPC   O32 8557   6.141   1.043   6.828 -0.2239 -0.1853  0.0248
   90SAPC   C32 8558   5.940   1.122   6.721  0.2832  0.3303 -0.2393
   90SAPC   H2X 8559   5.974   1.216   6.769  0.9566 -0.5751  1.1325
   90SAPC   H2Y 8560   5.845   1.092   6.771  1.3692  1.8524  3.0675
   90SAPC   C23 8561   5.660   0.597   6.657 -0.1993  0.3813 -0.0177
   90SAPC   H3R 8562   5.603   0.671   6.717 -1.1754  0.1516 -0.6384
   90SAPC   H3S 8563   5.585   0.515   6.659  0.0962 -0.0191 -2.3352
   90SAPC   C24 8564   5.675   0.630   6.510  0.0992 -0.1941 -0.2343
   90SAPC   H4R 8565   5.571   0.640   6.473  0.4660 -0.1645 -1.3064
   90SAPC   H4S 8566   5.721   0.539   6.465  0.2629 -0.2433  0.0275
   90SAPC   C25 8567   5.743   0.763   6.490 -0.5457  0.4895  0.5049
   90SAPC   H5R 8568   5.785   0.818   6.576  1.2413 -0.0214 -0.0041
   90SAPC   C26 8569   5.779   0.805   6.367 -0.5367  0.0489 -0.3933
   90SAPC   H6R 8570   5.811   0.907   6.343  1.2408 -0.0859  1.1687
   90SAPC   C27 8571   5.766   0.715   6.244 -0.4459 -0.2519 -0.2977
   90SAPC   H7R 8572   5.807   0.615   6.268 -0.2033 -0.2343 -0.6395
   90SAPC   H7S 8573   5.840   0.765   6.179  0.4657 -0.6941  0.3699
   90SAPC   C28 8574   5.630   0.705   6.185  0.5959 -0.1776 -0.3900
   90SAPC   H8R 8575   5.547   0.680   6.254  0.7158 -1.5099 -0.6972
   90SAPC   C29 8576   5.586   0.735   6.063 -0.2848 -0.0490  0.5640
   90SAPC   H9R 8577   5.479   0.723   6.039 -0.3481 -1.5050  1.4419
   90SAPC  C210 8578   5.680   0.776   5.944 -0.0946 -0.2884  0.3202
   90SAPC  H10R 8579   5.779   0.728   5.961  0.6257  1.4414  1.3032
   90SAPC  H10S 8580   5.687   0.887   5.951 -0.4041 -0.3291  1.6563
   90SAPC  C211 8581   5.615   0.733   5.812 -0.0994  0.2375 -0.0576
   90SAPC  H11R 8582   5.505   0.733   5.808 -0.1017 -0.0793 -0.0227
   90SAPC  C212 8583   5.689   0.711   5.701  0.2761 -0.1707  0.4243
   90SAPC  H12R 8584   5.637   0.703   5.604 -1.4979 -0.5475  1.3611
   90SAPC  C213 8585   5.841   0.725   5.690 -0.1187  0.2401  0.9338
   90SAPC  H13R 8586   5.884   0.648   5.757  0.1177 -2.1567 -1.7739
   90SAPC  H13S 8587   5.876   0.825   5.724 -0.4075  0.2947  1.0766
   90SAPC  C214 8588   5.892   0.697   5.547 -0.1065  0.2401 -0.2111
   90SAPC  H14R 8589   5.825   0.739   5.471 -2.6931  1.1849  2.4233
   90SAPC  C215 8590   6.006   0.615   5.520  0.4041 -0.3007 -0.6176
   90SAPC  H15R 8591   6.029   0.611   5.413 -0.2497  1.7514 -0.8591
   90SAPC  C216 8592   6.101   0.554   5.618  0.4831  0.0451  0.4665
   90SAPC  H16R 8593   6.055   0.457   5.647 -0.0535 -0.6978 -2.5218
   90SAPC  H16S 8594   6.117   0.627   5.701  0.0995  1.0236 -0.2951
   90SAPC  C217 8595   6.232   0.528   5.557  0.1413  0.1321  0.2067
   90SAPC  H17R 8596   6.275   0.627   5.532  0.2729 -0.3642 -1.6665
   90SAPC  H17S 8597   6.245   0.443   5.487  2.5616 -1.0016  1.8746
   90SAPC  C218 8598   6.329   0.477   5.662 -0.8098  0.9847  0.4968
   90SAPC  H18R 8599   6.283   0.382   5.697 -0.0395  0.7427  0.8800
   90SAPC  H18S 8600   6.335   0.555   5.742 -0.1069  2.6911 -1.1538
   90SAPC  C219 8601   6.473   0.451   5.612 -0.7702  0.6555 -0.4358
   90SAPC  H19R 8602   6.541   0.428   5.697 -0.1521  1.0366 -0.8158
   90SAPC  H19S 8603   6.507   0.548   5.569 -0.4863  0.0643 -1.5919
   90SAPC  C220 8604   6.499   0.338   5.518 -0.2044  0.0866 -0.3891
   90SAPC  H20R 8605   6.481   0.239   5.566  2.3448  0.7282  2.1543
   90SAPC  H20S 8606   6.608   0.339   5.496 -0.6417  1.3869 -2.7421
   90SAPC  H20T 8607   6.437   0.344   5.426  1.1722  2.4968 -1.2397
   90SAPC   C33 8608   5.929   1.129   6.571  0.5557  0.1761 -1.7858
   90SAPC   H3X 8609   5.902   1.031   6.526  4.1404 -1.7258 -0.1960
   90SAPC   H3Y 8610   6.033   1.152   6.537  0.4793  1.2872 -1.2990
   90SAPC   C34 8611   5.830   1.244   6.539  0.7545  0.4134  0.4240
   90SAPC   H4X 8612   5.883   1.341   6.548  1.4830  0.0030  0.7186
   90SAPC   H4Y 8613   5.746   1.246   6.612 -0.1467  1.6317 -0.6252
   90SAPC   C35 8614   5.771   1.225   6.400  0.0646  0.1703  0.6324
   90SAPC   H5X 8615   5.690   1.299   6.377  0.4738  0.4541  0.0830
   90SAPC   H5Y 8616   5.715   1.130   6.388 -0.3671  0.6254 -1.4309
   90SAPC   C36 8617   5.877   1.228   6.287 -0.8356 -0.0047 -0.7827
   90SAPC   H6X 8618   5.972   1.181   6.321 -0.8835  0.4647  0.0183
   90SAPC   H6Y 8619   5.903   1.333   6.261  0.6634 -0.6296 -1.9954
   90SAPC   C37 8620   5.828   1.162   6.157  0.1137 -0.0343 -0.7323
   90SAPC   H7X 8621   5.740   1.201   6.101  0.7116  1.4196 -0.6853
   90SAPC   H7Y 8622   5.800   1.056   6.174 -3.0355  0.7150 -0.5813
   90SAPC   C38 8623   5.942   1.160   6.052  0.3480  0.0736  0.1300
   90SAPC   H8X 8624   6.026   1.094   6.080 -0.0484 -0.4157  0.1859
   90SAPC   H8Y 8625   5.978   1.265   6.049 -1.7620  0.9135  1.5730
   90SAPC   C39 8626   5.885   1.121   5.916  0.1741  0.3239  0.1395
   90SAPC   H9X 8627   5.844   1.017   5.920  1.0052  0.0119  0.8697
   90SAPC   H9Y 8628   5.971   1.111   5.847  1.6573  1.2801  1.7844
   90SAPC  C310 8629   5.783   1.211   5.847 -0.2885  0.1561 -0.0328
   90SAPC  H10X 8630   5.815   1.317   5.833  1.0679 -0.3037 -0.6069
   90SAPC  H10Y 8631   5.685   1.205   5.899  0.4664 -0.6287  1.3478
   90SAPC  C311 8632   5.759   1.163   5.698  0.4010  0.3194 -0.0149
   90SAPC  H11X 8633   5.792   1.058   5.683 -0.5087  0.0422 -0.1001
   90SAPC  H11Y 8634   5.819   1.227   5.629 -0.4066  0.9397 -0.1544
   90SAPC  C312 8635   5.612   1.192   5.652  0.2318 -0.1829 -0.3968
   90SAPC  H12X 8636   5.591   1.295   5.689 -0.3928 -0.7800  0.9568
   90SAPC  H12Y 8637   5.542   1.110   5.679 -1.8069  1.5417 -0.2036
   90SAPC  C313 8638   5.613   1.204   5.499  0.1544  0.2542  0.0496
   90SAPC  H13X 8639   5.671   1.117   5.464 -1.6531 -1.5711  1.3266
   90SAPC  H13Y 8640   5.664   1.295   5.460 -2.8419  2.0626  0.0028
   90SAPC  C314 8641   5.468   1.206   5.452  1.0709 -0.1006  0.1731
   90SAPC  H14X 8642   5.407   1.286   5.498 -0.4939  1.4972 -4.2306
   90SAPC  H14Y 8643   5.419   1.110   5.478 -3.9745  2.4306  1.2338
   90SAPC  C315 8644   5.460   1.226   5.296  0.6971  0.0100 -1.2820
   90SAPC  H15X 8645   5.536   1.160   5.249  0.0824 -1.6187 -0.0850
   90SAPC  H15Y 8646   5.488   1.332   5.281 -1.7310  0.6720 -1.7281
   90SAPC  C316 8647   5.321   1.191   5.240  0.3777  0.0056  0.7252
   90SAPC  H16X 8648   5.317   1.083   5.267 -1.5286 -0.3356 -0.7421
   90SAPC  H16Y 8649   5.327   1.196   5.129 -0.7942  2.0361  0.7105
   90SAPC  C317 8650   5.196   1.265   5.290  0.0709 -0.3273  0.8856
   90SAPC  H17X 8651   5.202   1.374   5.271  2.1264 -0.0669  2.6543
   90SAPC  H17Y 8652   5.213   1.256   5.400 -0.2746 -0.2863  0.9427
   90SAPC  C318 8653   5.062   1.200   5.260  0.5798 -0.3737  0.8279
   90SAPC  H18X 8654   5.039   1.181   5.153  1.5560  0.0547  0.5320
   90SAPC  H18Y 8655   4.982   1.268   5.296 -0.1189 -0.2355 -0.8791
   90SAPC  H18Z 8656   5.046   1.102   5.309 -0.2995  1.3774  4.3864
   91SAPC     N 8657   1.122   3.458   7.559 -0.0238 -0.6119  0.1307
   91SAPC   C12 8658   1.102   3.483   7.410 -0.1845  0.5129  0.6121
   91SAPC  H12A 8659   1.182   3.544   7.372 -2.1565  1.5936 -2.1301
   91SAPC  H12B 8660   1.007   3.533   7.398  0.1637  0.5901 -2.8431
   91SAPC   C13 8661   0.989   3.423   7.614  0.4288 -0.0785 -0.3611
   91SAPC  H13A 8662   0.990   3.403   7.720 -3.1964  2.1397  0.2506
   91SAPC  H13B 8663   0.913   3.500   7.607 -1.8158 -2.1198  0.2849
   91SAPC  H13C 8664   0.952   3.341   7.554 -1.2553  0.5367 -0.2182
   91SAPC   C14 8665   1.220   3.351   7.598 -0.1894 -0.2749 -0.1960
   91SAPC  H14A 8666   1.324   3.379   7.587  0.2409 -1.8185 -0.3368
   91SAPC  H14B 8667   1.205   3.327   7.703 -0.1935 -0.4747 -0.2424
   91SAPC  H14C 8668   1.207   3.257   7.548  0.0505 -0.2767 -0.2524
   91SAPC   C15 8669   1.164   3.593   7.617  0.1928  0.0629 -1.1556
   91SAPC  H15A 8670   1.251   3.629   7.564  0.0992  0.9327 -0.7373
   91SAPC  H15B 8671   1.084   3.666   7.622  1.6227  1.7032  3.2944
   91SAPC  H15C 8672   1.186   3.571   7.721 -0.6226  0.4495 -0.8886
   91SAPC   C11 8673   1.080   3.369   7.312 -0.1127 -0.0683 -0.2227
   91SAPC  H11A 8674   1.168   3.303   7.326 -0.0534  0.0437 -0.0611
   91SAPC  H11B 8675   1.077   3.410   7.208  1.1141 -1.1550 -0.7140
   91SAPC     P 8676   0.928   3.153   7.335 -0.1630  0.0301  0.1599
   91SAPC   O13 8677   1.011   3.097   7.443 -0.3027  0.1462  0.0521
   91SAPC   O14 8678   0.788   3.108   7.318 -0.4663 -0.4070  0.0966
   91SAPC   O12 8679   0.945   3.313   7.330  0.1644  0.2834  0.6070
   91SAPC   O11 8680   1.008   3.129   7.200  0.0540 -0.3095 -0.2757
   91SAPC    C1 8681   0.946   3.158   7.072  0.0338  0.3417  0.7019
   91SAPC    HA 8682   0.852   3.217   7.078  0.7272  1.4243  1.0797
   91SAPC    HB 8683   1.015   3.215   7.007 -1.3538  1.0701 -0.1861
   91SAPC    C2 8684   0.903   3.029   7.000  0.1569  0.0811 -0.3299
   91SAPC    HS 8685   0.899   2.955   7.083  1.5491 -0.3835 -0.6493
   91SAPC   O21 8686   1.009   2.985   6.913  0.0705  0.3683  0.8179
   91SAPC   C21 8687   0.993   2.865   6.853 -0.0406 -0.3653 -0.6526
   91SAPC   O22 8688   0.906   2.782   6.875 -0.6978 -0.2371 -0.5257
   91SAPC   C22 8689   1.101   2.835   6.745 -0.1164  0.3906  0.1485
   91SAPC   H2R 8690   1.197   2.829   6.800 -1.5078  0.4766  2.7401
   91SAPC   H2S 8691   1.076   2.737   6.698 -1.5455  0.6506  0.3309
   91SAPC    C3 8692   0.762   3.040   6.934  0.3302  0.3244 -0.0213
   91SAPC    HX 8693   0.694   3.091   7.006  0.7772  1.2943 -0.2772
   91SAPC    HY 8694   0.716   2.945   6.900  0.5790  1.2797 -3.3751
   91SAPC   O31 8695   0.755   3.132   6.820 -0.5938 -0.1855 -0.9612
   91SAPC   C31 8696   0.662   3.132   6.729  0.2331  0.5783  0.1841
   91SAPC   O32 8697   0.567   3.055   6.728  0.2734  0.2591  0.6582
   91SAPC   C32 8698   0.701   3.239   6.636 -0.5108 -0.0805  0.0364
   91SAPC   H2X 8699   0.805   3.223   6.601 -0.9087  1.2157 -1.8901
   91SAPC   H2Y 8700   0.686   3.339   6.683 -2.0308 -0.0312 -0.4953
   91SAPC   C23 8701   1.122   2.935   6.627 -0.2758  0.1704  0.0757
   91SAPC   H3R 8702   1.210   2.899   6.570 -1.1911  2.3055 -2.9252
   91SAPC   H3S 8703   1.157   3.034   6.663 -0.9969  0.5294 -0.1894
   91SAPC   C24 8704   1.004   2.934   6.532 -0.8136  0.6432  0.1671
   91SAPC   H4R 8705   0.923   2.984   6.590 -3.0261  0.2306 -2.3440
   91SAPC   H4S 8706   0.969   2.833   6.500  2.2200 -0.2490 -0.6764
   91SAPC   C25 8707   1.031   3.019   6.407 -0.4766  0.4099  0.1941
   91SAPC   H5R 8708   1.031   3.127   6.424  0.7694  0.3885  0.4708
   91SAPC   C26 8709   1.054   2.975   6.281 -0.1390 -0.7060  0.1947
   91SAPC   H6R 8710   1.081   3.055   6.210 -2.9530 -0.1864 -0.4029
   91SAPC   C27 8711   1.048   2.839   6.220 -0.7188  0.0635  0.6997
   91SAPC   H7R 8712   1.060   2.843   6.110 -2.6069 -1.0855  0.4062
   91SAPC   H7S 8713   0.947   2.795   6.236 -0.0035 -1.3265  1.6888
   91SAPC   C28 8714   1.148   2.744   6.282  0.2074  0.5544  0.1251
   91SAPC   H8R 8715   1.113   2.717   6.382 -0.9847  2.5714  0.2906
   91SAPC   C29 8716   1.246   2.672   6.225  0.0381 -0.8329 -0.4422
   91SAPC   H9R 8717   1.314   2.617   6.291  1.4527  2.7349  1.2701
   91SAPC  C210 8718   1.301   2.664   6.090 -0.6928 -0.8386 -0.3223
   91SAPC  H10R 8719   1.389   2.596   6.086 -0.3358 -0.4161  0.1524
   91SAPC  H10S 8720   1.330   2.768   6.062 -0.3305 -0.6785  0.6222
   91SAPC  C211 8721   1.193   2.619   5.995 -0.6313 -0.4541  0.2808
   91SAPC  H11R 8722   1.109   2.568   6.045 -0.8801 -1.5201 -1.1749
   91SAPC  C212 8723   1.174   2.648   5.865 -0.7956  0.0606 -0.8341
   91SAPC  H12R 8724   1.086   2.598   5.823 -0.9654  0.0424 -0.4666
   91SAPC  C213 8725   1.266   2.730   5.779  0.1195 -0.5349 -0.2421
   91SAPC  H13R 8726   1.366   2.741   5.826  0.9022 -3.3640 -1.0166
   91SAPC  H13S 8727   1.221   2.831   5.774  0.1053 -0.4651  1.0980
   91SAPC  C214 8728   1.283   2.669   5.643 -0.2542  0.6580  0.1172
   91SAPC  H14R 8729   1.385   2.632   5.625 -0.9872  0.0544 -3.4187
   91SAPC  C215 8730   1.197   2.679   5.542 -0.2180  0.2194 -0.4946
   91SAPC  H15R 8731   1.223   2.623   5.451  0.2670 -0.7936  0.2429
   91SAPC  C216 8732   1.059   2.736   5.554 -0.0108  1.0654  0.6574
   91SAPC  H16R 8733   1.067   2.832   5.498  0.5630  0.5069 -0.2376
   91SAPC  H16S 8734   1.035   2.759   5.660  2.6369 -2.5233  2.2500
   91SAPC  C217 8735   0.957   2.644   5.489  0.1583  0.5683  0.3184
   91SAPC  H17R 8736   0.926   2.569   5.565 -0.8965 -0.0722 -0.7124
   91SAPC  H17S 8737   0.995   2.601   5.394  0.9109  3.0058 -0.5592
   91SAPC  C218 8738   0.834   2.724   5.441 -0.4034  0.6055 -0.0839
   91SAPC  H18R 8739   0.865   2.790   5.356 -0.0866 -1.4971 -1.6817
   91SAPC  H18S 8740   0.794   2.797   5.514 -0.8002  0.6027 -0.2960
   91SAPC  C219 8741   0.726   2.632   5.381  0.0068 -0.0380 -0.0529
   91SAPC  H19R 8742   0.763   2.585   5.287 -1.3502  0.5985 -0.9410
   91SAPC  H19S 8743   0.646   2.700   5.343 -1.3672 -0.4929  1.8906
   91SAPC  C220 8744   0.665   2.540   5.482  0.2867  0.6501 -0.0960
   91SAPC  H20R 8745   0.704   2.572   5.581 -1.8744 -2.0860  1.8029
   91SAPC  H20S 8746   0.691   2.433   5.474  1.5178  0.5800  3.1453
   91SAPC  H20T 8747   0.556   2.556   5.489  0.2615  0.6373 -0.4394
   91SAPC   C33 8748   0.604   3.250   6.505 -0.4639 -0.2488 -0.2380
   91SAPC   H3X 8749   0.498   3.256   6.538  0.1863  1.1185  1.8580
   91SAPC   H3Y 8750   0.616   3.158   6.446  0.5770 -1.0383  1.1341
   91SAPC   C34 8751   0.643   3.377   6.412 -0.2388  0.2614  0.3526
   91SAPC   H4X 8752   0.600   3.350   6.313 -1.9686  1.6787  0.6787
   91SAPC   H4Y 8753   0.752   3.400   6.413 -0.6386  2.4894 -0.6349
   91SAPC   C35 8754   0.568   3.496   6.462  0.4773 -1.1391  0.4590
   91SAPC   H5X 8755   0.619   3.540   6.551  0.1741 -0.1417  0.1483
   91SAPC   H5Y 8756   0.461   3.475   6.480  0.9666 -2.8993  1.5941
   91SAPC   C36 8757   0.566   3.619   6.368  0.2622  0.3072  0.8816
   91SAPC   H6X 8758   0.516   3.595   6.272  1.0466  1.2865  0.1969
   91SAPC   H6Y 8759   0.668   3.662   6.352 -0.8577  3.3419  1.1200
   91SAPC   C37 8760   0.484   3.740   6.424  0.3372 -0.2841  0.1216
   91SAPC   H7X 8761   0.539   3.779   6.512  1.3730  1.1122 -1.0787
   91SAPC   H7Y 8762   0.386   3.715   6.468  0.0936  2.5785  1.4097
   91SAPC   C38 8763   0.482   3.864   6.322  0.6188  0.1237  0.5128
   91SAPC   H8X 8764   0.588   3.894   6.305  0.2123  0.7674 -1.0099
   91SAPC   H8Y 8765   0.430   3.947   6.374  3.6901  2.0769  0.7385
   91SAPC   C39 8766   0.432   3.844   6.183 -0.5217 -0.2886  0.1689
   91SAPC   H9X 8767   0.321   3.842   6.187 -0.4945  0.0395  1.1733
   91SAPC   H9Y 8768   0.494   3.763   6.138  0.1434  0.3867 -0.1576
   91SAPC  C310 8769   0.476   3.964   6.092 -0.4511  0.5368  0.2804
   91SAPC  H10X 8770   0.584   3.969   6.065 -0.6490  1.5222 -0.3702
   91SAPC  H10Y 8771   0.466   4.057   6.152  1.1023  0.6256  0.4524
   91SAPC  C311 8772   0.390   3.984   5.959  0.2129  0.7616 -0.2286
   91SAPC  H11X 8773   0.283   3.965   5.978  0.5495 -1.5557 -0.3842
   91SAPC  H11Y 8774   0.422   3.898   5.897 -1.2263 -0.6014  0.8657
   91SAPC  C312 8775   0.403   4.130   5.902  0.0100 -0.0042  0.1143
   91SAPC  H12X 8776   0.496   4.178   5.938 -1.8598  3.6010  0.6150
   91SAPC  H12Y 8777   0.321   4.199   5.932  0.2041  0.8562 -1.2651
   91SAPC  C313 8778   0.408   4.129   5.750 -0.8674 -0.3145  0.4754
   91SAPC  H13X 8779   0.481   4.061   5.703 -0.4097  1.0512 -0.8834
   91SAPC  H13Y 8780   0.448   4.232   5.735 -2.4771  0.3608  0.6570
   91SAPC  C314 8781   0.279   4.131   5.668  0.3220  0.0818  0.2879
   91SAPC  H14X 8782   0.219   4.222   5.691  1.4112  1.0152 -0.4448
   91SAPC  H14Y 8783   0.216   4.045   5.698 -1.8372  0.9147 -1.5404
   91SAPC  C315 8784   0.293   4.128   5.515 -1.3409  0.0283 -0.0330
   91SAPC  H15X 8785   0.365   4.210   5.493  1.0017 -2.2212 -1.2724
   91SAPC  H15Y 8786   0.209   4.163   5.452  0.0266  1.1030 -1.3349
   91SAPC  C316 8787   0.365   3.998   5.465 -0.2451  0.0215  0.0365
   91SAPC  H16X 8788   0.309   3.912   5.507 -0.5951  0.0205 -0.4250
   91SAPC  H16Y 8789   0.466   3.999   5.510 -0.2137  1.9955 -0.0048
   91SAPC  C317 8790   0.396   4.003   5.311 -0.6271 -0.1480  0.2254
   91SAPC  H17X 8791   0.442   4.104   5.303  1.0149 -0.8686  0.1763
   91SAPC  H17Y 8792   0.302   3.998   5.252  0.8660  1.2092 -2.5071
   91SAPC  C318 8793   0.497   3.900   5.269  0.7498  0.0537 -0.0676
   91SAPC  H18X 8794   0.444   3.803   5.274  2.5930 -1.0065 -0.2242
   91SAPC  H18Y 8795   0.584   3.898   5.338 -0.2603  1.6476  1.3323
   91SAPC  H18Z 8796   0.530   3.926   5.166 -0.2702  1.6816 -0.0256
   92SAPC     N 8797   1.918   6.153   7.207  0.7277  0.2851  0.3587
   92SAPC   C12 8798   1.865   6.295   7.229  0.4370 -0.9695  0.5641
   92SAPC  H12A 8799   1.758   6.289   7.240  0.2112  0.3771 -0.7197
   92SAPC  H12B 8800   1.886   6.359   7.145 -1.7538 -0.8795  0.0294
   92SAPC   C13 8801   1.880   6.104   7.075 -0.2396 -0.2379  1.1081
   92SAPC  H13A 8802   1.780   6.122   7.038  0.5409 -0.1958 -1.1334
   92SAPC  H13B 8803   1.939   6.154   6.999 -1.8857 -0.4377 -0.3870
   92SAPC  H13C 8804   1.898   6.001   7.046  0.2081  0.3477 -0.8759
   92SAPC   C14 8805   2.063   6.145   7.224  0.2087 -0.1418 -0.1884
   92SAPC  H14A 8806   2.098   6.046   7.199  0.8842  0.0283  0.0614
   92SAPC  H14B 8807   2.109   6.228   7.174  0.8149 -0.2205  0.2267
   92SAPC  H14C 8808   2.086   6.158   7.329  0.4769  2.0075 -0.4685
   92SAPC   C15 8809   1.847   6.059   7.306  0.5354 -0.7769  0.0903
   92SAPC  H15A 8810   1.875   5.957   7.284 -0.2906 -0.9752 -0.0724
   92SAPC  H15B 8811   1.872   6.049   7.411 -2.3319 -2.0072  0.7465
   92SAPC  H15C 8812   1.742   6.083   7.298  0.7701  1.2859  2.1707
   92SAPC   C11 8813   1.922   6.377   7.357  0.4236  0.7337  0.1196
   92SAPC  H11A 8814   1.904   6.315   7.448  0.0250 -0.6665 -0.8750
   92SAPC  H11B 8815   1.860   6.466   7.380 -2.1659 -1.1663  1.0825
   92SAPC     P 8816   2.124   6.509   7.245  0.2014 -0.0720  0.4662
   92SAPC   O13 8817   2.098   6.638   7.303  0.0445 -0.3439 -0.5602
   92SAPC   O14 8818   2.267   6.477   7.225  0.8348  0.1759 -0.3368
   92SAPC   O12 8819   2.056   6.403   7.340 -0.2763  0.0509 -0.3576
   92SAPC   O11 8820   2.040   6.496   7.118  0.7087 -0.0259  0.8841
   92SAPC    C1 8821   2.088   6.481   6.988  0.1610  0.2512 -0.0060
   92SAPC    HA 8822   2.176   6.414   6.971 -1.4198 -1.9997  0.3054
   92SAPC    HB 8823   2.006   6.432   6.932  0.2228 -0.0058  0.1309
   92SAPC    C2 8824   2.111   6.612   6.909 -0.1134 -0.2363 -0.3857
   92SAPC    HS 8825   2.207   6.653   6.948 -0.0257 -1.1392  0.4005
   92SAPC   O21 8826   2.007   6.705   6.927 -0.2234  0.1870  0.4556
   92SAPC   C21 8827   2.032   6.837   6.915 -0.3248  0.0313  0.2647
   92SAPC   O22 8828   2.141   6.887   6.893  0.0304 -0.2395  0.1429
   92SAPC   C22 8829   1.902   6.914   6.935 -1.0998 -0.4787  0.7634
   92SAPC   H2R 8830   1.826   6.861   6.873 -1.6957 -0.2119  1.2461
   92SAPC   H2S 8831   1.879   6.888   7.041 -1.8023 -2.8317  0.0927
   92SAPC    C3 8832   2.126   6.585   6.757 -0.2167  0.5187 -0.8208
   92SAPC    HX 8833   2.211   6.514   6.746 -1.1992 -0.8388  0.1210
   92SAPC    HY 8834   2.159   6.681   6.712  0.7110  0.8094  0.4322
   92SAPC   O31 8835   2.000   6.536   6.701  0.0200  0.3557  0.8697
   92SAPC   C31 8836   1.921   6.637   6.659 -0.6356 -1.0112  0.5940
   92SAPC   O32 8837   1.954   6.756   6.658  0.0808 -0.4637  0.5772
   92SAPC   C32 8838   1.785   6.593   6.614 -0.1823 -0.3087  0.2294
   92SAPC   H2X 8839   1.725   6.565   6.703  1.2449 -2.2830  0.6333
   92SAPC   H2Y 8840   1.793   6.499   6.554  2.9379  1.0398 -1.7619
   92SAPC   C23 8841   1.912   7.070   6.922  0.1740 -0.6829  0.0998
   92SAPC   H3R 8842   1.936   7.095   6.816 -0.2987  0.4135  0.2395
   92SAPC   H3S 8843   1.999   7.122   6.967 -1.0550  0.0855  1.6963
   92SAPC   C24 8844   1.790   7.147   6.963  0.3668  0.0373 -0.1584
   92SAPC   H4R 8845   1.818   7.255   6.957  1.7868 -0.1325  2.3090
   92SAPC   H4S 8846   1.775   7.139   7.072  0.4311  1.2371 -0.0436
   92SAPC   C25 8847   1.657   7.112   6.898  0.4077  0.7329  0.5318
   92SAPC   H5R 8848   1.585   7.055   6.959  0.7996  0.3451  0.6406
   92SAPC   C26 8849   1.614   7.160   6.782 -0.1426  0.2009 -0.8995
   92SAPC   H6R 8850   1.512   7.136   6.749  1.2390 -2.3198 -3.9459
   92SAPC   C27 8851   1.698   7.236   6.678 -0.3437  1.0059  0.2887
   92SAPC   H7R 8852   1.784   7.283   6.730 -1.0020  3.2864 -0.5958
   92SAPC   H7S 8853   1.643   7.323   6.637  0.3506  1.4321  0.2420
   92SAPC   C28 8854   1.756   7.136   6.572  0.5939  0.2084  0.4204
   92SAPC   H8R 8855   1.822   7.060   6.616  0.8460  0.9794  1.4446
   92SAPC   C29 8856   1.737   7.138   6.440  0.5316 -0.4902 -0.0647
   92SAPC   H9R 8857   1.794   7.062   6.384  0.3192 -1.1137  0.5434
   92SAPC  C210 8858   1.655   7.238   6.367  0.4339 -0.4643 -0.1040
   92SAPC  H10R 8859   1.624   7.323   6.432 -1.5175 -0.5382 -0.8799
   92SAPC  H10S 8860   1.557   7.187   6.355 -0.2196  0.8925 -0.7838
   92SAPC  C211 8861   1.719   7.273   6.232  0.4752  0.0614  0.5228
   92SAPC  H11R 8862   1.784   7.361   6.228  0.5019  0.0564  0.8356
   92SAPC  C212 8863   1.710   7.207   6.115  0.1058 -0.1742  0.1018
   92SAPC  H12R 8864   1.772   7.250   6.035  3.4242  0.9397  2.9765
   92SAPC  C213 8865   1.620   7.079   6.083  0.4730  0.0679  0.1184
   92SAPC  H13R 8866   1.527   7.112   6.033 -0.8867 -2.7238  0.6103
   92SAPC  H13S 8867   1.594   7.034   6.181  1.8086  0.5564  0.7147
   92SAPC  C214 8868   1.675   6.969   6.000 -0.2140 -0.7983 -0.2782
   92SAPC  H14R 8869   1.758   6.916   6.050  1.4444  1.2220 -0.7752
   92SAPC  C215 8870   1.663   6.942   5.867 -0.3514 -0.0337 -0.3830
   92SAPC  H15R 8871   1.714   6.854   5.825  0.7645  0.2493  0.3374
   92SAPC  C216 8872   1.580   7.019   5.768  0.3599  0.2786  0.2163
   92SAPC  H16R 8873   1.645   7.091   5.714  0.9789 -1.6915 -1.7674
   92SAPC  H16S 8874   1.494   7.056   5.827 -0.6352 -2.5288  0.6501
   92SAPC  C217 8875   1.532   6.914   5.667 -0.5351  0.2078 -0.3663
   92SAPC  H17R 8876   1.461   6.970   5.603 -0.7036 -0.5504 -0.8560
   92SAPC  H17S 8877   1.475   6.830   5.713  1.1214 -0.6218  0.2611
   92SAPC  C218 8878   1.648   6.847   5.583  0.6994  0.1502  1.0766
   92SAPC  H18R 8879   1.707   6.773   5.642  0.4457  1.4121  3.0269
   92SAPC  H18S 8880   1.701   6.936   5.544 -1.1369  0.8005 -0.0683
   92SAPC  C219 8881   1.592   6.764   5.464  0.2449  0.2805  0.6262
   92SAPC  H19R 8882   1.523   6.703   5.526  1.0975  1.5065  2.9049
   92SAPC  H19S 8883   1.681   6.710   5.425  0.0002 -1.4504  2.2804
   92SAPC  C220 8884   1.520   6.846   5.356  0.5831 -0.2323  0.7727
   92SAPC  H20R 8885   1.596   6.899   5.295 -1.9442  2.1793 -0.4779
   92SAPC  H20S 8886   1.437   6.913   5.386 -0.5226 -0.2701 -1.9472
   92SAPC  H20T 8887   1.471   6.785   5.277  2.8441 -2.9186  1.2817
   92SAPC   C33 8888   1.708   6.703   6.539 -0.4469 -0.2358  0.7880
   92SAPC   H3X 8889   1.707   6.802   6.589 -0.0466  0.6631 -0.9159
   92SAPC   H3Y 8890   1.604   6.669   6.518 -0.7156  0.6273  0.6519
   92SAPC   C34 8891   1.771   6.738   6.399 -0.9338  0.2386 -0.4914
   92SAPC   H4X 8892   1.868   6.785   6.425 -0.9846 -0.3059  0.7212
   92SAPC   H4Y 8893   1.702   6.817   6.360 -0.1917  0.3784 -1.5706
   92SAPC   C35 8894   1.780   6.611   6.312  0.1945 -0.0505 -0.1942
   92SAPC   H5X 8895   1.706   6.538   6.353 -0.5749  0.7453 -0.1198
   92SAPC   H5Y 8896   1.878   6.561   6.325 -1.3872 -3.1464  0.8931
   92SAPC   C36 8897   1.748   6.642   6.170 -0.3005 -0.3266  0.7178
   92SAPC   H6X 8898   1.834   6.700   6.129 -0.5674 -1.2647 -1.2964
   92SAPC   H6Y 8899   1.659   6.707   6.164  0.3159  0.5471  0.8023
   92SAPC   C37 8900   1.724   6.523   6.074  0.3490  0.0277 -0.8636
   92SAPC   H7X 8901   1.646   6.465   6.129  0.7655  0.3812  0.1088
   92SAPC   H7Y 8902   1.808   6.453   6.055 -0.9214 -2.2700  1.3395
   92SAPC   C38 8903   1.661   6.558   5.937 -0.0653 -0.7174  0.2461
   92SAPC   H8X 8904   1.719   6.635   5.882 -0.1352 -1.7855 -1.3791
   92SAPC   H8Y 8905   1.563   6.602   5.966  0.0366 -0.8018  0.7363
   92SAPC   C39 8906   1.650   6.440   5.844  0.3921 -0.1013  0.7561
   92SAPC   H9X 8907   1.606   6.354   5.900  0.0145  0.4477  1.3151
   92SAPC   H9Y 8908   1.752   6.415   5.808  0.8625  1.7458  0.7212
   92SAPC  C310 8909   1.557   6.460   5.720 -0.0014  0.1022  0.0061
   92SAPC  H10X 8910   1.600   6.536   5.651 -0.0420  0.3451  0.2479
   92SAPC  H10Y 8911   1.453   6.480   5.756  0.5288  0.0078  1.6759
   92SAPC  C311 8912   1.553   6.329   5.636  0.4164 -0.4788  0.2455
   92SAPC  H11X 8913   1.519   6.241   5.696 -3.0262  1.6674  1.7123
   92SAPC  H11Y 8914   1.651   6.309   5.587 -0.2131 -0.3126 -1.1290
   92SAPC  C312 8915   1.455   6.336   5.516 -0.0331 -0.2166 -0.4355
   92SAPC  H12X 8916   1.499   6.426   5.466 -0.9067 -2.1762 -5.3111
   92SAPC  H12Y 8917   1.353   6.339   5.560 -0.1585 -0.9190 -0.6740
   92SAPC  C313 8918   1.469   6.244   5.402 -0.0681  1.0112 -0.2372
   92SAPC  H13X 8919   1.562   6.257   5.343  0.3190 -1.4533 -0.2434
   92SAPC  H13Y 8920   1.390   6.286   5.336 -0.5529 -0.1778 -0.4332
   92SAPC  C314 8921   1.445   6.100   5.448 -0.3463 -0.4998  0.2676
   92SAPC  H14X 8922   1.351   6.100   5.507  0.7086  0.7573  2.0438
   92SAPC  H14Y 8923   1.530   6.057   5.505 -0.5735  0.0931  1.0635
   92SAPC  C315 8924   1.426   6.018   5.322 -0.0889  0.2670 -0.3363
   92SAPC  H15X 8925   1.526   6.005   5.274  1.5039  1.2405  2.4252
   92SAPC  H15Y 8926   1.373   6.090   5.257 -0.5266  1.7848  1.6153
   92SAPC  C316 8927   1.363   5.872   5.327  0.3215 -0.6382 -0.5087
   92SAPC  H16X 8928   1.259   5.879   5.365 -0.2826  0.8610 -2.2813
   92SAPC  H16Y 8929   1.427   5.812   5.395  2.9540  1.2636 -1.1302
   92SAPC  C317 8930   1.364   5.804   5.188  0.2818 -1.2251 -0.1130
   92SAPC  H17X 8931   1.318   5.702   5.193 -1.3681 -0.5885 -1.2789
   92SAPC  H17Y 8932   1.472   5.783   5.172  0.4425 -1.4353  1.1555
   92SAPC  C318 8933   1.300   5.884   5.077  0.0230 -0.0325  0.4358
   92SAPC  H18X 8934   1.192   5.907   5.094 -0.5100 -1.6651 -0.5388
   92SAPC  H18Y 8935   1.317   5.834   4.979 -1.0746  1.1018 -0.3831
   92SAPC  H18Z 8936   1.336   5.988   5.063  0.4790 -0.3891 -1.2595
   93SAPC     N 8937   4.067   0.111   6.956 -0.0841  0.2982 -0.2225
   93SAPC   C12 8938   4.021   0.091   6.812 -0.1980 -0.2177  0.4983
   93SAPC  H12A 8939   3.914   0.100   6.808 -0.2688  0.6943  2.8325
   93SAPC  H12B 8940   4.049  -0.010   6.785 -2.3278 -0.4499 -1.0748
   93SAPC   C13 8941   4.045   0.251   7.007  0.1067  0.5315  0.6157
   93SAPC  H13A 8942   3.948   0.286   6.975  0.7376  1.9698  0.2221
   93SAPC  H13B 8943   4.041   0.247   7.115  0.8342  0.1583  0.6394
   93SAPC  H13C 8944   4.116   0.325   6.973  1.6899 -1.8585 -1.7085
   93SAPC   C14 8945   3.989   0.023   7.052 -0.4781 -0.0106  0.1508
   93SAPC  H14A 8946   4.015  -0.082   7.048 -1.8658 -0.3838  0.4288
   93SAPC  H14B 8947   4.012   0.052   7.154 -0.0861  0.7946 -0.1609
   93SAPC  H14C 8948   3.885   0.042   7.031 -0.3911  0.9752  0.5674
   93SAPC   C15 8949   4.210   0.064   6.962  0.0800 -0.0443  0.4656
   93SAPC  H15A 8950   4.247   0.070   7.064  0.9595  0.8915  0.1062
   93SAPC  H15B 8951   4.222  -0.040   6.933  1.3302  0.2192 -0.0425
   93SAPC  H15C 8952   4.273   0.117   6.892  1.6715 -4.2195 -1.6125
   93SAPC   C11 8953   4.084   0.196   6.717 -0.8438  0.1992  0.1975
   93SAPC  H11A 8954   4.049   0.298   6.741  0.7812  0.1362  3.2659
   93SAPC  H11B 8955   4.041   0.175   6.616 -1.6018 -1.7058  0.8585
   93SAPC     P 8956   4.320   0.123   6.598  0.3950 -0.0962  0.3705
   93SAPC   O13 8957   4.447   0.192   6.594 -0.0567 -0.1490 -0.1883
   93SAPC   O14 8958   4.328  -0.017   6.632  0.0970 -0.0049  0.0902
   93SAPC   O12 8959   4.227   0.200   6.706  0.3922  0.2563 -1.2095
   93SAPC   O11 8960   4.241   0.131   6.460 -0.2091 -0.0228  0.8540
   93SAPC    C1 8961   4.196   0.253   6.402 -0.2753  0.7064 -0.3051
   93SAPC    HA 8962   4.195   0.339   6.472  0.0191  3.0223 -2.9399
   93SAPC    HB 8963   4.270   0.287   6.327  0.5889 -0.1675  0.1454
   93SAPC    C2 8964   4.057   0.245   6.337  0.2683 -0.0345 -0.3961
   93SAPC    HS 8965   3.979   0.281   6.407 -1.7164  1.6515 -3.2343
   93SAPC   O21 8966   4.034   0.111   6.295  0.3637 -0.1529  0.0456
   93SAPC   C21 8967   3.967   0.033   6.381  0.4329  0.1636  0.4067
   93SAPC   O22 8968   3.889   0.073   6.466  0.0748 -0.6300 -0.3017
   93SAPC   C22 8969   3.973  -0.115   6.350 -0.5793 -0.0361 -0.3218
   93SAPC   H2R 8970   3.895  -0.165   6.410  0.1157 -1.5947 -0.6765
   93SAPC   H2S 8971   3.930  -0.122   6.248  0.8379 -0.3638 -0.9161
   93SAPC    C3 8972   4.043   0.326   6.211 -0.4393  0.1156  0.5180
   93SAPC    HX 8973   3.945   0.309   6.162  0.5103 -0.7782 -1.1611
   93SAPC    HY 8974   4.120   0.284   6.143  0.3668 -0.4949  1.7777
   93SAPC   O31 8975   4.072   0.466   6.225 -0.4713  0.0687 -0.4066
   93SAPC   C31 8976   3.977   0.536   6.281 -0.2528 -0.1706 -0.2975
   93SAPC   O32 8977   3.875   0.495   6.328 -0.3780 -0.3545 -0.3979
   93SAPC   C32 8978   4.017   0.685   6.289 -0.1033 -0.5905 -0.6253
   93SAPC   H2X 8979   4.097   0.704   6.214  0.2580  1.8189  0.3083
   93SAPC   H2Y 8980   4.066   0.697   6.388 -0.2017 -0.3086 -0.6122
   93SAPC   C23 8981   4.111  -0.183   6.354 -0.3509  0.1073  0.1838
   93SAPC   H3R 8982   4.099  -0.282   6.401 -1.2829  1.1219  2.1983
   93SAPC   H3S 8983   4.176  -0.138   6.432  0.6571  4.7240 -2.8530
   93SAPC   C24 8984   4.189  -0.179   6.220  0.1926 -0.1598 -0.0413
   93SAPC   H4R 8985   4.281  -0.235   6.248  0.5070  0.1204 -0.5093
   93SAPC   H4S 8986   4.205  -0.072   6.196 -1.4866  0.5288  1.6062
   93SAPC   C25 8987   4.128  -0.262   6.111  0.0469 -0.1902  0.5952
   93SAPC   H5R 8988   4.097  -0.362   6.143  2.2172 -0.7365  1.1595
   93SAPC   C26 8989   4.117  -0.225   5.983 -0.3227  0.7306  0.2287
   93SAPC   H6R 8990   4.068  -0.299   5.917 -0.7073 -0.6126  1.9581
   93SAPC   C27 8991   4.161  -0.094   5.913  0.3500 -0.0865  0.1367
   93SAPC   H7R 8992   4.187  -0.111   5.806 -2.1330 -2.2095 -0.2211
   93SAPC   H7S 8993   4.239  -0.037   5.968  1.9019 -1.6223 -0.3726
   93SAPC   C28 8994   4.035  -0.007   5.903 -0.0163  0.0137 -1.0830
   93SAPC   H8R 8995   4.026   0.051   5.996  0.2007 -2.7490  0.7825
   93SAPC   C29 8996   3.925  -0.014   5.827  0.2131  0.8745 -0.3446
   93SAPC   H9R 8997   3.847   0.058   5.855 -1.1582 -0.8454  0.4478
   93SAPC  C210 8998   3.905  -0.104   5.712 -0.0454 -0.2522 -0.2840
   93SAPC  H10R 8999   3.824  -0.176   5.738  1.0746 -1.7606 -0.8263
   93SAPC  H10S 9000   3.988  -0.175   5.692  0.8077  1.0158 -1.3819
   93SAPC  C211 9001   3.862  -0.033   5.583 -0.3697 -0.0056 -0.5398
   93SAPC  H11R 9002   3.755  -0.008   5.589  0.3130  2.8173  1.2915
   93SAPC  C212 9003   3.934   0.014   5.479 -0.9755 -0.2070 -0.3722
   93SAPC  H12R 9004   3.875   0.062   5.400  0.1301  0.0542 -1.0694
   93SAPC  C213 9005   4.085   0.002   5.473  0.4684  0.0931 -0.4726
   93SAPC  H13R 9006   4.130  -0.089   5.519  0.9281 -0.2846 -1.6286
   93SAPC  H13S 9007   4.125   0.090   5.528  1.8239 -0.1797 -0.9920
   93SAPC  C214 9008   4.131  -0.003   5.328 -0.3561 -0.4280  0.2277
   93SAPC  H14R 9009   4.174  -0.101   5.303 -1.4711 -1.2775  1.4951
   93SAPC  C215 9010   4.132   0.096   5.234 -0.1910 -0.2573 -1.0426
   93SAPC  H15R 9011   4.168   0.077   5.132  0.2327  0.9872 -1.1438
   93SAPC  C216 9012   4.077   0.237   5.258  0.0264  0.3135 -0.0651
   93SAPC  H16R 9013   4.066   0.258   5.367 -0.0170  3.0482 -0.5316
   93SAPC  H16S 9014   3.974   0.253   5.219 -0.3858 -0.0812  0.8227
   93SAPC  C217 9015   4.180   0.334   5.204  0.4370  0.4275 -0.1283
   93SAPC  H17R 9016   4.143   0.379   5.109  2.3023  1.3289 -0.4754
   93SAPC  H17S 9017   4.275   0.282   5.181  0.7478  0.3476  1.2461
   93SAPC  C218 9018   4.196   0.445   5.308 -0.1434 -0.4302  0.2448
   93SAPC  H18R 9019   4.271   0.515   5.266 -0.7233 -0.6727 -1.2772
   93SAPC  H18S 9020   4.237   0.404   5.403 -0.5504 -0.6167  0.3399
   93SAPC  C219 9021   4.071   0.528   5.341 -0.1972  0.0366 -0.2721
   93SAPC  H19R 9022   3.990   0.460   5.374  0.1425 -0.3808 -0.2894
   93SAPC  H19S 9023   4.041   0.590   5.253 -0.9039 -0.8076 -0.6418
   93SAPC  C220 9024   4.107   0.624   5.455 -0.3800  0.2015  0.4213
   93SAPC  H20R 9025   4.190   0.687   5.417 -0.7999  0.4991 -0.0200
   93SAPC  H20S 9026   4.140   0.579   5.551 -1.5522  1.4512  1.4470
   93SAPC  H20T 9027   4.021   0.689   5.484 -0.6895 -0.0643  0.1025
   93SAPC   C33 9028   3.899   0.782   6.272  0.1330 -0.3656 -0.2169
   93SAPC   H3X 9029   3.924   0.877   6.323  0.1990 -0.4605 -0.0692
   93SAPC   H3Y 9030   3.819   0.734   6.332  0.8846  0.5560  1.6027
   93SAPC   C34 9031   3.851   0.810   6.129  0.0957 -0.1262  0.3067
   93SAPC   H4X 9032   3.777   0.893   6.138  1.3424  1.1107 -0.3069
   93SAPC   H4Y 9033   3.805   0.712   6.106  0.4721 -0.0163 -1.0294
   93SAPC   C35 9034   3.968   0.852   6.033  0.1898  0.1368  0.1766
   93SAPC   H5X 9035   4.013   0.757   5.998 -0.9215  0.3156 -1.9502
   93SAPC   H5Y 9036   4.050   0.901   6.089 -1.0087  2.3126  0.1561
   93SAPC   C36 9037   3.911   0.946   5.922  0.4168  0.0334  0.0832
   93SAPC   H6X 9038   3.857   1.029   5.972  0.3864 -1.3382  2.4832
   93SAPC   H6Y 9039   3.832   0.893   5.863  1.6490 -0.0417 -1.5865
   93SAPC   C37 9040   4.015   0.999   5.825 -0.7165 -0.5345  0.5145
   93SAPC   H7X 9041   4.110   0.951   5.857 -0.4479 -0.0855  0.3909
   93SAPC   H7Y 9042   4.028   1.109   5.830 -0.0265 -0.5288 -0.9691
   93SAPC   C38 9043   3.972   0.965   5.678 -0.6452  0.0157  0.5732
   93SAPC   H8X 9044   3.930   0.863   5.666  0.3385 -0.1770 -2.0419
   93SAPC   H8Y 9045   4.060   0.965   5.610 -2.8127  1.3980 -2.4692
   93SAPC   C39 9046   3.886   1.070   5.620  0.5163  0.6165 -0.3516
   93SAPC   H9X 9047   3.948   1.159   5.595 -0.3955  1.1840 -0.6599
   93SAPC   H9Y 9048   3.815   1.087   5.704  1.4576 -0.1004  0.6037
   93SAPC  C310 9049   3.813   1.012   5.500  0.0081  0.2088  0.1682
   93SAPC  H10X 9050   3.744   0.925   5.512  1.1986 -1.1225 -1.9003
   93SAPC  H10Y 9051   3.890   0.972   5.431  0.9073 -0.2099  1.3788
   93SAPC  C311 9052   3.727   1.116   5.436  0.6678  0.1470 -0.0427
   93SAPC  H11X 9053   3.653   1.144   5.514  1.6232  1.6022  0.3982
   93SAPC  H11Y 9054   3.667   1.073   5.353  0.6947  0.2099 -0.0951
   93SAPC  C312 9055   3.802   1.232   5.379 -0.0128 -0.4594 -0.1053
   93SAPC  H12X 9056   3.889   1.201   5.318  0.5965 -0.6658  0.8448
   93SAPC  H12Y 9057   3.833   1.306   5.457 -1.2599  0.5942 -0.5735
   93SAPC  C313 9058   3.716   1.309   5.275 -0.4466  0.5639  0.0118
   93SAPC  H13X 9059   3.649   1.371   5.338 -0.0280  0.2063  0.8372
   93SAPC  H13Y 9060   3.653   1.232   5.224  1.0543 -0.6230 -0.1203
   93SAPC  C314 9061   3.795   1.402   5.180 -0.6443 -0.2595 -0.0652
   93SAPC  H14X 9062   3.878   1.452   5.235 -1.5474  1.7123 -0.3878
   93SAPC  H14Y 9063   3.719   1.475   5.144 -0.0049  0.0049 -0.9337
   93SAPC  C315 9064   3.852   1.334   5.055  0.1105 -0.1153  0.2027
   93SAPC  H15X 9065   3.767   1.315   4.987 -0.0632  1.4751 -0.0427
   93SAPC  H15Y 9066   3.893   1.237   5.090 -0.4200 -0.2562  0.4408
   93SAPC  C316 9067   3.957   1.404   4.967 -0.0057  0.7629  0.4021
   93SAPC  H16X 9068   4.035   1.436   5.040 -1.2175  0.3181  1.9636
   93SAPC  H16Y 9069   3.901   1.495   4.937  1.4747  2.1931  1.8073
   93SAPC  C317 9070   4.020   1.328   4.854  0.0621  0.2232  0.5036
   93SAPC  H17X 9071   4.065   1.396   4.779 -2.3492  1.0817 -0.2495
   93SAPC  H17Y 9072   3.931   1.296   4.795 -0.7277  1.0275  1.2241
   93SAPC  C318 9073   4.105   1.207   4.884 -0.3257 -0.5062 -0.3682
   93SAPC  H18X 9074   4.166   1.187   4.794 -2.7464  2.9222 -3.0520
   93SAPC  H18Y 9075   4.045   1.118   4.911 -0.3828 -0.9074 -1.7730
   93SAPC  H18Z 9076   4.165   1.226   4.976 -1.8712 -0.8790  0.7663
   94SAPC     N 9077   4.223   1.436   7.419  0.1937  0.2287  0.3206
   94SAPC   C12 9078   4.192   1.419   7.274  0.3258  0.1780 -0.2322
   94SAPC  H12A 9079   4.276   1.371   7.226  0.8279  1.6749 -0.9212
   94SAPC  H12B 9080   4.184   1.515   7.225  2.0666 -0.3082 -1.5838
   94SAPC   C13 9081   4.234   1.296   7.481 -0.8727 -0.5640  0.5811
   94SAPC  H13A 9082   4.264   1.297   7.585 -1.3588 -2.3061  0.7720
   94SAPC  H13B 9083   4.142   1.243   7.465  0.1904 -2.0619 -0.8001
   94SAPC  H13C 9084   4.307   1.249   7.417  0.8807  2.4018  0.2147
   94SAPC   C14 9085   4.352   1.516   7.436  0.3233  0.6364 -0.0433
   94SAPC  H14A 9086   4.399   1.528   7.532  3.5740  1.6650 -1.6302
   94SAPC  H14B 9087   4.427   1.491   7.362  1.5546 -0.6387  1.5782
   94SAPC  H14C 9088   4.320   1.615   7.407 -2.2536  0.2656  1.1958
   94SAPC   C15 9089   4.119   1.509   7.495 -0.8208  0.1526  0.0041
   94SAPC  H15A 9090   4.115   1.614   7.472 -1.0597  0.3627  0.9445
   94SAPC  H15B 9091   4.020   1.465   7.495  0.1086 -2.1245  1.7765
   94SAPC  H15C 9092   4.146   1.500   7.599 -0.4870  0.6794 -0.0326
   94SAPC   C11 9093   4.063   1.334   7.243  0.3577  0.7501  0.1506
   94SAPC  H11A 9094   4.032   1.352   7.138 -0.7486  1.6764  0.6169
   94SAPC  H11B 9095   3.982   1.373   7.308  0.8879  0.8626  0.7612
   94SAPC     P 9096   4.165   1.104   7.176 -0.5253  0.1371  0.0484
   94SAPC   O13 9097   4.179   0.979   7.252  0.7797  0.3046  0.3765
   94SAPC   O14 9098   4.088   1.107   7.046  0.0481 -0.5878 -0.2638
   94SAPC   O12 9099   4.081   1.196   7.273 -0.2950  0.1545  0.2153
   94SAPC   O11 9100   4.315   1.164   7.155  0.5501  0.0167 -0.4065
   94SAPC    C1 9101   4.427   1.077   7.191 -0.5596  0.2777 -0.3654
   94SAPC    HA 9102   4.495   1.128   7.263  1.1501 -0.1205 -1.6194
   94SAPC    HB 9103   4.412   0.975   7.231  0.7726  0.0851 -0.3127
   94SAPC    C2 9104   4.520   1.036   7.072 -0.2136 -0.1779 -0.6075
   94SAPC    HS 9105   4.561   1.125   7.020  0.4204  0.2635  0.5953
   94SAPC   O21 9106   4.434   0.944   6.990  0.8291  0.4854  0.2488
   94SAPC   C21 9107   4.359   1.001   6.885 -0.5194 -0.4517  0.5802
   94SAPC   O22 9108   4.366   1.118   6.851  0.3980 -0.3831  0.2470
   94SAPC   C22 9109   4.265   0.900   6.816 -0.4154  0.5801 -1.2819
   94SAPC   H2R 9110   4.286   0.793   6.839 -2.9089  0.5259  1.1943
   94SAPC   H2S 9111   4.165   0.913   6.862 -0.7270  0.4680 -1.9110
   94SAPC    C3 9112   4.654   0.971   7.131  1.1035  0.1046  0.0260
   94SAPC    HX 9113   4.631   0.862   7.137  0.5155 -0.0043 -2.6774
   94SAPC    HY 9114   4.670   0.993   7.239 -1.9556  1.1487  0.3596
   94SAPC   O31 9115   4.764   1.009   7.051  0.7457  0.1573 -0.4464
   94SAPC   C31 9116   4.799   0.907   6.963  0.2037 -0.5141 -0.6083
   94SAPC   O32 9117   4.735   0.804   6.952 -0.0592 -0.4447 -0.2122
   94SAPC   C32 9118   4.912   0.951   6.878 -0.0416 -0.2050  0.0360
   94SAPC   H2X 9119   4.989   0.873   6.858  0.1835  0.4736 -1.9493
   94SAPC   H2Y 9120   4.957   1.041   6.925  0.0163 -0.0997 -0.2213
   94SAPC   C23 9121   4.255   0.922   6.664 -0.4178 -0.5744 -0.1633
   94SAPC   H3R 9122   4.233   1.030   6.651  1.8149  0.8047  5.1018
   94SAPC   H3S 9123   4.177   0.860   6.615  0.4489 -1.0929 -0.9470
   94SAPC   C24 9124   4.391   0.905   6.592 -0.2175 -0.1436  0.2842
   94SAPC   H4R 9125   4.470   0.979   6.620 -0.7051  0.2832  0.5426
   94SAPC   H4S 9126   4.365   0.938   6.490 -0.6291  1.4027  0.8644
   94SAPC   C25 9127   4.448   0.768   6.593 -0.1741 -0.0405  0.2053
   94SAPC   H5R 9128   4.483   0.728   6.689  0.5396  0.7860  0.3056
   94SAPC   C26 9129   4.466   0.687   6.488 -0.5845 -0.0287 -0.1547
   94SAPC   H6R 9130   4.512   0.589   6.508  0.4463  0.3615 -0.5426
   94SAPC   C27 9131   4.422   0.711   6.347  0.1889 -0.1705  0.2022
   94SAPC   H7R 9132   4.495   0.775   6.293 -0.8321  1.4737  0.6828
   94SAPC   H7S 9133   4.332   0.775   6.337  0.8090  0.3455 -3.6892
   94SAPC   C28 9134   4.400   0.576   6.276 -0.8866  0.7680 -0.2826
   94SAPC   H8R 9135   4.392   0.490   6.344  1.4763 -1.7817 -2.9169
   94SAPC   C29 9136   4.362   0.553   6.151  0.1821 -0.2371  0.5432
   94SAPC   H9R 9137   4.366   0.448   6.118  1.3505 -0.2136  0.5817
   94SAPC  C210 9138   4.339   0.652   6.039  0.0162  0.3274 -0.0747
   94SAPC  H10R 9139   4.388   0.748   6.064 -1.1033  0.5314  1.4936
   94SAPC  H10S 9140   4.233   0.686   6.031  0.6054  1.7911 -3.1461
   94SAPC  C211 9141   4.379   0.607   5.910 -0.3230  0.7301 -0.0146
   94SAPC  H11R 9142   4.482   0.639   5.889  0.1274  0.0041  0.9973
   94SAPC  C212 9143   4.299   0.537   5.824 -0.1438 -0.4321 -0.2461
   94SAPC  H12R 9144   4.338   0.501   5.727 -2.1512 -0.7040 -0.9927
   94SAPC  C213 9145   4.150   0.512   5.845  0.0400  0.3455 -0.3008
   94SAPC  H13R 9146   4.092   0.599   5.807  2.7287  1.2677 -2.6629
   94SAPC  H13S 9147   4.117   0.512   5.951 -0.9160  1.4462 -0.5826
   94SAPC  C214 9148   4.090   0.389   5.781  0.5132 -0.3299  0.1891
   94SAPC  H14R 9149   4.160   0.329   5.721 -1.4639 -1.2911 -1.2728
   94SAPC  C215 9150   3.958   0.359   5.775  0.3825  0.6512  0.0314
   94SAPC  H15R 9151   3.934   0.256   5.743 -0.9151 -0.2653  3.5398
   94SAPC  C216 9152   3.841   0.441   5.831  0.7445 -0.4576  0.1131
   94SAPC  H16R 9153   3.855   0.550   5.811 -1.2533 -0.2267 -0.2038
   94SAPC  H16S 9154   3.830   0.419   5.939 -1.0952  0.0160  0.0538
   94SAPC  C217 9155   3.718   0.390   5.746  0.2446  0.5393 -0.4047
   94SAPC  H17R 9156   3.625   0.432   5.790 -1.1012 -0.3102 -2.2938
   94SAPC  H17S 9157   3.704   0.280   5.753 -0.7383  0.6985  0.2862
   94SAPC  C218 9158   3.729   0.415   5.592  0.5470  0.3282  0.1381
   94SAPC  H18R 9159   3.827   0.401   5.543  1.2868  3.1056  0.6805
   94SAPC  H18S 9160   3.705   0.517   5.557 -0.3967 -0.4865 -1.7389
   94SAPC  C219 9161   3.636   0.321   5.517 -0.4259  0.1290 -0.8723
   94SAPC  H19R 9162   3.549   0.289   5.578  0.4132  0.8216  0.7414
   94SAPC  H19S 9163   3.689   0.223   5.512  1.0020  0.8612 -0.6755
   94SAPC  C220 9164   3.610   0.349   5.370  0.8426  0.6981 -0.2675
   94SAPC  H20R 9165   3.560   0.447   5.359  1.2106  1.0469  1.0017
   94SAPC  H20S 9166   3.532   0.278   5.336  1.2867 -0.7048  1.4720
   94SAPC  H20T 9167   3.702   0.343   5.308 -0.0078 -1.4901 -1.4423
   94SAPC   C33 9168   4.859   0.997   6.738  0.3557 -0.5960 -0.0522
   94SAPC   H3X 9169   4.910   1.078   6.682 -2.0106  1.0274 -0.0246
   94SAPC   H3Y 9170   4.750   1.022   6.744 -0.1796 -1.9751 -2.6163
   94SAPC   C34 9171   4.881   0.883   6.636  0.2056  0.1106  0.5152
   94SAPC   H4X 9172   4.857   0.787   6.686 -1.2109  0.9290  1.5145
   94SAPC   H4Y 9173   4.988   0.867   6.614 -0.0432 -1.4723  0.3852
   94SAPC   C35 9174   4.813   0.902   6.494  0.3758  0.5723 -0.8118
   94SAPC   H5X 9175   4.843   1.004   6.461  0.3173 -0.3146 -3.9924
   94SAPC   H5Y 9176   4.704   0.889   6.506  0.2891 -0.4592 -2.4431
   94SAPC   C36 9177   4.866   0.789   6.397 -0.7490 -0.2658 -0.1034
   94SAPC   H6X 9178   4.819   0.691   6.419 -1.8885 -0.3887 -2.6345
   94SAPC   H6Y 9179   4.977   0.793   6.395 -0.7223  1.1710  1.5737
   94SAPC   C37 9180   4.808   0.802   6.254  0.0038  0.0502 -0.0506
   94SAPC   H7X 9181   4.845   0.899   6.213 -1.3637  0.4815 -0.3186
   94SAPC   H7Y 9182   4.697   0.800   6.258 -0.1362  2.8678 -0.1582
   94SAPC   C38 9183   4.854   0.685   6.163  0.6005  0.0531 -0.1140
   94SAPC   H8X 9184   4.842   0.583   6.203  0.5408 -0.9427 -2.4979
   94SAPC   H8Y 9185   4.964   0.702   6.151  0.4148  1.3841 -0.1141
   94SAPC   C39 9186   4.789   0.688   6.020  0.3519  0.3675 -0.0676
   94SAPC   H9X 9187   4.682   0.700   6.047  0.0661  0.9298 -1.3701
   94SAPC   H9Y 9188   4.803   0.595   5.961 -1.1390  0.5721 -0.8049
   94SAPC  C310 9189   4.826   0.801   5.925  0.3920 -0.0041 -0.2965
   94SAPC  H10X 9190   4.901   0.869   5.970  0.7352  0.8102 -2.0551
   94SAPC  H10Y 9191   4.735   0.865   5.918 -0.1009 -0.8363 -2.0700
   94SAPC  C311 9192   4.868   0.754   5.794  0.4607 -0.6163  0.0391
   94SAPC  H11X 9193   4.967   0.704   5.787 -0.1113 -1.6424 -1.0272
   94SAPC  H11Y 9194   4.896   0.847   5.741  3.3115 -0.8362  0.9958
   94SAPC  C312 9195   4.761   0.673   5.709  0.0178 -0.4298 -1.0800
   94SAPC  H12X 9196   4.705   0.594   5.763 -1.2172 -0.1007 -1.8120
   94SAPC  H12Y 9197   4.815   0.639   5.618  2.3673  0.3903 -0.0678
   94SAPC  C313 9198   4.643   0.750   5.649  0.1917  0.0130 -0.3355
   94SAPC  H13X 9199   4.685   0.845   5.609 -0.3509  1.4697  2.2517
   94SAPC  H13Y 9200   4.566   0.775   5.726  1.2208  1.3137  0.3100
   94SAPC  C314 9201   4.565   0.682   5.537 -0.8717  0.1682  0.0101
   94SAPC  H14X 9202   4.471   0.738   5.519 -1.2895 -0.2135  0.9667
   94SAPC  H14Y 9203   4.539   0.580   5.572  2.1768 -0.1572  1.6362
   94SAPC  C315 9204   4.641   0.662   5.407  0.0474 -0.5722  0.3861
   94SAPC  H15X 9205   4.728   0.596   5.425  0.2900 -0.3938 -0.1153
   94SAPC  H15Y 9206   4.682   0.761   5.379 -1.1654 -0.0828  0.2675
   94SAPC  C316 9207   4.550   0.596   5.309 -0.5471  0.3303  0.9299
   94SAPC  H16X 9208   4.481   0.674   5.269  1.0494  1.6901  0.7380
   94SAPC  H16Y 9209   4.492   0.511   5.350 -1.4431 -0.0727 -1.0360
   94SAPC  C317 9210   4.623   0.535   5.180 -0.4605 -0.3716 -0.7061
   94SAPC  H17X 9211   4.687   0.449   5.208 -0.6239 -0.5842 -0.9834
   94SAPC  H17Y 9212   4.684   0.619   5.140  2.6896 -2.1784  0.0234
   94SAPC  C318 9213   4.520   0.473   5.088 -1.1015  0.3970  0.3032
   94SAPC  H18X 9214   4.452   0.559   5.072 -0.3054  0.9529 -0.1620
   94SAPC  H18Y 9215   4.477   0.389   5.146  0.9118 -1.4562 -0.7661
   94SAPC  H18Z 9216   4.570   0.438   4.996  0.0676  2.6202  0.0188
   95SAPC     N 9217   4.234   2.958   2.971  0.1698  0.1136 -0.0840
   95SAPC   C12 9218   4.234   2.818   3.019  0.7720  0.8241  0.0827
   95SAPC  H12A 9219   4.332   2.796   3.060  1.1874  0.3280 -1.1417
   95SAPC  H12B 9220   4.229   2.755   2.932  0.1085 -1.4898  1.6970
   95SAPC   C13 9221   4.255   3.052   3.083  0.7866  0.1251  0.8203
   95SAPC  H13A 9222   4.353   3.047   3.128  0.9956  0.8927  0.4712
   95SAPC  H13B 9223   4.243   3.158   3.063  1.3561  0.0689  0.1389
   95SAPC  H13C 9224   4.176   3.038   3.155 -0.8310 -0.7118 -1.0286
   95SAPC   C14 9225   4.353   2.971   2.878 -0.2258  0.3600  0.1430
   95SAPC  H14A 9226   4.343   2.920   2.784  0.9440  1.9317 -0.8913
   95SAPC  H14B 9227   4.374   3.075   2.858 -1.3569  0.5996  0.1744
   95SAPC  H14C 9228   4.443   2.937   2.928  1.3897 -1.4260 -3.5651
   95SAPC   C15 9229   4.110   2.993   2.898  0.0427  0.1177 -0.0680
   95SAPC  H15A 9230   4.092   2.917   2.823  1.5591 -0.3549  0.0029
   95SAPC  H15B 9231   4.023   2.991   2.961 -0.2973  0.7232 -0.5064
   95SAPC  H15C 9232   4.114   3.091   2.852 -1.9582  0.9901  1.4576
   95SAPC   C11 9233   4.126   2.764   3.125 -0.5074 -0.3959 -1.0483
   95SAPC  H11A 9234   4.138   2.837   3.208 -0.8543  0.3864 -1.6728
   95SAPC  H11B 9235   4.166   2.666   3.158 -0.9248 -0.2575 -0.0954
   95SAPC     P 9236   3.876   2.722   3.150  0.0663 -0.1577  0.1802
   95SAPC   O13 9237   3.792   2.845   3.136  0.1406 -0.2891  0.9273
   95SAPC   O14 9238   3.801   2.596   3.110 -1.3567 -0.5735 -0.1815
   95SAPC   O12 9239   4.002   2.740   3.066  0.7172 -0.4007  0.4247
   95SAPC   O11 9240   3.932   2.704   3.298  0.1542 -0.0384  0.6487
   95SAPC    C1 9241   3.839   2.678   3.398 -0.0926 -0.1808 -0.3530
   95SAPC    HA 9242   3.772   2.764   3.416 -1.6638 -1.2864 -0.6455
   95SAPC    HB 9243   3.779   2.589   3.368  0.0435 -0.5824  0.5522
   95SAPC    C2 9244   3.895   2.638   3.534  0.1455 -0.4257 -0.0989
   95SAPC    HS 9245   3.964   2.552   3.522 -0.7297 -0.9303 -1.8876
   95SAPC   O21 9246   3.770   2.605   3.599  0.1913  0.6107  0.2437
   95SAPC   C21 9247   3.795   2.502   3.687 -0.2708 -0.1317  0.2041
   95SAPC   O22 9248   3.887   2.428   3.684  0.1158  0.3333 -0.3447
   95SAPC   C22 9249   3.675   2.491   3.780 -0.6746  0.1891 -0.3333
   95SAPC   H2R 9250   3.681   2.579   3.847  2.2145 -0.3620  0.2545
   95SAPC   H2S 9251   3.586   2.484   3.713 -1.6279 -0.8307  0.9912
   95SAPC    C3 9252   3.968   2.750   3.604  0.2270  0.0761 -0.7372
   95SAPC    HX 9253   3.894   2.831   3.620  0.5914  2.3473 -7.4459
   95SAPC    HY 9254   4.040   2.805   3.540 -2.7196  0.6039 -3.8972
   95SAPC   O31 9255   4.020   2.710   3.736  0.3141 -0.3914  0.4151
   95SAPC   C31 9256   4.138   2.661   3.750 -0.0685  0.9621 -0.5277
   95SAPC   O32 9257   4.227   2.646   3.669  0.1786  0.0186  0.4477
   95SAPC   C32 9258   4.143   2.591   3.887  0.4921  0.0450  0.6132
   95SAPC   H2X 9259   4.252   2.569   3.890  0.3263 -1.1803 -0.7082
   95SAPC   H2Y 9260   4.080   2.501   3.872 -0.8626  1.2306 -1.2196
   95SAPC   C23 9261   3.687   2.368   3.880 -0.5224 -0.7938  0.2587
   95SAPC   H3R 9262   3.738   2.284   3.828  1.8751  0.7079  0.0457
   95SAPC   H3S 9263   3.584   2.341   3.911 -1.0462  0.2549 -0.5307
   95SAPC   C24 9264   3.771   2.407   4.003  0.3237 -0.6754  0.1547
   95SAPC   H4R 9265   3.724   2.489   4.062  4.7633  1.2605  1.3879
   95SAPC   H4S 9266   3.866   2.456   3.971  0.6960 -1.0628  0.6614
   95SAPC   C25 9267   3.795   2.297   4.096  0.6853 -0.1300  0.2322
   95SAPC   H5R 9268   3.900   2.266   4.091  0.8562  0.5451 -0.8204
   95SAPC   C26 9269   3.702   2.229   4.160 -0.4258  0.0702  0.8414
   95SAPC   H6R 9270   3.741   2.156   4.232 -1.2174 -1.6886 -0.4188
   95SAPC   C27 9271   3.555   2.254   4.182  0.1903 -0.2658 -0.0442
   95SAPC   H7R 9272   3.516   2.341   4.124 -1.7457  0.0461  1.5746
   95SAPC   H7S 9273   3.544   2.307   4.280  0.6006  0.5941 -0.4558
   95SAPC   C28 9274   3.464   2.139   4.191 -0.2895  0.4533  0.0093
   95SAPC   H8R 9275   3.510   2.059   4.250 -1.4433 -0.4698 -0.2859
   95SAPC   C29 9276   3.339   2.125   4.143  0.7671  0.3955  0.4803
   95SAPC   H9R 9277   3.285   2.036   4.180 -0.0229  1.0473  0.9298
   95SAPC  C210 9278   3.268   2.227   4.061 -0.2297 -0.5774  0.1189
   95SAPC  H10R 9279   3.307   2.208   3.959 -0.4634  2.7855 -0.7217
   95SAPC  H10S 9280   3.301   2.330   4.086  1.2752 -0.5369 -1.8465
   95SAPC  C211 9281   3.119   2.212   4.061 -0.2782 -0.1677  0.0300
   95SAPC  H11R 9282   3.086   2.135   3.990  1.3799  1.7140 -2.9984
   95SAPC  C212 9283   3.032   2.283   4.136  0.4703 -0.0029  0.5156
   95SAPC  H12R 9284   2.925   2.258   4.134  0.3360  0.5734 -1.4375
   95SAPC  C213 9285   3.070   2.400   4.225 -0.4540 -0.2268  0.1826
   95SAPC  H13R 9286   3.012   2.493   4.208  0.5985  0.8586  2.2348
   95SAPC  H13S 9287   3.177   2.425   4.204 -0.3080 -0.3827  0.7406
   95SAPC  C214 9288   3.070   2.355   4.370 -0.4551  0.6046  0.5445
   95SAPC  H14R 9289   3.103   2.250   4.378  1.9185  0.9196 -3.0626
   95SAPC  C215 9290   3.029   2.417   4.473  0.0836 -0.4063  0.7753
   95SAPC  H15R 9291   3.018   2.371   4.572 -0.4293 -0.4248  0.7122
   95SAPC  C216 9292   2.987   2.563   4.475 -0.0869  0.3684 -0.1672
   95SAPC  H16R 9293   3.019   2.625   4.389  1.5626 -2.0825 -1.4072
   95SAPC  H16S 9294   3.029   2.617   4.563 -0.1358 -2.2532  1.5652
   95SAPC  C217 9295   2.836   2.564   4.481  0.0567  0.5376  0.8082
   95SAPC  H17R 9296   2.795   2.481   4.418 -0.2177 -0.0842  1.7910
   95SAPC  H17S 9297   2.804   2.665   4.446  0.6774 -0.0898 -1.7817
   95SAPC  C218 9298   2.773   2.540   4.622  0.0888 -0.2312 -0.3364
   95SAPC  H18R 9299   2.809   2.449   4.673 -0.9509  1.2254  3.2544
   95SAPC  H18S 9300   2.666   2.528   4.596  0.2485  0.6117 -1.4802
   95SAPC  C219 9301   2.792   2.651   4.727  0.3921  0.2680  0.4119
   95SAPC  H19R 9302   2.901   2.665   4.740  0.8639 -2.4056 -0.1252
   95SAPC  H19S 9303   2.752   2.616   4.824  1.5085 -1.0163  0.4344
   95SAPC  C220 9304   2.735   2.790   4.693 -1.0321  0.2203  0.0675
   95SAPC  H20R 9305   2.626   2.782   4.675 -0.7458 -2.5212 -1.0684
   95SAPC  H20S 9306   2.786   2.842   4.609  0.3285 -1.3465 -0.1405
   95SAPC  H20T 9307   2.738   2.851   4.785  1.5130  1.9082 -1.0148
   95SAPC   C33 9308   4.113   2.671   4.018  0.2116  0.4269  1.3585
   95SAPC   H3X 9309   4.007   2.703   4.007 -0.0176 -0.7378 -0.2075
   95SAPC   H3Y 9310   4.182   2.758   4.020 -0.4753  1.0242  0.1317
   95SAPC   C34 9311   4.112   2.586   4.143  0.2258  0.2635 -0.1622
   95SAPC   H4X 9312   4.060   2.491   4.120 -1.4842  1.4664 -1.5043
   95SAPC   H4Y 9313   4.045   2.635   4.217 -1.9763 -0.8718 -1.3056
   95SAPC   C35 9314   4.246   2.568   4.196  0.0374  0.0222 -0.0694
   95SAPC   H5X 9315   4.300   2.665   4.202  1.1587 -0.3997 -2.1750
   95SAPC   H5Y 9316   4.305   2.507   4.124 -1.0140  0.4317 -1.3140
   95SAPC   C36 9317   4.248   2.503   4.332  0.0065 -0.4355 -0.1693
   95SAPC   H6X 9318   4.164   2.534   4.398  0.4307  0.9078 -0.2403
   95SAPC   H6Y 9319   4.339   2.538   4.384  0.9311 -3.4966  0.4966
   95SAPC   C37 9320   4.250   2.353   4.315  0.0106 -0.0175 -0.1202
   95SAPC   H7X 9321   4.360   2.344   4.296  0.2603 -0.7199  1.4863
   95SAPC   H7Y 9322   4.205   2.322   4.218  0.8063  0.4706 -0.6593
   95SAPC   C38 9323   4.210   2.277   4.443  0.0413  1.5797 -0.2120
   95SAPC   H8X 9324   4.262   2.322   4.530  1.6879  1.0648 -0.8952
   95SAPC   H8Y 9325   4.242   2.173   4.417 -5.4854  0.0215 -2.2078
   95SAPC   C39 9326   4.060   2.256   4.457  0.0202  0.5418  0.1593
   95SAPC   H9X 9327   4.010   2.199   4.376 -1.3637  2.1671 -0.1765
   95SAPC   H9Y 9328   4.008   2.352   4.477  1.2168  1.1797  0.2761
   95SAPC  C310 9329   4.029   2.150   4.576  0.5962 -0.2860  0.4539
   95SAPC  H10X 9330   4.091   2.192   4.658  2.1939  0.4359 -1.0550
   95SAPC  H10Y 9331   4.068   2.047   4.558 -1.8281 -0.6171 -4.1675
   95SAPC  C311 9332   3.887   2.151   4.615 -0.0781 -0.4005 -0.7149
   95SAPC  H11X 9333   3.854   2.256   4.624 -1.1231 -0.7783  0.1191
   95SAPC  H11Y 9334   3.874   2.114   4.719  0.2944  0.8351 -0.2143
   95SAPC  C312 9335   3.800   2.072   4.517 -0.1369 -0.9710 -0.1903
   95SAPC  H12X 9336   3.823   1.966   4.541  2.6164 -0.5208 -0.4445
   95SAPC  H12Y 9337   3.832   2.084   4.411 -0.7788 -1.1192 -0.4030
   95SAPC  C313 9338   3.651   2.111   4.530  0.2818 -0.2987 -0.1507
   95SAPC  H13X 9339   3.624   2.165   4.436 -1.7348 -0.6539  0.1948
   95SAPC  H13Y 9340   3.632   2.186   4.610  0.2663  1.0183 -1.3432
   95SAPC  C314 9341   3.553   2.000   4.548  0.7893  0.8403 -0.0688
   95SAPC  H14X 9342   3.586   1.932   4.629 -0.7550 -0.0012 -0.1002
   95SAPC  H14Y 9343   3.540   1.951   4.449  3.2849 -1.5453  0.6676
   95SAPC  C315 9344   3.411   2.043   4.584 -0.2201 -1.0072  0.0829
   95SAPC  H15X 9345   3.359   2.108   4.510 -1.6660  0.1071  1.9784
   95SAPC  H15Y 9346   3.415   2.100   4.679  1.2457  3.5031 -2.3846
   95SAPC  C316 9347   3.335   1.911   4.606  0.9938  0.0684 -0.0184
   95SAPC  H16X 9348   3.386   1.852   4.684 -0.5391 -0.2243  0.7948
   95SAPC  H16Y 9349   3.331   1.848   4.514 -1.4169 -0.0621  0.1237
   95SAPC  C317 9350   3.191   1.929   4.654 -0.0668  0.3670 -0.0953
   95SAPC  H17X 9351   3.125   1.931   4.565  1.2305 -2.2791 -1.2329
   95SAPC  H17Y 9352   3.170   2.018   4.716  1.2491 -0.6516  1.9155
   95SAPC  C318 9353   3.136   1.816   4.739 -0.5436 -0.2932 -0.5327
   95SAPC  H18X 9354   3.030   1.843   4.763  0.2381  1.2117  1.5656
   95SAPC  H18Y 9355   3.192   1.803   4.834  0.5404  1.0502 -0.9550
   95SAPC  H18Z 9356   3.137   1.716   4.692  1.1047  0.1948 -1.6175
   96SAPC     N 9357   3.376   3.177   2.883  0.1362  0.5009  0.0067
   96SAPC   C12 9358   3.378   3.323   2.851  0.7269  0.4250  0.8737
   96SAPC  H12A 9359   3.284   3.370   2.874 -1.4342 -1.7278 -2.6930
   96SAPC  H12B 9360   3.390   3.332   2.744 -0.6082 -1.0259  0.5667
   96SAPC   C13 9361   3.256   3.103   2.836 -0.4583 -0.4226 -0.1778
   96SAPC  H13A 9362   3.271   2.997   2.848  0.9361 -0.1379  0.9315
   96SAPC  H13B 9363   3.159   3.122   2.881 -1.6811 -0.4151 -2.6568
   96SAPC  H13C 9364   3.239   3.110   2.730  0.0438 -2.8990 -0.4666
   96SAPC   C14 9365   3.495   3.106   2.824 -0.4564 -0.2289  0.0003
   96SAPC  H14A 9366   3.480   3.088   2.718  1.5325 -0.9861 -0.1977
   96SAPC  H14B 9367   3.582   3.166   2.849  1.0419 -2.5717  0.7856
   96SAPC  H14C 9368   3.517   3.010   2.869  3.2172 -1.4323 -3.6978
   96SAPC   C15 9369   3.384   3.152   3.031  0.0305  0.1897  0.7115
   96SAPC  H15A 9370   3.296   3.181   3.087  0.6932  0.1664  1.7887
   96SAPC  H15B 9371   3.381   3.045   3.043 -0.8974  0.2810  1.3449
   96SAPC  H15C 9372   3.471   3.199   3.074 -0.3149  0.7372  0.8352
   96SAPC   C11 9373   3.488   3.405   2.923 -0.1327 -0.1113  0.2367
   96SAPC  H11A 9374   3.477   3.389   3.032 -0.7183 -0.1781  0.1688
   96SAPC  H11B 9375   3.467   3.513   2.909 -1.3823 -0.3722 -0.0203
   96SAPC     P 9376   3.745   3.372   2.973 -0.2540  0.1026  0.5142
   96SAPC   O13 9377   3.871   3.362   2.894 -0.2889 -0.0970  0.5754
   96SAPC   O14 9378   3.736   3.494   3.054 -0.2873 -0.1717 -0.1773
   96SAPC   O12 9379   3.615   3.373   2.878 -0.3747 -0.1757 -0.0381
   96SAPC   O11 9380   3.730   3.237   3.061 -0.0604  0.6569 -0.2303
   96SAPC    C1 9381   3.709   3.245   3.200  0.1133  0.4379  0.1798
   96SAPC    HA 9382   3.664   3.341   3.235  0.6623  0.7780 -0.0246
   96SAPC    HB 9383   3.636   3.167   3.227 -1.3101  1.2224 -1.2233
   96SAPC    C2 9384   3.840   3.234   3.285 -0.2866 -0.0900 -0.3699
   96SAPC    HS 9385   3.813   3.229   3.393 -0.5189  0.6070 -0.3907
   96SAPC   O21 9386   3.926   3.345   3.263 -0.1167 -0.4267  0.5259
   96SAPC   C21 9387   3.892   3.459   3.318  0.2792  0.1103 -0.4723
   96SAPC   O22 9388   3.799   3.477   3.394  0.2316 -0.1726 -0.6335
   96SAPC   C22 9389   3.983   3.567   3.263 -0.0080 -0.1304 -0.9232
   96SAPC   H2R 9390   4.080   3.519   3.239 -0.7336 -1.2110 -1.7740
   96SAPC   H2S 9391   3.946   3.612   3.169 -1.0631  2.7742  0.7532
   96SAPC    C3 9392   3.919   3.104   3.250  0.0609  0.6178  0.2455
   96SAPC    HX 9393   3.933   3.074   3.144  1.7103  0.8042  0.3833
   96SAPC    HY 9394   3.859   3.017   3.282 -0.3533  0.1836 -1.5976
   96SAPC   O31 9395   4.052   3.104   3.313  0.2022  0.2393  0.0415
   96SAPC   C31 9396   4.059   3.071   3.438 -0.0478  0.4955 -0.4682
   96SAPC   O32 9397   3.967   3.049   3.516 -0.6047  0.4319  0.3466
   96SAPC   C32 9398   4.204   3.055   3.463 -0.7995 -0.3714 -0.3463
   96SAPC   H2X 9399   4.257   3.109   3.382  1.3012  2.2282  2.4714
   96SAPC   H2Y 9400   4.217   2.946   3.452 -0.4851 -0.3593 -0.1195
   96SAPC   C23 9401   3.993   3.674   3.376 -0.2776  0.5604  0.5823
   96SAPC   H3R 9402   3.919   3.684   3.458 -0.0460 -1.8207  1.1601
   96SAPC   H3S 9403   4.013   3.774   3.334 -2.1505  0.7650  0.1169
   96SAPC   C24 9404   4.124   3.641   3.454  0.0329 -0.6146 -0.2588
   96SAPC   H4R 9405   4.148   3.726   3.521  0.9002  0.5510 -1.9748
   96SAPC   H4S 9406   4.211   3.641   3.385  0.0342  0.9034 -0.3037
   96SAPC   C25 9407   4.106   3.516   3.535 -0.0187  0.0074 -0.2300
   96SAPC   H5R 9408   4.145   3.425   3.486 -2.2255 -3.1806  3.3413
   96SAPC   C26 9409   4.060   3.504   3.664  0.3064  0.2610  0.9059
   96SAPC   H6R 9410   4.037   3.404   3.705 -1.1025  0.6382  1.0734
   96SAPC   C27 9411   4.006   3.622   3.741 -0.0894 -0.1718 -1.0779
   96SAPC   H7R 9412   4.009   3.720   3.690  1.1277  2.0101  2.7780
   96SAPC   H7S 9413   4.069   3.643   3.830 -1.6954 -0.8512  0.2784
   96SAPC   C28 9414   3.862   3.600   3.787  0.0921  0.6649  0.0913
   96SAPC   H8R 9415   3.782   3.639   3.722 -1.3851  1.0069  2.0170
   96SAPC   C29 9416   3.818   3.547   3.901  0.1781  0.3657 -0.0181
   96SAPC   H9R 9417   3.709   3.535   3.916  0.4225 -1.9480  0.2620
   96SAPC  C210 9418   3.909   3.492   4.015  0.1613 -0.1449 -0.2531
   96SAPC  H10R 9419   3.959   3.573   4.072 -1.5511 -1.0862  2.8386
   96SAPC  H10S 9420   3.994   3.435   3.972  1.4778  0.9911  0.7519
   96SAPC  C211 9421   3.821   3.418   4.120  0.5742 -0.0893 -0.5979
   96SAPC  H11R 9422   3.789   3.319   4.086  0.1892 -0.0651 -0.3089
   96SAPC  C212 9423   3.763   3.460   4.233  0.0003 -0.8547 -0.0066
   96SAPC  H12R 9424   3.709   3.388   4.296  0.2204 -0.4976  0.6109
   96SAPC  C213 9425   3.776   3.595   4.292  0.6629 -1.4072 -0.4390
   96SAPC  H13R 9426   3.675   3.626   4.325  1.1275  0.2515 -0.4868
   96SAPC  H13S 9427   3.812   3.666   4.214  0.6923  0.0908  0.8908
   96SAPC  C214 9428   3.870   3.598   4.408 -0.4416 -0.8298  0.0577
   96SAPC  H14R 9429   3.968   3.637   4.378 -0.7598 -1.6273 -2.2947
   96SAPC  C215 9430   3.855   3.552   4.536  0.4888 -0.6471  0.0503
   96SAPC  H15R 9431   3.945   3.557   4.600 -0.1446  1.3670  0.8615
   96SAPC  C216 9432   3.731   3.493   4.599 -0.6733 -0.2381 -0.3771
   96SAPC  H16R 9433   3.643   3.485   4.532  0.6023  0.4163 -2.2024
   96SAPC  H16S 9434   3.690   3.573   4.664  0.4953  0.1274 -0.0635
   96SAPC  C217 9435   3.757   3.372   4.681  0.7788  0.0022  0.3053
   96SAPC  H17R 9436   3.672   3.351   4.749  1.2490 -1.5010  0.4470
   96SAPC  H17S 9437   3.843   3.384   4.750  1.7040 -1.4371 -0.5365
   96SAPC  C218 9438   3.785   3.262   4.575  0.4571 -0.6048  0.1393
   96SAPC  H18R 9439   3.869   3.283   4.504 -0.3437 -0.5075 -0.8071
   96SAPC  H18S 9440   3.695   3.266   4.510  1.9627  1.3817 -2.0171
   96SAPC  C219 9441   3.818   3.130   4.645  0.2963 -0.8013  0.3676
   96SAPC  H19R 9442   3.903   3.152   4.713  1.1075  2.8488 -1.5706
   96SAPC  H19S 9443   3.852   3.063   4.564 -1.1788 -1.0248 -0.0944
   96SAPC  C220 9444   3.702   3.087   4.725 -0.1971  0.1121 -0.0195
   96SAPC  H20R 9445   3.689   3.145   4.819  2.2268 -1.0004  1.1157
   96SAPC  H20S 9446   3.718   2.983   4.760  1.3576  0.6385  0.9617
   96SAPC  H20T 9447   3.610   3.086   4.664 -0.6693 -1.0110  0.6924
   96SAPC   C33 9448   4.254   3.101   3.605  0.5722  0.0106 -0.2282
   96SAPC   H3X 9449   4.190   3.185   3.641 -1.0535 -0.5621 -1.6252
   96SAPC   H3Y 9450   4.362   3.128   3.600  0.7996 -0.8751 -0.2253
   96SAPC   C34 9451   4.235   2.986   3.704 -0.2201  0.1349  0.2993
   96SAPC   H4X 9452   4.280   2.891   3.669  0.3824  0.8535 -0.9221
   96SAPC   H4Y 9453   4.130   2.959   3.728 -0.4706  1.1004  0.3281
   96SAPC   C35 9454   4.306   3.006   3.842 -0.3815  0.3197 -0.6536
   96SAPC   H5X 9455   4.415   3.023   3.826 -0.0127  2.7505  3.0799
   96SAPC   H5Y 9456   4.287   2.919   3.909 -0.0638 -0.3191 -1.3802
   96SAPC   C36 9457   4.239   3.123   3.916 -0.1475 -0.3547  0.6835
   96SAPC   H6X 9458   4.128   3.115   3.913 -0.3305  1.8730 -0.5570
   96SAPC   H6Y 9459   4.261   3.208   3.848 -1.7232 -0.4555  0.0152
   96SAPC   C37 9460   4.292   3.152   4.056 -0.3776 -0.0661  0.2502
   96SAPC   H7X 9461   4.254   3.252   4.089  0.0276 -0.1856  1.0942
   96SAPC   H7Y 9462   4.402   3.159   4.063 -0.2525 -1.8264  0.2846
   96SAPC   C38 9463   4.227   3.059   4.156  0.1677 -0.4748  0.3638
   96SAPC   H8X 9464   4.278   2.960   4.149 -1.0096 -1.1649  1.1653
   96SAPC   H8Y 9465   4.125   3.038   4.116  0.1868  0.0367  0.0421
   96SAPC   C39 9466   4.211   3.106   4.304 -0.2364 -0.8149  0.2730
   96SAPC   H9X 9467   4.129   3.180   4.297  1.4058  0.9825 -1.3966
   96SAPC   H9Y 9468   4.305   3.147   4.348  0.0911 -2.7634  1.4858
   96SAPC  C310 9469   4.165   2.994   4.388  0.3874  0.8716 -0.2092
   96SAPC  H10X 9470   4.107   2.930   4.318  0.7673 -1.1414  1.2373
   96SAPC  H10Y 9471   4.092   3.033   4.462 -2.1192 -0.2820 -1.9183
   96SAPC  C311 9472   4.266   2.905   4.465  0.0453  0.5602  0.8100
   96SAPC  H11X 9473   4.310   2.985   4.529 -1.4530  1.8401  0.2916
   96SAPC  H11Y 9474   4.346   2.868   4.398  0.6251 -1.7452  2.6586
   96SAPC  C312 9475   4.208   2.792   4.552  0.7955  1.0175 -0.9962
   96SAPC  H12X 9476   4.162   2.716   4.486  3.1792 -0.2762 -1.2612
   96SAPC  H12Y 9477   4.123   2.849   4.596  0.0711  0.5686 -1.8006
   96SAPC  C313 9478   4.304   2.736   4.660  0.3742 -0.0045  0.3905
   96SAPC  H13X 9479   4.373   2.813   4.701  0.4153 -0.8363  1.9254
   96SAPC  H13Y 9480   4.373   2.666   4.609  0.2965 -1.2731  1.9600
   96SAPC  C314 9481   4.224   2.649   4.761  0.4127 -0.6268  0.1670
   96SAPC  H14X 9482   4.165   2.575   4.704 -0.6782 -0.8375  1.5137
   96SAPC  H14Y 9483   4.158   2.716   4.819 -0.4396 -1.2098 -0.1109
   96SAPC  C315 9484   4.308   2.553   4.840 -0.0814  0.7512 -0.3121
   96SAPC  H15X 9485   4.381   2.607   4.903 -0.3185  1.6915 -0.8289
   96SAPC  H15Y 9486   4.355   2.498   4.755 -0.0365  2.4094 -1.3967
   96SAPC  C316 9487   4.224   2.453   4.912  0.1013  0.0927 -0.4463
   96SAPC  H16X 9488   4.137   2.416   4.852 -2.8612  0.8512  2.9970
   96SAPC  H16Y 9489   4.178   2.503   5.000 -0.5486 -1.0832 -0.0925
   96SAPC  C317 9490   4.294   2.325   4.953 -0.7459 -0.1193 -0.2421
   96SAPC  H17X 9491   4.365   2.338   5.038 -0.4532 -1.4040 -0.2712
   96SAPC  H17Y 9492   4.353   2.288   4.867 -2.4750 -0.8892 -1.1461
   96SAPC  C318 9493   4.199   2.214   4.992 -0.8642 -0.0808  0.1096
   96SAPC  H18X 9494   4.129   2.191   4.910 -0.8489 -2.7300  0.7458
   96SAPC  H18Y 9495   4.143   2.242   5.084  0.8284 -0.2494  1.2477
   96SAPC  H18Z 9496   4.260   2.124   5.014 -1.1269 -0.1401  0.6278
   97SAPC     N 9497   3.031   3.771   3.052  0.1045 -0.4431  0.7691
   97SAPC   C12 9498   2.922   3.874   3.074  0.1540  0.3923  0.1098
   97SAPC  H12A 9499   2.844   3.834   3.138 -1.4880 -0.7623 -2.4360
   97SAPC  H12B 9500   2.871   3.890   2.980  3.2976  1.7675 -1.4843
   97SAPC   C13 9501   3.145   3.839   2.980 -1.2828  0.6699  0.0425
   97SAPC  H13A 9502   3.120   3.841   2.875  0.3893 -0.9340 -0.4424
   97SAPC  H13B 9503   3.158   3.940   3.013 -3.0894  0.3089  2.0904
   97SAPC  H13C 9504   3.237   3.783   2.987 -0.5938  1.6493 -0.9747
   97SAPC   C14 9505   3.090   3.727   3.181  0.2912 -0.6773 -0.2580
   97SAPC  H14A 9506   3.006   3.692   3.239  0.2381  2.0632  1.4809
   97SAPC  H14B 9507   3.175   3.662   3.162  2.7319  1.5187  2.3102
   97SAPC  H14C 9508   3.135   3.807   3.238  0.7907 -1.8167  1.0170
   97SAPC   C15 9509   2.975   3.648   2.980  0.2598 -0.3916 -0.3813
   97SAPC  H15A 9510   2.896   3.604   3.039  2.2985 -1.3171  1.8678
   97SAPC  H15B 9511   2.954   3.674   2.878 -1.0519  1.7908  0.3735
   97SAPC  H15C 9512   3.051   3.571   2.986 -0.2780 -0.8955  0.0339
   97SAPC   C11 9513   2.956   4.013   3.132 -0.1339  0.0400 -0.1888
   97SAPC  H11A 9514   3.006   3.987   3.227 -0.1067 -1.1504 -0.5091
   97SAPC  H11B 9515   2.858   4.065   3.138 -1.1227 -1.8581  2.4029
   97SAPC     P 9516   3.079   4.226   3.109 -0.3093 -0.0166 -0.3283
   97SAPC   O13 9517   3.189   4.289   3.028  0.1893  0.8900 -0.2222
   97SAPC   O14 9518   2.955   4.304   3.115 -0.3087  0.0726  0.2139
   97SAPC   O12 9519   3.043   4.085   3.048 -0.0471 -0.2979 -0.4132
   97SAPC   O11 9520   3.139   4.192   3.251 -0.5175  0.2382 -0.4318
   97SAPC    C1 9521   3.255   4.104   3.258 -0.4913  0.6615  0.1501
   97SAPC    HA 9522   3.213   4.002   3.243  0.4774  0.3638 -0.6210
   97SAPC    HB 9523   3.341   4.133   3.195 -1.2672  1.6854 -0.4592
   97SAPC    C2 9524   3.319   4.118   3.406 -0.6028 -0.1128 -0.2791
   97SAPC    HS 9525   3.412   4.058   3.410 -1.3041 -1.1970  0.9913
   97SAPC   O21 9526   3.228   4.064   3.503  0.0803  0.3445 -0.3205
   97SAPC   C21 9527   3.211   3.932   3.492 -0.2284  0.3029  0.5804
   97SAPC   O22 9528   3.283   3.860   3.419  0.5784 -0.0743 -1.0080
   97SAPC   C22 9529   3.092   3.886   3.574 -0.4273  0.1326 -0.1250
   97SAPC   H2R 9530   3.001   3.949   3.562 -2.0643 -1.8484  1.1261
   97SAPC   H2S 9531   3.057   3.786   3.539 -2.0723 -0.4556  2.8246
   97SAPC    C3 9532   3.366   4.264   3.447 -0.3669 -0.2030  0.4260
   97SAPC    HX 9533   3.285   4.333   3.413  0.2932  0.8914  1.0446
   97SAPC    HY 9534   3.456   4.292   3.388 -0.8699  1.3211  0.3271
   97SAPC   O31 9535   3.395   4.283   3.580  0.0743  0.6497  0.3133
   97SAPC   C31 9536   3.299   4.333   3.651  0.2276 -0.3747 -0.2886
   97SAPC   O32 9537   3.177   4.339   3.622 -0.4361  0.6592  0.0353
   97SAPC   C32 9538   3.361   4.354   3.788  0.3226  0.2564 -0.3487
   97SAPC   H2X 9539   3.460   4.399   3.765 -0.0436  0.1775 -2.2760
   97SAPC   H2Y 9540   3.363   4.268   3.857  0.0905  0.6700  0.1805
   97SAPC   C23 9541   3.125   3.868   3.725  0.0155  0.7943  0.3079
   97SAPC   H3R 9542   3.221   3.812   3.730 -0.6710 -0.3632  1.1716
   97SAPC   H3S 9543   3.048   3.796   3.762  1.4138 -1.4490 -0.9635
   97SAPC   C24 9544   3.127   4.001   3.810  0.2407  0.1435 -0.1848
   97SAPC   H4R 9545   3.194   4.074   3.759  2.7180 -0.4041  2.1007
   97SAPC   H4S 9546   3.170   3.982   3.910 -2.3835 -0.9462  0.8364
   97SAPC   C25 9547   2.991   4.067   3.820  0.8541 -0.0177 -0.8819
   97SAPC   H5R 9548   2.942   4.101   3.727  2.6074  0.0553 -1.8119
   97SAPC   C26 9549   2.923   4.069   3.942  0.5521 -0.4276  0.3610
   97SAPC   H6R 9550   2.821   4.110   3.944  0.5395 -0.4572  2.0819
   97SAPC   C27 9551   2.962   4.022   4.084  0.5479  0.5226 -0.4463
   97SAPC   H7R 9552   2.962   4.112   4.149 -2.1569 -0.5542  1.1851
   97SAPC   H7S 9553   3.063   3.977   4.076  0.7538  0.9268 -0.1666
   97SAPC   C28 9554   2.867   3.922   4.152 -0.3326 -0.6861  0.5949
   97SAPC   H8R 9555   2.790   3.882   4.084 -1.3124  1.1823  0.5231
   97SAPC   C29 9556   2.841   3.907   4.281  0.1724 -0.0734 -0.9086
   97SAPC   H9R 9557   2.770   3.826   4.303  0.4911 -0.6241 -1.8338
   97SAPC  C210 9558   2.898   3.972   4.403  0.2855 -0.2440  0.2039
   97SAPC  H10R 9559   2.849   3.944   4.499 -2.2713 -2.0256 -1.4864
   97SAPC  H10S 9560   2.881   4.082   4.406  2.8760  0.2414 -0.8175
   97SAPC  C211 9561   3.041   3.955   4.421 -0.2897  0.0640 -0.0606
   97SAPC  H11R 9562   3.097   3.945   4.327  0.6355  0.1251  0.4651
   97SAPC  C212 9563   3.120   3.942   4.530 -0.3168  0.2495  0.2328
   97SAPC  H12R 9564   3.226   3.927   4.505  0.3232  1.8746  1.8588
   97SAPC  C213 9565   3.080   3.928   4.672  0.0373  0.0506 -0.0262
   97SAPC  H13R 9566   3.117   3.830   4.710 -0.7515 -0.3665 -0.3216
   97SAPC  H13S 9567   2.972   3.909   4.687  0.2566 -0.0369  1.6900
   97SAPC  C214 9568   3.116   4.049   4.751  0.3057 -1.2043 -0.1735
   97SAPC  H14R 9569   3.134   4.135   4.685  2.6255  0.0631  1.9145
   97SAPC  C215 9570   3.141   4.045   4.880 -0.1897 -0.5530 -0.6214
   97SAPC  H15R 9571   3.167   4.135   4.938 -1.1470 -0.9473  0.4666
   97SAPC  C216 9572   3.123   3.929   4.970 -0.9848  0.4742 -0.0321
   97SAPC  H16R 9573   3.217   3.873   4.988 -1.6964 -0.6867  0.1594
   97SAPC  H16S 9574   3.056   3.853   4.924 -2.2375  0.2783  2.0036
   97SAPC  C217 9575   3.078   3.958   5.112  0.0903  0.0048  0.7722
   97SAPC  H17R 9576   3.019   4.051   5.101 -2.4598 -1.3894  1.8720
   97SAPC  H17S 9577   3.167   3.971   5.177 -0.3787  2.4040  1.0205
   97SAPC  C218 9578   2.976   3.848   5.155  0.2571  0.0593  0.5338
   97SAPC  H18R 9579   3.041   3.765   5.191 -1.1647 -1.1304  0.4301
   97SAPC  H18S 9580   2.914   3.809   5.071  0.8082  0.7311 -0.2064
   97SAPC  C219 9581   2.869   3.885   5.257 -0.2851 -0.1625 -0.1879
   97SAPC  H19R 9582   2.816   3.967   5.205 -0.5362 -1.0962 -1.4402
   97SAPC  H19S 9583   2.931   3.927   5.340 -0.2467 -0.9598  0.1935
   97SAPC  C220 9584   2.773   3.771   5.290 -0.3752 -0.1618  0.5899
   97SAPC  H20R 9585   2.718   3.789   5.385  0.3491  2.3135  0.6122
   97SAPC  H20S 9586   2.834   3.678   5.293  1.0318  0.4445 -3.3014
   97SAPC  H20T 9587   2.693   3.757   5.215 -2.0057 -0.3461  2.3073
   97SAPC   C33 9588   3.290   4.474   3.866  0.9349  0.2570 -0.1008
   97SAPC   H3X 9589   3.262   4.549   3.790 -1.0160  1.0033  1.2632
   97SAPC   H3Y 9590   3.356   4.505   3.950 -0.9335  0.1791  1.4710
   97SAPC   C34 9591   3.155   4.432   3.930  0.0816 -0.1185  0.6897
   97SAPC   H4X 9592   3.092   4.391   3.848  2.0143 -0.8021 -0.5327
   97SAPC   H4Y 9593   3.110   4.531   3.953  0.3070  0.3090 -0.6313
   97SAPC   C35 9594   3.170   4.344   4.049  0.1673  0.0843  0.3338
   97SAPC   H5X 9595   3.240   4.260   4.032  0.0940  0.3899 -1.8177
   97SAPC   H5Y 9596   3.069   4.304   4.071  0.1031  1.1370  2.1349
   97SAPC   C36 9597   3.213   4.416   4.174  0.1706 -0.3666 -0.0407
   97SAPC   H6X 9598   3.121   4.438   4.231 -0.9398  0.8671 -2.1596
   97SAPC   H6Y 9599   3.259   4.514   4.149 -0.5390  0.5894  2.1941
   97SAPC   C37 9600   3.292   4.327   4.271  0.2432 -0.1780  0.6715
   97SAPC   H7X 9601   3.391   4.314   4.221 -0.6426  1.0851 -1.5584
   97SAPC   H7Y 9602   3.233   4.233   4.281 -1.0702  0.6191  0.7150
   97SAPC   C38 9603   3.307   4.388   4.415 -0.3350 -0.1006 -0.1719
   97SAPC   H8X 9604   3.205   4.407   4.455  0.1077  0.3437  0.7711
   97SAPC   H8Y 9605   3.361   4.485   4.408 -1.0093  0.5626  2.7989
   97SAPC   C39 9606   3.389   4.298   4.520 -0.1598 -0.3417 -0.2318
   97SAPC   H9X 9607   3.493   4.312   4.485  0.2561 -0.2962  0.9800
   97SAPC   H9Y 9608   3.382   4.187   4.519 -0.5352 -0.3267  0.2584
   97SAPC  C310 9609   3.369   4.336   4.665  0.3859  0.0945 -0.1698
   97SAPC  H10X 9610   3.277   4.285   4.700 -1.1998  1.8121 -1.6452
   97SAPC  H10Y 9611   3.354   4.446   4.674  0.2922  0.0889 -0.2522
   97SAPC  C311 9612   3.493   4.313   4.752  0.2317 -0.5289  0.0259
   97SAPC  H11X 9613   3.477   4.348   4.856  1.6529 -0.5357  0.2720
   97SAPC  H11Y 9614   3.579   4.366   4.705  1.5555 -3.7398 -1.4807
   97SAPC  C312 9615   3.529   4.163   4.766  0.6712 -0.0020  1.3247
   97SAPC  H12X 9616   3.558   4.106   4.675  0.5997  0.7162  0.8447
   97SAPC  H12Y 9617   3.435   4.114   4.799  1.0275 -1.5168  0.1940
   97SAPC  C313 9618   3.630   4.130   4.870  0.2019 -0.1586  0.0691
   97SAPC  H13X 9619   3.602   4.173   4.969 -1.5180  2.6673 -1.5344
   97SAPC  H13Y 9620   3.725   4.179   4.840 -0.6823  1.4931 -0.1334
   97SAPC  C314 9621   3.663   3.979   4.878  0.3585 -0.4404  0.0665
   97SAPC  H14X 9622   3.695   3.964   4.773  1.3127 -1.4323  0.4775
   97SAPC  H14Y 9623   3.573   3.915   4.883 -1.2777  1.7078 -0.4816
   97SAPC  C315 9624   3.769   3.956   4.982  0.8397 -0.0390  0.2867
   97SAPC  H15X 9625   3.717   3.962   5.080 -2.5966 -2.9155 -1.1395
   97SAPC  H15Y 9626   3.842   4.040   4.974  0.7397  0.0504  0.3195
   97SAPC  C316 9627   3.857   3.830   4.952 -0.4471  0.0480 -0.2343
   97SAPC  H16X 9628   3.945   3.862   5.011 -1.4477  0.6005  1.0297
   97SAPC  H16Y 9629   3.894   3.815   4.849 -0.6578  0.1229 -0.3227
   97SAPC  C317 9630   3.800   3.695   5.008 -0.1047  0.3111  1.1582
   97SAPC  H17X 9631   3.767   3.636   4.920 -0.1020  3.2850 -0.9982
   97SAPC  H17Y 9632   3.706   3.717   5.063 -1.7547  2.0017 -2.0413
   97SAPC  C318 9633   3.906   3.619   5.083  0.9533 -0.1049 -0.1320
   97SAPC  H18X 9634   3.880   3.526   5.138  0.0280  0.1629 -0.1053
   97SAPC  H18Y 9635   3.965   3.679   5.155  1.3721  1.6019 -1.8060
   97SAPC  H18Z 9636   3.973   3.592   4.999 -1.1678  2.8691 -3.0729
   98SAPC     N 9637   5.381   4.172   2.804  0.1522  0.5576  0.2971
   98SAPC   C12 9638   5.437   4.266   2.902 -0.3260 -0.3437  0.5743
   98SAPC  H12A 9639   5.545   4.269   2.906 -0.3781  0.9316  1.9864
   98SAPC  H12B 9640   5.406   4.222   2.996 -1.3424 -1.2713 -0.1734
   98SAPC   C13 9641   5.239   4.124   2.836  0.1935 -0.3366 -0.0803
   98SAPC  H13A 9642   5.196   4.061   2.760 -1.5485  0.0545  0.5479
   98SAPC  H13B 9643   5.247   4.078   2.934  0.4458 -2.0769 -0.8759
   98SAPC  H13C 9644   5.179   4.212   2.851 -0.5544 -0.2130 -3.1330
   98SAPC   C14 9645   5.388   4.231   2.674 -0.1682 -0.4669 -0.0594
   98SAPC  H14A 9646   5.481   4.284   2.662 -0.7338  0.8296  1.0550
   98SAPC  H14B 9647   5.381   4.162   2.591  0.2345 -0.2741 -0.2560
   98SAPC  H14C 9648   5.312   4.307   2.665  2.6531  2.3998 -1.4556
   98SAPC   C15 9649   5.477   4.057   2.799 -0.1742 -0.6811  0.4365
   98SAPC  H15A 9650   5.518   4.041   2.898  2.3242  3.8462  0.4140
   98SAPC  H15B 9651   5.435   3.970   2.751 -2.4789  0.6863 -0.1622
   98SAPC  H15C 9652   5.571   4.082   2.751  0.9839 -0.0414  2.8430
   98SAPC   C11 9653   5.387   4.409   2.906 -0.3145 -0.5098  0.2533
   98SAPC  H11A 9654   5.370   4.446   3.009  0.8359  1.3472 -0.1921
   98SAPC  H11B 9655   5.282   4.408   2.870 -0.7022  1.7594  1.1828
   98SAPC     P 9656   5.607   4.520   2.903  0.4000 -0.1259 -0.1440
   98SAPC   O13 9657   5.693   4.399   2.884  0.1600  0.1132 -0.1131
   98SAPC   O14 9658   5.662   4.649   2.855  0.3146 -0.3240 -0.1427
   98SAPC   O12 9659   5.465   4.498   2.832  0.0463  0.1639  0.3118
   98SAPC   O11 9660   5.570   4.530   3.058 -0.1971 -0.1465 -0.5447
   98SAPC    C1 9661   5.619   4.631   3.145 -0.3849 -0.9228 -0.3186
   98SAPC    HA 9662   5.669   4.714   3.091 -0.4695  1.4294  2.9479
   98SAPC    HB 9663   5.537   4.674   3.207 -0.5536 -0.3555 -0.9225
   98SAPC    C2 9664   5.709   4.561   3.248 -0.2697 -0.3228 -0.1048
   98SAPC    HS 9665   5.754   4.473   3.199  0.5183  0.6671 -1.2221
   98SAPC   O21 9666   5.623   4.529   3.363 -0.0048 -0.1245  0.2322
   98SAPC   C21 9667   5.602   4.404   3.378  0.1205 -0.5561  0.5842
   98SAPC   O22 9668   5.632   4.320   3.295  0.5225  0.4180 -0.1725
   98SAPC   C22 9669   5.529   4.388   3.506 -0.5781 -0.6391 -0.0855
   98SAPC   H2R 9670   5.489   4.482   3.549 -1.3136 -1.6094  1.4462
   98SAPC   H2S 9671   5.435   4.331   3.490 -0.2677 -1.1630 -0.0773
   98SAPC    C3 9672   5.833   4.645   3.295  0.4130  0.2903 -0.5267
   98SAPC    HX 9673   5.808   4.744   3.339  2.3597  0.1982  0.8730
   98SAPC    HY 9674   5.899   4.667   3.208  1.4504  1.4627  0.5269
   98SAPC   O31 9675   5.897   4.581   3.404  0.1522 -0.0550  0.7469
   98SAPC   C31 9676   6.030   4.591   3.415 -0.4398 -0.4477 -0.6438
   98SAPC   O32 9677   6.099   4.665   3.348 -0.2325  0.0775  0.7367
   98SAPC   C32 9678   6.086   4.509   3.532  0.1877  0.0449  0.8126
   98SAPC   H2X 9679   6.195   4.501   3.510 -0.2345 -1.1825 -1.0964
   98SAPC   H2Y 9680   6.045   4.406   3.527 -2.8257  1.1495  1.0097
   98SAPC   C23 9681   5.626   4.322   3.609 -0.2082 -0.1384 -0.1508
   98SAPC   H3R 9682   5.681   4.230   3.579 -1.2584 -1.8047  2.6343
   98SAPC   H3S 9683   5.572   4.284   3.698 -1.3986  0.2070 -0.7045
   98SAPC   C24 9684   5.719   4.417   3.678 -1.0620  0.1480  0.1170
   98SAPC   H4R 9685   5.664   4.500   3.728 -0.1958  1.8336 -1.6273
   98SAPC   H4S 9686   5.773   4.475   3.601 -1.0757  1.2980  0.9361
   98SAPC   C25 9687   5.814   4.355   3.776  0.3418  0.4328  0.1709
   98SAPC   H5R 9688   5.904   4.317   3.726  0.3940  0.5024  0.2123
   98SAPC   C26 9689   5.790   4.329   3.904 -0.2374 -0.0156  0.4988
   98SAPC   H6R 9690   5.867   4.290   3.972 -1.8178 -0.2005  2.2668
   98SAPC   C27 9691   5.671   4.365   3.988 -0.1700 -0.6089  0.0655
   98SAPC   H7R 9692   5.595   4.420   3.929 -0.9394 -0.1045  1.4844
   98SAPC   H7S 9693   5.704   4.431   4.071 -1.7395 -0.3326  0.4963
   98SAPC   C28 9694   5.596   4.241   4.034  0.6585  0.4257  0.4885
   98SAPC   H8R 9695   5.561   4.175   3.953 -0.7323  1.3752  0.2784
   98SAPC   C29 9696   5.564   4.206   4.158 -0.2233  0.2937  0.3259
   98SAPC   H9R 9697   5.507   4.113   4.170  0.7844 -0.2522  1.0113
   98SAPC  C210 9698   5.615   4.267   4.289 -0.6055 -0.0970  0.3460
   98SAPC  H10R 9699   5.557   4.227   4.376  0.6575  0.2904  1.3955
   98SAPC  H10S 9700   5.592   4.376   4.286 -0.1916 -0.0217 -0.1666
   98SAPC  C211 9701   5.762   4.247   4.321  0.0443  0.0892  0.0195
   98SAPC  H11R 9702   5.830   4.320   4.274 -1.1044  1.4821  0.4268
   98SAPC  C212 9703   5.815   4.140   4.388  0.0143 -0.3132  0.5684
   98SAPC  H12R 9704   5.923   4.154   4.404 -0.0064  0.6609 -0.1215
   98SAPC  C213 9705   5.740   4.027   4.451 -0.0990  0.0502 -0.0468
   98SAPC  H13R 9706   5.773   3.943   4.385  1.6784  0.2249  0.5527
   98SAPC  H13S 9707   5.631   4.040   4.435 -0.0321  0.2188 -0.3656
   98SAPC  C214 9708   5.771   3.988   4.594  0.0771  0.1128 -0.0134
   98SAPC  H14R 9709   5.842   3.904   4.597 -2.1128 -1.8476 -0.1800
   98SAPC  C215 9710   5.717   4.046   4.703  0.5431  0.2097 -0.1045
   98SAPC  H15R 9711   5.740   3.995   4.798  0.5045 -0.2704 -0.3501
   98SAPC  C216 9712   5.603   4.145   4.700 -0.2397  0.1541 -0.0272
   98SAPC  H16R 9713   5.512   4.090   4.670  2.4328 -3.9257 -1.4385
   98SAPC  H16S 9714   5.629   4.226   4.627  0.8130  0.1406  0.3193
   98SAPC  C217 9715   5.572   4.218   4.837  0.1026 -1.0123  0.3703
   98SAPC  H17R 9716   5.517   4.311   4.815  1.4197  0.6082  3.2541
   98SAPC  H17S 9717   5.671   4.256   4.872 -0.1290  1.5309 -1.5137
   98SAPC  C218 9718   5.502   4.134   4.940  0.9705  0.1867  0.0129
   98SAPC  H18R 9719   5.556   4.037   4.950  0.2344 -0.6197 -2.7722
   98SAPC  H18S 9720   5.403   4.115   4.895  1.5942  1.0453 -1.8322
   98SAPC  C219 9721   5.502   4.213   5.071  0.5687 -0.1517 -0.5942
   98SAPC  H19R 9722   5.457   4.314   5.062  1.6561  0.5459  1.2163
   98SAPC  H19S 9723   5.607   4.231   5.101  0.8549  1.0077 -2.1756
   98SAPC  C220 9724   5.435   4.147   5.195 -0.2123 -0.3146  0.3930
   98SAPC  H20R 9725   5.478   4.047   5.218 -0.3706 -0.2661  0.8966
   98SAPC  H20S 9726   5.325   4.142   5.185 -0.4404 -0.0641  2.3610
   98SAPC  H20T 9727   5.466   4.210   5.281 -0.8106  0.9598 -0.2963
   98SAPC   C33 9728   6.055   4.567   3.670 -0.1324 -0.9564  0.1829
   98SAPC   H3X 9729   5.949   4.567   3.705  0.1943 -2.0174  1.2117
   98SAPC   H3Y 9730   6.081   4.675   3.665 -1.0247 -0.7845 -1.4364
   98SAPC   C34 9731   6.140   4.494   3.781  0.6263 -0.7126  0.4100
   98SAPC   H4X 9732   6.243   4.511   3.743  0.2555  1.8271  0.3518
   98SAPC   H4Y 9733   6.112   4.388   3.800  0.4301 -0.6370  0.5371
   98SAPC   C35 9734   6.134   4.565   3.915 -0.0266 -0.0491  0.6348
   98SAPC   H5X 9735   6.033   4.563   3.962 -1.0274  2.7983 -1.1233
   98SAPC   H5Y 9736   6.146   4.674   3.898 -1.5849  0.1154  0.4470
   98SAPC   C36 9737   6.240   4.517   4.024 -0.2552 -0.2699 -0.2606
   98SAPC   H6X 9738   6.336   4.547   3.977  0.0690  1.4201  1.3681
   98SAPC   H6Y 9739   6.241   4.406   4.032  1.5842 -0.2853 -0.1911
   98SAPC   C37 9740   6.228   4.588   4.163 -0.3117 -0.3719  0.6074
   98SAPC   H7X 9741   6.135   4.647   4.159  0.4228  1.0079  2.2759
   98SAPC   H7Y 9742   6.311   4.660   4.179 -0.2731 -0.1868 -0.3760
   98SAPC   C38 9743   6.220   4.495   4.283  0.2096 -0.0587  0.1645
   98SAPC   H8X 9744   6.321   4.452   4.298  0.2397 -0.5480 -1.2984
   98SAPC   H8Y 9745   6.143   4.415   4.274  0.2383 -0.0608 -0.0494
   98SAPC   C39 9746   6.169   4.566   4.416 -0.0417 -0.4169 -0.0287
   98SAPC   H9X 9747   6.156   4.493   4.499 -1.2965  1.9616  2.0155
   98SAPC   H9Y 9748   6.062   4.596   4.407  0.5046  2.3101  1.4494
   98SAPC  C310 9749   6.265   4.675   4.468 -0.0114 -0.4488 -0.4671
   98SAPC  H10X 9750   6.243   4.765   4.406  1.4507 -1.1967 -2.1365
   98SAPC  H10Y 9751   6.365   4.638   4.440 -0.8988 -0.2413 -4.5602
   98SAPC  C311 9752   6.239   4.702   4.623  0.3305  0.3487  0.2605
   98SAPC  H11X 9753   6.283   4.616   4.679  0.5672 -0.5579 -1.2526
   98SAPC  H11Y 9754   6.128   4.695   4.623  0.1243  1.9088 -2.5704
   98SAPC  C312 9755   6.288   4.839   4.670  0.0765  0.5038  0.2890
   98SAPC  H12X 9756   6.254   4.915   4.596  1.3062  0.6306 -0.1738
   98SAPC  H12Y 9757   6.397   4.853   4.652 -0.1938  3.0609  0.2843
   98SAPC  C313 9758   6.237   4.867   4.811 -0.3350  0.1407  0.3794
   98SAPC  H13X 9759   6.126   4.866   4.804 -0.3028 -0.2990 -0.1747
   98SAPC  H13Y 9760   6.274   4.966   4.846 -0.7981  0.0544  1.1293
   98SAPC  C314 9761   6.287   4.765   4.913 -0.5371  0.0668 -0.6245
   98SAPC  H14X 9762   6.396   4.751   4.893 -0.7417 -0.3871 -1.4890
   98SAPC  H14Y 9763   6.234   4.668   4.903  0.6803 -1.1674  3.1629
   98SAPC  C315 9764   6.253   4.806   5.055  0.4021 -0.2795 -0.1489
   98SAPC  H15X 9765   6.145   4.784   5.071  0.1125  1.7219  0.8707
   98SAPC  H15Y 9766   6.257   4.915   5.073  2.3283 -0.3778  0.2080
   98SAPC  C316 9767   6.338   4.743   5.167 -0.0057  0.0381 -0.2928
   98SAPC  H16X 9768   6.446   4.765   5.158  0.3067 -2.0676 -4.2946
   98SAPC  H16Y 9769   6.341   4.631   5.166  1.2345  0.0359 -2.1099
   98SAPC  C317 9770   6.289   4.783   5.304  0.5396 -0.7448  0.2331
   98SAPC  H17X 9771   6.305   4.893   5.315 -0.0303 -0.5655 -0.6161
   98SAPC  H17Y 9772   6.350   4.731   5.381  1.6071 -4.2944 -2.7420
   98SAPC  C318 9773   6.143   4.757   5.330 -0.8666 -0.0524  0.5753
   98SAPC  H18X 9774   6.108   4.655   5.302  0.1599 -0.4204  0.5916
   98SAPC  H18Y 9775   6.076   4.829   5.279  1.3213 -0.1828 -2.7959
   98SAPC  H18Z 9776   6.122   4.776   5.438  0.4420 -1.3495  1.0962
   99SAPC     N 9777   6.325   3.033   2.862  0.2971 -0.1494 -0.0386
   99SAPC   C12 9778   6.211   2.935   2.830 -0.0242 -0.3873 -0.8313
   99SAPC  H12A 9779   6.224   2.887   2.734 -0.3361  0.0245 -1.0856
   99SAPC  H12B 9780   6.119   2.989   2.815  0.2020  0.0739 -0.5534
   99SAPC   C13 9781   6.358   3.123   2.748  0.4150  0.0619  0.6977
   99SAPC  H13A 9782   6.423   3.204   2.777  2.1257 -0.2426 -1.9863
   99SAPC  H13B 9783   6.421   3.078   2.674  0.0332 -2.2997  1.7183
   99SAPC  H13C 9784   6.270   3.162   2.700 -0.3902 -1.2913  1.0274
   99SAPC   C14 9785   6.281   3.130   2.968 -0.3714 -0.9061  0.1991
   99SAPC  H14A 9786   6.244   3.074   3.053  1.6897  1.1960  2.6690
   99SAPC  H14B 9787   6.366   3.185   3.007 -1.0143  0.0267  0.3352
   99SAPC  H14C 9788   6.205   3.198   2.931  0.4259  0.5258  1.1068
   99SAPC   C15 9789   6.439   2.952   2.895 -0.0315 -0.4432  0.4779
   99SAPC  H15A 9790   6.470   2.897   2.808  1.9107  1.8839 -0.4243
   99SAPC  H15B 9791   6.524   3.012   2.927 -1.1746  2.1889 -1.0719
   99SAPC  H15C 9792   6.418   2.878   2.971  2.4688 -1.9307 -0.1549
   99SAPC   C11 9793   6.174   2.824   2.932  0.1984  0.3304  0.4764
   99SAPC  H11A 9794   6.159   2.872   3.031  0.5903  2.5436 -0.4887
   99SAPC  H11B 9795   6.246   2.744   2.962  0.6733  1.4677  2.6033
   99SAPC     P 9796   6.038   2.616   2.838 -0.5222 -0.4116  0.0889
   99SAPC   O13 9797   5.914   2.593   2.765  0.1486  0.0232 -0.3237
   99SAPC   O14 9798   6.171   2.565   2.786 -0.1308 -0.4562 -0.0056
   99SAPC   O12 9799   6.049   2.764   2.883 -0.0852  0.2964 -0.4859
   99SAPC   O11 9800   6.021   2.538   2.975  0.0020 -1.3165  0.2782
   99SAPC    C1 9801   5.901   2.569   3.055 -0.6984  0.3774 -0.3366
   99SAPC    HA 9802   5.891   2.679   3.067  2.1303  0.9749 -2.5080
   99SAPC    HB 9803   5.811   2.539   2.997 -0.4713 -0.2755 -0.3584
   99SAPC    C2 9804   5.896   2.504   3.192 -0.3969 -0.0260 -0.1352
   99SAPC    HS 9805   5.799   2.525   3.243  0.0200  0.0656  0.6289
   99SAPC   O21 9806   6.004   2.543   3.278 -0.9070 -0.2441 -0.2488
   99SAPC   C21 9807   5.988   2.655   3.333 -0.2446 -0.5167  0.4443
   99SAPC   O22 9808   5.886   2.727   3.330  0.2760  0.1559 -0.9293
   99SAPC   C22 9809   6.118   2.702   3.394 -0.3748  0.3967  0.2242
   99SAPC   H2R 9810   6.203   2.634   3.367  0.2646  1.6438 -1.0672
   99SAPC   H2S 9811   6.142   2.797   3.341  0.3838 -0.0276 -0.2182
   99SAPC    C3 9812   5.900   2.350   3.173 -0.7841 -0.1748  0.1649
   99SAPC    HX 9813   5.995   2.319   3.124 -1.2927 -0.9310 -0.3725
   99SAPC    HY 9814   5.826   2.322   3.096  0.0746  0.2779 -0.8623
   99SAPC   O31 9815   5.877   2.281   3.294 -0.0273 -0.0211  0.5292
   99SAPC   C31 9816   5.984   2.258   3.375 -0.2894 -0.3145 -0.5288
   99SAPC   O32 9817   6.101   2.290   3.345 -0.4497  0.6865 -0.6559
   99SAPC   C32 9818   5.941   2.184   3.499 -0.1124 -0.2956  0.8436
   99SAPC   H2X 9819   5.890   2.091   3.466 -1.0100 -0.2650  2.0810
   99SAPC   H2Y 9820   5.862   2.246   3.546  1.8867  2.8238  0.3605
   99SAPC   C23 9821   6.117   2.731   3.547  0.4345 -0.6419  0.0958
   99SAPC   H3R 9822   6.081   2.633   3.586 -2.5595  0.4497  0.3037
   99SAPC   H3S 9823   6.034   2.804   3.558 -0.1779 -1.5425  2.0107
   99SAPC   C24 9824   6.247   2.779   3.620  0.0290 -0.3338  0.3864
   99SAPC   H4R 9825   6.229   2.817   3.722  0.9777 -2.5190  1.4260
   99SAPC   H4S 9826   6.279   2.865   3.557  0.9639 -2.0021 -1.5431
   99SAPC   C25 9827   6.363   2.679   3.624 -0.2338  0.2199 -0.4873
   99SAPC   H5R 9828   6.448   2.699   3.557  0.1733 -0.6920 -0.2551
   99SAPC   C26 9829   6.381   2.572   3.703  0.1500 -0.1915  0.3942
   99SAPC   H6R 9830   6.464   2.506   3.676 -0.9902 -1.0605 -1.1130
   99SAPC   C27 9831   6.283   2.535   3.810 -0.3646  0.2125 -0.8286
   99SAPC   H7R 9832   6.285   2.424   3.814  1.0418  0.2449  0.5419
   99SAPC   H7S 9833   6.180   2.563   3.783 -0.7813 -0.6036 -0.1382
   99SAPC   C28 9834   6.327   2.595   3.945 -0.0406 -0.2094 -0.8008
   99SAPC   H8R 9835   6.413   2.664   3.948 -0.3042  0.0855  0.4647
   99SAPC   C29 9836   6.280   2.556   4.069  0.1418 -0.3258 -0.0060
   99SAPC   H9R 9837   6.346   2.577   4.154  2.1431 -3.3434 -0.6835
   99SAPC  C210 9838   6.177   2.453   4.089  1.1608 -1.0441  0.5868
   99SAPC  H10R 9839   6.205   2.380   4.168  0.5708 -1.8077  0.0986
   99SAPC  H10S 9840   6.171   2.380   4.005 -0.9054 -2.0452  1.5384
   99SAPC  C211 9841   6.057   2.537   4.128 -0.2715  1.0513  0.8159
   99SAPC  H11R 9842   6.013   2.585   4.040  0.2392 -1.1371 -0.7327
   99SAPC  C212 9843   6.008   2.549   4.246  0.2242 -0.4101 -0.8369
   99SAPC  H12R 9844   5.914   2.605   4.252  0.8109  0.6741 -1.4244
   99SAPC  C213 9845   6.063   2.497   4.380 -0.7204  0.4264  0.9770
   99SAPC  H13R 9846   6.141   2.571   4.407 -1.5333  1.7881 -0.2319
   99SAPC  H13S 9847   6.124   2.406   4.368  1.0152  1.5104  1.1738
   99SAPC  C214 9848   5.972   2.462   4.488 -0.2117  0.2908  0.1346
   99SAPC  H14R 9849   5.871   2.434   4.452 -0.2323 -1.2664  1.3087
   99SAPC  C215 9850   5.992   2.447   4.619 -0.8041  0.1255  0.1622
   99SAPC  H15R 9851   5.900   2.448   4.679  0.0288 -2.1253  1.6036
   99SAPC  C216 9852   6.130   2.465   4.685  0.9851 -0.9300  0.2628
   99SAPC  H16R 9853   6.181   2.557   4.650  0.2010 -0.6968 -0.2972
   99SAPC  H16S 9854   6.195   2.377   4.666  1.5323  0.0397 -3.0000
   99SAPC  C217 9855   6.114   2.483   4.840  0.4498 -0.6865  0.5718
   99SAPC  H17R 9856   6.216   2.460   4.880 -0.4228 -1.0143  2.7695
   99SAPC  H17S 9857   6.044   2.408   4.883  1.4624 -1.7700  0.3894
   99SAPC  C218 9858   6.064   2.624   4.880 -0.0773 -0.0184 -0.6519
   99SAPC  H18R 9859   5.966   2.642   4.833  0.5105  1.6190 -1.3195
   99SAPC  H18S 9860   6.135   2.696   4.834  1.0180  1.1783  2.5972
   99SAPC  C219 9861   6.061   2.656   5.032 -0.7349  0.4035 -1.0318
   99SAPC  H19R 9862   5.975   2.605   5.081 -1.8767  2.2718 -0.9839
   99SAPC  H19S 9863   6.047   2.766   5.041  3.0425  0.8641  1.8823
   99SAPC  C220 9864   6.193   2.625   5.095 -0.7927 -0.3363 -0.4190
   99SAPC  H20R 9865   6.198   2.652   5.202  0.0976 -1.2944 -0.1985
   99SAPC  H20S 9866   6.270   2.679   5.035 -0.6639 -1.4935 -1.3313
   99SAPC  H20T 9867   6.206   2.515   5.097  1.3098 -0.1165  0.1262
   99SAPC   C33 9868   6.062   2.174   3.598  0.8271  0.5913  0.3873
   99SAPC   H3X 9869   6.118   2.269   3.610  0.6603  0.6007  1.1528
   99SAPC   H3Y 9870   6.136   2.100   3.560  0.1307  0.7423 -1.3209
   99SAPC   C34 9871   6.005   2.121   3.726 -0.3420  0.3956  0.4796
   99SAPC   H4X 9872   5.936   2.037   3.703 -0.8682  1.2292 -1.0853
   99SAPC   H4Y 9873   5.942   2.210   3.748  0.1227  1.5076 -2.2573
   99SAPC   C35 9874   6.109   2.074   3.819 -0.3505  0.2791  0.0476
   99SAPC   H5X 9875   6.187   2.152   3.833 -0.3725  0.1902  0.7253
   99SAPC   H5Y 9876   6.150   1.977   3.782 -3.4538 -0.2115 -2.4634
   99SAPC   C36 9877   6.042   2.046   3.953  0.6242  0.6366 -0.4220
   99SAPC   H6X 9878   5.989   1.949   3.967 -0.9713  1.6463  0.9519
   99SAPC   H6Y 9879   5.983   2.136   3.983  1.7753  0.8041  1.4865
   99SAPC   C37 9880   6.132   2.037   4.071  0.2592  0.5150  0.1121
   99SAPC   H7X 9881   6.192   2.130   4.066  0.5740  0.2616 -1.9841
   99SAPC   H7Y 9882   6.205   1.954   4.061 -1.6058 -1.1110 -0.6356
   99SAPC   C38 9883   6.048   2.042   4.199  0.0864 -0.5547  0.0952
   99SAPC   H8X 9884   5.971   1.964   4.211 -0.7597  0.2493 -0.0130
   99SAPC   H8Y 9885   5.997   2.141   4.204  1.6099  0.2237  2.2030
   99SAPC   C39 9886   6.146   2.033   4.319  0.1793  0.7001  0.7107
   99SAPC   H9X 9887   6.211   2.122   4.311 -0.1581  0.9575  0.8054
   99SAPC   H9Y 9888   6.207   1.941   4.309  1.7181  1.7625 -0.1184
   99SAPC  C310 9889   6.071   2.034   4.448  0.6025  0.1909 -0.4115
   99SAPC  H10X 9890   6.003   1.948   4.438  1.2041 -0.3483  0.0480
   99SAPC  H10Y 9891   6.011   2.127   4.453  1.0878  0.4589  1.0821
   99SAPC  C311 9892   6.168   2.019   4.566  0.2744  0.8374 -0.3252
   99SAPC  H11X 9893   6.236   2.106   4.575  2.5638 -0.7444 -1.3335
   99SAPC  H11Y 9894   6.242   1.940   4.542  0.9362  1.2793  0.2325
   99SAPC  C312 9895   6.104   1.971   4.701 -0.4350  0.5015  0.4739
   99SAPC  H12X 9896   6.023   1.898   4.679  1.0849 -0.7640 -1.2274
   99SAPC  H12Y 9897   6.060   2.058   4.754 -3.0609 -0.4060 -0.0825
   99SAPC  C313 9898   6.214   1.899   4.778 -0.7271  0.5287 -0.8491
   99SAPC  H13X 9899   6.266   1.831   4.708 -0.5895  2.7290 -3.0298
   99SAPC  H13Y 9900   6.174   1.835   4.859  0.7977 -1.2921 -1.4802
   99SAPC  C314 9901   6.314   1.995   4.848 -0.7836  0.5232 -0.5666
   99SAPC  H14X 9902   6.379   2.041   4.770 -1.4935  0.2728 -1.3244
   99SAPC  H14Y 9903   6.394   1.942   4.905  0.7461  2.8681 -0.3710
   99SAPC  C315 9904   6.259   2.096   4.954 -0.2358 -0.3952  0.5115
   99SAPC  H15X 9905   6.193   2.168   4.902 -0.8566 -0.2342  1.4983
   99SAPC  H15Y 9906   6.347   2.149   4.998 -1.4155  0.1480  2.2979
   99SAPC  C316 9907   6.174   2.041   5.072  0.1922  0.4422  0.2977
   99SAPC  H16X 9908   6.219   1.947   5.109 -1.0141 -0.3236 -0.1265
   99SAPC  H16Y 9909   6.070   2.027   5.036  0.0870  0.7676  0.4680
   99SAPC  C317 9910   6.177   2.139   5.191  0.1161 -0.7003 -0.2726
   99SAPC  H17X 9911   6.145   2.243   5.171  2.4531  0.0560 -0.4311
   99SAPC  H17Y 9912   6.287   2.154   5.196 -0.0676  0.2793  1.1970
   99SAPC  C318 9913   6.130   2.093   5.332 -0.4186  0.5746  0.5647
   99SAPC  H18X 9914   6.138   1.983   5.341 -1.6257  0.5014  0.9495
   99SAPC  H18Y 9915   6.019   2.099   5.341 -0.2803  2.6695  1.3542
   99SAPC  H18Z 9916   6.185   2.148   5.411  1.1902 -0.0937 -0.0595
  100SAPC     N 9917   2.721   2.150   2.930 -0.1831 -0.4309 -0.7173
  100SAPC   C12 9918   2.741   2.271   3.027 -0.2684 -0.1333  0.0593
  100SAPC  H12A 9919   2.776   2.220   3.116 -1.0222 -1.2088 -0.2456
  100SAPC  H12B 9920   2.649   2.317   3.060  0.2459 -0.9769  2.9628
  100SAPC   C13 9921   2.853   2.090   2.902 -0.3344 -0.3293 -0.2863
  100SAPC  H13A 9922   2.931   2.160   2.877  1.0539 -1.3921  0.8874
  100SAPC  H13B 9923   2.888   2.066   3.001 -2.5290  3.9325  1.7795
  100SAPC  H13C 9924   2.848   1.999   2.843 -1.9849 -0.2327 -0.3493
  100SAPC   C14 9925   2.635   2.046   3.001 -0.6726 -0.1949  0.7887
  100SAPC  H14A 9926   2.537   2.088   3.015  0.2967  2.0606  1.1202
  100SAPC  H14B 9927   2.630   1.956   2.941 -0.5358 -0.7884  1.6490
  100SAPC  H14C 9928   2.682   2.025   3.095 -3.0585 -2.6130  1.5933
  100SAPC   C15 9929   2.635   2.188   2.811  0.2638  0.4954  0.6293
  100SAPC  H15A 9930   2.531   2.201   2.836  0.0591 -0.5695  0.3441
  100SAPC  H15B 9931   2.673   2.281   2.771  0.9230 -0.2012 -0.4041
  100SAPC  H15C 9932   2.640   2.112   2.735 -0.2665 -0.9587  1.9969
  100SAPC   C11 9933   2.851   2.376   2.998 -0.7706 -0.0482 -0.5456
  100SAPC  H11A 9934   2.952   2.329   3.002  0.1338  1.8520  1.5876
  100SAPC  H11B 9935   2.857   2.446   3.084 -1.0839 -0.6080 -0.0577
  100SAPC     P 9936   2.743   2.581   2.883 -0.0374 -0.3760  0.3578
  100SAPC   O13 9937   2.722   2.638   2.745 -0.4009  0.2551  0.1431
  100SAPC   O14 9938   2.623   2.579   2.968  0.6538  0.0899 -0.1040
  100SAPC   O12 9939   2.813   2.434   2.873 -1.2989  0.2530 -0.0236
  100SAPC   O11 9940   2.851   2.678   2.968  0.2543 -0.0823  0.3163
  100SAPC    C1 9941   2.822   2.815   2.973 -0.3093  0.0743 -0.3397
  100SAPC    HA 9942   2.880   2.857   2.888  1.9412 -0.7955  0.6958
  100SAPC    HB 9943   2.716   2.850   2.971 -0.6895 -0.9200  0.9647
  100SAPC    C2 9944   2.890   2.877   3.098  0.1365  0.5736  0.0325
  100SAPC    HS 9945   2.995   2.845   3.111 -0.7595 -1.8592  2.3335
  100SAPC   O21 9946   2.820   2.836   3.215  0.1548  0.0737 -0.2174
  100SAPC   C21 9947   2.871   2.747   3.299  0.6140 -1.3531  0.4175
  100SAPC   O22 9948   2.981   2.695   3.282  0.2515 -0.0273 -0.8432
  100SAPC   C22 9949   2.772   2.714   3.410 -0.3385  0.0164 -0.3568
  100SAPC   H2R 9950   2.798   2.770   3.502 -2.1976  3.0169 -1.4965
  100SAPC   H2S 9951   2.670   2.735   3.369 -0.5151 -1.4381 -0.7120
  100SAPC    C3 9952   2.892   3.031   3.089 -0.6845  0.2274  0.8914
  100SAPC    HX 9953   2.799   3.065   3.040 -2.3325  0.0094  3.6878
  100SAPC    HY 9954   2.981   3.062   3.029 -0.0780  0.0482  1.6766
  100SAPC   O31 9955   2.905   3.085   3.224 -0.1437 -0.5989  0.2279
  100SAPC   C31 9956   3.030   3.121   3.265 -0.3841 -0.1777 -0.4786
  100SAPC   O32 9957   3.136   3.110   3.206  0.0142 -0.5683 -0.9006
  100SAPC   C32 9958   3.006   3.160   3.409  0.0803  0.4320  0.3406
  100SAPC   H2X 9959   2.902   3.196   3.415  0.2535  0.9481  0.3114
  100SAPC   H2Y 9960   3.067   3.252   3.424 -2.2114  1.6889  2.5233
  100SAPC   C23 9961   2.777   2.561   3.463 -0.4568 -0.6949  0.3079
  100SAPC   H3R 9962   2.886   2.548   3.479 -0.1448 -1.0949 -1.9084
  100SAPC   H3S 9963   2.740   2.490   3.385 -1.0882 -0.1340  0.0913
  100SAPC   C24 9964   2.696   2.543   3.600  0.4268  0.7634  0.5987
  100SAPC   H4R 9965   2.745   2.615   3.669  0.3799  1.8885 -0.4979
  100SAPC   H4S 9966   2.723   2.440   3.632  1.3387  0.0880 -2.0472
  100SAPC   C25 9967   2.546   2.567   3.575 -0.1040  0.5072 -0.0628
  100SAPC   H5R 9968   2.510   2.510   3.488  0.0179 -0.6573  0.6247
  100SAPC   C26 9969   2.457   2.645   3.648 -0.4869 -0.2486  0.2507
  100SAPC   H6R 9970   2.354   2.649   3.609 -0.5431  1.6151  0.5195
  100SAPC   C27 9971   2.493   2.735   3.764  0.1072  0.2775  0.0175
  100SAPC   H7R 9972   2.567   2.683   3.828  0.9473  1.9566  0.4588
  100SAPC   H7S 9973   2.406   2.757   3.830  0.2003  0.1610  0.1776
  100SAPC   C28 9974   2.543   2.859   3.706 -0.2265 -0.4652  0.1876
  100SAPC   H8R 9975   2.542   2.864   3.596 -0.6468 -2.0919  0.0905
  100SAPC   C29 9976   2.574   2.977   3.776  0.2308  0.3076  0.3376
  100SAPC   H9R 9977   2.604   3.065   3.718  4.1909 -0.6104  0.6916
  100SAPC  C210 9978   2.575   3.000   3.918 -0.4299  0.8146 -0.0675
  100SAPC  H10R 9979   2.647   3.083   3.928 -1.8569  2.1588 -0.6498
  100SAPC  H10S 9980   2.611   2.914   3.979 -1.7076  0.1761 -0.1811
  100SAPC  C211 9981   2.435   3.030   3.959  0.3488 -0.3437  0.1639
  100SAPC  H11R 9982   2.358   2.991   3.891 -1.2918 -1.0219  2.2879
  100SAPC  C212 9983   2.392   3.085   4.077 -0.0039  0.5231  0.5455
  100SAPC  H12R 9984   2.284   3.086   4.102  0.0317  0.4159  0.7038
  100SAPC  C213 9985   2.490   3.125   4.181  0.1321 -0.4578 -0.4599
  100SAPC  H13R 9986   2.444   3.200   4.250  2.1852 -0.0444  0.5468
  100SAPC  H13S 9987   2.575   3.177   4.131  0.4719  0.0809  0.6394
  100SAPC  C214 9988   2.530   3.008   4.266 -0.1636 -0.3235 -0.3572
  100SAPC  H14R 9989   2.477   2.913   4.250 -1.7265  0.5625 -0.6359
  100SAPC  C215 9990   2.655   3.001   4.325  0.5436  1.0233  0.8563
  100SAPC  H15R 9991   2.679   2.908   4.377  2.0355 -0.1051 -1.6275
  100SAPC  C216 9992   2.750   3.115   4.349 -0.7016  0.0723 -0.7712
  100SAPC  H16R 9993   2.706   3.214   4.324 -1.5711 -0.3584 -0.9756
  100SAPC  H16S 9994   2.841   3.109   4.286  0.7355 -0.3062  1.2373
  100SAPC  C217 9995   2.783   3.115   4.500 -0.2872  0.3546 -0.0221
  100SAPC  H17R 9996   2.854   3.199   4.513 -0.7189  0.7210 -0.0163
  100SAPC  H17S 9997   2.832   3.018   4.519 -2.0352 -0.6028 -0.1541
  100SAPC  C218 9998   2.667   3.157   4.588 -0.2543 -1.2933 -0.1616
  100SAPC  H18R 9999   2.590   3.077   4.581 -0.9022 -1.0586  2.7644
  100SAPC  H18S10000   2.621   3.249   4.548 -1.1606 -1.5935  0.1602
  100SAPC  C21910001   2.696   3.165   4.737  0.0245 -0.2524  0.0631
  100SAPC  H19R10002   2.774   3.091   4.764  0.7593  0.9474  1.4191
  100SAPC  H19S10003   2.602   3.143   4.792  0.2796  0.0940  0.6484
  100SAPC  C22010004   2.751   3.306   4.774  0.6619  0.3633  0.0027
  100SAPC  H20R10005   2.687   3.385   4.731  0.0722 -0.6983 -1.1381
  100SAPC  H20S10006   2.855   3.314   4.735 -0.0097  0.0490 -1.9690
  100SAPC  H20T10007   2.755   3.311   4.885 -0.3562 -0.4395  0.0882
  100SAPC   C3310008   3.044   3.056   3.514 -0.6675 -1.1488 -0.0473
  100SAPC   H3X10009   3.153   3.038   3.510 -0.7497 -2.1005  1.3031
  100SAPC   H3Y10010   2.997   2.955   3.513 -2.1869 -0.5294  1.6987
  100SAPC   C3410011   3.015   3.126   3.646 -0.0243 -0.1252 -0.6998
  100SAPC   H4X10012   2.906   3.106   3.662  0.4330 -1.4272  1.1562
  100SAPC   H4Y10013   3.028   3.236   3.646  0.1285 -0.1057  1.2890
  100SAPC   C3510014   3.094   3.057   3.766  1.1414 -0.3188  0.0160
  100SAPC   H5X10015   3.183   3.122   3.780  1.2877 -0.7190  0.9911
  100SAPC   H5Y10016   3.124   2.954   3.740  0.2384  0.0927 -3.0936
  100SAPC   C3610017   3.020   3.055   3.906 -0.0683 -0.2024  0.5355
  100SAPC   H6X10018   2.935   2.986   3.882 -0.3183  0.7449 -1.4419
  100SAPC   H6Y10019   2.992   3.162   3.916  1.2297  0.3011 -0.7922
  100SAPC   C3710020   3.113   2.999   4.015 -0.2631  0.5821  0.1441
  100SAPC   H7X10021   3.213   3.047   4.012  1.0210 -1.9528 -1.9457
  100SAPC   H7Y10022   3.134   2.895   3.984 -0.1439 -0.2302  2.7099
  100SAPC   C3810023   3.074   3.004   4.160 -0.7507  0.4305 -0.7332
  100SAPC   H8X10024   2.969   2.970   4.172 -0.6982 -0.0325 -1.5144
  100SAPC   H8Y10025   3.077   3.111   4.188 -1.6274  0.4512 -0.6746
  100SAPC   C3910026   3.173   2.928   4.255 -0.5021 -0.0935 -0.8630
  100SAPC   H9X10027   3.266   2.989   4.264  0.9275 -2.1543 -0.8239
  100SAPC   H9Y10028   3.207   2.829   4.218  2.2066 -0.1113  1.3231
  100SAPC  C31010029   3.125   2.901   4.399  0.4354 -0.1435 -0.2112
  100SAPC  H10X10030   3.171   2.814   4.451  1.6765  2.2087  2.9782
  100SAPC  H10Y10031   3.016   2.879   4.405 -0.0807  2.4670  2.3068
  100SAPC  C31110032   3.169   3.021   4.487 -0.1164  0.3027 -0.0433
  100SAPC  H11X10033   3.130   3.111   4.435 -3.0720  0.4982  2.3066
  100SAPC  H11Y10034   3.279   3.030   4.501  0.3246 -0.1998 -2.6634
  100SAPC  C31210035   3.131   3.026   4.636  0.5115 -0.0147  0.1460
  100SAPC  H12X10036   3.021   3.019   4.652  0.0988  3.6159 -0.1391
  100SAPC  H12Y10037   3.167   3.124   4.676 -0.8907  0.1095  1.1871
  100SAPC  C31310038   3.197   2.914   4.721  0.4888  0.4458  0.7746
  100SAPC  H13X10039   3.286   2.870   4.670 -1.7220 -1.6665 -1.5284
  100SAPC  H13Y10040   3.128   2.827   4.726  2.2857 -0.9810  1.7659
  100SAPC  C31410041   3.256   2.956   4.862 -0.1035 -0.1713 -0.3916
  100SAPC  H14X10042   3.292   2.869   4.921 -0.3196 -0.5580 -0.8216
  100SAPC  H14Y10043   3.164   2.991   4.914 -0.4246 -1.4668 -0.0305
  100SAPC  C31510044   3.367   3.062   4.857 -0.0129  0.0164 -0.1259
  100SAPC  H15X10045   3.329   3.141   4.790  1.6859  0.1239 -1.0306
  100SAPC  H15Y10046   3.460   3.020   4.813  0.4029 -0.4272  1.1221
  100SAPC  C31610047   3.408   3.109   4.995 -0.3938  0.3683 -0.2964
  100SAPC  H16X10048   3.321   3.169   5.027  0.4906 -0.1544  3.6508
  100SAPC  H16Y10049   3.499   3.173   4.998 -1.2618  1.6339 -0.3720
  100SAPC  C31710050   3.429   2.995   5.098 -0.7393 -0.1983 -0.3081
  100SAPC  H17X10051   3.510   2.927   5.064  0.1815 -0.6656  2.5222
  100SAPC  H17Y10052   3.336   2.935   5.101 -0.6597 -0.3081  0.0721
  100SAPC  C31810053   3.476   3.054   5.236  0.1878  0.2356 -0.4492
  100SAPC  H18X10054   3.572   3.109   5.220  1.3169 -1.3922  0.3723
  100SAPC  H18Y10055   3.498   2.972   5.308 -0.2835  1.9012  1.7009
  100SAPC  H18Z10056   3.399   3.127   5.269 -1.7999 -0.9946 -2.1332
  101OSM      N10057   6.811   3.415   7.390  0.6140 -0.3106  0.7064
  101OSM    C1510058   6.878   3.418   7.254  0.5184  0.8532  0.6156
  101OSM   H15A10059   6.907   3.517   7.224  0.9130  0.0899 -1.7634
  101OSM   H15B10060   6.812   3.376   7.179  0.9823 -1.5726  1.4552
  101OSM   H15C10061   6.963   3.351   7.248 -1.7744 -2.1519 -0.7846
  101OSM    C1410062   6.763   3.273   7.420  0.2335 -0.0817  0.7866
  101OSM   H14A10063   6.701   3.275   7.508 -0.3558 -0.7158  0.4008
  101OSM   H14B10064   6.836   3.198   7.445 -2.0306 -2.4313  0.7487
  101OSM   H14C10065   6.704   3.235   7.338  2.3401 -1.2057 -0.3004
  101OSM    C1310066   6.909   3.451   7.491 -0.3185  0.0784 -0.1642
  101OSM   H13A10067   6.938   3.555   7.488  1.4174 -0.4074 -1.7271
  101OSM   H13B10068   6.995   3.388   7.477 -3.1797 -4.9292  2.1441
  101OSM   H13C10069   6.873   3.424   7.589 -1.0870 -2.1618 -1.0004
  101OSM    C1210070   6.686   3.499   7.392  0.1162  0.5513  0.5794
  101OSM   H12A10071   6.619   3.472   7.312  3.9555 -1.4203 -2.3231
  101OSM   H12B10072   6.715   3.602   7.381 -0.6519  0.8938  1.6691
  101OSM    C1110073   6.608   3.508   7.523  0.8008  0.6199 -0.0887
  101OSM   H11A10074   6.539   3.593   7.504 -1.1007 -1.2604 -2.0778
  101OSM   H11B10075   6.677   3.527   7.608 -1.1320 -1.1790  1.9955
  101OSM      P10076   6.387   3.368   7.521  0.1057 -0.6793 -0.0658
  101OSM    O1310077   6.337   3.246   7.582  0.2801 -0.5338 -0.3213
  101OSM    O1410078   6.318   3.498   7.542  0.0764 -0.4795 -0.0605
  101OSM    O1110079   6.393   3.358   7.365 -0.1951  0.0773  0.5103
  101OSM    O1210080   6.537   3.391   7.559 -0.3662  0.2494  0.8129
  101OSM    C1S10081   6.286   3.282   7.307  0.0608  0.4247 -0.1349
  101OSM    H1S10082   6.200   3.351   7.322  1.6669  3.2141 -2.7251
  101OSM    H1T10083   6.260   3.181   7.347  0.5442  0.6557  0.7833
  101OSM     NF10084   6.188   3.211   7.092  0.0834 -0.2221  0.0603
  101OSM    HNF10085   6.198   3.124   7.045 -0.9596 -0.3973  0.1427
  101OSM    C2S10086   6.307   3.272   7.149 -0.2409 -0.2993 -0.3258
  101OSM    H2S10087   6.316   3.372   7.102 -0.8044 -0.0335  0.1103
  101OSM    C3S10088   6.445   3.199   7.133 -0.2504 -0.2600 -0.1393
  101OSM    H3S10089   6.437   3.104   7.190 -1.2853 -0.4574 -0.5991
  101OSM     O310090   6.555   3.275   7.179  0.1953  0.1623  0.3913
  101OSM    HO310091   6.513   3.313   7.256  0.5997 -0.0503  0.7254
  101OSM    C4S10092   6.464   3.178   6.985 -0.0293  0.0018  0.3507
  101OSM    H4S10093   6.492   3.269   6.930 -0.1081 -0.0660  0.1977
  101OSM    C5S10094   6.462   3.056   6.920 -0.2391 -0.5451 -0.6462
  101OSM    H5S10095   6.445   2.964   6.978  1.7219  0.3003  1.3784
  101OSM    C6S10096   6.487   3.029   6.776  0.2126  0.3559  0.3299
  101OSM    H6S10097   6.548   2.939   6.752 -2.3580 -1.9763  1.9265
  101OSM    H6T10098   6.530   3.120   6.727 -0.2904  1.0044  1.0715
  101OSM    C7S10099   6.356   2.993   6.701 -0.0411  0.3110  0.6879
  101OSM    H7S10100   6.300   3.088   6.687  0.6712  0.8222  1.1933
  101OSM    H7T10101   6.289   2.936   6.769 -0.9403  2.2468  1.5149
  101OSM    C8S10102   6.373   2.924   6.564  0.1530  0.2756 -0.8440
  101OSM    H8S10103   6.369   2.813   6.574  0.8177  0.3199 -0.0285
  101OSM    H8T10104   6.470   2.959   6.525 -0.0533  0.0185 -1.6063
  101OSM    C9S10105   6.264   2.967   6.468 -0.1690  0.3244  0.1289
  101OSM    H9S10106   6.280   3.072   6.436  1.5106  0.3900  1.0992
  101OSM    H9T10107   6.172   2.961   6.530 -0.1103  2.0717  0.4525
  101OSM   C10S10108   6.244   2.871   6.352 -0.7300 -0.7283  0.1721
  101OSM   H10S10109   6.141   2.878   6.310 -1.2285 -1.1177  1.2939
  101OSM   H10T10110   6.260   2.768   6.390  2.3033  0.0492  1.2439
  101OSM   C11S10111   6.357   2.890   6.244  0.5761  0.4792 -0.3390
  101OSM   H11S10112   6.449   2.862   6.299 -0.5402  2.5065  2.9197
  101OSM   H11T10113   6.354   2.995   6.210 -1.3548  0.7616  0.5269
  101OSM   C12S10114   6.329   2.789   6.135 -0.3193  0.0349 -0.0535
  101OSM   H12S10115   6.245   2.826   6.073  1.4235  0.7719 -2.1098
  101OSM   H12T10116   6.319   2.688   6.180 -0.6051 -0.7058 -1.6964
  101OSM   C13S10117   6.435   2.776   6.026 -0.3090 -0.5547 -0.1904
  101OSM   H13S10118   6.419   2.679   5.974  1.5358  0.3969 -2.7446
  101OSM   H13T10119   6.534   2.768   6.077 -1.5864  0.9735  2.8151
  101OSM   C14S10120   6.465   2.892   5.935  0.1751  0.2071  0.3276
  101OSM   H14S10121   6.539   2.862   5.858 -2.8490 -0.5455 -2.5570
  101OSM   H14T10122   6.511   2.969   5.999  1.3834 -1.2216  1.2494
  101OSM   C15S10123   6.350   2.939   5.850  0.3754 -0.0541 -0.2211
  101OSM   H15S10124   6.273   2.999   5.904 -2.4165 -0.7311 -3.1691
  101OSM   H15T10125   6.304   2.849   5.804  1.8151 -0.3902 -1.0564
  101OSM   C16S10126   6.398   3.028   5.743  0.6088  0.3144 -0.2459
  101OSM   H16S10127   6.461   2.971   5.672  0.7501 -0.6827  0.6547
  101OSM   H16T10128   6.456   3.111   5.790  0.4550  0.5554 -0.4782
  101OSM   C17S10129   6.286   3.098   5.665 -1.2394 -0.5272  0.1492
  101OSM   H17S10130   6.239   3.167   5.739 -0.2433  0.6198 -0.2524
  101OSM   H17T10131   6.217   3.018   5.633  0.2510 -1.1158 -1.7737
  101OSM   C18S10132   6.339   3.177   5.535 -0.2712  0.4111  0.2672
  101OSM   H18S10133   6.401   3.265   5.565 -0.1167 -0.2825  2.1169
  101OSM   H18T10134   6.251   3.201   5.472  0.3183  0.5084 -0.5400
  101OSM   H18U10135   6.412   3.114   5.480 -0.9443 -1.3254  1.2879
  101OSM    C1F10136   6.070   3.269   7.095 -0.0206  0.3871  0.6422
  101OSM     OF10137   6.060   3.384   7.124  0.3394 -0.1939  0.0149
  101OSM    C2F10138   5.954   3.181   7.057 -0.9517  0.6482  0.3106
  101OSM    H2F10139   5.903   3.151   7.151  1.4086 -0.0927  1.4163
  101OSM    H2G10140   6.007   3.099   7.004 -1.6192  0.0117  0.6015
  101OSM    C3F10141   5.841   3.243   6.960 -0.0106 -0.2369 -0.6738
  101OSM    H3F10142   5.836   3.352   6.981 -2.6515 -0.6453  1.3629
  101OSM    H3G10143   5.740   3.197   6.971 -0.2148  0.0687 -1.2111
  101OSM    C4F10144   5.871   3.212   6.818  0.3398 -0.0924  0.6017
  101OSM    H4F10145   5.791   3.166   6.756  1.3627 -3.3618  1.4760
  101OSM    H4G10146   5.963   3.150   6.810  1.4770  1.1454  2.9909
  101OSM    C5F10147   5.932   3.321   6.735 -1.2915 -0.4904  0.1205
  101OSM    H5F10148   6.028   3.351   6.784 -1.0610  1.3540 -1.3718
  101OSM    H5G10149   5.866   3.409   6.738  0.1742  0.6367  1.2739
  101OSM    C6F10150   5.959   3.278   6.595  0.0797  0.2602  0.0344
  101OSM    H6F10151   5.870   3.226   6.552  1.1557 -0.6993 -1.0946
  101OSM    H6G10152   6.044   3.207   6.590  0.7573  0.6721  3.1489
  101OSM    C7F10153   5.998   3.396   6.510 -0.2675 -0.0640  0.3095
  101OSM    H7F10154   6.095   3.441   6.540 -0.4989  1.9930 -1.6808
  101OSM    H7G10155   5.930   3.484   6.517 -0.3434  0.0590 -1.4641
  101OSM    C8F10156   6.022   3.352   6.357 -0.1137  0.0555 -0.1797
  101OSM    H8F10157   6.092   3.266   6.362  0.6679  0.6903 -0.0436
  101OSM    H8G10158   6.083   3.427   6.303  0.5551  0.8899  1.6429
  101OSM    C9F10159   5.885   3.328   6.286 -0.1493 -0.4614  0.3092
  101OSM    H9F10160   5.790   3.332   6.342 -0.6753 -1.6368 -0.4709
  101OSM   C10F10161   5.881   3.280   6.159  0.3889 -0.1546  0.0447
  101OSM   H10F10162   5.787   3.275   6.102  0.7009  2.3359 -0.8258
  101OSM   C11F10163   5.991   3.249   6.068 -0.3080 -0.6210 -0.6424
  101OSM   H11F10164   5.982   3.152   6.015  0.1092 -0.3479 -1.2298
  101OSM   H11G10165   6.087   3.229   6.121 -1.5454 -0.9215  1.5859
  101OSM   C12F10166   6.017   3.353   5.949  0.1151  0.5496 -0.4163
  101OSM   H12F10167   6.105   3.313   5.895 -0.1087 -3.0923  1.6135
  101OSM   H12G10168   6.050   3.452   5.987  1.8406 -0.6398  1.3847
  101OSM   C13F10169   5.891   3.364   5.860 -0.9604 -0.3478 -0.0866
  101OSM   H13F10170   5.831   3.435   5.921  1.5264  2.7126 -0.9602
  101OSM   H13G10171   5.853   3.260   5.845 -0.7937 -0.6081  1.1931
  101OSM   C14F10172   5.923   3.419   5.720 -1.0383  0.7226 -0.4090
  101OSM   H14F10173   6.002   3.351   5.685 -1.0002  1.3763 -1.6408
  101OSM   H14G10174   5.965   3.520   5.740  0.3695 -0.3598  2.6298
  101OSM   C15F10175   5.800   3.430   5.631 -0.6757 -0.2772 -0.0285
  101OSM   H15F10176   5.720   3.491   5.678 -0.2397 -0.4670  0.9677
  101OSM   H15G10177   5.751   3.332   5.612 -2.1701  0.3361  0.4405
  101OSM   C16F10178   5.840   3.481   5.494  0.2546  0.0112  0.0597
  101OSM   H16F10179   5.857   3.590   5.499  0.3818 -0.0386  0.8673
  101OSM   H16G10180   5.755   3.463   5.426  0.2782  1.3717 -0.3493
  101OSM   C17F10181   5.967   3.425   5.423 -0.1355  0.2734 -0.5227
  101OSM   H17F10182   5.957   3.315   5.421 -0.0070  0.2534 -0.1789
  101OSM   H17G10183   6.053   3.455   5.487  1.5640 -0.9054 -2.1571
  101OSM   C18F10184   5.988   3.478   5.274 -0.2095 -0.2370 -0.9031
  101OSM   H18F10185   5.908   3.433   5.211 -0.6200 -0.1990 -0.4210
  101OSM   H18G10186   6.089   3.442   5.243 -0.1032 -0.2151 -0.5883
  101OSM   H18H10187   5.989   3.589   5.269 -0.4468 -0.1450  0.5810
  102OSM      N10188   2.687   4.902   7.487 -0.2614 -0.6838  0.3483
  102OSM    C1510189   2.755   4.876   7.616  0.1555  0.5920  0.0779
  102OSM   H15A10190   2.693   4.845   7.698  0.8744  1.2919  0.9055
  102OSM   H15B10191   2.796   4.967   7.658  0.4502 -0.7014  2.8051
  102OSM   H15C10192   2.832   4.802   7.598  1.4467  1.8608  0.1701
  102OSM    C1410193   2.785   4.952   7.383  0.5320 -0.2956 -0.8534
  102OSM   H14A10194   2.725   4.976   7.297 -0.3290  0.4329 -0.0661
  102OSM   H14B10195   2.853   4.878   7.343  0.7840  0.5541 -2.0405
  102OSM   H14C10196   2.836   5.038   7.424  0.3891 -0.3562 -0.5482
  102OSM    C1310197   2.623   4.777   7.437 -0.0349  0.0680 -0.2741
  102OSM   H13A10198   2.687   4.690   7.426  0.2705  0.4424 -1.5786
  102OSM   H13B10199   2.577   4.793   7.341  0.1380  1.9023 -0.0787
  102OSM   H13C10200   2.537   4.744   7.494 -0.7466 -2.0189 -2.3966
  102OSM    C1210201   2.581   5.008   7.524  0.2984  0.2607  0.6647
  102OSM   H12A10202   2.624   5.087   7.584 -0.7022  1.8396 -0.5944
  102OSM   H12B10203   2.503   4.955   7.576 -2.0726  2.4219 -0.4824
  102OSM    C1110204   2.511   5.076   7.404  0.4542 -0.1141  1.0167
  102OSM   H11A10205   2.484   5.008   7.320  1.3828  2.6600 -1.7640
  102OSM   H11B10206   2.573   5.149   7.346 -0.5966  1.1389  1.4153
  102OSM      P10207   2.256   5.087   7.473 -0.1003  0.1459 -0.3011
  102OSM    O1310208   2.268   4.972   7.565  0.8261  0.2885  0.0067
  102OSM    O1410209   2.167   5.197   7.519 -0.8093  0.3201  0.1187
  102OSM    O1110210   2.210   5.033   7.333 -0.0146 -0.0763 -0.0756
  102OSM    O1210211   2.393   5.145   7.454 -0.7265 -0.1692  0.1577
  102OSM    C1S10212   2.107   5.088   7.261  0.2357  0.3246 -0.3666
  102OSM    H1S10213   2.143   5.180   7.210 -0.4774 -0.6523 -2.7807
  102OSM    H1T10214   2.016   5.109   7.321 -0.8033 -0.7256 -1.4995
  102OSM     NF10215   1.940   5.079   7.083 -0.1211 -0.0005 -0.6458
  102OSM    HNF10216   1.844   5.074   7.109 -0.0616  1.7349  0.0294
  102OSM    C2S10217   2.035   4.999   7.159 -0.3180 -0.1136  0.5015
  102OSM    H2S10218   2.109   4.955   7.088 -1.7754 -1.8884  0.0163
  102OSM    C3S10219   1.967   4.874   7.232  0.1822  0.0620 -0.2773
  102OSM    H3S10220   1.887   4.922   7.293  0.1010  0.2906 -0.5649
  102OSM     O310221   2.057   4.798   7.323  0.2887 -0.2908  0.2159
  102OSM    HO310222   2.134   4.853   7.339  1.2375 -1.6912  0.7420
  102OSM    C4S10223   1.904   4.785   7.127  0.0484  0.2951 -0.5900
  102OSM    H4S10224   1.805   4.823   7.100  0.0786  1.1270  0.4003
  102OSM    C5S10225   1.955   4.673   7.075  0.4789  1.0890  0.3069
  102OSM    H5S10226   2.053   4.638   7.111 -0.6194 -0.7214  1.6966
  102OSM    C6S10227   1.893   4.592   6.970 -0.4155  0.1847  0.3124
  102OSM    H6S10228   1.837   4.507   7.013 -0.6848 -1.3695 -2.8285
  102OSM    H6T10229   1.974   4.548   6.908 -0.5633  0.2670  0.0562
  102OSM    C7S10230   1.792   4.658   6.874  0.4002  0.4397  0.5372
  102OSM    H7S10231   1.702   4.695   6.928  0.1461 -1.1706  1.2590
  102OSM    H7T10232   1.748   4.578   6.811 -0.9278  0.8553  0.9125
  102OSM    C8S10233   1.856   4.762   6.776 -0.3064 -0.0761 -0.7790
  102OSM    H8S10234   1.911   4.829   6.845  0.6845 -1.0592 -0.5867
  102OSM    H8T10235   1.778   4.814   6.717  1.3329  2.2883 -0.9760
  102OSM    C9S10236   1.958   4.718   6.670 -0.0394 -0.0884  0.0963
  102OSM    H9S10237   2.049   4.682   6.723 -0.9728 -1.1513  1.0451
  102OSM    H9T10238   1.980   4.811   6.614  0.8213 -0.6488 -0.5406
  102OSM   C10S10239   1.906   4.616   6.570 -0.3757  0.3318  0.9354
  102OSM   H10S10240   1.876   4.531   6.634  0.9132 -1.9140 -1.2331
  102OSM   H10T10241   1.996   4.584   6.513 -1.9598  0.2107 -1.6754
  102OSM   C11S10242   1.803   4.674   6.472 -0.3465  0.4881 -0.5043
  102OSM   H11S10243   1.852   4.758   6.419 -0.5631  1.0688  0.2037
  102OSM   H11T10244   1.731   4.724   6.539  2.1664  0.9327  2.0954
  102OSM   C12S10245   1.749   4.571   6.371  0.3556 -0.2075  0.4705
  102OSM   H12S10246   1.835   4.550   6.305  0.4264 -0.4644  0.6441
  102OSM   H12T10247   1.679   4.625   6.305  0.2214  0.3362  1.0417
  102OSM   C13S10248   1.687   4.444   6.428 -0.2288 -0.3409 -0.5737
  102OSM   H13S10249   1.632   4.449   6.525  2.1864  2.2467  0.8190
  102OSM   H13T10250   1.773   4.376   6.447 -0.5354 -0.2550  1.3575
  102OSM   C14S10251   1.590   4.389   6.324  0.6333  0.1431 -0.0413
  102OSM   H14S10252   1.652   4.376   6.233 -0.4876  0.2955 -0.8352
  102OSM   H14T10253   1.508   4.459   6.298  0.5887  0.3045  0.5147
  102OSM   C15S10254   1.524   4.259   6.365 -0.3677  1.0803  0.1721
  102OSM   H15S10255   1.436   4.284   6.428  0.5790  1.5692  1.3494
  102OSM   H15T10256   1.589   4.192   6.427 -1.3656 -0.4684 -0.3877
  102OSM   C16S10257   1.495   4.178   6.236 -0.2731  0.5921 -0.9033
  102OSM   H16S10258   1.459   4.080   6.274  0.3361  0.3465 -0.9385
  102OSM   H16T10259   1.591   4.154   6.186  0.2239  0.7235 -0.0448
  102OSM   C17S10260   1.396   4.248   6.148  0.2877  0.1780  0.5111
  102OSM   H17S10261   1.444   4.334   6.096 -1.1026  1.1611  0.7781
  102OSM   H17T10262   1.310   4.299   6.198 -1.4922 -0.5410 -1.6381
  102OSM   C18S10263   1.339   4.146   6.046 -0.6522 -0.1167 -0.0879
  102OSM   H18S10264   1.271   4.187   5.968  0.3739  0.9076 -0.4621
  102OSM   H18T10265   1.287   4.079   6.118  0.8459  0.8625  1.9877
  102OSM   H18U10266   1.431   4.105   5.999  1.0027  3.2490 -0.0388
  102OSM    C1F10267   1.979   5.186   7.010 -0.6136 -0.3437  0.2339
  102OSM     OF10268   2.098   5.206   6.983  0.4451  0.0914 -0.4328
  102OSM    C2F10269   1.876   5.276   6.951 -0.1591 -0.4861 -0.7218
  102OSM    H2F10270   1.843   5.354   7.023  1.5994 -0.7264  0.3956
  102OSM    H2G10271   1.786   5.224   6.911 -0.6986  0.2157 -0.4548
  102OSM    C3F10272   1.941   5.351   6.833  0.1325  0.1139 -0.5547
  102OSM    H3F10273   1.960   5.279   6.751  2.8369 -1.1451  1.0320
  102OSM    H3G10274   2.029   5.409   6.868 -0.7395 -0.2014  2.4980
  102OSM    C4F10275   1.843   5.441   6.758  0.1870  0.2463 -0.2021
  102OSM    H4F10276   1.793   5.501   6.837  2.2189 -0.8647  2.0402
  102OSM    H4G10277   1.767   5.368   6.723  0.9612 -0.7362  0.1114
  102OSM    C5F10278   1.909   5.518   6.652 -0.3600  0.0182  0.1715
  102OSM    H5F10279   1.981   5.457   6.593  1.8585  2.4060  0.2454
  102OSM    H5G10280   1.977   5.586   6.707  2.3204 -2.2242 -0.1256
  102OSM    C6F10281   1.822   5.611   6.563  0.3701 -0.1512 -0.1692
  102OSM    H6F10282   1.881   5.698   6.530  0.2942 -0.0679 -0.0841
  102OSM    H6G10283   1.734   5.651   6.618  0.1716  0.2794 -0.7840
  102OSM    C7F10284   1.779   5.536   6.436  0.2816 -0.0884  0.2537
  102OSM    H7F10285   1.720   5.446   6.466  0.1704  0.1767  0.8545
  102OSM    H7G10286   1.871   5.500   6.386 -0.8964 -0.0243 -2.0873
  102OSM    C8F10287   1.701   5.635   6.349 -0.4263 -0.0766 -0.0178
  102OSM    H8F10288   1.781   5.696   6.301 -0.7694 -0.5809 -1.2635
  102OSM    H8G10289   1.632   5.705   6.402 -0.3712  0.4412 -0.6113
  102OSM    C9F10290   1.620   5.546   6.256  0.6290 -0.0840 -0.0113
  102OSM    H9F10291   1.530   5.499   6.299 -0.1400  1.4081  0.0746
  102OSM   C10F10292   1.652   5.523   6.126 -0.8874 -0.2866  0.2036
  102OSM   H10F10293   1.585   5.452   6.076  0.8218 -0.2991 -2.3148
  102OSM   C11F10294   1.773   5.575   6.047 -0.4936  0.1261 -0.2555
  102OSM   H11F10295   1.857   5.612   6.110 -0.3957  1.1369 -0.9557
  102OSM   H11G10296   1.731   5.663   5.995 -0.0692  1.8644  2.1663
  102OSM   C12F10297   1.844   5.479   5.952  0.0479  0.2287  0.6046
  102OSM   H12F10298   1.882   5.390   6.006 -1.5170 -2.5874 -2.5568
  102OSM   H12G10299   1.929   5.535   5.907  0.1408  0.3547  0.9333
  102OSM   C13F10300   1.754   5.448   5.830  0.3037  0.2542  1.2041
  102OSM   H13F10301   1.717   5.546   5.791  3.3525  0.2613 -2.2173
  102OSM   H13G10302   1.663   5.388   5.849 -1.1468  1.2631 -1.8792
  102OSM   C14F10303   1.825   5.368   5.719  0.6953  0.1209  0.3015
  102OSM   H14F10304   1.832   5.262   5.752 -2.1712 -0.7157 -1.4375
  102OSM   H14G10305   1.927   5.411   5.713  1.2085 -1.0174  0.5658
  102OSM   C15F10306   1.737   5.379   5.594  0.1994 -0.2581  0.4259
  102OSM   H15F10307   1.744   5.487   5.571  1.5517 -1.1064 -4.2404
  102OSM   H15G10308   1.629   5.358   5.609  0.1167 -0.2079 -0.1038
  102OSM   C16F10309   1.790   5.293   5.481 -0.2608  0.7635 -0.0564
  102OSM   H16F10310   1.899   5.316   5.486  0.2512 -1.4075 -0.4478
  102OSM   H16G10311   1.760   5.325   5.379  2.6617  1.3627 -0.8460
  102OSM   C17F10312   1.779   5.140   5.499  0.2066 -0.3075  0.3966
  102OSM   H17F10313   1.669   5.124   5.497  0.1732 -0.0656 -1.1153
  102OSM   H17G10314   1.821   5.109   5.597  1.0367 -1.1322 -0.2083
  102OSM   C18F10315   1.850   5.053   5.390  0.2198  0.4999 -0.2771
  102OSM   H18F10316   1.953   5.091   5.369 -0.2285  1.3159 -1.0754
  102OSM   H18G10317   1.787   5.054   5.299  1.4917 -1.3371 -1.2241
  102OSM   H18H10318   1.848   4.950   5.431  3.6008  0.0494 -0.9421
  103OSM      N10319   5.310   6.465   7.529 -0.4349 -0.3918 -0.5473
  103OSM    C1510320   5.245   6.363   7.624 -0.2557  0.0088 -0.6441
  103OSM   H15A10321   5.269   6.381   7.727  0.9597  0.9648 -1.0636
  103OSM   H15B10322   5.285   6.267   7.596  0.5266 -0.2242  1.1885
  103OSM   H15C10323   5.137   6.361   7.620 -0.3849  1.7190  0.5761
  103OSM    C1410324   5.268   6.431   7.386 -0.3476  0.0291 -0.1794
  103OSM   H14A10325   5.297   6.337   7.339 -1.9653  0.2396 -1.7019
  103OSM   H14B10326   5.313   6.508   7.326  2.2286 -1.0115  0.2736
  103OSM   H14C10327   5.161   6.436   7.373 -0.4963  0.0573  1.0122
  103OSM    C1310328   5.253   6.603   7.542 -0.1591  0.6096  0.2403
  103OSM   H13A10329   5.268   6.641   7.642  2.5223  1.4010 -0.3720
  103OSM   H13B10330   5.150   6.597   7.512  0.8049 -0.3631 -3.3313
  103OSM   H13C10331   5.310   6.668   7.478  3.5345 -2.0117  0.5300
  103OSM    C1210332   5.459   6.468   7.539  0.2061 -0.0016  0.2247
  103OSM   H12A10333   5.491   6.367   7.515 -1.9059 -1.0006  1.3105
  103OSM   H12B10334   5.496   6.493   7.637  1.4396 -2.2728  0.4093
  103OSM    C1110335   5.533   6.575   7.460  0.3828 -0.4173 -0.8366
  103OSM   H11A10336   5.639   6.574   7.496  0.6222 -1.7124 -1.5257
  103OSM   H11B10337   5.496   6.678   7.481  4.7322  1.0309  1.0264
  103OSM      P10338   5.617   6.444   7.259 -0.1485  0.2222  0.0909
  103OSM    O1310339   5.759   6.493   7.239 -0.0534 -0.2778  0.0809
  103OSM    O1410340   5.609   6.323   7.340 -0.1013  0.7415  0.4957
  103OSM    O1110341   5.551   6.418   7.121  0.8251 -0.0045 -0.2359
  103OSM    O1210342   5.527   6.559   7.320 -0.7605  0.5739 -0.4405
  103OSM    C1S10343   5.508   6.286   7.080 -0.1444  0.4563 -1.0330
  103OSM    H1S10344   5.435   6.248   7.154  1.6202 -0.5917  0.2610
  103OSM    H1T10345   5.592   6.214   7.080 -0.8874 -0.4526 -2.0932
  103OSM     NF10346   5.372   6.190   6.885 -0.1786  0.4757 -0.0690
  103OSM    HNF10347   5.406   6.118   6.826 -2.1525 -1.0570  0.5280
  103OSM    C2S10348   5.461   6.298   6.931 -0.1587  0.3074  0.3816
  103OSM    H2S10349   5.397   6.388   6.919  0.9186  1.0335 -0.0454
  103OSM    C3S10350   5.589   6.335   6.842 -0.3195 -0.8182 -0.2389
  103OSM    H3S10351   5.670   6.259   6.846 -1.5104 -2.0830  1.0113
  103OSM     O310352   5.641   6.463   6.878 -0.0680  0.2095 -0.0502
  103OSM    HO310353   5.594   6.489   6.958 -1.4812 -0.2649 -0.7123
  103OSM    C4S10354   5.553   6.329   6.694 -0.1729  1.0926  0.1253
  103OSM    H4S10355   5.453   6.353   6.655  0.3012 -1.2757 -3.0167
  103OSM    C5S10356   5.636   6.282   6.598 -0.1037  0.8626 -0.9019
  103OSM    H5S10357   5.733   6.238   6.627 -0.1663  0.8180 -0.7629
  103OSM    C6S10358   5.593   6.249   6.459 -0.3721  0.4153 -0.6409
  103OSM    H6S10359   5.499   6.188   6.461 -0.1998  0.1643  0.2881
  103OSM    H6T10360   5.661   6.182   6.403 -1.5246 -0.4272 -1.0770
  103OSM    C7S10361   5.574   6.371   6.357  0.1600  0.0320 -0.4993
  103OSM    H7S10362   5.664   6.437   6.356  0.3724 -0.2437  0.0195
  103OSM    H7T10363   5.487   6.429   6.393 -0.3538  0.6427 -2.5961
  103OSM    C8S10364   5.523   6.312   6.226 -0.8420  0.3992 -0.5970
  103OSM    H8S10365   5.415   6.287   6.234 -1.3210  2.3586 -0.5144
  103OSM    H8T10366   5.580   6.218   6.205  0.6828  1.3000 -0.5731
  103OSM    C9S10367   5.549   6.403   6.109  0.3370  0.9669 -0.0045
  103OSM    H9S10368   5.497   6.364   6.019  1.2372  1.5601 -0.8016
  103OSM    H9T10369   5.658   6.396   6.088  0.0344  0.9233 -1.7633
  103OSM   C10S10370   5.493   6.541   6.114  0.8571  0.0097  0.1228
  103OSM   H10S10371   5.527   6.584   6.210 -2.5697 -1.4407  2.1870
  103OSM   H10T10372   5.384   6.536   6.136  0.8791  1.3555  0.5860
  103OSM   C11S10373   5.521   6.632   5.999 -0.0515  0.1567 -0.0330
  103OSM   H11S10374   5.628   6.660   6.009  0.3908 -1.8789  1.3688
  103OSM   H11T10375   5.464   6.725   6.018  0.2146  0.2083  0.5399
  103OSM   C12S10376   5.506   6.582   5.853  0.1697  0.8668  0.4177
  103OSM   H12S10377   5.395   6.581   5.842  0.1103 -0.1550  1.0104
  103OSM   H12T10378   5.554   6.484   5.835 -0.0200  0.6663  0.9740
  103OSM   C13S10379   5.572   6.678   5.748  0.0190  0.2246  0.2736
  103OSM   H13S10380   5.682   6.669   5.734 -0.0543  1.1505 -1.0318
  103OSM   H13T10381   5.548   6.782   5.781 -2.7635  0.2033 -1.3746
  103OSM   C14S10382   5.507   6.666   5.612 -0.2714 -0.4314 -0.0425
  103OSM   H14S10383   5.401   6.639   5.634 -0.3911  0.5406  0.6597
  103OSM   H14T10384   5.544   6.569   5.573 -1.0634 -0.8510  0.2231
  103OSM   C15S10385   5.525   6.783   5.506 -0.9706 -0.1985 -0.3771
  103OSM   H15S10386   5.618   6.838   5.530  0.2303 -1.1534 -2.6020
  103OSM   H15T10387   5.454   6.867   5.527 -1.3906 -0.9154  1.2752
  103OSM   C16S10388   5.509   6.725   5.367  0.2758  0.1472  0.1844
  103OSM   H16S10389   5.408   6.680   5.379  0.7948 -0.4900  2.5599
  103OSM   H16T10390   5.577   6.638   5.350  0.5668  0.4179 -0.0664
  103OSM   C17S10391   5.523   6.828   5.254 -0.6126 -0.2414  0.3749
  103OSM   H17S10392   5.622   6.877   5.252 -0.9628  0.6195  2.1771
  103OSM   H17T10393   5.451   6.911   5.270  1.7138  1.8820  0.3562
  103OSM   C18S10394   5.471   6.777   5.117  0.1484 -0.8405 -0.3481
  103OSM   H18S10395   5.474   6.857   5.040  2.2127  1.9835  2.4361
  103OSM   H18T10396   5.363   6.756   5.127 -0.4040  1.2928 -1.3051
  103OSM   H18U10397   5.520   6.684   5.079 -0.0126 -0.1294 -2.4322
  103OSM    C1F10398   5.250   6.176   6.939 -0.6083  0.5561 -0.5762
  103OSM     OF10399   5.195   6.264   7.006 -0.0450 -0.4312 -0.1015
  103OSM    C2F10400   5.181   6.039   6.922 -0.4187  0.2586  0.6197
  103OSM    H2F10401   5.200   5.987   7.019  1.7694 -0.7224 -0.2686
  103OSM    H2G10402   5.227   5.989   6.835 -1.0707  1.9318 -0.7417
  103OSM    C3F10403   5.028   6.043   6.895 -0.3495  0.2317  0.1188
  103OSM    H3F10404   4.998   6.111   6.978  0.6809 -0.5002  1.1236
  103OSM    H3G10405   4.983   5.946   6.925  0.6459 -0.8232 -1.6466
  103OSM    C4F10406   4.996   6.080   6.753 -0.3995 -0.5938 -0.3493
  103OSM    H4F10407   4.886   6.068   6.741 -0.7120 -1.2223  2.4461
  103OSM    H4G10408   5.036   6.008   6.679  0.0476  0.0242 -0.7242
  103OSM    C5F10409   5.034   6.215   6.709  0.3039 -0.4431  0.3551
  103OSM    H5F10410   5.144   6.227   6.701  0.5093 -1.7597  0.9587
  103OSM    H5G10411   4.988   6.285   6.783  1.1924 -0.5052  0.9805
  103OSM    C6F10412   4.986   6.259   6.565 -0.1130  0.1617 -0.3729
  103OSM    H6F10413   5.030   6.356   6.531 -0.4427 -0.6115 -3.1956
  103OSM    H6G10414   4.878   6.280   6.579 -0.5032 -2.4451  1.1669
  103OSM    C7F10415   5.028   6.162   6.447  0.0884  0.2559 -0.1818
  103OSM    H7F10416   5.016   6.056   6.481  0.5838  0.0102 -0.7626
  103OSM    H7G10417   5.137   6.171   6.428  0.2787 -2.1513 -0.6303
  103OSM    C8F10418   4.954   6.184   6.311 -1.1064  0.1786 -0.3176
  103OSM    H8F10419   4.950   6.293   6.285  1.1917  0.2217 -0.6613
  103OSM    H8G10420   4.849   6.149   6.323 -1.0446 -0.3002 -1.0806
  103OSM    C9F10421   5.019   6.116   6.193 -0.5803 -0.2074  0.3774
  103OSM    H9F10422   5.000   6.007   6.189 -0.9777 -0.1052 -1.3234
  103OSM   C10F10423   5.099   6.174   6.098  0.0802 -0.8127 -0.3010
  103OSM   H10F10424   5.148   6.111   6.022 -1.2513 -2.4330  0.1242
  103OSM   C11F10425   5.139   6.318   6.088 -0.4179 -0.3888  0.5786
  103OSM   H11F10426   5.247   6.331   6.113 -0.5479 -2.5376  2.5591
  103OSM   H11G10427   5.086   6.386   6.158  1.6510 -0.6159  2.4992
  103OSM   C12F10428   5.116   6.379   5.945 -0.0582  0.3632 -0.0614
  103OSM   H12F10429   5.134   6.489   5.951 -2.0819  0.8535 -1.7575
  103OSM   H12G10430   5.011   6.348   5.929 -0.3329  1.8638 -1.4020
  103OSM   C13F10431   5.219   6.317   5.852 -0.1554 -1.1397 -0.0564
  103OSM   H13F10432   5.200   6.207   5.858 -0.2714 -1.1688 -0.8702
  103OSM   H13G10433   5.324   6.345   5.874 -0.3724  1.9598 -2.3821
  103OSM   C14F10434   5.191   6.367   5.708 -1.0109 -0.0623 -0.5422
  103OSM   H14F10435   5.185   6.478   5.709 -0.9932  0.0701 -3.8164
  103OSM   H14G10436   5.092   6.329   5.676 -0.3071  0.0339 -3.0154
  103OSM   C15F10437   5.290   6.325   5.599 -0.0588  0.2253  0.6512
  103OSM   H15F10438   5.257   6.224   5.568  1.9270  0.2456 -1.9486
  103OSM   H15G10439   5.396   6.319   5.633  0.3153  1.9169 -0.0860
  103OSM   C16F10440   5.280   6.413   5.473  0.0673  0.1913 -0.2589
  103OSM   H16F10441   5.280   6.522   5.495 -0.2855  0.2547 -0.5651
  103OSM   H16G10442   5.186   6.397   5.418 -1.1397  0.1883  1.7016
  103OSM   C17F10443   5.392   6.381   5.377  0.6128 -0.0341  0.4889
  103OSM   H17F10444   5.493   6.391   5.424  0.0621  1.9685  1.3471
  103OSM   H17G10445   5.389   6.454   5.294  1.0111  1.1329  1.4580
  103OSM   C18F10446   5.380   6.239   5.317 -0.2580  0.0581 -0.1691
  103OSM   H18F10447   5.444   6.240   5.227 -2.5613  0.6957 -1.8892
  103OSM   H18G10448   5.276   6.217   5.285 -0.4560 -3.1382  2.1071
  103OSM   H18H10449   5.413   6.164   5.393  0.3960  0.5666  0.0581
  104OSM      N10450   5.163   5.719   7.366 -0.5973 -1.1477 -0.2187
  104OSM    C1510451   5.129   5.576   7.355  0.0939 -0.3315 -1.0623
  104OSM   H15A10452   5.086   5.547   7.261 -2.3911  1.1947 -0.4741
  104OSM   H15B10453   5.059   5.555   7.434  2.5899 -0.6989  1.1873
  104OSM   H15C10454   5.211   5.507   7.371  0.2054 -0.3007 -1.4912
  104OSM    C1410455   5.045   5.799   7.416  0.4053 -0.1384 -0.2273
  104OSM   H14A10456   5.058   5.905   7.435 -2.1766  0.6247 -2.1734
  104OSM   H14B10457   5.006   5.745   7.501  1.2167 -1.1753 -0.4983
  104OSM   H14C10458   4.967   5.787   7.342  1.5811 -1.2316 -1.3235
  104OSM    C1310459   5.272   5.741   7.466 -0.6238  0.6659  0.6993
  104OSM   H13A10460   5.290   5.847   7.473 -1.2656  0.7444  1.2191
  104OSM   H13B10461   5.364   5.704   7.422 -1.7058  0.0365 -1.1604
  104OSM   H13C10462   5.248   5.689   7.557  0.0066  1.9989  1.6551
  104OSM    C1210463   5.197   5.780   7.234  0.3108  0.2432 -0.0645
  104OSM   H12A10464   5.207   5.887   7.234 -3.5352  0.7656 -1.6477
  104OSM   H12B10465   5.109   5.773   7.171 -0.9759  2.0640  1.4118
  104OSM    C1110466   5.304   5.713   7.157 -0.6483 -0.2831  0.9540
  104OSM   H11A10467   5.293   5.744   7.051  1.5307 -2.2498  0.0324
  104OSM   H11B10468   5.297   5.602   7.164  2.2683 -0.6244 -0.0210
  104OSM      P10469   5.498   5.890   7.167 -0.0215 -0.2591 -0.0933
  104OSM    O1310470   5.400   5.996   7.199 -0.2177 -0.5651 -0.4002
  104OSM    O1410471   5.629   5.915   7.222 -0.4294 -0.1054 -0.4705
  104OSM    O1110472   5.512   5.876   7.013  0.2280 -0.0184  0.2400
  104OSM    O1210473   5.433   5.747   7.208  0.2235 -0.4772 -0.1689
  104OSM    C1S10474   5.572   5.756   6.964 -0.2715  0.3280 -0.0737
  104OSM    H1S10475   5.550   5.671   7.031  2.0068  1.9317  2.9769
  104OSM    H1T10476   5.683   5.766   6.955 -0.0349 -2.4829 -1.1052
  104OSM     NF10477   5.573   5.583   6.787  0.2938  1.0357  0.2952
  104OSM    HNF10478   5.635   5.570   6.711 -1.7533  1.4585 -1.5529
  104OSM    C2S10479   5.524   5.717   6.815 -0.2334 -0.2919 -0.0901
  104OSM    H2S10480   5.415   5.697   6.817  0.1512 -2.8569 -0.9684
  104OSM    C3S10481   5.560   5.833   6.720 -0.3319  0.0153 -0.1220
  104OSM    H3S10482   5.670   5.849   6.720 -0.1098 -1.2896  1.4784
  104OSM     O310483   5.520   5.961   6.762  0.1879  0.4243  0.5037
  104OSM    HO310484   5.513   5.948   6.857  1.0812 -1.3740  0.3678
  104OSM    C4S10485   5.503   5.794   6.584 -0.0487 -0.0052 -0.3770
  104OSM    H4S10486   5.401   5.755   6.577 -0.6909  1.8618 -2.2947
  104OSM    C5S10487   5.571   5.806   6.466  0.1636  0.7081 -0.1309
  104OSM    H5S10488   5.675   5.840   6.468  0.5342 -0.4059  0.2836
  104OSM    C6S10489   5.512   5.760   6.335  0.1026  0.0286  0.1741
  104OSM    H6S10490   5.427   5.688   6.343  0.8882 -0.8782  0.6622
  104OSM    H6T10491   5.596   5.708   6.284  2.3565  1.9738  1.7352
  104OSM    C7S10492   5.472   5.882   6.240  0.0177  0.1846 -0.1185
  104OSM    H7S10493   5.551   5.958   6.260 -2.5447  2.5962  1.6300
  104OSM    H7T10494   5.385   5.937   6.281 -0.5709 -0.2703 -0.7398
  104OSM    C8S10495   5.465   5.856   6.090 -0.0143  0.2679  0.2930
  104OSM    H8S10496   5.359   5.826   6.075 -0.1025  0.3457  0.7578
  104OSM    H8T10497   5.522   5.769   6.049  0.3259  1.1102 -1.0977
  104OSM    C9S10498   5.483   5.976   6.001 -0.1931  0.4123  0.1931
  104OSM    H9S10499   5.590   6.002   6.014  0.5940 -1.9745 -1.0538
  104OSM    H9T10500   5.428   6.062   6.046 -2.1326 -0.9367  0.5303
  104OSM   C10S10501   5.443   5.952   5.857 -0.3168 -0.4155  0.2229
  104OSM   H10S10502   5.332   5.958   5.853 -0.4198  1.8098  3.2079
  104OSM   H10T10503   5.467   5.847   5.827  0.5847 -0.3209  0.5993
  104OSM   C11S10504   5.506   6.058   5.753  0.0566  0.0822 -0.7984
  104OSM   H11S10505   5.500   6.162   5.790  0.7121  0.1170 -0.7859
  104OSM   H11T10506   5.439   6.052   5.665  1.5572 -0.9315 -1.9245
  104OSM   C12S10507   5.652   6.026   5.710 -0.3216  0.7569  0.1147
  104OSM   H12S10508   5.657   5.931   5.653 -1.8310  1.8418 -1.9526
  104OSM   H12T10509   5.726   6.025   5.793 -0.2900 -1.3031  0.1258
  104OSM   C13S10510   5.706   6.129   5.608 -0.2193  0.2325 -0.1027
  104OSM   H13S10511   5.693   6.232   5.647  2.2257  0.4837  0.2135
  104OSM   H13T10512   5.662   6.116   5.506 -1.8705  1.9180  0.3380
  104OSM   C14S10513   5.851   6.106   5.601 -0.1495 -0.1324  0.0401
  104OSM   H14S10514   5.885   6.000   5.593  0.2531  0.1092 -1.9433
  104OSM   H14T10515   5.898   6.131   5.699 -0.1350 -2.2456  0.6229
  104OSM   C15S10516   5.929   6.179   5.491 -0.5857  0.3646  0.3008
  104OSM   H15S10517   6.039   6.168   5.500 -0.1922  1.7518 -2.1072
  104OSM   H15T10518   5.905   6.286   5.505 -2.6073  0.1692 -1.2413
  104OSM   C16S10519   5.891   6.146   5.339  0.4079 -0.7138 -0.4792
  104OSM   H16S10520   5.783   6.171   5.325  0.8293  2.2600  0.7637
  104OSM   H16T10521   5.895   6.039   5.308  1.7378 -2.1996  4.0079
  104OSM   C17S10522   5.980   6.231   5.251  0.7514  0.4239 -0.1228
  104OSM   H17S10523   6.083   6.199   5.276  1.3562  1.1811 -1.6052
  104OSM   H17T10524   5.953   6.333   5.287 -1.1987 -0.5194  1.2879
  104OSM   C18S10525   5.962   6.200   5.104 -0.2560  0.1533 -0.4228
  104OSM   H18S10526   5.997   6.285   5.042 -0.3694  0.3895 -0.1666
  104OSM   H18T10527   5.855   6.179   5.084 -0.0990 -1.8891  0.5529
  104OSM   H18U10528   6.012   6.106   5.070 -0.4735 -0.6327  1.3303
  104OSM    C1F10529   5.530   5.483   6.855  0.2120 -0.1313 -0.2471
  104OSM     OF10530   5.423   5.485   6.907  0.2493  0.4537 -0.0379
  104OSM    C2F10531   5.617   5.358   6.845 -0.1630 -0.7910  0.3673
  104OSM    H2F10532   5.644   5.332   6.950 -0.4423  0.9364  0.9023
  104OSM    H2G10533   5.707   5.386   6.786 -0.4090 -2.8229 -1.0582
  104OSM    C3F10534   5.550   5.233   6.779  0.6408 -0.1181  0.4021
  104OSM    H3F10535   5.497   5.254   6.683 -2.0696 -0.2455  1.7733
  104OSM    H3G10536   5.472   5.187   6.843  2.3012 -0.4299  2.2995
  104OSM    C4F10537   5.659   5.124   6.755 -0.1485 -0.0496 -0.2424
  104OSM    H4F10538   5.727   5.123   6.843 -3.1859  0.6498  2.3209
  104OSM    H4G10539   5.712   5.165   6.666 -0.5852 -0.6179 -0.7709
  104OSM    C5F10540   5.589   4.990   6.726 -0.0449  0.7171  0.5248
  104OSM    H5F10541   5.508   4.997   6.650  0.8034  2.1170 -0.2926
  104OSM    H5G10542   5.550   4.939   6.817  0.3233 -1.4970 -0.4873
  104OSM    C6F10543   5.682   4.893   6.668  0.7665 -0.3300  0.2317
  104OSM    H6F10544   5.780   4.894   6.720  1.4007  1.4205 -0.9265
  104OSM    H6G10545   5.699   4.934   6.566  2.0634 -0.2033  0.4792
  104OSM    C7F10546   5.640   4.747   6.660 -0.7614  0.0034 -0.0681
  104OSM    H7F10547   5.540   4.745   6.611 -0.7956  0.3731 -0.0194
  104OSM    H7G10548   5.622   4.700   6.759 -1.8227 -1.9129 -1.1158
  104OSM    C8F10549   5.742   4.677   6.584  0.1304  0.3711 -0.0025
  104OSM    H8F10550   5.839   4.686   6.638 -0.2273  1.5359  0.4635
  104OSM    H8G10551   5.759   4.722   6.483 -0.4801 -0.5425 -0.5304
  104OSM    C9F10552   5.705   4.533   6.562 -0.9204 -0.7998 -0.2983
  104OSM    H9F10553   5.715   4.482   6.659 -0.7848  1.2596  0.8277
  104OSM   C10F10554   5.663   4.462   6.459  0.3249  0.1335 -0.0482
  104OSM   H10F10555   5.675   4.353   6.467 -0.7100 -0.0047 -0.1720
  104OSM   C11F10556   5.649   4.520   6.323  0.4073 -0.1698 -0.9454
  104OSM   H11F10557   5.602   4.621   6.316 -1.4161 -0.8921  0.1255
  104OSM   H11G10558   5.580   4.452   6.269  0.6867 -1.2803  0.0590
  104OSM   C12F10559   5.782   4.505   6.257 -0.4076 -0.2080 -0.0717
  104OSM   H12F10560   5.814   4.399   6.247  0.3282 -0.1365  1.4066
  104OSM   H12G10561   5.861   4.563   6.307  0.2524 -1.7444  0.7226
  104OSM   C13F10562   5.793   4.559   6.114 -0.3881 -0.5310  0.5821
  104OSM   H13F10563   5.805   4.669   6.107 -2.4484 -0.3174 -0.0785
  104OSM   H13G10564   5.697   4.532   6.065  0.3345 -2.1249 -0.0394
  104OSM   C14F10565   5.896   4.488   6.019  0.0704 -0.2642 -1.1830
  104OSM   H14F10566   5.865   4.383   6.004 -2.2614  0.4438 -1.6457
  104OSM   H14G10567   5.998   4.480   6.064 -0.2764 -1.0871 -0.5164
  104OSM   C15F10568   5.911   4.556   5.876 -0.3072 -0.3474  1.1474
  104OSM   H15F10569   5.976   4.646   5.875 -1.0531  0.2112  1.7288
  104OSM   H15G10570   5.813   4.589   5.835  0.1946  0.8742  0.9113
  104OSM   C16F10571   5.973   4.461   5.782 -0.4793 -0.3769  0.8641
  104OSM   H16F10572   5.904   4.379   5.755 -1.8828  0.9714  0.1655
  104OSM   H16G10573   6.072   4.424   5.817  0.2331  1.3292  0.7780
  104OSM   C17F10574   6.006   4.532   5.646 -1.0143 -0.1163  0.1047
  104OSM   H17F10575   6.085   4.470   5.598  1.1201 -0.1229  3.3427
  104OSM   H17G10576   6.047   4.631   5.673 -0.2967 -0.3541 -0.1048
  104OSM   C18F10577   5.886   4.536   5.557 -0.3226  0.4759 -0.1901
  104OSM   H18F10578   5.874   4.432   5.519 -0.4899  0.6434 -0.6015
  104OSM   H18G10579   5.902   4.606   5.472  1.0787  0.4201  0.0053
  104OSM   H18H10580   5.791   4.564   5.608 -1.1146 -0.9144 -0.8339
  105OSM      N10581   6.846   0.382   7.101  0.3736  0.2542 -0.4974
  105OSM    C1510582   6.931   0.340   6.982  0.5270 -0.5336  0.2212
  105OSM   H15A10583   7.012   0.408   6.959  1.7769 -1.6125  1.2506
  105OSM   H15B10584   6.867   0.328   6.896 -0.2257  1.2034  0.4857
  105OSM   H15C10585   6.976   0.246   7.009  2.9681  1.1537  2.5173
  105OSM    C1410586   6.792   0.528   7.076 -0.6635  0.2246 -0.4623
  105OSM   H14A10587   6.865   0.595   7.033 -0.0437 -0.0150  0.1816
  105OSM   H14B10588   6.736   0.560   7.163 -1.1143  3.1348 -1.7184
  105OSM   H14C10589   6.720   0.519   6.996  0.0323 -0.0103 -1.0738
  105OSM    C1310590   6.729   0.294   7.120  0.0628  0.0197 -0.4765
  105OSM   H13A10591   6.749   0.191   7.091 -0.3138 -0.2002  0.0212
  105OSM   H13B10592   6.663   0.334   7.045  0.5919  1.3012 -0.2746
  105OSM   H13C10593   6.683   0.278   7.217 -0.8037 -3.4983 -1.2967
  105OSM    C1210594   6.935   0.376   7.226 -0.2129 -0.1628 -0.3021
  105OSM   H12A10595   6.883   0.437   7.298  0.2567 -0.3269  0.1789
  105OSM   H12B10596   7.027   0.418   7.188  0.3775 -1.9853 -1.0215
  105OSM    C1110597   6.964   0.240   7.279 -0.7967 -0.1293 -0.4856
  105OSM   H11A10598   6.872   0.182   7.301 -0.7907 -0.0471 -0.2393
  105OSM   H11B10599   7.012   0.260   7.377  0.2369 -0.8013 -0.8405
  105OSM      P10600   7.057   0.019   7.169  0.3526  0.0840  0.2195
  105OSM    O1310601   7.175  -0.032   7.095  0.1107 -0.0285 -0.1975
  105OSM    O1410602   7.018  -0.049   7.295  0.1129  0.0346 -0.2263
  105OSM    O1110603   6.936   0.011   7.067  0.1844 -0.7446  0.0986
  105OSM    O1210604   7.059   0.175   7.193 -0.2122 -0.0131 -0.0601
  105OSM    C1S10605   6.958   0.030   6.929  0.1085 -0.4031 -0.1725
  105OSM    H1S10606   7.039   0.102   6.908 -1.0401  0.2883 -2.5516
  105OSM    H1T10607   6.869   0.075   6.880  1.0597  2.1324  0.2669
  105OSM     NF10608   7.053  -0.062   6.716 -0.1580  0.5716 -0.2614
  105OSM    HNF10609   6.998  -0.091   6.638  0.1000 -1.2997  0.2237
  105OSM    C2S10610   7.011  -0.100   6.852  0.1557 -0.2059 -0.0569
  105OSM    H2S10611   7.101  -0.137   6.906 -0.0924  2.1389  2.1443
  105OSM    C3S10612   6.899  -0.206   6.843 -0.5067  0.3368  0.3315
  105OSM    H3S10613   6.812  -0.161   6.791 -0.0842 -1.3070 -1.9404
  105OSM     O310614   6.845  -0.231   6.968  0.2878  0.1312 -0.6666
  105OSM    HO310615   6.858  -0.147   7.012  2.2051 -0.6245  0.3654
  105OSM    C4S10616   6.941  -0.331   6.767  0.4345  0.5046 -0.6562
  105OSM    H4S10617   7.029  -0.380   6.811  0.1800  0.7501  0.1431
  105OSM    C5S10618   6.880  -0.375   6.655  0.4018  0.2575  0.0480
  105OSM    H5S10619   6.784  -0.334   6.621  0.1136  1.5238  2.1955
  105OSM    C6S10620   6.922  -0.489   6.566  0.3316 -0.2802 -0.0621
  105OSM    H6S10621   6.876  -0.582   6.607  0.9914 -0.4045  0.4092
  105OSM    H6T10622   7.032  -0.502   6.573  0.5193 -0.1668 -2.1000
  105OSM    C7S10623   6.889  -0.471   6.424  0.0423 -0.9324 -0.0042
  105OSM    H7S10624   6.948  -0.381   6.396 -1.5511  0.3367  0.5583
  105OSM    H7T10625   6.782  -0.452   6.403  0.8074  1.9427 -1.7676
  105OSM    C8S10626   6.923  -0.602   6.350  0.0391  0.6165  0.4248
  105OSM    H8S10627   6.866  -0.695   6.369  0.7169 -0.0757 -0.7796
  105OSM    H8T10628   7.016  -0.638   6.398 -0.2253  0.2857  0.6912
  105OSM    C9S10629   6.956  -0.592   6.200 -0.2986  0.0248  0.7412
  105OSM    H9S10630   7.051  -0.536   6.182  1.2829 -2.3216  1.4118
  105OSM    H9T10631   6.868  -0.541   6.155  0.1349  0.4585  0.3711
  105OSM   C10S10632   6.964  -0.727   6.127 -0.2779 -0.8363 -0.3974
  105OSM   H10S10633   6.868  -0.778   6.153 -1.6547  1.8789  0.2288
  105OSM   H10T10634   7.046  -0.787   6.173 -0.3308 -0.2458  0.4884
  105OSM   C11S10635   6.962  -0.721   5.977 -0.2434 -0.2844  0.2494
  105OSM   H11S10636   7.061  -0.679   5.948 -0.6455  1.6621  1.4693
  105OSM   H11T10637   6.887  -0.653   5.932 -1.3803 -1.2504  0.6310
  105OSM   C12S10638   6.955  -0.851   5.895 -0.0311 -0.2463  0.2259
  105OSM   H12S10639   6.990  -0.835   5.791 -0.1802  1.4633  0.4058
  105OSM   H12T10640   6.848  -0.880   5.890 -0.1352  0.2195 -0.4273
  105OSM   C13S10641   7.030  -0.972   5.956 -0.3265  0.0587  0.2707
  105OSM   H13S10642   7.000  -1.002   6.058  0.3032  0.4819  0.5877
  105OSM   H13T10643   7.134  -0.934   5.962  0.4275 -2.1112  1.6175
  105OSM   C14S10644   7.015  -1.091   5.868 -0.3632 -0.1598  0.5165
  105OSM   H14S10645   6.927  -1.087   5.799  1.1171 -1.6978 -1.6175
  105OSM   H14T10646   7.016  -1.188   5.922 -0.6864  0.0338  0.8735
  105OSM   C15S10647   7.141  -1.111   5.779 -0.0204  0.3303  0.0466
  105OSM   H15S10648   7.229  -1.142   5.841 -0.3051  2.9963  2.0010
  105OSM   H15T10649   7.163  -1.015   5.728 -0.2911  0.8959  0.9668
  105OSM   C16S10650   7.124  -1.216   5.665 -0.1272 -0.1151  0.4107
  105OSM   H16S10651   7.110  -1.311   5.720  1.6753 -1.5459 -1.4816
  105OSM   H16T10652   7.223  -1.234   5.619  0.0267  0.4082  0.5286
  105OSM   C17S10653   7.009  -1.201   5.557 -0.1234  0.2416 -0.1963
  105OSM   H17S10654   6.999  -1.094   5.533  0.4300  0.3011 -0.1691
  105OSM   H17T10655   6.914  -1.241   5.599  0.8428 -2.5351 -0.4566
  105OSM   C18S10656   7.043  -1.265   5.419  0.0244 -0.1411 -0.1749
  105OSM   H18S10657   6.962  -1.252   5.344  1.1310 -0.4671 -1.4647
  105OSM   H18T10658   7.069  -1.372   5.438  0.8263  0.1653  0.5265
  105OSM   H18U10659   7.131  -1.213   5.378  0.3893 -0.6572 -0.0594
  105OSM    C1F10660   7.175  -0.012   6.697 -0.1204 -0.1624  0.1576
  105OSM     OF10661   7.260  -0.009   6.782 -0.0546  0.4740  0.5620
  105OSM    C2F10662   7.202   0.040   6.559 -0.1886 -0.1024  0.0817
  105OSM    H2F10663   7.120   0.113   6.538  1.2400  1.7093  0.4872
  105OSM    H2G10664   7.203  -0.045   6.487  0.9993  0.0112 -0.0475
  105OSM    C3F10665   7.329   0.131   6.552 -0.4587  0.3859  0.5318
  105OSM    H3F10666   7.418   0.067   6.574 -0.2834  0.5247  0.2353
  105OSM    H3G10667   7.330   0.209   6.631 -0.0243 -0.8191  1.7413
  105OSM    C4F10668   7.341   0.198   6.415 -0.3529 -0.6268 -0.5494
  105OSM    H4F10669   7.331   0.119   6.338  2.5193 -0.6503 -1.0259
  105OSM    H4G10670   7.448   0.231   6.416  0.1037 -2.0182  1.4944
  105OSM    C5F10671   7.253   0.317   6.382 -0.0321  0.0572  0.2923
  105OSM    H5F10672   7.299   0.404   6.434 -0.5176  1.3784 -1.3793
  105OSM    H5G10673   7.154   0.297   6.428 -0.7221 -0.1903 -1.2183
  105OSM    C6F10674   7.266   0.360   6.236  0.0573  0.5339  0.2193
  105OSM    H6F10675   7.369   0.395   6.215  0.4293 -1.7376 -2.3001
  105OSM    H6G10676   7.185   0.436   6.225 -2.1681 -1.9704 -1.9747
  105OSM    C7F10677   7.231   0.252   6.124 -0.1763 -0.7083 -0.2721
  105OSM    H7F10678   7.132   0.209   6.151 -1.0503 -0.0498 -2.3005
  105OSM    H7G10679   7.302   0.167   6.120 -1.1235 -1.4992 -0.6673
  105OSM    C8F10680   7.210   0.291   5.971 -0.0454  0.5135  0.6213
  105OSM    H8F10681   7.302   0.346   5.941  0.6342 -0.6917  0.4485
  105OSM    H8G10682   7.125   0.363   5.970  0.2122  0.8237  0.7742
  105OSM    C9F10683   7.182   0.168   5.887  0.2348 -0.1640  0.2556
  105OSM    H9F10684   7.224   0.075   5.931  1.2919  0.9254  1.6755
  105OSM   C10F10685   7.101   0.160   5.775 -0.5095  0.0437 -0.0639
  105OSM   H10F10686   7.105   0.067   5.718  1.5726 -1.5320  2.3958
  105OSM   C11F10687   7.020   0.271   5.716  1.2177 -0.0337  0.0620
  105OSM   H11F10688   6.980   0.343   5.791 -1.7810 -1.0337 -0.4568
  105OSM   H11G10689   6.928   0.232   5.667 -1.6959  2.6143  2.9331
  105OSM   C12F10690   7.101   0.369   5.627  0.1506  0.3474  0.0047
  105OSM   H12F10691   7.153   0.331   5.536  2.0522 -0.5561  1.3909
  105OSM   H12G10692   7.190   0.391   5.691  0.8896 -1.2832 -0.4039
  105OSM   C13F10693   7.016   0.486   5.572 -0.1813 -0.6303 -0.3175
  105OSM   H13F10694   7.077   0.573   5.540  0.0712 -0.8869 -0.5445
  105OSM   H13G10695   6.955   0.528   5.654  0.5305  0.8270 -0.4988
  105OSM   C14F10696   6.944   0.433   5.447  0.3769 -0.1251  0.5127
  105OSM   H14F10697   6.909   0.332   5.478  0.7183 -0.3880  0.0384
  105OSM   H14G10698   7.012   0.421   5.360 -2.0535  1.6163 -1.7917
  105OSM   C15F10699   6.829   0.518   5.411  0.2891 -0.7580  0.2766
  105OSM   H15F10700   6.866   0.618   5.378 -1.2059 -0.3451 -0.2265
  105OSM   H15G10701   6.770   0.543   5.502  0.6740 -0.5588  0.4748
  105OSM   C16F10702   6.745   0.456   5.298  0.1593 -0.5426  0.2112
  105OSM   H16F10703   6.644   0.504   5.302 -0.4808 -1.3595 -3.2169
  105OSM   H16G10704   6.710   0.352   5.313 -0.0995 -0.5484 -0.3947
  105OSM   C17F10705   6.804   0.483   5.161 -0.6803  0.1117  0.6962
  105OSM   H17F10706   6.788   0.404   5.084 -0.8676  0.0748  0.7731
  105OSM   H17G10707   6.914   0.483   5.174 -0.6219  2.1779  0.4753
  105OSM   C18F10708   6.766   0.619   5.105 -0.1088 -0.2172  0.3105
  105OSM   H18F10709   6.788   0.699   5.179 -1.0094  0.9137 -0.5990
  105OSM   H18G10710   6.659   0.617   5.078 -0.5745 -0.5442  2.0683
  105OSM   H18H10711   6.813   0.638   5.006 -1.0215 -0.1074 -0.1112
  106OSM      N10712   6.296   3.771   7.210  0.2386  0.7099 -0.2608
  106OSM    C1510713   6.244   3.639   7.262  0.2985 -0.6309  0.5582
  106OSM   H15A10714   6.159   3.659   7.327 -0.5902  1.6800 -1.1658
  106OSM   H15B10715   6.322   3.580   7.306  2.0188  1.4695  0.4826
  106OSM   H15C10716   6.196   3.588   7.180  0.2427  0.7614 -0.3177
  106OSM    C1410717   6.182   3.861   7.175 -0.1560  0.1558 -0.0809
  106OSM   H14A10718   6.121   3.858   7.264  0.2731  0.0640  0.2115
  106OSM   H14B10719   6.110   3.817   7.108 -1.5474 -2.3622  2.8018
  106OSM   H14C10720   6.213   3.962   7.152 -2.1831  0.3317 -2.5082
  106OSM    C1310721   6.378   3.835   7.313 -0.3584  0.3425 -0.7425
  106OSM   H13A10722   6.452   3.770   7.357 -1.3044 -0.4455 -0.2631
  106OSM   H13B10723   6.321   3.883   7.391  2.4954  0.5844  1.3208
  106OSM   H13C10724   6.431   3.922   7.278 -0.4057  0.5519 -0.2992
  106OSM    C1210725   6.387   3.743   7.091  0.5527 -1.0291  0.3644
  106OSM   H12A10726   6.321   3.712   7.011  1.4080  0.9153 -1.1557
  106OSM   H12B10727   6.463   3.667   7.107  1.2792 -0.4729 -0.3961
  106OSM    C1110728   6.476   3.862   7.034  1.0711  0.6721  0.7568
  106OSM   H11A10729   6.429   3.956   6.999  0.5714  0.4522  0.8381
  106OSM   H11B10730   6.515   3.826   6.936  0.1015 -1.9151  1.2428
  106OSM      P10731   6.701   3.782   7.146 -0.1397 -0.2495 -0.4473
  106OSM    O1310732   6.760   3.799   7.282  0.4042 -0.1830 -0.4013
  106OSM    O1410733   6.651   3.646   7.131 -0.6780  0.1571 -0.3339
  106OSM    O1110734   6.803   3.821   7.028 -0.2504  0.0714 -0.2340
  106OSM    O1210735   6.582   3.883   7.125  0.0982  0.9499  0.3345
  106OSM    C1S10736   6.867   3.949   7.028  0.4218  0.5670 -0.4035
  106OSM    H1S10737   6.939   3.958   7.112  0.1964 -1.5394  0.0914
  106OSM    H1T10738   6.781   4.018   7.043 -1.1007 -1.0343 -1.3788
  106OSM     NF10739   6.998   4.111   6.905  0.0576 -0.7944  0.2761
  106OSM    HNF10740   6.940   4.191   6.889  1.5097  0.0676 -0.9669
  106OSM    C2S10741   6.939   3.984   6.890  0.6912 -0.2763 -0.1161
  106OSM    H2S10742   7.018   3.910   6.867  1.4770 -0.8732  3.9049
  106OSM    C3S10743   6.835   3.988   6.775  0.0631  0.3771  0.2202
  106OSM    H3S10744   6.782   4.085   6.788  1.2257  0.9563  0.8460
  106OSM     O310745   6.731   3.891   6.780  0.0735 -0.6705  0.1504
  106OSM    HO310746   6.746   3.837   6.858  2.5956  0.9612  0.9228
  106OSM    C4S10747   6.900   4.000   6.641 -0.1812  0.0836  0.0443
  106OSM    H4S10748   6.897   4.099   6.592 -2.1369  0.4257  0.7522
  106OSM    C5S10749   6.944   3.893   6.567 -0.1484  0.1463  0.2897
  106OSM    H5S10750   6.958   3.793   6.610 -0.3956  0.0227  0.0837
  106OSM    C6S10751   6.985   3.922   6.422 -0.3297  0.1722 -0.4487
  106OSM    H6S10752   7.080   3.872   6.393 -1.2651 -0.5798 -2.4027
  106OSM    H6T10753   7.009   4.029   6.403 -2.2071  0.9802  1.4509
  106OSM    C7S10754   6.892   3.890   6.307 -0.2174 -0.8040 -0.5475
  106OSM    H7S10755   6.786   3.918   6.324  0.7735  1.4259  3.2433
  106OSM    H7T10756   6.883   3.779   6.302 -2.8725 -0.6833 -0.1606
  106OSM    C8S10757   6.944   3.911   6.160  0.1389  0.9795  0.4731
  106OSM    H8S10758   7.011   3.827   6.131  0.6054  0.9139  1.6648
  106OSM    H8T10759   6.988   4.013   6.156  0.1629  0.9821  0.7660
  106OSM    C9S10760   6.829   3.899   6.054 -0.0680  0.1126  0.7624
  106OSM    H9S10761   6.749   3.975   6.064  2.0362  2.8138 -1.3926
  106OSM    H9T10762   6.783   3.798   6.062 -2.0401  0.8573 -0.3826
  106OSM   C10S10763   6.875   3.919   5.909 -0.0887 -0.0362  0.1704
  106OSM   H10S10764   6.976   3.873   5.908 -0.6979 -1.3999 -0.3307
  106OSM   H10T10765   6.885   4.030   5.903 -1.8916  0.2233  1.2440
  106OSM   C11S10766   6.785   3.882   5.793  0.4323  0.2818  0.1422
  106OSM   H11S10767   6.694   3.945   5.796 -0.5592 -0.4156 -5.2169
  106OSM   H11T10768   6.764   3.773   5.798  0.5698  0.2432 -0.0837
  106OSM   C12S10769   6.851   3.898   5.652 -0.0845 -0.6048  0.1728
  106OSM   H12S10770   6.958   3.872   5.663 -0.3214 -0.6852  3.0799
  106OSM   H12T10771   6.857   4.004   5.618  1.3217 -1.1227 -1.2713
  106OSM   C13S10772   6.778   3.810   5.549  0.4327  0.0381  0.0503
  106OSM   H13S10773   6.671   3.838   5.540  0.4431  0.4506  1.1169
  106OSM   H13T10774   6.789   3.702   5.570 -0.8552 -0.0067  0.5175
  106OSM   C14S10775   6.838   3.832   5.408  0.0345  0.5432  1.0524
  106OSM   H14S10776   6.866   3.939   5.399  1.2236  0.1759  0.1247
  106OSM   H14T10777   6.759   3.818   5.332  1.4867 -0.4497 -0.3406
  106OSM   C15S10778   6.961   3.736   5.373  0.4245 -0.7632  0.7661
  106OSM   H15S10779   6.946   3.634   5.415  0.8536 -0.2178  2.3160
  106OSM   H15T10780   7.052   3.780   5.418  0.0686 -0.0776  0.8418
  106OSM   C16S10781   6.964   3.735   5.220  0.2288  0.5566 -0.9264
  106OSM   H16S10782   6.962   3.828   5.160  0.0293  2.4565  1.8545
  106OSM   H16T10783   6.870   3.681   5.195  0.4704 -0.3860  0.1222
  106OSM   C17S10784   7.088   3.649   5.180 -0.0612  0.2652  0.0883
  106OSM   H17S10785   7.093   3.569   5.256  2.4824  0.1260 -0.1664
  106OSM   H17T10786   7.182   3.707   5.193 -1.4425  2.4940  0.7257
  106OSM   C18S10787   7.092   3.595   5.032 -0.1643  0.9522 -0.6865
  106OSM   H18S10788   7.057   3.666   4.954 -0.4127  1.0821 -0.4595
  106OSM   H18T10789   7.033   3.504   5.007  2.3695  0.0948 -4.4840
  106OSM   H18U10790   7.196   3.560   5.017 -0.3295  0.2477 -0.2029
  106OSM    C1F10791   7.099   4.146   6.986  0.0290 -0.1176  0.0326
  106OSM     OF10792   7.156   4.069   7.060 -0.1212  0.2214  0.1694
  106OSM    C2F10793   7.142   4.291   6.975 -0.1647  0.1331  0.7633
  106OSM    H2F10794   7.183   4.313   7.076  1.5304 -2.9637  0.8658
  106OSM    H2G10795   7.057   4.353   6.941  0.1307 -1.2361 -2.8804
  106OSM    C3F10796   7.269   4.312   6.876  0.3286 -0.2857  0.8324
  106OSM    H3F10797   7.355   4.253   6.914  1.3324  0.1271 -0.7205
  106OSM    H3G10798   7.289   4.420   6.892 -0.8241 -0.0848  0.9639
  106OSM    C4F10799   7.250   4.291   6.725  0.2087  0.1209  1.1648
  106OSM    H4F10800   7.225   4.185   6.704 -0.3710  0.5300 -0.4001
  106OSM    H4G10801   7.349   4.309   6.677  0.0525  0.8850  1.1113
  106OSM    C5F10802   7.138   4.374   6.658 -0.0014  0.0694 -0.5063
  106OSM    H5F10803   7.155   4.484   6.658 -1.6525  0.3588 -0.3067
  106OSM    H5G10804   7.052   4.375   6.729 -1.5775 -1.1933 -2.2986
  106OSM    C6F10805   7.098   4.316   6.526  0.1982 -0.2297 -0.1485
  106OSM    H6F10806   7.089   4.206   6.516 -0.6507 -0.1364 -0.5286
  106OSM    H6G10807   7.177   4.337   6.451  0.7569 -1.7987 -0.0369
  106OSM    C7F10808   6.978   4.382   6.467 -0.2769 -1.0541 -0.6477
  106OSM    H7F10809   6.996   4.491   6.455  1.5367 -1.0712  1.2810
  106OSM    H7G10810   6.896   4.367   6.541 -0.6346 -2.0051 -1.2213
  106OSM    C8F10811   6.941   4.318   6.341  0.4130  0.0568  0.3888
  106OSM    H8F10812   6.889   4.227   6.379 -0.8341  1.3421  1.9022
  106OSM    H8G10813   7.028   4.276   6.286 -0.6654 -1.6857 -0.0689
  106OSM    C9F10814   6.846   4.399   6.257 -0.7162 -0.1197  0.4741
  106OSM    H9F10815   6.751   4.427   6.304  0.4821  1.7707  1.9425
  106OSM   C10F10816   6.873   4.446   6.133  0.7138  0.0462 -0.7420
  106OSM   H10F10817   6.802   4.519   6.090 -1.5731 -3.0924 -2.7079
  106OSM   C11F10818   7.006   4.434   6.062  0.3553 -0.2356 -0.4628
  106OSM   H11F10819   7.085   4.432   6.140 -0.3063  0.0681  0.2313
  106OSM   H11G10820   7.023   4.529   6.007  2.8590  0.2861  1.0339
  106OSM   C12F10821   7.026   4.321   5.964  0.2250 -0.3142  0.1554
  106OSM   H12F10822   7.010   4.225   6.018 -0.1268 -0.3774 -0.0641
  106OSM   H12G10823   7.126   4.339   5.917  0.5132  0.9148  1.1737
  106OSM   C13F10824   6.929   4.334   5.840  0.0058  0.3922  0.9420
  106OSM   H13F10825   6.829   4.337   5.888 -0.7417  0.6098 -0.5753
  106OSM   H13G10826   6.931   4.247   5.771 -2.0908  0.5843  0.5579
  106OSM   C14F10827   6.959   4.465   5.762 -0.2437 -0.3195  0.6484
  106OSM   H14F10828   7.067   4.457   5.737 -0.3248  0.6034 -0.0554
  106OSM   H14G10829   6.952   4.564   5.810  0.6710 -0.0069  0.1581
  106OSM   C15F10830   6.876   4.470   5.622  0.2244  0.2002 -0.6208
  106OSM   H15F10831   6.781   4.417   5.644 -0.1124  0.3882 -1.5468
  106OSM   H15G10832   6.926   4.410   5.543  0.6048  1.3928 -1.3131
  106OSM   C16F10833   6.847   4.610   5.567  0.1089  0.5614  0.7735
  106OSM   H16F10834   6.931   4.671   5.528  1.5279 -2.4829 -1.3564
  106OSM   H16G10835   6.812   4.669   5.654  1.6401  0.0393  1.7780
  106OSM   C17F10836   6.723   4.627   5.475  0.1449  0.4186  0.0120
  106OSM   H17F10837   6.726   4.731   5.435  0.0694  0.7889  0.9420
  106OSM   H17G10838   6.637   4.625   5.544  0.8719 -1.8173  0.9443
  106OSM   C18F10839   6.718   4.519   5.372  0.1566  0.1495  0.3904
  106OSM   H18F10840   6.803   4.526   5.301 -0.2881  0.6092 -0.1120
  106OSM   H18G10841   6.618   4.524   5.323 -0.5386 -0.8665  1.6301
  106OSM   H18H10842   6.710   4.420   5.422  0.1485  0.2037  0.4973
  107OSM      N10843   6.159   1.920   7.659  0.3154 -0.3939 -0.4473
  107OSM    C1510844   6.215   1.807   7.738 -0.0553  0.0892  0.0022
  107OSM   H15A10845   6.216   1.712   7.688  0.8461 -0.6981  1.4533
  107OSM   H15B10846   6.156   1.801   7.829 -0.4965  1.8703 -0.1321
  107OSM   H15C10847   6.318   1.815   7.769  0.1404  2.3422 -1.0494
  107OSM    C1410848   6.229   1.922   7.524 -0.0711 -0.1696 -0.7638
  107OSM   H14A10849   6.335   1.936   7.542 -0.3155  0.1161  0.6004
  107OSM   H14B10850   6.186   1.987   7.449 -1.5121 -2.0659 -1.6485
  107OSM   H14C10851   6.212   1.827   7.476 -2.8157 -0.7753  1.1727
  107OSM    C1310852   6.021   1.874   7.623  0.4049 -0.5960  0.0501
  107OSM   H13A10853   5.978   1.946   7.554  0.3857 -0.3422  0.3216
  107OSM   H13B10854   5.950   1.868   7.704  1.3747 -1.6990  0.8509
  107OSM   H13C10855   6.033   1.781   7.570  1.6711 -0.3511 -0.1266
  107OSM    C1210856   6.151   2.053   7.730 -0.8587  0.0047  0.1252
  107OSM   H12A10857   6.249   2.092   7.752 -1.4452  1.2169  0.6923
  107OSM   H12B10858   6.104   2.029   7.824  0.1075  0.2279  0.6708
  107OSM    C1110859   6.077   2.161   7.651  0.4097 -0.1935  0.3198
  107OSM   H11A10860   6.109   2.146   7.546  1.4803 -0.3966  0.6638
  107OSM   H11B10861   6.099   2.265   7.685 -0.6634 -0.1650  0.9977
  107OSM      P10862   5.834   2.215   7.595 -0.3569 -0.3649  0.6450
  107OSM    O1310863   5.704   2.146   7.612  0.0050 -0.1964 -0.4297
  107OSM    O1410864   5.838   2.353   7.643 -0.3309 -0.4996  0.5871
  107OSM    O1110865   5.880   2.213   7.440  0.1191  0.3131 -0.0019
  107OSM    O1210866   5.941   2.131   7.671  0.2214  0.6347  0.0406
  107OSM    C1S10867   5.925   2.333   7.372 -0.0512  0.1799 -0.0837
  107OSM    H1S10868   6.032   2.345   7.398 -0.5369  1.9197  1.3291
  107OSM    H1T10869   5.869   2.421   7.410  0.1601 -0.1377  1.0109
  107OSM     NF10870   6.001   2.409   7.146 -0.2778 -0.2804 -0.7544
  107OSM    HNF10871   5.956   2.481   7.094 -0.7573 -0.0305 -0.0082
  107OSM    C2S10872   5.919   2.310   7.218  0.8209 -0.2571 -0.2529
  107OSM    H2S10873   5.969   2.212   7.202  0.5257 -0.0676 -2.6990
  107OSM    C3S10874   5.773   2.300   7.166  0.2468  0.0524  0.1671
  107OSM    H3S10875   5.720   2.396   7.186  1.4194  0.8813 -0.6070
  107OSM     O310876   5.700   2.199   7.238  0.1701 -0.2877  0.2656
  107OSM    HO310877   5.743   2.195   7.324 -0.3405  0.7487  0.5908
  107OSM    C4S10878   5.772   2.255   7.027 -0.4047  0.2928 -0.5204
  107OSM    H4S10879   5.813   2.153   7.014 -0.0985  0.2624  0.5903
  107OSM    C5S10880   5.742   2.331   6.920 -0.2894 -0.2760  0.1428
  107OSM    H5S10881   5.714   2.430   6.960  0.2940 -0.3292  0.6922
  107OSM    C6S10882   5.740   2.304   6.768 -0.5076 -0.0124 -0.0787
  107OSM    H6S10883   5.658   2.363   6.720  2.2548  1.0666 -3.8919
  107OSM    H6T10884   5.734   2.194   6.755 -0.2472  0.0348 -0.6342
  107OSM    C7S10885   5.866   2.335   6.690 -0.5662  0.6000 -0.2025
  107OSM    H7S10886   5.945   2.263   6.721 -0.6091  1.0241  0.9367
  107OSM    H7T10887   5.892   2.441   6.709 -0.4687  0.9652 -2.1010
  107OSM    C8S10888   5.847   2.325   6.534  0.7570 -0.3770 -0.0246
  107OSM    H8S10889   5.745   2.359   6.508  1.7813  2.1035 -1.0908
  107OSM    H8T10890   5.853   2.219   6.500  0.4249 -0.6682  0.8050
  107OSM    C9S10891   5.939   2.425   6.459 -0.5237  0.5006 -0.6752
  107OSM    H9S10892   6.036   2.376   6.482 -1.8778 -1.7212  0.6658
  107OSM    H9T10893   5.945   2.525   6.506 -1.4019 -0.6938  2.1926
  107OSM   C10S10894   5.908   2.431   6.309  0.3378 -0.1442  0.6546
  107OSM   H10S10895   5.810   2.483   6.294  1.2464  1.1923 -1.1047
  107OSM   H10T10896   5.896   2.326   6.274  1.3249  0.1878 -0.7914
  107OSM   C11S10897   6.012   2.502   6.219 -0.5204 -0.0056 -0.7165
  107OSM   H11S10898   6.107   2.445   6.233 -0.0472  0.3932 -2.1764
  107OSM   H11T10899   6.033   2.602   6.263 -0.1886 -0.3813  0.0068
  107OSM   C12S10900   5.979   2.490   6.077  0.9712 -0.4451 -0.2203
  107OSM   H12S10901   5.889   2.552   6.051  1.2817 -1.1586 -3.4030
  107OSM   H12T10902   5.943   2.388   6.052  0.4661 -0.5903  0.9988
  107OSM   C13S10903   6.086   2.527   5.980 -0.0256  0.0092 -0.4468
  107OSM   H13S10904   6.178   2.477   6.016  0.9350  0.4991 -2.1410
  107OSM   H13T10905   6.093   2.638   5.986 -0.3526 -0.0058  0.3286
  107OSM   C14S10906   6.043   2.476   5.844 -0.5868 -0.5618 -0.1285
  107OSM   H14S10907   5.953   2.531   5.810 -1.6311 -1.6662  0.7601
  107OSM   H14T10908   6.018   2.369   5.858  0.6154 -1.2811 -2.7102
  107OSM   C15S10909   6.150   2.487   5.735 -0.3835 -0.1004 -0.5293
  107OSM   H15S10910   6.240   2.433   5.772  0.3086  2.3099  1.5608
  107OSM   H15T10911   6.169   2.595   5.716  0.6270  0.1151  1.4543
  107OSM   C16S10912   6.115   2.412   5.609  0.0987  0.3308  0.5821
  107OSM   H16S10913   6.100   2.305   5.636 -1.5511  0.8657  1.9586
  107OSM   H16T10914   6.196   2.417   5.533 -1.9097 -0.4303 -1.7181
  107OSM   C17S10915   5.998   2.469   5.527  0.1908  0.2997  0.1855
  107OSM   H17S10916   6.000   2.580   5.523 -1.5398  0.4641  2.1154
  107OSM   H17T10917   5.902   2.446   5.578  0.5947 -0.8237  0.4884
  107OSM   C18S10918   5.995   2.412   5.386  0.9206  0.3313 -0.2281
  107OSM   H18S10919   5.921   2.461   5.320  0.2900  0.1727  0.3405
  107OSM   H18T10920   5.965   2.305   5.397  1.1887  0.5001  3.2394
  107OSM   H18U10921   6.096   2.411   5.339  1.9986 -0.9970  1.9143
  107OSM    C1F10922   6.136   2.406   7.162  0.1346  0.1477 -0.4974
  107OSM     OF10923   6.183   2.295   7.189 -0.1961 -0.3394 -0.6481
  107OSM    C2F10924   6.216   2.528   7.138  0.2119 -0.4637 -0.7498
  107OSM    H2F10925   6.272   2.547   7.232  1.5486  0.4640 -1.7167
  107OSM    H2G10926   6.152   2.617   7.121  0.5471  0.3127  1.6786
  107OSM    C3F10927   6.317   2.519   7.021  0.4963  0.1624  0.0257
  107OSM    H3F10928   6.401   2.448   7.037  1.1832  1.0022  0.2274
  107OSM    H3G10929   6.370   2.616   7.016 -0.4465  0.6948  0.0792
  107OSM    C4F10930   6.249   2.491   6.882 -0.3584 -0.4363  0.2564
  107OSM    H4F10931   6.146   2.532   6.889  0.1928  1.4771 -1.7356
  107OSM    H4G10932   6.231   2.383   6.864  1.4387 -0.7039 -0.1081
  107OSM    C5F10933   6.315   2.559   6.763  0.3672 -0.4002  0.1464
  107OSM    H5F10934   6.320   2.669   6.774 -1.4370 -0.2627 -0.2119
  107OSM    H5G10935   6.245   2.555   6.677 -0.7099  1.3676  0.8922
  107OSM    C6F10936   6.458   2.517   6.728 -0.5792 -0.0103 -0.1026
  107OSM    H6F10937   6.469   2.407   6.729  2.9040  0.2295 -0.1573
  107OSM    H6G10938   6.516   2.560   6.813  2.4515 -1.7120 -1.1419
  107OSM    C7F10939   6.512   2.564   6.594 -0.2395  0.5827  0.3700
  107OSM    H7F10940   6.622   2.558   6.584  0.2223 -2.1055  4.7147
  107OSM    H7G10941   6.484   2.671   6.581 -0.1477  0.6540  0.7654
  107OSM    C8F10942   6.443   2.483   6.479  0.5174  0.6565  0.2578
  107OSM    H8F10943   6.332   2.486   6.490  0.2024 -3.3909 -0.1339
  107OSM    H8G10944   6.476   2.377   6.475 -3.0032 -0.5448 -2.5383
  107OSM    C9F10945   6.482   2.550   6.352 -0.1624 -0.1207 -0.4737
  107OSM    H9F10946   6.501   2.658   6.357 -0.2848 -0.1495  0.7336
  107OSM   C10F10947   6.515   2.499   6.233 -0.1357  0.7162  0.2923
  107OSM   H10F10948   6.545   2.567   6.152 -1.3855  0.0785 -0.7486
  107OSM   C11F10949   6.496   2.359   6.188  0.3797  0.4969  0.7369
  107OSM   H11F10950   6.405   2.313   6.231 -0.4207  2.7289  1.5794
  107OSM   H11G10951   6.584   2.296   6.213  0.3273  0.1668  0.1132
  107OSM   C12F10952   6.486   2.357   6.034  0.0662  0.0849  0.3363
  107OSM   H12F10953   6.582   2.387   5.987 -0.9671  1.4912 -0.9874
  107OSM   H12G10954   6.414   2.429   5.989 -0.0718 -0.1718  0.1423
  107OSM   C13F10955   6.442   2.225   5.976  0.7388 -0.2603  0.0918
  107OSM   H13F10956   6.332   2.229   5.962  0.6898  0.9336  0.7537
  107OSM   H13G10957   6.463   2.146   6.052 -0.0710  1.1935  1.8982
  107OSM   C14F10958   6.506   2.174   5.845  0.8994  0.7699 -0.0581
  107OSM   H14F10959   6.452   2.078   5.826 -2.2839  2.3599  0.3052
  107OSM   H14G10960   6.613   2.143   5.845  0.2342 -1.8985 -1.3248
  107OSM   C15F10961   6.475   2.253   5.717 -0.1934 -0.4169  0.9907
  107OSM   H15F10962   6.542   2.342   5.713  0.6984 -0.9395  2.8486
  107OSM   H15G10963   6.370   2.289   5.718  0.2143  0.8218  0.3081
  107OSM   C16F10964   6.479   2.167   5.591 -0.4392 -0.3752  0.0073
  107OSM   H16F10965   6.494   2.223   5.496 -0.2707 -1.6219 -0.7248
  107OSM   H16G10966   6.387   2.106   5.580  0.0120 -0.9142 -0.9659
  107OSM   C17F10967   6.602   2.076   5.586 -0.2552 -1.0885  0.1429
  107OSM   H17F10968   6.588   1.998   5.664 -2.6793 -2.0001 -1.0948
  107OSM   H17G10969   6.691   2.139   5.607  0.1043 -2.1672  2.1337
  107OSM   C18F10970   6.617   2.016   5.446 -0.2422 -0.6873  0.0088
  107OSM   H18F10971   6.676   2.076   5.374  2.4266 -2.0903  0.9171
  107OSM   H18G10972   6.514   1.996   5.408 -0.5325 -2.0573  1.4055
  107OSM   H18H10973   6.674   1.921   5.450 -1.2025 -1.4334 -2.2472
  108OSM      N10974   3.295   1.312   7.348 -0.4547 -0.0754 -0.3181
  108OSM    C1510975   3.392   1.221   7.424  0.7819 -0.1058 -0.1102
  108OSM   H15A10976   3.344   1.136   7.471  1.0724 -0.8332 -1.0835
  108OSM   H15B10977   3.448   1.268   7.503  0.7748 -1.9600  1.0711
  108OSM   H15C10978   3.464   1.178   7.355 -1.8652  1.1240 -4.0426
  108OSM    C1410979   3.202   1.370   7.450  0.0378  0.2529 -0.5031
  108OSM   H14A10980   3.255   1.404   7.538 -1.7290  1.2172  0.2461
  108OSM   H14B10981   3.140   1.290   7.488 -0.7691  0.7780 -0.6895
  108OSM   H14C10982   3.147   1.445   7.396  1.6430  2.7007  1.0406
  108OSM    C1310983   3.383   1.421   7.307  0.1598  0.0730  0.3140
  108OSM   H13A10984   3.316   1.492   7.260 -1.4938 -0.4565  1.7639
  108OSM   H13B10985   3.460   1.390   7.238  2.7758 -0.3989  3.2248
  108OSM   H13C10986   3.429   1.482   7.383 -0.0210  1.2494 -0.4838
  108OSM    C1210987   3.223   1.251   7.224 -0.1170  0.7097  0.4187
  108OSM   H12A10988   3.149   1.178   7.251  0.0156 -0.2202 -1.5464
  108OSM   H12B10989   3.295   1.191   7.169 -0.4755  0.3318  0.3598
  108OSM    C1110990   3.163   1.346   7.134  0.3068 -0.1185 -0.4664
  108OSM   H11A10991   3.122   1.297   7.043 -2.7170  0.6827  0.3593
  108OSM   H11B10992   3.244   1.412   7.097  0.8074 -0.8273 -0.6542
  108OSM      P10993   2.920   1.350   7.241 -0.0124 -0.6367 -0.4006
  108OSM    O1310994   2.940   1.210   7.290 -0.7600 -0.2585 -0.2862
  108OSM    O1410995   2.845   1.444   7.330 -0.3969 -0.0815  0.1581
  108OSM    O1110996   2.859   1.345   7.096  0.2094  0.6023  0.1711
  108OSM    O1210997   3.060   1.414   7.207  0.4626 -0.3584  0.1375
  108OSM    C1S10998   2.846   1.473   7.035 -0.1412  0.3895  0.4551
  108OSM    H1S10999   2.938   1.535   7.048 -0.7802  1.6133 -0.6048
  108OSM    H1T11000   2.755   1.528   7.067  0.3869  1.0569  0.8563
  108OSM     NF11001   2.888   1.566   6.805 -0.0926  0.0434  0.1163
  108OSM    HNF11002   2.821   1.637   6.786  0.5576  1.1944  1.9141
  108OSM    C2S11003   2.837   1.448   6.874 -0.3003 -0.7566 -0.1872
  108OSM    H2S11004   2.904   1.360   6.862 -0.3894 -0.9843  0.9201
  108OSM    C3S11005   2.699   1.410   6.836  1.5366 -0.0097 -0.2179
  108OSM    H3S11006   2.648   1.506   6.863 -0.4634 -1.3050  0.8934
  108OSM     O311007   2.640   1.304   6.912 -0.1962 -0.0701  0.3130
  108OSM    HO311008   2.716   1.266   6.956  1.4676 -2.1455 -3.8564
  108OSM    C4S11009   2.696   1.386   6.688 -0.1747  0.0740 -1.1942
  108OSM    H4S11010   2.696   1.481   6.631  2.5903  1.3376  0.6424
  108OSM    C5S11011   2.725   1.270   6.624 -0.2792  0.0213 -1.0239
  108OSM    H5S11012   2.765   1.186   6.683 -0.4819  0.4502 -0.2573
  108OSM    C6S11013   2.731   1.236   6.482  0.1493 -0.2819 -0.0138
  108OSM    H6S11014   2.829   1.197   6.448  1.3394  2.2194  0.2550
  108OSM    H6T11015   2.719   1.325   6.416  1.2518 -0.6048 -0.6865
  108OSM    C7S11016   2.631   1.132   6.442 -0.4905 -0.3244 -1.0360
  108OSM    H7S11017   2.524   1.161   6.451 -0.3468  0.2521 -1.1177
  108OSM    H7T11018   2.652   1.047   6.510  0.3872  0.6042 -0.1128
  108OSM    C8S11019   2.660   1.069   6.301  0.1102  0.3494  0.4918
  108OSM    H8S11020   2.608   0.971   6.297  0.6253  0.1112 -0.8212
  108OSM    H8T11021   2.769   1.051   6.291  0.7289  1.9838  3.2773
  108OSM    C9S11022   2.616   1.160   6.191  0.1300  0.4532 -0.5470
  108OSM    H9S11023   2.664   1.260   6.202 -0.2985  0.4209  2.2860
  108OSM    H9T11024   2.513   1.184   6.225  0.5651 -0.7047  1.7977
  108OSM   C10S11025   2.629   1.094   6.054  0.9872 -0.8598  0.3078
  108OSM   H10S11026   2.577   0.998   6.075 -1.7940  1.0121  2.4842
  108OSM   H10T11027   2.733   1.072   6.018  1.2745  1.8080 -0.7409
  108OSM   C11S11028   2.548   1.174   5.951 -0.0591 -0.3664  0.1452
  108OSM   H11S11029   2.595   1.269   5.917 -1.1395 -0.3588 -1.4621
  108OSM   H11T11030   2.449   1.197   5.996  0.3029 -0.8893  1.2403
  108OSM   C12S11031   2.524   1.094   5.816  0.1287  0.2740 -1.0118
  108OSM   H12S11032   2.449   1.013   5.834  1.9146 -1.4110 -0.8775
  108OSM   H12T11033   2.619   1.044   5.789  0.5247  0.8927 -0.7782
  108OSM   C13S11034   2.474   1.177   5.698  0.8716 -0.7799  1.0041
  108OSM   H13S11035   2.539   1.267   5.693 -0.4952  0.2099  0.2536
  108OSM   H13T11036   2.369   1.211   5.711  0.6961 -0.4513 -0.9566
  108OSM   C14S11037   2.477   1.097   5.569  0.0729 -0.4141 -0.2099
  108OSM   H14S11038   2.398   1.020   5.577  0.1611 -0.3022  2.7564
  108OSM   H14T11039   2.577   1.049   5.564  1.4784  2.1894  0.9558
  108OSM   C15S11040   2.441   1.192   5.451 -0.1143 -0.0890  0.4207
  108OSM   H15S11041   2.531   1.256   5.444  0.5981 -1.1906 -1.0312
  108OSM   H15T11042   2.348   1.250   5.470 -2.1044 -3.6221  2.7115
  108OSM   C16S11043   2.420   1.128   5.312 -0.4928 -0.0384  0.1827
  108OSM   H16S11044   2.520   1.082   5.294  0.4443  2.2026 -0.7229
  108OSM   H16T11045   2.412   1.206   5.234  2.6687  0.4574  0.2305
  108OSM   C17S11046   2.307   1.036   5.312  1.7262  0.1525  0.1316
  108OSM   H17S11047   2.214   1.096   5.317  0.5942 -1.4840 -0.5373
  108OSM   H17T11048   2.310   0.975   5.405  1.7258  0.0365  0.0559
  108OSM   C18S11049   2.292   0.936   5.194  0.1184 -1.1877 -0.2923
  108OSM   H18S11050   2.394   0.892   5.182  1.7525  2.2496 -0.1198
  108OSM   H18T11051   2.273   0.989   5.098 -3.0845  1.3288  1.5370
  108OSM   H18U11052   2.215   0.860   5.219  1.2402 -1.2951  3.5660
  108OSM    C1F11053   3.016   1.588   6.785 -0.0687 -0.4490 -0.1731
  108OSM     OF11054   3.101   1.509   6.822 -0.0615  0.0516  0.1284
  108OSM    C2F11055   3.039   1.715   6.710  0.1641 -0.0714 -0.4974
  108OSM    H2F11056   3.123   1.767   6.760  0.2918 -0.3847 -0.3883
  108OSM    H2G11057   2.950   1.783   6.713 -1.5233 -2.1823 -0.4974
  108OSM    C3F11058   3.081   1.683   6.570 -0.7596  0.2233  0.3709
  108OSM    H3F11059   3.186   1.646   6.574  0.5654  3.6559  0.3304
  108OSM    H3G11060   3.087   1.769   6.501  2.3551  2.2441  2.8506
  108OSM    C4F11061   2.994   1.589   6.493 -0.0240 -0.5471  0.0087
  108OSM    H4F11062   2.898   1.635   6.459  0.7276  0.5964 -0.6193
  108OSM    H4G11063   2.968   1.495   6.546 -2.2641  1.8731  3.6237
  108OSM    C5F11064   3.062   1.550   6.359 -0.6417  0.6622  0.7021
  108OSM    H5F11065   3.120   1.456   6.368 -0.1315  0.6960 -1.6776
  108OSM    H5G11066   3.133   1.632   6.334 -2.1902  1.8299 -0.0501
  108OSM    C6F11067   2.959   1.516   6.250 -0.4477  0.2901 -0.1765
  108OSM    H6F11068   2.921   1.610   6.204 -1.6850  1.5311  3.0645
  108OSM    H6G11069   2.876   1.460   6.297 -1.6168  0.7826 -1.6057
  108OSM    C7F11070   3.013   1.418   6.147 -0.0325 -0.1939 -0.2156
  108OSM    H7F11071   3.018   1.319   6.197  1.7741 -0.3575 -0.6459
  108OSM    H7G11072   3.117   1.449   6.123  0.0880  1.7895  2.3985
  108OSM    C8F11073   2.911   1.421   6.031 -0.1874 -0.4955 -0.4422
  108OSM    H8F11074   2.929   1.517   5.979  0.4447 -0.9802 -1.1324
  108OSM    H8G11075   2.811   1.398   6.075  0.6573 -1.8722  0.8454
  108OSM    C9F11076   2.933   1.304   5.935 -0.2595 -1.1540  0.1895
  108OSM    H9F11077   2.976   1.220   5.991  3.1040  0.5680  0.4798
  108OSM   C10F11078   2.917   1.303   5.800 -0.4465 -0.0062 -0.0800
  108OSM   H10F11079   2.936   1.211   5.742 -1.5410  0.1240 -0.6796
  108OSM   C11F11080   2.869   1.414   5.716 -0.3291 -0.1884  0.0227
  108OSM   H11F11081   2.804   1.489   5.767  0.4301 -0.2667  1.1394
  108OSM   H11G11082   2.796   1.359   5.652 -1.1802  2.5638 -1.5486
  108OSM   C12F11083   2.989   1.467   5.635 -0.3664  0.2053  0.0757
  108OSM   H12F11084   3.067   1.394   5.604  0.6157  1.0760  0.4073
  108OSM   H12G11085   3.052   1.537   5.694  1.0150 -1.5580  0.7980
  108OSM   C13F11086   2.932   1.540   5.505 -0.4945 -0.0724  0.2446
  108OSM   H13F11087   2.899   1.635   5.552  0.8187 -0.0803  1.2050
  108OSM   H13G11088   2.857   1.476   5.453  0.2476  0.2018 -1.2268
  108OSM   C14F11089   3.049   1.588   5.415 -0.1357 -0.0748  0.2148
  108OSM   H14F11090   3.066   1.536   5.318  1.1290  1.1700 -0.2635
  108OSM   H14G11091   3.139   1.556   5.472 -1.1842 -2.0622  0.8454
  108OSM   C15F11092   3.047   1.741   5.382  0.0216  0.1483  0.0261
  108OSM   H15F11093   3.144   1.783   5.348  1.2838 -1.8422  1.0147
  108OSM   H15G11094   3.025   1.793   5.478  0.3050 -0.0978  0.2263
  108OSM   C16F11095   2.943   1.766   5.270  0.0294 -0.1305 -0.5998
  108OSM   H16F11096   2.939   1.875   5.291  1.0903 -0.0310 -0.8705
  108OSM   H16G11097   2.845   1.732   5.309  0.2493  2.0284  2.1319
  108OSM   C17F11098   2.987   1.733   5.129  0.5715  0.1569 -0.1840
  108OSM   H17F11099   2.977   1.623   5.121 -1.0487  0.2350  0.3493
  108OSM   H17G11100   3.094   1.758   5.113  0.9453 -1.2843 -0.0339
  108OSM   C18F11101   2.899   1.806   5.023  0.1499  0.3142 -0.3812
  108OSM   H18F11102   2.791   1.798   5.049  0.3740 -2.2120  0.0451
  108OSM   H18G11103   2.886   1.738   4.937 -0.3364 -2.0490  1.4373
  108OSM   H18H11104   2.933   1.909   5.000  1.9764 -0.1613  0.0129
  109OSM      N11105   3.488   2.769   7.539  0.1940 -0.2814  0.0588
  109OSM    C1511106   3.390   2.823   7.639 -0.8365  1.1654 -0.1844
  109OSM   H15A11107   3.332   2.742   7.682  0.7102  0.5974  0.8992
  109OSM   H15B11108   3.326   2.900   7.598 -1.3768  1.2178  0.7238
  109OSM   H15C11109   3.447   2.868   7.719  2.2726 -0.1706 -1.4840
  109OSM    C1411110   3.586   2.693   7.602 -0.2886 -0.2625 -0.0748
  109OSM   H14A11111   3.552   2.610   7.663 -2.0487 -0.2679 -0.9961
  109OSM   H14B11112   3.657   2.753   7.657  1.8005 -1.8170 -0.9555
  109OSM   H14C11113   3.647   2.642   7.529 -1.2149  0.5331 -1.4533
  109OSM    C1311114   3.409   2.683   7.451 -0.2378  0.7057  0.1937
  109OSM   H13A11115   3.471   2.670   7.363  1.0994  0.7563  1.1027
  109OSM   H13B11116   3.320   2.741   7.432 -0.1122  0.7268 -0.3645
  109OSM   H13C11117   3.384   2.588   7.495 -0.7009 -0.0793 -1.6363
  109OSM    C1211118   3.543   2.887   7.482 -0.3349  0.0180  0.9387
  109OSM   H12A11119   3.466   2.959   7.458 -0.7549 -1.2227 -1.8593
  109OSM   H12B11120   3.595   2.855   7.393  0.5079  1.6129  0.8322
  109OSM    C1111121   3.646   2.970   7.559  0.9400 -0.1106  0.0277
  109OSM   H11A11122   3.611   2.995   7.661 -0.8011 -2.1473 -0.0081
  109OSM   H11B11123   3.651   3.071   7.512 -0.2261 -0.0071  0.1076
  109OSM      P11124   3.884   2.924   7.449  0.7264  0.1227 -0.1613
  109OSM    O1311125   3.982   3.027   7.482 -0.3047 -0.1570 -0.4371
  109OSM    O1411126   3.938   2.791   7.417  0.2693  0.3129 -0.2864
  109OSM    O1111127   3.807   2.975   7.328  0.5686 -0.1509 -0.2626
  109OSM    O1211128   3.774   2.911   7.569  0.0565  0.0940 -0.0208
  109OSM    C1S11129   3.841   2.952   7.187 -0.9856 -0.2042 -0.3596
  109OSM    H1S11130   3.841   2.843   7.163  1.6121 -0.1599 -0.8850
  109OSM    H1T11131   3.945   2.985   7.168 -0.0822 -1.6644  1.6662
  109OSM     NF11132   3.758   2.960   6.945 -0.0099 -0.0871 -0.4938
  109OSM    HNF11133   3.790   3.022   6.874  0.9455  0.2335  0.1953
  109OSM    C2S11134   3.735   3.006   7.086  0.5323  0.0162  0.5061
  109OSM    H2S11135   3.640   2.957   7.113  0.6814 -0.1686  0.7003
  109OSM    C3S11136   3.719   3.162   7.102  0.6026 -0.3886 -0.1027
  109OSM    H3S11137   3.813   3.209   7.067  1.0736 -2.5033 -1.9083
  109OSM     O311138   3.706   3.215   7.235 -0.0784 -0.3533 -0.2287
  109OSM    HO311139   3.738   3.134   7.277  0.7623 -0.3231 -0.7872
  109OSM    C4S11140   3.609   3.216   7.020  0.4601 -0.1562 -0.2985
  109OSM    H4S11141   3.515   3.163   7.039  0.4699 -0.3140 -0.6763
  109OSM    C5S11142   3.610   3.316   6.926 -0.6456 -0.0483  0.2196
  109OSM    H5S11143   3.708   3.336   6.879 -0.7274 -0.6673 -0.2233
  109OSM    C6S11144   3.488   3.361   6.852  0.1351  0.3364 -0.1371
  109OSM    H6S11145   3.479   3.472   6.849  0.0180  0.3102 -1.3468
  109OSM    H6T11146   3.398   3.335   6.912  0.8257 -0.0257  0.7715
  109OSM    C7S11147   3.478   3.304   6.706  0.8517  0.5025  0.1854
  109OSM    H7S11148   3.562   3.351   6.651  0.0623  0.3247 -1.2270
  109OSM    H7T11149   3.390   3.346   6.654  1.5488  0.8329 -0.7372
  109OSM    C8S11150   3.475   3.148   6.703  0.0854  0.6370 -0.2704
  109OSM    H8S11151   3.400   3.117   6.779  0.2815 -2.1646 -1.1084
  109OSM    H8T11152   3.571   3.109   6.740 -0.7232 -0.2020  0.9897
  109OSM    C9S11153   3.436   3.072   6.577  0.5432 -0.3214  0.1751
  109OSM    H9S11154   3.346   3.123   6.537  1.0473 -1.1161 -2.1152
  109OSM    H9T11155   3.406   2.969   6.605 -1.5007  0.6292  1.7868
  109OSM   C10S11156   3.551   3.077   6.473 -0.0108 -0.1134  0.1244
  109OSM   H10S11157   3.648   3.027   6.497 -0.5437 -1.6064 -0.6806
  109OSM   H10T11158   3.583   3.183   6.463 -0.8124  0.2296  1.0070
  109OSM   C11S11159   3.510   3.017   6.344  0.1175  0.5447  0.0836
  109OSM   H11S11160   3.414   3.066   6.315  0.2096 -0.6029 -2.4219
  109OSM   H11T11161   3.492   2.908   6.339 -2.1498  0.9091 -3.6039
  109OSM   C12S11162   3.607   3.042   6.227  0.0900  0.6108 -0.0416
  109OSM   H12S11163   3.707   3.005   6.256  0.3004  0.9186 -0.3694
  109OSM   H12T11164   3.601   3.151   6.206 -0.9690  0.3243 -1.4025
  109OSM   C13S11165   3.553   2.982   6.094 -0.9746 -0.3958  0.1810
  109OSM   H13S11166   3.457   3.037   6.079  0.1090  1.5201 -0.1178
  109OSM   H13T11167   3.532   2.874   6.103 -0.0141 -0.5573  0.5540
  109OSM   C14S11168   3.636   3.019   5.975 -0.4560  0.0621  0.0043
  109OSM   H14S11169   3.742   2.993   5.996  1.2663  4.2197 -2.3654
  109OSM   H14T11170   3.647   3.129   5.972 -1.5854  0.2726  1.8332
  109OSM   C15S11171   3.575   2.957   5.847  0.6063 -0.4550 -0.1053
  109OSM   H15S11172   3.480   3.015   5.835  0.1051 -1.1997  0.2344
  109OSM   H15T11173   3.538   2.854   5.865 -1.1226  0.2706  0.7237
  109OSM   C16S11174   3.681   2.960   5.740  0.0724 -0.1702 -0.3245
  109OSM   H16S11175   3.773   2.906   5.769  0.5174  0.8413  0.2139
  109OSM   H16T11176   3.706   3.069   5.739 -0.6189  0.0230 -2.4634
  109OSM   C17S11177   3.625   2.914   5.604  0.0691 -0.2675  0.5861
  109OSM   H17S11178   3.531   2.970   5.583  0.3174  0.8121  2.1559
  109OSM   H17T11179   3.594   2.809   5.623 -1.2116 -0.1457 -0.6287
  109OSM   C18S11180   3.718   2.934   5.484 -0.5504  0.4114 -0.1725
  109OSM   H18S11181   3.695   2.864   5.400  1.6216 -2.0983  1.1623
  109OSM   H18T11182   3.824   2.915   5.511 -0.0951 -1.2481 -2.8057
  109OSM   H18U11183   3.711   3.042   5.458 -2.7824  0.4462  0.3424
  109OSM    C1F11184   3.753   2.831   6.912  0.5871 -0.1914  0.0352
  109OSM     OF11185   3.700   2.747   6.987 -0.1347  0.2458 -0.3374
  109OSM    C2F11186   3.781   2.803   6.766  0.7296  0.1058  0.3073
  109OSM    H2F11187   3.884   2.835   6.736  1.0822 -2.4279 -1.4707
  109OSM    H2G11188   3.712   2.863   6.704  0.1394  0.8175  1.6100
  109OSM    C3F11189   3.763   2.651   6.737 -0.3901  0.1850 -0.4928
  109OSM    H3F11190   3.677   2.605   6.791 -1.7236  1.0652 -1.7786
  109OSM    H3G11191   3.853   2.602   6.780 -1.3162 -0.7912  0.4041
  109OSM    C4F11192   3.765   2.629   6.590  0.6136  0.5715  0.4617
  109OSM    H4F11193   3.676   2.659   6.531 -0.3820 -0.6790  1.2754
  109OSM    H4G11194   3.770   2.519   6.572  1.6503  0.9021 -1.5718
  109OSM    C5F11195   3.885   2.686   6.514 -0.0606 -0.4254  0.5332
  109OSM    H5F11196   3.976   2.669   6.576 -0.4447 -0.7205  1.0220
  109OSM    H5G11197   3.872   2.795   6.504 -1.4521 -0.6319 -0.1325
  109OSM    C6F11198   3.923   2.616   6.385  0.2589 -0.2433  0.2598
  109OSM    H6F11199   3.941   2.509   6.410  0.8493  0.5814  3.9717
  109OSM    H6G11200   4.012   2.666   6.342 -0.9982  1.9307  0.0712
  109OSM    C7F11201   3.810   2.635   6.276 -0.6341 -0.0841  0.1991
  109OSM    H7F11202   3.806   2.743   6.251  0.9135  0.4801  2.1007
  109OSM    H7G11203   3.716   2.580   6.297  0.4553 -2.0407  0.1990
  109OSM    C8F11204   3.848   2.552   6.141 -0.3610  0.0242  0.0715
  109OSM    H8F11205   3.758   2.556   6.077  0.5702 -1.7596 -1.4666
  109OSM    H8G11206   3.864   2.453   6.189 -0.4146  0.6317  1.4050
  109OSM    C9F11207   3.968   2.588   6.057  0.6287 -0.1703 -0.1965
  109OSM    H9F11208   4.014   2.682   6.093 -1.2153  0.4625  0.6310
  109OSM   C10F11209   3.998   2.524   5.945 -0.0393  0.6864 -0.3555
  109OSM   H10F11210   4.087   2.554   5.889  0.6534 -1.3009 -0.4134
  109OSM   C11F11211   3.934   2.406   5.889  0.9442  0.4032  0.3688
  109OSM   H11F11212   3.862   2.366   5.963 -1.3534 -2.4606 -3.0831
  109OSM   H11G11213   4.005   2.325   5.862 -0.5280 -1.5277  1.9899
  109OSM   C12F11214   3.855   2.455   5.763  0.3632 -0.6166  0.2594
  109OSM   H12F11215   3.913   2.523   5.697 -0.0532  0.8805  1.3876
  109OSM   H12G11216   3.779   2.530   5.792  0.2144 -1.0153  0.9246
  109OSM   C13F11217   3.793   2.345   5.686 -0.4305  0.1726  0.3988
  109OSM   H13F11218   3.737   2.285   5.761 -0.7902 -1.1902 -0.9091
  109OSM   H13G11219   3.867   2.276   5.641 -2.1314 -1.7207  0.3810
  109OSM   C14F11220   3.705   2.392   5.578 -0.8639  0.1101 -0.3454
  109OSM   H14F11221   3.763   2.437   5.495 -1.7320 -0.0309 -1.0460
  109OSM   H14G11222   3.631   2.465   5.617  1.3634  1.2170  2.0929
  109OSM   C15F11223   3.626   2.291   5.492  0.2268 -0.2016 -0.5351
  109OSM   H15F11224   3.556   2.347   5.426  0.8623  0.9831 -0.2336
  109OSM   H15G11225   3.568   2.245   5.575  1.3135  0.5310  0.6607
  109OSM   C16F11226   3.706   2.201   5.403  0.0927 -0.5909  0.3235
  109OSM   H16F11227   3.642   2.112   5.389 -1.1989  0.3831 -0.2475
  109OSM   H16G11228   3.792   2.159   5.460 -1.6804 -1.3078  2.6056
  109OSM   C17F11229   3.718   2.243   5.260  0.4210 -0.3070  0.1194
  109OSM   H17F11230   3.738   2.352   5.271 -1.1836 -0.0176  0.5271
  109OSM   H17G11231   3.621   2.237   5.207  0.7701  1.4487 -0.7903
  109OSM   C18F11232   3.816   2.171   5.167 -0.2759 -0.1376 -0.1766
  109OSM   H18F11233   3.808   2.061   5.170  0.5622 -0.1955  0.4851
  109OSM   H18G11234   3.915   2.189   5.217 -1.1551  2.1587  0.9209
  109OSM   H18H11235   3.813   2.189   5.058  1.9541 -0.6102 -0.3739
  110OSM      N11236   1.625   6.720   7.622  0.3298 -0.3868  0.3837
  110OSM    C1511237   1.728   6.753   7.729  0.5132  1.0288 -0.5306
  110OSM   H15A11238   1.818   6.783   7.677  0.5418  0.2081 -0.9806
  110OSM   H15B11239   1.741   6.663   7.787  0.2398  0.4382 -1.3682
  110OSM   H15C11240   1.692   6.829   7.797 -1.3167 -0.6550  0.4744
  110OSM    C1411241   1.508   6.655   7.685 -0.2065 -0.1895 -0.2303
  110OSM   H14A11242   1.452   6.611   7.604 -0.0245  1.8513 -1.5359
  110OSM   H14B11243   1.440   6.704   7.753 -2.1006 -3.3857  0.3993
  110OSM   H14C11244   1.548   6.570   7.738  1.3257  0.6548  0.0211
  110OSM    C1311245   1.592   6.850   7.553 -0.8234 -0.5161 -0.6460
  110OSM   H13A11246   1.531   6.832   7.466 -1.3963  0.7603 -0.5323
  110OSM   H13B11247   1.684   6.898   7.522 -1.0806  0.3825 -0.0554
  110OSM   H13C11248   1.533   6.904   7.625 -1.8418 -1.1617 -0.9747
  110OSM    C1211249   1.694   6.627   7.521  0.5370 -0.3114  0.1148
  110OSM   H12A11250   1.731   6.537   7.568 -0.8604 -0.5464  0.8241
  110OSM   H12B11251   1.784   6.676   7.486  0.4007  1.5192  2.1278
  110OSM    C1111252   1.600   6.593   7.399 -0.4333 -0.2870 -0.1510
  110OSM   H11A11253   1.661   6.556   7.313 -0.1522  0.3541 -0.2322
  110OSM   H11B11254   1.557   6.689   7.363 -1.1453 -0.2459  0.7793
  110OSM      P11255   1.536   6.344   7.440  0.6745  0.1173  0.0034
  110OSM    O1311256   1.664   6.322   7.514  0.1603  0.2606  0.5138
  110OSM    O1411257   1.415   6.277   7.492  0.4694  0.1326 -0.0591
  110OSM    O1111258   1.565   6.300   7.292 -0.1534  0.4653  0.1146
  110OSM    O1211259   1.501   6.501   7.435 -0.2773  0.0663 -0.1830
  110OSM    C1S11260   1.478   6.338   7.183  0.0370 -0.0644  0.1251
  110OSM    H1S11261   1.496   6.445   7.160 -1.8299  0.5867  1.4757
  110OSM    H1T11262   1.368   6.324   7.192  0.3034 -3.0021 -0.2815
  110OSM     NF11263   1.436   6.307   6.951  0.0193  0.1394 -0.5497
  110OSM    HNF11264   1.346   6.271   6.929 -0.2794  0.9376 -0.6640
  110OSM    C2S11265   1.512   6.245   7.063 -0.7641  0.4634 -0.2784
  110OSM    H2S11266   1.620   6.240   7.037 -0.3620  0.9430  1.1871
  110OSM    C3S11267   1.479   6.094   7.101 -0.4583 -0.1599 -0.3000
  110OSM    H3S11268   1.373   6.082   7.131  0.3017 -1.7580  1.9872
  110OSM     O311269   1.543   6.049   7.217  0.4249 -0.4260 -0.4892
  110OSM    HO311270   1.568   6.129   7.263 -0.9135 -0.1005 -0.2993
  110OSM    C4S11271   1.506   5.998   6.990 -0.3879  0.0996  0.1195
  110OSM    H4S11272   1.596   6.029   6.935  0.8674 -3.8286 -0.3138
  110OSM    C5S11273   1.441   5.888   6.953  0.1769 -0.3576  0.1028
  110OSM    H5S11274   1.373   5.838   7.024  1.3187 -1.5135  0.4354
  110OSM    C6S11275   1.486   5.803   6.830  0.4508 -0.2228  0.3929
  110OSM    H6S11276   1.516   5.698   6.851 -0.7249 -0.4627  0.9639
  110OSM    H6T11277   1.588   5.843   6.811 -0.6461  2.3584 -0.4975
  110OSM    C7S11278   1.394   5.836   6.716  0.1356 -0.0675  0.3161
  110OSM    H7S11279   1.349   5.938   6.713 -0.3874 -0.3085 -1.0398
  110OSM    H7T11280   1.309   5.765   6.724  0.1027 -0.4264 -2.3794
  110OSM    C8S11281   1.434   5.799   6.573  0.7223 -0.8610 -0.1554
  110OSM    H8S11282   1.457   5.694   6.546 -0.2652 -1.0310 -0.3759
  110OSM    H8T11283   1.522   5.859   6.540 -2.0249  2.7147 -1.6023
  110OSM    C9S11284   1.320   5.843   6.476 -0.5051  0.0338 -0.5649
  110OSM    H9S11285   1.307   5.953   6.479 -0.3493  0.0898 -1.4995
  110OSM    H9T11286   1.231   5.785   6.510  0.8112 -0.9928  1.3300
  110OSM   C10S11287   1.342   5.796   6.331  0.0656 -0.0277  0.6800
  110OSM   H10S11288   1.310   5.690   6.325  1.8226 -0.7432  2.4897
  110OSM   H10T11289   1.452   5.808   6.315  0.4870 -0.8456  2.6649
  110OSM   C11S11290   1.273   5.889   6.226  0.3654  0.5245  0.2812
  110OSM   H11S11291   1.302   5.996   6.222  0.5952  0.4589  0.1847
  110OSM   H11T11292   1.167   5.879   6.257  1.5541 -3.5956  3.9601
  110OSM   C12S11293   1.276   5.838   6.082  0.4051 -0.2120 -0.6138
  110OSM   H12S11294   1.194   5.880   6.019 -0.1084  1.3212  0.9949
  110OSM   H12T11295   1.246   5.731   6.083  1.2299 -0.4698 -1.4297
  110OSM   C13S11296   1.399   5.845   5.996 -0.3171 -0.3632  0.0294
  110OSM   H13S11297   1.477   5.773   6.032  2.2953  0.5779 -3.2219
  110OSM   H13T11298   1.449   5.942   6.015 -0.8730 -0.0270 -0.2180
  110OSM   C14S11299   1.384   5.830   5.847 -0.2610  0.2614 -0.0604
  110OSM   H14S11300   1.484   5.813   5.802  0.1908  1.7870  0.3233
  110OSM   H14T11301   1.341   5.922   5.803 -0.4960  0.1521 -0.0607
  110OSM   C15S11302   1.306   5.704   5.798 -1.0618 -0.1249 -0.1656
  110OSM   H15S11303   1.197   5.706   5.814 -0.9716  0.2690  0.4155
  110OSM   H15T11304   1.335   5.621   5.867 -0.1036  0.6947  0.4494
  110OSM   C16S11305   1.341   5.657   5.658  0.2565  0.0264  0.6331
  110OSM   H16S11306   1.448   5.656   5.630  0.5518  0.9874  1.6881
  110OSM   H16T11307   1.291   5.709   5.573 -1.6585 -1.2723  0.8962
  110OSM   C17S11308   1.299   5.508   5.648 -0.1964 -0.6051  0.2149
  110OSM   H17S11309   1.192   5.515   5.677  0.3315 -0.6257  2.2800
  110OSM   H17T11310   1.352   5.456   5.730  1.5041  0.4434 -0.1695
  110OSM   C18S11311   1.332   5.448   5.516  0.4018  0.2131  0.5615
  110OSM   H18S11312   1.262   5.486   5.439  1.5023  0.3295 -0.4196
  110OSM   H18T11313   1.327   5.338   5.508  1.3312  0.2104 -0.2769
  110OSM   H18U11314   1.438   5.473   5.490  0.4769  1.5915  1.9966
  110OSM    C1F11315   1.466   6.420   6.886  0.2618 -0.1000  0.0992
  110OSM     OF11316   1.575   6.471   6.897  0.4861 -0.1166  0.7423
  110OSM    C2F11317   1.362   6.472   6.796 -0.2653  0.4229  0.3512
  110OSM    H2F11318   1.256   6.446   6.818  0.3202 -1.0333  1.5845
  110OSM    H2G11319   1.387   6.433   6.695  0.1200  1.0508  0.2014
  110OSM    C3F11320   1.374   6.622   6.789  0.5462  0.0330 -0.0060
  110OSM    H3F11321   1.477   6.660   6.805  1.1828 -1.8985  0.7903
  110OSM    H3G11322   1.304   6.650   6.871 -0.9583  0.5980 -1.4089
  110OSM    C4F11323   1.329   6.687   6.657  0.0160  0.3392  0.1436
  110OSM    H4F11324   1.218   6.683   6.656 -0.1332  2.7414  0.1400
  110OSM    H4G11325   1.355   6.622   6.571  0.3945 -0.6680  1.0000
  110OSM    C5F11326   1.389   6.830   6.635  0.3045  0.2736 -0.0633
  110OSM    H5F11327   1.490   6.835   6.680  0.7862  1.3186 -1.1834
  110OSM    H5G11328   1.328   6.912   6.680  0.0210  0.0219  0.0096
  110OSM    C6F11329   1.402   6.860   6.484 -0.3039 -0.1016  0.5105
  110OSM    H6F11330   1.481   6.799   6.436  1.1261  1.4858  0.7215
  110OSM    H6G11331   1.435   6.966   6.496  1.6997 -0.5331 -0.6840
  110OSM    C7F11332   1.271   6.864   6.393 -0.1027  0.1884  0.1903
  110OSM    H7F11333   1.190   6.917   6.448 -0.0558  0.6615 -0.1829
  110OSM    H7G11334   1.228   6.763   6.383  0.4637  0.0421 -0.9015
  110OSM    C8F11335   1.304   6.937   6.263  0.2003 -0.3518  0.1523
  110OSM    H8F11336   1.361   6.877   6.189  1.5911 -0.5757  1.3664
  110OSM    H8G11337   1.376   7.016   6.291  0.3603 -0.4630  0.0516
  110OSM    C9F11338   1.177   6.994   6.209  0.3547  1.1313 -0.8352
  110OSM    H9F11339   1.138   7.078   6.269  1.4649  0.5650  0.7679
  110OSM   C10F11340   1.111   6.928   6.108  0.2213 -1.0118  0.0396
  110OSM   H10F11341   1.008   6.953   6.078 -0.4006 -2.2080  1.0444
  110OSM   C11F11342   1.159   6.806   6.032  0.2421 -0.0464  0.1590
  110OSM   H11F11343   1.092   6.722   6.061  0.3829 -0.0729  0.4216
  110OSM   H11G11344   1.258   6.763   6.058  0.0077 -0.8634 -0.2531
  110OSM   C12F11345   1.168   6.821   5.879  0.0219  1.3097  0.0014
  110OSM   H12F11346   1.243   6.897   5.846 -1.2040  2.2117 -0.7719
  110OSM   H12G11347   1.069   6.850   5.839  0.3522  0.6999 -1.3324
  110OSM   C13F11348   1.217   6.689   5.820  0.6215  0.5517  0.5282
  110OSM   H13F11349   1.201   6.609   5.895 -0.8910  0.6954  0.3977
  110OSM   H13G11350   1.325   6.699   5.796  0.2873  1.0472 -0.8752
  110OSM   C14F11351   1.134   6.643   5.699 -0.7010 -0.4017  0.5940
  110OSM   H14F11352   1.031   6.628   5.737 -0.0923 -3.7712  1.2324
  110OSM   H14G11353   1.178   6.546   5.667  1.0604  1.0640 -1.7849
  110OSM   C15F11354   1.161   6.729   5.578  0.2980 -0.2704  0.7165
  110OSM   H15F11355   1.267   6.720   5.548  0.4008 -1.3544  1.3533
  110OSM   H15G11356   1.157   6.835   5.612 -0.1801 -1.2068  3.9676
  110OSM   C16F11357   1.070   6.720   5.455  0.1971 -0.3994 -0.1265
  110OSM   H16F11358   1.085   6.625   5.399 -2.7760 -1.6798  1.0049
  110OSM   H16G11359   1.093   6.804   5.387 -2.7030  0.0945 -0.6344
  110OSM   C17F11360   0.920   6.743   5.490  0.0843 -0.2010 -0.6239
  110OSM   H17F11361   0.907   6.837   5.548 -2.4532 -0.8823  0.0395
  110OSM   H17G11362   0.887   6.657   5.551 -1.0580 -0.5167 -1.6397
  110OSM   C18F11363   0.830   6.768   5.365 -0.6346 -0.0179  0.1318
  110OSM   H18F11364   0.730   6.804   5.398 -0.8019 -1.6306  1.5485
  110OSM   H18G11365   0.808   6.668   5.321 -0.4410  0.2190 -0.4995
  110OSM   H18H11366   0.867   6.842   5.291 -2.7757 -0.4666 -1.5149
  111OSM      N11367   4.349   5.598   7.548  0.7504 -0.6473 -0.4057
  111OSM    C1511368   4.238   5.703   7.536  0.2687  0.2228  0.8020
  111OSM   H15A11369   4.267   5.785   7.472 -0.5987 -0.9389 -1.1480
  111OSM   H15B11370   4.216   5.741   7.635 -0.6271 -0.3502  0.8285
  111OSM   H15C11371   4.151   5.662   7.487  0.3883  1.4408 -0.4766
  111OSM    C1411372   4.473   5.673   7.580  0.5760 -0.1899 -0.1527
  111OSM   H14A11373   4.487   5.710   7.681  2.7465 -0.4074 -0.3144
  111OSM   H14B11374   4.487   5.760   7.516  1.0557 -0.2813 -0.1812
  111OSM   H14C11375   4.554   5.603   7.564 -0.0787 -1.8690  3.0444
  111OSM    C1311376   4.310   5.503   7.658  0.2720 -0.7172 -0.6450
  111OSM   H13A11377   4.258   5.549   7.740 -0.3687 -1.4434 -0.6366
  111OSM   H13B11378   4.400   5.454   7.693 -0.3247 -0.2679  1.6765
  111OSM   H13C11379   4.239   5.432   7.620  1.4348 -1.7637 -0.9284
  111OSM    C1211380   4.362   5.525   7.413  0.3802 -0.8275 -0.1319
  111OSM   H12A11381   4.372   5.597   7.333  1.0688  1.9954  2.3052
  111OSM   H12B11382   4.272   5.469   7.394  0.1009 -0.0929 -1.0327
  111OSM    C1111383   4.481   5.425   7.407 -0.6000  0.2882  0.7144
  111OSM   H11A11384   4.480   5.353   7.323  1.7882 -1.1027  1.7631
  111OSM   H11B11385   4.475   5.359   7.496  1.1643 -0.1016  0.5965
  111OSM      P11386   4.660   5.576   7.296 -0.3807  0.1637 -0.2565
  111OSM    O1311387   4.579   5.701   7.291 -0.9583 -0.0804  0.2917
  111OSM    O1411388   4.808   5.589   7.306  0.1857 -0.4855 -0.5787
  111OSM    O1111389   4.631   5.482   7.169 -0.5437 -0.3734 -0.2910
  111OSM    O1211390   4.607   5.486   7.422 -0.1055  0.0697 -0.4609
  111OSM    C1S11391   4.528   5.520   7.082 -0.2466  0.0155  0.5116
  111OSM    H1S11392   4.530   5.628   7.057 -0.4046 -0.4345 -1.5685
  111OSM    H1T11393   4.425   5.499   7.118 -1.0318 -0.1048 -1.6803
  111OSM     NF11394   4.449   5.477   6.842  0.1188 -0.3526  0.2196
  111OSM    HNF11395   4.392   5.406   6.802 -1.2829  0.9429 -0.1849
  111OSM    C2S11396   4.547   5.441   6.948 -0.0844 -0.7313 -0.1031
  111OSM    H2S11397   4.647   5.459   6.904 -1.0337  1.2090 -1.6334
  111OSM    C3S11398   4.543   5.291   6.988 -0.2979  0.4964  0.7170
  111OSM    H3S11399   4.440   5.271   7.025 -0.2841  0.8403  0.9405
  111OSM     O311400   4.638   5.252   7.086  0.6024  0.4134 -0.5032
  111OSM    HO311401   4.653   5.337   7.127  1.0297 -0.7588  1.9804
  111OSM    C4S11402   4.564   5.211   6.862  0.5856  0.1149 -0.7168
  111OSM    H4S11403   4.468   5.177   6.822  0.8506 -0.5302 -0.8160
  111OSM    C5S11404   4.676   5.170   6.806  0.0998 -0.3321  0.2250
  111OSM    H5S11405   4.769   5.209   6.850 -0.0626  0.8517 -0.4218
  111OSM    C6S11406   4.705   5.097   6.681  0.2164 -0.9041 -0.1958
  111OSM    H6S11407   4.634   5.012   6.671  0.2524 -1.1395  1.3429
  111OSM    H6T11408   4.804   5.048   6.696 -0.1873 -1.7120 -0.1264
  111OSM    C7S11409   4.706   5.171   6.547 -0.0934  0.0465  0.3638
  111OSM    H7S11410   4.764   5.266   6.557  0.0869 -0.2060  1.8406
  111OSM    H7T11411   4.605   5.202   6.513  0.0413 -0.4536 -0.5123
  111OSM    C8S11412   4.782   5.091   6.438  0.4581 -0.6510 -0.3431
  111OSM    H8S11413   4.747   4.988   6.417  3.5024 -2.0497  0.8694
  111OSM    H8T11414   4.882   5.074   6.482  0.2008 -1.6441 -0.1191
  111OSM    C9S11415   4.777   5.166   6.300 -0.3018  0.0360  0.4556
  111OSM    H9S11416   4.812   5.270   6.313  1.5757 -0.7716  2.4483
  111OSM    H9T11417   4.672   5.166   6.264  0.0889  2.3175 -0.8459
  111OSM   C10S11418   4.869   5.092   6.198  0.2392 -1.9516  0.3258
  111OSM   H10S11419   4.857   4.982   6.206  1.8160 -2.0807  1.4219
  111OSM   H10T11420   4.973   5.117   6.227  0.4973  1.7360 -2.9316
  111OSM   C11S11421   4.855   5.151   6.055  0.2094 -0.3012 -0.4415
  111OSM   H11S11422   4.860   5.261   6.066  0.0579 -0.2671 -0.7055
  111OSM   H11T11423   4.749   5.133   6.026 -0.8310  1.6689  1.7865
  111OSM   C12S11424   4.957   5.090   5.966 -0.2939  1.1532  0.4041
  111OSM   H12S11425   4.947   5.127   5.861  2.7564  0.1882 -0.3352
  111OSM   H12T11426   4.925   4.984   5.961  1.8217  0.5212 -2.6051
  111OSM   C13S11427   5.100   5.094   6.005 -0.3693 -0.0973  0.3251
  111OSM   H13S11428   5.127   5.035   6.094  1.2610 -1.9139 -1.2827
  111OSM   H13T11429   5.129   5.199   6.028 -1.0899  0.1636  0.0772
  111OSM   C14S11430   5.202   5.052   5.898  0.3027 -0.5650 -0.6218
  111OSM   H14S11431   5.220   5.128   5.819 -0.9266 -0.1567 -0.5284
  111OSM   H14T11432   5.183   4.950   5.859 -0.1533 -1.5318  1.9003
  111OSM   C15S11433   5.349   5.047   5.964  0.0216 -0.4543 -0.7761
  111OSM   H15S11434   5.338   4.970   6.043 -2.6767 -0.2715 -0.9064
  111OSM   H15T11435   5.375   5.142   6.015  0.3671 -0.7378 -0.4165
  111OSM   C16S11436   5.458   5.018   5.857  0.2139  0.8247  0.0887
  111OSM   H16S11437   5.444   5.106   5.791 -2.2449 -1.0296 -2.1151
  111OSM   H16T11438   5.417   4.928   5.806  0.6841  1.1674 -0.9321
  111OSM   C17S11439   5.600   4.995   5.902  0.4422  0.2095  0.4217
  111OSM   H17S11440   5.621   5.068   5.983 -1.5906 -0.3577  1.5310
  111OSM   H17T11441   5.673   5.021   5.823 -1.8280  2.2022 -1.1632
  111OSM   C18S11442   5.634   4.858   5.953 -0.5115 -0.6977 -0.3262
  111OSM   H18S11443   5.741   4.848   5.981 -0.0562 -3.0161 -2.5257
  111OSM   H18T11444   5.626   4.770   5.885 -0.8986 -0.6084 -0.4004
  111OSM   H18U11445   5.570   4.839   6.042  1.7918 -0.9413  1.3746
  111OSM    C1F11446   4.451   5.595   6.777 -0.1436  0.5622 -0.4519
  111OSM     OF11447   4.505   5.696   6.814  0.1038 -0.1414  0.2962
  111OSM    C2F11448   4.378   5.602   6.644 -0.3477 -0.1506  0.9397
  111OSM    H2F11449   4.380   5.706   6.605 -0.7192 -1.6345 -3.5270
  111OSM    H2G11450   4.273   5.569   6.663  0.1830 -0.9350  2.7972
  111OSM    C3F11451   4.448   5.511   6.545 -0.1543  0.3750 -0.2128
  111OSM    H3F11452   4.405   5.411   6.563 -0.9460  0.7430  0.0007
  111OSM    H3G11453   4.558   5.507   6.564 -0.3377  0.6461  0.9827
  111OSM    C4F11454   4.423   5.562   6.398 -0.6876  0.3437 -0.2059
  111OSM    H4F11455   4.452   5.669   6.396 -0.8149  0.4608  1.8025
  111OSM    H4G11456   4.317   5.542   6.369 -0.6251  0.0873 -0.2662
  111OSM    C5F11457   4.520   5.491   6.300 -0.3649  0.3774  0.3112
  111OSM    H5F11458   4.522   5.382   6.318 -0.0451  0.3150 -0.0771
  111OSM    H5G11459   4.621   5.525   6.332  0.0953  0.2252 -0.9162
  111OSM    C6F11460   4.502   5.531   6.152 -0.7000 -0.2885  0.2178
  111OSM    H6F11461   4.585   5.497   6.087 -0.6235  0.2559  0.0231
  111OSM    H6G11462   4.514   5.642   6.152  2.2235 -0.4964  1.6279
  111OSM    C7F11463   4.367   5.494   6.088 -0.1342  0.0733  0.1664
  111OSM    H7F11464   4.289   5.534   6.157 -1.3646  0.0521 -1.1673
  111OSM    H7G11465   4.349   5.385   6.096  0.7625  0.0436  2.3460
  111OSM    C8F11466   4.362   5.543   5.941  0.0361 -0.0657  0.1517
  111OSM    H8F11467   4.428   5.468   5.893 -0.3163 -0.0964 -0.3003
  111OSM    H8G11468   4.408   5.642   5.920  1.5988 -0.8493 -0.2680
  111OSM    C9F11469   4.216   5.539   5.888  0.4157  0.7516  0.8359
  111OSM    H9F11470   4.163   5.443   5.887  2.0662 -0.1955  0.6916
  111OSM   C10F11471   4.152   5.644   5.833  0.5919  0.1149  0.4702
  111OSM   H10F11472   4.052   5.633   5.788  1.3436 -2.2478 -0.7825
  111OSM   C11F11473   4.184   5.791   5.827 -0.8959 -1.1216  0.8512
  111OSM   H11F11474   4.285   5.812   5.869 -0.1210 -0.0154 -1.4045
  111OSM   H11G11475   4.111   5.861   5.873  1.8463  1.5807  1.3896
  111OSM   C12F11476   4.172   5.828   5.680  0.2275 -0.3606  0.2084
  111OSM   H12F11477   4.168   5.938   5.667  0.1311 -0.4443 -0.5279
  111OSM   H12G11478   4.072   5.797   5.644  0.4642  0.1410 -0.9094
  111OSM   C13F11479   4.280   5.767   5.590  0.1692 -0.1007  0.1572
  111OSM   H13F11480   4.258   5.816   5.493  0.1683 -1.4285 -0.5327
  111OSM   H13G11481   4.285   5.657   5.574  0.9917  0.0720 -0.9061
  111OSM   C14F11482   4.420   5.827   5.624  0.3368  0.0880  0.2465
  111OSM   H14F11483   4.457   5.787   5.722  0.8069  0.4392  0.2193
  111OSM   H14G11484   4.387   5.930   5.648 -0.1207 -0.1393  0.6006
  111OSM   C15F11485   4.525   5.813   5.509 -0.2371  0.7223 -0.3609
  111OSM   H15F11486   4.529   5.710   5.469 -0.5455  0.5318  0.0896
  111OSM   H15G11487   4.613   5.818   5.575  0.8433 -2.8164 -1.3014
  111OSM   C16F11488   4.520   5.920   5.404  0.0254 -0.4858 -0.5658
  111OSM   H16F11489   4.473   6.014   5.441  2.0850  0.0028  0.9387
  111OSM   H16G11490   4.463   5.881   5.316 -0.3094 -0.2226 -0.4665
  111OSM   C17F11491   4.659   5.970   5.347  0.5870  0.3131  0.2994
  111OSM   H17F11492   4.730   6.010   5.424  1.6970 -2.0167  0.5957
  111OSM   H17G11493   4.634   6.048   5.273  0.9914 -1.7122 -2.0943
  111OSM   C18F11494   4.739   5.862   5.267  0.5402 -0.0798  0.3395
  111OSM   H18F11495   4.826   5.915   5.220 -0.4094  1.6322  0.4284
  111OSM   H18G11496   4.673   5.836   5.182  2.3573  1.5043 -1.6892
  111OSM   H18H11497   4.748   5.775   5.335 -3.1573 -1.4428 -0.6743
  112OSM      N11498   1.096   4.178   7.873  0.6793 -0.2762 -0.0392
  112OSM    C1511499   1.018   4.236   7.763 -1.1641 -0.2120 -0.1859
  112OSM   H15A11500   0.921   4.260   7.805 -1.0150 -1.0129  0.6678
  112OSM   H15B11501   1.019   4.162   7.684 -2.6108 -0.5241  0.0530
  112OSM   H15C11502   1.065   4.328   7.735  0.2291 -0.0816  2.3188
  112OSM    C1411503   1.234   4.238   7.865  0.6599  0.4501  0.2662
  112OSM   H14A11504   1.237   4.341   7.899  2.5364  0.0080  1.5853
  112OSM   H14B11505   1.273   4.224   7.765  0.8872  2.4305  0.0291
  112OSM   H14C11506   1.294   4.176   7.930  0.0818 -1.2575 -0.7718
  112OSM    C1311507   1.015   4.211   8.000 -0.6799  0.0763 -0.0042
  112OSM   H13A11508   0.923   4.155   8.005 -0.0010 -0.9102  2.5958
  112OSM   H13B11509   1.004   4.318   8.011  0.0406 -0.1101  3.5706
  112OSM   H13C11510   1.075   4.174   8.081 -0.7660 -1.2201 -0.5068
  112OSM    C1211511   1.109   4.028   7.870 -0.0288  0.2840 -0.3181
  112OSM   H12A11512   1.010   3.986   7.883 -0.1887  0.3594 -1.2428
  112OSM   H12B11513   1.181   3.993   7.943 -0.9919 -0.6214  0.2378
  112OSM    C1111514   1.161   3.951   7.741 -0.4657  0.0510 -0.5656
  112OSM   H11A11515   1.178   3.846   7.773  1.3154  0.5431  0.2202
  112OSM   H11B11516   1.260   3.992   7.712  0.1500  0.2006  1.5578
  112OSM      P11517   0.932   3.899   7.628 -0.8584  0.0585 -0.0073
  112OSM    O1311518   0.936   3.776   7.711  0.3559  0.9566 -0.7500
  112OSM    O1411519   0.825   3.996   7.655  0.2332  0.2613 -0.9742
  112OSM    O1111520   0.916   3.847   7.484 -0.2048 -0.2484 -0.1306
  112OSM    O1211521   1.068   3.977   7.638 -0.0572 -0.3437  0.4815
  112OSM    C1S11522   0.903   3.933   7.366 -0.5469  0.4960  0.4127
  112OSM    H1S11523   0.992   3.998   7.349 -0.9035  1.5885  2.4658
  112OSM    H1T11524   0.814   3.998   7.380 -1.0361 -0.0751 -0.0101
  112OSM     NF11525   0.859   3.955   7.128  0.4378  0.0383 -0.7646
  112OSM    HNF11526   0.766   3.970   7.095  1.1521  2.5419 -1.8452
  112OSM    C2S11527   0.887   3.856   7.227 -0.0142 -0.4847  0.3665
  112OSM    H2S11528   0.992   3.821   7.213  1.1923  3.0264 -0.5704
  112OSM    C3S11529   0.800   3.725   7.247  0.6604 -0.4463  0.0586
  112OSM    H3S11530   0.698   3.766   7.265  1.7017  2.5617 -0.3237
  112OSM     O311531   0.839   3.641   7.359  0.4781 -0.2001  0.0556
  112OSM    HO311532   0.896   3.707   7.401  2.4234 -0.0372 -2.6095
  112OSM    C4S11533   0.798   3.659   7.112  0.1533  0.0401  0.1389
  112OSM    H4S11534   0.745   3.720   7.037  3.1333 -0.4551 -2.5856
  112OSM    C5S11535   0.849   3.536   7.083  0.3026 -0.4307 -0.4681
  112OSM    H5S11536   0.891   3.471   7.161 -0.2672 -1.5633 -1.0824
  112OSM    C6S11537   0.842   3.464   6.951  0.0694 -0.3422  0.5786
  112OSM    H6S11538   0.758   3.392   6.938 -2.4029  2.7828 -2.8010
  112OSM    H6T11539   0.939   3.413   6.934  0.5753  0.9330 -0.5512
  112OSM    C7S11540   0.820   3.564   6.827  0.4875 -0.3759 -0.1608
  112OSM    H7S11541   0.730   3.628   6.845  0.2164 -0.6621 -0.4859
  112OSM    H7T11542   0.801   3.505   6.734 -0.1488 -1.1878  0.4695
  112OSM    C8S11543   0.931   3.661   6.801  0.0862 -0.2002 -0.2307
  112OSM    H8S11544   1.017   3.598   6.771  0.9761  0.6542  0.4778
  112OSM    H8T11545   0.978   3.724   6.880 -0.3391  2.4090 -1.9068
  112OSM    C9S11546   0.906   3.773   6.692  1.2985 -0.5120 -0.3628
  112OSM    H9S11547   0.830   3.847   6.725  1.6466  0.1665 -1.0446
  112OSM    H9T11548   0.856   3.723   6.607  0.0234  0.4588 -0.2242
  112OSM   C10S11549   1.034   3.843   6.637  0.3222 -0.1424 -0.1999
  112OSM   H10S11550   1.095   3.767   6.585 -0.6498 -0.0264 -1.5863
  112OSM   H10T11551   1.091   3.894   6.718 -0.5590  1.6397 -0.6284
  112OSM   C11S11552   1.002   3.960   6.536 -0.3542 -0.3192 -0.0357
  112OSM   H11S11553   0.968   4.047   6.596 -0.0780 -1.3897  1.7433
  112OSM   H11T11554   0.918   3.937   6.468 -0.0849  0.4908 -0.6566
  112OSM   C12S11555   1.121   3.999   6.439  0.7505  0.3253 -0.2456
  112OSM   H12S11556   1.155   3.911   6.381 -1.9934 -0.2106 -1.1865
  112OSM   H12T11557   1.202   4.043   6.501  0.5362  0.2573  0.0872
  112OSM   C13S11558   1.072   4.105   6.342  0.0605  0.0589  0.7191
  112OSM   H13S11559   1.158   4.161   6.298 -0.1097  0.0904  0.4263
  112OSM   H13T11560   1.013   4.182   6.396 -0.3866  0.4590 -0.3029
  112OSM   C14S11561   0.988   4.068   6.221  0.0681 -0.8694  0.2095
  112OSM   H14S11562   0.893   4.023   6.257  0.6261 -1.6425  0.7388
  112OSM   H14T11563   1.053   3.995   6.167  1.5249  0.7127 -0.2491
  112OSM   C15S11564   0.973   4.194   6.125  0.3862 -0.5718  0.1090
  112OSM   H15S11565   1.070   4.243   6.102  0.1368  1.9538  3.6426
  112OSM   H15T11566   0.900   4.263   6.173 -2.0074 -1.0760 -2.5276
  112OSM   C16S11567   0.900   4.150   5.997 -0.2982 -0.4596 -0.6747
  112OSM   H16S11568   0.808   4.094   6.025 -1.4882  0.6429 -2.1777
  112OSM   H16T11569   0.981   4.086   5.957 -0.1793 -0.9800  0.3755
  112OSM   C17S11570   0.858   4.270   5.913 -0.8071 -0.1397 -0.2020
  112OSM   H17S11571   0.948   4.335   5.904  0.1091 -1.1969  0.9707
  112OSM   H17T11572   0.793   4.345   5.963  1.5202  2.0006 -0.2079
  112OSM   C18S11573   0.796   4.232   5.784 -0.6755 -0.1018  0.1456
  112OSM   H18S11574   0.718   4.153   5.780 -0.8921  0.1618 -2.4345
  112OSM   H18T11575   0.888   4.199   5.732  1.2256  2.6969  1.4547
  112OSM   H18U11576   0.767   4.314   5.714 -0.7279  0.2086  0.5235
  112OSM    C1F11577   0.951   4.033   7.075  0.1923 -0.2039 -0.2876
  112OSM     OF11578   1.067   4.022   7.110 -0.0961 -0.0865  0.6125
  112OSM    C2F11579   0.911   4.134   6.974  0.2886 -0.1894 -0.2323
  112OSM    H2F11580   0.860   4.221   7.020 -0.3074 -0.5122 -0.2694
  112OSM    H2G11581   0.836   4.081   6.911  1.2257 -2.4423  0.4380
  112OSM    C3F11582   1.025   4.194   6.891 -0.8533  0.6497 -0.0237
  112OSM    H3F11583   1.079   4.110   6.842  2.9664  2.8085  0.0884
  112OSM    H3G11584   1.087   4.238   6.971 -2.1962 -0.2580  1.5797
  112OSM    C4F11585   0.983   4.312   6.793 -0.7631  0.4286 -0.1000
  112OSM    H4F11586   0.936   4.400   6.841  0.0742  0.4079  0.7986
  112OSM    H4G11587   0.911   4.267   6.722 -2.9674  1.1680  1.5817
  112OSM    C5F11588   1.102   4.367   6.717 -0.0480  0.1208  0.1664
  112OSM    H5F11589   1.170   4.283   6.688  0.7138  0.2935  1.3697
  112OSM    H5G11590   1.152   4.427   6.795 -1.5355 -2.2799  3.1607
  112OSM    C6F11591   1.061   4.442   6.586  0.1672 -0.2902 -0.2138
  112OSM    H6F11592   1.023   4.543   6.614  0.9339  0.3648 -1.4502
  112OSM    H6G11593   0.984   4.380   6.535  1.1912 -0.6154 -1.4099
  112OSM    C7F11594   1.178   4.444   6.484  0.0902  0.1185  0.1416
  112OSM    H7F11595   1.212   4.339   6.469  0.4912  0.1085  1.0679
  112OSM    H7G11596   1.262   4.508   6.515  1.2798 -1.7786  1.0307
  112OSM    C8F11597   1.132   4.488   6.340  0.2410  0.0908 -0.0572
  112OSM    H8F11598   1.049   4.423   6.306 -0.7953  1.4937 -0.3015
  112OSM    H8G11599   1.222   4.470   6.277  2.1873  2.1234  1.9173
  112OSM    C9F11600   1.100   4.632   6.342 -0.5750 -0.5909  0.1699
  112OSM    H9F11601   0.994   4.648   6.367 -0.4144 -0.5418  0.8356
  112OSM   C10F11602   1.181   4.746   6.322  0.2014  1.3865 -0.5283
  112OSM   H10F11603   1.130   4.837   6.289 -1.2589  0.4391 -0.9958
  112OSM   C11F11604   1.332   4.754   6.312  0.2401 -0.0217  0.0653
  112OSM   H11F11605   1.377   4.653   6.304  0.7060 -0.0700  2.6119
  112OSM   H11G11606   1.368   4.804   6.405  0.3761 -0.6172  0.3343
  112OSM   C12F11607   1.367   4.848   6.186 -0.5071 -0.5744  0.5502
  112OSM   H12F11608   1.437   4.926   6.221 -1.1203 -0.2903  1.1489
  112OSM   H12G11609   1.283   4.908   6.146  0.9786 -1.0650 -4.0204
  112OSM   C13F11610   1.394   4.772   6.056  0.1899 -0.4685  0.6635
  112OSM   H13F11611   1.479   4.705   6.081  0.4764  0.7333  3.3035
  112OSM   H13G11612   1.435   4.847   5.985  2.7953 -0.8626  1.6337
  112OSM   C14F11613   1.270   4.697   6.010 -0.8311 -0.1076 -0.4536
  112OSM   H14F11614   1.182   4.762   6.029 -0.4810  0.2075  0.1148
  112OSM   H14G11615   1.260   4.608   6.075  1.1567 -0.4063 -0.4834
  112OSM   C15F11616   1.277   4.639   5.869 -0.1911 -0.5602 -0.1581
  112OSM   H15F11617   1.360   4.566   5.878 -2.5602 -3.6867 -1.6783
  112OSM   H15G11618   1.303   4.712   5.790 -0.1735 -0.4424 -0.0445
  112OSM   C16F11619   1.151   4.561   5.838  0.4144 -0.2825 -0.2937
  112OSM   H16F11620   1.059   4.622   5.822  0.2916 -0.3575  0.1243
  112OSM   H16G11621   1.125   4.496   5.924 -1.3472  1.7117  0.8126
  112OSM   C17F11622   1.167   4.475   5.717  0.4018  0.2789  0.4532
  112OSM   H17F11623   1.085   4.404   5.692  1.9347 -0.5558 -2.6743
  112OSM   H17G11624   1.255   4.408   5.722  0.3146  0.2411  3.7104
  112OSM   C18F11625   1.179   4.559   5.588  0.2832  0.4673  0.3786
  112OSM   H18F11626   1.160   4.505   5.493  0.5105  0.7952  0.1434
  112OSM   H18G11627   1.274   4.615   5.580 -1.5158  3.5731 -1.0810
  112OSM   H18H11628   1.101   4.639   5.589 -0.6117 -0.3906  0.8924
  113OSM      N11629   2.223   2.482   7.728  0.2769  0.0446 -0.1905
  113OSM    C1511630   2.280   2.606   7.790  0.8800 -0.3211 -0.1429
  113OSM   H15A11631   2.349   2.657   7.724  1.1764  0.4958  0.7749
  113OSM   H15B11632   2.318   2.578   7.888  0.3902 -3.1751 -0.6714
  113OSM   H15C11633   2.197   2.666   7.824 -0.7742 -1.5171 -1.8998
  113OSM    C1411634   2.171   2.404   7.840  0.6744  0.1713  0.2697
  113OSM   H14A11635   2.083   2.459   7.869 -0.2866 -0.7766 -0.7498
  113OSM   H14B11636   2.253   2.393   7.909  1.2736  2.6296  0.0383
  113OSM   H14C11637   2.137   2.306   7.810 -1.4517  0.5473  1.3355
  113OSM    C1311638   2.101   2.522   7.652 -0.3981 -0.4297 -0.1263
  113OSM   H13A11639   2.040   2.440   7.615 -0.7190  0.1663 -0.9377
  113OSM   H13B11640   2.136   2.580   7.569 -0.2353 -1.7542 -1.0180
  113OSM   H13C11641   2.039   2.576   7.722 -0.1540 -1.8694  1.2620
  113OSM    C1211642   2.326   2.398   7.650 -0.0216 -0.6624  0.6928
  113OSM   H12A11643   2.362   2.463   7.572 -0.2288  0.2528  1.3413
  113OSM   H12B11644   2.272   2.314   7.609 -0.9512  0.4354 -0.3871
  113OSM    C1111645   2.442   2.335   7.728  0.4590 -0.1699  0.2540
  113OSM   H11A11646   2.497   2.248   7.687  2.4216  0.5804  1.1544
  113OSM   H11B11647   2.390   2.300   7.819  1.0521  0.5746  0.8947
  113OSM      P11648   2.639   2.492   7.647 -0.1890  0.1312 -0.2650
  113OSM    O1311649   2.566   2.596   7.569  0.3956 -0.1875  0.0262
  113OSM    O1411650   2.766   2.534   7.716 -0.0568 -0.5040  0.3447
  113OSM    O1111651   2.676   2.365   7.558  0.0800 -0.4364  0.1489
  113OSM    O1211652   2.537   2.439   7.758  0.4190 -0.5131  0.8620
  113OSM    C1S11653   2.615   2.341   7.428 -0.5543  0.4099  0.5770
  113OSM    H1S11654   2.546   2.416   7.385 -0.7207 -0.3481 -0.5039
  113OSM    H1T11655   2.551   2.255   7.453  1.0980 -0.9611  0.2799
  113OSM     NF11656   2.621   2.266   7.191 -0.2311 -0.6598  0.4182
  113OSM    HNF11657   2.590   2.172   7.182 -2.7372  0.2180 -1.2309
  113OSM    C2S11658   2.711   2.290   7.306  0.1425  0.4789  0.2832
  113OSM    H2S11659   2.785   2.370   7.283  1.5167 -0.1257  2.2985
  113OSM    C3S11660   2.804   2.171   7.349  0.7506 -0.2864 -1.2932
  113OSM    H3S11661   2.745   2.076   7.347  2.3471 -1.4675  1.7047
  113OSM     O311662   2.852   2.183   7.484  0.6568  0.6318 -0.1402
  113OSM    HO311663   2.798   2.249   7.528 -1.5336 -1.1421 -0.0030
  113OSM    C4S11664   2.924   2.141   7.259 -0.3923 -0.2702  0.3899
  113OSM    H4S11665   2.990   2.226   7.238 -0.2057 -0.8478 -1.6082
  113OSM    C5S11666   2.945   2.021   7.208  0.3877  0.6516 -0.2976
  113OSM    H5S11667   2.873   1.939   7.217  1.1063 -0.1819 -1.7761
  113OSM    C6S11668   3.064   1.984   7.119 -0.4081 -0.0494  0.2414
  113OSM    H6S11669   3.099   1.879   7.105 -0.6007 -0.0913  0.0742
  113OSM    H6T11670   3.151   2.035   7.165 -0.2198  1.2816 -1.5054
  113OSM    C7S11671   3.046   2.027   6.974 -0.2777  0.9521  0.0872
  113OSM    H7S11672   3.004   2.130   6.973 -2.7448  0.0165  0.5594
  113OSM    H7T11673   2.971   1.966   6.919  0.2967  0.6158 -0.3493
  113OSM    C8S11674   3.176   2.020   6.895  0.1794 -0.0537  0.7217
  113OSM    H8S11675   3.228   1.922   6.891  1.7711  0.7888 -0.6900
  113OSM    H8T11676   3.247   2.096   6.936 -0.4105  0.7378  0.3158
  113OSM    C9S11677   3.155   2.057   6.740 -0.4565  0.0194 -0.2622
  113OSM    H9S11678   3.098   2.152   6.751 -0.3724 -0.1488  2.1882
  113OSM    H9T11679   3.089   1.984   6.687 -0.7504  1.3775 -1.8679
  113OSM   C10S11680   3.287   2.067   6.666  0.1365 -0.5150 -0.5994
  113OSM   H10S11681   3.355   1.987   6.701 -0.2773 -0.4386  0.4310
  113OSM   H10T11682   3.327   2.165   6.698 -1.5868  0.2550 -0.6821
  113OSM   C11S11683   3.273   2.043   6.519  0.4093 -0.2166  0.5657
  113OSM   H11S11684   3.246   1.939   6.492  0.6064 -0.5719  1.6694
  113OSM   H11T11685   3.374   2.048   6.472  1.1731 -0.9141  2.0616
  113OSM   C12S11686   3.179   2.144   6.455 -0.1436 -0.6171  0.1428
  113OSM   H12S11687   3.214   2.249   6.461  0.6580 -0.9216  0.9893
  113OSM   H12T11688   3.081   2.143   6.507 -0.0541 -0.8473  0.3074
  113OSM   C13S11689   3.161   2.124   6.310  1.0592  0.5638  0.2731
  113OSM   H13S11690   3.122   2.021   6.316  1.8156  0.2668  0.2263
  113OSM   H13T11691   3.255   2.125   6.250  1.0545  1.0852  0.2697
  113OSM   C14S11692   3.055   2.223   6.260 -0.0005  1.0185 -0.8479
  113OSM   H14S11693   3.096   2.326   6.271  0.7223  0.6939 -0.3866
  113OSM   H14T11694   2.970   2.203   6.328  1.7426 -3.2006  0.3879
  113OSM   C15S11695   3.026   2.216   6.106  0.0450 -0.7068 -0.3054
  113OSM   H15S11696   2.995   2.114   6.075 -1.0428 -0.0252 -1.5723
  113OSM   H15T11697   3.120   2.240   6.052  1.0701 -1.8866  0.8784
  113OSM   C16S11698   2.905   2.311   6.069  0.0983  0.0901  0.4502
  113OSM   H16S11699   2.932   2.418   6.081  1.1745 -0.1727  0.4395
  113OSM   H16T11700   2.808   2.286   6.119 -0.4950 -0.2803 -0.8577
  113OSM   C17S11701   2.872   2.280   5.923  0.0904 -0.1007 -0.4608
  113OSM   H17S11702   2.827   2.179   5.921 -0.6921  0.2194  0.2941
  113OSM   H17T11703   2.966   2.284   5.863 -0.6328  1.5844 -1.5611
  113OSM   C18S11704   2.768   2.379   5.860 -0.7725  0.2835 -0.5934
  113OSM   H18S11705   2.764   2.383   5.749 -2.6898  1.6324 -0.5248
  113OSM   H18T11706   2.782   2.486   5.888 -2.0204  0.3776 -0.2770
  113OSM   H18U11707   2.665   2.348   5.890 -1.4096  3.0790  0.4667
  113OSM    C1F11708   2.554   2.376   7.134 -0.7787  0.2398  0.5652
  113OSM     OF11709   2.587   2.492   7.165  0.1769  0.4512  0.2881
  113OSM    C2F11710   2.442   2.343   7.043 -0.2914  0.7361  0.5463
  113OSM    H2F11711   2.348   2.367   7.098  0.2058  1.6356  1.0187
  113OSM    H2G11712   2.454   2.233   7.028  0.7364  1.0871 -1.4419
  113OSM    C3F11713   2.458   2.428   6.919  0.6189  0.1293 -0.3905
  113OSM    H3F11714   2.420   2.531   6.942 -2.3678 -0.9883  0.1297
  113OSM    H3G11715   2.378   2.390   6.853 -1.2612  2.0877  0.5922
  113OSM    C4F11716   2.593   2.435   6.843  0.5454  0.2117  0.0130
  113OSM    H4F11717   2.675   2.476   6.905  0.3626  2.4537 -1.1407
  113OSM    H4G11718   2.580   2.500   6.754 -1.2250 -0.4231 -0.2419
  113OSM    C5F11719   2.643   2.301   6.786 -0.5360  0.4783 -1.0246
  113OSM    H5F11720   2.565   2.260   6.718 -2.0253 -0.6239  1.2347
  113OSM    H5G11721   2.664   2.230   6.869  0.0616  1.3457 -0.4286
  113OSM    C6F11722   2.766   2.322   6.694 -0.2029 -0.6908 -0.1472
  113OSM    H6F11723   2.858   2.318   6.755 -0.8931 -0.4614  0.9255
  113OSM    H6G11724   2.756   2.425   6.653  1.9227 -1.6025 -3.3554
  113OSM    C7F11725   2.778   2.235   6.568 -0.4249 -0.5532 -0.0026
  113OSM    H7F11726   2.865   2.272   6.510 -0.2428 -1.7118 -0.4927
  113OSM    H7G11727   2.693   2.255   6.499 -0.3132 -0.6565 -0.1726
  113OSM    C8F11728   2.777   2.080   6.597 -0.2836  0.6305 -0.2113
  113OSM    H8F11729   2.676   2.050   6.633 -0.6873  0.9133 -1.0674
  113OSM    H8G11730   2.839   2.053   6.685  1.1716 -2.2558 -1.9982
  113OSM    C9F11731   2.821   1.997   6.479 -0.4513  0.3349  0.5474
  113OSM    H9F11732   2.927   1.971   6.464 -0.7195 -1.0834  1.0430
  113OSM   C10F11733   2.734   1.931   6.397  0.3306  0.1273  0.0403
  113OSM   H10F11734   2.773   1.860   6.321  2.5361 -0.9224  1.9978
  113OSM   C11F11735   2.584   1.952   6.390  0.1017 -0.0346  0.0913
  113OSM   H11F11736   2.543   1.997   6.483 -1.9010 -0.7800 -0.3901
  113OSM   H11G11737   2.532   1.854   6.391 -1.3958  0.6328 -2.8022
  113OSM   C12F11738   2.538   2.026   6.259 -0.0966  0.5414 -0.1124
  113OSM   H12F11739   2.576   1.974   6.168  0.7347 -1.3157  1.2186
  113OSM   H12G11740   2.556   2.135   6.261 -0.3786  0.6168  2.5925
  113OSM   C13F11741   2.383   2.021   6.252 -0.3098 -0.0012 -0.0517
  113OSM   H13F11742   2.345   2.061   6.349  0.4099 -2.6094  1.4131
  113OSM   H13G11743   2.339   1.919   6.258 -0.3399  0.0454  0.6590
  113OSM   C14F11744   2.334   2.092   6.134  0.7963 -0.8024  0.3733
  113OSM   H14F11745   2.356   2.201   6.134  0.7390 -0.7242  2.7644
  113OSM   H14G11746   2.223   2.094   6.129  0.7521  2.0819  1.1051
  113OSM   C15F11747   2.386   2.039   6.001  0.0174  0.1118  0.8639
  113OSM   H15F11748   2.348   1.936   5.983 -0.6451  0.2982  1.1697
  113OSM   H15G11749   2.496   2.042   5.989 -0.2625  2.0333 -2.3031
  113OSM   C16F11750   2.333   2.125   5.881  0.2982  0.1869  0.5561
  113OSM   H16F11751   2.372   2.229   5.885 -0.3157  0.4045  1.0673
  113OSM   H16G11752   2.222   2.131   5.890  0.3081 -0.9774  1.9749
  113OSM   C17F11753   2.376   2.046   5.757 -0.5565  0.2212  0.5799
  113OSM   H17F11754   2.326   1.947   5.742  0.8357 -0.2454 -1.2620
  113OSM   H17G11755   2.484   2.021   5.757 -0.8640 -1.2946  1.1649
  113OSM   C18F11756   2.344   2.131   5.638  0.6156 -0.3608  0.0542
  113OSM   H18F11757   2.399   2.227   5.645  1.0636 -0.6949  1.6509
  113OSM   H18G11758   2.235   2.151   5.634  0.2500 -2.1349  0.2884
  113OSM   H18H11759   2.378   2.080   5.545 -1.0844 -0.5973 -0.4732
  114OSM      N11760   1.085   0.927   7.585  0.1869  0.1300 -0.0074
  114OSM    C1511761   1.006   1.052   7.628  0.4426 -0.1288  0.7535
  114OSM   H15A11762   1.000   1.047   7.736 -2.2455  0.3618  0.7100
  114OSM   H15B11763   0.900   1.039   7.609  0.4876 -0.6846  0.8439
  114OSM   H15C11764   1.036   1.151   7.597 -2.5051  1.2060  1.7514
  114OSM    C1411765   1.213   0.934   7.659  0.5160  0.0708  0.3558
  114OSM   H14A11766   1.295   0.887   7.606  0.4427 -0.1123  0.4022
  114OSM   H14B11767   1.206   0.894   7.759  1.9879  0.9671  0.8570
  114OSM   H14C11768   1.235   1.039   7.653 -2.5161  0.9568  2.2183
  114OSM    C1311769   1.004   0.806   7.623 -0.6248 -0.7999 -0.6995
  114OSM   H13A11770   0.923   0.793   7.554 -0.7666  0.8379 -0.8782
  114OSM   H13B11771   0.965   0.824   7.722  0.1884 -0.5110 -0.4217
  114OSM   H13C11772   1.074   0.724   7.622  2.0827  1.3432 -2.3977
  114OSM    C1211773   1.115   0.948   7.433 -0.5965  0.3034 -0.4143
  114OSM   H12A11774   1.150   1.050   7.419 -1.5342  0.8866  1.2248
  114OSM   H12B11775   1.013   0.946   7.400 -1.0352  0.2915  0.8582
  114OSM    C1111776   1.220   0.861   7.363 -0.0538  1.0341 -0.4979
  114OSM   H11A11777   1.213   0.866   7.252 -0.0100 -2.4871 -0.7739
  114OSM   H11B11778   1.202   0.755   7.391  0.5534  1.1175  0.2284
  114OSM      P11779   1.419   1.027   7.370  0.1159 -0.1157  0.0134
  114OSM    O1311780   1.330   1.143   7.405  0.6920  0.6170  0.2250
  114OSM    O1411781   1.556   1.035   7.431 -0.1220 -0.1895 -0.6455
  114OSM    O1111782   1.434   1.017   7.212  0.2737 -0.4078  0.2560
  114OSM    O1211783   1.352   0.889   7.407  0.3920 -0.0772  0.0523
  114OSM    C1S11784   1.502   0.912   7.138  0.1026  0.3593 -0.4909
  114OSM    H1S11785   1.417   0.842   7.126  0.2726 -0.1597  1.1184
  114OSM    H1T11786   1.570   0.853   7.204  0.2394 -0.6594 -1.5164
  114OSM     NF11787   1.586   0.861   6.908 -0.5587 -0.4736 -0.3328
  114OSM    HNF11788   1.680   0.836   6.885 -0.0095 -0.0292  1.2841
  114OSM    C2S11789   1.568   0.965   7.003  0.0479  0.8564 -0.9990
  114OSM    H2S11790   1.504   1.041   6.955  1.1783  1.0624 -2.2299
  114OSM    C3S11791   1.698   1.049   7.035 -0.0899  0.0863  0.2074
  114OSM    H3S11792   1.763   0.975   7.086 -0.9212 -0.5544  0.3626
  114OSM     O311793   1.675   1.157   7.128 -0.2401 -0.1622 -0.1345
  114OSM    HO311794   1.586   1.138   7.158 -0.7089 -0.4936 -1.6345
  114OSM    C4S11795   1.778   1.097   6.913 -0.7704 -0.0892  0.9204
  114OSM    H4S11796   1.817   1.007   6.863  0.0736 -0.9825  3.0505
  114OSM    C5S11797   1.804   1.224   6.869  0.5732  0.3622  0.3172
  114OSM    H5S11798   1.775   1.317   6.919  1.3986  1.2223 -0.7492
  114OSM    C6S11799   1.879   1.258   6.741 -0.3500 -0.4800 -0.2092
  114OSM    H6S11800   1.970   1.311   6.777 -1.0322  0.6042 -0.0386
  114OSM    H6T11801   1.827   1.337   6.683  1.0879 -0.5588 -1.6659
  114OSM    C7S11802   1.935   1.159   6.636 -0.1992 -0.1775  0.1233
  114OSM    H7S11803   1.848   1.108   6.588  1.0001 -1.2426 -1.0160
  114OSM    H7T11804   1.995   1.079   6.684 -0.5429 -0.7000 -0.3098
  114OSM    C8S11805   2.017   1.242   6.538 -1.1621  0.2364  0.4043
  114OSM    H8S11806   2.098   1.285   6.600 -1.0356  0.3314  0.1748
  114OSM    H8T11807   1.981   1.343   6.506 -0.7326 -0.2799 -1.8173
  114OSM    C9S11808   2.065   1.164   6.412 -0.2544  0.1488 -0.3297
  114OSM    H9S11809   2.068   1.057   6.442 -0.7921  0.2348  0.0480
  114OSM    H9T11810   2.168   1.190   6.382  0.8899 -3.7029 -0.3220
  114OSM   C10S11811   1.958   1.181   6.301  0.3467  0.3719 -0.3735
  114OSM   H10S11812   1.927   1.286   6.282  2.6546  0.7575 -2.6119
  114OSM   H10T11813   1.871   1.118   6.329  1.2183  0.1816  2.2318
  114OSM   C11S11814   2.004   1.130   6.163  0.0975  0.3927 -0.6524
  114OSM   H11S11815   1.919   1.137   6.092  0.5964 -0.7802 -1.3873
  114OSM   H11T11816   2.040   1.025   6.165 -0.7314  0.0982  0.8639
  114OSM   C12S11817   2.125   1.206   6.115 -0.7026  0.1736  0.4899
  114OSM   H12S11818   2.213   1.167   6.170  0.4651  0.5389 -1.0410
  114OSM   H12T11819   2.111   1.316   6.127 -0.4274  0.5263 -1.8417
  114OSM   C13S11820   2.153   1.165   5.963  0.6619 -0.6150 -0.5424
  114OSM   H13S11821   2.148   1.054   5.969  0.4315 -0.5414  1.5482
  114OSM   H13T11822   2.251   1.208   5.932  1.1401  0.3948  2.0910
  114OSM   C14S11823   2.056   1.216   5.863  0.2431  0.3420 -0.6118
  114OSM   H14S11824   1.968   1.149   5.876 -0.2201  1.2995  1.6054
  114OSM   H14T11825   2.097   1.181   5.765  0.9099  0.0020 -0.2197
  114OSM   C15S11826   2.029   1.373   5.864 -0.2328  0.1386  0.3161
  114OSM   H15S11827   2.116   1.430   5.826 -1.3970  1.9905  0.3104
  114OSM   H15T11828   2.012   1.406   5.968 -1.0229 -0.9745  0.5578
  114OSM   C16S11829   1.917   1.424   5.766  0.1209  0.3793  0.5365
  114OSM   H16S11830   1.855   1.509   5.802 -0.4709  0.0009  0.4292
  114OSM   H16T11831   1.850   1.335   5.770 -0.0464  0.5186  3.1126
  114OSM   C17S11832   1.956   1.455   5.622  0.6177 -0.0405 -0.1139
  114OSM   H17S11833   2.018   1.369   5.586 -1.1689 -1.6921  0.5515
  114OSM   H17T11834   2.018   1.545   5.604  0.4228 -0.1973 -1.7053
  114OSM   C18S11835   1.823   1.478   5.544 -0.3416  0.7716 -0.0270
  114OSM   H18S11836   1.850   1.490   5.437  0.0090 -2.1111 -0.3365
  114OSM   H18T11837   1.762   1.561   5.586 -0.9894  0.6060 -0.6313
  114OSM   H18U11838   1.771   1.380   5.546  0.2078  0.3692 -2.5200
  114OSM    C1F11839   1.483   0.809   6.848 -0.1428 -0.4942  0.4670
  114OSM     OF11840   1.375   0.863   6.857  0.4135 -0.1375 -0.4135
  114OSM    C2F11841   1.514   0.669   6.794  0.3317 -0.6602 -0.3035
  114OSM    H2F11842   1.482   0.588   6.863 -2.1552  0.7663  0.3390
  114OSM    H2G11843   1.622   0.645   6.778  0.6064 -0.9500  1.7030
  114OSM    C3F11844   1.424   0.652   6.662  0.2475  0.6173 -0.4274
  114OSM    H3F11845   1.348   0.731   6.645 -1.7590 -1.5363 -2.1390
  114OSM    H3G11846   1.366   0.557   6.668  0.2931  0.3060 -3.4316
  114OSM    C4F11847   1.504   0.645   6.533  0.2437  0.4156  0.3299
  114OSM    H4F11848   1.438   0.610   6.450 -2.6765 -0.0714  2.6802
  114OSM    H4G11849   1.580   0.567   6.553  0.0529  0.2743  0.5056
  114OSM    C5F11850   1.577   0.771   6.492 -0.3987  0.1908  0.3807
  114OSM    H5F11851   1.649   0.803   6.570  0.7661 -1.0687 -0.1491
  114OSM    H5G11852   1.510   0.860   6.486  0.7778  1.0020 -1.3297
  114OSM    C6F11853   1.627   0.754   6.348 -0.2674 -0.3707  0.5065
  114OSM    H6F11854   1.542   0.738   6.278  0.5364 -0.5768 -0.4486
  114OSM    H6G11855   1.696   0.668   6.335 -0.4169 -0.0568 -3.7273
  114OSM    C7F11856   1.705   0.871   6.292 -0.0623  0.7554 -0.2446
  114OSM    H7F11857   1.790   0.876   6.363  1.5096  1.0589 -2.0912
  114OSM    H7G11858   1.647   0.966   6.305  0.3419  0.9396  0.2542
  114OSM    C8F11859   1.736   0.853   6.140 -0.1446 -0.2244  0.5987
  114OSM    H8F11860   1.782   0.950   6.114  0.1893 -0.1675  1.3578
  114OSM    H8G11861   1.634   0.851   6.096 -0.2724 -2.5982  0.8513
  114OSM    C9F11862   1.826   0.741   6.109  0.2454 -0.1085  0.0286
  114OSM    H9F11863   1.932   0.757   6.134  0.8914 -2.8632 -0.6069
  114OSM   C10F11864   1.795   0.625   6.047  0.8237 -0.6571 -0.1942
  114OSM   H10F11865   1.868   0.543   6.043  0.8251 -0.6529 -0.2700
  114OSM   C11F11866   1.657   0.591   5.995 -0.5285 -0.5698 -0.2352
  114OSM   H11F11867   1.584   0.674   6.012  1.8553  1.4472  0.7377
  114OSM   H11G11868   1.629   0.495   6.043  1.5766 -0.9741  0.2870
  114OSM   C12F11869   1.658   0.567   5.844 -0.6312 -0.4403  0.6537
  114OSM   H12F11870   1.690   0.659   5.791  0.5081 -1.2920 -0.2211
  114OSM   H12G11871   1.557   0.543   5.805  0.2936 -0.1583 -2.1244
  114OSM   C13F11872   1.749   0.453   5.788 -0.1436  0.2853  0.1245
  114OSM   H13F11873   1.708   0.354   5.818  0.8930  0.1245  1.0690
  114OSM   H13G11874   1.855   0.454   5.820  0.1467 -1.9276 -0.5781
  114OSM   C14F11875   1.728   0.460   5.638 -0.5151  0.8817  0.8234
  114OSM   H14F11876   1.765   0.562   5.615  3.4347 -0.2786  1.3349
  114OSM   H14G11877   1.620   0.458   5.615 -0.3073  1.9531 -0.3471
  114OSM   C15F11878   1.798   0.348   5.558  0.3719 -0.4336  0.0096
  114OSM   H15F11879   1.776   0.259   5.621 -1.5541  0.8367  1.2249
  114OSM   H15G11880   1.908   0.364   5.569  0.5358 -1.8673  0.8165
  114OSM   C16F11881   1.736   0.336   5.418 -1.1001  0.3938 -0.6635
  114OSM   H16F11882   1.750   0.420   5.347  0.6239 -0.7422 -1.7410
  114OSM   H16G11883   1.628   0.318   5.434 -0.9687  0.5163  0.4288
  114OSM   C17F11884   1.787   0.213   5.343 -0.7147  0.0137 -0.1533
  114OSM   H17F11885   1.759   0.124   5.402 -0.2468  0.4217  0.7021
  114OSM   H17G11886   1.898   0.224   5.338 -0.8486  1.0921 -1.2214
  114OSM   C18F11887   1.750   0.192   5.191  0.7677 -0.1056  0.2299
  114OSM   H18F11888   1.734   0.288   5.137 -1.4926 -0.4981  0.0811
  114OSM   H18G11889   1.651   0.141   5.182  1.2271 -1.0125  0.2349
  114OSM   H18H11890   1.823   0.129   5.136  1.3327  1.5283 -0.9917
  115OSM      N11891   3.708   5.606   7.017 -0.1692 -0.5774 -0.0349
  115OSM    C1511892   3.807   5.522   7.088 -0.2130  0.1126 -0.5159
  115OSM   H15A11893   3.798   5.421   7.049 -1.5779 -0.3268  0.8449
  115OSM   H15B11894   3.793   5.517   7.195 -0.2529  0.5385 -0.4993
  115OSM   H15C11895   3.910   5.550   7.072  0.1899 -0.7541  0.4346
  115OSM    C1411896   3.721   5.747   7.067  0.0626  0.5845 -0.0039
  115OSM   H14A11897   3.816   5.791   7.044  0.9898 -0.5067  1.4872
  115OSM   H14B11898   3.714   5.749   7.175 -1.4115 -0.0874 -0.0608
  115OSM   H14C11899   3.631   5.799   7.037 -2.4269 -2.1422  2.0579
  115OSM    C1311900   3.741   5.605   6.870 -0.2468 -0.8802  0.2623
  115OSM   H13A11901   3.745   5.510   6.820  0.5603  0.2003 -1.8374
  115OSM   H13B11902   3.839   5.647   6.853 -1.2801  2.0102  0.7743
  115OSM   H13C11903   3.674   5.673   6.820  0.5719 -0.1937  0.0900
  115OSM    C1211904   3.565   5.558   7.039 -0.2978 -0.2552  0.8242
  115OSM   H12A11905   3.553   5.539   7.145  1.5325  1.2750  1.3567
  115OSM   H12B11906   3.562   5.464   6.985  2.4321  0.5000 -0.8009
  115OSM    C1111907   3.449   5.638   6.966  0.6729  0.2032  1.0696
  115OSM   H11A11908   3.358   5.577   6.985  1.2404 -0.3946  1.9430
  115OSM   H11B11909   3.467   5.631   6.856  1.6311 -0.9946  1.2667
  115OSM      P11910   3.341   5.818   7.119  0.0227  0.0844 -0.0352
  115OSM    O1311911   3.351   5.726   7.231 -0.1826 -0.3975 -0.0743
  115OSM    O1411912   3.357   5.962   7.151  0.2138  0.5653  0.0375
  115OSM    O1111913   3.203   5.801   7.049 -0.1693 -0.2603  0.0139
  115OSM    O1211914   3.444   5.774   7.008  0.5003  0.7580 -0.2057
  115OSM    C1S11915   3.160   5.889   6.942  0.6479 -0.2346  0.3419
  115OSM    H1S11916   3.230   5.973   6.923  1.9263 -1.3134  0.1370
  115OSM    H1T11917   3.054   5.919   6.958  0.8442 -0.2408  1.7789
  115OSM     NF11918   3.113   5.909   6.698 -0.6023  0.3268 -0.4514
  115OSM    HNF11919   3.018   5.911   6.668 -0.8497 -0.0754  0.2759
  115OSM    C2S11920   3.147   5.811   6.803  0.2399  1.2014  0.5521
  115OSM    H2S11921   3.248   5.771   6.783 -0.2463  0.8337 -1.3530
  115OSM    C3S11922   3.060   5.682   6.822  0.2409  0.1145  0.4306
  115OSM    H3S11923   2.954   5.710   6.842  0.0184  0.1751 -0.7734
  115OSM     O311924   3.101   5.597   6.927  0.6085 -0.0410 -0.3237
  115OSM    HO311925   3.156   5.649   6.986  0.3287 -1.6355  1.4576
  115OSM    C4S11926   3.065   5.601   6.694  0.0109 -0.2415 -0.2242
  115OSM    H4S11927   3.160   5.549   6.674 -0.0838 -0.3551 -0.3933
  115OSM    C5S11928   2.957   5.559   6.626  0.2375  0.0536  0.0255
  115OSM    H5S11929   2.860   5.573   6.677  0.7165  3.5249  0.1990
  115OSM    C6S11930   2.952   5.474   6.502  0.0589 -0.3954 -0.1333
  115OSM    H6S11931   2.891   5.382   6.513  1.7172 -1.3313  2.0222
  115OSM    H6T11932   3.054   5.435   6.479 -0.9437 -2.4544 -1.3427
  115OSM    C7S11933   2.897   5.551   6.382 -0.1990 -0.3799 -0.9078
  115OSM    H7S11934   2.944   5.650   6.363 -0.1373 -0.3092 -0.4138
  115OSM    H7T11935   2.789   5.572   6.397 -0.4794 -2.5093  0.3769
  115OSM    C8S11936   2.922   5.468   6.260  0.1505 -0.1114 -0.3974
  115OSM    H8S11937   2.887   5.364   6.278 -0.3698  0.3830  1.7367
  115OSM    H8T11938   3.030   5.457   6.234  0.5810 -1.1937  1.5972
  115OSM    C9S11939   2.846   5.509   6.136 -0.3404  0.1921 -0.1498
  115OSM    H9S11940   2.882   5.611   6.110  0.6325 -0.3808 -1.1099
  115OSM    H9T11941   2.742   5.526   6.171 -0.0933  1.2646  0.1125
  115OSM   C10S11942   2.847   5.413   6.020 -0.3039  0.0679  0.5489
  115OSM   H10S11943   2.800   5.324   6.067  1.8036 -0.6990  1.3268
  115OSM   H10T11944   2.953   5.395   5.992 -1.0136  1.0156 -3.3346
  115OSM   C11S11945   2.765   5.461   5.899  0.5501 -0.0253 -0.1152
  115OSM   H11S11946   2.795   5.561   5.861 -2.8374  1.2457  0.2194
  115OSM   H11T11947   2.664   5.482   5.940  1.6668  0.6481  2.5523
  115OSM   C12S11948   2.765   5.360   5.776  0.5200 -0.1400 -0.3967
  115OSM   H12S11949   2.742   5.255   5.805 -0.0978  0.3614  0.9728
  115OSM   H12T11950   2.872   5.363   5.744 -0.0017 -0.3261 -2.2671
  115OSM   C13S11951   2.689   5.406   5.654 -0.1991  0.3318 -0.1712
  115OSM   H13S11952   2.710   5.341   5.567 -1.1028  1.3134 -1.1563
  115OSM   H13T11953   2.710   5.512   5.626 -2.0790  0.5656 -0.8660
  115OSM   C14S11954   2.539   5.384   5.686 -0.8279  0.9031  0.5448
  115OSM   H14S11955   2.532   5.351   5.791  0.2638 -2.1920 -0.2660
  115OSM   H14T11956   2.509   5.310   5.609  0.2447  1.7071 -0.7066
  115OSM   C15S11957   2.464   5.512   5.662 -0.4154 -0.0079 -0.0325
  115OSM   H15S11958   2.473   5.534   5.553 -2.4504 -1.9119 -0.6744
  115OSM   H15T11959   2.516   5.589   5.724  0.6663 -0.0497 -0.8624
  115OSM   C16S11960   2.317   5.507   5.700  0.4535  0.6566  0.3552
  115OSM   H16S11961   2.317   5.445   5.792 -0.1303  0.5740  0.3039
  115OSM   H16T11962   2.277   5.435   5.625 -0.8344  0.0847  1.5497
  115OSM   C17S11963   2.246   5.642   5.708  0.6359  0.3150  0.0675
  115OSM   H17S11964   2.138   5.628   5.687  0.7684 -0.0164 -0.4040
  115OSM   H17T11965   2.284   5.719   5.638  0.9042  1.5077  1.4642
  115OSM   C18S11966   2.271   5.697   5.847  0.3364 -0.3769 -1.2731
  115OSM   H18S11967   2.269   5.612   5.919 -1.6501  1.4130  0.9556
  115OSM   H18T11968   2.192   5.771   5.869  0.9724 -0.3432  1.1865
  115OSM   H18U11969   2.370   5.746   5.850  0.5534 -0.8496  0.5794
  115OSM    C1F11970   3.205   5.987   6.641 -0.1034 -0.4743  0.0922
  115OSM     OF11971   3.322   5.981   6.679 -0.0193  0.3730 -0.3908
  115OSM    C2F11972   3.162   6.051   6.519  0.4139 -0.0609  0.2814
  115OSM    H2F11973   3.061   6.091   6.543  0.6393  1.1403 -0.6603
  115OSM    H2G11974   3.158   5.969   6.444  0.8115  0.6877 -0.5817
  115OSM    C3F11975   3.249   6.167   6.476  0.3884 -0.3711 -0.4790
  115OSM    H3F11976   3.343   6.125   6.434  0.5841 -1.0979  0.6569
  115OSM    H3G11977   3.274   6.228   6.566 -0.1529 -2.1723  0.9395
  115OSM    C4F11978   3.186   6.257   6.366 -0.3838 -0.4137  0.3357
  115OSM    H4F11979   3.237   6.351   6.336 -2.5344 -0.1111 -2.8631
  115OSM    H4G11980   3.089   6.297   6.402 -0.5035  0.2286 -0.6881
  115OSM    C5F11981   3.170   6.174   6.234 -0.0250  0.1173 -0.4143
  115OSM    H5F11982   3.117   6.079   6.256  1.8371 -0.8390  0.2282
  115OSM    H5G11983   3.269   6.140   6.196 -0.3696 -2.8100  1.0431
  115OSM    C6F11984   3.088   6.236   6.126  0.5774  0.0799 -0.1920
  115OSM    H6F11985   3.010   6.285   6.187 -1.0701 -1.9789 -0.5338
  115OSM    H6G11986   3.025   6.156   6.082 -1.2872  1.5001 -0.2227
  115OSM    C7F11987   3.160   6.335   6.038  0.9456 -0.1776 -0.1211
  115OSM    H7F11988   3.240   6.288   5.978 -0.6630 -1.7974 -1.0879
  115OSM    H7G11989   3.194   6.420   6.101  0.3728 -0.0228 -0.0172
  115OSM    C8F11990   3.056   6.397   5.938  0.2445  0.1419  0.9083
  115OSM    H8F11991   2.977   6.444   5.999  0.2975  1.2584  0.1476
  115OSM    H8G11992   3.012   6.310   5.884 -1.5172  1.2305  0.5055
  115OSM    C9F11993   3.125   6.499   5.845 -0.2465 -0.3928  0.3685
  115OSM    H9F11994   3.203   6.563   5.889  2.2394 -3.0792  0.1803
  115OSM   C10F11995   3.106   6.491   5.706 -0.0394  0.5176 -0.0585
  115OSM   H10F11996   3.138   6.578   5.647 -0.5464  1.6874  1.3233
  115OSM   C11F11997   3.018   6.394   5.628 -0.2255  1.0284 -0.0005
  115OSM   H11F11998   2.935   6.348   5.684  0.1068  0.5620  0.1175
  115OSM   H11G11999   3.081   6.307   5.600  0.9040  1.4564  1.1188
  115OSM   C12F12000   2.961   6.462   5.501  0.0018 -0.6324 -0.1082
  115OSM   H12F12001   2.909   6.556   5.529 -0.4845  0.0978 -3.1992
  115OSM   H12G12002   2.900   6.402   5.431 -1.4487 -0.9288  1.3353
  115OSM   C13F12003   3.067   6.495   5.390  0.2511  0.3522 -0.6630
  115OSM   H13F12004   3.042   6.431   5.302 -0.6417  2.3395 -1.9095
  115OSM   H13G12005   3.171   6.471   5.422  0.5052  1.0657 -0.9391
  115OSM   C14F12006   3.077   6.641   5.351 -0.8218 -0.3564 -0.1390
  115OSM   H14F12007   3.119   6.699   5.436 -0.0511  1.3837 -1.6654
  115OSM   H14G12008   2.977   6.674   5.316 -0.6968 -0.4333 -0.5747
  115OSM   C15F12009   3.174   6.656   5.235 -0.4960  0.5950  0.4078
  115OSM   H15F12010   3.130   6.646   5.134  2.8383  1.2622 -1.2376
  115OSM   H15G12011   3.261   6.591   5.257  0.6662  2.2121  0.7741
  115OSM   C16F12012   3.215   6.806   5.234 -0.4773 -0.4690  1.0014
  115OSM   H16F12013   3.241   6.851   5.332  1.6324  0.5009  0.0482
  115OSM   H16G12014   3.125   6.854   5.189  1.1963 -0.1676 -2.2967
  115OSM   C17F12015   3.332   6.828   5.143 -0.3680 -0.2794 -0.5022
  115OSM   H17F12016   3.435   6.822   5.185 -0.0792  1.9782 -0.7740
  115OSM   H17G12017   3.328   6.937   5.120 -0.7746 -0.3636 -0.8410
  115OSM   C18F12018   3.341   6.761   5.004  0.7993  0.1073 -0.4203
  115OSM   H18F12019   3.377   6.656   5.006  1.2165  0.2292 -1.1226
  115OSM   H18G12020   3.408   6.825   4.942  1.1980  1.3323  1.2023
  115OSM   H18H12021   3.243   6.763   4.951 -0.5637  0.5643  1.9584
  116OSM      N12022   0.824   2.020   7.473 -0.0807 -0.1093  0.3878
  116OSM    C1512023   0.670   2.004   7.485 -0.1504 -0.5568  0.5884
  116OSM   H15A12024   0.630   2.079   7.418 -1.0558  0.4916  2.2169
  116OSM   H15B12025   0.626   2.033   7.580 -0.2282  0.0250  0.3816
  116OSM   H15C12026   0.638   1.910   7.445  1.5857  0.6591 -4.3013
  116OSM    C1412027   0.860   2.162   7.501  0.1928 -0.3425  0.2372
  116OSM   H14A12028   0.963   2.181   7.477 -0.1282  0.4135 -0.5750
  116OSM   H14B12029   0.839   2.191   7.603 -2.4315  0.2221 -0.3818
  116OSM   H14C12030   0.806   2.224   7.431 -1.4770 -0.6356  1.2153
  116OSM    C1312031   0.885   1.938   7.585  0.1040 -0.2117  0.8576
  116OSM   H13A12032   0.868   1.834   7.560  0.2795 -0.0494  0.0292
  116OSM   H13B12033   0.844   1.958   7.683 -0.9560 -2.0628  0.8518
  116OSM   H13C12034   0.991   1.956   7.588 -0.0071  0.3390  1.8596
  116OSM    C1212035   0.867   1.970   7.341 -1.0566 -0.5795 -0.0562
  116OSM   H12A12036   0.975   1.973   7.348 -1.1224  1.0889  0.6564
  116OSM   H12B12037   0.838   2.035   7.259 -0.8353 -0.5814 -0.1367
  116OSM    C1112038   0.833   1.824   7.307 -0.3074 -0.1684  0.4677
  116OSM   H11A12039   0.871   1.802   7.205  0.8381 -2.5418  1.3355
  116OSM   H11B12040   0.724   1.840   7.296 -0.3946 -0.2791  1.1211
  116OSM      P12041   1.023   1.649   7.388 -0.0326 -0.1568  0.0499
  116OSM    O1312042   1.126   1.736   7.454  0.2762 -0.5242 -0.1352
  116OSM    O1412043   1.017   1.504   7.427 -0.1446 -0.2358 -0.1269
  116OSM    O1112044   1.047   1.657   7.235  0.1274  0.0791  0.1962
  116OSM    O1212045   0.882   1.717   7.398 -0.4330  0.4592  0.2338
  116OSM    C1S12046   1.016   1.560   7.138 -0.3011 -0.3368 -0.4661
  116OSM    H1S12047   0.909   1.532   7.149 -0.5524  0.7121 -0.1804
  116OSM    H1T12048   1.080   1.472   7.163 -1.7900 -0.8588  1.8633
  116OSM     NF12049   1.023   1.470   6.913  0.1560 -0.5179 -0.0105
  116OSM    HNF12050   1.113   1.444   6.878  0.3168  0.5446 -0.4330
  116OSM    C2S12051   1.031   1.599   6.993 -0.1642  0.0420  0.2376
  116OSM    H2S12052   0.947   1.667   6.965 -0.7987 -0.7735  0.1083
  116OSM    C3S12053   1.162   1.679   6.974  0.3328  0.1586  0.5685
  116OSM    H3S12054   1.235   1.597   6.993  1.5876  1.2581  0.5978
  116OSM     O312055   1.199   1.784   7.064  0.1503 -0.0512 -0.0613
  116OSM    HO312056   1.150   1.760   7.143 -0.4146  1.2179 -0.0019
  116OSM    C4S12057   1.183   1.725   6.833 -0.2510  0.1374  0.7221
  116OSM    H4S12058   1.203   1.641   6.765 -1.2653 -1.3436  2.1968
  116OSM    C5S12059   1.158   1.847   6.776 -0.5539  0.0064 -0.6180
  116OSM    H5S12060   1.126   1.926   6.845 -0.1492  0.1383 -0.5734
  116OSM    C6S12061   1.169   1.872   6.633 -0.4795  0.2567  0.0111
  116OSM    H6S12062   1.239   1.955   6.606 -1.0701  0.5248 -0.7477
  116OSM    H6T12063   1.072   1.915   6.600 -1.8744 -1.8925  1.0847
  116OSM    C7S12064   1.196   1.759   6.536 -0.4435 -0.4965  0.3130
  116OSM    H7S12065   1.168   1.802   6.437  2.8593 -0.7427 -0.8470
  116OSM    H7T12066   1.131   1.672   6.558 -0.6442 -0.6046 -0.6666
  116OSM    C8S12067   1.346   1.717   6.528 -0.4700  0.0401  0.8210
  116OSM    H8S12068   1.362   1.639   6.605  1.8643  0.1108  0.4695
  116OSM    H8T12069   1.420   1.793   6.562 -1.3591 -0.1038  3.2954
  116OSM    C9S12070   1.386   1.648   6.393  0.1501  0.7587 -0.1895
  116OSM    H9S12071   1.304   1.581   6.358 -0.6107  0.9119  1.2067
  116OSM    H9T12072   1.483   1.597   6.407 -0.5826 -0.4123  0.8108
  116OSM   C10S12073   1.408   1.749   6.279  0.3290  0.4383  0.1314
  116OSM   H10S12074   1.446   1.849   6.309 -1.3213  1.4248 -0.9414
  116OSM   H10T12075   1.309   1.777   6.237  0.9669  3.1314  0.1960
  116OSM   C11S12076   1.509   1.695   6.177 -0.0544 -0.3403 -0.0876
  116OSM   H11S12077   1.473   1.592   6.155 -1.1973 -0.3862  1.7704
  116OSM   H11T12078   1.615   1.694   6.212 -0.4882  0.6003  1.3349
  116OSM   C12S12079   1.492   1.761   6.036  0.1077  0.5272 -0.6645
  116OSM   H12S12080   1.529   1.865   6.051  0.6138  0.1774  0.7777
  116OSM   H12T12081   1.383   1.751   6.020  0.0505 -0.0174 -0.0184
  116OSM   C13S12082   1.568   1.694   5.924 -0.4265  0.5029  0.8502
  116OSM   H13S12083   1.532   1.594   5.894  0.2129  0.8501 -1.2279
  116OSM   H13T12084   1.675   1.677   5.949 -0.1727  1.0965  0.1803
  116OSM   C14S12085   1.564   1.780   5.798 -0.3548 -0.2440  0.1402
  116OSM   H14S12086   1.610   1.730   5.710  1.2024  1.1578  0.0972
  116OSM   H14T12087   1.629   1.870   5.807  0.2084 -0.6338 -0.0039
  116OSM   C15S12088   1.431   1.833   5.770  0.3394 -0.1891 -0.0641
  116OSM   H15S12089   1.384   1.907   5.838 -0.7388 -0.7884 -0.1201
  116OSM   H15T12090   1.358   1.749   5.779  0.4955 -0.5631 -1.8632
  116OSM   C16S12091   1.426   1.888   5.625 -0.2480 -0.1869 -0.1903
  116OSM   H16S12092   1.471   1.813   5.558  1.6042  0.3216  0.4133
  116OSM   H16T12093   1.500   1.971   5.615  1.3639 -1.2538  1.9792
  116OSM   C17S12094   1.293   1.929   5.572  0.2881 -0.9058 -0.8008
  116OSM   H17S12095   1.253   2.004   5.644 -0.7693 -2.3658  0.1817
  116OSM   H17T12096   1.219   1.846   5.573  0.4526 -1.0566 -1.0883
  116OSM   C18S12097   1.307   1.997   5.436 -0.4569 -0.1750  0.2536
  116OSM   H18S12098   1.409   2.040   5.427 -0.6182 -0.1165 -2.1048
  116OSM   H18T12099   1.224   2.071   5.436  0.0070  0.3500 -0.1124
  116OSM   H18U12100   1.293   1.927   5.351  0.3204  1.2626 -1.1082
  116OSM    C1F12101   0.921   1.387   6.890  0.4308  0.4031 -0.8190
  116OSM     OF12102   0.805   1.410   6.926 -0.1178 -1.1898  0.0458
  116OSM    C2F12103   0.956   1.261   6.829  0.6448 -0.3788  0.4850
  116OSM    H2F12104   0.890   1.186   6.877  0.0584 -0.0276  0.2415
  116OSM    H2G12105   1.066   1.243   6.837  0.8838  1.2245  1.4110
  116OSM    C3F12106   0.911   1.250   6.674  0.0026  0.3874  0.4065
  116OSM    H3F12107   0.821   1.308   6.645  1.4207  1.6389 -1.7910
  116OSM    H3G12108   0.883   1.144   6.654 -0.7832  0.6648 -0.0106
  116OSM    C4F12109   1.022   1.301   6.578  0.0357 -0.6510  0.4495
  116OSM    H4F12110   1.116   1.242   6.582  0.5197  0.1897  2.7667
  116OSM    H4G12111   1.059   1.396   6.623 -1.6492  0.4923 -0.4751
  116OSM    C5F12112   0.965   1.325   6.443  0.4308  0.1215 -0.0779
  116OSM    H5F12113   0.863   1.368   6.454  0.4622 -0.1081  1.2947
  116OSM    H5G12114   0.961   1.230   6.385  2.2562 -0.1318  0.1558
  116OSM    C6F12115   1.042   1.427   6.354  0.4232 -0.1039 -1.0411
  116OSM    H6F12116   1.147   1.391   6.351  0.3290 -0.4658 -0.3365
  116OSM    H6G12117   1.043   1.523   6.410  0.1545 -0.9236  0.4112
  116OSM    C7F12118   0.976   1.444   6.213 -0.7155  0.2384 -0.3768
  116OSM    H7F12119   0.872   1.476   6.234 -0.0253  1.3172  1.7464
  116OSM    H7G12120   0.976   1.340   6.175  2.4935  0.4094 -1.1714
  116OSM    C8F12121   1.033   1.550   6.116  0.2669 -0.3607  0.2015
  116OSM    H8F12122   1.020   1.650   6.164  0.2921  0.1457 -0.8197
  116OSM    H8G12123   0.971   1.552   6.024  0.7481  1.9711 -0.1462
  116OSM    C9F12124   1.170   1.525   6.072  0.0366 -0.6276 -0.1060
  116OSM    H9F12125   1.243   1.583   6.130 -0.3802  0.5513 -0.7267
  116OSM   C10F12126   1.215   1.442   5.985 -0.8365  0.1963 -0.3630
  116OSM   H10F12127   1.322   1.445   5.959 -1.3027  1.8268 -2.3051
  116OSM   C11F12128   1.152   1.345   5.891  0.3489  0.1850  1.1836
  116OSM   H11F12129   1.045   1.318   5.909 -0.0899 -1.2081 -2.6672
  116OSM   H11G12130   1.206   1.249   5.878 -1.0017 -0.7551  2.1375
  116OSM   C12F12131   1.144   1.396   5.739  0.2820 -0.2632  0.1990
  116OSM   H12F12132   1.085   1.490   5.735  1.5374  0.5971  1.0069
  116OSM   H12G12133   1.101   1.318   5.673  0.6814 -0.0436 -0.3273
  116OSM   C13F12134   1.287   1.418   5.684  0.1053  0.1749 -0.0825
  116OSM   H13F12135   1.340   1.320   5.680 -2.7273 -1.4451 -2.5240
  116OSM   H13G12136   1.342   1.489   5.749 -0.1042 -1.0727  1.5220
  116OSM   C14F12137   1.280   1.482   5.552  0.3249 -0.4542 -0.0301
  116OSM   H14F12138   1.229   1.579   5.565  0.6912 -0.0526 -1.3639
  116OSM   H14G12139   1.204   1.435   5.486 -0.4322 -1.8821  1.7651
  116OSM   C15F12140   1.414   1.497   5.488 -0.2080 -0.3277  0.0818
  116OSM   H15F12141   1.457   1.395   5.482  1.0780  0.1734  0.5811
  116OSM   H15G12142   1.484   1.551   5.554 -0.9726 -0.8114  1.3247
  116OSM   C16F12143   1.395   1.569   5.348 -0.0984 -0.0301 -0.2182
  116OSM   H16F12144   1.374   1.677   5.361 -3.9426 -0.7162  0.3885
  116OSM   H16G12145   1.326   1.521   5.275  3.4590 -2.0145 -2.6163
  116OSM   C17F12146   1.524   1.546   5.268 -0.8748 -0.7252 -1.0325
  116OSM   H17F12147   1.604   1.579   5.337 -1.7838 -2.0332  0.7280
  116OSM   H17G12148   1.521   1.606   5.175  3.4371  2.3522  0.5113
  116OSM   C18F12149   1.556   1.402   5.232  0.3687  0.4122  0.0953
  116OSM   H18F12150   1.483   1.368   5.156 -0.0865  0.6053  0.4459
  116OSM   H18G12151   1.559   1.336   5.322 -0.5868 -0.9501 -0.8297
  116OSM   H18H12152   1.655   1.398   5.182 -0.9806 -1.1212 -2.6759
  117OSM      N12153   3.856   4.656   7.148  0.5672 -0.2586  0.5625
  117OSM    C1512154   3.746   4.715   7.228 -0.2879  0.2064 -0.1545
  117OSM   H15A12155   3.752   4.822   7.217 -3.5508  0.3123 -2.0057
  117OSM   H15B12156   3.751   4.686   7.333 -0.5069  0.7604  0.0096
  117OSM   H15C12157   3.650   4.687   7.188 -0.0520 -0.9923  0.0692
  117OSM    C1412158   3.855   4.510   7.170 -0.3160 -0.1579  0.0094
  117OSM   H14A12159   3.876   4.496   7.275  1.6061  0.5615 -0.2386
  117OSM   H14B12160   3.925   4.459   7.105  0.4633  0.5179  0.3062
  117OSM   H14C12161   3.761   4.472   7.133  1.0210 -2.4095 -1.3394
  117OSM    C1312162   3.814   4.675   7.005  0.0572 -0.6416 -0.4271
  117OSM   H13A12163   3.896   4.644   6.943  0.0432 -0.4986 -0.5176
  117OSM   H13B12164   3.789   4.778   6.985 -3.1805 -0.4863  3.1708
  117OSM   H13C12165   3.729   4.618   6.967  0.9589 -2.4834  0.1839
  117OSM    C1212166   3.991   4.719   7.181  0.6338 -0.0691  0.2681
  117OSM   H12A12167   4.076   4.668   7.138 -0.1429 -2.0332  0.9575
  117OSM   H12B12168   4.009   4.712   7.287 -0.7102 -1.2716  0.4540
  117OSM    C1112169   4.007   4.873   7.134 -0.0607 -0.3070  0.2865
  117OSM   H11A12170   4.004   4.861   7.024  1.7146 -0.9688  0.2796
  117OSM   H11B12171   4.109   4.913   7.156 -0.9399  3.3661 -1.5121
  117OSM      P12172   3.870   5.096   7.137  0.3568  0.3937  0.2890
  117OSM    O1312173   3.744   5.141   7.204  0.5284 -0.3239  0.1087
  117OSM    O1412174   3.983   5.192   7.141 -0.4066  0.0964 -0.4789
  117OSM    O1112175   3.828   5.060   6.987  0.3314 -0.5222 -0.2381
  117OSM    O1212176   3.912   4.957   7.194 -0.3240 -0.0527  0.0159
  117OSM    C1S12177   3.799   5.168   6.893 -0.5041  0.5294 -0.8443
  117OSM    H1S12178   3.871   5.251   6.911 -0.0743  0.3862 -1.8585
  117OSM    H1T12179   3.697   5.211   6.904  0.7136  3.5367 -0.0459
  117OSM     NF12180   3.791   5.231   6.662  0.1729  0.7060  0.2597
  117OSM    HNF12181   3.703   5.247   6.617  0.4304  0.6826 -0.2602
  117OSM    C2S12182   3.806   5.119   6.750 -0.5529  0.3612  0.3561
  117OSM    H2S12183   3.902   5.064   6.743 -1.4096 -1.1315 -0.1515
  117OSM    C3S12184   3.696   5.007   6.722 -0.4385  0.3132 -0.2656
  117OSM    H3S12185   3.599   5.062   6.720 -0.7850 -0.3028 -1.9010
  117OSM     O312186   3.683   4.912   6.822  0.0477 -0.5183  0.4773
  117OSM    HO312187   3.746   4.941   6.889 -0.3187 -0.3717  0.7587
  117OSM    C4S12188   3.721   4.941   6.589 -0.6414  0.3791 -0.9846
  117OSM    H4S12189   3.798   4.864   6.602  0.8554  2.0692  0.8670
  117OSM    C5S12190   3.654   4.970   6.474 -0.9356 -0.8870  0.3580
  117OSM    H5S12191   3.572   5.043   6.484 -2.7373 -2.9265  1.2263
  117OSM    C6S12192   3.689   4.907   6.344 -0.3821  0.1747 -0.3931
  117OSM    H6S12193   3.587   4.878   6.311 -0.6577 -1.2910  1.6319
  117OSM    H6T12194   3.756   4.819   6.346  1.3185  1.4155  1.9420
  117OSM    C7S12195   3.752   5.016   6.254 -0.3010 -0.5811  0.5938
  117OSM    H7S12196   3.834   5.063   6.312  1.8165 -0.6329 -2.1890
  117OSM    H7T12197   3.689   5.104   6.231  0.5162  0.7246  2.9784
  117OSM    C8S12198   3.817   4.959   6.122 -0.2897 -0.6364 -0.1244
  117OSM    H8S12199   3.894   4.881   6.137 -0.6666 -1.1275 -0.7030
  117OSM    H8T12200   3.862   5.047   6.071 -3.5737  1.9013  0.9919
  117OSM    C9S12201   3.719   4.888   6.033  0.9855 -0.3021 -0.3327
  117OSM    H9S12202   3.640   4.962   6.011  0.4410 -1.2722 -1.8019
  117OSM    H9T12203   3.670   4.805   6.088  0.6716 -0.5345 -0.9518
  117OSM   C10S12204   3.771   4.839   5.902  0.0862 -0.2949 -0.3276
  117OSM   H10S12205   3.686   4.776   5.870 -0.1102  0.4207 -1.2428
  117OSM   H10T12206   3.857   4.769   5.911 -0.4491 -0.7335  1.9220
  117OSM   C11S12207   3.828   4.948   5.797  0.4490  0.1503 -0.3600
  117OSM   H11S12208   3.915   4.995   5.847  0.2386 -0.3031  0.4485
  117OSM   H11T12209   3.751   5.028   5.785 -0.7541 -0.7717  0.8563
  117OSM   C12S12210   3.879   4.898   5.670  0.1354 -0.2061  0.0768
  117OSM   H12S12211   3.961   4.828   5.693 -0.3905 -0.2288  2.0818
  117OSM   H12T12212   3.925   4.988   5.624  1.3328 -0.0854  1.4328
  117OSM   C13S12213   3.783   4.824   5.573 -0.8902 -0.0273  0.1014
  117OSM   H13S12214   3.704   4.889   5.529 -1.8326 -1.6735 -0.7163
  117OSM   H13T12215   3.722   4.751   5.630  0.6768 -0.9963  0.6128
  117OSM   C14S12216   3.857   4.751   5.453  0.0425  0.0802 -0.6215
  117OSM   H14S12217   3.928   4.817   5.398  2.5296 -1.8168  0.1170
  117OSM   H14T12218   3.773   4.710   5.393 -2.1280 -0.6403  2.6661
  117OSM   C15S12219   3.942   4.627   5.491 -0.5047 -0.3589  0.1308
  117OSM   H15S12220   3.877   4.537   5.489  2.2462 -2.5582  2.2415
  117OSM   H15T12221   3.985   4.645   5.592 -0.5611  0.6761 -0.0237
  117OSM   C16S12222   4.043   4.605   5.380 -0.4328 -0.1165 -0.8534
  117OSM   H16S12223   4.126   4.551   5.432 -0.9605 -0.3506 -0.2476
  117OSM   H16T12224   4.083   4.704   5.352  0.9140 -0.3960 -0.0477
  117OSM   C17S12225   4.002   4.527   5.256  0.1302 -0.1278 -0.5768
  117OSM   H17S12226   3.903   4.478   5.269  1.5271 -2.7600  1.1196
  117OSM   H17T12227   4.071   4.440   5.245 -1.4001 -2.4897  4.8768
  117OSM   C18S12228   4.019   4.596   5.118 -0.0204  0.5690 -0.0155
  117OSM   H18S12229   3.995   4.705   5.122 -0.7459  0.3750  2.1704
  117OSM   H18T12230   3.958   4.544   5.041  1.5299 -0.0697 -0.8609
  117OSM   H18U12231   4.123   4.583   5.081  0.3314 -2.3513  1.7062
  117OSM    C1F12232   3.891   5.309   6.640  1.6035  0.1899 -0.3907
  117OSM     OF12233   3.988   5.298   6.712  0.1211 -0.3779  0.0412
  117OSM    C2F12234   3.879   5.404   6.530  0.0000 -0.3459 -0.6091
  117OSM    H2F12235   3.967   5.473   6.531 -0.3522  0.1029  0.5868
  117OSM    H2G12236   3.781   5.456   6.540 -0.2103 -0.9840  0.8854
  117OSM    C3F12237   3.876   5.335   6.392  0.5725  0.8790 -0.1774
  117OSM    H3F12238   3.795   5.260   6.388  0.4850  0.9809 -3.8855
  117OSM    H3G12239   3.973   5.282   6.377 -0.1349  0.2640 -3.2769
  117OSM    C4F12240   3.856   5.427   6.271  0.3296  0.0759  0.7101
  117OSM    H4F12241   3.925   5.514   6.278 -1.3493  1.3520  2.0851
  117OSM    H4G12242   3.755   5.472   6.276  0.5899  0.7362  0.1626
  117OSM    C5F12243   3.859   5.348   6.141 -0.1481  0.3776 -0.0334
  117OSM    H5F12244   3.789   5.263   6.155 -0.3380  0.8548  2.5003
  117OSM    H5G12245   3.962   5.308   6.128 -0.0119  0.3535  0.9797
  117OSM    C6F12246   3.804   5.428   6.022  0.4278  0.4098 -0.0634
  117OSM    H6F12247   3.860   5.521   6.000  0.2450  0.6669  0.5390
  117OSM    H6G12248   3.699   5.460   6.038  0.0063  0.2175 -2.1961
  117OSM    C7F12249   3.799   5.336   5.905  0.6623 -0.4844  0.1943
  117OSM    H7F12250   3.737   5.249   5.933  1.4710 -1.3968 -0.7841
  117OSM    H7G12251   3.905   5.304   5.905  1.8596  2.9159  2.6737
  117OSM    C8F12252   3.750   5.398   5.775  0.2293 -0.2873  0.6563
  117OSM    H8F12253   3.820   5.478   5.742 -1.7998  1.6506  0.8005
  117OSM    H8G12254   3.656   5.454   5.794  1.7008  3.3751 -1.8294
  117OSM    C9F12255   3.719   5.291   5.674  0.7535 -0.3749 -0.0170
  117OSM    H9F12256   3.624   5.235   5.682  0.5825 -0.5250 -2.3753
  117OSM   C10F12257   3.808   5.257   5.584  0.0869 -0.2167  0.2740
  117OSM   H10F12258   3.767   5.194   5.504  0.1921 -1.8389  1.4583
  117OSM   C11F12259   3.945   5.321   5.551  0.0866 -1.2013 -1.1117
  117OSM   H11F12260   4.009   5.229   5.545  1.6447 -0.3906  1.5524
  117OSM   H11G12261   3.985   5.375   5.639 -1.3515  0.5188 -1.4578
  117OSM   C12F12262   3.949   5.412   5.421  0.5305  0.0199  0.1716
  117OSM   H12F12263   3.883   5.498   5.447  0.9138 -0.1834  1.9389
  117OSM   H12G12264   3.923   5.367   5.323  0.6318  1.2417 -0.4388
  117OSM   C13F12265   4.085   5.461   5.396 -0.5312 -0.1932  0.3290
  117OSM   H13F12266   4.156   5.376   5.385  1.4649  1.2444  1.4306
  117OSM   H13G12267   4.123   5.521   5.481 -1.8027  0.6911  0.2965
  117OSM   C14F12268   4.089   5.550   5.268 -0.6002 -0.3412  0.0611
  117OSM   H14F12269   4.018   5.634   5.285  0.0258  0.7453 -2.2234
  117OSM   H14G12270   4.071   5.493   5.174  2.7266  1.7707 -2.0611
  117OSM   C15F12271   4.233   5.596   5.238 -0.3774  0.4165  0.0232
  117OSM   H15F12272   4.292   5.502   5.236 -1.2899 -0.2746  2.4889
  117OSM   H15G12273   4.269   5.642   5.332 -1.0949  0.0479  0.4878
  117OSM   C16F12274   4.245   5.687   5.121  0.7006  0.3472 -0.2101
  117OSM   H16F12275   4.202   5.787   5.144  0.9522  0.3366  0.3267
  117OSM   H16G12276   4.180   5.642   5.043 -0.8568  1.1099  0.5944
  117OSM   C17F12277   4.387   5.689   5.066  0.1572  0.9770 -0.2105
  117OSM   H17F12278   4.405   5.591   5.016 -0.9339  0.5754  0.1626
  117OSM   H17G12279   4.461   5.709   5.146 -0.8306 -3.6378  2.1603
  117OSM   C18F12280   4.394   5.789   4.954 -0.1976  0.2806  0.5985
  117OSM   H18F12281   4.333   5.752   4.869  1.4605  2.6461 -1.7992
  117OSM   H18G12282   4.491   5.804   4.902 -1.3552 -3.4670 -3.1871
  117OSM   H18H12283   4.358   5.885   4.995 -1.4137 -0.5135  1.4491
  118OSM      N12284   3.755   3.844   7.366 -0.0839  0.0532  0.4540
  118OSM    C1512285   3.856   3.738   7.373  0.1423  0.4135  0.4466
  118OSM   H15A12286   3.910   3.738   7.467  3.5531 -2.4030 -1.2647
  118OSM   H15B12287   3.933   3.758   7.301  1.3056 -2.6541  0.6658
  118OSM   H15C12288   3.825   3.638   7.346  2.1952  0.0747 -0.8830
  118OSM    C1412289   3.681   3.827   7.233 -0.2312  0.0495  0.6663
  118OSM   H14A12290   3.615   3.743   7.243  0.5433 -0.4912  1.3885
  118OSM   H14B12291   3.752   3.817   7.152 -0.4327 -3.5619  0.7916
  118OSM   H14C12292   3.627   3.918   7.211 -0.0885  0.0454  0.3036
  118OSM    C1312293   3.651   3.825   7.472  0.4378 -0.0045  0.4462
  118OSM   H13A12294   3.662   3.857   7.575  0.0075 -2.0806  1.1944
  118OSM   H13B12295   3.622   3.722   7.483 -1.3363  0.6597  2.7875
  118OSM   H13C12296   3.559   3.872   7.441  0.6956 -0.5448 -1.2390
  118OSM    C1212297   3.802   3.990   7.375  0.5145 -0.7431 -0.3902
  118OSM   H12A12298   3.870   4.014   7.295 -1.8481  1.0822 -2.0042
  118OSM   H12B12299   3.863   3.993   7.464 -0.7402  0.6223  0.4812
  118OSM    C1112300   3.699   4.108   7.373  0.4093  0.4353 -0.1491
  118OSM   H11A12301   3.751   4.205   7.391 -1.2633  1.6555 -1.6210
  118OSM   H11B12302   3.623   4.100   7.454  1.5091 -2.0104  0.7671
  118OSM      P12303   3.687   4.173   7.116 -0.0347  0.2513 -0.2379
  118OSM    O1312304   3.639   4.308   7.104  0.3876 -0.3186  0.1260
  118OSM    O1412305   3.833   4.150   7.105 -0.1273 -0.1686  0.0598
  118OSM    O1112306   3.616   4.092   7.002 -0.6710 -0.3203 -0.1594
  118OSM    O1212307   3.629   4.112   7.251  0.5513 -0.3303  0.6133
  118OSM    C1S12308   3.474   4.071   7.023 -0.0247  0.3213 -0.2395
  118OSM    H1S12309   3.422   4.167   7.044 -0.9527 -0.7839  3.2773
  118OSM    H1T12310   3.469   4.012   7.117  0.5627  2.1212  0.9733
  118OSM     NF12311   3.260   3.998   6.920 -0.0263 -0.2168 -0.7004
  118OSM    HNF12312   3.224   3.912   6.954 -0.6261  0.3898  0.2281
  118OSM    C2S12313   3.405   4.009   6.897  0.3362  0.1827 -0.4908
  118OSM    H2S12314   3.435   4.067   6.807  1.4434  0.4490  0.0477
  118OSM    C3S12315   3.463   3.862   6.868  0.0907 -0.1804  0.3296
  118OSM    H3S12316   3.451   3.800   6.959 -2.9989 -0.1461  0.0417
  118OSM     O312317   3.604   3.868   6.847  0.8446 -0.4423 -0.1666
  118OSM    HO312318   3.639   3.938   6.903  0.0814 -1.6483  1.9440
  118OSM    C4S12319   3.384   3.793   6.750  0.1467 -0.1381  0.4125
  118OSM    H4S12320   3.281   3.762   6.774 -0.9549  3.1300  0.5012
  118OSM    C5S12321   3.440   3.758   6.628  0.7773  0.7992 -0.0582
  118OSM    H5S12322   3.547   3.770   6.603  0.7488  1.0822 -0.0403
  118OSM    C6S12323   3.378   3.670   6.526 -0.4353  0.0595 -0.0140
  118OSM    H6S12324   3.328   3.739   6.455 -0.1593  1.6887  1.3091
  118OSM    H6T12325   3.300   3.601   6.563  1.1551 -2.4948 -1.1430
  118OSM    C7S12326   3.480   3.582   6.456  0.1588  0.5262 -0.9083
  118OSM    H7S12327   3.561   3.535   6.516 -0.7214  0.9627  0.6695
  118OSM    H7T12328   3.532   3.655   6.390  3.3495  0.9545  1.8016
  118OSM    C8S12329   3.421   3.469   6.364 -0.4354 -0.5219 -0.2613
  118OSM    H8S12330   3.335   3.417   6.411  1.0887 -2.3775  0.6669
  118OSM    H8T12331   3.503   3.394   6.357  0.7913  0.6083  1.0727
  118OSM    C9S12332   3.381   3.526   6.227  1.0242 -0.1920  0.1791
  118OSM    H9S12333   3.406   3.633   6.208  1.4538 -0.8212 -3.2607
  118OSM    H9T12334   3.271   3.516   6.233  1.1439 -1.7890  0.1840
  118OSM   C10S12335   3.467   3.446   6.131 -0.0076 -0.1517 -0.7228
  118OSM   H10S12336   3.445   3.337   6.131 -2.2645  0.1853 -3.0502
  118OSM   H10T12337   3.575   3.462   6.151 -0.3650 -0.3587  1.6765
  118OSM   C11S12338   3.446   3.482   5.987  0.3324  0.3156 -0.0333
  118OSM   H11S12339   3.448   3.590   5.963 -1.3074  0.1822 -0.9252
  118OSM   H11T12340   3.348   3.442   5.953  0.6327 -0.8674  0.4149
  118OSM   C12S12341   3.545   3.402   5.897  0.0383 -0.2080  0.0454
  118OSM   H12S12342   3.542   3.297   5.932 -0.1627 -0.4593 -0.7132
  118OSM   H12T12343   3.646   3.448   5.907  0.3622 -0.6914 -0.9038
  118OSM   C13S12344   3.489   3.413   5.750 -0.0845 -0.4290 -0.1594
  118OSM   H13S12345   3.493   3.522   5.733  2.2616 -0.3257  0.5992
  118OSM   H13T12346   3.386   3.371   5.751  1.1602 -3.8379  0.3838
  118OSM   C14S12347   3.578   3.347   5.639  0.0836 -0.0150  0.1530
  118OSM   H14S12348   3.545   3.244   5.612  0.4985 -0.5034  1.4637
  118OSM   H14T12349   3.680   3.339   5.681 -0.2537  0.3096  1.0572
  118OSM   C15S12350   3.553   3.426   5.501  0.6181  0.3798  0.2655
  118OSM   H15S12351   3.576   3.534   5.516  0.2324  0.5620 -0.4234
  118OSM   H15T12352   3.447   3.407   5.475  0.3935 -1.1553  2.1068
  118OSM   C16S12353   3.647   3.375   5.387  0.2222 -0.3615  0.1020
  118OSM   H16S12354   3.653   3.265   5.389 -1.4193 -0.5010 -0.5606
  118OSM   H16T12355   3.747   3.421   5.394  0.6730 -0.9228 -2.1152
  118OSM   C17S12356   3.575   3.387   5.249 -0.1079  0.1167 -0.0352
  118OSM   H17S12357   3.474   3.340   5.245 -1.3876  2.6609 -0.0201
  118OSM   H17T12358   3.632   3.360   5.157 -1.2260  1.3843 -1.1620
  118OSM   C18S12359   3.547   3.533   5.223  0.2219  0.3308 -0.1852
  118OSM   H18S12360   3.643   3.587   5.237  0.7915 -0.1981 -1.7628
  118OSM   H18T12361   3.469   3.575   5.290 -0.7331 -0.5887 -0.6907
  118OSM   H18U12362   3.511   3.544   5.118 -0.0210 -0.1290 -0.1537
  118OSM    C1F12363   3.179   4.097   6.922 -0.4648 -0.2206 -0.4617
  118OSM     OF12364   3.224   4.215   6.908 -0.2528 -0.1016  0.2288
  118OSM    C2F12365   3.030   4.056   6.955 -0.5889 -0.7011 -0.4367
  118OSM    H2F12366   3.012   4.045   7.065 -0.8721 -1.2733 -0.5332
  118OSM    H2G12367   3.015   3.966   6.892 -1.5521 -0.3109 -0.7943
  118OSM    C3F12368   2.919   4.164   6.916 -0.3346 -0.0870 -0.8669
  118OSM    H3F12369   2.949   4.187   6.812  0.2567  2.0531 -0.2727
  118OSM    H3G12370   2.922   4.255   6.980  2.4940 -0.2494 -0.6384
  118OSM    C4F12371   2.778   4.099   6.920  0.0225 -0.6639  0.2823
  118OSM    H4F12372   2.750   4.069   7.023  1.3561  1.4197  1.3236
  118OSM    H4G12373   2.783   4.018   6.844  0.3774 -1.0020  0.6633
  118OSM    C5F12374   2.673   4.200   6.864 -0.0373 -0.3385 -0.3740
  118OSM    H5F12375   2.683   4.294   6.923 -0.5175 -0.2590 -0.4211
  118OSM    H5G12376   2.569   4.168   6.882  0.3030  0.0946  3.0387
  118OSM    C6F12377   2.676   4.222   6.710  0.0092  0.6928 -0.2897
  118OSM    H6F12378   2.774   4.257   6.670 -0.3148  1.9912  0.0050
  118OSM    H6G12379   2.619   4.316   6.694  0.3496  1.1894  1.3027
  118OSM    C7F12380   2.607   4.107   6.634  0.8418  0.1634  0.6944
  118OSM    H7F12381   2.508   4.082   6.676  0.7222  1.2177  1.0640
  118OSM    H7G12382   2.672   4.018   6.651  2.4351  1.3403  1.0818
  118OSM    C8F12383   2.600   4.123   6.478  0.3680  0.3189  0.2737
  118OSM    H8F12384   2.521   4.198   6.460 -1.1245 -0.6384  2.4360
  118OSM    H8G12385   2.540   4.036   6.444  0.0442  1.5177 -2.4666
  118OSM    C9F12386   2.727   4.155   6.404  1.2018 -0.5973  0.2801
  118OSM    H9F12387   2.793   4.231   6.449 -0.2667  1.2955 -0.5846
  118OSM   C10F12388   2.778   4.089   6.301  0.1485 -0.4861  0.4452
  118OSM   H10F12389   2.858   4.134   6.240 -1.1128 -2.0322 -2.5583
  118OSM   C11F12390   2.716   3.972   6.238 -0.0336 -0.2961  0.5725
  118OSM   H11F12391   2.637   3.927   6.301 -1.2528 -1.8485 -1.8906
  118OSM   H11G12392   2.794   3.895   6.217  0.9523  0.7132  0.4495
  118OSM   C12F12393   2.635   4.018   6.115  1.1982 -0.4126  0.2335
  118OSM   H12F12394   2.563   4.093   6.153 -0.1693 -1.2764 -0.5490
  118OSM   H12G12395   2.573   3.931   6.082  0.9138  0.2069 -0.9198
  118OSM   C13F12396   2.712   4.068   5.998 -0.2232  0.0273 -0.0381
  118OSM   H13F12397   2.789   3.991   5.975 -1.5614 -1.6445  0.8992
  118OSM   H13G12398   2.763   4.166   6.012 -0.4251  0.1333 -0.0363
  118OSM   C14F12399   2.622   4.094   5.886  0.2210  0.9873 -0.0406
  118OSM   H14F12400   2.552   4.177   5.908 -1.1042  0.2145 -1.1623
  118OSM   H14G12401   2.552   4.008   5.877 -0.7595  1.5708  1.5858
  118OSM   C15F12402   2.698   4.102   5.755  0.0843 -0.1608  0.2553
  118OSM   H15F12403   2.746   4.003   5.735 -2.3107 -1.3134 -0.0961
  118OSM   H15G12404   2.774   4.183   5.755  1.2261 -1.1898 -0.4931
  118OSM   C16F12405   2.604   4.119   5.643 -0.0183  0.5549  0.9662
  118OSM   H16F12406   2.535   4.202   5.671 -0.6311 -0.0764  1.3667
  118OSM   H16G12407   2.540   4.031   5.621 -0.7917  0.8284  2.0042
  118OSM   C17F12408   2.676   4.167   5.513 -0.1502 -0.3148 -0.1562
  118OSM   H17F12409   2.755   4.097   5.479  0.4633  0.8118 -1.0988
  118OSM   H17G12410   2.733   4.259   5.538  0.9066 -0.9362 -0.2530
  118OSM   C18F12411   2.584   4.204   5.397  0.5523 -0.3174 -0.2642
  118OSM   H18F12412   2.509   4.279   5.431  1.8662  0.9100  0.0260
  118OSM   H18G12413   2.530   4.117   5.354 -1.4735  0.0724  1.3234
  118OSM   H18H12414   2.645   4.262   5.324  1.9767 -0.5392  0.6925
  119OSM      N12415   4.758   2.634   8.057  0.2215 -0.6085  0.6808
  119OSM    C1512416   4.802   2.625   8.199 -0.1850 -0.4756  0.8690
  119OSM   H15A12417   4.748   2.692   8.263  1.6222  0.1761  1.7970
  119OSM   H15B12418   4.908   2.642   8.210 -0.0632 -1.2522  0.9460
  119OSM   H15C12419   4.790   2.523   8.234 -1.1132 -0.8141 -0.3923
  119OSM    C1412420   4.620   2.569   8.044 -0.4907 -0.4624 -0.7601
  119OSM   H14A12421   4.575   2.586   7.947 -2.0792 -0.3069 -0.0289
  119OSM   H14B12422   4.549   2.607   8.115 -0.1297  2.6504 -1.9032
  119OSM   H14C12423   4.643   2.464   8.054 -0.6167 -0.4472 -0.3069
  119OSM    C1312424   4.748   2.781   8.039  0.1668  0.3375 -0.0751
  119OSM   H13A12425   4.848   2.821   8.037 -0.5422  2.5420  2.2814
  119OSM   H13B12426   4.690   2.823   8.121 -2.9311 -0.7501 -1.5543
  119OSM   H13C12427   4.688   2.802   7.952  0.6688  2.2571 -0.0064
  119OSM    C1212428   4.861   2.585   7.957 -0.3116  0.0203  0.2529
  119OSM   H12A12429   4.884   2.480   7.968  1.1309  0.3906  1.0425
  119OSM   H12B12430   4.956   2.634   7.973  0.3477 -0.4747 -1.8428
  119OSM    C1112431   4.818   2.605   7.810  0.3144 -0.0218  0.6617
  119OSM   H11A12432   4.901   2.566   7.747  0.9882 -1.5367  2.3804
  119OSM   H11B12433   4.821   2.714   7.787 -0.0529  0.1553  1.4162
  119OSM      P12434   4.673   2.411   7.717 -0.2038 -0.0750 -0.2722
  119OSM    O1312435   4.766   2.318   7.777 -0.5515  0.0929 -0.1292
  119OSM    O1412436   4.530   2.374   7.731 -0.5056  0.1996  0.3791
  119OSM    O1112437   4.708   2.427   7.562  0.0219 -0.3290 -0.8917
  119OSM    O1212438   4.689   2.561   7.777 -0.2171 -0.2739 -0.4761
  119OSM    C1S12439   4.664   2.542   7.484 -0.2205  0.7906  0.5778
  119OSM    H1S12440   4.699   2.642   7.516 -0.1429  1.1381 -0.5431
  119OSM    H1T12441   4.553   2.539   7.495 -0.1601 -1.3607  1.0082
  119OSM     NF12442   4.684   2.660   7.255 -0.1947 -0.4845 -0.4783
  119OSM    HNF12443   4.592   2.671   7.216 -0.7598  0.7317  1.1096
  119OSM    C2S12444   4.699   2.534   7.328  0.0259  0.0447 -0.2247
  119OSM    H2S12445   4.806   2.504   7.322  0.3763  1.0582  0.5897
  119OSM    C3S12446   4.611   2.409   7.269 -0.1899 -1.1978  0.2578
  119OSM    H3S12447   4.509   2.450   7.249  0.1763 -1.3951 -2.4028
  119OSM     O312448   4.598   2.296   7.355 -0.4895  0.1946  0.2593
  119OSM    HO312449   4.637   2.324   7.438 -3.3186  4.2641  0.5050
  119OSM    C4S12450   4.683   2.375   7.139  0.0038  0.1719 -0.1438
  119OSM    H4S12451   4.790   2.385   7.160  0.0435  1.1685 -0.7831
  119OSM    C5S12452   4.634   2.337   7.023  0.1535  0.6077 -0.3204
  119OSM    H5S12453   4.525   2.330   7.007  0.1721  2.5650 -1.5817
  119OSM    C6S12454   4.717   2.302   6.906  0.6848  1.2397  0.1685
  119OSM    H6S12455   4.656   2.308   6.814 -2.1374  1.4307  1.9213
  119OSM    H6T12456   4.749   2.196   6.912 -1.3480  0.5329 -0.4188
  119OSM    C7S12457   4.840   2.397   6.886 -0.0974 -0.0533  0.2763
  119OSM    H7S12458   4.921   2.381   6.961 -1.2630  0.5407  1.7146
  119OSM    H7T12459   4.809   2.503   6.897 -1.8522 -0.0712 -3.0856
  119OSM    C8S12460   4.901   2.388   6.747  0.2082 -0.2430 -0.2752
  119OSM    H8S12461   5.002   2.435   6.747  1.5025 -2.8656 -0.0360
  119OSM    H8T12462   4.838   2.449   6.678  0.8020  1.7380  0.8464
  119OSM    C9S12463   4.919   2.237   6.690  0.4008  0.5738 -0.6947
  119OSM    H9S12464   4.814   2.199   6.691 -0.0407  1.7477 -0.2174
  119OSM    H9T12465   4.974   2.185   6.771 -1.2375 -0.3889 -0.1412
  119OSM   C10S12466   4.993   2.232   6.556 -0.7925  0.8315  0.5195
  119OSM   H10S12467   5.009   2.125   6.528  0.6454  1.5182 -1.5872
  119OSM   H10T12468   5.094   2.278   6.565  1.5570 -3.4506 -0.8094
  119OSM   C11S12469   4.916   2.290   6.438  0.2661 -0.1708  0.8797
  119OSM   H11S12470   4.920   2.399   6.459 -0.1968 -0.1215  0.7141
  119OSM   H11T12471   4.808   2.267   6.448  0.3309  0.1270  2.5612
  119OSM   C12S12472   4.964   2.254   6.295 -0.2120 -0.1582 -0.1100
  119OSM   H12S12473   4.872   2.265   6.233 -0.6422 -0.7817  0.4030
  119OSM   H12T12474   4.978   2.144   6.285  1.6705  0.1834 -1.8475
  119OSM   C13S12475   5.070   2.341   6.244  0.4797  0.0981 -0.3586
  119OSM   H13S12476   5.149   2.360   6.319 -1.1530  2.0144  0.9891
  119OSM   H13T12477   5.028   2.443   6.231 -0.1558  0.5871  3.9561
  119OSM   C14S12478   5.139   2.298   6.110  0.0224 -0.1683 -0.2214
  119OSM   H14S12479   5.062   2.274   6.033 -1.5630  2.0117  0.6024
  119OSM   H14T12480   5.213   2.216   6.125  1.4421  1.0242 -0.3987
  119OSM   C15S12481   5.216   2.418   6.050  0.2385  0.5146  0.1303
  119OSM   H15S12482   5.283   2.464   6.125 -0.6499  0.8089  0.7486
  119OSM   H15T12483   5.134   2.489   6.026  0.3552  1.4240  2.2258
  119OSM   C16S12484   5.295   2.374   5.928 -0.0477  0.0087  0.2151
  119OSM   H16S12485   5.229   2.329   5.851  0.9701  1.3744 -1.5032
  119OSM   H16T12486   5.366   2.293   5.958  1.3884  0.9183 -0.6393
  119OSM   C17S12487   5.374   2.480   5.858  0.3061 -0.2965 -0.3426
  119OSM   H17S12488   5.417   2.558   5.925 -0.4553  2.1802 -2.5584
  119OSM   H17T12489   5.305   2.540   5.795  0.9810  2.9014  1.7049
  119OSM   C18S12490   5.490   2.431   5.774 -0.2866 -0.3816 -0.0248
  119OSM   H18S12491   5.579   2.395   5.830 -0.9336  0.5431  1.6775
  119OSM   H18T12492   5.525   2.514   5.709 -2.9129  0.1480 -0.8677
  119OSM   H18U12493   5.449   2.349   5.712  2.0626 -0.9476 -0.9331
  119OSM    C1F12494   4.771   2.761   7.276  0.1187  0.3172  0.6370
  119OSM     OF12495   4.869   2.747   7.341  0.3144  0.2623 -0.2884
  119OSM    C2F12496   4.729   2.887   7.215  0.4954 -0.2271  0.2327
  119OSM    H2F12497   4.708   2.951   7.303  0.5942 -1.0367  0.8560
  119OSM    H2G12498   4.638   2.880   7.152 -0.4877  1.3868  1.3963
  119OSM    C3F12499   4.839   2.959   7.137 -0.7820 -0.1614  0.6068
  119OSM    H3F12500   4.925   2.983   7.203  1.0523  0.1581 -1.7521
  119OSM    H3G12501   4.796   3.057   7.109 -1.1108 -0.1506  1.1340
  119OSM    C4F12502   4.898   2.885   7.014  0.0314 -0.9403 -0.6990
  119OSM    H4F12503   4.943   2.788   7.044  3.1564  0.6831  0.3391
  119OSM    H4G12504   4.982   2.951   6.981  1.3394 -1.8637  0.6431
  119OSM    C5F12505   4.798   2.880   6.901  0.0237  0.3979  0.2094
  119OSM    H5F12506   4.779   2.977   6.850  0.6344  0.7654  0.6694
  119OSM    H5G12507   4.702   2.838   6.937 -0.8750  2.3225  0.1613
  119OSM    C6F12508   4.851   2.781   6.790  0.4269 -0.4578  0.4521
  119OSM    H6F12509   4.761   2.765   6.726  0.8352 -3.4475  0.4947
  119OSM    H6G12510   4.885   2.687   6.838 -0.4253 -1.5993 -1.0969
  119OSM    C7F12511   4.949   2.839   6.687  0.1259 -0.8870 -0.5591
  119OSM    H7F12512   4.994   2.758   6.626  0.7864 -2.6513  2.1091
  119OSM    H7G12513   5.036   2.871   6.748  1.1728 -2.4233 -1.1686
  119OSM    C8F12514   4.894   2.957   6.600  0.4763  0.2757  0.7373
  119OSM    H8F12515   4.863   3.048   6.656  1.7235 -0.0932  2.0859
  119OSM    H8G12516   4.808   2.914   6.544  2.0474 -2.0353 -0.0315
  119OSM    C9F12517   5.004   2.998   6.506  0.5223 -0.5766  0.0689
  119OSM    H9F12518   5.090   3.051   6.550  0.7525 -1.6797  0.9761
  119OSM   C10F12519   5.020   2.964   6.379  0.7961 -0.4612  0.6970
  119OSM   H10F12520   5.119   2.987   6.337 -0.6395  0.1738 -2.6987
  119OSM   C11F12521   4.927   2.888   6.289 -0.7078  0.6089 -0.1315
  119OSM   H11F12522   4.941   2.917   6.183 -0.9357 -1.8840 -0.9079
  119OSM   H11G12523   4.824   2.912   6.320 -0.5520  0.3465  0.6151
  119OSM   C12F12524   4.933   2.736   6.312 -0.4382 -0.0998  0.0410
  119OSM   H12F12525   4.931   2.721   6.422  4.1468  0.8232  0.4609
  119OSM   H12G12526   5.036   2.696   6.297 -0.6719 -0.4957 -0.5490
  119OSM   C13F12527   4.817   2.656   6.237 -0.4184  0.0815 -0.1108
  119OSM   H13F12528   4.724   2.718   6.241  0.8410  2.0337  0.4203
  119OSM   H13G12529   4.801   2.557   6.284  1.8359  0.6204  1.9888
  119OSM   C14F12530   4.848   2.654   6.081 -0.0612 -0.3903  0.2279
  119OSM   H14F12531   4.959   2.654   6.076 -0.0436  1.3200 -0.1560
  119OSM   H14G12532   4.815   2.756   6.050  0.5224  0.5312  2.4604
  119OSM   C15F12533   4.783   2.544   6.006  0.5146 -0.3719 -0.2144
  119OSM   H15F12534   4.672   2.549   6.005  0.4882 -0.9347 -0.1615
  119OSM   H15G12535   4.813   2.445   6.044  1.5465 -0.0896 -0.2681
  119OSM   C16F12536   4.827   2.553   5.856 -0.1504 -0.1621 -1.1082
  119OSM   H16F12537   4.938   2.563   5.857 -0.2339  1.6173  1.9603
  119OSM   H16G12538   4.793   2.642   5.799 -1.2939 -0.7887 -1.4453
  119OSM   C17F12539   4.776   2.430   5.777  0.0720  0.6914  0.3949
  119OSM   H17F12540   4.666   2.441   5.766  0.3499  2.2328 -1.2854
  119OSM   H17G12541   4.804   2.342   5.839  1.3523  0.5824 -0.3020
  119OSM   C18F12542   4.840   2.423   5.635  0.1871 -0.2519  0.0623
  119OSM   H18F12543   4.821   2.321   5.596  1.0280 -0.4786  0.2191
  119OSM   H18G12544   4.948   2.444   5.649 -0.4836  2.0640  3.0389
  119OSM   H18H12545   4.791   2.505   5.578 -0.8748 -0.5045  0.5858
  120OSM      N12546   6.948   5.144   7.628  0.0467 -0.0595 -0.0125
  120OSM    C1512547   6.845   5.113   7.522 -0.7775  0.3716  0.0615
  120OSM   H15A12548   6.849   5.172   7.431  0.5711  0.6476  0.2674
  120OSM   H15B12549   6.745   5.109   7.561 -1.1521  3.3655 -0.3344
  120OSM   H15C12550   6.853   5.011   7.487 -1.7732 -0.8307  3.0639
  120OSM    C1412551   6.945   5.056   7.748 -0.1363  0.3193 -0.2825
  120OSM   H14A12552   6.850   5.071   7.798  0.3958  1.3112  0.4710
  120OSM   H14B12553   7.017   5.087   7.823 -1.4958  2.4823  0.2290
  120OSM   H14C12554   6.967   4.956   7.715 -2.6808 -0.4487  0.1122
  120OSM    C1312555   7.080   5.116   7.562  0.0838 -0.2482  0.8209
  120OSM   H13A12556   7.088   5.010   7.580  2.3163 -0.3839 -0.6565
  120OSM   H13B12557   7.152   5.163   7.628  2.2177 -1.7914 -0.3247
  120OSM   H13C12558   7.094   5.143   7.459 -0.7143  1.9308  1.2188
  120OSM    C1212559   6.930   5.285   7.659 -0.1494 -0.6564 -0.0759
  120OSM   H12A12560   6.837   5.300   7.712  0.9356 -1.6600  2.2537
  120OSM   H12B12561   6.943   5.338   7.566  3.2055 -3.0588 -1.1401
  120OSM    C1112562   7.043   5.356   7.741 -0.1361  0.0828  0.0448
  120OSM   H11A12563   7.040   5.299   7.837 -4.0499  1.2252  0.7794
  120OSM   H11B12564   7.022   5.457   7.783  3.3988  1.5330 -1.3728
  120OSM      P12565   7.210   5.452   7.564 -0.3720  0.1300 -0.5403
  120OSM    O1312566   7.166   5.591   7.587  0.2798 -0.0843 -0.3586
  120OSM    O1412567   7.353   5.436   7.529  0.6356  0.3720  0.3029
  120OSM    O1112568   7.123   5.390   7.449  0.0696 -0.1143  0.3121
  120OSM    O1212569   7.171   5.360   7.681  0.8002 -0.4431 -0.0607
  120OSM    C1S12570   7.082   5.473   7.331  0.2231 -0.1574 -0.4689
  120OSM    H1S12571   7.126   5.574   7.341 -0.5302  0.0120  1.8688
  120OSM    H1T12572   6.971   5.487   7.333 -0.2018 -2.8975 -0.5788
  120OSM     NF12573   7.075   5.511   7.103 -0.5449  0.3190  0.6817
  120OSM    HNF12574   6.985   5.482   7.069  0.1342  0.1408 -1.0941
  120OSM    C2S12575   7.131   5.413   7.197  0.1985  0.4946 -0.0611
  120OSM    H2S12576   7.241   5.420   7.199  0.2327  0.0810 -0.3742
  120OSM    C3S12577   7.085   5.269   7.195  0.5151  0.3381  0.5320
  120OSM    H3S12578   6.990   5.259   7.253  0.6507 -0.6938  0.5807
  120OSM     O312579   7.180   5.178   7.251 -0.5307 -0.2178  0.0619
  120OSM    HO312580   7.242   5.231   7.301 -1.4893  0.5553  0.4649
  120OSM    C4S12581   7.065   5.224   7.054  0.5423  0.6332  0.4772
  120OSM    H4S12582   7.149   5.165   7.015 -0.0153  0.3259 -0.2791
  120OSM    C5S12583   6.955   5.224   6.969  0.6983  0.1548 -0.3653
  120OSM    H5S12584   6.866   5.276   7.007  0.4220 -1.8288  1.9478
  120OSM    C6S12585   6.935   5.158   6.839  0.2117  0.1249  0.8516
  120OSM    H6S12586   6.834   5.158   6.793  0.5794 -1.3675 -0.0262
  120OSM    H6T12587   6.961   5.051   6.850  0.3141  0.1243  0.6330
  120OSM    C7S12588   7.016   5.234   6.730 -0.3146 -0.0648  0.5613
  120OSM    H7S12589   7.123   5.223   6.759 -0.2513  0.1424  0.4117
  120OSM    H7T12590   6.995   5.343   6.740  2.4432  0.8009 -1.7356
  120OSM    C8S12591   6.969   5.198   6.583 -0.4090  0.0014 -0.0245
  120OSM    H8S12592   6.859   5.186   6.575 -0.9131  2.9676  1.2024
  120OSM    H8T12593   7.019   5.099   6.585 -2.6469 -1.1858 -0.2420
  120OSM    C9S12594   7.010   5.301   6.476 -0.4603 -0.3341 -0.3075
  120OSM    H9S12595   7.023   5.238   6.385  1.5448 -2.2712  1.2087
  120OSM    H9T12596   7.114   5.338   6.486 -0.9026  1.1478 -0.8598
  120OSM   C10S12597   6.917   5.415   6.451 -0.1071 -0.0572  0.2732
  120OSM   H10S12598   6.938   5.483   6.536 -1.6204 -0.7207  1.2193
  120OSM   H10T12599   6.813   5.378   6.453  0.3540 -1.4308  0.1102
  120OSM   C11S12600   6.953   5.470   6.312  0.7831  0.5598 -0.4378
  120OSM   H11S12601   7.046   5.428   6.268  1.6181  0.3778  1.4084
  120OSM   H11T12602   6.969   5.580   6.318  0.3380  0.5487  1.2125
  120OSM   C12S12603   6.838   5.447   6.211 -0.0158 -0.4889 -0.4319
  120OSM   H12S12604   6.744   5.473   6.264  0.9066  1.7189  0.2144
  120OSM   H12T12605   6.834   5.339   6.185  1.4445 -0.5451 -0.4921
  120OSM   C13S12606   6.862   5.525   6.084 -0.2984 -0.2301 -0.0843
  120OSM   H13S12607   6.907   5.624   6.106 -2.4202  0.9564 -0.8388
  120OSM   H13T12608   6.767   5.540   6.029 -0.0601  0.2326 -0.3743
  120OSM   C14S12609   6.963   5.450   5.984 -0.7851  0.0221  0.0259
  120OSM   H14S12610   7.041   5.406   6.050 -1.3160 -1.7709 -0.4929
  120OSM   H14T12611   7.015   5.527   5.923  0.9439  1.1118  2.6631
  120OSM   C15S12612   6.895   5.357   5.882 -0.0327 -0.1132 -0.9265
  120OSM   H15S12613   6.805   5.404   5.838  0.9468  4.3091  1.2233
  120OSM   H15T12614   6.859   5.270   5.941 -1.1539  0.2150 -1.1141
  120OSM   C16S12615   6.989   5.288   5.788  0.1918 -0.4734 -0.0745
  120OSM   H16S12616   6.938   5.219   5.717  0.1059 -0.5438  0.0534
  120OSM   H16T12617   7.066   5.226   5.838 -0.0566  0.1215  1.0930
  120OSM   C17S12618   7.069   5.388   5.714  0.3793  0.1683  0.3292
  120OSM   H17S12619   7.126   5.453   5.784  0.2376  1.9809 -1.1654
  120OSM   H17T12620   7.000   5.456   5.660 -0.3403  0.2086  1.2713
  120OSM   C18S12621   7.164   5.318   5.615 -0.1729  0.6600 -0.7075
  120OSM   H18S12622   7.200   5.392   5.541 -1.2421 -1.3390 -3.3535
  120OSM   H18T12623   7.099   5.248   5.559  1.1561 -2.2873  1.1965
  120OSM   H18U12624   7.246   5.274   5.676 -0.7345  0.9408  0.2898
  120OSM    C1F12625   7.131   5.632   7.073  0.3697 -0.5086  0.2214
  120OSM     OF12626   7.227   5.678   7.132  0.1875 -0.3062 -0.5685
  120OSM    C2F12627   7.074   5.725   6.981 -0.6171 -0.8105 -0.6192
  120OSM    H2F12628   7.121   5.824   6.996 -1.4622 -0.6943  1.8657
  120OSM    H2G12629   6.966   5.730   7.008 -0.4014  0.1674  0.0971
  120OSM    C3F12630   7.091   5.658   6.843  0.1407 -0.4692 -0.5509
  120OSM    H3F12631   7.015   5.715   6.785 -0.0107  0.2512  0.3318
  120OSM    H3G12632   7.055   5.552   6.845 -1.3489  0.0148 -0.2996
  120OSM    C4F12633   7.237   5.672   6.792  0.7255  0.6084 -0.1623
  120OSM    H4F12634   7.299   5.641   6.878 -1.1175 -1.4405  0.5051
  120OSM    H4G12635   7.250   5.781   6.775 -1.1077  1.0787  1.2342
  120OSM    C5F12636   7.263   5.589   6.662 -0.5456 -0.4139 -0.2898
  120OSM    H5F12637   7.197   5.625   6.581  0.1869 -1.1296 -1.2295
  120OSM    H5G12638   7.229   5.486   6.687  0.1946 -0.8290 -0.9223
  120OSM    C6F12639   7.407   5.603   6.616  0.6101  1.1565 -0.1004
  120OSM    H6F12640   7.428   5.709   6.590 -2.2914  1.0484 -3.7100
  120OSM    H6G12641   7.419   5.543   6.522  0.0180 -0.1413  0.6273
  120OSM    C7F12642   7.505   5.536   6.715  0.3029 -0.2479  0.1515
  120OSM    H7F12643   7.483   5.432   6.747 -0.3493 -0.2244 -0.2063
  120OSM    H7G12644   7.501   5.598   6.807  0.4150 -0.4207  0.2737
  120OSM    C8F12645   7.664   5.542   6.687 -0.5042 -0.1020 -0.0309
  120OSM    H8F12646   7.669   5.484   6.592 -0.7815  0.2676 -0.2739
  120OSM    H8G12647   7.718   5.498   6.773  0.9491  0.4675 -0.6354
  120OSM    C9F12648   7.708   5.685   6.677 -0.0435  0.4782  0.0678
  120OSM    H9F12649   7.662   5.747   6.756 -0.5565 -0.7534  0.7617
  120OSM   C10F12650   7.774   5.743   6.575 -0.4206 -0.0787  0.0296
  120OSM   H10F12651   7.786   5.853   6.579  1.2749 -0.2042 -0.6634
  120OSM   C11F12652   7.828   5.679   6.449  0.1270 -0.1436  0.4545
  120OSM   H11F12653   7.799   5.572   6.440  0.0786  0.0130 -1.5926
  120OSM   H11G12654   7.938   5.693   6.441  0.0448  0.2472 -0.0291
  120OSM   C12F12655   7.771   5.745   6.321  0.1867  0.1451  0.2193
  120OSM   H12F12656   7.778   5.855   6.340 -1.7001  0.0892  1.5452
  120OSM   H12G12657   7.663   5.721   6.315  0.4999 -1.2995  0.1788
  120OSM   C13F12658   7.839   5.687   6.199 -0.6042 -0.1859  0.1536
  120OSM   H13F12659   7.832   5.576   6.199 -0.8170 -0.2371  3.1182
  120OSM   H13G12660   7.946   5.717   6.194  0.2052 -2.9440 -0.5969
  120OSM   C14F12661   7.782   5.729   6.062  0.3697 -0.2313  0.1763
  120OSM   H14F12662   7.780   5.840   6.072  1.4849 -0.3046  1.4894
  120OSM   H14G12663   7.676   5.699   6.049  0.2947 -0.5540  1.4198
  120OSM   C15F12664   7.856   5.666   5.934  0.1659  0.2202  0.3470
  120OSM   H15F12665   7.966   5.680   5.934 -0.0568  2.1887  0.9185
  120OSM   H15G12666   7.817   5.734   5.855  0.7279  0.4003  0.2237
  120OSM   C16F12667   7.815   5.512   5.915 -0.3006  0.7457  0.0698
  120OSM   H16F12668   7.707   5.486   5.905 -0.2230 -0.8166  2.4346
  120OSM   H16G12669   7.848   5.470   6.012 -0.2577  0.4973 -0.0537
  120OSM   C17F12670   7.889   5.455   5.796 -0.1882  0.1377  0.5579
  120OSM   H17F12671   7.988   5.420   5.833  0.6505 -0.7815 -2.2312
  120OSM   H17G12672   7.906   5.531   5.717  0.5728 -0.1664  0.4241
  120OSM   C18F12673   7.822   5.324   5.742  0.2518 -0.0789  0.2202
  120OSM   H18F12674   7.842   5.243   5.815 -0.7136 -0.8067 -0.2929
  120OSM   H18G12675   7.886   5.311   5.651  0.8442  1.4381  0.3960
  120OSM   H18H12676   7.713   5.332   5.726 -0.0905 -1.2147  1.8163
  121OSM      N12677   1.963   3.809   7.581  0.2100 -0.0346  0.3809
  121OSM    C1512678   1.997   3.674   7.627 -0.2303  0.4866 -0.5248
  121OSM   H15A12679   2.064   3.628   7.556  0.8519  0.0692  0.7377
  121OSM   H15B12680   1.904   3.619   7.626  0.4864 -0.7926  0.7441
  121OSM   H15C12681   2.035   3.675   7.728 -1.4592 -1.8740  0.0336
  121OSM    C1412682   1.854   3.862   7.669  0.1684 -0.5503 -0.0230
  121OSM   H14A12683   1.892   3.873   7.770  0.1157 -1.4037  0.1038
  121OSM   H14B12684   1.772   3.792   7.666 -1.9015  1.7643 -0.5504
  121OSM   H14C12685   1.810   3.951   7.627  0.1709  0.1028  1.2867
  121OSM    C1312686   2.079   3.899   7.599 -0.1741 -0.8662  1.0733
  121OSM   H13A12687   2.106   3.912   7.703  0.5007 -2.3182  1.1049
  121OSM   H13B12688   2.058   3.996   7.557 -0.0975 -1.3223 -0.0386
  121OSM   H13C12689   2.172   3.860   7.560  0.8831  1.7407  0.7804
  121OSM    C1212690   1.910   3.802   7.438 -0.3306  0.3375  0.2357
  121OSM   H12A12691   1.989   3.777   7.368  0.5939  0.2884  1.2712
  121OSM   H12B12692   1.889   3.903   7.404  0.2622  0.6893  0.9002
  121OSM    C1112693   1.790   3.714   7.403  0.2415  0.1675  0.4742
  121OSM   H11A12694   1.798   3.609   7.438 -2.0421 -0.5879 -1.0510
  121OSM   H11B12695   1.790   3.698   7.293 -1.3102 -3.6825  0.9037
  121OSM      P12696   1.543   3.704   7.489 -0.4244 -0.0280  0.1692
  121OSM    O1312697   1.578   3.717   7.635  0.2521 -0.2546  0.4477
  121OSM    O1412698   1.417   3.774   7.447 -0.2155 -0.4068  0.3225
  121OSM    O1112699   1.542   3.561   7.441 -1.0510  0.5261 -0.1600
  121OSM    O1212700   1.665   3.777   7.421 -0.3846  0.0353 -0.6084
  121OSM    C1S12701   1.473   3.516   7.326 -0.4263 -0.2395  0.6995
  121OSM    H1S12702   1.454   3.587   7.243  0.0276 -0.5343  0.3419
  121OSM    H1T12703   1.374   3.474   7.353 -0.1609 -0.7738  0.8621
  121OSM     NF12704   1.466   3.341   7.138 -0.2192 -0.6492  0.5315
  121OSM    HNF12705   1.418   3.256   7.159  0.1738 -1.1315 -0.4409
  121OSM    C2S12706   1.547   3.397   7.248  0.3069 -0.6971  0.3177
  121OSM    H2S12707   1.630   3.447   7.193 -2.6308  1.2951 -2.7570
  121OSM    C3S12708   1.589   3.281   7.339  0.1832  0.6845 -0.1686
  121OSM    H3S12709   1.496   3.234   7.379 -0.0806  3.2539  2.6217
  121OSM     O312710   1.662   3.308   7.457 -0.2916  0.1527  0.6836
  121OSM    HO312711   1.642   3.400   7.478  1.1943  0.5173  0.5766
  121OSM    C4S12712   1.654   3.175   7.258  0.5283 -0.7002 -0.1854
  121OSM    H4S12713   1.582   3.100   7.221 -1.1234  1.0368 -0.7067
  121OSM    C5S12714   1.780   3.155   7.217  0.4422  0.3938  0.1742
  121OSM    H5S12715   1.863   3.223   7.241  3.0936 -1.8740 -1.9179
  121OSM    C6S12716   1.818   3.037   7.132 -0.6078 -0.0443 -0.5195
  121OSM    H6S12717   1.858   2.950   7.189  3.4044 -0.2722 -3.2339
  121OSM    H6T12718   1.903   3.059   7.064 -1.3887 -1.0678 -1.8947
  121OSM    C7S12719   1.713   2.969   7.035  0.7550  0.3348 -0.0325
  121OSM    H7S12720   1.620   2.944   7.090 -0.0428  0.2711 -1.3703
  121OSM    H7T12721   1.758   2.874   6.998  1.3536 -1.2324  4.2116
  121OSM    C8S12722   1.670   3.061   6.923  0.4202  0.5274  0.5687
  121OSM    H8S12723   1.761   3.110   6.885 -1.1000  2.1106 -1.2481
  121OSM    H8T12724   1.605   3.145   6.956 -0.3416  0.4949 -0.7779
  121OSM    C9S12725   1.605   2.979   6.807  0.2865 -0.2376 -0.1095
  121OSM    H9S12726   1.516   2.920   6.840  1.3193 -1.2665  0.9327
  121OSM    H9T12727   1.677   2.897   6.787  1.6930  1.2299 -1.2877
  121OSM   C10S12728   1.573   3.071   6.693 -0.1597  0.1922  1.1411
  121OSM   H10S12729   1.664   3.130   6.671 -0.5470  0.9583  1.5599
  121OSM   H10T12730   1.494   3.147   6.711 -0.8759 -0.1324 -0.4244
  121OSM   C11S12731   1.527   2.988   6.572 -0.3990  0.0119  0.0687
  121OSM   H11S12732   1.419   2.961   6.580 -0.5811 -0.0570 -2.1519
  121OSM   H11T12733   1.579   2.890   6.575  1.1635  0.7893 -0.6122
  121OSM   C12S12734   1.537   3.044   6.434  0.6619  0.2510 -0.2886
  121OSM   H12S12735   1.645   3.067   6.422  0.6742  0.1988 -0.2778
  121OSM   H12T12736   1.476   3.135   6.415 -0.0370 -0.6881 -2.9501
  121OSM   C13S12737   1.497   2.940   6.331  0.0063 -0.2780  0.3934
  121OSM   H13S12738   1.392   2.905   6.347  0.7571 -2.5972  0.6262
  121OSM   H13T12739   1.572   2.862   6.351 -1.2476 -1.4169  0.8360
  121OSM   C14S12740   1.506   2.997   6.190 -0.0786 -0.7769  0.3681
  121OSM   H14S12741   1.484   2.909   6.125  0.3506 -1.3143  0.9321
  121OSM   H14T12742   1.604   3.046   6.173 -0.3867 -0.4730 -0.5803
  121OSM   C15S12743   1.394   3.091   6.158 -0.4916 -0.9563 -0.6607
  121OSM   H15S12744   1.424   3.194   6.185  0.5091 -1.0687 -1.2694
  121OSM   H15T12745   1.299   3.053   6.200  0.6549 -3.9474 -0.4875
  121OSM   C16S12746   1.369   3.092   6.004 -0.2959  0.6488 -0.2351
  121OSM   H16S12747   1.287   3.164   5.981  0.3727  1.1245 -1.1939
  121OSM   H16T12748   1.348   2.987   5.978 -0.0474  0.9771 -1.8525
  121OSM   C17S12749   1.485   3.154   5.922 -0.6272  0.4724  0.1462
  121OSM   H17S12750   1.574   3.088   5.932 -0.7328  0.1559 -0.8908
  121OSM   H17T12751   1.518   3.254   5.957  1.7203  0.2631 -1.2879
  121OSM   C18S12752   1.478   3.153   5.769  0.3812 -0.5192 -0.0068
  121OSM   H18S12753   1.423   3.242   5.731  0.5183 -0.0765  0.8022
  121OSM   H18T12754   1.434   3.058   5.732  0.4391  0.2109 -2.0539
  121OSM   H18U12755   1.583   3.160   5.732 -0.5235  1.3258 -2.5576
  121OSM    C1F12756   1.434   3.411   7.029  0.3188 -0.0352  0.3201
  121OSM     OF12757   1.503   3.511   7.008 -0.8921 -0.0333 -0.1605
  121OSM    C2F12758   1.311   3.363   6.948 -0.1718  0.0472 -0.4564
  121OSM    H2F12759   1.218   3.386   7.003 -0.7829 -1.8819 -0.6095
  121OSM    H2G12760   1.310   3.252   6.953 -1.4385  0.0735  0.2104
  121OSM    C3F12761   1.308   3.396   6.800 -0.3118 -0.3467  0.0960
  121OSM    H3F12762   1.399   3.368   6.744  0.0512 -1.0567  1.0097
  121OSM    H3G12763   1.281   3.503   6.789 -2.0028 -0.3724  2.9322
  121OSM    C4F12764   1.194   3.317   6.726 -0.8319  0.4169 -0.7629
  121OSM    H4F12765   1.091   3.347   6.757 -1.1994 -1.5753  0.0731
  121OSM    H4G12766   1.201   3.210   6.753  1.7517  0.3375 -1.4940
  121OSM    C5F12767   1.195   3.330   6.575  0.0349 -0.1201 -0.1899
  121OSM    H5F12768   1.098   3.286   6.544 -0.2328  0.6515 -0.4770
  121OSM    H5G12769   1.276   3.272   6.526 -1.4245 -0.5023 -2.2946
  121OSM    C6F12770   1.188   3.471   6.525  0.4231  0.3904 -0.0651
  121OSM    H6F12771   1.281   3.527   6.550  0.5850 -1.0276  2.9442
  121OSM    H6G12772   1.091   3.520   6.546  0.6400  1.0602 -0.5969
  121OSM    C7F12773   1.192   3.462   6.375 -0.4988  0.8047  0.7053
  121OSM    H7F12774   1.118   3.392   6.330 -0.0648  1.0044 -0.3330
  121OSM    H7G12775   1.293   3.431   6.342 -2.1344 -1.6763 -2.4440
  121OSM    C8F12776   1.164   3.592   6.301 -1.0279 -0.4472  0.3181
  121OSM    H8F12777   1.192   3.581   6.194  1.3430 -2.4765  1.0705
  121OSM    H8G12778   1.237   3.668   6.335  0.4010 -1.5718 -0.1610
  121OSM    C9F12779   1.023   3.650   6.310  0.5838 -0.0248  0.8832
  121OSM    H9F12780   1.007   3.699   6.407 -1.9571 -0.9528  1.0221
  121OSM   C10F12781   0.928   3.658   6.216  0.0346  0.1237 -0.1794
  121OSM   H10F12782   0.831   3.703   6.243  0.6790  0.4068  1.8836
  121OSM   C11F12783   0.931   3.609   6.074  0.1804 -0.1600 -0.0422
  121OSM   H11F12784   1.035   3.603   6.035  0.5896 -0.4775  1.0360
  121OSM   H11G12785   0.880   3.692   6.021  1.3906 -0.0117 -1.0200
  121OSM   C12F12786   0.848   3.479   6.055  0.4978  0.7607 -0.4536
  121OSM   H12F12787   0.840   3.451   5.948 -0.5199  0.7163 -0.3747
  121OSM   H12G12788   0.747   3.496   6.098  0.6438  0.1991  0.1203
  121OSM   C13F12789   0.899   3.356   6.137  0.7138  0.3041  0.6420
  121OSM   H13F12790   0.883   3.386   6.242 -0.8295 -2.9577  1.4877
  121OSM   H13G12791   1.004   3.340   6.107  0.2590 -1.2581 -0.2684
  121OSM   C14F12792   0.813   3.230   6.114 -0.1443  0.2280 -0.5338
  121OSM   H14F12793   0.709   3.256   6.143 -0.4303 -1.6946  0.3416
  121OSM   H14G12794   0.835   3.142   6.178 -3.3498 -1.5741 -1.6952
  121OSM   C15F12795   0.811   3.179   5.965 -0.5035 -0.4110 -0.5966
  121OSM   H15F12796   0.911   3.145   5.931 -0.0465  2.3908 -2.3406
  121OSM   H15G12797   0.763   3.254   5.899 -0.2948  0.7468  0.5171
  121OSM   C16F12798   0.712   3.055   5.964 -0.1357  1.1409  0.2434
  121OSM   H16F12799   0.610   3.094   5.985 -1.8947 -3.0483  0.4982
  121OSM   H16G12800   0.738   2.987   6.048 -0.3661 -2.3055 -2.3027
  121OSM   C17F12801   0.714   2.981   5.832 -0.1360 -0.1141  0.1023
  121OSM   H17F12802   0.706   3.063   5.758 -0.7706  1.1740  1.5433
  121OSM   H17G12803   0.622   2.920   5.820  1.6234 -2.8462 -0.3823
  121OSM   C18F12804   0.836   2.893   5.812 -0.0027 -0.2160  0.5920
  121OSM   H18F12805   0.900   2.938   5.733  1.7298 -3.3523  0.0431
  121OSM   H18G12806   0.813   2.794   5.767  0.8414 -0.1740  0.0455
  121OSM   H18H12807   0.898   2.878   5.903  1.0724  2.9440  0.4820
  122OSM      N12808   0.636   6.632   7.520  0.1555  0.0742 -0.1305
  122OSM    C1512809   0.499   6.689   7.493 -0.1560 -1.1307 -0.1023
  122OSM   H15A12810   0.501   6.795   7.512 -2.6429 -1.0371 -0.0733
  122OSM   H15B12811   0.419   6.645   7.551  0.5989 -4.1863 -1.1667
  122OSM   H15C12812   0.473   6.677   7.389 -0.0165  0.1342 -0.2930
  122OSM    C1412813   0.665   6.633   7.671  0.0808  0.6090 -0.3329
  122OSM   H14A12814   0.665   6.733   7.712  0.1085  0.2602  0.5516
  122OSM   H14B12815   0.759   6.581   7.683 -0.6260 -0.7649 -0.6166
  122OSM   H14C12816   0.597   6.578   7.734  0.2777  1.4632  0.6508
  122OSM    C1312817   0.631   6.485   7.477 -0.3518  0.5088  0.0807
  122OSM   H13A12818   0.593   6.481   7.376  1.7570 -2.2093 -0.7548
  122OSM   H13B12819   0.566   6.428   7.541 -1.1583  0.3787 -0.8232
  122OSM   H13C12820   0.732   6.445   7.481  0.4656  2.5156  0.5482
  122OSM    C1212821   0.741   6.710   7.443  0.1280  0.3556  0.0773
  122OSM   H12A12822   0.842   6.675   7.461  0.8659  1.8482 -0.9679
  122OSM   H12B12823   0.731   6.810   7.483 -1.2227  0.6922 -1.0116
  122OSM    C1112824   0.727   6.730   7.293  0.0140  0.0415  0.3446
  122OSM   H11A12825   0.691   6.633   7.254 -0.9417 -0.0288  1.3423
  122OSM   H11B12826   0.816   6.749   7.230 -0.1753 -1.1576 -0.3049
  122OSM      P12827   0.634   6.968   7.233  0.1273  0.0317 -0.0757
  122OSM    O1312828   0.504   7.025   7.184  0.2065  0.1768 -0.3823
  122OSM    O1412829   0.690   7.033   7.352 -0.3202  0.0873  0.8924
  122OSM    O1112830   0.740   6.968   7.113  0.1660 -0.1749 -0.3241
  122OSM    O1212831   0.616   6.820   7.259  0.2236 -0.1459 -0.2155
  122OSM    C1S12832   0.812   7.082   7.080 -0.1942 -0.6010 -0.0549
  122OSM    H1S12833   0.914   7.074   7.122  0.0019  0.9129 -0.1895
  122OSM    H1T12834   0.767   7.183   7.098 -0.1410  0.3268 -4.2133
  122OSM     NF12835   0.917   7.192   6.879  0.1809  0.0073  0.2873
  122OSM    HNF12836   0.882   7.250   6.805  1.8461  0.2929 -0.3145
  122OSM    C2S12837   0.832   7.082   6.924  0.4859  0.3202  0.8501
  122OSM    H2S12838   0.896   6.994   6.903  1.5007  1.0343  0.8554
  122OSM    C3S12839   0.703   7.070   6.844 -0.6737 -0.4426 -0.1474
  122OSM    H3S12840   0.660   7.172   6.851 -1.6817 -0.8610  0.0720
  122OSM     O312841   0.598   6.984   6.894  0.6266  0.3945  0.1645
  122OSM    HO312842   0.631   6.944   6.975  0.0825 -2.0806 -0.7529
  122OSM    C4S12843   0.731   7.046   6.706 -0.1824 -0.0801 -0.5736
  122OSM    H4S12844   0.719   7.143   6.655 -1.1459  0.5630  0.8092
  122OSM    C5S12845   0.748   6.931   6.639  0.3266  0.1413 -0.5404
  122OSM    H5S12846   0.720   6.832   6.679 -1.7717 -0.1163 -2.4646
  122OSM    C6S12847   0.768   6.921   6.491 -0.9517  0.0174  0.5383
  122OSM    H6S12848   0.679   6.863   6.459 -0.1791 -0.0493 -1.5915
  122OSM    H6T12849   0.857   6.857   6.476 -1.2786 -0.2670 -0.2243
  122OSM    C7S12850   0.764   7.051   6.411 -0.1949 -0.1119 -1.2265
  122OSM    H7S12851   0.836   7.123   6.455 -1.4584  0.8184 -0.5947
  122OSM    H7T12852   0.664   7.093   6.433  0.5246  0.0023  2.5112
  122OSM    C8S12853   0.788   7.031   6.257  0.1076  0.3713  0.2480
  122OSM    H8S12854   0.709   6.968   6.210  0.8850 -0.8255  0.4990
  122OSM    H8T12855   0.880   6.968   6.252 -0.2439 -0.1350  0.0732
  122OSM    C9S12856   0.778   7.163   6.178  0.4867  0.1831 -0.4334
  122OSM    H9S12857   0.855   7.240   6.202 -0.0802  0.3960  0.7912
  122OSM    H9T12858   0.683   7.209   6.212  1.0125  3.3990 -2.8383
  122OSM   C10S12859   0.779   7.144   6.031 -0.2399 -0.1657 -0.3194
  122OSM   H10S12860   0.834   7.051   6.006 -1.8269 -1.0988 -0.4823
  122OSM   H10T12861   0.820   7.233   5.979 -1.0312  0.9644  0.9272
  122OSM   C11S12862   0.632   7.108   5.981  0.4582 -1.0094 -0.2625
  122OSM   H11S12863   0.561   7.170   6.040  0.9232  0.6679 -1.4215
  122OSM   H11T12864   0.601   7.006   6.012  1.1429 -0.7077  1.6064
  122OSM   C12S12865   0.604   7.136   5.836 -0.3274  0.4468  0.2186
  122OSM   H12S12866   0.571   7.240   5.817 -0.7000  0.2422 -0.2897
  122OSM   H12T12867   0.523   7.066   5.806  0.4547 -1.2280  1.7874
  122OSM   C13S12868   0.724   7.094   5.751 -0.5541 -0.1319 -0.3204
  122OSM   H13S12869   0.766   7.001   5.797 -0.3062  0.0346 -0.2101
  122OSM   H13T12870   0.807   7.168   5.746  0.6553 -1.3987 -0.0422
  122OSM   C14S12871   0.686   7.046   5.610  0.7567  0.5950  0.0252
  122OSM   H14S12872   0.604   6.971   5.616 -0.0330  1.4912  0.6797
  122OSM   H14T12873   0.767   6.987   5.561 -1.9697 -2.2874 -1.3959
  122OSM   C15S12874   0.649   7.162   5.520  0.1883 -0.5257  0.0752
  122OSM   H15S12875   0.736   7.230   5.506 -0.9281  1.3428  1.6838
  122OSM   H15T12876   0.567   7.223   5.564 -0.4419 -2.3378  1.5256
  122OSM   C16S12877   0.613   7.100   5.379  0.3446 -0.0801 -0.2569
  122OSM   H16S12878   0.529   7.031   5.400  1.7925 -1.6153  0.7087
  122OSM   H16T12879   0.704   7.047   5.343  0.4139 -0.7128  0.8152
  122OSM   C17S12880   0.569   7.199   5.271  0.6519  0.0090  0.0625
  122OSM   H17S12881   0.571   7.161   5.166  1.0019 -0.3590  0.2011
  122OSM   H17T12882   0.640   7.285   5.269  1.5872 -0.7497  0.2103
  122OSM   C18S12883   0.428   7.258   5.293  0.3166 -0.2184  0.1100
  122OSM   H18S12884   0.406   7.338   5.219  1.0429  1.6003  1.7446
  122OSM   H18T12885   0.407   7.302   5.394  1.6669  0.7871 -0.0138
  122OSM   H18U12886   0.348   7.184   5.273  0.3468 -0.5232  1.0294
  122OSM    C1F12887   1.047   7.195   6.915 -0.0849  0.4967 -0.4676
  122OSM     OF12888   1.091   7.113   7.001  0.1689  0.2768 -0.4420
  122OSM    C2F12889   1.130   7.301   6.844  0.5441  0.5830 -0.4181
  122OSM    H2F12890   1.197   7.349   6.919 -1.4725  2.3833  0.3243
  122OSM    H2G12891   1.077   7.376   6.781  0.0122  0.1190 -0.5247
  122OSM    C3F12892   1.239   7.239   6.751 -0.1487 -0.3090 -0.1450
  122OSM    H3F12893   1.303   7.180   6.819  0.3542  0.2083 -0.1561
  122OSM    H3G12894   1.289   7.332   6.713  0.5197  0.0524  1.5492
  122OSM    C4F12895   1.178   7.147   6.643 -0.3096  0.0729  0.2008
  122OSM    H4F12896   1.113   7.066   6.681 -1.7265 -1.3913 -4.6388
  122OSM    H4G12897   1.249   7.087   6.582 -0.6465  0.1629 -0.2873
  122OSM    C5F12898   1.096   7.233   6.539 -0.0656 -0.0419  0.2213
  122OSM    H5F12899   1.014   7.286   6.592 -1.4681  0.2218 -2.0490
  122OSM    H5G12900   1.041   7.162   6.474 -0.6434 -0.6348  1.3274
  122OSM    C6F12901   1.178   7.330   6.457 -0.0485  0.1090  0.6314
  122OSM    H6F12902   1.261   7.282   6.402  0.1099 -0.1775  1.1180
  122OSM    H6G12903   1.237   7.399   6.521 -0.3775  0.4518  0.5698
  122OSM    C7F12904   1.089   7.416   6.360  0.2911 -0.4811  0.6330
  122OSM    H7F12905   1.018   7.472   6.425 -1.3825  0.2443 -1.7075
  122OSM    H7G12906   1.032   7.342   6.301  1.4849  0.4548 -1.8219
  122OSM    C8F12907   1.174   7.517   6.276  0.1867 -0.2201  0.0140
  122OSM    H8F12908   1.228   7.590   6.339 -1.1904  0.5259  0.3628
  122OSM    H8G12909   1.106   7.575   6.210  2.4862 -0.2621 -2.5826
  122OSM    C9F12910   1.277   7.454   6.177  0.2888 -0.1026  0.2694
  122OSM    H9F12911   1.382   7.462   6.207 -0.0338  2.7805  0.8858
  122OSM   C10F12912   1.252   7.408   6.054  0.2649 -0.1410  0.3311
  122OSM   H10F12913   1.341   7.359   6.013  1.2251  0.4192  1.6441
  122OSM   C11F12914   1.115   7.375   5.990 -0.2906  0.3211 -0.5254
  122OSM   H11F12915   1.081   7.456   5.923 -2.5556  0.3111  0.5271
  122OSM   H11G12916   1.039   7.359   6.069  0.0702 -2.5173 -0.6447
  122OSM   C12F12917   1.112   7.241   5.908  0.7159 -1.0739  0.0541
  122OSM   H12F12918   1.013   7.215   5.864 -0.3752  1.4000  0.9260
  122OSM   H12G12919   1.143   7.162   5.980  2.5024 -2.0366 -1.6560
  122OSM   C13F12920   1.211   7.241   5.783  0.5113 -0.0906 -0.8778
  122OSM   H13F12921   1.240   7.135   5.772  0.0167 -0.4438  0.8965
  122OSM   H13G12922   1.297   7.304   5.815 -1.1610 -0.0379  4.3396
  122OSM   C14F12923   1.144   7.294   5.657 -0.5823  0.1085 -0.3975
  122OSM   H14F12924   1.217   7.351   5.597 -1.1545  3.2133  1.6205
  122OSM   H14G12925   1.079   7.376   5.694  0.6819  1.3752 -0.8935
  122OSM   C15F12926   1.058   7.186   5.589  0.0007 -0.0047  0.4751
  122OSM   H15F12927   0.977   7.248   5.544  0.4768  1.2513  1.2580
  122OSM   H15G12928   1.015   7.118   5.665  0.0731  1.6351  2.0618
  122OSM   C16F12929   1.138   7.125   5.481  0.0147  0.7020  0.3603
  122OSM   H16F12930   1.083   7.033   5.451 -0.5082  1.0035  0.3882
  122OSM   H16G12931   1.235   7.083   5.516  0.6089 -0.6695 -2.5842
  122OSM   C17F12932   1.161   7.209   5.350 -0.3890  0.0885  0.0212
  122OSM   H17F12933   1.209   7.304   5.380 -0.0361  0.0570 -0.4384
  122OSM   H17G12934   1.064   7.228   5.299  0.1961 -1.8671 -1.9686
  122OSM   C18F12935   1.254   7.125   5.260 -0.3336 -0.2736  0.1655
  122OSM   H18F12936   1.360   7.137   5.292 -0.4727  0.7102  0.2853
  122OSM   H18G12937   1.245   7.152   5.153 -1.2913 -0.3338  0.2226
  122OSM   H18H12938   1.225   7.018   5.262  1.1787 -0.7171 -0.3211
  123OSM      N12939   4.303   6.101   2.210  0.8031 -0.8214  0.4319
  123OSM    C1512940   4.380   5.988   2.154  0.4198 -0.1396  0.0825
  123OSM   H15A12941   4.427   6.017   2.062  0.4393 -0.7196 -0.0935
  123OSM   H15B12942   4.308   5.908   2.147 -0.0474  0.1490  1.2648
  123OSM   H15C12943   4.461   5.963   2.221 -0.4127 -0.1335  1.1309
  123OSM    C1412944   4.381   6.223   2.247 -0.2927 -0.9550 -0.4383
  123OSM   H14A12945   4.439   6.210   2.337  0.6143  3.3085 -0.2039
  123OSM   H14B12946   4.329   6.315   2.267  1.2317  0.1527 -1.3490
  123OSM   H14C12947   4.458   6.237   2.172  0.7079 -1.5167  0.4480
  123OSM    C1312948   4.208   6.147   2.105  0.0114  0.6805  0.0524
  123OSM   H13A12949   4.150   6.229   2.144  0.1302 -0.1723  2.1904
  123OSM   H13B12950   4.145   6.065   2.075 -0.8234  0.4921  2.1340
  123OSM   H13C12951   4.261   6.184   2.019 -0.0722 -1.0018 -0.7525
  123OSM    C1212952   4.219   6.061   2.328  0.2169 -0.4413 -0.6646
  123OSM   H12A12953   4.131   6.008   2.297  0.4887 -0.3726 -1.5680
  123OSM   H12B12954   4.196   6.152   2.382  2.5719  0.6412 -1.3667
  123OSM    C1112955   4.283   5.963   2.433 -0.6137 -0.0361 -0.5968
  123OSM   H11A12956   4.325   5.872   2.384  1.6641 -0.7994  2.4805
  123OSM   H11B12957   4.206   5.929   2.506 -1.3506 -0.5857 -1.5972
  123OSM      P12958   4.392   6.097   2.640  0.3596  0.0025 -0.1607
  123OSM    O1312959   4.520   6.170   2.662 -0.6891 -0.1830  0.5151
  123OSM    O1412960   4.273   6.176   2.656  0.7279  0.5771  0.3555
  123OSM    O1112961   4.381   5.964   2.721  0.4234  0.0765 -0.5778
  123OSM    O1212962   4.386   6.033   2.498  0.0608 -0.1738  0.5883
  123OSM    C1S12963   4.432   5.958   2.857  0.2577 -0.4174 -0.2088
  123OSM    H1S12964   4.506   6.040   2.874  0.4384 -0.9098  1.5473
  123OSM    H1T12965   4.468   5.855   2.878 -0.2336 -0.9348 -1.7635
  123OSM     NF12966   4.384   5.970   3.108  0.9191  0.0341  0.2118
  123OSM    HNF12967   4.388   5.882   3.154 -0.8657  0.0908  0.5397
  123OSM    C2S12968   4.325   5.983   2.967  0.4118 -0.2373  0.3989
  123OSM    H2S12969   4.290   6.089   2.956  2.2210  0.4243  0.7166
  123OSM    C3S12970   4.205   5.883   2.948  0.5693 -0.4173 -0.0012
  123OSM    H3S12971   4.252   5.782   2.941 -1.5898 -1.4440 -0.4342
  123OSM     O312972   4.130   5.897   2.827 -0.1264  0.1295 -0.3120
  123OSM    HO312973   4.190   5.929   2.759 -1.0744 -1.3272 -1.9154
  123OSM    C4S12974   4.117   5.886   3.072 -0.0780 -0.2588 -0.2323
  123OSM    H4S12975   4.092   5.985   3.113  1.4999  0.5349 -1.0522
  123OSM    C5S12976   4.092   5.769   3.141 -0.2207  0.1652  0.9735
  123OSM    H5S12977   4.139   5.675   3.109  1.3078  1.3091 -0.3555
  123OSM    C6S12978   4.030   5.761   3.277 -0.0522  0.1102  0.2657
  123OSM    H6S12979   3.969   5.669   3.291 -0.2121 -0.2223 -2.2619
  123OSM    H6T12980   3.963   5.848   3.291  0.7204  0.9608 -1.0861
  123OSM    C7S12981   4.155   5.773   3.374 -0.1087 -0.0229 -0.5814
  123OSM    H7S12982   4.222   5.860   3.355  1.3650 -1.3382 -1.7367
  123OSM    H7T12983   4.221   5.684   3.364 -0.0408  0.0646 -0.9160
  123OSM    C8S12984   4.101   5.789   3.522 -0.5528 -0.2501  0.4909
  123OSM    H8S12985   4.058   5.689   3.545 -0.9453 -0.5614 -1.4219
  123OSM    H8T12986   4.028   5.871   3.534 -1.3777 -0.8344 -0.3547
  123OSM    C9S12987   4.213   5.820   3.612 -0.6356 -0.1563 -0.5376
  123OSM    H9S12988   4.173   5.820   3.715  0.3790 -2.8409 -0.0631
  123OSM    H9T12989   4.240   5.927   3.606 -1.5537  0.1310  0.1648
  123OSM   C10S12990   4.336   5.725   3.595 -0.0955 -0.4141 -0.3107
  123OSM   H10S12991   4.387   5.766   3.506  1.2869  1.2392  1.1723
  123OSM   H10T12992   4.301   5.620   3.587 -3.8946  0.6966 -0.3508
  123OSM   C11S12993   4.442   5.733   3.710  0.1847  0.0710  0.2298
  123OSM   H11S12994   4.496   5.830   3.714  2.3547 -1.0764  0.2077
  123OSM   H11T12995   4.516   5.652   3.692  2.0565  1.9897 -1.2814
  123OSM   C12S12996   4.389   5.705   3.854  0.6992 -0.4059 -0.8306
  123OSM   H12S12997   4.329   5.612   3.853 -0.4290  0.2715  0.8514
  123OSM   H12T12998   4.322   5.783   3.896  2.6442  0.6100  0.5534
  123OSM   C13S12999   4.499   5.677   3.953 -1.0004 -0.2556  0.3424
  123OSM   H13S13000   4.559   5.767   3.977  1.0989 -1.6188  0.4936
  123OSM   H13T13001   4.580   5.611   3.914  2.0176  2.4543  1.5967
  123OSM   C14S13002   4.453   5.628   4.095 -0.1165 -0.2671 -0.3744
  123OSM   H14S13003   4.539   5.604   4.161 -2.0281 -0.3634  2.2418
  123OSM   H14T13004   4.388   5.539   4.105  2.2411 -1.9818  0.8053
  123OSM   C15S13005   4.390   5.754   4.166  0.6869  0.6572 -0.0650
  123OSM   H15S13006   4.298   5.782   4.110  1.5319 -1.5865 -2.8483
  123OSM   H15T13007   4.458   5.840   4.181  2.3629 -0.4124 -1.1080
  123OSM   C16S13008   4.331   5.722   4.307 -0.2731  0.1036  0.5461
  123OSM   H16S13009   4.284   5.623   4.292 -0.1814  0.0893  0.3582
  123OSM   H16T13010   4.256   5.795   4.344 -0.4484 -0.2201  0.8355
  123OSM   C17S13011   4.440   5.715   4.409 -0.0082  0.2653 -0.8478
  123OSM   H17S13012   4.506   5.804   4.415 -1.1019  1.1433 -1.5863
  123OSM   H17T13013   4.507   5.630   4.382 -0.8905 -1.1522  1.1712
  123OSM   C18S13014   4.378   5.708   4.545 -0.0542 -0.0266 -0.3701
  123OSM   H18S13015   4.441   5.675   4.631 -1.0044 -0.4573  0.1904
  123OSM   H18T13016   4.303   5.625   4.546 -0.2361  0.0960 -2.0830
  123OSM   H18U13017   4.323   5.797   4.581 -0.2977 -1.3028  2.8071
  123OSM    C1F13018   4.450   6.074   3.160  0.3905  0.1598 -1.1095
  123OSM     OF13019   4.435   6.187   3.127  0.1844 -0.1555 -0.1619
  123OSM    C2F13020   4.547   6.039   3.268  0.3260  0.1554  0.4793
  123OSM    H2F13021   4.642   6.004   3.224  0.8650  0.9229  1.0019
  123OSM    H2G13022   4.507   5.952   3.326  1.9720 -1.3747 -0.5719
  123OSM    C3F13023   4.577   6.166   3.351 -0.4342 -0.7160 -1.0803
  123OSM    H3F13024   4.484   6.203   3.400 -0.4510  2.1497 -3.0540
  123OSM    H3G13025   4.620   6.243   3.284 -0.1908  1.0525  1.0018
  123OSM    C4F13026   4.678   6.144   3.474  0.6316 -0.1164  0.2649
  123OSM    H4F13027   4.724   6.240   3.505  0.3843  0.9749 -2.5176
  123OSM    H4G13028   4.758   6.075   3.440  0.0029  0.0774 -1.7014
  123OSM    C5F13029   4.597   6.093   3.596  0.3534 -0.3010 -0.4030
  123OSM    H5F13030   4.567   5.991   3.565  3.1279 -0.7514 -1.8769
  123OSM    H5G13031   4.498   6.142   3.603  0.3642 -0.2509 -0.6008
  123OSM    C6F13032   4.678   6.111   3.727 -0.1604  0.5898 -0.4595
  123OSM    H6F13033   4.696   6.220   3.734 -0.6367  0.7513 -1.4866
  123OSM    H6G13034   4.777   6.063   3.713 -0.6106 -0.9659  1.3071
  123OSM    C7F13035   4.613   6.052   3.852 -0.3103 -0.2793 -0.5717
  123OSM    H7F13036   4.617   5.943   3.831  1.1953 -0.5371  0.9069
  123OSM    H7G13037   4.509   6.091   3.859 -0.4852 -0.9330  0.5994
  123OSM    C8F13038   4.700   6.083   3.977 -0.0062 -0.4303 -0.0676
  123OSM    H8F13039   4.808   6.061   3.962  0.6632  1.8598  0.9878
  123OSM    H8G13040   4.673   6.019   4.064  0.7398  0.4001  0.7896
  123OSM    C9F13041   4.701   6.224   4.019 -0.5611  0.1194 -0.1003
  123OSM    H9F13042   4.754   6.303   3.964 -2.1678  2.3980  1.4506
  123OSM   C10F13043   4.640   6.271   4.127  0.4831 -0.5587 -0.0450
  123OSM   H10F13044   4.636   6.380   4.141 -3.2384 -0.5583 -0.1138
  123OSM   C11F13045   4.560   6.194   4.228 -0.7758 -0.2482  0.7956
  123OSM   H11F13046   4.542   6.089   4.198 -2.6499 -0.1236  1.3394
  123OSM   H11G13047   4.459   6.240   4.238 -2.6223 -4.1934  2.1467
  123OSM   C12F13048   4.635   6.195   4.367  0.0691 -0.2289  1.4426
  123OSM   H12F13049   4.570   6.142   4.439 -0.1262 -0.8517  0.8204
  123OSM   H12G13050   4.648   6.293   4.417  1.0871 -1.1965  3.1318
  123OSM   C13F13051   4.774   6.128   4.357 -0.4606 -0.8154 -0.3185
  123OSM   H13F13052   4.836   6.190   4.289  0.1580 -1.1879 -0.1044
  123OSM   H13G13053   4.764   6.029   4.307  1.1459 -0.8070 -0.6987
  123OSM   C14F13054   4.850   6.103   4.484  0.0218 -0.0124 -0.5000
  123OSM   H14F13055   4.870   6.198   4.539 -0.8329 -0.4618  0.6180
  123OSM   H14G13056   4.953   6.071   4.456  1.4161  3.1969  0.3887
  123OSM   C15F13057   4.783   5.990   4.562  0.6907 -0.9461 -0.0773
  123OSM   H15F13058   4.811   5.897   4.507 -0.0447 -0.6192 -1.0421
  123OSM   H15G13059   4.675   6.014   4.576  1.5731  2.6401  1.8525
  123OSM   C16F13060   4.838   5.983   4.703 -0.3633  0.0331  0.4711
  123OSM   H16F13061   4.799   6.078   4.745  0.9495 -0.3343  2.6718
  123OSM   H16G13062   4.948   5.993   4.694 -0.1235 -2.4295  0.1194
  123OSM   C17F13063   4.802   5.861   4.788  0.0185  0.9095  0.0298
  123OSM   H17F13064   4.844   5.780   4.726 -1.9310 -0.7516  0.7716
  123OSM   H17G13065   4.693   5.843   4.786  0.3209 -1.1936 -2.6087
  123OSM   C18F13066   4.872   5.859   4.926 -0.2431  1.0209 -0.0611
  123OSM   H18F13067   4.981   5.840   4.919 -0.1250  0.6065  2.3413
  123OSM   H18G13068   4.828   5.785   4.996  0.8753 -0.4792 -0.8682
  123OSM   H18H13069   4.847   5.960   4.964 -0.1881  1.3080 -0.7772
  124OSM      N13070   2.381   0.609   2.852 -0.2791 -0.0217 -0.1348
  124OSM    C1513071   2.457   0.740   2.860  0.2684 -0.1201  0.0906
  124OSM   H15A13072   2.398   0.820   2.817 -0.0797 -0.2478  0.3269
  124OSM   H15B13073   2.544   0.743   2.796 -0.6339 -0.6128 -1.2154
  124OSM   H15C13074   2.487   0.771   2.958 -0.7181  1.4565 -0.0751
  124OSM    C1413075   2.231   0.638   2.863 -0.4841 -0.2529 -0.3509
  124OSM   H14A13076   2.201   0.711   2.789  1.3748  0.6690 -0.2519
  124OSM   H14B13077   2.202   0.681   2.958 -1.4744 -2.3746  0.3851
  124OSM   H14C13078   2.169   0.550   2.848 -0.7941 -0.0633 -0.1966
  124OSM    C1313079   2.415   0.548   2.725 -0.0276 -0.5494  1.5744
  124OSM   H13A13080   2.407   0.626   2.650 -0.9940  0.0591  2.2829
  124OSM   H13B13081   2.352   0.467   2.691  2.7045 -1.2639 -2.4005
  124OSM   H13C13082   2.512   0.503   2.736 -0.0486 -0.7370  0.9828
  124OSM    C1213083   2.424   0.523   2.970  0.0234  0.0110  0.2180
  124OSM   H12A13084   2.364   0.434   2.964  1.6315 -1.3298  2.4527
  124OSM   H12B13085   2.400   0.575   3.062  1.9215 -0.4054  0.9999
  124OSM    C1113086   2.575   0.478   2.971  0.2139 -0.2903 -0.4709
  124OSM   H11A13087   2.596   0.428   3.068  0.5598 -0.1186 -0.4567
  124OSM   H11B13088   2.633   0.572   2.975 -0.4173  0.0722  1.3582
  124OSM      P13089   2.539   0.259   2.831  0.0844 -0.1358  0.0445
  124OSM    O1313090   2.405   0.246   2.900 -0.0726  0.0202 -0.1521
  124OSM    O1413091   2.531   0.245   2.687  0.3096 -0.2562 -0.3455
  124OSM    O1113092   2.640   0.157   2.890  0.1408 -1.2451  0.0009
  124OSM    O1213093   2.612   0.396   2.856 -0.1524 -0.3860 -0.1091
  124OSM    C1S13094   2.758   0.171   2.961 -0.4969  0.7901  0.0440
  124OSM    H1S13095   2.798   0.269   2.925 -0.4718  0.7821  0.0498
  124OSM    H1T13096   2.828   0.097   2.917 -0.8726 -0.9428  2.2064
  124OSM     NF13097   2.867   0.210   3.183 -0.1610  0.0504  0.2180
  124OSM    HNF13098   2.927   0.141   3.222 -1.0080 -1.0353 -0.3375
  124OSM    C2S13099   2.751   0.156   3.114 -0.1730  0.2210  0.3875
  124OSM    H2S13100   2.660   0.216   3.139 -0.9352  0.4496 -2.5459
  124OSM    C3S13101   2.726   0.009   3.152 -0.2600  0.5314  0.5981
  124OSM    H3S13102   2.814  -0.050   3.119 -0.1863  0.7650  0.3681
  124OSM     O313103   2.622  -0.051   3.078 -0.0760 -0.4137 -0.2189
  124OSM    HO313104   2.590   0.018   3.020 -2.3544  0.2877  1.6922
  124OSM    C4S13105   2.698  -0.010   3.302  0.1994 -0.0931  0.5784
  124OSM    H4S13106   2.602   0.037   3.328 -0.4092  0.4455 -2.3353
  124OSM    C5S13107   2.756  -0.102   3.373  0.0928  0.9125  0.1813
  124OSM    H5S13108   2.832  -0.161   3.319  0.3748  1.2197  0.2389
  124OSM    C6S13109   2.709  -0.149   3.515  0.0909 -0.2533  0.0016
  124OSM    H6S13110   2.801  -0.183   3.567  1.1335  0.9653 -0.9876
  124OSM    H6T13111   2.636  -0.233   3.510  0.9500 -1.0144 -0.2583
  124OSM    C7S13112   2.647  -0.037   3.593 -0.3530 -0.0950 -0.4758
  124OSM    H7S13113   2.552  -0.013   3.540 -0.7783 -3.2802 -1.3914
  124OSM    H7T13114   2.713   0.050   3.609 -0.2112 -0.4278  0.8766
  124OSM    C8S13115   2.612  -0.085   3.734 -0.0235  0.0525 -0.3342
  124OSM    H8S13116   2.554  -0.180   3.737  0.7252 -0.3902  0.1927
  124OSM    H8T13117   2.553  -0.007   3.785  1.5142 -0.4530  2.3979
  124OSM    C9S13118   2.725  -0.098   3.834 -0.4882  0.2379  0.7082
  124OSM    H9S13119   2.781  -0.003   3.832 -1.9821  1.2184  2.3345
  124OSM    H9T13120   2.802  -0.173   3.805 -0.6690  0.5652 -0.6684
  124OSM   C10S13121   2.681  -0.113   3.980  0.4203  0.0758  0.1117
  124OSM   H10S13122   2.602  -0.191   3.981 -0.8131  1.1521 -3.0113
  124OSM   H10T13123   2.632  -0.019   4.013 -0.3544 -0.6822  1.1923
  124OSM   C11S13124   2.787  -0.139   4.090 -0.2425  0.3174 -0.2353
  124OSM   H11S13125   2.865  -0.059   4.090  1.0454 -0.8540  1.5408
  124OSM   H11T13126   2.838  -0.233   4.061 -1.8030 -0.5041 -0.4052
  124OSM   C12S13127   2.732  -0.154   4.229  0.2208  0.6851 -0.1406
  124OSM   H12S13128   2.648  -0.226   4.227  0.9743 -0.1991 -0.7467
  124OSM   H12T13129   2.695  -0.059   4.275 -2.5347  0.0750 -0.8954
  124OSM   C13S13130   2.848  -0.203   4.325 -0.2482  0.1877 -0.4676
  124OSM   H13S13131   2.898  -0.105   4.336  0.5733 -0.3384  0.6229
  124OSM   H13T13132   2.913  -0.278   4.275  1.6507  1.4303  0.0601
  124OSM   C14S13133   2.814  -0.254   4.463 -0.2160  0.5072 -0.1022
  124OSM   H14S13134   2.788  -0.362   4.455  0.4304  0.4815 -2.2499
  124OSM   H14T13135   2.731  -0.192   4.505  0.4850  1.8678 -0.6783
  124OSM   C15S13136   2.937  -0.261   4.558 -0.8757 -0.9621 -0.5531
  124OSM   H15S13137   2.985  -0.161   4.566  2.5213 -2.5123  0.3400
  124OSM   H15T13138   3.008  -0.329   4.505  1.2652  0.1574  0.7568
  124OSM   C16S13139   2.913  -0.310   4.702 -0.2499  0.3116  0.4053
  124OSM   H16S13140   3.012  -0.317   4.752 -0.2970  0.1707  0.4798
  124OSM   H16T13141   2.879  -0.416   4.695  1.6311 -0.2827 -0.5330
  124OSM   C17S13142   2.809  -0.226   4.772  0.5941 -0.0470 -0.8841
  124OSM   H17S13143   2.704  -0.224   4.735  0.2943  3.2512 -0.2444
  124OSM   H17T13144   2.845  -0.122   4.757  0.3246  0.3772  1.0824
  124OSM   C18S13145   2.812  -0.262   4.918  0.1767 -0.2863  0.6762
  124OSM   H18S13146   2.753  -0.193   4.982 -0.9988  0.4100 -1.0849
  124OSM   H18T13147   2.908  -0.280   4.971 -0.3572 -0.1865  1.7053
  124OSM   H18U13148   2.763  -0.361   4.929 -2.1258  0.7662  0.4458
  124OSM    C1F13149   2.897   0.345   3.177  0.0822 -0.0751  0.0733
  124OSM     OF13150   2.815   0.424   3.127 -0.4425 -0.4771 -0.0304
  124OSM    C2F13151   3.025   0.387   3.226 -0.9423 -0.5781  0.1644
  124OSM    H2F13152   3.089   0.405   3.137 -1.2281  0.2470  0.1139
  124OSM    H2G13153   3.079   0.310   3.283  1.6677  0.3732 -0.8770
  124OSM    C3F13154   3.015   0.519   3.316  0.2787  0.9537 -0.0305
  124OSM    H3F13155   2.968   0.599   3.255 -0.9862  0.8862  0.8202
  124OSM    H3G13156   3.119   0.537   3.350  1.3864 -1.5221 -1.7876
  124OSM    C4F13157   2.924   0.510   3.444 -0.2935  0.3003 -0.1316
  124OSM    H4F13158   2.815   0.497   3.428  0.0147 -0.9584 -1.3918
  124OSM    H4G13159   2.931   0.615   3.481  2.1660  0.3203 -0.5091
  124OSM    C5F13160   2.956   0.400   3.546 -0.2186  0.1014 -0.2136
  124OSM    H5F13161   3.058   0.422   3.584 -0.6956  1.4888  0.3680
  124OSM    H5G13162   2.949   0.295   3.511  2.4388 -0.4985  0.8195
  124OSM    C6F13163   2.867   0.405   3.675  0.4681  0.1966  0.4999
  124OSM    H6F13164   2.766   0.362   3.655  1.3033 -2.0183  0.8260
  124OSM    H6G13165   2.849   0.511   3.705 -1.1534 -0.2674  1.3305
  124OSM    C7F13166   2.930   0.334   3.791  0.4268  0.4740 -0.3924
  124OSM    H7F13167   3.040   0.321   3.784  0.2330 -2.4287  0.7314
  124OSM    H7G13168   2.875   0.239   3.809  0.3714  0.3654 -1.1153
  124OSM    C8F13169   2.929   0.413   3.929  0.6021  0.0391  0.1977
  124OSM    H8F13170   2.990   0.506   3.923 -0.2351  0.5615 -0.3479
  124OSM    H8G13171   2.972   0.343   4.004 -1.1958 -0.2594  1.0197
  124OSM    C9F13172   2.785   0.445   3.964  0.5774  0.2418  0.3724
  124OSM    H9F13173   2.739   0.520   3.897 -0.5070 -1.2711 -0.6493
  124OSM   C10F13174   2.711   0.387   4.063 -0.1077 -0.0124 -0.0863
  124OSM   H10F13175   2.603   0.405   4.070 -0.3296 -1.5928  0.9879
  124OSM   C11F13176   2.773   0.289   4.157  0.3069 -0.2482 -0.1826
  124OSM   H11F13177   2.873   0.323   4.194  2.0230 -1.9291 -2.8963
  124OSM   H11G13178   2.791   0.194   4.103 -0.1722  1.5925 -3.8737
  124OSM   C12F13179   2.689   0.277   4.286 -0.5995 -0.2431 -0.5849
  124OSM   H12F13180   2.723   0.177   4.321  0.4598 -0.2264 -1.4990
  124OSM   H12G13181   2.580   0.280   4.266 -0.7810  0.1145  0.4122
  124OSM   C13F13182   2.721   0.362   4.400 -0.1363  0.5464  0.5622
  124OSM   H13F13183   2.717   0.463   4.354 -0.9887  0.2093 -0.1181
  124OSM   H13G13184   2.823   0.347   4.441  0.6594  2.6623 -0.4936
  124OSM   C14F13185   2.633   0.343   4.521  0.6221 -0.3367  0.4175
  124OSM   H14F13186   2.666   0.254   4.578 -0.4011 -0.4859  0.8033
  124OSM   H14G13187   2.530   0.321   4.484  2.0583 -0.9731 -3.6990
  124OSM   C15F13188   2.628   0.458   4.626 -0.0539 -0.5581 -0.3165
  124OSM   H15F13189   2.612   0.556   4.576 -0.3562 -0.4759 -0.0646
  124OSM   H15G13190   2.723   0.453   4.684 -1.4521 -0.4842  2.1471
  124OSM   C16F13191   2.509   0.444   4.721  0.4906  0.4996 -0.3151
  124OSM   H16F13192   2.503   0.336   4.745 -0.1340  0.0801 -2.1962
  124OSM   H16G13193   2.411   0.466   4.674 -0.3320 -3.1746 -0.6417
  124OSM   C17F13194   2.535   0.501   4.863 -0.1022 -0.4198  0.0699
  124OSM   H17F13195   2.534   0.612   4.856 -3.6192 -0.3597 -0.4221
  124OSM   H17G13196   2.637   0.469   4.894 -0.6435 -0.6908  1.6465
  124OSM   C18F13197   2.429   0.465   4.970  0.1908  0.1738 -0.0526
  124OSM   H18F13198   2.338   0.525   4.949  0.2644  0.6963  1.0679
  124OSM   H18G13199   2.459   0.496   5.072 -0.8990  0.4542  0.2039
  124OSM   H18H13200   2.396   0.359   4.968 -3.6704  1.1845  1.2631
  125OSM      N13201   4.596   2.140   2.960  0.2700 -0.1230  0.3773
  125OSM    C1513202   4.586   2.057   2.834 -0.4380  0.1006 -0.2360
  125OSM   H15A13203   4.563   2.111   2.744 -0.0349 -0.8109 -0.8976
  125OSM   H15B13204   4.509   1.982   2.851 -0.3337 -0.4421 -1.9996
  125OSM   H15C13205   4.680   2.005   2.825 -0.4121  0.2601 -0.8701
  125OSM    C1413206   4.651   2.055   3.074  0.2207 -0.0876 -0.2263
  125OSM   H14A13207   4.739   2.005   3.036 -0.1983 -1.1857  0.2053
  125OSM   H14B13208   4.580   1.985   3.117  1.8683 -1.8964 -0.2606
  125OSM   H14C13209   4.672   2.114   3.162 -2.9609 -0.8043  1.1579
  125OSM    C1313210   4.691   2.253   2.940 -0.1865 -0.2594  0.2059
  125OSM   H13A13211   4.675   2.324   3.019 -4.0254  0.2481 -0.8492
  125OSM   H13B13212   4.680   2.294   2.840  1.1689 -1.5284 -0.5202
  125OSM   H13C13213   4.793   2.218   2.934 -0.1398 -0.2104  0.7421
  125OSM    C1213214   4.457   2.194   2.990 -0.2863 -0.1656 -0.2045
  125OSM   H12A13215   4.393   2.107   2.994  0.8867 -1.0259  0.7868
  125OSM   H12B13216   4.411   2.252   2.911 -0.3591  0.1417  0.0618
  125OSM    C1113217   4.447   2.277   3.125  0.5591  0.2444 -1.1916
  125OSM   H11A13218   4.461   2.208   3.211 -1.2687  2.8053  1.3615
  125OSM   H11B13219   4.341   2.308   3.142 -0.2975 -1.6757 -2.6616
  125OSM      P13220   4.506   2.523   3.082 -0.0721  0.4217 -0.1547
  125OSM    O1313221   4.619   2.613   3.116 -0.3784 -1.1209  0.3239
  125OSM    O1413222   4.448   2.520   2.948  0.0096  0.1206  0.4522
  125OSM    O1113223   4.393   2.566   3.186 -0.2456 -0.1383 -0.0115
  125OSM    O1213224   4.543   2.379   3.133 -0.3868 -0.2150 -0.6277
  125OSM    C1S13225   4.391   2.554   3.328  0.1275  0.1229  0.2453
  125OSM    H1S13226   4.385   2.446   3.354  0.9353 -0.1446 -0.6267
  125OSM    H1T13227   4.303   2.598   3.379  0.3085 -0.2625  0.9105
  125OSM     NF13228   4.516   2.585   3.544 -0.3456  0.1793 -0.4167
  125OSM    HNF13229   4.489   2.640   3.623 -0.8947  0.1723 -0.5983
  125OSM    C2S13230   4.508   2.627   3.408  0.3318  0.0129 -0.4358
  125OSM    H2S13231   4.602   2.586   3.363 -0.1442 -2.0371  0.3359
  125OSM    C3S13232   4.503   2.781   3.387  0.0956  0.0390 -0.2131
  125OSM    H3S13233   4.412   2.829   3.429  1.8057  1.9923  1.4856
  125OSM     O313234   4.482   2.827   3.254 -0.1832 -0.2999 -0.3010
  125OSM    HO313235   4.479   2.744   3.208 -1.4164 -1.7964  2.2409
  125OSM    C4S13236   4.623   2.858   3.441 -0.0770  0.1836 -0.6792
  125OSM    H4S13237   4.722   2.845   3.395  0.0640  4.0071 -1.7467
  125OSM    C5S13238   4.618   2.922   3.558 -0.0755  0.4847  0.1369
  125OSM    H5S13239   4.523   2.923   3.614  0.7642 -1.3267  1.6870
  125OSM    C6S13240   4.738   2.974   3.627  0.3909 -0.1172 -0.8292
  125OSM    H6S13241   4.760   3.078   3.592 -2.8036  1.2452  0.7664
  125OSM    H6T13242   4.830   2.913   3.613  0.6005  0.2134 -0.9258
  125OSM    C7S13243   4.700   2.973   3.777 -0.2075 -1.1486  0.6488
  125OSM    H7S13244   4.618   3.046   3.791 -2.0663 -3.3845  2.1161
  125OSM    H7T13245   4.793   3.010   3.827  0.6274  0.4903 -1.9514
  125OSM    C8S13246   4.658   2.840   3.836 -0.6252  0.0535  0.3344
  125OSM    H8S13247   4.730   2.764   3.800  0.6210  1.7695 -0.9816
  125OSM    H8T13248   4.558   2.817   3.792 -0.9594  4.0704 -1.4478
  125OSM    C9S13249   4.632   2.833   3.990  0.1024 -0.1296  0.4972
  125OSM    H9S13250   4.538   2.886   4.016  0.5391  0.3467  1.1770
  125OSM    H9T13251   4.703   2.907   4.034  0.0549  0.1238  0.1479
  125OSM   C10S13252   4.629   2.700   4.060  0.2226 -0.2734  0.4567
  125OSM   H10S13253   4.700   2.633   4.007  1.2251  0.5854  0.6827
  125OSM   H10T13254   4.529   2.656   4.042 -0.1639  0.8942 -0.3380
  125OSM   C11S13255   4.668   2.694   4.210  0.2964  0.0669 -0.2051
  125OSM   H11S13256   4.610   2.774   4.261  2.7602  3.3538 -2.1015
  125OSM   H11T13257   4.778   2.708   4.204  0.1777  0.4146 -2.5039
  125OSM   C12S13258   4.641   2.550   4.254  0.3637 -0.3250 -0.4702
  125OSM   H12S13259   4.665   2.471   4.180 -1.5298 -3.2791  1.8198
  125OSM   H12T13260   4.531   2.542   4.271  0.4654 -0.7718 -0.0230
  125OSM   C13S13261   4.718   2.518   4.380 -0.2833 -0.2021  1.2009
  125OSM   H13S13262   4.813   2.576   4.382  0.2278 -1.0210  3.3018
  125OSM   H13T13263   4.756   2.414   4.374 -1.7073 -0.6647 -1.2674
  125OSM   C14S13264   4.647   2.544   4.510 -0.3154  0.1118 -0.5837
  125OSM   H14S13265   4.571   2.464   4.525 -0.4961  0.2541 -0.7336
  125OSM   H14T13266   4.586   2.636   4.498 -0.0814  0.6607  1.9275
  125OSM   C15S13267   4.732   2.547   4.640 -0.0375  0.5182  0.3713
  125OSM   H15S13268   4.744   2.645   4.692  0.3232  0.9658 -0.5315
  125OSM   H15T13269   4.836   2.518   4.613 -0.3134 -0.2038  0.0765
  125OSM   C16S13270   4.695   2.441   4.735  0.3742  0.0549  0.8087
  125OSM   H16S13271   4.692   2.335   4.701  1.4199  0.4028 -0.4459
  125OSM   H16T13272   4.594   2.468   4.771  0.3993 -0.1623  1.0538
  125OSM   C17S13273   4.780   2.440   4.860 -0.0780 -0.6375 -0.0529
  125OSM   H17S13274   4.790   2.545   4.894  0.1695  0.0572 -2.1865
  125OSM   H17T13275   4.883   2.405   4.840 -0.4839 -1.9924  0.0616
  125OSM   C18S13276   4.733   2.347   4.972  0.0575  0.6573  0.0974
  125OSM   H18S13277   4.649   2.391   5.029 -0.5123 -1.4128  0.9623
  125OSM   H18T13278   4.811   2.317   5.045  0.7311 -1.0532 -1.2352
  125OSM   H18U13279   4.701   2.256   4.917  0.6465 -0.2822  1.2759
  125OSM    C1F13280   4.527   2.461   3.580  0.7341  0.2669  0.0487
  125OSM     OF13281   4.549   2.367   3.502  0.5431  0.7975 -0.2776
  125OSM    C2F13282   4.490   2.431   3.724 -0.6194 -0.0340 -0.2264
  125OSM    H2F13283   4.383   2.400   3.719 -0.3018 -1.2734  0.4008
  125OSM    H2G13284   4.489   2.520   3.790 -1.9309  0.3050 -0.6746
  125OSM    C3F13285   4.581   2.321   3.792 -0.3322 -0.1589 -0.4801
  125OSM    H3F13286   4.690   2.335   3.778 -0.4272  1.9525  0.5024
  125OSM    H3G13287   4.570   2.228   3.731  1.4033  0.3517 -1.6518
  125OSM    C4F13288   4.545   2.295   3.934  0.3866  0.2029  0.1451
  125OSM    H4F13289   4.438   2.268   3.941 -0.1022  1.8447 -0.5261
  125OSM    H4G13290   4.535   2.386   3.997  1.5222 -0.1537  0.8935
  125OSM    C5F13291   4.648   2.212   4.013  0.8590 -0.1554  0.3459
  125OSM    H5F13292   4.720   2.286   4.055  1.6901 -0.5247 -0.3861
  125OSM    H5G13293   4.703   2.137   3.952  1.2242 -0.0963  0.5976
  125OSM    C6F13294   4.585   2.129   4.126 -0.1992 -0.1432  0.2579
  125OSM    H6F13295   4.512   2.056   4.088  0.4425 -1.4314  1.3845
  125OSM    H6G13296   4.518   2.189   4.191 -1.8651 -0.4350 -1.1414
  125OSM    C7F13297   4.688   2.055   4.211 -0.1252  0.0333  0.2829
  125OSM    H7F13298   4.778   2.120   4.222 -0.4974  0.6232 -0.0802
  125OSM    H7G13299   4.726   1.971   4.148  3.4365 -0.5441  2.9025
  125OSM    C8F13300   4.632   2.002   4.344 -0.1271  0.1553  0.0035
  125OSM    H8F13301   4.708   1.943   4.399 -1.5383  0.3221  2.2693
  125OSM    H8G13302   4.545   1.933   4.335 -0.7246  1.0808 -1.9070
  125OSM    C9F13303   4.606   2.120   4.438  0.4833  0.2236 -0.5445
  125OSM    H9F13304   4.668   2.205   4.403  0.7682  0.6478  0.9044
  125OSM   C10F13305   4.534   2.122   4.555  0.4087 -0.8257  0.3400
  125OSM   H10F13306   4.537   2.218   4.610 -0.5501 -0.0746 -0.8664
  125OSM   C11F13307   4.451   2.017   4.604 -0.2030 -0.2329 -0.1078
  125OSM   H11F13308   4.418   1.951   4.521  1.2889 -0.3909 -0.6004
  125OSM   H11G13309   4.356   2.066   4.635  0.0289 -0.6406  1.3216
  125OSM   C12F13310   4.507   1.938   4.727  0.2350 -0.4071  0.1393
  125OSM   H12F13311   4.600   1.883   4.700  0.9153  0.1160  1.3523
  125OSM   H12G13312   4.440   1.856   4.761  0.7902 -0.6127  0.7468
  125OSM   C13F13313   4.534   2.019   4.847 -0.3315 -0.5881  0.5113
  125OSM   H13F13314   4.438   2.064   4.881  0.5815  0.1221  2.2648
  125OSM   H13G13315   4.598   2.108   4.830  1.6387 -1.9191  0.6038
  125OSM   C14F13316   4.577   1.946   4.974  0.9926 -0.7910 -0.3927
  125OSM   H14F13317   4.521   1.850   4.977 -0.3834 -0.0097 -0.5279
  125OSM   H14G13318   4.560   1.991   5.074  0.2619  1.4937 -1.4874
  125OSM   C15F13319   4.732   1.906   4.959  0.2939 -0.4484 -0.6695
  125OSM   H15F13320   4.796   1.994   4.980 -0.4822 -0.2136  0.8513
  125OSM   H15G13321   4.752   1.865   4.858  0.1888 -1.1439 -0.4144
  125OSM   C16F13322   4.774   1.791   5.049 -0.0805  0.4569 -0.2945
  125OSM   H16F13323   4.732   1.693   5.017  3.8944 -0.7045 -2.7582
  125OSM   H16G13324   4.731   1.821   5.147 -0.0622  0.0329 -0.1546
  125OSM   C17F13325   4.930   1.776   5.053 -0.3118 -0.4316 -1.0905
  125OSM   H17F13326   4.957   1.720   5.145  0.3681  0.4984 -0.7031
  125OSM   H17G13327   4.968   1.880   5.065  2.0110 -1.1412 -1.8304
  125OSM   C18F13328   5.002   1.709   4.940 -0.6716  0.4101  0.1804
  125OSM   H18F13329   5.112   1.721   4.943 -0.3466 -2.3584  2.0350
  125OSM   H18G13330   4.970   1.751   4.842 -1.2656  2.5983  1.2585
  125OSM   H18H13331   4.990   1.600   4.953  0.8757  0.3108  1.0278
  126OSM      N13332   2.148   5.987   2.696  0.1427 -0.3347  0.1815
  126OSM    C1513333   2.033   6.082   2.705  0.3638  0.7790  0.2823
  126OSM   H15A13334   2.023   6.123   2.804  1.7116 -0.8562  1.1515
  126OSM   H15B13335   1.935   6.046   2.677 -0.0216  1.2505  1.0031
  126OSM   H15C13336   2.049   6.166   2.638 -1.8087  0.5035 -0.6606
  126OSM    C1413337   2.127   5.873   2.790  0.3906 -0.6689  0.8451
  126OSM   H14A13338   2.187   5.784   2.775  0.4891 -0.2944 -1.1765
  126OSM   H14B13339   2.023   5.843   2.793  0.3027 -0.9498 -2.1225
  126OSM   H14C13340   2.142   5.904   2.892  1.2240  1.1481  0.2082
  126OSM    C1313341   2.156   5.937   2.557  0.1529  0.8160 -0.5846
  126OSM   H13A13342   2.073   5.871   2.537 -0.3970  1.4653 -0.4651
  126OSM   H13B13343   2.248   5.887   2.528  0.1517 -0.1473  0.9620
  126OSM   H13C13344   2.149   6.026   2.497  0.2426  0.4830 -1.0974
  126OSM    C1213345   2.280   6.061   2.724  0.4116 -0.1076 -0.1932
  126OSM   H12A13346   2.299   6.132   2.645  0.3662 -0.7047 -0.7491
  126OSM   H12B13347   2.359   5.988   2.730  0.2430 -0.2517  0.3241
  126OSM    C1113348   2.292   6.140   2.862  0.2675  0.1616  0.8389
  126OSM   H11A13349   2.400   6.152   2.884  1.2667 -1.2549 -2.6966
  126OSM   H11B13350   2.258   6.079   2.948 -1.7003 -0.8324 -0.5660
  126OSM      P13351   2.137   6.316   2.974 -0.1089  0.1632  0.4355
  126OSM    O1313352   2.184   6.453   3.012 -0.0605  0.6372  0.5764
  126OSM    O1413353   2.001   6.299   2.926  0.4009  0.0741  0.4298
  126OSM    O1113354   2.169   6.216   3.092  0.2374  0.1619  0.0813
  126OSM    O1213355   2.224   6.269   2.858  0.3768 -0.2596  0.1536
  126OSM    C1S13356   2.280   6.241   3.179  0.2558 -0.0856 -0.0936
  126OSM    H1S13357   2.269   6.343   3.221 -2.2453 -1.0019  1.6988
  126OSM    H1T13358   2.375   6.226   3.123  0.3704 -0.8754  0.2901
  126OSM     NF13359   2.384   6.206   3.398  0.0409 -0.7702  0.1290
  126OSM    HNF13360   2.470   6.157   3.413  1.5910  1.1182 -2.0077
  126OSM    C2S13361   2.284   6.150   3.305  0.7352 -0.0711 -0.0353
  126OSM    H2S13362   2.180   6.153   3.346 -0.3919  0.7442 -2.7417
  126OSM    C3S13363   2.305   6.000   3.266  0.2348  0.1316  0.2245
  126OSM    H3S13364   2.400   5.964   3.221  0.2145  1.0281 -0.5672
  126OSM     O313365   2.203   5.960   3.171 -0.4011 -0.1257  0.3157
  126OSM    HO313366   2.145   6.035   3.156  0.1392  0.0947 -0.8137
  126OSM    C4S13367   2.282   5.915   3.392 -0.9270  0.0874  0.0186
  126OSM    H4S13368   2.182   5.872   3.403 -1.5508  1.3289 -0.6329
  126OSM    C5S13369   2.376   5.869   3.482  0.8613  0.0078  0.3570
  126OSM    H5S13370   2.482   5.890   3.462  0.8853  0.3194  0.7823
  126OSM    C6S13371   2.342   5.779   3.602  0.5971 -0.5454 -0.1929
  126OSM    H6S13372   2.415   5.696   3.594  1.6191  0.4372 -1.6934
  126OSM    H6T13373   2.235   5.751   3.596  0.4926 -0.7260  1.8310
  126OSM    C7S13374   2.373   5.832   3.746  0.6490 -0.1748  0.4124
  126OSM    H7S13375   2.304   5.917   3.768 -1.0541 -1.3513 -0.2092
  126OSM    H7T13376   2.471   5.884   3.744 -1.0443  3.3462 -0.2352
  126OSM    C8S13377   2.370   5.727   3.853  0.0445  0.1247 -0.8438
  126OSM    H8S13378   2.271   5.677   3.852  0.3803 -0.5416 -1.6016
  126OSM    H8T13379   2.374   5.781   3.950 -0.9290  1.8459 -1.7216
  126OSM    C9S13380   2.485   5.622   3.852 -0.6971  0.0406  0.3561
  126OSM    H9S13381   2.578   5.669   3.891  1.7707 -0.7131 -4.0405
  126OSM    H9T13382   2.509   5.600   3.746  2.4165  0.3278  0.8993
  126OSM   C10S13383   2.448   5.487   3.924 -0.8150  0.0773 -0.4991
  126OSM   H10S13384   2.524   5.411   3.897  0.9778  2.0957 -1.4462
  126OSM   H10T13385   2.354   5.445   3.883 -0.9543  0.2506 -0.3582
  126OSM   C11S13386   2.441   5.504   4.077  0.3833 -0.4924  0.7482
  126OSM   H11S13387   2.352   5.561   4.110  0.0025 -1.3521  1.2254
  126OSM   H11T13388   2.532   5.557   4.115  0.1027  0.9388 -0.4693
  126OSM   C12S13389   2.426   5.367   4.153  0.1739  0.2013  0.1065
  126OSM   H12S13390   2.447   5.373   4.262  0.8668 -0.4754  0.0220
  126OSM   H12T13391   2.509   5.308   4.108 -0.9148  0.1465 -1.9365
  126OSM   C13S13392   2.293   5.294   4.120 -0.3849  0.0791  0.2684
  126OSM   H13S13393   2.304   5.237   4.025 -0.1340 -0.6669  0.7395
  126OSM   H13T13394   2.206   5.362   4.104 -1.8948 -2.1455 -1.5450
  126OSM   C14S13395   2.254   5.206   4.244 -0.7543 -0.6204  0.0282
  126OSM   H14S13396   2.229   5.276   4.327  0.1142 -1.4198  0.9826
  126OSM   H14T13397   2.345   5.148   4.269 -0.1432  0.8522  1.3720
  126OSM   C15S13398   2.135   5.122   4.214  0.4182  0.6369  0.0710
  126OSM   H15S13399   2.164   5.025   4.169 -1.6017 -0.3848  0.8378
  126OSM   H15T13400   2.072   5.171   4.136 -2.2033 -3.3462 -0.6028
  126OSM   C16S13401   2.050   5.095   4.340 -0.1149  0.0703 -0.3567
  126OSM   H16S13402   1.957   5.041   4.310 -0.9855  0.9175  0.7296
  126OSM   H16T13403   2.009   5.193   4.372 -0.2243 -0.6303  1.8070
  126OSM   C17S13404   2.133   5.023   4.449 -0.3825  0.1749 -0.1107
  126OSM   H17S13405   2.190   5.091   4.516 -0.8171 -0.8053  1.2920
  126OSM   H17T13406   2.207   4.954   4.403  0.6228 -0.8273  2.7909
  126OSM   C18S13407   2.059   4.932   4.542  0.5153  0.5903  0.1544
  126OSM   H18S13408   2.130   4.874   4.604  1.4540 -0.4302 -1.7771
  126OSM   H18T13409   2.010   4.858   4.474 -0.5501  1.3079  0.1179
  126OSM   H18U13410   1.976   4.988   4.591 -0.5661  1.2664 -2.2463
  126OSM    C1F13411   2.372   6.319   3.455  0.1726 -0.8692  0.2797
  126OSM     OF13412   2.261   6.375   3.470 -0.2427  0.6308 -0.4820
  126OSM    C2F13413   2.498   6.388   3.504 -0.1980 -0.4740 -0.0075
  126OSM    H2F13414   2.518   6.469   3.431  1.9817 -0.6725  0.3035
  126OSM    H2G13415   2.590   6.327   3.491  0.6674  0.2237  2.3888
  126OSM    C3F13416   2.482   6.447   3.643 -0.7555  0.1111 -0.1714
  126OSM    H3F13417   2.392   6.511   3.648  0.0154  1.5441 -2.8541
  126OSM    H3G13418   2.569   6.512   3.663  0.3423 -0.9731 -1.1988
  126OSM    C4F13419   2.474   6.337   3.758 -0.3171 -0.6039  0.7042
  126OSM    H4F13420   2.371   6.296   3.760 -1.6793  2.5330  1.2696
  126OSM    H4G13421   2.487   6.377   3.861  0.2020 -0.9844  0.7904
  126OSM    C5F13422   2.585   6.241   3.745 -0.3915 -0.5194  1.1117
  126OSM    H5F13423   2.684   6.291   3.747 -1.4676  1.8079 -0.4390
  126OSM    H5G13424   2.586   6.181   3.652 -2.2884  1.1078 -0.0194
  126OSM    C6F13425   2.582   6.145   3.861  0.1495 -0.0630 -0.0548
  126OSM    H6F13426   2.489   6.084   3.866  1.4589 -2.1062  2.1688
  126OSM    H6G13427   2.595   6.202   3.956 -0.0775  1.6341 -1.0131
  126OSM    C7F13428   2.706   6.055   3.859  0.0327 -0.0822 -0.7246
  126OSM    H7F13429   2.796   6.118   3.839  0.2372  0.1429  0.8035
  126OSM    H7G13430   2.688   5.971   3.788  1.0016 -1.0702  0.1614
  126OSM    C8F13431   2.724   5.999   4.000  0.2680 -0.3551 -0.3944
  126OSM    H8F13432   2.624   5.955   4.025  1.8863 -2.4352  3.1821
  126OSM    H8G13433   2.727   6.080   4.077  2.0965  1.9236 -2.7160
  126OSM    C9F13434   2.826   5.891   4.027 -0.2273 -0.5417  0.2691
  126OSM    H9F13435   2.918   5.899   3.967  1.1859 -2.6569  2.0096
  126OSM   C10F13436   2.826   5.792   4.119 -0.9930 -0.4893  0.0575
  126OSM   H10F13437   2.926   5.747   4.134 -1.2709 -0.6861  1.4188
  126OSM   C11F13438   2.731   5.754   4.235  0.0352 -0.3446  0.0271
  126OSM   H11F13439   2.696   5.649   4.224 -1.8167  0.3786 -1.6187
  126OSM   H11G13440   2.639   5.815   4.230 -0.8355 -1.6596 -0.4220
  126OSM   C12F13441   2.793   5.791   4.372 -0.1756  0.5094  0.1727
  126OSM   H12F13442   2.722   5.767   4.454  1.2737  1.9703  1.9444
  126OSM   H12G13443   2.823   5.897   4.383  0.2624  0.3945  0.1040
  126OSM   C13F13444   2.909   5.700   4.417 -0.3700  0.2247  0.3144
  126OSM   H13F13445   2.996   5.720   4.352  1.8075 -2.0414  2.3233
  126OSM   H13G13446   2.875   5.598   4.387 -2.0716  1.1665 -1.1837
  126OSM   C14F13447   2.941   5.726   4.564  0.2040  0.3411 -0.3915
  126OSM   H14F13448   2.846   5.710   4.619  0.0838  1.2471 -0.3292
  126OSM   H14G13449   2.967   5.834   4.570  1.9568 -0.0458 -0.5765
  126OSM   C15F13450   3.051   5.637   4.623 -0.0759  0.0217  0.2415
  126OSM   H15F13451   3.155   5.655   4.589 -0.2354  0.1056 -0.2078
  126OSM   H15G13452   3.028   5.535   4.587  0.8113 -0.4956  1.0847
  126OSM   C16F13453   3.056   5.637   4.777  1.0690  0.2684 -0.7779
  126OSM   H16F13454   2.955   5.605   4.812  1.8748 -1.8528 -0.2310
  126OSM   H16G13455   3.061   5.741   4.815 -1.3805  0.2781 -0.3246
  126OSM   C17F13456   3.167   5.548   4.829  0.2397  1.1194 -0.0609
  126OSM   H17F13457   3.269   5.591   4.817  0.5663  0.0984 -1.1469
  126OSM   H17G13458   3.170   5.452   4.774  0.0416  1.6936 -1.0960
  126OSM   C18F13459   3.148   5.508   4.977  0.9890 -0.1414  0.5907
  126OSM   H18F13460   3.043   5.481   4.997  0.5153  0.4305 -0.9608
  126OSM   H18G13461   3.168   5.597   5.041  0.7955  1.4396 -1.4332
  126OSM   H18H13462   3.212   5.422   5.006 -0.1640 -0.6904  1.5888
  127OSM      N13463   0.781   0.055   2.978  0.3227 -0.4237 -0.3961
  127OSM    C1513464   0.666   0.058   2.879 -0.2596 -0.1179  0.9585
  127OSM   H15A13465   0.616  -0.037   2.872 -1.3280  0.1679  3.6315
  127OSM   H15B13466   0.713   0.084   2.785 -0.5242 -0.5591  0.7045
  127OSM   H15C13467   0.595   0.135   2.904 -2.3508 -1.6207 -0.0737
  127OSM    C1413468   0.841   0.189   2.991  0.4875 -0.6325 -0.2085
  127OSM   H14A13469   0.909   0.214   2.911 -0.3610 -1.9691 -1.4166
  127OSM   H14B13470   0.900   0.188   3.081 -0.9481 -1.7041  0.7829
  127OSM   H14C13471   0.764   0.262   3.011  0.7321 -0.1347 -1.0359
  127OSM    C1313472   0.714   0.009   3.105 -0.3808 -0.8708  0.2196
  127OSM   H13A13473   0.788   0.023   3.183  0.1189 -1.8404 -0.0648
  127OSM   H13B13474   0.691  -0.097   3.110  0.3033 -1.0068  0.5240
  127OSM   H13C13475   0.628   0.072   3.124 -1.2894 -0.5640 -3.9450
  127OSM    C1213476   0.880  -0.049   2.939 -0.3948 -0.1610 -0.3387
  127OSM   H12A13477   0.834  -0.145   2.949 -0.1184 -0.4905 -1.9071
  127OSM   H12B13478   0.962  -0.034   3.009  1.1459 -0.4114 -2.0047
  127OSM    C1113479   0.953  -0.035   2.796  0.4394  0.4106 -0.1037
  127OSM   H11A13480   0.871  -0.034   2.721 -0.3020  2.3999  0.6653
  127OSM   H11B13481   1.009  -0.126   2.766  0.9871  0.6977  0.0324
  127OSM      P13482   1.168   0.109   2.852 -0.2220 -0.1388 -0.0839
  127OSM    O1313483   1.279   0.060   2.773  0.0825 -0.0093  0.2120
  127OSM    O1413484   1.167   0.251   2.878  0.7038 -0.3075 -0.0419
  127OSM    O1113485   1.163   0.027   2.991 -0.4917  0.2311  0.1553
  127OSM    O1213486   1.029   0.082   2.771 -0.2727  1.0739 -0.4338
  127OSM    C1S13487   1.275   0.038   3.077  0.1493  0.3751 -0.1440
  127OSM    H1S13488   1.265   0.131   3.137 -3.8791 -0.0164  0.0955
  127OSM    H1T13489   1.373   0.023   3.027 -0.0574 -0.9459 -0.2105
  127OSM     NF13490   1.393  -0.030   3.282 -0.0887  0.6926 -0.5825
  127OSM    HNF13491   1.484  -0.069   3.275 -1.0526 -2.1003  0.8685
  127OSM    C2S13492   1.294  -0.069   3.183  0.1976 -0.2389 -0.7086
  127OSM    H2S13493   1.195  -0.075   3.235  0.7385  0.3813  0.4255
  127OSM    C3S13494   1.324  -0.203   3.114  0.3534 -0.1316 -0.1119
  127OSM    H3S13495   1.423  -0.193   3.064  0.4859  0.4245  0.2448
  127OSM     O313496   1.249  -0.234   3.003  0.2142  0.0343  0.3815
  127OSM    HO313497   1.190  -0.159   2.995  0.5089  0.3799  1.3427
  127OSM    C4S13498   1.342  -0.313   3.219  0.2821  0.6076  0.0473
  127OSM    H4S13499   1.438  -0.326   3.272 -0.2806 -1.7317  0.5805
  127OSM    C5S13500   1.254  -0.414   3.237  0.2991  0.1002 -0.0286
  127OSM    H5S13501   1.169  -0.422   3.168 -0.1876  0.8197  0.4650
  127OSM    C6S13502   1.273  -0.527   3.329 -0.4426  0.5294 -0.3196
  127OSM    H6S13503   1.262  -0.625   3.278 -0.5248 -1.8814  3.8456
  127OSM    H6T13504   1.195  -0.531   3.408  0.2591  1.3979  0.4364
  127OSM    C7S13505   1.407  -0.539   3.398 -0.1919 -0.6435 -0.0822
  127OSM    H7S13506   1.425  -0.444   3.452  0.9607 -0.6884 -0.3619
  127OSM    H7T13507   1.488  -0.545   3.322  0.2722  1.6535  0.1707
  127OSM    C8S13508   1.422  -0.656   3.495  0.0708 -0.3816  0.1862
  127OSM    H8S13509   1.532  -0.664   3.511  0.4802  1.8061 -1.0946
  127OSM    H8T13510   1.391  -0.752   3.449 -1.6621  0.5599 -0.6928
  127OSM    C9S13511   1.340  -0.631   3.629 -0.5928 -0.2565  0.2921
  127OSM    H9S13512   1.231  -0.637   3.611 -0.5116  1.3591 -0.9680
  127OSM    H9T13513   1.360  -0.526   3.659 -3.6056  0.8061 -0.9975
  127OSM   C10S13514   1.375  -0.739   3.736  0.1603 -0.3492 -0.5254
  127OSM   H10S13515   1.476  -0.724   3.780 -0.7421 -1.9375  2.2711
  127OSM   H10T13516   1.378  -0.838   3.687  1.8316 -0.7854  0.4059
  127OSM   C11S13517   1.265  -0.763   3.841 -0.1316 -0.2927 -0.1432
  127OSM   H11S13518   1.174  -0.819   3.809  1.6888 -3.1271 -0.6945
  127OSM   H11T13519   1.224  -0.662   3.864  1.6372  0.3156  0.5017
  127OSM   C12S13520   1.327  -0.820   3.967  0.3628 -0.0667 -0.1714
  127OSM   H12S13521   1.429  -0.776   3.975  0.1686  0.1569  1.6261
  127OSM   H12T13522   1.347  -0.929   3.958  1.9218  0.1697  0.1065
  127OSM   C13S13523   1.264  -0.791   4.103  0.3354  0.2256  0.1405
  127OSM   H13S13524   1.177  -0.860   4.105  1.5142 -1.3245 -0.0437
  127OSM   H13T13525   1.247  -0.682   4.112  0.2474  0.4349 -2.0774
  127OSM   C14S13526   1.358  -0.843   4.209  0.1578  0.2019 -0.5069
  127OSM   H14S13527   1.451  -0.783   4.205 -0.4131  1.6260  2.9940
  127OSM   H14T13528   1.376  -0.946   4.174 -0.2923 -0.3322  0.7587
  127OSM   C15S13529   1.304  -0.827   4.352 -0.6155 -0.1230 -0.1727
  127OSM   H15S13530   1.208  -0.881   4.361 -0.4823 -0.2712  0.3848
  127OSM   H15T13531   1.273  -0.722   4.367 -1.6452 -0.7996  3.1270
  127OSM   C16S13532   1.398  -0.869   4.456 -0.4760  0.3759 -0.0689
  127OSM   H16S13533   1.493  -0.812   4.439 -2.4385  4.4372  1.2140
  127OSM   H16T13534   1.408  -0.978   4.441  1.9645  0.7155 -1.3809
  127OSM   C17S13535   1.350  -0.846   4.600  0.0858  0.1424 -0.1610
  127OSM   H17S13536   1.280  -0.930   4.621 -0.4870  1.1187  2.2048
  127OSM   H17T13537   1.295  -0.750   4.604 -0.6317 -0.2463 -0.4566
  127OSM   C18S13538   1.462  -0.851   4.701  0.8443 -0.0541  0.2325
  127OSM   H18S13539   1.532  -0.765   4.694 -0.0981  0.7992  1.0372
  127OSM   H18T13540   1.517  -0.947   4.689  0.7152  0.0706 -1.8466
  127OSM   H18U13541   1.436  -0.847   4.808  0.3662 -1.0125  0.1644
  127OSM    C1F13542   1.361   0.070   3.369 -0.5064 -0.4103  0.3577
  127OSM     OF13543   1.247   0.103   3.371  0.1212 -0.8055 -0.5030
  127OSM    C2F13544   1.467   0.148   3.429  0.1974 -0.1399 -0.3959
  127OSM    H2F13545   1.530   0.198   3.352  0.4424 -0.9177 -0.7137
  127OSM    H2G13546   1.534   0.080   3.484  0.1123 -0.4163 -0.6311
  127OSM    C3F13547   1.417   0.264   3.520  0.1963  0.0577 -0.1507
  127OSM    H3F13548   1.366   0.223   3.611  0.2079 -0.3819 -0.3393
  127OSM    H3G13549   1.344   0.322   3.460 -2.4917 -2.2132  0.7285
  127OSM    C4F13550   1.530   0.352   3.559  0.4219  0.4803  0.7667
  127OSM    H4F13551   1.581   0.391   3.468 -1.5595  1.5959  0.0954
  127OSM    H4G13552   1.616   0.303   3.611  0.1927 -0.9923 -0.1788
  127OSM    C5F13553   1.479   0.457   3.653 -0.8422  0.0967 -0.1326
  127OSM    H5F13554   1.373   0.479   3.629 -1.5938 -1.9116  1.1317
  127OSM    H5G13555   1.532   0.555   3.647  0.4742 -0.5738  0.1385
  127OSM    C6F13556   1.479   0.416   3.801 -0.0381  0.5048  0.2237
  127OSM    H6F13557   1.583   0.386   3.826 -0.8718 -2.2504  0.7263
  127OSM    H6G13558   1.407   0.332   3.808 -1.4483  1.3622 -2.2566
  127OSM    C7F13559   1.430   0.526   3.890  0.2340  0.0082 -0.1043
  127OSM    H7F13560   1.328   0.562   3.867  0.4248 -0.8138 -2.5432
  127OSM    H7G13561   1.498   0.611   3.865 -0.3070  0.1545 -1.1437
  127OSM    C8F13562   1.467   0.497   4.040  0.7807 -0.4592  0.8653
  127OSM    H8F13563   1.448   0.587   4.102  0.6257  0.7580 -0.8716
  127OSM    H8G13564   1.575   0.488   4.065  0.8811  2.6662  2.0000
  127OSM    C9F13565   1.375   0.391   4.086 -0.1807  0.4046  0.2526
  127OSM    H9F13566   1.267   0.408   4.077 -0.4847 -1.7710 -0.8659
  127OSM   C10F13567   1.422   0.267   4.119  0.2271  0.3634  0.7405
  127OSM   H10F13568   1.353   0.185   4.142  1.0220 -0.0971  1.4834
  127OSM   C11F13569   1.564   0.216   4.135 -0.1255  0.4163 -0.6168
  127OSM   H11F13570   1.631   0.263   4.059  1.2090 -0.7931 -0.2378
  127OSM   H11G13571   1.566   0.110   4.100 -2.8805 -0.6842  2.1484
  127OSM   C12F13572   1.623   0.227   4.277 -0.0251 -0.3647  0.9783
  127OSM   H12F13573   1.616   0.331   4.316  1.3180  0.4612 -0.8154
  127OSM   H12G13574   1.731   0.203   4.270  0.1247  0.3520  0.7569
  127OSM   C13F13575   1.549   0.134   4.372  0.1496  0.1397 -0.4783
  127OSM   H13F13576   1.567   0.031   4.333  1.9801 -0.3751  1.4747
  127OSM   H13G13577   1.441   0.158   4.366 -0.1529 -0.1203  2.5797
  127OSM   C14F13578   1.590   0.143   4.515  0.1179  0.6562  0.0521
  127OSM   H14F13579   1.563   0.242   4.559  0.5837  0.5239  0.6517
  127OSM   H14G13580   1.698   0.137   4.541 -0.2996  1.8874  2.3714
  127OSM   C15F13581   1.517   0.049   4.612  1.0126  0.9176  1.1356
  127OSM   H15F13582   1.509  -0.048   4.560 -3.0874  1.2739  0.7655
  127OSM   H15G13583   1.411   0.083   4.622  0.3614 -0.5002 -0.4622
  127OSM   C16F13584   1.579   0.037   4.749 -0.2789  0.0738 -0.5800
  127OSM   H16F13585   1.563   0.136   4.797 -1.8464  0.0880 -1.0757
  127OSM   H16G13586   1.690   0.029   4.747  0.0734  3.4226 -0.3587
  127OSM   C17F13587   1.524  -0.076   4.827 -0.7700  0.4685  0.4875
  127OSM   H17F13588   1.543  -0.172   4.774 -1.5034  1.5958 -1.9415
  127OSM   H17G13589   1.413  -0.062   4.827 -0.5917  2.0091  1.0179
  127OSM   C18F13590   1.578  -0.083   4.962 -0.0024  0.3214 -0.9894
  127OSM   H18F13591   1.550   0.015   5.006 -1.8895 -0.5338 -0.1955
  127OSM   H18G13592   1.687  -0.105   4.956 -0.3125 -1.3963 -0.8699
  127OSM   H18H13593   1.527  -0.149   5.035 -1.4289 -0.6662 -2.8063
  128OSM      N13594   1.453   0.542   3.019 -0.3254  0.2846 -0.3393
  128OSM    C1513595   1.531   0.450   2.936 -0.2934  0.2626 -1.0016
  128OSM   H15A13596   1.513   0.349   2.969  0.6229  1.1369  2.6851
  128OSM   H15B13597   1.636   0.472   2.952 -0.4592  0.6849 -0.4565
  128OSM   H15C13598   1.507   0.461   2.831  0.7543  0.8280 -1.1960
  128OSM    C1413599   1.307   0.534   2.986 -0.5483  0.0222 -0.0135
  128OSM   H14A13600   1.275   0.431   2.980 -1.2856 -0.1359  4.0446
  128OSM   H14B13601   1.287   0.580   2.890  0.6127 -4.0900 -2.4823
  128OSM   H14C13602   1.240   0.580   3.056 -3.9768  0.7382 -3.4313
  128OSM    C1313603   1.466   0.497   3.165  0.0190  0.1469  0.3463
  128OSM   H13A13604   1.444   0.392   3.174  0.0098  0.2177  1.2422
  128OSM   H13B13605   1.402   0.549   3.235 -2.0519 -0.3124 -1.1417
  128OSM   H13C13606   1.567   0.509   3.202  0.4368 -1.4796 -0.2264
  128OSM    C1213607   1.513   0.683   3.000  0.1210  0.3284  0.1233
  128OSM   H12A13608   1.457   0.755   3.057  1.0828  0.5040  0.8648
  128OSM   H12B13609   1.496   0.704   2.896  2.0045  0.1657 -0.2461
  128OSM    C1113610   1.670   0.698   3.020  0.1157 -1.0375  0.1123
  128OSM   H11A13611   1.677   0.665   3.125 -2.2429  0.2485  0.7406
  128OSM   H11B13612   1.702   0.804   3.011 -1.4235 -0.5790 -0.4004
  128OSM      P13613   1.899   0.572   2.967 -0.0265 -0.0333  0.2586
  128OSM    O1313614   1.964   0.520   2.844 -0.1641 -0.2432  0.0931
  128OSM    O1413615   1.973   0.683   3.035 -0.1774 -0.5778 -0.0476
  128OSM    O1113616   1.870   0.455   3.067 -0.5155 -0.4688 -0.0826
  128OSM    O1213617   1.755   0.619   2.931 -0.0332 -0.6560  0.5285
  128OSM    C1S13618   1.988   0.383   3.114  0.9586 -0.0383 -0.5032
  128OSM    H1S13619   2.084   0.424   3.075  0.3949  0.2259 -1.6811
  128OSM    H1T13620   1.977   0.277   3.082 -0.2682 -0.6969  1.8262
  128OSM     NF13621   2.124   0.312   3.302  0.6603  0.1537  0.3143
  128OSM    HNF13622   2.113   0.224   3.347 -1.5998  0.1088 -0.2387
  128OSM    C2S13623   1.994   0.378   3.269 -0.4088 -0.3734  0.1160
  128OSM    H2S13624   2.008   0.479   3.314 -0.5094 -0.7957  1.1204
  128OSM    C3S13625   1.858   0.320   3.324 -0.0059 -0.2442 -0.2387
  128OSM    H3S13626   1.849   0.218   3.282 -2.1644  0.1958 -0.9625
  128OSM     O313627   1.743   0.388   3.278  0.5978  0.1426  0.2974
  128OSM    HO313628   1.778   0.451   3.214 -1.7649  0.4968 -0.7193
  128OSM    C4S13629   1.862   0.318   3.473  0.5404  0.0834  0.2116
  128OSM    H4S13630   1.862   0.418   3.518 -0.8163  1.2714 -2.2501
  128OSM    C5S13631   1.873   0.202   3.548  0.6961 -0.3764 -0.2737
  128OSM    H5S13632   1.880   0.105   3.497 -1.7217  0.1015 -1.6837
  128OSM    C6S13633   1.909   0.194   3.694  0.0202  0.3588  0.4088
  128OSM    H6S13634   1.882   0.286   3.750 -2.2941 -0.5057  0.8046
  128OSM    H6T13635   2.017   0.171   3.705 -0.1913 -0.1382  1.5669
  128OSM    C7S13636   1.816   0.089   3.764  0.0369 -0.4278  0.6522
  128OSM    H7S13637   1.835  -0.003   3.706  1.2635 -1.0056  1.9113
  128OSM    H7T13638   1.712   0.127   3.756 -0.3015 -1.7300 -4.6994
  128OSM    C8S13639   1.847   0.059   3.916 -0.9098 -0.2662  0.3377
  128OSM    H8S13640   1.812   0.143   3.980 -0.2807 -0.7381  1.3282
  128OSM    H8T13641   1.954   0.033   3.931 -1.1712 -1.6540 -0.0436
  128OSM    C9S13642   1.772  -0.069   3.969  0.5401  0.4804  0.1108
  128OSM    H9S13643   1.806  -0.153   3.905 -2.0879  0.1199 -0.9685
  128OSM    H9T13644   1.667  -0.046   3.939  0.5587  1.7656  0.9665
  128OSM   C10S13645   1.799  -0.104   4.114  0.3683  0.0436  0.3479
  128OSM   H10S13646   1.750  -0.203   4.117  1.0082 -0.4231 -2.0210
  128OSM   H10T13647   1.744  -0.022   4.166 -1.4253 -0.3877 -0.7747
  128OSM   C11S13648   1.948  -0.115   4.154  0.5727 -0.3075 -0.3503
  128OSM   H11S13649   1.981  -0.012   4.180 -0.1606  0.2366 -1.4864
  128OSM   H11T13650   2.012  -0.132   4.066  0.2147 -1.9730 -0.3089
  128OSM   C12S13651   1.975  -0.205   4.278  0.0620 -0.0288  0.5536
  128OSM   H12S13652   2.080  -0.197   4.313  0.0600  0.0987  0.5332
  128OSM   H12T13653   1.959  -0.314   4.263 -0.9409  0.0781  0.7732
  128OSM   C13S13654   1.890  -0.154   4.396 -1.0135 -0.5560 -0.3257
  128OSM   H13S13655   1.783  -0.138   4.373 -0.6558  2.2757 -0.3087
  128OSM   H13T13656   1.938  -0.059   4.427  2.5933 -2.5777  0.8582
  128OSM   C14S13657   1.902  -0.252   4.512 -0.3571 -0.6111  0.4038
  128OSM   H14S13658   2.009  -0.281   4.525  0.4797  2.7063  2.0920
  128OSM   H14T13659   1.845  -0.337   4.470 -1.8952  0.7821 -0.4672
  128OSM   C15S13660   1.840  -0.201   4.645  0.6180 -0.1562 -0.6115
  128OSM   H15S13661   1.737  -0.171   4.617  0.9968  1.3953 -0.4276
  128OSM   H15T13662   1.878  -0.107   4.690 -2.3685 -0.1317  2.1880
  128OSM   C16S13663   1.847  -0.302   4.766 -0.2869  0.3129  0.3307
  128OSM   H16S13664   1.835  -0.257   4.867  1.7842  1.0055  0.3139
  128OSM   H16T13665   1.944  -0.355   4.773 -0.9014 -0.7995  0.5727
  128OSM   C17S13666   1.751  -0.429   4.753 -0.0827 -1.0014 -0.0906
  128OSM   H17S13667   1.769  -0.457   4.647  0.2865  1.1550 -0.6487
  128OSM   H17T13668   1.651  -0.382   4.765  1.2796  2.3629 -0.6012
  128OSM   C18S13669   1.781  -0.545   4.837 -0.0936  0.1588  0.1260
  128OSM   H18S13670   1.691  -0.609   4.849  0.1174 -0.2643 -0.5446
  128OSM   H18T13671   1.804  -0.502   4.937 -0.7367  0.7107  0.0476
  128OSM   H18U13672   1.871  -0.595   4.796 -0.4342 -0.6424  0.3444
  128OSM    C1F13673   2.249   0.356   3.273 -0.2562  0.1895 -0.0656
  128OSM     OF13674   2.266   0.469   3.225  0.1251 -0.2794 -0.0445
  128OSM    C2F13675   2.356   0.258   3.293  0.0396  0.4359 -0.6852
  128OSM    H2F13676   2.418   0.263   3.201 -0.2295 -1.4216 -1.0076
  128OSM    H2G13677   2.321   0.154   3.310  0.0894  0.9208  3.4403
  128OSM    C3F13678   2.455   0.288   3.416  0.0953  0.3104  0.2829
  128OSM    H3F13679   2.466   0.399   3.408  1.9032  0.5622  4.1900
  128OSM    H3G13680   2.549   0.232   3.397  0.4195  0.5379  1.1913
  128OSM    C4F13681   2.383   0.263   3.551 -0.5669 -0.0934  0.2987
  128OSM    H4F13682   2.345   0.159   3.540 -0.6671  0.0552 -0.8656
  128OSM    H4G13683   2.296   0.332   3.558 -0.3894  0.0929  0.7553
  128OSM    C5F13684   2.465   0.280   3.679 -0.2870 -0.4236  0.0596
  128OSM    H5F13685   2.529   0.371   3.676 -0.9450  0.1354  1.4950
  128OSM    H5G13686   2.541   0.201   3.695  1.6151  1.6799  2.4527
  128OSM    C6F13687   2.386   0.290   3.809 -0.5600  0.1127 -0.0331
  128OSM    H6F13688   2.319   0.378   3.809  0.7211  1.1180  0.0664
  128OSM    H6G13689   2.460   0.292   3.892 -0.5850 -0.9044  0.0315
  128OSM    C7F13690   2.302   0.163   3.839 -0.4927 -0.4604 -0.1199
  128OSM    H7F13691   2.354   0.075   3.796  0.0410 -0.1345 -0.1397
  128OSM    H7G13692   2.205   0.176   3.786 -0.5016 -1.0339 -0.2477
  128OSM    C8F13693   2.284   0.129   3.985  0.5213 -0.0472 -0.1630
  128OSM    H8F13694   2.389   0.121   4.020  0.7483  0.8184 -0.6026
  128OSM    H8G13695   2.223   0.039   4.008 -0.8555  1.3825  2.2095
  128OSM    C9F13696   2.212   0.239   4.052 -0.0100  0.8152 -0.1836
  128OSM    H9F13697   2.156   0.312   3.990  1.8292  0.6112 -2.2015
  128OSM   C10F13698   2.187   0.232   4.188  0.7274 -0.3428  0.0278
  128OSM   H10F13699   2.138   0.321   4.229 -0.0013 -0.9137  0.4174
  128OSM   C11F13700   2.227   0.114   4.272 -0.3161  0.1075 -0.3336
  128OSM   H11F13701   2.300   0.051   4.216  0.0960  0.3710 -0.0995
  128OSM   H11G13702   2.140   0.058   4.311  0.0050 -0.5443 -0.5290
  128OSM   C12F13703   2.307   0.160   4.401 -0.7217  0.6642  0.2949
  128OSM   H12F13704   2.244   0.235   4.453 -2.3377 -1.1038  1.0067
  128OSM   H12G13705   2.404   0.206   4.374  0.6033 -1.5659  0.9123
  128OSM   C13F13706   2.346   0.045   4.505  0.0420  0.0612  0.4635
  128OSM   H13F13707   2.452   0.015   4.490 -0.5943 -1.1274 -2.0910
  128OSM   H13G13708   2.290  -0.047   4.478  2.2711 -0.5583 -2.5362
  128OSM   C14F13709   2.317   0.095   4.652 -0.0961 -0.0779 -0.1841
  128OSM   H14F13710   2.329   0.205   4.660 -1.1279  0.0031  0.4003
  128OSM   H14G13711   2.387   0.032   4.712  1.0366  0.5072 -0.8524
  128OSM   C15F13712   2.176   0.060   4.704  0.6256  0.4450  0.3699
  128OSM   H15F13713   2.168  -0.050   4.715  4.1268  0.0581  0.4787
  128OSM   H15G13714   2.095   0.102   4.641  2.1520  2.1892 -0.5526
  128OSM   C16F13715   2.155   0.131   4.844 -0.2118  0.3407  0.9053
  128OSM   H16F13716   2.192   0.235   4.852 -1.0338  0.6233  1.1268
  128OSM   H16G13717   2.210   0.078   4.925 -0.1704  0.2609  0.8242
  128OSM   C17F13718   2.007   0.115   4.884 -0.1142  0.0486 -0.8739
  128OSM   H17F13719   2.017   0.121   4.995 -0.6359 -0.7197 -0.7815
  128OSM   H17G13720   1.976   0.014   4.851  0.1263 -0.4443  0.3377
  128OSM   C18F13721   1.912   0.228   4.842  0.5574 -0.3418 -0.6867
  128OSM   H18F13722   1.935   0.327   4.885  2.9900 -1.4399  0.7938
  128OSM   H18G13723   1.815   0.199   4.887  1.5478 -1.9839  0.5112
  128OSM   H18H13724   1.895   0.228   4.732 -0.6010  2.2070 -0.5492
  129OSM      N13725   3.222   4.765   2.908  0.0953 -0.1857 -0.3203
  129OSM    C1513726   3.146   4.890   2.888 -0.0091  0.3909  0.4805
  129OSM   H15A13727   3.042   4.874   2.913  0.1780 -0.2029  0.9091
  129OSM   H15B13728   3.156   4.928   2.787 -1.8808 -0.6813 -0.1574
  129OSM   H15C13729   3.193   4.962   2.953  0.9305 -0.7372  1.1078
  129OSM    C1413730   3.173   4.700   3.038  0.6498 -0.2211 -0.2847
  129OSM   H14A13731   3.085   4.645   3.007  1.1541  0.4333 -3.1893
  129OSM   H14B13732   3.138   4.767   3.114  0.8881 -0.2219 -0.1743
  129OSM   H14C13733   3.233   4.616   3.069 -0.2826 -1.8982 -2.6808
  129OSM    C1313734   3.212   4.678   2.799 -0.2931 -0.5286  0.1473
  129OSM   H13A13735   3.109   4.660   2.771 -0.5425 -2.2029  1.9533
  129OSM   H13B13736   3.258   4.586   2.830  1.4772  0.0479 -0.6410
  129OSM   H13C13737   3.268   4.713   2.714 -0.6217  1.6887  0.7655
  129OSM    C1213738   3.368   4.799   2.930 -0.0550  0.2722  0.7740
  129OSM   H12A13739   3.416   4.708   2.963  1.7047  0.3077 -1.4384
  129OSM   H12B13740   3.377   4.866   3.014  0.1259  0.4213  0.6370
  129OSM    C1113741   3.459   4.854   2.814 -0.1257 -0.0920  0.2951
  129OSM   H11A13742   3.556   4.888   2.856  0.9526 -2.0495 -0.4829
  129OSM   H11B13743   3.408   4.947   2.780 -0.6939  0.0284  1.3996
  129OSM      P13744   3.607   4.683   2.680  0.0932 -0.1453  0.2302
  129OSM    O1313745   3.603   4.620   2.542  0.4068  0.2170 -0.6475
  129OSM    O1413746   3.721   4.777   2.710  0.1314 -0.4146  0.3377
  129OSM    O1113747   3.600   4.561   2.787  0.2441 -0.0200  0.0316
  129OSM    O1213748   3.476   4.761   2.704  0.1532  0.6257 -0.3853
  129OSM    C1S13749   3.632   4.586   2.927  0.2579  0.6044 -0.1120
  129OSM    H1S13750   3.585   4.677   2.970 -0.7829  0.1611 -0.2926
  129OSM    H1T13751   3.741   4.605   2.940  0.1577  0.6475  0.6972
  129OSM     NF13752   3.606   4.470   3.152  0.2751 -0.3860  0.2291
  129OSM    HNF13753   3.668   4.404   3.193 -0.9247 -1.7458 -0.0652
  129OSM    C2S13754   3.582   4.455   3.009 -0.0005 -0.2345 -0.1862
  129OSM    H2S13755   3.473   4.437   2.996 -0.5260  0.4098  2.6802
  129OSM    C3S13756   3.643   4.323   2.967  0.6117 -0.2377 -0.2033
  129OSM    H3S13757   3.750   4.351   2.977  0.1809  0.9066  1.5190
  129OSM     O313758   3.640   4.301   2.827 -0.4333 -0.3509  0.0238
  129OSM    HO313759   3.599   4.383   2.797 -0.3378 -0.4334 -0.3306
  129OSM    C4S13760   3.600   4.193   3.033  0.5847 -0.4626  0.2660
  129OSM    H4S13761   3.493   4.170   3.022  0.6714 -0.3909 -0.8354
  129OSM    C5S13762   3.679   4.114   3.106 -0.6270  0.2412 -0.7801
  129OSM    H5S13763   3.784   4.139   3.129  0.0569 -1.4273 -1.9134
  129OSM    C6S13764   3.630   3.997   3.183  0.6166  0.0486 -0.0528
  129OSM    H6S13765   3.678   3.909   3.134 -0.8213 -1.5169  1.2503
  129OSM    H6T13766   3.521   3.982   3.174  0.6511 -0.4056  0.2777
  129OSM    C7S13767   3.679   4.014   3.327  0.2488  0.4021  0.0955
  129OSM    H7S13768   3.640   4.101   3.383  1.0471  1.6148 -1.1669
  129OSM    H7T13769   3.790   4.024   3.335  0.1121  0.9770  1.7230
  129OSM    C8S13770   3.655   3.880   3.416  0.0373  0.9223 -0.7664
  129OSM    H8S13771   3.714   3.797   3.371 -1.0925  0.2334 -1.0416
  129OSM    H8T13772   3.551   3.840   3.413 -0.2015  1.2765  1.5917
  129OSM    C9S13773   3.686   3.905   3.562 -0.1233  0.4326 -0.2175
  129OSM    H9S13774   3.760   3.988   3.569 -0.5881  0.7914  0.5259
  129OSM    H9T13775   3.730   3.817   3.614  1.2377  2.0861  1.6116
  129OSM   C10S13776   3.566   3.931   3.657 -0.2380  0.4062  0.8653
  129OSM   H10S13777   3.486   3.856   3.640 -0.5983  0.9813 -0.0884
  129OSM   H10T13778   3.517   4.024   3.620 -1.0466  0.2431  1.4914
  129OSM   C11S13779   3.610   3.945   3.802 -0.2182 -0.2617  0.3769
  129OSM   H11S13780   3.650   4.048   3.816 -0.0560 -0.1214 -0.9344
  129OSM   H11T13781   3.682   3.865   3.830 -1.2432 -2.0468 -1.8386
  129OSM   C12S13782   3.476   3.937   3.888  0.6258 -0.0291  0.3450
  129OSM   H12S13783   3.418   3.843   3.869 -0.9320  0.7113  1.2475
  129OSM   H12T13784   3.417   4.027   3.862 -0.2281 -0.9916 -1.2448
  129OSM   C13S13785   3.510   3.946   4.038 -0.0531 -0.4281 -0.3282
  129OSM   H13S13786   3.581   4.031   4.044  0.2538 -0.7190  0.2238
  129OSM   H13T13787   3.562   3.851   4.059 -0.9637 -0.9346 -0.3110
  129OSM   C14S13788   3.388   3.971   4.130 -0.4605 -0.4729 -0.2440
  129OSM   H14S13789   3.309   3.893   4.135 -0.6428 -0.2857 -0.1911
  129OSM   H14T13790   3.330   4.061   4.100 -0.2141  0.4587  1.9198
  129OSM   C15S13791   3.428   3.985   4.279  0.2224 -0.2639  0.3555
  129OSM   H15S13792   3.344   4.043   4.325  0.8646  0.9930 -0.0119
  129OSM   H15T13793   3.523   4.040   4.272  0.8705 -1.4995 -1.2668
  129OSM   C16S13794   3.443   3.850   4.343 -0.3079 -0.4412  0.0697
  129OSM   H16S13795   3.506   3.782   4.282  0.8092 -0.8005  1.5605
  129OSM   H16T13796   3.345   3.805   4.370 -0.8758  1.2281  0.8847
  129OSM   C17S13797   3.524   3.865   4.476  0.7353  0.5887 -0.4396
  129OSM   H17S13798   3.532   3.764   4.523  2.3046  1.9105  2.4115
  129OSM   H17T13799   3.462   3.921   4.549  0.0760  1.2432 -1.4704
  129OSM   C18S13800   3.667   3.916   4.463 -0.7226  0.3138  0.0480
  129OSM   H18S13801   3.730   3.865   4.387 -1.9092  0.3557 -1.0047
  129OSM   H18T13802   3.721   3.906   4.560 -0.1030  1.1967 -0.1925
  129OSM   H18U13803   3.684   4.024   4.446  1.0292  0.1173  0.3527
  129OSM    C1F13804   3.567   4.577   3.222  0.1945  0.2198  0.5523
  129OSM     OF13805   3.488   4.660   3.182  0.1139 -0.0339  0.4633
  129OSM    C2F13806   3.615   4.579   3.363 -0.0231 -0.3214  0.2766
  129OSM    H2F13807   3.712   4.631   3.369  0.1213 -0.4013 -1.0703
  129OSM    H2G13808   3.617   4.474   3.400  2.1186 -0.2982  0.3316
  129OSM    C3F13809   3.516   4.664   3.452  0.4818 -0.1723  0.0418
  129OSM    H3F13810   3.409   4.635   3.444  0.4288 -0.0127  0.1483
  129OSM    H3G13811   3.516   4.773   3.427 -1.6144 -0.5713 -2.0086
  129OSM    C4F13812   3.561   4.661   3.605  0.4542 -0.8272  0.3393
  129OSM    H4F13813   3.670   4.682   3.612  0.1404  2.2949 -1.8333
  129OSM    H4G13814   3.550   4.562   3.653  1.3858 -1.5103 -0.7962
  129OSM    C5F13815   3.478   4.770   3.684 -0.7265 -0.1938  0.0881
  129OSM    H5F13816   3.383   4.714   3.691 -0.5688 -0.7337 -1.5629
  129OSM    H5G13817   3.472   4.859   3.617 -2.7548 -0.5855 -0.3075
  129OSM    C6F13818   3.525   4.811   3.829  0.0694 -0.1416  0.5909
  129OSM    H6F13819   3.433   4.844   3.883  0.1956  1.3223 -0.0332
  129OSM    H6G13820   3.587   4.904   3.831 -1.3441  0.8460  0.1489
  129OSM    C7F13821   3.602   4.693   3.904 -0.0774 -0.4937  0.5807
  129OSM    H7F13822   3.703   4.677   3.861 -0.5915 -1.9731 -0.1489
  129OSM    H7G13823   3.537   4.602   3.900  0.0201 -0.5481  0.1964
  129OSM    C8F13824   3.625   4.729   4.051 -0.0689 -0.9442  0.7360
  129OSM    H8F13825   3.650   4.837   4.064 -2.6611 -0.2248  0.3167
  129OSM    H8G13826   3.721   4.680   4.078  1.5681  0.7878 -1.5521
  129OSM    C9F13827   3.512   4.693   4.153  0.1500  0.1874  0.3643
  129OSM    H9F13828   3.445   4.612   4.120 -3.5220  2.2424  2.3009
  129OSM   C10F13829   3.476   4.759   4.266 -0.4792 -0.0030 -0.0875
  129OSM   H10F13830   3.390   4.728   4.327 -0.2804  1.1695  0.8095
  129OSM   C11F13831   3.559   4.866   4.334  0.1514 -0.0790  0.1361
  129OSM   H11F13832   3.510   4.964   4.321 -0.7125 -0.7426 -2.1693
  129OSM   H11G13833   3.659   4.877   4.287  0.8740 -1.4670  1.2713
  129OSM   C12F13834   3.564   4.827   4.482 -0.6228 -0.4912  0.4528
  129OSM   H12F13835   3.463   4.797   4.515 -1.2348  0.8683 -0.0965
  129OSM   H12G13836   3.608   4.913   4.538 -0.4156 -0.8426  0.8307
  129OSM   C13F13837   3.659   4.702   4.495 -0.0137 -0.5452 -0.5103
  129OSM   H13F13838   3.748   4.709   4.429 -0.1782  0.3034 -0.6612
  129OSM   H13G13839   3.588   4.620   4.472 -3.0504  2.0615 -1.1866
  129OSM   C14F13840   3.713   4.677   4.642  0.1817  0.4935  0.4863
  129OSM   H14F13841   3.800   4.745   4.655 -0.0703  0.9759 -0.2639
  129OSM   H14G13842   3.780   4.588   4.650  1.6165  1.5434  0.5363
  129OSM   C15F13843   3.619   4.711   4.754  1.3701 -0.3351 -0.5628
  129OSM   H15F13844   3.535   4.638   4.763  1.2316 -0.2143 -0.8643
  129OSM   H15G13845   3.575   4.813   4.752  2.0968  0.1258  2.4862
  129OSM   C16F13846   3.708   4.703   4.875 -0.7505 -0.7077  0.1249
  129OSM   H16F13847   3.786   4.781   4.860  0.6699 -2.0750  0.1030
  129OSM   H16G13848   3.760   4.605   4.881  1.3526  0.4199  1.7103
  129OSM   C17F13849   3.629   4.724   5.009  0.1518 -0.1516  0.6960
  129OSM   H17F13850   3.613   4.833   5.023  2.6082  0.1581  1.6647
  129OSM   H17G13851   3.707   4.698   5.084  1.9710 -1.4011 -1.4797
  129OSM   C18F13852   3.502   4.642   5.026  0.6547 -0.1954 -0.4752
  129OSM   H18F13853   3.461   4.639   5.129 -1.4170 -0.1225 -1.2685
  129OSM   H18G13854   3.522   4.537   4.996  2.8876  0.0521 -0.0495
  129OSM   H18H13855   3.417   4.690   4.975  1.0095  1.0996  0.1169
  130OSM      N13856   3.583   0.237   2.665 -0.2452 -0.2144  0.4806
  130OSM    C1513857   3.719   0.205   2.611 -0.0522  0.2072 -0.7547
  130OSM   H15A13858   3.803   0.240   2.669  4.5431 -3.1872 -4.4735
  130OSM   H15B13859   3.731   0.248   2.513 -1.3434  1.7789 -0.2673
  130OSM   H15C13860   3.734   0.098   2.604 -3.9205 -0.7153  2.1364
  130OSM    C1413861   3.575   0.384   2.672  0.0389 -0.5252 -0.2812
  130OSM   H14A13862   3.477   0.417   2.703  0.6731  0.1862  1.0598
  130OSM   H14B13863   3.604   0.433   2.580  1.5381 -0.3518  0.2535
  130OSM   H14C13864   3.641   0.421   2.749  0.2979 -1.1909 -0.1835
  130OSM    C1313865   3.480   0.191   2.564 -0.4655 -0.4797  0.5804
  130OSM   H13A13866   3.500   0.221   2.463 -1.2053  1.2233  0.9121
  130OSM   H13B13867   3.384   0.232   2.592 -1.5515 -0.8269 -2.2642
  130OSM   H13C13868   3.475   0.083   2.571  1.6682 -0.6327  0.3606
  130OSM    C1213869   3.558   0.182   2.810 -0.5369 -0.9779 -0.2309
  130OSM   H12A13870   3.642   0.209   2.872 -0.8456  1.0743 -0.6271
  130OSM   H12B13871   3.556   0.074   2.803 -1.9207 -1.0800  1.1832
  130OSM    C1113872   3.434   0.222   2.892 -0.4204 -0.5069 -0.3394
  130OSM   H11A13873   3.431   0.333   2.895  0.1704 -0.4474  3.8479
  130OSM   H11B13874   3.462   0.193   2.996 -0.5406  1.3248  0.2400
  130OSM      P13875   3.265   0.023   2.863  0.1668 -0.6755  0.2810
  130OSM    O1313876   3.124   0.018   2.820 -0.1966 -0.2193  0.3500
  130OSM    O1413877   3.352  -0.074   2.795  0.5620  0.6030 -0.3191
  130OSM    O1113878   3.271   0.006   3.016  0.3485  0.0144  0.6104
  130OSM    O1213879   3.314   0.173   2.834 -0.1388 -0.4862  0.4105
  130OSM    C1S13880   3.344  -0.103   3.075 -0.7934 -0.5109  1.0071
  130OSM    H1S13881   3.451  -0.104   3.046 -0.3613 -3.9588  2.3494
  130OSM    H1T13882   3.304  -0.201   3.043 -2.2103  0.5839 -0.7401
  130OSM     NF13883   3.415  -0.215   3.281 -0.2909 -0.2377  0.7573
  130OSM    HNF13884   3.366  -0.282   3.335  2.3728 -1.8643  1.3561
  130OSM    C2S13885   3.337  -0.106   3.226 -0.1600 -1.0778  0.4074
  130OSM    H2S13886   3.382  -0.012   3.263 -1.8524 -0.2461  0.4756
  130OSM    C3S13887   3.184  -0.093   3.273 -0.4230 -0.1283  0.1224
  130OSM    H3S13888   3.120  -0.180   3.245 -0.1670 -0.2060 -0.2246
  130OSM     O313889   3.105   0.016   3.226  0.5154  0.0969  0.0782
  130OSM    HO313890   3.152   0.048   3.149 -0.5001  0.5533 -0.3798
  130OSM    C4S13891   3.204  -0.101   3.420  0.1163  0.2756 -0.5232
  130OSM    H4S13892   3.217  -0.201   3.463 -1.4527 -0.6184 -1.9957
  130OSM    C5S13893   3.232   0.005   3.504  0.4585  0.5974  0.0965
  130OSM    H5S13894   3.233   0.111   3.474  1.0445  0.3431 -0.8132
  130OSM    C6S13895   3.253  -0.017   3.648  0.1244  0.0793 -0.7972
  130OSM    H6S13896   3.309   0.071   3.688 -2.0040  1.2014 -0.1226
  130OSM    H6T13897   3.309  -0.109   3.676  1.0801  0.5888 -0.9643
  130OSM    C7S13898   3.116  -0.004   3.724 -0.7764  0.3307  0.0682
  130OSM    H7S13899   3.078  -0.109   3.717  3.3113 -1.3262 -0.1219
  130OSM    H7T13900   3.049   0.075   3.684 -0.1352  1.4954  1.1983
  130OSM    C8S13901   3.132   0.027   3.878  0.0191  0.8080  0.2317
  130OSM    H8S13902   3.038   0.065   3.924  0.7761  1.7367  1.0327
  130OSM    H8T13903   3.198   0.116   3.883  0.3326  0.5264  1.4118
  130OSM    C9S13904   3.194  -0.076   3.968  0.4784  0.7687 -0.2091
  130OSM    H9S13905   3.299  -0.096   3.939  1.4474  2.1409  2.0316
  130OSM    H9T13906   3.137  -0.171   3.974  0.3165  0.9439  2.6094
  130OSM   C10S13907   3.203  -0.021   4.114  0.0525  0.9561  0.2040
  130OSM   H10S13908   3.102   0.006   4.152  0.4985  0.6857  1.6569
  130OSM   H10T13909   3.274   0.063   4.101  1.9090 -0.7433 -1.2925
  130OSM   C11S13910   3.251  -0.126   4.220  0.5574  0.3105 -0.1853
  130OSM   H11S13911   3.353  -0.158   4.190 -0.1958 -1.8691 -0.5517
  130OSM   H11T13912   3.185  -0.214   4.215  0.4850  0.2625  1.1752
  130OSM   C12S13913   3.265  -0.074   4.365 -0.0595  0.0649  0.0795
  130OSM   H12S13914   3.179  -0.006   4.381  0.4223  0.4935  0.8702
  130OSM   H12T13915   3.349  -0.002   4.364 -1.7918  2.1707 -0.7071
  130OSM   C13S13916   3.284  -0.180   4.478 -0.0753 -0.0889 -0.6200
  130OSM   H13S13917   3.180  -0.218   4.490  0.2020  0.0346  3.2014
  130OSM   H13T13918   3.294  -0.125   4.573 -3.8690 -0.0652 -0.0913
  130OSM   C14S13919   3.386  -0.285   4.449  0.3181 -0.2703 -0.0608
  130OSM   H14S13920   3.343  -0.348   4.368 -1.1928  0.0628  0.4381
  130OSM   H14T13921   3.398  -0.355   4.534 -3.7975 -0.4706  0.5663
  130OSM   C15S13922   3.528  -0.234   4.404  0.8312  0.1228  0.2088
  130OSM   H15S13923   3.523  -0.166   4.316 -1.5232  1.7673  1.5011
  130OSM   H15T13924   3.590  -0.320   4.370  2.3284  1.1190  0.3280
  130OSM   C16S13925   3.592  -0.163   4.525  0.0815  0.7112 -1.0699
  130OSM   H16S13926   3.523  -0.087   4.568  0.8842  0.2549  1.1126
  130OSM   H16T13927   3.689  -0.113   4.509  0.9878 -0.9463 -0.9513
  130OSM   C17S13928   3.628  -0.260   4.637  0.4591  0.1357 -0.5396
  130OSM   H17S13929   3.654  -0.358   4.593 -0.8343 -0.1801 -0.6202
  130OSM   H17T13930   3.537  -0.289   4.695  1.2988 -0.8513  0.3342
  130OSM   C18S13931   3.736  -0.215   4.735  0.0531  0.3516  0.2638
  130OSM   H18S13932   3.723  -0.110   4.769  0.1907  0.6083 -0.4696
  130OSM   H18T13933   3.836  -0.223   4.687  0.5478  3.9811  0.3857
  130OSM   H18U13934   3.720  -0.287   4.818  0.8471  2.7314  2.6350
  130OSM    C1F13935   3.554  -0.222   3.266 -0.0805 -0.1169 -0.0174
  130OSM     OF13936   3.611  -0.118   3.233 -0.5986  0.2346 -0.6262
  130OSM    C2F13937   3.626  -0.349   3.293 -0.7461 -0.2552  1.0327
  130OSM    H2F13938   3.733  -0.329   3.315 -0.0633 -1.7621 -0.6850
  130OSM    H2G13939   3.629  -0.400   3.195 -4.1766  2.4842 -0.7473
  130OSM    C3F13940   3.566  -0.441   3.399 -0.3147  0.6498  0.0619
  130OSM    H3F13941   3.627  -0.534   3.409 -0.4710  0.5987  0.5516
  130OSM    H3G13942   3.467  -0.467   3.356  0.2377  2.2144 -2.3227
  130OSM    C4F13943   3.563  -0.376   3.536  0.8515 -0.5186  0.1590
  130OSM    H4F13944   3.521  -0.273   3.533  2.4144  0.1320 -0.7435
  130OSM    H4G13945   3.664  -0.355   3.578  0.9970  0.8656 -0.8032
  130OSM    C5F13946   3.464  -0.455   3.630 -0.7973  0.2049  0.4028
  130OSM    H5F13947   3.482  -0.564   3.625  0.0334  0.0772  3.7594
  130OSM    H5G13948   3.359  -0.440   3.596 -0.9980  1.2119  1.4042
  130OSM    C6F13949   3.495  -0.422   3.785  1.0373  0.3680 -0.0478
  130OSM    H6F13950   3.458  -0.320   3.808  0.7779  0.2380  0.1143
  130OSM    H6G13951   3.603  -0.426   3.813  0.4614  0.0125  2.3158
  130OSM    C7F13952   3.423  -0.510   3.888  0.0512 -0.0906 -0.0689
  130OSM    H7F13953   3.464  -0.612   3.866  2.9267  0.4341  2.1097
  130OSM    H7G13954   3.314  -0.499   3.876 -0.3985  3.5225  4.5666
  130OSM    C8F13955   3.454  -0.480   4.038 -0.3795  0.0540  0.1259
  130OSM    H8F13956   3.430  -0.374   4.060 -0.5389  0.2098 -0.7476
  130OSM    H8G13957   3.560  -0.495   4.064 -0.8289 -1.8338  1.0312
  130OSM    C9F13958   3.365  -0.576   4.117  0.3344  0.4166  0.5771
  130OSM    H9F13959   3.269  -0.610   4.077  0.3475 -1.3849  1.9521
  130OSM   C10F13960   3.409  -0.635   4.230  0.7653 -0.5973 -0.1408
  130OSM   H10F13961   3.348  -0.707   4.286  0.4047 -0.3128 -0.1627
  130OSM   C11F13962   3.538  -0.600   4.294 -0.2589  0.5790  0.6975
  130OSM   H11F13963   3.526  -0.591   4.404 -2.3704 -1.2951  0.6877
  130OSM   H11G13964   3.570  -0.498   4.262  0.3872  0.5652  1.2990
  130OSM   C12F13965   3.637  -0.713   4.266  0.1746 -0.1674  0.1762
  130OSM   H12F13966   3.612  -0.785   4.346  1.7575  0.0937  0.9326
  130OSM   H12G13967   3.740  -0.685   4.299 -0.7295  1.5465  1.7244
  130OSM   C13F13968   3.648  -0.776   4.130 -0.0397 -0.5981  0.2445
  130OSM   H13F13969   3.657  -0.694   4.056 -0.6778 -1.1998 -0.5059
  130OSM   H13G13970   3.553  -0.827   4.103 -1.0328  0.7507  1.0640
  130OSM   C14F13971   3.764  -0.871   4.101  0.4918 -0.5138 -0.2011
  130OSM   H14F13972   3.742  -0.948   4.178 -1.6658  0.1668 -0.0707
  130OSM   H14G13973   3.863  -0.823   4.116 -0.8473  1.6923  2.2416
  130OSM   C15F13974   3.773  -0.925   3.960  0.0831  0.0114 -0.0924
  130OSM   H15F13975   3.675  -0.975   3.942  0.1489  0.6523 -2.7216
  130OSM   H15G13976   3.846  -1.008   3.948  0.0978 -0.1095  0.7603
  130OSM   C16F13977   3.782  -0.814   3.856  0.7488 -0.2211 -0.1842
  130OSM   H16F13978   3.858  -0.744   3.898  0.7478  0.4034 -1.1960
  130OSM   H16G13979   3.692  -0.749   3.852  2.3212  2.0228 -1.0261
  130OSM   C17F13980   3.812  -0.863   3.715  0.3811 -0.5011  0.9115
  130OSM   H17F13981   3.735  -0.930   3.673  0.4484  1.3501 -2.5971
  130OSM   H17G13982   3.910  -0.913   3.732  0.6280  0.1074  1.3441
  130OSM   C18F13983   3.838  -0.735   3.623  0.3139  0.0532  0.0758
  130OSM   H18F13984   3.891  -0.761   3.529 -0.2372  0.2417 -0.2976
  130OSM   H18G13985   3.891  -0.657   3.682 -1.0658  0.1846  1.1833
  130OSM   H18H13986   3.745  -0.690   3.581  0.1680 -1.2599 -1.0900
  131OSM      N13987   1.595   5.462   2.725  0.0275 -0.8975  0.0795
  131OSM    C1513988   1.500   5.471   2.603 -0.8428 -0.1834  0.3769
  131OSM   H15A13989   1.544   5.524   2.520 -1.5330 -0.0724  0.0745
  131OSM   H15B13990   1.405   5.511   2.636 -0.5305  3.0083 -2.1177
  131OSM   H15C13991   1.482   5.374   2.560  3.3448 -0.8381 -0.2410
  131OSM    C1413992   1.559   5.334   2.793  0.4849 -0.3183 -0.1107
  131OSM   H14A13993   1.451   5.331   2.799  0.4308 -1.3672 -1.3361
  131OSM   H14B13994   1.589   5.333   2.897 -2.8487  1.8108  1.0470
  131OSM   H14C13995   1.587   5.244   2.741  0.8799 -0.3189  0.1009
  131OSM    C1313996   1.733   5.444   2.666  0.3181 -0.3988 -0.2153
  131OSM   H13A13997   1.751   5.526   2.597  1.3280  1.2729  1.9155
  131OSM   H13B13998   1.744   5.346   2.622  2.4964  0.1532 -1.0511
  131OSM   H13C13999   1.804   5.455   2.747 -0.8513  2.1634  0.5619
  131OSM    C1214000   1.564   5.580   2.817 -0.4157 -0.5107 -0.2882
  131OSM   H12A14001   1.457   5.595   2.814 -0.5436 -1.5402 -2.2361
  131OSM   H12B14002   1.593   5.668   2.763 -0.5323 -0.2889  0.0056
  131OSM    C1114003   1.619   5.578   2.964  0.7158 -0.6052 -0.2024
  131OSM   H11A14004   1.552   5.517   3.029 -1.7336  1.8664 -0.2726
  131OSM   H11B14005   1.613   5.676   3.016  1.6500 -0.3183 -0.6131
  131OSM      P14006   1.871   5.643   2.933  0.0911  0.1114  0.4145
  131OSM    O1314007   1.996   5.569   2.901 -0.1831 -0.4909  0.0539
  131OSM    O1414008   1.816   5.731   2.829  0.2186  0.3073 -0.2727
  131OSM    O1114009   1.896   5.745   3.058 -0.5823  0.0871 -0.3031
  131OSM    O1214010   1.758   5.544   2.968 -0.5616  0.2772  0.2934
  131OSM    C1S14011   1.889   5.689   3.188 -0.2189  0.0343  0.5659
  131OSM    H1S14012   1.959   5.604   3.197  0.9340  1.0535  1.4360
  131OSM    H1T14013   1.786   5.648   3.201  0.2784 -2.7912 -2.7890
  131OSM     NF14014   1.932   5.719   3.423  0.0445 -0.0624 -0.7686
  131OSM    HNF14015   1.850   5.715   3.479 -1.3660 -1.6549 -2.8093
  131OSM    C2S14016   1.920   5.794   3.300 -0.2690  0.0144  0.4430
  131OSM    H2S14017   2.019   5.837   3.275 -0.9863  1.4365 -0.0204
  131OSM    C3S14018   1.813   5.904   3.292  0.4197  0.1159  0.6907
  131OSM    H3S14019   1.717   5.857   3.321 -0.9151  1.3879 -1.4256
  131OSM     O314020   1.800   5.966   3.170  0.0632 -0.9667  0.5099
  131OSM    HO314021   1.845   5.902   3.114 -1.1591 -1.2650 -0.1634
  131OSM    C4S14022   1.856   6.005   3.392 -0.5650 -0.3954 -0.8410
  131OSM    H4S14023   1.933   6.077   3.358 -1.5025  1.5100  0.8365
  131OSM    C5S14024   1.817   6.007   3.518 -0.4892  0.2937  0.1718
  131OSM    H5S14025   1.745   5.929   3.546 -0.6560  1.0656  2.0177
  131OSM    C6S14026   1.857   6.096   3.637 -0.6316 -0.4187 -0.3387
  131OSM    H6S14027   1.765   6.110   3.698 -0.7385 -4.1420  0.6039
  131OSM    H6T14028   1.893   6.193   3.595  0.6804 -0.3936  0.7699
  131OSM    C7S14029   1.983   6.046   3.717 -0.0105  0.0621 -0.3952
  131OSM    H7S14030   2.070   6.077   3.655  0.0308  0.2892 -0.2234
  131OSM    H7T14031   1.989   5.935   3.721  0.9833  0.0937 -0.7545
  131OSM    C8S14032   1.995   6.125   3.849 -0.4484  0.1188  0.0755
  131OSM    H8S14033   1.892   6.132   3.888 -1.2451 -3.8543 -0.9155
  131OSM    H8T14034   2.026   6.229   3.824 -1.1637  0.5490  0.9365
  131OSM    C9S14035   2.102   6.066   3.942 -0.4067 -0.2805 -0.0953
  131OSM    H9S14036   2.108   6.132   4.032 -2.1972 -1.3082  0.8441
  131OSM    H9T14037   2.198   6.075   3.887  0.0494 -1.0923  0.5442
  131OSM   C10S14038   2.069   5.926   3.984 -0.0330 -0.2600  0.3047
  131OSM   H10S14039   2.092   5.855   3.901  2.2721  0.8689 -0.1272
  131OSM   H10T14040   1.959   5.925   3.997 -0.3872 -0.2783 -2.2035
  131OSM   C11S14041   2.125   5.889   4.121  0.5634 -0.1790  0.1229
  131OSM   H11S14042   2.074   5.959   4.190 -0.2483 -0.3811 -0.2561
  131OSM   H11T14043   2.230   5.921   4.134  0.5684 -0.5077  0.9736
  131OSM   C12S14044   2.110   5.747   4.165  0.9904 -0.0213 -0.0354
  131OSM   H12S14045   2.170   5.677   4.103 -0.3390 -1.5433  0.3408
  131OSM   H12T14046   2.004   5.717   4.151  0.7058  1.1876 -0.6707
  131OSM   C13S14047   2.159   5.740   4.308 -0.4342  0.1587 -0.4842
  131OSM   H13S14048   2.085   5.804   4.360 -1.5874  0.0627 -1.9415
  131OSM   H13T14049   2.264   5.777   4.306  0.1726 -1.4728 -0.3954
  131OSM   C14S14050   2.150   5.604   4.375 -0.3435  0.5288 -0.3056
  131OSM   H14S14051   2.222   5.533   4.331 -0.9619  0.3368 -1.0239
  131OSM   H14T14052   2.049   5.566   4.350 -0.1603  0.3022 -0.6978
  131OSM   C15S14053   2.162   5.607   4.527 -0.0846 -0.3653  1.2542
  131OSM   H15S14054   2.086   5.680   4.561  0.6179  0.2352  1.5610
  131OSM   H15T14055   2.268   5.629   4.552  0.7808 -3.4288  0.6880
  131OSM   C16S14056   2.131   5.473   4.598  0.1149  0.3143 -0.6905
  131OSM   H16S14057   2.188   5.398   4.540  1.3152 -0.8564  1.8129
  131OSM   H16T14058   2.021   5.456   4.590 -0.8872  4.9051  0.4016
  131OSM   C17S14059   2.186   5.466   4.738  0.3681 -0.1429  0.2349
  131OSM   H17S14060   2.286   5.514   4.733 -0.4050  1.5654  0.1898
  131OSM   H17T14061   2.190   5.362   4.776  2.0520 -0.1274  0.1667
  131OSM   C18S14062   2.093   5.539   4.833  0.2069  0.3921  0.4292
  131OSM   H18S14063   2.112   5.648   4.839 -0.6466  0.5291  0.8225
  131OSM   H18T14064   2.082   5.483   4.928 -1.0371  1.1769  0.7724
  131OSM   H18U14065   1.988   5.527   4.798  0.0588 -0.2492  1.0828
  131OSM    C1F14066   2.028   5.637   3.458 -0.0245  0.8037 -0.9225
  131OSM     OF14067   2.130   5.623   3.387  0.2977 -0.0089 -0.2935
  131OSM    C2F14068   2.007   5.549   3.584  0.5376 -0.2337  0.1528
  131OSM    H2F14069   1.928   5.477   3.556 -1.9502  1.3296  2.6525
  131OSM    H2G14070   1.983   5.618   3.667 -2.0768 -0.2663 -0.4990
  131OSM    C3F14071   2.138   5.482   3.623 -0.1745 -0.9730  0.1563
  131OSM    H3F14072   2.207   5.563   3.653 -0.8653 -0.7614  1.2329
  131OSM    H3G14073   2.176   5.416   3.542 -0.4302 -0.2697 -0.5482
  131OSM    C4F14074   2.121   5.395   3.750 -0.3536  0.1793 -0.5396
  131OSM    H4F14075   2.076   5.452   3.834 -1.3953 -3.5049  1.6126
  131OSM    H4G14076   2.214   5.353   3.795 -0.0109 -0.4002 -1.7640
  131OSM    C5F14077   2.025   5.279   3.719 -0.0034 -0.0497 -0.1509
  131OSM    H5F14078   2.061   5.227   3.628  0.1840  3.3896 -2.2420
  131OSM    H5G14079   1.925   5.318   3.690  0.2675 -1.0013 -2.6199
  131OSM    C6F14080   2.017   5.176   3.835  0.1762  0.7152  0.7050
  131OSM    H6F14081   1.980   5.222   3.929  0.7727  1.0900  0.7604
  131OSM    H6G14082   2.120   5.139   3.855  0.6617  1.3760 -0.4442
  131OSM    C7F14083   1.934   5.051   3.798  0.1231  0.3487  0.1769
  131OSM    H7F14084   1.951   5.021   3.692  0.1710  1.5661 -0.1724
  131OSM    H7G14085   1.826   5.074   3.789 -0.4406 -1.7328  1.0489
  131OSM    C8F14086   1.957   4.938   3.902 -0.4410 -0.2103 -0.2957
  131OSM    H8F14087   1.890   4.851   3.882  1.8816 -1.9213 -1.1150
  131OSM    H8G14088   1.925   4.977   4.001 -1.4211  0.2386 -0.7724
  131OSM    C9F14089   2.097   4.884   3.899  0.4019 -0.5525  0.2142
  131OSM    H9F14090   2.170   4.925   3.827  1.1129  0.2030  1.3475
  131OSM   C10F14091   2.138   4.777   3.967 -0.1718  0.3885 -0.1930
  131OSM   H10F14092   2.239   4.744   3.941  0.0045  1.3395 -0.7531
  131OSM   C11F14093   2.055   4.688   4.060 -0.4823 -0.8105  1.0059
  131OSM   H11F14094   2.034   4.592   4.008 -2.7445 -1.0989  2.2915
  131OSM   H11G14095   1.960   4.737   4.088 -0.5393  0.2068 -0.8357
  131OSM   C12F14096   2.108   4.651   4.202 -0.3132 -0.4612 -0.5728
  131OSM   H12F14097   2.100   4.733   4.276  0.3087 -0.3200 -0.6593
  131OSM   H12G14098   2.215   4.623   4.200 -0.1535 -0.2967  2.1013
  131OSM   C13F14099   2.042   4.530   4.267  0.7374  0.1699  0.4344
  131OSM   H13F14100   2.090   4.511   4.365 -0.1256 -1.7816  0.5064
  131OSM   H13G14101   2.050   4.447   4.194 -0.8675  1.7455 -1.6720
  131OSM   C14F14102   1.898   4.566   4.314  0.4181 -0.1033 -0.0340
  131OSM   H14F14103   1.835   4.589   4.225 -1.0135 -0.9894  0.7012
  131OSM   H14G14104   1.895   4.653   4.384 -0.7251  0.7650 -1.1170
  131OSM   C15F14105   1.824   4.454   4.388 -0.1611  0.4626  0.3771
  131OSM   H15F14106   1.900   4.407   4.454  0.7084  1.6259  0.2480
  131OSM   H15G14107   1.802   4.370   4.319  1.0769  0.0132  0.5121
  131OSM   C16F14108   1.695   4.483   4.467  0.5073  0.4053 -0.2000
  131OSM   H16F14109   1.708   4.580   4.521 -0.8174  0.6334 -0.2569
  131OSM   H16G14110   1.671   4.404   4.541  0.8382 -0.4503 -1.0011
  131OSM   C17F14111   1.564   4.486   4.388 -0.5625 -0.1558  0.8030
  131OSM   H17F14112   1.567   4.585   4.338  1.2162  0.2876  1.7211
  131OSM   H17G14113   1.483   4.473   4.463  0.4939  0.5000  2.0991
  131OSM   C18F14114   1.542   4.366   4.294 -0.3734 -0.2873  0.0934
  131OSM   H18F14115   1.552   4.275   4.356 -1.1804 -1.0650 -0.8681
  131OSM   H18G14116   1.594   4.382   4.197  1.3263  0.7682  1.1348
  131OSM   H18H14117   1.435   4.380   4.264 -0.7047 -3.2059 -0.3595
  132OSM      N14118   0.683   4.977   2.876  0.1118 -0.3291 -0.0875
  132OSM    C1514119   0.650   5.124   2.856  0.3613  0.6969 -0.0121
  132OSM   H15A14120   0.653   5.143   2.750 -4.8038  0.3298 -0.4786
  132OSM   H15B14121   0.715   5.193   2.908 -0.0188  1.2768 -0.2904
  132OSM   H15C14122   0.545   5.140   2.877 -0.2784 -1.7290 -0.9581
  132OSM    C1414123   0.573   4.894   2.820  0.3762  0.7446 -0.1945
  132OSM   H14A14124   0.487   4.922   2.880 -0.5918 -0.9441 -0.7206
  132OSM   H14B14125   0.581   4.786   2.821 -1.1041  0.6161 -0.3375
  132OSM   H14C14126   0.558   4.926   2.719 -0.8932  2.4367  0.4933
  132OSM    C1314127   0.805   4.939   2.793  0.1131 -0.4774  0.0369
  132OSM   H13A14128   0.803   4.973   2.691  2.4737  1.5519  0.5696
  132OSM   H13B14129   0.808   4.831   2.788  2.3969 -0.4177 -3.9948
  132OSM   H13C14130   0.896   4.974   2.839 -0.5675  1.9415 -0.3387
  132OSM    C1214131   0.700   4.941   3.020 -0.3206  0.0809 -0.6492
  132OSM   H12A14132   0.772   5.006   3.068 -1.8504  1.2874  0.0736
  132OSM   H12B14133   0.753   4.847   3.015  2.4719  1.4713  0.5258
  132OSM    C1114134   0.585   4.940   3.124  0.3304  0.4852 -0.1293
  132OSM   H11A14135   0.602   4.879   3.215 -1.5543 -2.6617 -1.7057
  132OSM   H11B14136   0.492   4.892   3.087  0.9055 -0.4105 -0.4659
  132OSM      P14137   0.640   5.167   3.258 -0.4887 -0.2232  0.4080
  132OSM    O1314138   0.715   5.278   3.189 -0.4249 -0.0591  0.3075
  132OSM    O1414139   0.551   5.212   3.369  0.6737  0.0017  0.6320
  132OSM    O1114140   0.733   5.059   3.320 -0.1909 -0.2683 -0.2918
  132OSM    O1214141   0.559   5.081   3.150  0.2855  0.6769  0.1572
  132OSM    C1S14142   0.863   5.101   3.382  0.6138 -0.3507  0.1312
  132OSM    H1S14143   0.874   5.211   3.371 -1.4884 -0.0426  0.7922
  132OSM    H1T14144   0.945   5.040   3.339  1.7156 -1.0588  2.9724
  132OSM     NF14145   0.976   5.104   3.613  0.6229 -0.1567 -0.1054
  132OSM    HNF14146   1.032   5.027   3.644  3.3161  1.5554 -0.3804
  132OSM    C2S14147   0.854   5.066   3.535 -0.5527 -0.4787 -0.7105
  132OSM    H2S14148   0.768   5.119   3.582  0.7869  0.9705  0.2060
  132OSM    C3S14149   0.821   4.914   3.554 -1.1380  0.4912  0.4511
  132OSM    H3S14150   0.899   4.853   3.503 -1.1692 -0.5944  1.6648
  132OSM     O314151   0.702   4.877   3.494 -0.3733  0.6778  0.3101
  132OSM    HO314152   0.690   4.933   3.417  0.6129 -0.6809 -0.8974
  132OSM    C4S14153   0.819   4.874   3.706  0.0918  0.6263 -0.1831
  132OSM    H4S14154   0.731   4.914   3.758  1.1684  0.3907  1.9087
  132OSM    C5S14155   0.901   4.796   3.776  0.2997 -0.4038  0.0509
  132OSM    H5S14156   1.000   4.781   3.731  0.3292 -0.1850  0.0426
  132OSM    C6S14157   0.878   4.766   3.918  0.6566 -0.4007  0.1276
  132OSM    H6S14158   0.967   4.805   3.972  3.6169 -2.3914 -2.9484
  132OSM    H6T14159   0.888   4.656   3.929 -1.2092 -0.5864  0.3079
  132OSM    C7S14160   0.743   4.807   3.981 -0.5378  0.0213 -0.4414
  132OSM    H7S14161   0.663   4.758   3.923 -0.5404 -0.2201 -0.2381
  132OSM    H7T14162   0.740   4.917   3.973 -1.5536  0.0079 -0.3037
  132OSM    C8S14163   0.742   4.764   4.129  0.0550  0.5331  0.4110
  132OSM    H8S14164   0.832   4.813   4.170  1.8055 -2.2153  0.1090
  132OSM    H8T14165   0.764   4.655   4.131  2.8514  1.0471  0.9835
  132OSM    C9S14166   0.622   4.787   4.224  0.5318  0.2324  0.7525
  132OSM    H9S14167   0.541   4.718   4.191  0.9289 -0.0453  0.3550
  132OSM    H9T14168   0.584   4.890   4.206 -0.2732 -0.1044  0.4412
  132OSM   C10S14169   0.663   4.780   4.367 -0.0714 -0.8040 -0.4425
  132OSM   H10S14170   0.738   4.858   4.390 -3.0076  2.2610 -0.4526
  132OSM   H10T14171   0.698   4.677   4.393 -0.0492 -1.0880 -1.5375
  132OSM   C11S14172   0.544   4.827   4.454  0.2509 -0.3502 -0.9102
  132OSM   H11S14173   0.452   4.772   4.421  1.1378 -1.7375 -1.1671
  132OSM   H11T14174   0.520   4.932   4.427 -1.2025 -0.9385 -2.0560
  132OSM   C12S14175   0.553   4.808   4.611 -0.2765  0.0653 -0.1422
  132OSM   H12S14176   0.634   4.875   4.645  0.1275  1.3183 -3.2394
  132OSM   H12T14177   0.574   4.702   4.639  1.8930  0.4903  0.0093
  132OSM   C13S14178   0.422   4.835   4.683  0.5549 -0.6520 -0.6237
  132OSM   H13S14179   0.354   4.766   4.628 -1.1492  0.9423 -0.6516
  132OSM   H13T14180   0.380   4.938   4.683 -0.1608 -0.9319  0.1475
  132OSM   C14S14181   0.438   4.799   4.836  0.7153  0.1226 -0.3700
  132OSM   H14S14182   0.489   4.700   4.845 -0.3046 -0.3864 -0.0461
  132OSM   H14T14183   0.338   4.786   4.883  1.5447 -0.1378  1.3947
  132OSM   C15S14184   0.504   4.907   4.912  0.3794  0.1908 -0.5160
  132OSM   H15S14185   0.452   4.996   4.871 -2.7594 -1.8857 -1.3945
  132OSM   H15T14186   0.611   4.914   4.882  0.3283  1.4831 -0.4400
  132OSM   C16S14187   0.489   4.897   5.068  0.1527  0.4201  0.0629
  132OSM   H16S14188   0.529   4.799   5.100 -2.1095 -0.5009  0.2656
  132OSM   H16T14189   0.379   4.891   5.081 -0.0025  0.8401 -0.9550
  132OSM   C17S14190   0.546   5.008   5.149 -0.0738 -0.4595  0.1393
  132OSM   H17S14191   0.485   5.097   5.120  0.4234 -0.8981 -2.5073
  132OSM   H17T14192   0.653   5.019   5.121 -0.0149 -0.7435  0.2562
  132OSM   C18S14193   0.548   4.985   5.301  0.3515  0.4391  0.2773
  132OSM   H18S14194   0.551   5.077   5.363 -3.0958  0.5905  0.4114
  132OSM   H18T14195   0.621   4.911   5.341  0.1957  0.3192  0.3416
  132OSM   H18U14196   0.456   4.933   5.336  0.4928  0.2743  0.4063
  132OSM    C1F14197   1.017   5.229   3.632  0.3765  0.7443  0.3580
  132OSM     OF14198   0.949   5.327   3.593 -0.2126 -0.2131 -0.2130
  132OSM    C2F14199   1.149   5.249   3.697 -0.1268 -0.3267  0.1570
  132OSM    H2F14200   1.208   5.297   3.616  0.5038 -1.7112 -0.2402
  132OSM    H2G14201   1.202   5.153   3.714  2.2052  0.8020 -0.2061
  132OSM    C3F14202   1.162   5.334   3.820  1.1907 -1.1205  0.0285
  132OSM    H3F14203   1.112   5.283   3.905  1.6675 -0.8411  0.4914
  132OSM    H3G14204   1.108   5.431   3.811  2.2351 -0.4174  0.9910
  132OSM    C4F14205   1.301   5.366   3.873  0.0911  0.3837  0.0837
  132OSM    H4F14206   1.350   5.425   3.792  0.0452  1.0379  0.5219
  132OSM    H4G14207   1.365   5.280   3.901 -0.8984 -1.0596 -1.8800
  132OSM    C5F14208   1.302   5.449   4.003  0.0361 -0.0095 -0.4430
  132OSM    H5F14209   1.284   5.555   3.972  2.3408 -0.1499 -2.6185
  132OSM    H5G14210   1.406   5.446   4.042  0.2018 -1.8298 -0.9705
  132OSM    C6F14211   1.209   5.411   4.117  0.5646 -0.1514 -0.0225
  132OSM    H6F14212   1.108   5.391   4.076 -0.1329  1.4361  0.8148
  132OSM    H6G14213   1.188   5.489   4.194  1.0066 -0.3956  0.3517
  132OSM    C7F14214   1.264   5.286   4.179 -0.3759 -0.4227  0.1094
  132OSM    H7F14215   1.374   5.299   4.190 -0.6016 -0.0078  2.4523
  132OSM    H7G14216   1.246   5.200   4.112  0.1949 -1.8568  1.7481
  132OSM    C8F14217   1.202   5.247   4.317  0.5917 -0.1624 -0.4663
  132OSM    H8F14218   1.212   5.344   4.371 -2.3880  1.3387 -2.3353
  132OSM    H8G14219   1.252   5.170   4.380 -0.0334  0.5485  0.9378
  132OSM    C9F14220   1.049   5.218   4.303 -0.1270  0.9230 -0.3863
  132OSM    H9F14221   0.978   5.299   4.279 -1.7024  0.9890  3.5470
  132OSM   C10F14222   0.990   5.096   4.342  0.6898 -0.2104  0.4231
  132OSM   H10F14223   0.883   5.089   4.319  0.0316 -1.5018  3.3593
  132OSM   C11F14224   1.057   4.974   4.403 -0.1742  0.5140  0.3475
  132OSM   H11F14225   1.168   4.974   4.406 -0.0568  4.0121  0.0408
  132OSM   H11G14226   1.028   4.882   4.349 -2.0311  0.9217  0.5866
  132OSM   C12F14227   1.000   4.939   4.534 -0.7650  0.4348 -0.2499
  132OSM   H12F14228   1.050   4.851   4.579 -0.2907 -0.4652 -2.4459
  132OSM   H12G14229   0.890   4.919   4.531 -0.9052  1.1686 -0.2177
  132OSM   C13F14230   1.027   5.049   4.634  0.1790  0.3763  0.9779
  132OSM   H13F14231   0.959   5.131   4.603  0.4619  0.3080  0.1635
  132OSM   H13G14232   1.136   5.071   4.636  0.4670 -1.0008  2.1609
  132OSM   C14F14233   0.982   5.006   4.774 -0.0519 -1.2243  0.2726
  132OSM   H14F14234   1.064   4.936   4.803  2.2636  0.7500 -1.0891
  132OSM   H14G14235   0.891   4.943   4.776 -0.3572 -0.7828  0.4431
  132OSM   C15F14236   0.986   5.123   4.872  0.1941  0.0615 -0.7567
  132OSM   H15F14237   0.909   5.199   4.844  1.5982  1.5381 -0.7800
  132OSM   H15G14238   1.084   5.175   4.872  0.0019  0.4324 -1.0456
  132OSM   C16F14239   0.975   5.086   5.019  0.2136  0.6334 -0.9187
  132OSM   H16F14240   1.055   5.010   5.033 -1.1976 -0.8835 -0.7648
  132OSM   H16G14241   0.878   5.034   5.038  1.1757 -0.4388  1.3424
  132OSM   C17F14242   0.980   5.199   5.120 -0.1957  0.1785 -0.4575
  132OSM   H17F14243   0.889   5.262   5.105 -0.5961 -0.6011 -1.4737
  132OSM   H17G14244   1.058   5.274   5.095  0.1315  0.0869  0.2710
  132OSM   C18F14245   0.987   5.166   5.272 -0.1614  0.0506 -0.1600
  132OSM   H18F14246   1.091   5.134   5.297 -0.4699  0.5646  2.0588
  132OSM   H18G14247   0.912   5.087   5.293  0.5853 -0.3919  0.9775
  132OSM   H18H14248   0.965   5.251   5.341  0.2091 -1.1399  1.4957
  133OSM      N14249   5.524   4.918   2.575  0.2580 -0.2855 -0.2959
  133OSM    C1514250   5.621   5.019   2.638  0.1743 -0.2675  0.5766
  133OSM   H15A14251   5.697   4.964   2.691 -0.0577 -0.4291  0.7431
  133OSM   H15B14252   5.574   5.093   2.700  1.6597  0.5743  0.7174
  133OSM   H15C14253   5.672   5.078   2.563 -0.6517  0.1802  0.3472
  133OSM    C1414254   5.409   5.004   2.522  0.0332  0.2345 -0.1407
  133OSM   H14A14255   5.455   5.096   2.488  0.8449  0.1907  0.7927
  133OSM   H14B14256   5.332   5.025   2.595 -0.7035  0.9148 -1.0849
  133OSM   H14C14257   5.355   4.955   2.443  1.3498 -0.1185 -0.8503
  133OSM    C1314258   5.587   4.838   2.471  0.0074  0.1942 -0.9359
  133OSM   H13A14259   5.684   4.796   2.491 -0.6042 -0.2341  1.2936
  133OSM   H13B14260   5.612   4.906   2.390  0.0590  0.7695 -0.4392
  133OSM   H13C14261   5.520   4.758   2.444 -1.1347  0.4488  1.0046
  133OSM    C1214262   5.464   4.836   2.688  0.5563  0.0718 -0.4648
  133OSM   H12A14263   5.546   4.778   2.729  0.2500 -0.8586 -1.1375
  133OSM   H12B14264   5.394   4.764   2.650 -1.1453 -0.2735  2.9398
  133OSM    C1114265   5.389   4.899   2.812  0.2382  0.3994  0.6689
  133OSM   H11A14266   5.450   4.983   2.852  0.1340  0.8590 -0.1172
  133OSM   H11B14267   5.376   4.822   2.891 -0.6300 -0.8042 -0.5836
  133OSM      P14268   5.129   4.850   2.780  0.0174  0.0750 -0.0732
  133OSM    O1314269   5.026   4.906   2.685 -0.3366  0.1809 -0.1153
  133OSM    O1414270   5.161   4.705   2.770 -0.0455 -0.1944 -0.0705
  133OSM    O1114271   5.077   4.865   2.930  0.1260  0.9961 -0.4698
  133OSM    O1214272   5.256   4.934   2.763 -0.1100  0.0482  0.4300
  133OSM    C1S14273   5.170   4.841   3.041  0.0448 -0.1869 -0.0683
  133OSM    H1S14274   5.242   4.925   3.036 -1.8344  1.5861  0.9548
  133OSM    H1T14275   5.227   4.746   3.034  2.1566  1.0266  0.0907
  133OSM     NF14276   5.191   4.838   3.288  0.1159 -0.4969  0.0611
  133OSM    HNF14277   5.190   4.749   3.333  2.9327 -1.2023 -1.0564
  133OSM    C2S14278   5.096   4.851   3.179 -0.4006  0.1888 -0.7379
  133OSM    H2S14279   5.052   4.951   3.199  0.7094  0.4040  0.8005
  133OSM    C3S14280   4.963   4.752   3.177 -0.7072  0.1014 -0.1581
  133OSM    H3S14281   4.994   4.649   3.150  0.3788  0.7328 -1.4178
  133OSM     O314282   4.858   4.778   3.084  0.9877 -0.5320 -0.4053
  133OSM    HO314283   4.907   4.828   3.018 -0.8060 -1.9013 -2.9622
  133OSM    C4S14284   4.901   4.767   3.313 -0.6756  0.4045 -0.0419
  133OSM    H4S14285   4.878   4.868   3.348 -0.3209  0.6033 -0.3844
  133OSM    C5S14286   4.861   4.665   3.388 -0.3336  0.1867  0.6217
  133OSM    H5S14287   4.864   4.563   3.346 -0.2238  1.0446 -1.5774
  133OSM    C6S14288   4.780   4.678   3.514 -1.0245 -0.4102  0.2593
  133OSM    H6S14289   4.740   4.585   3.559 -2.9361  0.3672  0.2725
  133OSM    H6T14290   4.683   4.732   3.508 -1.4664 -1.1575  0.5877
  133OSM    C7S14291   4.855   4.753   3.629 -0.3093  0.5197 -0.1202
  133OSM    H7S14292   4.869   4.857   3.593  0.1056  1.7964  3.3751
  133OSM    H7T14293   4.962   4.724   3.633  0.4846  2.0924 -4.3852
  133OSM    C8S14294   4.786   4.763   3.762  0.1358 -0.1355 -0.4155
  133OSM    H8S14295   4.676   4.759   3.751  0.2206  0.7641 -1.8512
  133OSM    H8T14296   4.817   4.863   3.800 -0.2720  0.0845 -0.6574
  133OSM    C9S14297   4.834   4.664   3.872  0.3478  0.8991  0.0529
  133OSM    H9S14298   4.945   4.673   3.865  0.3388  2.1182  1.1249
  133OSM    H9T14299   4.794   4.566   3.839 -1.9797  1.4381  1.0678
  133OSM   C10S14300   4.766   4.697   4.005  0.3292 -0.4387  0.7914
  133OSM   H10S14301   4.666   4.650   4.015  0.0091  0.5042  2.3413
  133OSM   H10T14302   4.766   4.807   4.024  1.0118 -0.4194  0.6851
  133OSM   C11S14303   4.854   4.634   4.116  0.4610 -0.2070  0.5996
  133OSM   H11S14304   4.957   4.670   4.094  0.7435  0.1872  2.4251
  133OSM   H11T14305   4.832   4.528   4.093 -0.0072  0.4959 -2.8473
  133OSM   C12S14306   4.815   4.685   4.253  0.1670 -0.2812  0.0326
  133OSM   H12S14307   4.795   4.794   4.249  3.8453  0.6130  2.1010
  133OSM   H12T14308   4.896   4.668   4.327 -0.2447  3.0647  1.4237
  133OSM   C13S14309   4.677   4.649   4.300 -0.0473 -0.0977 -0.3304
  133OSM   H13S14310   4.589   4.665   4.235 -0.2614  0.4645  0.0968
  133OSM   H13T14311   4.665   4.717   4.386 -1.0147  0.3681 -0.8198
  133OSM   C14S14312   4.670   4.499   4.336 -0.4135  0.1197 -0.3832
  133OSM   H14S14313   4.763   4.453   4.295 -0.0790  0.9226 -0.5346
  133OSM   H14T14314   4.580   4.456   4.287 -1.4207  1.3876  0.3118
  133OSM   C15S14315   4.663   4.462   4.486  0.0762  0.0779 -0.6130
  133OSM   H15S14316   4.611   4.364   4.489 -0.1329  0.1315 -1.7748
  133OSM   H15T14317   4.590   4.532   4.532  1.7472  0.2280  1.9600
  133OSM   C16S14318   4.792   4.446   4.565 -0.4435 -0.2046  0.3065
  133OSM   H16S14319   4.831   4.549   4.576  0.6368 -0.1948 -2.7285
  133OSM   H16T14320   4.870   4.384   4.515 -0.1677 -1.2282  1.9449
  133OSM   C17S14321   4.786   4.367   4.689  0.5438 -0.1376  0.2536
  133OSM   H17S14322   4.891   4.353   4.722  0.7992  1.8077  0.4048
  133OSM   H17T14323   4.753   4.262   4.677 -1.8093  0.4072  1.5026
  133OSM   C18S14324   4.703   4.429   4.798 -0.0315  0.2933  0.1409
  133OSM   H18S14325   4.730   4.530   4.836  1.9894 -0.9727  2.3668
  133OSM   H18T14326   4.688   4.371   4.892  1.0057 -0.9290 -0.4203
  133OSM   H18U14327   4.597   4.441   4.767 -0.6344  0.1110  2.0033
  133OSM    C1F14328   5.293   4.916   3.321  0.2204 -0.0110 -0.5912
  133OSM     OF14329   5.319   5.017   3.257  0.0162  0.3313 -0.4546
  133OSM    C2F14330   5.368   4.881   3.450 -0.2368 -0.1745 -0.2424
  133OSM    H2F14331   5.385   4.970   3.515 -1.8159  2.0539 -2.6587
  133OSM    H2G14332   5.459   4.831   3.410  0.0140  0.3637 -0.3515
  133OSM    C3F14333   5.290   4.773   3.532  0.0241 -0.0158 -0.1004
  133OSM    H3F14334   5.298   4.677   3.478  2.1445  0.0370  0.0653
  133OSM    H3G14335   5.189   4.810   3.562  1.2241  1.9796  1.7819
  133OSM    C4F14336   5.369   4.742   3.669  0.0582  0.0950 -0.0230
  133OSM    H4F14337   5.392   4.830   3.731  1.2459 -0.4136  0.2796
  133OSM    H4G14338   5.470   4.708   3.639 -0.7282 -0.5375 -2.2327
  133OSM    C5F14339   5.296   4.633   3.750  0.5318 -0.4275  0.0648
  133OSM    H5F14340   5.325   4.535   3.706 -1.2222 -0.9967  0.0590
  133OSM    H5G14341   5.186   4.650   3.741  0.3088 -2.0940 -0.8765
  133OSM    C6F14342   5.343   4.638   3.887  0.6380 -0.4410 -0.3497
  133OSM    H6F14343   5.371   4.741   3.918  0.4998 -0.5383  0.1012
  133OSM    H6G14344   5.444   4.592   3.887  0.1324 -1.5816 -1.2335
  133OSM    C7F14345   5.251   4.574   3.990 -0.5434  0.3458 -0.3832
  133OSM    H7F14346   5.255   4.467   3.960  1.3268  0.6388 -1.3258
  133OSM    H7G14347   5.150   4.618   3.976 -0.2952  1.3210  0.7905
  133OSM    C8F14348   5.285   4.589   4.136  0.0775  0.0137 -0.7518
  133OSM    H8F14349   5.305   4.695   4.163 -0.2708 -0.4233  1.4014
  133OSM    H8G14350   5.375   4.524   4.141  0.3714  0.3960 -0.9653
  133OSM    C9F14351   5.178   4.524   4.221 -0.3334  0.2950  0.2701
  133OSM    H9F14352   5.083   4.496   4.172 -0.5168 -0.8524  1.2136
  133OSM   C10F14353   5.188   4.490   4.350 -0.0236  0.3393 -0.1710
  133OSM   H10F14354   5.110   4.425   4.392  1.3266 -1.6249 -0.5233
  133OSM   C11F14355   5.300   4.518   4.443 -0.4935 -0.6084  0.3528
  133OSM   H11F14356   5.402   4.502   4.401 -0.6603  1.0357 -0.7553
  133OSM   H11G14357   5.299   4.445   4.528  1.3579  0.7316  1.6051
  133OSM   C12F14358   5.282   4.658   4.508  0.5286 -0.2130 -0.0028
  133OSM   H12F14359   5.260   4.737   4.433 -0.2537  0.5697  1.0246
  133OSM   H12G14360   5.372   4.676   4.570 -0.9522  2.7034  1.4998
  133OSM   C13F14361   5.163   4.657   4.609  0.5454  0.0806  0.3007
  133OSM   H13F14362   5.067   4.637   4.558  0.7041  0.1743 -0.0352
  133OSM   H13G14363   5.142   4.765   4.626 -0.7291 -0.2005  0.6450
  133OSM   C14F14364   5.189   4.585   4.740  0.0316 -0.5955 -0.2860
  133OSM   H14F14365   5.290   4.610   4.780 -0.2627 -2.2984  1.7228
  133OSM   H14G14366   5.180   4.476   4.724  1.0649 -0.4284 -2.3498
  133OSM   C15F14367   5.090   4.635   4.850 -0.4829  0.1961  0.1762
  133OSM   H15F14368   4.990   4.634   4.803 -0.0795 -0.2322 -0.6876
  133OSM   H15G14369   5.124   4.740   4.861  0.9876 -0.3561  1.5056
  133OSM   C16F14370   5.111   4.564   4.984  0.6102  0.5703 -0.8221
  133OSM   H16F14371   5.103   4.455   4.966  3.1341  0.1426  0.1443
  133OSM   H16G14372   5.026   4.580   5.054  1.5226  2.2130 -0.0058
  133OSM   C17F14373   5.234   4.603   5.073 -0.4377  0.3167  0.0724
  133OSM   H17F14374   5.245   4.712   5.093 -0.5878  0.8106 -2.2412
  133OSM   H17G14375   5.330   4.579   5.022 -0.3775 -1.9183  1.1407
  133OSM   C18F14376   5.230   4.529   5.210 -0.3124  0.4002 -0.2764
  133OSM   H18F14377   5.298   4.578   5.282 -0.2680  0.0973 -0.1077
  133OSM   H18G14378   5.254   4.423   5.184  2.5177  0.8016  0.3327
  133OSM   H18H14379   5.128   4.536   5.254  0.8155  1.0012  2.4314
  134OSM      N14380   4.360   1.086   2.522 -0.1164 -0.0257 -0.0868
  134OSM    C1514381   4.211   1.083   2.506 -0.1750  0.3650  0.1629
  134OSM   H15A14382   4.188   1.055   2.404  1.7374 -0.2415 -0.1357
  134OSM   H15B14383   4.176   1.184   2.520 -1.7414 -0.1817  0.3655
  134OSM   H15C14384   4.166   1.022   2.583 -0.8978  0.3834 -0.2346
  134OSM    C1414385   4.412   0.958   2.460 -0.4087 -0.3042  0.5600
  134OSM   H14A14386   4.390   0.953   2.354  0.3364  1.6908  0.2789
  134OSM   H14B14387   4.366   0.870   2.505 -0.8920  0.9002  2.5472
  134OSM   H14C14388   4.518   0.953   2.477 -0.1511  2.8992  0.4132
  134OSM    C1314389   4.422   1.197   2.445 -0.1286 -0.0351 -0.1510
  134OSM   H13A14390   4.390   1.194   2.341 -2.8957 -1.7937  0.6374
  134OSM   H13B14391   4.529   1.199   2.460 -0.1962  1.6148  0.3663
  134OSM   H13C14392   4.392   1.292   2.486 -0.8645 -0.0160 -0.7046
  134OSM    C1214393   4.400   1.087   2.667  0.6621 -1.1849  0.0880
  134OSM   H12A14394   4.506   1.068   2.680  0.2268 -2.3222  2.7508
  134OSM   H12B14395   4.358   1.003   2.721 -1.4747 -1.1423 -1.3858
  134OSM    C1114396   4.389   1.220   2.747  0.1369  0.7625  0.1269
  134OSM   H11A14397   4.425   1.312   2.696 -2.5780  0.8737 -1.7741
  134OSM   H11B14398   4.437   1.208   2.846 -1.5763  1.2548  1.0373
  134OSM      P14399   4.173   1.356   2.801 -0.3132 -0.0609  0.2024
  134OSM    O1314400   4.180   1.446   2.685 -0.1695  0.0416 -0.5833
  134OSM    O1414401   4.037   1.313   2.844 -0.3319  0.1226  0.1944
  134OSM    O1114402   4.252   1.421   2.927  0.0764 -0.4366 -0.4645
  134OSM    O1214403   4.252   1.231   2.774 -0.2789 -0.0233 -0.0143
  134OSM    C1S14404   4.271   1.347   3.043 -0.8832  0.3537  0.7810
  134OSM    H1S14405   4.352   1.272   3.030  0.6782  1.7364  1.9850
  134OSM    H1T14406   4.185   1.283   3.074 -0.1638 -0.6387  0.7892
  134OSM     NF14407   4.310   1.352   3.279  0.2635 -0.0723 -0.0957
  134OSM    HNF14408   4.226   1.328   3.327  0.2517  1.0524  0.4805
  134OSM    C2S14409   4.294   1.440   3.165  0.0972  0.3192 -0.0044
  134OSM    H2S14410   4.392   1.491   3.152  1.0349 -1.7125 -1.4023
  134OSM    C3S14411   4.167   1.535   3.165 -0.7816 -0.4278 -0.4209
  134OSM    H3S14412   4.088   1.463   3.137  1.1560 -1.4129 -4.0839
  134OSM     O314413   4.153   1.629   3.058 -0.1976 -0.3433 -0.0368
  134OSM    HO314414   4.213   1.590   2.994  0.3034  0.5433 -0.1269
  134OSM    C4S14415   4.165   1.619   3.286 -0.5023 -0.5204 -0.6333
  134OSM    H4S14416   4.255   1.678   3.310 -0.6301 -0.1258 -1.1117
  134OSM    C5S14417   4.062   1.643   3.366  0.1987 -0.2688  0.1534
  134OSM    H5S14418   3.967   1.594   3.341  0.5825 -0.0410 -1.9503
  134OSM    C6S14419   4.070   1.742   3.484 -0.2532  0.0940 -0.0270
  134OSM    H6S14420   3.978   1.803   3.491 -0.3067 -0.0746  0.9219
  134OSM    H6T14421   4.155   1.814   3.480 -0.3959  0.6343  3.7216
  134OSM    C7S14422   4.074   1.685   3.626  0.1060  0.0931  0.3269
  134OSM    H7S14423   4.098   1.765   3.698  2.8759  0.1074 -0.4899
  134OSM    H7T14424   4.163   1.619   3.635  0.1255 -0.8056 -4.0430
  134OSM    C8S14425   3.954   1.614   3.678  0.0916 -0.1443  0.4234
  134OSM    H8S14426   3.929   1.516   3.631 -0.6722  0.2386  0.0261
  134OSM    H8T14427   3.867   1.675   3.647  0.5534  0.2953 -0.0114
  134OSM    C9S14428   3.947   1.601   3.832 -0.3065 -0.0172 -0.4775
  134OSM    H9S14429   3.843   1.593   3.873  1.5206 -0.7533  4.8090
  134OSM    H9T14430   3.980   1.697   3.877  0.7237  1.2410 -3.6405
  134OSM   C10S14431   4.027   1.488   3.896 -0.4912 -0.2981 -0.2151
  134OSM   H10S14432   4.135   1.513   3.892 -0.4725  0.1463  1.8616
  134OSM   H10T14433   4.012   1.396   3.836 -0.3941 -1.0722  0.9253
  134OSM   C11S14434   3.980   1.450   4.035  0.2937  0.3525  0.2036
  134OSM   H11S14435   3.876   1.414   4.023  0.0621  1.2007 -0.4491
  134OSM   H11T14436   3.980   1.531   4.111  0.7214 -2.3781  3.3173
  134OSM   C12S14437   4.065   1.335   4.097 -0.1930  0.8068  0.6003
  134OSM   H12S14438   4.168   1.368   4.122  0.5296  1.5253 -2.7880
  134OSM   H12T14439   4.073   1.253   4.022 -1.1652  1.4879 -0.2775
  134OSM   C13S14440   3.982   1.273   4.219  0.3345 -0.5502  0.1971
  134OSM   H13S14441   3.891   1.216   4.188  0.7804 -2.0535  1.4917
  134OSM   H13T14442   3.951   1.361   4.280 -0.3684 -0.0257 -0.8830
  134OSM   C14S14443   4.066   1.185   4.310 -0.0451  0.3812  0.8950
  134OSM   H14S14444   4.171   1.223   4.312  0.1713  0.3508 -2.9984
  134OSM   H14T14445   4.076   1.092   4.250 -1.9332 -0.0602  1.2013
  134OSM   C15S14446   4.004   1.172   4.455  0.0745 -0.2481  0.2951
  134OSM   H15S14447   4.002   1.275   4.498 -0.7727 -0.4479  0.7691
  134OSM   H15T14448   4.085   1.110   4.499  0.5208 -0.0984 -0.3022
  134OSM   C16S14449   3.870   1.103   4.450  0.0400 -0.0047  0.1720
  134OSM   H16S14450   3.880   0.999   4.410 -1.7528  0.2280 -0.9969
  134OSM   H16T14451   3.807   1.153   4.374  0.4093  0.5179  0.2064
  134OSM   C17S14452   3.808   1.088   4.587 -0.4920  0.6804  0.3677
  134OSM   H17S14453   3.703   1.055   4.571 -0.5050  0.5711  0.6708
  134OSM   H17T14454   3.812   1.184   4.642  1.5461  0.8297  0.0607
  134OSM   C18S14455   3.881   0.980   4.667 -0.1723 -0.0097 -0.4593
  134OSM   H18S14456   3.990   0.991   4.684 -0.1298 -4.1266  4.3603
  134OSM   H18T14457   3.862   0.877   4.630  0.1597  0.0284 -0.7374
  134OSM   H18U14458   3.843   1.005   4.769  2.5449  1.9728  0.1994
  134OSM    C1F14459   4.426   1.288   3.297  0.2071 -0.4170 -0.1585
  134OSM     OF14460   4.524   1.298   3.227  0.0013 -0.3105  0.1564
  134OSM    C2F14461   4.433   1.199   3.419 -0.4172  0.0809 -0.1086
  134OSM    H2F14462   4.495   1.258   3.489 -1.4466 -0.3173  1.1788
  134OSM    H2G14463   4.495   1.113   3.386  1.7758  1.9940 -1.2780
  134OSM    C3F14464   4.297   1.164   3.485  0.0373  0.8288  0.7033
  134OSM    H3F14465   4.231   1.110   3.414 -0.1021 -1.0378  2.1963
  134OSM    H3G14466   4.249   1.263   3.505  0.1045  0.9238  0.4039
  134OSM    C4F14467   4.313   1.093   3.620  0.3327 -0.8623  0.5437
  134OSM    H4F14468   4.394   1.018   3.610  0.1382 -0.8831 -1.2159
  134OSM    H4G14469   4.220   1.042   3.650 -0.8107 -0.0532 -1.3819
  134OSM    C5F14470   4.344   1.190   3.735 -0.2098 -0.3405 -0.7857
  134OSM    H5F14471   4.264   1.266   3.745  0.5788  0.8596 -3.0021
  134OSM    H5G14472   4.430   1.255   3.710 -0.6215  0.8607  0.7815
  134OSM    C6F14473   4.372   1.114   3.869  0.4725 -0.5581  0.1443
  134OSM    H6F14474   4.459   1.046   3.859  0.9005 -0.1935  1.2516
  134OSM    H6G14475   4.283   1.049   3.886  0.3042 -0.1832  0.7485
  134OSM    C7F14476   4.411   1.211   3.993  0.8328  0.2754  0.1166
  134OSM    H7F14477   4.324   1.280   3.992 -0.6004 -1.4642  0.4678
  134OSM    H7G14478   4.510   1.259   3.978  0.4217  0.5782 -1.9392
  134OSM    C8F14479   4.415   1.134   4.137  0.1993  0.3061  0.6937
  134OSM    H8F14480   4.333   1.059   4.137  0.5491 -0.0784  0.0705
  134OSM    H8G14481   4.398   1.209   4.217 -0.6700 -0.5446  1.3282
  134OSM    C9F14482   4.540   1.048   4.162 -0.2312 -0.4384  0.5532
  134OSM    H9F14483   4.591   1.022   4.068  0.4091  1.2670  0.3892
  134OSM   C10F14484   4.594   1.024   4.289  0.9658 -0.4146  1.0028
  134OSM   H10F14485   4.691   0.974   4.303  2.4519  1.7033 -0.9154
  134OSM   C11F14486   4.528   1.063   4.419  0.4022  0.1822  0.2768
  134OSM   H11F14487   4.418   1.067   4.402  0.5149  1.6661 -0.2997
  134OSM   H11G14488   4.550   1.168   4.449 -1.4757  0.4227  0.9418
  134OSM   C12F14489   4.558   0.967   4.535 -0.3772  0.3082  0.0262
  134OSM   H12F14490   4.665   0.959   4.562  0.3211 -1.9265 -2.9400
  134OSM   H12G14491   4.535   0.864   4.501  0.5384  0.4668 -1.1384
  134OSM   C13F14492   4.479   1.001   4.653 -0.4178  0.4953  0.0839
  134OSM   H13F14493   4.371   0.994   4.631  0.1748 -1.8931 -2.6494
  134OSM   H13G14494   4.495   1.104   4.690  0.0299  0.1748  0.8159
  134OSM   C14F14495   4.500   0.915   4.785  0.0429  0.2150  0.1620
  134OSM   H14F14496   4.496   0.807   4.761  1.3635  0.5386 -1.7499
  134OSM   H14G14497   4.413   0.930   4.853 -1.1675  1.3440 -1.5553
  134OSM   C15F14498   4.628   0.953   4.867  0.1707  0.9029  0.3806
  134OSM   H15F14499   4.645   1.061   4.849 -1.6318  0.9625 -1.2523
  134OSM   H15G14500   4.709   0.881   4.842  2.3808  3.3301  0.0956
  134OSM   C16F14501   4.597   0.928   5.023  0.1659  0.6207  0.6244
  134OSM   H16F14502   4.576   0.819   5.023  0.9443  0.4276 -1.7568
  134OSM   H16G14503   4.509   0.992   5.049 -0.6542 -1.0684  2.2839
  134OSM   C17F14504   4.715   0.960   5.118  0.0707  1.1860  0.7255
  134OSM   H17F14505   4.810   0.937   5.066 -0.3084  2.4555 -0.5916
  134OSM   H17G14506   4.707   0.889   5.203 -0.9453  2.1556  1.4726
  134OSM   C18F14507   4.726   1.104   5.165 -0.4121  0.3302  0.1396
  134OSM   H18F14508   4.627   1.155   5.165 -0.4101  0.3435 -0.3624
  134OSM   H18G14509   4.797   1.157   5.098  1.1678 -0.0237  1.4748
  134OSM   H18H14510   4.775   1.110   5.264  0.0270  1.0862 -0.1135
  135OSM      N14511   0.541   6.330   2.464  0.1412  0.9594 -0.0010
  135OSM    C1514512   0.572   6.204   2.379  0.5706 -0.2165  0.2169
  135OSM   H15A14513   0.619   6.122   2.432  1.9792 -0.9727 -2.0234
  135OSM   H15B14514   0.644   6.224   2.301  1.2298 -1.5036  0.4666
  135OSM   H15C14515   0.478   6.172   2.337 -0.9718 -0.6093  3.6152
  135OSM    C1414516   0.483   6.431   2.372 -0.6700  0.2455  0.3455
  135OSM   H14A14517   0.551   6.443   2.289  0.6684 -0.4187  1.3166
  135OSM   H14B14518   0.462   6.521   2.428 -1.3929  0.0671  0.3691
  135OSM   H14C14519   0.385   6.400   2.339 -0.7368  0.8882 -0.0771
  135OSM    C1314520   0.441   6.289   2.567  0.4318  0.0527  0.5256
  135OSM   H13A14521   0.433   6.372   2.634  0.6342  1.0067 -0.6003
  135OSM   H13B14522   0.474   6.210   2.633 -1.1442 -0.4869  0.7015
  135OSM   H13C14523   0.343   6.260   2.531  0.6602 -1.1071  0.7855
  135OSM    C1214524   0.673   6.377   2.528  0.6762  0.2296 -0.5342
  135OSM   H12A14525   0.752   6.388   2.455  1.0062  2.8548  0.1287
  135OSM   H12B14526   0.698   6.294   2.592 -1.9806  1.4162  2.2895
  135OSM    C1114527   0.665   6.513   2.601  0.2539 -0.5170 -1.4320
  135OSM   H11A14528   0.649   6.593   2.526 -1.1945  1.3911  0.7365
  135OSM   H11B14529   0.765   6.531   2.647 -0.3031  0.7052 -0.6450
  135OSM      P14530   0.539   6.650   2.776 -0.1479 -0.1557  0.7423
  135OSM    O1314531   0.640   6.662   2.884 -0.3012  0.2790  0.0075
  135OSM    O1414532   0.511   6.767   2.689  0.1322 -0.2569  0.0899
  135OSM    O1114533   0.398   6.612   2.834  0.3332  0.0065  0.0526
  135OSM    O1214534   0.561   6.516   2.704  0.3041  0.1913  0.1593
  135OSM    C1S14535   0.387   6.489   2.914 -0.2775 -0.8185  0.8198
  135OSM    H1S14536   0.486   6.438   2.920 -0.7715 -1.9107 -0.0123
  135OSM    H1T14537   0.308   6.416   2.888  0.6567 -1.5132 -0.1722
  135OSM     NF14538   0.374   6.383   3.140  0.1539 -0.7381  0.2549
  135OSM    HNF14539   0.294   6.336   3.176  0.5879 -0.3964  1.7239
  135OSM    C2S14540   0.359   6.510   3.065 -0.0290 -0.2255 -0.1825
  135OSM    H2S14541   0.439   6.574   3.107 -0.0888 -1.8366  2.6680
  135OSM    C3S14542   0.229   6.584   3.084 -0.0104  0.3808 -0.7435
  135OSM    H3S14543   0.145   6.520   3.051 -0.7223 -1.0931  3.3675
  135OSM     O314544   0.226   6.711   3.016 -0.1369  0.9831  0.4241
  135OSM    HO314545   0.298   6.712   2.952 -0.6199 -0.0970 -0.1562
  135OSM    C4S14546   0.198   6.599   3.232 -0.4677 -0.6131  0.8803
  135OSM    H4S14547   0.115   6.534   3.263  0.1742 -1.1998  1.4029
  135OSM    C5S14548   0.250   6.698   3.309 -0.1839 -0.0850 -0.3647
  135OSM    H5S14549   0.337   6.753   3.272  1.6457 -0.5340  2.8801
  135OSM    C6S14550   0.216   6.717   3.453  0.1809  0.2921  0.3119
  135OSM    H6S14551   0.185   6.823   3.469 -1.6095 -0.1189 -0.2556
  135OSM    H6T14552   0.309   6.700   3.512 -0.9997 -2.8414  1.5270
  135OSM    C7S14553   0.115   6.628   3.531 -0.2286 -0.8573  0.2093
  135OSM    H7S14554   0.158   6.526   3.523  0.5598 -0.5524  0.3502
  135OSM    H7T14555   0.014   6.619   3.487 -1.2749  3.2871  1.3609
  135OSM    C8S14556   0.123   6.652   3.679  0.0560 -0.4436 -0.3872
  135OSM    H8S14557   0.089   6.757   3.692  0.7764 -0.5058  2.8171
  135OSM    H8T14558   0.228   6.650   3.716  0.0593  1.0157 -0.2506
  135OSM    C9S14559   0.023   6.567   3.753 -0.0508  0.3355  0.3437
  135OSM    H9S14560   0.051   6.461   3.734  1.8579  0.7552  0.6398
  135OSM    H9T14561  -0.076   6.586   3.706  0.1383 -0.6512 -0.4914
  135OSM   C10S14562   0.011   6.592   3.904 -0.1278 -0.6067  0.3840
  135OSM   H10S14563  -0.086   6.548   3.939 -0.5177 -1.8395 -2.0790
  135OSM   H10T14564   0.002   6.701   3.924 -0.8880 -0.6262  0.1742
  135OSM   C11S14565   0.136   6.545   3.987 -0.6005  0.1497 -0.4906
  135OSM   H11S14566   0.235   6.584   3.957  0.6183 -0.7169  2.0854
  135OSM   H11T14567   0.155   6.437   3.967 -0.4678 -0.0053  0.4029
  135OSM   C12S14568   0.124   6.574   4.140  0.3783  0.4971  0.5901
  135OSM   H12S14569   0.016   6.595   4.158  0.4751  0.3033  1.4550
  135OSM   H12T14570   0.172   6.672   4.156 -1.3774  1.7505 -1.3074
  135OSM   C13S14571   0.184   6.463   4.231  0.2124  0.6864  0.2692
  135OSM   H13S14572   0.287   6.454   4.189  0.2878  0.1250  0.5773
  135OSM   H13T14573   0.131   6.368   4.209  0.3841  0.4459  0.8830
  135OSM   C14S14574   0.195   6.512   4.382 -0.2687  0.4997 -0.6612
  135OSM   H14S14575   0.110   6.576   4.414  0.2845 -0.6650  3.8764
  135OSM   H14T14576   0.293   6.564   4.379 -0.3482  0.6089 -1.5548
  135OSM   C15S14577   0.207   6.397   4.479  0.0678 -0.3625 -0.2002
  135OSM   H15S14578   0.296   6.342   4.439  2.2079  2.0818  0.9056
  135OSM   H15T14579   0.112   6.340   4.485  0.4555 -1.3308 -2.1994
  135OSM   C16S14580   0.252   6.450   4.621 -0.3718 -0.2765  0.2449
  135OSM   H16S14581   0.157   6.473   4.675  0.6707  1.8319  1.3070
  135OSM   H16T14582   0.307   6.545   4.603  0.0820  0.3281  4.0153
  135OSM   C17S14583   0.335   6.343   4.702  0.0597 -0.1193  0.1724
  135OSM   H17S14584   0.443   6.362   4.687  0.0547  0.1646  0.4860
  135OSM   H17T14585   0.308   6.242   4.663 -0.6476  0.3593 -0.6205
  135OSM   C18S14586   0.306   6.360   4.853  0.0312  0.1261 -0.3150
  135OSM   H18S14587   0.335   6.267   4.906 -2.1401  1.6112  4.0018
  135OSM   H18T14588   0.197   6.373   4.874  0.1962 -1.8171  2.1506
  135OSM   H18U14589   0.354   6.449   4.899 -1.0654  1.1345 -1.0539
  135OSM    C1F14590   0.485   6.312   3.148 -0.0181  0.0175 -0.0036
  135OSM     OF14591   0.592   6.353   3.110 -0.3222 -0.0122 -0.3824
  135OSM    C2F14592   0.474   6.168   3.188  0.0049 -0.4048  0.1114
  135OSM    H2F14593   0.576   6.123   3.185  0.2974  0.3284 -1.8710
  135OSM    H2G14594   0.406   6.111   3.122  0.9527 -0.3386 -0.9477
  135OSM    C3F14595   0.405   6.139   3.329  0.2610 -0.8554 -0.4769
  135OSM    H3F14596   0.401   6.028   3.333  0.8945 -0.9297 -1.5032
  135OSM    H3G14597   0.298   6.171   3.328  0.2890 -0.7755 -1.3490
  135OSM    C4F14598   0.487   6.201   3.442 -0.1718  0.1938 -0.3592
  135OSM    H4F14599   0.505   6.308   3.417  0.8015  0.3718  0.9687
  135OSM    H4G14600   0.587   6.153   3.446 -0.8003 -1.2760 -1.4323
  135OSM    C5F14601   0.414   6.186   3.583  0.2276 -0.6200  0.6406
  135OSM    H5F14602   0.395   6.078   3.597 -1.5531 -0.7096 -1.8523
  135OSM    H5G14603   0.318   6.237   3.562 -0.8412 -2.5140  0.6640
  135OSM    C6F14604   0.470   6.256   3.703  0.1468  0.1274 -0.2714
  135OSM    H6F14605   0.505   6.355   3.665  2.5516  0.0094  1.4388
  135OSM    H6G14606   0.564   6.217   3.746  0.1172  0.0219 -0.3018
  135OSM    C7F14607   0.374   6.285   3.818 -1.1004 -0.5079 -0.4326
  135OSM    H7F14608   0.310   6.196   3.834  0.1041 -1.9301 -2.8910
  135OSM    H7G14609   0.304   6.367   3.789  1.0526  2.1923  1.4928
  135OSM    C8F14610   0.457   6.322   3.948  0.0920  0.6949  0.3827
  135OSM    H8F14611   0.396   6.371   4.026 -0.9561  0.8967 -0.5268
  135OSM    H8G14612   0.547   6.384   3.928  0.0957  0.5511 -0.0704
  135OSM    C9F14613   0.525   6.199   4.007 -0.1131  1.0378  0.1987
  135OSM    H9F14614   0.584   6.151   3.928 -1.0893  0.7158 -0.3598
  135OSM   C10F14615   0.520   6.149   4.134 -0.0698 -0.0754  0.3579
  135OSM   H10F14616   0.583   6.062   4.156  3.6870  1.9846 -1.2778
  135OSM   C11F14617   0.434   6.202   4.251  0.0302 -1.6255  0.4516
  135OSM   H11F14618   0.330   6.163   4.249 -0.2308 -0.9495 -1.4232
  135OSM   H11G14619   0.429   6.312   4.240 -0.4907 -1.7841 -1.1265
  135OSM   C12F14620   0.503   6.173   4.380  0.2211 -0.0201  0.5582
  135OSM   H12F14621   0.453   6.232   4.459 -2.6997  0.8533 -1.7573
  135OSM   H12G14622   0.609   6.206   4.384 -0.7004  3.9676 -1.8828
  135OSM   C13F14623   0.485   6.022   4.436  0.4650 -0.4729 -0.2321
  135OSM   H13F14624   0.550   5.958   4.374  1.8213 -0.3578  1.0066
  135OSM   H13G14625   0.378   5.993   4.430 -0.3416  1.9595  0.8426
  135OSM   C14F14626   0.537   6.014   4.579 -0.4921 -0.9512 -0.4018
  135OSM   H14F14627   0.466   6.063   4.650  1.4587  1.3248  0.0984
  135OSM   H14G14628   0.619   6.087   4.594 -1.2570 -0.0625 -0.3902
  135OSM   C15F14629   0.586   5.878   4.618 -0.4641 -0.3772  0.6678
  135OSM   H15F14630   0.665   5.850   4.545 -3.6951 -1.8335 -2.5983
  135OSM   H15G14631   0.511   5.796   4.614 -0.4703 -0.3251 -1.5271
  135OSM   C16F14632   0.643   5.877   4.764  0.3804 -0.5422  0.0340
  135OSM   H16F14633   0.705   5.963   4.797  0.5219 -1.2997  1.8277
  135OSM   H16G14634   0.701   5.783   4.775  0.3754 -0.5883 -0.3288
  135OSM   C17F14635   0.519   5.860   4.857 -0.0444  0.3438  0.8540
  135OSM   H17F14636   0.473   5.763   4.828  0.9901  0.6947 -2.3190
  135OSM   H17G14637   0.447   5.940   4.826 -2.2988 -1.0960  2.0598
  135OSM   C18F14638   0.542   5.852   5.010  0.0055  0.5043  0.6770
  135OSM   H18F14639   0.571   5.954   5.044  0.9255  1.5620 -2.8885
  135OSM   H18G14640   0.623   5.780   5.038 -1.0288 -1.1094 -0.3185
  135OSM   H18H14641   0.443   5.827   5.054  0.2420 -0.8530  0.4880
  136OSM      N14642   2.412   1.885   2.412  0.9626 -0.2554  0.3549
  136OSM    C1514643   2.555   1.928   2.404  0.4312  0.1532  0.9096
  136OSM   H15A14644   2.583   1.990   2.321  2.6881 -1.4056  0.4163
  136OSM   H15B14645   2.613   1.838   2.418  0.7860 -0.0651 -1.6413
  136OSM   H15C14646   2.565   1.988   2.494 -1.4810  0.8916  0.6865
  136OSM    C1414647   2.324   2.006   2.399 -0.5396 -0.5063 -0.2824
  136OSM   H14A14648   2.340   2.076   2.480  0.1894  0.7261 -1.4622
  136OSM   H14B14649   2.219   1.979   2.395 -0.3850 -1.0970 -0.4511
  136OSM   H14C14650   2.352   2.057   2.308  1.3424 -1.1924 -0.1237
  136OSM    C1314651   2.378   1.780   2.305  0.3410 -0.3211  0.0645
  136OSM   H13A14652   2.395   1.828   2.210  1.9357 -0.7535  0.1109
  136OSM   H13B14653   2.274   1.748   2.304  0.3633 -0.4015  0.2733
  136OSM   H13C14654   2.453   1.704   2.319 -0.4395 -0.7809  2.1731
  136OSM    C1214655   2.387   1.809   2.545 -0.7516  0.1919 -0.5900
  136OSM   H12A14656   2.439   1.715   2.552 -0.4590  0.1704 -2.6100
  136OSM   H12B14657   2.283   1.783   2.560 -0.6729  0.0094 -0.3439
  136OSM    C1114658   2.417   1.889   2.680 -0.1078 -0.0910  0.3295
  136OSM   H11A14659   2.391   1.822   2.764 -2.5268 -0.2066 -0.4438
  136OSM   H11B14660   2.359   1.983   2.688  1.9169  1.3637 -1.0372
  136OSM      P14661   2.667   1.799   2.707  0.1106  0.6195  0.4513
  136OSM    O1314662   2.622   1.682   2.624  0.0664 -0.5629  0.1777
  136OSM    O1414663   2.803   1.854   2.687 -0.3487 -0.5704  0.5727
  136OSM    O1114664   2.645   1.769   2.861  0.5486 -0.5050  0.2062
  136OSM    O1214665   2.562   1.920   2.689  0.1551  0.3696  0.2404
  136OSM    C1S14666   2.757   1.715   2.932 -0.1788 -0.0298  0.1566
  136OSM    H1S14667   2.836   1.792   2.946 -1.0494  0.9561 -0.1908
  136OSM    H1T14668   2.803   1.631   2.875 -0.6704 -0.0019 -0.2937
  136OSM     NF14669   2.841   1.657   3.156 -0.0233 -0.1688 -0.5305
  136OSM    HNF14670   2.885   1.568   3.161  1.1316  0.4284  0.4511
  136OSM    C2S14671   2.720   1.663   3.074  0.1775  0.2652  0.5915
  136OSM    H2S14672   2.657   1.749   3.107 -1.2174 -1.4174  2.5454
  136OSM    C3S14673   2.632   1.541   3.058 -0.7358 -0.7613  0.1187
  136OSM    H3S14674   2.693   1.460   3.012 -1.1699 -0.1681 -1.5532
  136OSM     O314675   2.532   1.563   2.961  0.1055 -0.7331  0.2385
  136OSM    HO314676   2.565   1.642   2.917 -1.1665 -0.2481  0.1299
  136OSM    C4S14677   2.569   1.504   3.185 -0.2649 -0.2466  0.3080
  136OSM    H4S14678   2.501   1.581   3.225  0.2579  0.0145  0.7024
  136OSM    C5S14679   2.578   1.381   3.242 -0.4202  0.3304 -0.5945
  136OSM    H5S14680   2.631   1.301   3.190  0.7738 -0.1665  1.2848
  136OSM    C6S14681   2.514   1.344   3.374  0.4222  0.6245  0.2968
  136OSM    H6S14682   2.551   1.241   3.394 -2.7072 -0.4134  1.2734
  136OSM    H6T14683   2.406   1.327   3.358  0.5080 -1.3162  1.3928
  136OSM    C7S14684   2.552   1.427   3.496  0.1760 -0.1227  0.1309
  136OSM    H7S14685   2.490   1.519   3.509  0.4068 -0.2003  2.0327
  136OSM    H7T14686   2.659   1.451   3.478  0.1540 -1.3165 -1.8543
  136OSM    C8S14687   2.539   1.346   3.625 -0.0257 -0.0563 -0.3148
  136OSM    H8S14688   2.594   1.251   3.610 -0.1475 -0.2391  0.3673
  136OSM    H8T14689   2.432   1.321   3.643 -0.1859 -0.4130 -1.6792
  136OSM    C9S14690   2.580   1.415   3.755 -0.5012 -0.0977  0.5507
  136OSM    H9S14691   2.527   1.511   3.770 -1.6877 -0.8034  1.1345
  136OSM    H9T14692   2.689   1.435   3.748 -0.5807  0.1376 -0.0277
  136OSM   C10S14693   2.565   1.318   3.878 -0.3504 -0.8916  0.7160
  136OSM   H10S14694   2.618   1.224   3.852 -0.9554 -0.4987 -2.2838
  136OSM   H10T14695   2.461   1.282   3.898  0.1965 -2.7073  0.5152
  136OSM   C11S14696   2.613   1.376   4.016 -0.2124 -0.5068 -0.0806
  136OSM   H11S14697   2.570   1.476   4.038  0.4066 -0.5428  1.4380
  136OSM   H11T14698   2.723   1.394   4.020 -0.4249  1.0328  4.1919
  136OSM   C12S14699   2.565   1.284   4.123 -0.0134  0.3394 -0.2196
  136OSM   H12S14700   2.616   1.186   4.115  0.5916  0.5688  0.7114
  136OSM   H12T14701   2.458   1.266   4.100  0.1979 -1.6586  0.1977
  136OSM   C13S14702   2.590   1.321   4.265  0.1576  0.0817 -0.2080
  136OSM   H13S14703   2.541   1.419   4.286  2.1239  0.9506  0.6294
  136OSM   H13T14704   2.699   1.335   4.282  0.1934 -1.5670  1.1833
  136OSM   C14S14705   2.546   1.213   4.362  0.0437  0.5476 -0.5079
  136OSM   H14S14706   2.603   1.118   4.345 -0.5506 -0.2837  1.7785
  136OSM   H14T14707   2.441   1.183   4.347  0.7262 -1.9204 -0.8277
  136OSM   C15S14708   2.572   1.249   4.508 -0.8982  0.5373  0.5481
  136OSM   H15S14709   2.680   1.275   4.516 -1.1818  2.3648 -0.9886
  136OSM   H15T14710   2.537   1.169   4.576  1.0549 -1.6624 -0.8830
  136OSM   C16S14711   2.489   1.369   4.552  0.0890  0.2835  0.0580
  136OSM   H16S14712   2.384   1.335   4.549  0.8701 -2.3715 -3.0298
  136OSM   H16T14713   2.496   1.459   4.486  2.0574  1.1071  1.3060
  136OSM   C17S14714   2.527   1.395   4.702  0.9376 -0.4992 -0.0841
  136OSM   H17S14715   2.534   1.302   4.762  0.1257 -1.2463 -1.1113
  136OSM   H17T14716   2.439   1.445   4.747  0.3996 -1.7201  0.2655
  136OSM   C18S14717   2.642   1.488   4.731 -0.1940 -0.0182 -0.9828
  136OSM   H18S14718   2.616   1.583   4.680 -2.1815 -0.7193 -1.3663
  136OSM   H18T14719   2.738   1.451   4.689  1.1495  0.2098  1.6821
  136OSM   H18U14720   2.646   1.499   4.842 -0.2993 -0.5534 -0.9238
  136OSM    C1F14721   2.895   1.765   3.206  0.2485 -0.6389 -0.0199
  136OSM     OF14722   2.840   1.874   3.193 -0.2267 -0.4738 -0.5096
  136OSM    C2F14723   3.025   1.757   3.268 -0.3416 -0.1452  0.5551
  136OSM    H2F14724   3.091   1.813   3.199  1.0863 -0.2215  1.8193
  136OSM    H2G14725   3.051   1.649   3.265  0.3773  0.0310  0.2940
  136OSM    C3F14726   3.026   1.814   3.409  0.3470 -0.4361  0.3290
  136OSM    H3F14727   2.989   1.726   3.465  2.8774 -1.4939  0.4653
  136OSM    H3G14728   2.955   1.897   3.430  1.1992  0.4105 -0.0593
  136OSM    C4F14729   3.169   1.851   3.465  0.8253  0.3852  0.5452
  136OSM    H4F14730   3.205   1.932   3.397  0.7810  0.6799  0.8660
  136OSM    H4G14731   3.230   1.762   3.440 -2.3039 -1.4895 -1.0345
  136OSM    C5F14732   3.179   1.880   3.613  0.4426  0.0955  0.5030
  136OSM    H5F14733   3.093   1.945   3.639 -0.4134 -1.4429  1.7138
  136OSM    H5G14734   3.276   1.933   3.619  0.8203 -0.2994 -1.3807
  136OSM    C6F14735   3.167   1.762   3.707 -0.7298  0.5822 -0.4622
  136OSM    H6F14736   3.197   1.675   3.644  0.2508  0.3846  0.2653
  136OSM    H6G14737   3.060   1.746   3.732 -0.8123  0.8809 -0.6154
  136OSM    C7F14738   3.261   1.776   3.825  0.5900  0.0722 -0.2954
  136OSM    H7F14739   3.238   1.866   3.885  1.3376  0.0490  0.0337
  136OSM    H7G14740   3.365   1.793   3.790  2.0189 -0.8669  3.0991
  136OSM    C8F14741   3.264   1.641   3.905 -0.0346 -0.0348 -0.3774
  136OSM    H8F14742   3.304   1.567   3.831  0.2661 -0.9419  0.6631
  136OSM    H8G14743   3.155   1.632   3.925 -0.1734  1.3894 -0.3953
  136OSM    C9F14744   3.347   1.652   4.022 -0.0579  0.2508 -0.2902
  136OSM    H9F14745   3.333   1.744   4.081 -2.2536  0.6558 -1.3540
  136OSM   C10F14746   3.443   1.566   4.070 -0.5619 -0.0726 -0.1282
  136OSM   H10F14747   3.505   1.591   4.158 -0.7698 -1.0255  0.2956
  136OSM   C11F14748   3.477   1.432   4.021  0.3221  0.6213 -0.0934
  136OSM   H11F14749   3.585   1.411   4.040  0.4738 -0.8236 -2.2055
  136OSM   H11G14750   3.450   1.412   3.915 -0.2094  0.5617  0.0549
  136OSM   C12F14751   3.402   1.327   4.106 -0.1377 -0.0742 -0.1408
  136OSM   H12F14752   3.422   1.225   4.065  0.6240 -0.2958  0.7469
  136OSM   H12G14753   3.293   1.331   4.087 -0.0836 -0.8448 -0.6920
  136OSM   C13F14754   3.442   1.327   4.253 -0.1418  0.1493 -0.1008
  136OSM   H13F14755   3.410   1.426   4.291  0.5877  0.7101 -0.8807
  136OSM   H13G14756   3.553   1.325   4.259 -0.1910 -1.2564  0.7011
  136OSM   C14F14757   3.402   1.205   4.340 -0.1195 -0.2073  0.4277
  136OSM   H14F14758   3.291   1.208   4.350 -0.3259 -1.3029 -1.2184
  136OSM   H14G14759   3.445   1.211   4.442 -1.3633  1.1003  0.9072
  136OSM   C15F14760   3.439   1.058   4.297  0.0901 -0.0542  0.2912
  136OSM   H15F14761   3.548   1.050   4.276  0.2496 -2.8548  1.7120
  136OSM   H15G14762   3.392   1.028   4.201  0.4559 -0.9935  0.3859
  136OSM   C16F14763   3.394   0.959   4.412 -0.7751  0.0728  0.5740
  136OSM   H16F14764   3.289   0.984   4.437  0.3550  3.8008  2.3301
  136OSM   H16G14765   3.449   0.964   4.509  2.9021  1.8023 -1.4070
  136OSM   C17F14766   3.403   0.815   4.346 -0.1761 -0.8572  0.0469
  136OSM   H17F14767   3.377   0.820   4.238 -0.2844 -2.9752 -0.0640
  136OSM   H17G14768   3.332   0.748   4.398  1.2481 -1.1920  1.6718
  136OSM   C18F14769   3.535   0.748   4.371 -0.2491 -0.5463  0.1046
  136OSM   H18F14770   3.557   0.648   4.328  0.9827  0.4553 -1.6831
  136OSM   H18G14771   3.545   0.736   4.481  0.0375 -0.1894  0.1180
  136OSM   H18H14772   3.617   0.818   4.345 -0.8699 -0.1839 -0.9196
  137OSM      N14773   6.825   6.683   2.831 -0.7945 -0.0565 -0.4454
  137OSM    C1514774   6.694   6.677   2.893  0.4350 -0.1772  0.3994
  137OSM   H15A14775   6.699   6.656   2.998  2.6256 -0.5908  0.2522
  137OSM   H15B14776   6.637   6.607   2.833  0.9900 -0.3658  0.0883
  137OSM   H15C14777   6.645   6.771   2.873  4.1845  1.9975  0.5889
  137OSM    C1414778   6.812   6.679   2.685 -0.7584  0.1268 -0.1544
  137OSM   H14A14779   6.769   6.584   2.655 -0.2048  0.6016 -2.6809
  137OSM   H14B14780   6.910   6.690   2.641 -1.1232  2.1779 -0.5221
  137OSM   H14C14781   6.751   6.757   2.642  0.5166  1.0776 -0.2964
  137OSM    C1314782   6.896   6.803   2.871 -0.2539  0.5067 -0.2315
  137OSM   H13A14783   6.832   6.888   2.856  0.4840  0.9647 -0.8485
  137OSM   H13B14784   6.986   6.826   2.816 -1.0433  1.4932 -1.1437
  137OSM   H13C14785   6.923   6.796   2.975 -1.7035  0.1220  0.1383
  137OSM    C1214786   6.897   6.561   2.893 -0.2299 -0.6306  0.0075
  137OSM   H12A14787   6.895   6.563   3.001  1.2227 -1.8651  0.0934
  137OSM   H12B14788   7.002   6.571   2.866 -0.2407  2.9088  0.8216
  137OSM    C1114789   6.880   6.415   2.841 -0.1307  0.9850  0.0401
  137OSM   H11A14790   6.938   6.332   2.887  0.6684 -0.1878 -2.8335
  137OSM   H11B14791   6.916   6.405   2.736  1.6054 -0.4541  0.7081
  137OSM      P14792   6.668   6.312   2.966 -0.0886 -0.0166  0.5849
  137OSM    O1314793   6.532   6.369   2.973  0.0446  0.2567 -0.0737
  137OSM    O1414794   6.686   6.164   2.963 -0.4234  0.2439 -0.4665
  137OSM    O1114795   6.745   6.363   3.092 -0.2598 -0.3323 -0.0237
  137OSM    O1214796   6.741   6.373   2.848 -0.1001 -0.3093 -0.0624
  137OSM    C1S14797   6.712   6.318   3.227  0.4286 -0.4724 -0.1950
  137OSM    H1S14798   6.755   6.216   3.239  0.3390 -0.3588  1.1865
  137OSM    H1T14799   6.602   6.310   3.231  0.3835 -0.2439 -0.7820
  137OSM     NF14800   6.750   6.343   3.467 -0.7452  0.1604 -0.4982
  137OSM    HNF14801   6.671   6.354   3.527 -1.1656  1.9568 -1.3164
  137OSM    C2S14802   6.750   6.414   3.338  0.1160 -0.3133 -0.0464
  137OSM    H2S14803   6.856   6.433   3.313 -0.0310 -0.0995 -0.5334
  137OSM    C3S14804   6.662   6.545   3.324 -0.1088  0.9309 -0.5931
  137OSM    H3S14805   6.558   6.522   3.356  0.7344 -0.3255  1.4948
  137OSM     O314806   6.653   6.588   3.191 -0.0688  0.3315 -0.0390
  137OSM    HO314807   6.682   6.514   3.137  0.3695 -0.7215  1.5741
  137OSM    C4S14808   6.719   6.662   3.403 -0.6468  0.0405 -0.2938
  137OSM    H4S14809   6.815   6.701   3.367  0.1710  1.1492  2.8516
  137OSM    C5S14810   6.658   6.723   3.509  0.4764 -0.3383 -0.2279
  137OSM    H5S14811   6.559   6.682   3.531  0.5059 -2.3481 -3.1887
  137OSM    C6S14812   6.696   6.836   3.596  0.2979 -0.0021 -0.5747
  137OSM    H6S14813   6.740   6.797   3.690 -2.1173  0.0344  0.6547
  137OSM    H6T14814   6.603   6.888   3.628 -0.2573 -2.1711  1.6474
  137OSM    C7S14815   6.789   6.928   3.528  0.4480  0.3867  0.5051
  137OSM    H7S14816   6.758   6.959   3.426  1.1558 -0.1988  0.1015
  137OSM    H7T14817   6.889   6.879   3.527 -0.4238 -1.5790 -2.3979
  137OSM    C8S14818   6.825   7.058   3.611  0.5908 -0.1471  0.1798
  137OSM    H8S14819   6.845   7.020   3.713  0.0526 -1.0326 -0.0346
  137OSM    H8T14820   6.732   7.120   3.618  1.6628  1.4613  0.7848
  137OSM    C9S14821   6.925   7.155   3.549 -0.1009 -0.3664  0.1076
  137OSM    H9S14822   6.888   7.183   3.448 -0.5327  0.5793  0.5108
  137OSM    H9T14823   7.022   7.101   3.539 -0.9401 -1.5601 -2.4212
  137OSM   C10S14824   6.940   7.277   3.635  0.1300  1.1753 -0.3076
  137OSM   H10S14825   6.926   7.251   3.742 -0.7422 -0.4636 -0.7921
  137OSM   H10T14826   6.853   7.340   3.607 -0.0565 -0.8809 -5.3259
  137OSM   C11S14827   7.069   7.357   3.598 -0.2355 -0.7311 -0.0065
  137OSM   H11S14828   7.063   7.393   3.493 -2.9787  0.4964  0.4958
  137OSM   H11T14829   7.159   7.292   3.590 -0.3055 -0.7280 -0.9025
  137OSM   C12S14830   7.088   7.477   3.692  0.4718  0.1081 -0.0590
  137OSM   H12S14831   7.030   7.569   3.673 -1.7740 -1.2912 -0.3039
  137OSM   H12T14832   7.195   7.502   3.675  0.7579 -0.9199  0.1195
  137OSM   C13S14833   7.082   7.436   3.844 -0.3227 -0.1603  0.5330
  137OSM   H13S14834   7.106   7.327   3.840 -0.8353 -0.2450 -1.6171
  137OSM   H13T14835   6.985   7.457   3.892 -0.6397 -2.9928  1.3465
  137OSM   C14S14836   7.186   7.506   3.928  0.0073 -0.4604  0.3330
  137OSM   H14S14837   7.151   7.610   3.941 -1.5595 -0.8559 -0.4601
  137OSM   H14T14838   7.285   7.507   3.879 -0.3424 -2.6764 -0.5694
  137OSM   C15S14839   7.210   7.446   4.070  0.0039  0.4608 -0.0393
  137OSM   H15S14840   7.283   7.513   4.120 -1.5521  0.5812  2.2557
  137OSM   H15T14841   7.256   7.347   4.049 -3.0606 -0.4867 -3.3506
  137OSM   C16S14842   7.086   7.426   4.166  0.1243  0.2406 -0.0474
  137OSM   H16S14843   7.011   7.364   4.112 -1.0307 -0.7983  2.5912
  137OSM   H16T14844   7.033   7.523   4.179 -3.1646 -1.3018 -0.9488
  137OSM   C17S14845   7.126   7.349   4.297 -0.0694 -0.5519 -0.0993
  137OSM   H17S14846   7.214   7.285   4.271 -0.2131 -0.9322  0.3367
  137OSM   H17T14847   7.058   7.266   4.327  0.0647 -0.7368 -0.2940
  137OSM   C18S14848   7.159   7.439   4.419 -0.4909  0.9064  0.1826
  137OSM   H18S14849   7.069   7.474   4.474  0.1545  0.3997  1.6006
  137OSM   H18T14850   7.224   7.523   4.387 -0.2736  2.0622  3.2768
  137OSM   H18U14851   7.208   7.376   4.496  0.2269 -2.3707 -2.6878
  137OSM    C1F14852   6.836   6.242   3.511 -0.1741 -0.7984  0.0199
  137OSM     OF14853   6.911   6.196   3.428  0.2005  0.0845 -0.4296
  137OSM    C2F14854   6.834   6.192   3.652 -0.1462  0.2464  1.2507
  137OSM    H2F14855   6.779   6.095   3.653  0.4174 -0.2048 -1.9034
  137OSM    H2G14856   6.771   6.263   3.711 -1.5210 -1.1638  1.5433
  137OSM    C3F14857   6.975   6.163   3.709  0.1354  0.5966  0.8997
  137OSM    H3F14858   7.041   6.252   3.701 -0.5359  1.4504  3.6690
  137OSM    H3G14859   7.021   6.082   3.649  0.9390  1.9582 -0.3948
  137OSM    C4F14860   6.975   6.128   3.858  0.5365  0.5139 -0.3281
  137OSM    H4F14861   6.974   6.223   3.917 -0.2712  0.9256 -0.9700
  137OSM    H4G14862   7.074   6.079   3.864  0.7530  0.9209 -0.5354
  137OSM    C5F14863   6.863   6.043   3.906 -0.6531 -0.3237 -0.1565
  137OSM    H5F14864   6.829   5.957   3.844 -2.8171  0.3102  0.0677
  137OSM    H5G14865   6.775   6.110   3.920  0.2029  0.9096 -0.4952
  137OSM    C6F14866   6.899   5.993   4.048  1.0829 -0.5018  0.0734
  137OSM    H6F14867   6.959   6.073   4.095  1.4746 -2.6166  3.5165
  137OSM    H6G14868   6.953   5.896   4.037 -1.1284 -2.5958  4.7399
  137OSM    C7F14869   6.770   5.972   4.130  0.0671 -0.4467  0.7947
  137OSM    H7F14870   6.804   5.917   4.221 -1.9346 -2.3236  0.4916
  137OSM    H7G14871   6.693   5.903   4.088 -2.0053 -0.3547  4.0775
  137OSM    C8F14872   6.702   6.104   4.177  0.3735 -0.5128  0.3167
  137OSM    H8F14873   6.643   6.148   4.095  1.0632  1.3347  0.7578
  137OSM    H8G14874   6.787   6.173   4.198 -0.2405  0.7675 -1.2258
  137OSM    C9F14875   6.608   6.097   4.299  0.4708  0.6473  0.0844
  137OSM    H9F14876   6.501   6.081   4.278  0.8326  0.4377 -1.7930
  137OSM   C10F14877   6.652   6.110   4.428 -0.2880  0.5767  0.1311
  137OSM   H10F14878   6.577   6.108   4.509  0.0641 -0.2820  0.4498
  137OSM   C11F14879   6.797   6.114   4.475 -0.6509  0.0894  0.4152
  137OSM   H11F14880   6.864   6.160   4.399 -1.1373  1.6697  0.9112
  137OSM   H11G14881   6.850   6.017   4.485 -0.6237  0.1348  0.7097
  137OSM   C12F14882   6.840   6.192   4.604 -0.4225 -0.3994 -0.0565
  137OSM   H12F14883   6.836   6.302   4.593  2.2395 -0.3991 -2.3748
  137OSM   H12G14884   6.950   6.181   4.615 -0.2238  0.5926 -0.8571
  137OSM   C13F14885   6.775   6.136   4.732 -0.4810 -0.4978  0.1539
  137OSM   H13F14886   6.813   6.032   4.737  1.7784  0.2768  0.5437
  137OSM   H13G14887   6.666   6.131   4.711 -0.2516 -2.4773 -0.7016
  137OSM   C14F14888   6.797   6.224   4.866  0.1500  0.8051  0.0743
  137OSM   H14F14889   6.905   6.211   4.887 -0.5761  0.5504  4.7694
  137OSM   H14G14890   6.732   6.172   4.940 -0.9906  0.8810 -0.8525
  137OSM   C15F14891   6.754   6.365   4.869 -0.1662  0.3344 -0.1606
  137OSM   H15F14892   6.654   6.361   4.821  0.3535  0.1898 -1.2748
  137OSM   H15G14893   6.825   6.430   4.812 -0.3728 -0.1930 -1.0427
  137OSM   C16F14894   6.734   6.424   5.013  0.0401 -0.0489  0.2011
  137OSM   H16F14895   6.680   6.351   5.077 -2.4546  0.9304 -0.6637
  137OSM   H16G14896   6.675   6.518   5.011  1.5932  0.9592 -0.1851
  137OSM   C17F14897   6.871   6.444   5.084  0.8571  0.2787  0.5655
  137OSM   H17F14898   6.952   6.481   5.017  2.6863 -2.0931  1.3330
  137OSM   H17G14899   6.905   6.345   5.121  0.6605 -0.2763 -0.6666
  137OSM   C18F14900   6.869   6.530   5.207  1.0083  0.2027  0.4237
  137OSM   H18F14901   6.797   6.482   5.276 -1.0863  2.7770  0.1664
  137OSM   H18G14902   6.847   6.635   5.178  0.9055 -0.5481 -2.5505
  137OSM   H18H14903   6.968   6.523   5.258  0.3209 -3.7136  1.5814
  138OSM      N14904   0.516   2.649   2.794  0.6830  0.0377 -0.1068
  138OSM    C1514905   0.609   2.595   2.685 -0.3244  0.0850 -0.6368
  138OSM   H15A14906   0.567   2.512   2.630  1.7113 -2.1369  0.9306
  138OSM   H15B14907   0.701   2.561   2.730 -0.7950 -0.3324  0.0256
  138OSM   H15C14908   0.647   2.675   2.623  0.1241  0.7543  0.4628
  138OSM    C1414909   0.415   2.738   2.728  0.1983 -0.0562 -0.1603
  138OSM   H14A14910   0.385   2.709   2.628 -2.5134  0.1652  0.5163
  138OSM   H14B14911   0.451   2.840   2.717 -0.4729  0.0005 -2.3190
  138OSM   H14C14912   0.327   2.734   2.790  0.4690 -0.1359  0.2228
  138OSM    C1314913   0.442   2.534   2.852 -0.1674 -0.0326  0.4468
  138OSM   H13A14914   0.367   2.564   2.923 -0.4129  1.3458 -0.3687
  138OSM   H13B14915   0.513   2.469   2.900 -0.8170 -1.4474 -0.4321
  138OSM   H13C14916   0.401   2.472   2.773 -2.0560 -2.0546  2.8237
  138OSM    C1214917   0.584   2.726   2.910 -0.2483  0.4021  0.3157
  138OSM   H12A14918   0.662   2.788   2.870 -0.4025  1.5450  1.6979
  138OSM   H12B14919   0.642   2.650   2.961  0.3604  1.2936  0.9875
  138OSM    C1114920   0.499   2.796   3.025 -0.1708  0.2131 -0.4289
  138OSM   H11A14921   0.458   2.887   2.976  1.0960  0.9266 -0.1998
  138OSM   H11B14922   0.575   2.830   3.098  1.5961 -1.3344 -1.4381
  138OSM      P14923   0.257   2.720   3.099  0.2218 -0.0943  0.2538
  138OSM    O1314924   0.226   2.863   3.085 -0.6750  0.3033  0.5419
  138OSM    O1414925   0.185   2.618   3.011 -0.3223  0.6624 -0.5880
  138OSM    O1114926   0.230   2.688   3.247 -0.3152  0.4239  0.1735
  138OSM    O1214927   0.413   2.701   3.087  0.3061  0.1196 -0.1511
  138OSM    C1S14928   0.224   2.551   3.283 -0.3265  0.4934  1.2268
  138OSM    H1S14929   0.321   2.498   3.284 -0.2549  0.6270  1.4300
  138OSM    H1T14930   0.157   2.491   3.218 -1.9492  0.4681  2.8225
  138OSM     NF14931   0.219   2.430   3.513 -0.8288  0.0110 -0.2555
  138OSM    HNF14932   0.172   2.342   3.520 -0.4810 -0.0561  1.4810
  138OSM    C2S14933   0.160   2.533   3.431  0.5037  0.4329  0.6219
  138OSM    H2S14934   0.183   2.629   3.482  3.1240 -0.3373  1.0353
  138OSM    C3S14935   0.008   2.536   3.433  0.7385 -0.0239 -0.1713
  138OSM    H3S14936  -0.040   2.451   3.380  0.4204 -0.6815  1.1345
  138OSM     O314937  -0.049   2.661   3.381 -0.3660  0.3910  0.1905
  138OSM    HO314938   0.029   2.709   3.355  0.1015 -0.9847 -1.1233
  138OSM    C4S14939  -0.040   2.535   3.576 -0.0514 -0.4483  0.1417
  138OSM    H4S14940  -0.040   2.626   3.638  1.9972 -0.9743  0.9779
  138OSM    C5S14941  -0.105   2.440   3.630 -0.0503  0.0080 -0.6063
  138OSM    H5S14942  -0.111   2.347   3.572  3.7501 -0.0517 -1.1294
  138OSM    C6S14943  -0.148   2.451   3.774  0.5701 -0.5740 -0.2898
  138OSM    H6S14944  -0.259   2.459   3.780  0.5387 -0.3087 -1.0961
  138OSM    H6T14945  -0.121   2.546   3.825 -1.3999  0.4020 -0.9650
  138OSM    C7S14946  -0.112   2.331   3.858  0.2849 -0.5473 -0.3556
  138OSM    H7S14947  -0.005   2.335   3.889  0.1889 -2.4066  0.3960
  138OSM    H7T14948  -0.130   2.243   3.793 -0.4946  0.1594 -1.1113
  138OSM    C8S14949  -0.202   2.315   3.981  0.7483  0.1913 -0.1049
  138OSM    H8S14950  -0.172   2.225   4.038 -0.8092  0.3040  0.9525
  138OSM    H8T14951  -0.305   2.306   3.941  0.6277  0.2436  0.1936
  138OSM    C9S14952  -0.202   2.433   4.086 -0.0213  0.2758 -0.7334
  138OSM    H9S14953  -0.190   2.531   4.035 -1.9408  0.7100 -0.4058
  138OSM    H9T14954  -0.118   2.418   4.158 -0.9926 -2.4818 -0.0373
  138OSM   C10S14955  -0.323   2.444   4.174  0.0041  0.3999 -0.4044
  138OSM   H10S14956  -0.418   2.431   4.118  0.6587  1.8390 -1.9259
  138OSM   H10T14957  -0.331   2.545   4.218 -2.6223 -0.2034  0.6617
  138OSM   C11S14958  -0.330   2.335   4.283 -0.5670  0.1904 -0.3376
  138OSM   H11S14959  -0.229   2.323   4.327 -0.7448  0.0899  0.0443
  138OSM   H11T14960  -0.378   2.241   4.248 -0.4422 -0.8378  2.0711
  138OSM   C12S14961  -0.411   2.379   4.405  0.9141  0.4587 -0.1459
  138OSM   H12S14962  -0.520   2.387   4.385  0.6808 -0.9549  0.4947
  138OSM   H12T14963  -0.391   2.487   4.426 -0.3833  0.8677 -0.8700
  138OSM   C13S14964  -0.380   2.292   4.522 -0.3929  1.0686 -0.4830
  138OSM   H13S14965  -0.274   2.261   4.535 -1.0783 -0.8807  0.8464
  138OSM   H13T14966  -0.424   2.191   4.512  0.1405  0.9807 -2.2427
  138OSM   C14S14967  -0.419   2.359   4.656  0.0607 -0.0328 -0.4268
  138OSM   H14S14968  -0.530   2.354   4.662 -0.1822  2.4536 -1.3584
  138OSM   H14T14969  -0.402   2.468   4.645 -0.8938 -0.0986 -3.2584
  138OSM   C15S14970  -0.352   2.291   4.774  0.2450  0.8014 -0.2651
  138OSM   H15S14971  -0.241   2.278   4.772  0.1936  0.3812 -2.5200
  138OSM   H15T14972  -0.390   2.187   4.766 -1.0253  1.3505 -1.8093
  138OSM   C16S14973  -0.383   2.340   4.915 -0.1207 -0.6525 -0.0169
  138OSM   H16S14974  -0.493   2.360   4.918 -0.1327 -0.4396 -1.2236
  138OSM   H16T14975  -0.329   2.436   4.929  2.1484 -2.1645  2.3284
  138OSM   C17S14976  -0.337   2.246   5.023 -0.8510  0.0086  0.0498
  138OSM   H17S14977  -0.228   2.227   5.008 -0.6330 -1.3497  2.6462
  138OSM   H17T14978  -0.387   2.148   5.008  0.8839 -0.9315  0.0416
  138OSM   C18S14979  -0.373   2.290   5.159 -0.7632  0.0635 -0.3299
  138OSM   H18S14980  -0.344   2.233   5.249 -2.2292 -0.4644 -0.1547
  138OSM   H18T14981  -0.484   2.300   5.164 -1.0759 -2.5063 -0.8567
  138OSM   H18U14982  -0.328   2.390   5.175  2.4849 -1.4501  0.8143
  138OSM    C1F14983   0.346   2.435   3.543 -0.4582 -0.5550  0.3297
  138OSM     OF14984   0.412   2.536   3.518 -0.0965  0.3220  0.2120
  138OSM    C2F14985   0.406   2.308   3.605 -0.8593 -0.5716  0.3970
  138OSM    H2F14986   0.516   2.320   3.602 -0.8565 -0.4792  0.8804
  138OSM    H2G14987   0.374   2.223   3.540 -1.4797 -0.9688  1.1949
  138OSM    C3F14988   0.358   2.290   3.754  0.4923  0.0819  0.8134
  138OSM    H3F14989   0.397   2.191   3.785  0.5447 -0.0058  0.4695
  138OSM    H3G14990   0.247   2.294   3.760  0.4294 -0.7446  0.4077
  138OSM    C4F14991   0.405   2.406   3.850  0.3975  0.6870  0.1182
  138OSM    H4F14992   0.359   2.497   3.806 -1.1168 -1.2135 -2.5081
  138OSM    H4G14993   0.515   2.396   3.841  0.2227 -0.1050 -1.4527
  138OSM    C5F14994   0.363   2.399   3.991 -0.5766 -0.1497  0.1790
  138OSM    H5F14995   0.396   2.303   4.037  0.2498 -0.1879 -0.4671
  138OSM    H5G14996   0.253   2.410   3.998 -0.7745  0.2349 -2.7115
  138OSM    C6F14997   0.428   2.518   4.074 -0.1001 -0.1114 -0.0467
  138OSM    H6F14998   0.404   2.607   4.012  1.4537  0.0750 -0.4100
  138OSM    H6G14999   0.538   2.503   4.073 -0.2824 -1.6859  0.5794
  138OSM    C7F15000   0.352   2.542   4.209  0.0929  0.6787 -0.9279
  138OSM    H7F15001   0.244   2.551   4.186 -0.3918 -2.1028 -0.0925
  138OSM    H7G15002   0.399   2.624   4.268 -1.2155 -0.4088  1.7812
  138OSM    C8F15003   0.362   2.427   4.309  0.3717 -0.0087 -0.4173
  138OSM    H8F15004   0.470   2.425   4.334  0.3713  1.3825 -0.2763
  138OSM    H8G15005   0.340   2.328   4.261  0.3346 -0.9179  1.4076
  138OSM    C9F15006   0.278   2.439   4.438 -0.0953 -0.2145  0.2810
  138OSM    H9F15007   0.170   2.420   4.422 -0.3821 -0.4621  2.2207
  138OSM   C10F15008   0.321   2.456   4.564 -0.3759 -0.0944 -0.7694
  138OSM   H10F15009   0.250   2.455   4.647  1.1618 -0.7517  0.6077
  138OSM   C11F15010   0.463   2.478   4.608 -0.3955 -0.1009 -0.3937
  138OSM   H11F15011   0.519   2.533   4.530 -0.5046 -0.6207 -0.8456
  138OSM   H11G15012   0.507   2.377   4.618  0.6691  0.3800 -0.0750
  138OSM   C12F15013   0.491   2.555   4.745  0.5014 -0.2104  0.0204
  138OSM   H12F15014   0.596   2.544   4.780  0.4492  0.3679  0.3643
  138OSM   H12G15015   0.429   2.500   4.820  1.0120 -1.9189 -0.7514
  138OSM   C13F15016   0.452   2.709   4.741 -0.3042  0.3280 -0.6430
  138OSM   H13F15017   0.359   2.718   4.681 -0.5315 -0.7792 -0.4874
  138OSM   H13G15018   0.530   2.759   4.680  1.3375 -1.1771  0.1402
  138OSM   C14F15019   0.443   2.761   4.884 -0.0564  0.2094 -0.9171
  138OSM   H14F15020   0.541   2.740   4.931 -1.8614 -3.3737  1.8027
  138OSM   H14G15021   0.367   2.703   4.941 -0.7150  2.5256  0.6839
  138OSM   C15F15022   0.407   2.911   4.881  0.1757  0.0915 -0.3487
  138OSM   H15F15023   0.302   2.907   4.844 -0.7621  1.4115  1.9831
  138OSM   H15G15024   0.477   2.962   4.811 -1.5115 -1.8696 -3.7360
  138OSM   C16F15025   0.393   2.975   5.018 -0.2803  0.0466 -0.3033
  138OSM   H16F15026   0.338   2.908   5.088  0.4929  0.0922  0.3584
  138OSM   H16G15027   0.337   3.071   5.013 -1.1974 -0.4968 -0.8120
  138OSM   C17F15028   0.531   2.992   5.093  0.2814 -0.3155 -0.4313
  138OSM   H17F15029   0.588   3.061   5.026 -2.3869  0.7589 -1.7322
  138OSM   H17G15030   0.582   2.894   5.082  1.8616  0.4323 -0.1320
  138OSM   C18F15031   0.515   3.040   5.237  0.2987 -0.4768 -0.2916
  138OSM   H18F15032   0.458   3.135   5.234  0.6494 -0.2040  0.8939
  138OSM   H18G15033   0.606   3.051   5.299  0.4114 -2.5129 -0.0326
  138OSM   H18H15034   0.461   2.965   5.299  1.4209 -0.2508  1.0052
  139OSM      N15035   1.681   6.900   2.577  0.4718 -0.6519  0.0726
  139OSM    C1515036   1.814   6.967   2.567  0.0224 -0.6872  0.2607
  139OSM   H15A15037   1.825   7.061   2.620  2.3008  0.8990 -2.6893
  139OSM   H15B15038   1.852   6.973   2.466 -2.8756  0.8858 -0.8277
  139OSM   H15C15039   1.885   6.901   2.615  0.4157 -0.0869  0.5158
  139OSM    C1415040   1.580   6.967   2.486  0.5364 -0.7024 -0.0639
  139OSM   H14A15041   1.547   7.067   2.510 -2.6263 -1.9992  1.7599
  139OSM   H14B15042   1.478   6.934   2.499 -0.1464  0.6794 -1.5571
  139OSM   H14C15043   1.607   6.954   2.383 -0.5585  0.7340 -0.5616
  139OSM    C1315044   1.700   6.756   2.528  0.4402 -0.4481 -0.5037
  139OSM   H13A15045   1.730   6.751   2.424 -2.2521 -1.9806 -1.3176
  139OSM   H13B15046   1.607   6.701   2.534  0.3861 -0.4101 -0.9245
  139OSM   H13C15047   1.774   6.709   2.591  1.1346 -0.5217 -1.3454
  139OSM    C1215048   1.629   6.888   2.720  0.0835  0.3605 -0.2703
  139OSM   H12A15049   1.536   6.833   2.714  1.2886 -1.7017 -1.3076
  139OSM   H12B15050   1.608   6.980   2.771 -1.3399  0.1790 -0.4973
  139OSM    C1115051   1.723   6.816   2.818 -0.3145  0.3199 -0.3560
  139OSM   H11A15052   1.748   6.712   2.789  0.2137 -0.2005  1.7515
  139OSM   H11B15053   1.672   6.800   2.916 -0.7581  0.3991 -0.5704
  139OSM      P15054   1.853   7.006   2.933  0.5090 -0.5146  0.1363
  139OSM    O1315055   1.991   7.062   2.919  0.3261  0.1654  0.0846
  139OSM    O1415056   1.745   7.104   2.907 -0.0429 -0.0640  0.0156
  139OSM    O1115057   1.829   6.935   3.076 -0.3602  0.3575  0.2272
  139OSM    O1215058   1.844   6.884   2.841  0.3507  0.7415  0.1546
  139OSM    C1S15059   1.945   6.878   3.151  0.2394 -0.1781 -0.7505
  139OSM    H1S15060   2.025   6.954   3.138 -3.2167  3.6281 -2.2623
  139OSM    H1T15061   1.974   6.783   3.103  0.9914 -0.0403 -0.5748
  139OSM     NF15062   2.009   6.802   3.374  0.1898  0.1640 -0.1843
  139OSM    HNF15063   2.024   6.704   3.388  0.3679  0.5355  2.9739
  139OSM    C2S15064   1.903   6.856   3.297 -0.1102 -0.5766 -0.0920
  139OSM    H2S15065   1.876   6.958   3.332  2.1728  0.2202 -0.4919
  139OSM    C3S15066   1.767   6.782   3.303 -0.2102  0.3646 -0.1338
  139OSM    H3S15067   1.780   6.677   3.268 -1.2580 -0.0981  0.8209
  139OSM     O315068   1.655   6.834   3.227  0.1246 -0.0739  0.4564
  139OSM    HO315069   1.699   6.893   3.166 -0.9848  1.0061  0.6527
  139OSM    C4S15070   1.733   6.771   3.453 -0.1377 -0.5037 -0.7924
  139OSM    H4S15071   1.720   6.871   3.498  1.0067 -1.4786  1.8849
  139OSM    C5S15072   1.700   6.666   3.525 -0.5305 -0.4605  0.3381
  139OSM    H5S15073   1.698   6.569   3.473 -2.7242  0.3236 -1.1770
  139OSM    C6S15074   1.652   6.657   3.668 -0.6431  0.3436 -0.2944
  139OSM    H6S15075   1.544   6.629   3.661 -0.7873  1.1282 -1.6038
  139OSM    H6T15076   1.667   6.750   3.727  0.4496 -0.0968  0.1439
  139OSM    C7S15077   1.731   6.546   3.745 -0.1678 -1.2417 -0.0823
  139OSM    H7S15078   1.835   6.582   3.763 -1.0900  1.4982  0.3067
  139OSM    H7T15079   1.722   6.459   3.677  0.6491 -1.8329  0.5494
  139OSM    C8S15080   1.680   6.534   3.894 -0.3983  0.5532  0.1754
  139OSM    H8S15081   1.585   6.478   3.884  0.4162 -1.0782  1.1245
  139OSM    H8T15082   1.655   6.639   3.922  3.6754  2.4037 -2.1434
  139OSM    C9S15083   1.776   6.463   3.991  0.3254 -0.3715 -0.1400
  139OSM    H9S15084   1.874   6.515   4.001  1.0604 -1.1682 -2.5612
  139OSM    H9T15085   1.796   6.356   3.975 -0.2931 -0.9115  2.2380
  139OSM   C10S15086   1.713   6.450   4.129 -0.3965 -0.4098 -0.0117
  139OSM   H10S15087   1.604   6.434   4.112 -0.5275 -1.2613  1.4886
  139OSM   H10T15088   1.718   6.550   4.176  0.8998 -1.5956  2.5520
  139OSM   C11S15089   1.778   6.346   4.217  0.1474  0.2508  0.7073
  139OSM   H11S15090   1.876   6.386   4.252  0.7041  0.4713 -1.0337
  139OSM   H11T15091   1.796   6.252   4.162  1.4273  0.8045  0.1493
  139OSM   C12S15092   1.702   6.317   4.348  0.3674  0.6181 -0.2252
  139OSM   H12S15093   1.593   6.299   4.336 -0.0457  1.7286  1.5472
  139OSM   H12T15094   1.710   6.414   4.402 -1.1827 -0.9967  3.2454
  139OSM   C13S15095   1.763   6.208   4.439 -0.9007  0.1424 -0.5529
  139OSM   H13S15096   1.761   6.106   4.395 -1.9209 -1.1243  2.1840
  139OSM   H13T15097   1.702   6.195   4.530  1.4815  0.6454  1.2255
  139OSM   C14S15098   1.913   6.236   4.479 -0.1091  0.1165 -0.2525
  139OSM   H14S15099   1.926   6.341   4.512 -3.4447  0.4630  0.2738
  139OSM   H14T15100   1.961   6.220   4.380 -1.7485 -0.7274 -0.9604
  139OSM   C15S15101   1.979   6.131   4.575 -0.2305  0.3786 -0.3757
  139OSM   H15S15102   1.979   6.036   4.517 -0.3786  0.5761 -0.7023
  139OSM   H15T15103   1.927   6.119   4.672 -0.5350 -0.5596 -0.6422
  139OSM   C16S15104   2.128   6.160   4.609  0.4986 -0.0780 -0.1308
  139OSM   H16S15105   2.122   6.262   4.654  3.9882 -0.5277  1.6958
  139OSM   H16T15106   2.178   6.170   4.511 -0.0808  1.4187 -0.2931
  139OSM   C17S15107   2.196   6.074   4.719 -0.3907 -0.1645  0.5525
  139OSM   H17S15108   2.148   6.078   4.820 -2.1321 -0.8120 -0.2090
  139OSM   H17T15109   2.300   6.111   4.727 -0.3593  0.4873 -2.0932
  139OSM   C18S15110   2.201   5.926   4.681  0.3813 -0.1997  1.1080
  139OSM   H18S15111   2.101   5.877   4.680 -0.1860  0.9205  1.2533
  139OSM   H18T15112   2.255   5.873   4.762  1.2329  0.1407  0.7683
  139OSM   H18U15113   2.247   5.897   4.585  0.2774  1.8006  0.4080
  139OSM    C1F15114   2.114   6.873   3.407  0.4357 -0.1731  0.0603
  139OSM     OF15115   2.109   6.996   3.411  0.2132  0.4957  0.2554
  139OSM    C2F15116   2.244   6.803   3.450  0.3087 -0.0806 -0.1133
  139OSM    H2F15117   2.334   6.863   3.424 -0.2408  0.2455 -1.2859
  139OSM    H2G15118   2.241   6.702   3.405  0.1897 -0.3692  0.5251
  139OSM    C3F15119   2.254   6.786   3.603  0.6437  0.0361 -0.1408
  139OSM    H3F15120   2.229   6.881   3.656 -1.1515 -0.3355 -0.2295
  139OSM    H3G15121   2.361   6.765   3.619 -0.2364 -2.4446  3.5722
  139OSM    C4F15122   2.183   6.673   3.675 -0.5952 -0.1269  0.3995
  139OSM    H4F15123   2.187   6.571   3.631 -0.1855 -0.4158  1.0931
  139OSM    H4G15124   2.074   6.694   3.686 -0.5470 -0.3661  1.4074
  139OSM    C5F15125   2.247   6.667   3.817 -0.2064  0.0282  0.0768
  139OSM    H5F15126   2.246   6.764   3.871  2.6068  1.7563 -2.6143
  139OSM    H5G15127   2.355   6.649   3.799 -0.0390 -0.2057  1.2813
  139OSM    C6F15128   2.193   6.556   3.915 -0.3625  0.3810  0.3468
  139OSM    H6F15129   2.225   6.458   3.872  1.4803  2.3018 -3.1133
  139OSM    H6G15130   2.083   6.565   3.910 -0.5234 -1.6092 -1.5894
  139OSM    C7F15131   2.251   6.579   4.051  0.4088  0.6542 -0.1250
  139OSM    H7F15132   2.208   6.674   4.089 -1.8500  0.0748 -1.0433
  139OSM    H7G15133   2.357   6.607   4.039  0.7905 -1.1575 -1.4335
  139OSM    C8F15134   2.232   6.461   4.155  0.2899 -0.7297 -0.2154
  139OSM    H8F15135   2.122   6.445   4.152  0.0249  0.4322  1.7601
  139OSM    H8G15136   2.261   6.501   4.254  0.5105 -3.7966  1.0833
  139OSM    C9F15137   2.298   6.333   4.118  0.5295 -0.9481  0.2488
  139OSM    H9F15138   2.273   6.295   4.018 -0.7804  0.5297 -0.0143
  139OSM   C10F15139   2.366   6.251   4.195  0.3727  0.4959  0.8613
  139OSM   H10F15140   2.390   6.153   4.152  0.7222  0.7947  0.3567
  139OSM   C11F15141   2.418   6.283   4.328 -0.6155  0.0532 -0.3961
  139OSM   H11F15142   2.325   6.300   4.386 -0.0263 -1.2609  0.9735
  139OSM   H11G15143   2.492   6.366   4.322 -0.6144  0.3037  2.1085
  139OSM   C12F15144   2.498   6.182   4.409  0.7063 -0.3198 -0.1946
  139OSM   H12F15145   2.581   6.132   4.354  1.4502 -0.6449  1.1781
  139OSM   H12G15146   2.428   6.099   4.432  0.4080 -0.0166 -0.0058
  139OSM   C13F15147   2.560   6.242   4.527 -0.8388  0.2034 -0.4206
  139OSM   H13F15148   2.482   6.267   4.602  0.0168  0.8869  0.2540
  139OSM   H13G15149   2.622   6.329   4.497 -0.3322 -0.6456 -1.9743
  139OSM   C14F15150   2.655   6.153   4.609 -0.4563 -0.3488  0.1425
  139OSM   H14F15151   2.749   6.149   4.549 -1.9446 -0.5953 -2.3048
  139OSM   H14G15152   2.603   6.056   4.594 -2.2900  0.9359 -2.9361
  139OSM   C15F15153   2.668   6.205   4.750 -0.1907  0.8688 -0.1621
  139OSM   H15F15154   2.573   6.208   4.808  0.6417 -1.0636  1.4158
  139OSM   H15G15155   2.727   6.299   4.754  0.2038  0.6716 -1.1539
  139OSM   C16F15156   2.750   6.112   4.847 -0.2416 -0.1484  0.0164
  139OSM   H16F15157   2.843   6.102   4.788  0.2387  1.1273  0.5127
  139OSM   H16G15158   2.702   6.012   4.848 -2.1715  0.7166  0.9675
  139OSM   C17F15159   2.790   6.175   4.977  0.1210  0.0310 -1.0457
  139OSM   H17F15160   2.835   6.274   4.952 -0.8875  1.1191  1.1651
  139OSM   H17G15161   2.871   6.119   5.029 -0.3888 -0.1352 -0.4316
  139OSM   C18F15162   2.679   6.205   5.076  0.4622  0.4956  0.0180
  139OSM   H18F15163   2.640   6.110   5.119  1.4189  0.5133  0.9654
  139OSM   H18G15164   2.597   6.265   5.032 -1.1674 -0.8620  1.0741
  139OSM   H18H15165   2.728   6.262   5.158  2.2884 -0.5502 -0.2813
  140OSM      N15166   6.082   3.818   2.603 -0.8644 -0.3991 -0.2015
  140OSM    C1515167   6.088   3.895   2.735  0.2975  0.9029 -0.3229
  140OSM   H15A15168   6.037   3.991   2.733 -0.2190  0.6457 -2.2783
  140OSM   H15B15169   6.189   3.920   2.762  0.8487  0.8306 -2.1841
  140OSM   H15C15170   6.046   3.840   2.818  0.2857  3.8171  1.7566
  140OSM    C1415171   6.157   3.895   2.499 -0.0241  0.5046 -0.1089
  140OSM   H14A15172   6.257   3.922   2.530 -0.0580 -1.3128  1.7848
  140OSM   H14B15173   6.113   3.989   2.469  0.5766  1.0710  0.7455
  140OSM   H14C15174   6.167   3.840   2.407 -0.2796 -0.2520  0.3135
  140OSM    C1315175   6.170   3.693   2.621  0.1532 -0.1824  0.1081
  140OSM   H13A15176   6.182   3.648   2.523 -0.9475  2.4107 -1.3170
  140OSM   H13B15177   6.106   3.622   2.672 -0.3082  0.0464 -0.1455
  140OSM   H13C15178   6.265   3.709   2.670  1.1818 -1.9318 -1.1584
  140OSM    C1215179   5.940   3.785   2.569  0.2410  1.0773 -0.8093
  140OSM   H12A15180   5.933   3.708   2.493 -3.5794 -0.9984  1.3446
  140OSM   H12B15181   5.883   3.866   2.527 -1.7176  0.2674  0.1952
  140OSM    C1115182   5.862   3.724   2.687 -0.5000 -0.1983 -0.0557
  140OSM   H11A15183   5.857   3.783   2.780 -1.6121 -4.0411  2.5910
  140OSM   H11B15184   5.906   3.624   2.710  1.3233  0.2006 -1.5891
  140OSM      P15185   5.611   3.650   2.703  0.5793 -0.1878 -0.3950
  140OSM    O1315186   5.493   3.671   2.621  0.0011 -0.1496  0.5737
  140OSM    O1415187   5.637   3.504   2.727 -0.3845  0.3815  0.5632
  140OSM    O1115188   5.594   3.717   2.840  0.1073 -0.4683  0.9552
  140OSM    O1215189   5.734   3.714   2.630 -0.0070  0.4514 -0.0971
  140OSM    C1S15190   5.616   3.644   2.964  0.1304 -0.4363  0.0359
  140OSM    H1S15191   5.725   3.622   2.963  0.2344  0.0813 -0.5866
  140OSM    H1T15192   5.551   3.555   2.974 -2.3965  1.2867 -0.0709
  140OSM     NF15193   5.649   3.678   3.205 -0.1795 -0.0491  0.0966
  140OSM    HNF15194   5.594   3.645   3.281 -0.1947  1.0292  0.5644
  140OSM    C2S15195   5.583   3.732   3.088 -0.1243  0.4060  0.2880
  140OSM    H2S15196   5.629   3.828   3.057 -1.2397  0.6283 -0.7847
  140OSM    C3S15197   5.428   3.755   3.096 -0.1442  0.0108 -0.1775
  140OSM    H3S15198   5.367   3.667   3.126  1.4841 -0.5199  1.7422
  140OSM     O315199   5.371   3.802   2.977 -1.2471 -0.1206  0.1769
  140OSM    HO315200   5.437   3.796   2.908 -1.2044  0.6243  0.1444
  140OSM    C4S15201   5.406   3.856   3.214 -0.6908 -0.0570 -0.1148
  140OSM    H4S15202   5.424   3.957   3.176  0.3307  0.0652  0.6659
  140OSM    C5S15203   5.353   3.836   3.340  0.6228  0.0536  0.7960
  140OSM    H5S15204   5.310   3.741   3.375  0.9224  0.4851  2.4148
  140OSM    C6S15205   5.326   3.940   3.448  0.0612  0.4751 -0.6298
  140OSM    H6S15206   5.223   3.916   3.482  0.9659 -1.4675  0.9344
  140OSM    H6T15207   5.324   4.045   3.412  1.4339  0.0191 -2.1554
  140OSM    C7S15208   5.427   3.937   3.559 -0.0659 -0.3106 -0.2529
  140OSM    H7S15209   5.529   3.963   3.523 -0.3944 -2.1008 -2.7591
  140OSM    H7T15210   5.446   3.833   3.593 -1.9092 -2.0162 -3.8817
  140OSM    C8S15211   5.384   4.019   3.684 -0.6573  0.0180 -0.1884
  140OSM    H8S15212   5.369   4.123   3.649 -0.1284  0.3255  0.4561
  140OSM    H8T15213   5.471   4.011   3.753 -1.6806 -2.8094  0.9475
  140OSM    C9S15214   5.262   3.978   3.766  0.0163 -0.6245  0.2549
  140OSM    H9S15215   5.174   3.995   3.701  0.3883  2.0237  0.3353
  140OSM    H9T15216   5.248   4.046   3.852 -3.8719  0.0962 -0.7373
  140OSM   C10S15217   5.259   3.826   3.804  0.0219  0.1216  0.2736
  140OSM   H10S15218   5.358   3.791   3.837  0.6200  1.8371  0.3952
  140OSM   H10T15219   5.230   3.779   3.707 -1.4205  0.2856  0.5958
  140OSM   C11S15220   5.176   3.805   3.927 -0.5321  0.0192 -0.7501
  140OSM   H11S15221   5.165   3.696   3.943 -1.7682 -0.0944 -2.1499
  140OSM   H11T15222   5.078   3.855   3.910 -1.1016 -0.6165  0.5366
  140OSM   C12S15223   5.252   3.864   4.051  0.0129 -1.0082  0.3476
  140OSM   H12S15224   5.288   3.968   4.037 -3.0472  0.0397 -0.4149
  140OSM   H12T15225   5.341   3.798   4.063  1.4970  0.6468 -1.0510
  140OSM   C13S15226   5.173   3.853   4.184 -0.6729 -0.2973 -0.2025
  140OSM   H13S15227   5.180   3.745   4.211 -0.3384 -0.9062 -2.5222
  140OSM   H13T15228   5.068   3.871   4.155 -0.8638 -1.9234 -0.6281
  140OSM   C14S15229   5.226   3.946   4.298  0.1887  0.5407 -0.4619
  140OSM   H14S15230   5.221   4.052   4.264 -0.0801  0.7643  0.2701
  140OSM   H14T15231   5.336   3.941   4.311  0.2199  0.9903 -0.5348
  140OSM   C15S15232   5.160   3.942   4.433 -0.0284 -0.2935 -0.0265
  140OSM   H15S15233   5.199   3.853   4.487  0.0651 -0.6773 -0.7195
  140OSM   H15T15234   5.052   3.915   4.439  0.2029 -1.3769 -0.4579
  140OSM   C16S15235   5.182   4.070   4.518  0.3354  0.0599 -0.4272
  140OSM   H16S15236   5.119   4.152   4.478 -1.6141 -0.2269  1.8597
  140OSM   H16T15237   5.291   4.092   4.518 -0.2901  3.6708 -0.1634
  140OSM   C17S15238   5.135   4.047   4.655  0.9314 -0.6481 -0.6619
  140OSM   H17S15239   5.204   3.978   4.708  2.3517  1.6605  0.6354
  140OSM   H17T15240   5.033   4.003   4.660 -0.0013  1.5258  1.8079
  140OSM   C18S15241   5.125   4.171   4.743 -0.7806  0.9951  0.8148
  140OSM   H18S15242   5.045   4.165   4.820  0.0997  1.6792  1.8137
  140OSM   H18T15243   5.110   4.262   4.681 -0.0660  0.7163  0.2201
  140OSM   H18U15244   5.226   4.183   4.787  0.5374  1.0252 -1.9867
  140OSM    C1F15245   5.781   3.681   3.223  0.4302  0.8939  0.2642
  140OSM     OF15246   5.859   3.709   3.135 -0.2512 -0.8788  0.1067
  140OSM    C2F15247   5.834   3.647   3.359 -0.0811  0.1617  0.2470
  140OSM    H2F15248   5.936   3.607   3.341 -0.4948 -0.2660 -1.3523
  140OSM    H2G15249   5.778   3.567   3.414  0.7353 -0.0784  0.7471
  140OSM    C3F15250   5.835   3.770   3.445  0.6246 -0.3770 -0.6387
  140OSM    H3F15251   5.732   3.806   3.464  0.4892 -0.5399 -1.0375
  140OSM    H3G15252   5.881   3.860   3.399 -0.5057 -0.1104 -1.3026
  140OSM    C4F15253   5.899   3.746   3.577 -0.4639 -0.1700 -0.6482
  140OSM    H4F15254   5.996   3.694   3.562  0.3500  0.8743  0.6913
  140OSM    H4G15255   5.839   3.674   3.636  0.7376 -2.1329 -1.7110
  140OSM    C5F15256   5.912   3.886   3.648  0.4704  0.8871  0.5313
  140OSM    H5F15257   5.814   3.925   3.682  1.2447  2.6631  0.8408
  140OSM    H5G15258   5.964   3.955   3.578  2.3579 -0.5668  0.4135
  140OSM    C6F15259   6.000   3.874   3.773 -0.1675 -0.6868 -0.3391
  140OSM    H6F15260   6.108   3.872   3.746 -0.5164  0.8608 -2.1252
  140OSM    H6G15261   5.975   3.774   3.814  1.8030 -0.5285  1.4014
  140OSM    C7F15262   5.980   3.983   3.880 -0.0235  0.0391 -0.1889
  140OSM    H7F15263   5.874   4.016   3.880 -0.0657 -0.0581 -1.1259
  140OSM    H7G15264   6.045   4.069   3.853 -0.0999 -0.4805 -2.2276
  140OSM    C8F15265   6.032   3.940   4.024 -0.0025  0.0526 -0.6861
  140OSM    H8F15266   6.037   4.035   4.082  2.4328  1.0743 -2.4065
  140OSM    H8G15267   6.138   3.910   4.017  0.6626  1.5504  1.7026
  140OSM    C9F15268   5.937   3.846   4.091 -0.6961  0.3071  0.7397
  140OSM    H9F15269   5.836   3.839   4.046 -0.8985 -0.5647  1.3147
  140OSM   C10F15270   5.972   3.752   4.179 -0.2312  0.3121 -0.2237
  140OSM   H10F15271   5.899   3.680   4.218  0.5871 -0.8393 -0.7944
  140OSM   C11F15272   6.097   3.720   4.247 -0.4214 -0.1814 -0.0256
  140OSM   H11F15273   6.181   3.771   4.195  0.3281 -0.6329  0.7090
  140OSM   H11G15274   6.119   3.611   4.245  1.7338  0.2016 -1.4253
  140OSM   C12F15275   6.107   3.770   4.390 -1.0193  0.4849 -0.2093
  140OSM   H12F15276   6.094   3.880   4.392  0.6298  0.7227  1.9716
  140OSM   H12G15277   6.215   3.751   4.412 -0.8485  0.8880 -0.6961
  140OSM   C13F15278   6.027   3.686   4.490  0.1749  0.4569 -0.4232
  140OSM   H13F15279   6.053   3.580   4.469 -0.0420  0.2586  0.2735
  140OSM   H13G15280   5.917   3.701   4.490 -0.0230 -0.7335  1.1167
  140OSM   C14F15281   6.074   3.711   4.636 -0.0332  0.3697 -0.1121
  140OSM   H14F15282   6.048   3.813   4.672 -3.9208 -0.0685 -1.2254
  140OSM   H14G15283   6.185   3.708   4.639  0.1818  3.9667  0.5230
  140OSM   C15F15284   6.037   3.605   4.739  0.4537  0.3911 -0.1672
  140OSM   H15F15285   6.100   3.611   4.830 -0.9863 -0.0637  0.9059
  140OSM   H15G15286   6.058   3.501   4.705 -3.3628 -0.7357  0.3934
  140OSM   C16F15287   5.895   3.621   4.788  0.0905  0.5621  0.1324
  140OSM   H16F15288   5.822   3.603   4.707  0.3928  1.0276 -0.2523
  140OSM   H16G15289   5.867   3.723   4.822 -1.4611  0.0585  0.4027
  140OSM   C17F15290   5.854   3.530   4.899 -0.1128  0.3236  1.0933
  140OSM   H17F15291   5.935   3.538   4.974  0.6189 -3.0506  0.7925
  140OSM   H17G15292   5.852   3.423   4.871  0.5142 -0.1464  2.7173
  140OSM   C18F15293   5.716   3.554   4.958  1.1386 -0.6255  0.6674
  140OSM   H18F15294   5.704   3.661   4.982  1.3224  0.2758 -2.7685
  140OSM   H18G15295   5.699   3.497   5.052 -0.6134  0.0030  0.7579
  140OSM   H18H15296   5.639   3.525   4.884 -0.5619 -0.0057  2.1312
  141OSM      N15297   0.996   1.730   2.975 -0.1550 -0.7565  0.4461
  141OSM    C1515298   0.928   1.793   3.098 -0.7964 -0.3250 -0.6532
  141OSM   H15A15299   0.825   1.762   3.096 -1.1275  0.6464  0.1094
  141OSM   H15B15300   0.925   1.901   3.092 -0.4966 -0.2507  0.3155
  141OSM   H15C15301   0.975   1.761   3.191 -0.3832  1.1974 -0.3081
  141OSM    C1415302   0.998   1.584   2.995  0.4424  0.2111 -0.0236
  141OSM   H14A15303   0.898   1.547   3.013  0.2556  0.0867 -1.2927
  141OSM   H14B15304   1.052   1.554   3.084  1.1499 -1.0251 -0.8459
  141OSM   H14C15305   1.042   1.534   2.910 -0.7374 -0.1382 -0.4486
  141OSM    C1315306   0.912   1.759   2.857 -0.8523  1.1865 -0.7407
  141OSM   H13A15307   0.934   1.696   2.773  1.5152 -2.0333  2.0488
  141OSM   H13B15308   0.918   1.864   2.829 -1.4763  1.3499 -0.2718
  141OSM   H13C15309   0.808   1.744   2.880 -0.7959 -0.7892 -1.6353
  141OSM    C1215310   1.131   1.788   2.958 -0.7460  0.2800  0.1935
  141OSM   H12A15311   1.191   1.752   3.040 -1.2835 -1.1895 -0.0295
  141OSM   H12B15312   1.133   1.895   2.972 -0.8231  0.0967  1.8691
  141OSM    C1115313   1.203   1.763   2.818 -0.3238 -0.4696  0.2408
  141OSM   H11A15314   1.306   1.805   2.821  0.3666 -1.7656 -2.6786
  141OSM   H11B15315   1.156   1.825   2.739  1.0609 -1.3313 -1.3120
  141OSM      P15316   1.311   1.520   2.805 -0.3976 -0.1483  0.2794
  141OSM    O1315317   1.230   1.392   2.806  0.1205 -0.3462 -0.2346
  141OSM    O1415318   1.426   1.534   2.710 -0.1786  0.0935 -0.1419
  141OSM    O1115319   1.359   1.559   2.952  0.6535  0.2347 -0.3155
  141OSM    O1215320   1.197   1.625   2.778  0.0898 -0.9817 -0.0160
  141OSM    C1S15321   1.491   1.557   2.995  0.6507 -0.1143  0.5189
  141OSM    H1S15322   1.556   1.642   2.963  1.6448 -1.0540 -0.0357
  141OSM    H1T15323   1.543   1.464   2.964 -0.3033  0.1372 -2.0807
  141OSM     NF15324   1.638   1.571   3.186  0.1011  0.0614  0.0178
  141OSM    HNF15325   1.686   1.486   3.206  1.1463  0.3870 -1.0386
  141OSM    C2S15326   1.503   1.563   3.147  0.1631 -0.0880 -0.5327
  141OSM    H2S15327   1.450   1.654   3.181 -0.3752 -0.5041 -0.2418
  141OSM    C3S15328   1.418   1.453   3.222 -0.4377  0.2963 -0.5300
  141OSM    H3S15329   1.457   1.349   3.212 -0.0867  0.2819  0.8131
  141OSM     O315330   1.272   1.458   3.191 -0.7048  0.5076 -0.5834
  141OSM    HO315331   1.284   1.511   3.112  2.0237  2.1013  0.7341
  141OSM    C4S15332   1.417   1.485   3.373  0.4675 -0.6674  0.5097
  141OSM    H4S15333   1.400   1.590   3.402 -3.7358  0.5671 -4.7819
  141OSM    C5S15334   1.446   1.400   3.471 -0.0215  0.7012  0.1851
  141OSM    H5S15335   1.475   1.296   3.454 -1.9904 -0.0264  1.0525
  141OSM    C6S15336   1.438   1.421   3.622  0.3405 -0.2380  0.3745
  141OSM    H6S15337   1.432   1.529   3.650  2.9883  0.2526 -0.6400
  141OSM    H6T15338   1.526   1.383   3.677 -0.6111 -0.8709  1.5171
  141OSM    C7S15339   1.321   1.327   3.669 -0.2718 -0.4469  0.1248
  141OSM    H7S15340   1.361   1.230   3.704 -1.5867 -0.3972  1.8759
  141OSM    H7T15341   1.245   1.296   3.595  1.3540 -0.5676 -1.5843
  141OSM    C8S15342   1.260   1.387   3.792  0.2521 -0.5092 -0.0922
  141OSM    H8S15343   1.161   1.342   3.816  0.9659 -1.1078  1.9457
  141OSM    H8T15344   1.247   1.497   3.788 -1.6392 -0.6829  0.4224
  141OSM    C9S15345   1.336   1.348   3.918 -0.4039  0.4029 -0.0605
  141OSM    H9S15346   1.434   1.399   3.904  0.4171 -1.3606 -1.0683
  141OSM    H9T15347   1.350   1.238   3.919 -2.1034  0.1367 -1.0633
  141OSM   C10S15348   1.261   1.391   4.043 -0.4612 -0.0938 -0.1265
  141OSM   H10S15349   1.151   1.377   4.036 -0.6478  1.0883  0.2397
  141OSM   H10T15350   1.272   1.501   4.048  1.6791 -0.2960  0.2119
  141OSM   C11S15351   1.319   1.343   4.176  0.3724  0.1820 -0.4718
  141OSM   H11S15352   1.427   1.369   4.177 -0.1665  2.7594  0.6710
  141OSM   H11T15353   1.307   1.234   4.189  1.2406  0.0680 -0.6100
  141OSM   C12S15354   1.257   1.431   4.291 -0.6023  0.0890  0.6621
  141OSM   H12S15355   1.149   1.452   4.286 -0.1418  2.7378  0.7397
  141OSM   H12T15356   1.314   1.522   4.263  2.5589 -2.3518 -1.6467
  141OSM   C13S15357   1.307   1.389   4.434 -0.3294  0.6517  0.0372
  141OSM   H13S15358   1.291   1.471   4.507  0.4270 -1.6087  2.9368
  141OSM   H13T15359   1.412   1.353   4.436 -0.9230 -1.2287  0.2053
  141OSM   C14S15360   1.224   1.263   4.485  0.1869  0.2565  0.3425
  141OSM   H14S15361   1.282   1.172   4.459 -0.7425 -0.5743  1.0929
  141OSM   H14T15362   1.129   1.264   4.426  0.8147 -0.6697 -0.7465
  141OSM   C15S15363   1.205   1.268   4.634  0.2410  0.6159 -0.2284
  141OSM   H15S15364   1.153   1.176   4.667 -1.1472  1.2594 -0.5521
  141OSM   H15T15365   1.155   1.362   4.666  0.1250  0.5877 -0.3267
  141OSM   C16S15366   1.342   1.260   4.704  0.0075 -0.4265 -0.7363
  141OSM   H16S15367   1.387   1.359   4.684 -1.7353  0.3870 -0.8620
  141OSM   H16T15368   1.396   1.167   4.678 -0.3202 -0.6751 -0.5373
  141OSM   C17S15369   1.339   1.260   4.857 -0.1759  1.2487 -0.3092
  141OSM   H17S15370   1.444   1.274   4.891 -0.6808  0.3609  1.7388
  141OSM   H17T15371   1.306   1.160   4.891  0.5866  0.4612 -1.8179
  141OSM   C18S15372   1.264   1.368   4.931  0.2863 -0.0627 -0.6121
  141OSM   H18S15373   1.284   1.470   4.891 -0.8083 -0.2332 -1.6511
  141OSM   H18T15374   1.283   1.375   5.040  0.1309  2.9676 -0.6835
  141OSM   H18U15375   1.160   1.339   4.907 -0.0442  0.0078  0.6547
  141OSM    C1F15376   1.727   1.671   3.165  0.4735 -0.7512 -0.6152
  141OSM     OF15377   1.706   1.790   3.120  0.6091  0.8224 -0.5442
  141OSM    C2F15378   1.871   1.624   3.188 -0.5017 -0.3769 -0.5047
  141OSM    H2F15379   1.896   1.548   3.111  0.6878 -1.0481  0.4889
  141OSM    H2G15380   1.857   1.564   3.281  0.4815 -0.0702 -0.1462
  141OSM    C3F15381   1.979   1.733   3.189  0.3223  0.1745 -0.6370
  141OSM    H3F15382   1.955   1.807   3.269 -1.8274 -2.1399  1.0104
  141OSM    H3G15383   1.970   1.799   3.100 -3.5208  2.2613  1.0144
  141OSM    C4F15384   2.120   1.671   3.199  0.2233  0.2987  0.3434
  141OSM    H4F15385   2.198   1.747   3.175  1.0205 -0.7363 -0.5037
  141OSM    H4G15386   2.136   1.598   3.116 -2.1880 -2.6321  2.2547
  141OSM    C5F15387   2.159   1.592   3.334 -0.9927  0.1444  0.4472
  141OSM    H5F15388   2.264   1.556   3.337 -1.7861 -2.3238  0.8498
  141OSM    H5G15389   2.094   1.503   3.340 -0.9305  0.0177 -0.6446
  141OSM    C6F15390   2.130   1.678   3.461 -1.4275 -0.0085  0.3501
  141OSM    H6F15391   2.020   1.678   3.479 -1.1051 -0.5225  2.5068
  141OSM    H6G15392   2.164   1.782   3.440  2.0969 -1.3357 -1.2815
  141OSM    C7F15393   2.201   1.622   3.592 -0.6158 -0.5039  0.3879
  141OSM    H7F15394   2.311   1.632   3.589 -0.3319 -1.2654  3.7564
  141OSM    H7G15395   2.175   1.514   3.597 -1.4503 -0.3447 -0.2444
  141OSM    C8F15396   2.151   1.702   3.714 -0.5655  0.8351 -0.1541
  141OSM    H8F15397   2.170   1.650   3.810  0.7001 -0.6841 -1.1821
  141OSM    H8G15398   2.040   1.711   3.715 -0.8510 -2.0035  0.4134
  141OSM    C9F15399   2.232   1.827   3.706  0.1566  0.0584  0.0969
  141OSM    H9F15400   2.199   1.897   3.629  2.6004 -0.0153 -1.0871
  141OSM   C10F15401   2.320   1.873   3.794  0.1065  0.6697 -0.2333
  141OSM   H10F15402   2.361   1.973   3.770 -0.2378  0.5529 -1.3672
  141OSM   C11F15403   2.379   1.805   3.911 -0.0031  0.3424  0.2001
  141OSM   H11F15404   2.475   1.858   3.925  0.2210  1.1401 -3.4643
  141OSM   H11G15405   2.408   1.702   3.881 -1.2552 -0.1394  0.5659
  141OSM   C12F15406   2.286   1.805   4.033  0.2432  0.5385  0.1531
  141OSM   H12F15407   2.205   1.731   4.016  1.1242 -0.5261  0.4477
  141OSM   H12G15408   2.238   1.902   4.056  0.0778  0.7466 -1.0197
  141OSM   C13F15409   2.349   1.731   4.160  0.2030 -0.0689 -0.2214
  141OSM   H13F15410   2.450   1.774   4.183  0.0556 -0.1994  0.6963
  141OSM   H13G15411   2.364   1.623   4.143 -0.4190 -0.0845 -0.6899
  141OSM   C14F15412   2.257   1.743   4.282  0.2293  0.7028  0.6924
  141OSM   H14F15413   2.168   1.678   4.268  2.0349 -2.3033  2.2852
  141OSM   H14G15414   2.238   1.852   4.282  2.3106  1.1526 -1.6375
  141OSM   C15F15415   2.332   1.703   4.402 -0.3997 -0.0507 -0.5998
  141OSM   H15F15416   2.416   1.774   4.412 -0.7499  0.2953 -0.0599
  141OSM   H15G15417   2.374   1.602   4.381 -2.2230 -0.5763 -2.0523
  141OSM   C16F15418   2.248   1.717   4.530  0.0972 -0.5451  0.2697
  141OSM   H16F15419   2.291   1.661   4.616 -0.7878 -0.5609  0.7093
  141OSM   H16G15420   2.143   1.688   4.510 -0.0724 -1.0114  1.7375
  141OSM   C17F15421   2.253   1.858   4.593  0.7845  0.2303 -0.4473
  141OSM   H17F15422   2.206   1.928   4.521 -1.6245  2.2370  2.8045
  141OSM   H17G15423   2.357   1.891   4.612  0.1458  1.4108  1.2404
  141OSM   C18F15424   2.169   1.871   4.719 -0.1037  0.0083  0.2235
  141OSM   H18F15425   2.062   1.861   4.691 -0.1236  0.4623  0.1308
  141OSM   H18G15426   2.177   1.973   4.762 -0.0078  0.5821 -1.0859
  141OSM   H18H15427   2.188   1.803   4.804 -1.1692  1.1588  1.4124
  142OSM      N15428   2.567   4.268   3.126  0.2513 -0.4036  0.3067
  142OSM    C1515429   2.432   4.257   3.181 -0.2509  0.1153  0.3866
  142OSM   H15A15430   2.406   4.152   3.188  3.1244 -0.9309 -0.9327
  142OSM   H15B15431   2.376   4.313   3.107  0.2178 -0.1693 -0.1895
  142OSM   H15C15432   2.416   4.297   3.280  0.0210 -0.7858  0.8044
  142OSM    C1415433   2.663   4.231   3.233 -0.4969  0.0430 -0.4901
  142OSM   H14A15434   2.627   4.275   3.325 -0.3723 -2.1727  0.7022
  142OSM   H14B15435   2.765   4.262   3.217 -0.4602  1.0382  1.4494
  142OSM   H14C15436   2.670   4.123   3.232 -1.1871 -0.0750  1.7045
  142OSM    C1315437   2.576   4.161   3.017 -0.5987 -0.4465 -0.5480
  142OSM   H13A15438   2.494   4.171   2.947 -2.4857  2.1458  1.8242
  142OSM   H13B15439   2.561   4.066   3.066 -0.0846 -0.7855 -1.0276
  142OSM   H13C15440   2.673   4.168   2.971  0.3174 -0.5968  1.2737
  142OSM    C1215441   2.591   4.409   3.083 -0.0067  0.3865 -0.2198
  142OSM   H12A15442   2.697   4.428   3.087 -0.0296  0.4640  0.0270
  142OSM   H12B15443   2.551   4.456   3.171  1.6332  0.4256  0.5369
  142OSM    C1115444   2.530   4.447   2.952  0.7125  0.1482  0.6139
  142OSM   H11A15445   2.580   4.388   2.872 -4.6970 -1.6960 -1.8876
  142OSM   H11B15446   2.545   4.556   2.935 -2.3582  0.3827 -1.3628
  142OSM      P15447   2.274   4.519   2.955 -0.1262 -0.1405  0.2023
  142OSM    O1315448   2.322   4.660   2.939  0.5239  0.2449 -0.3102
  142OSM    O1415449   2.164   4.470   2.863  0.0963  0.9478 -0.4412
  142OSM    O1115450   2.231   4.507   3.102 -0.7547 -0.1661 -0.4189
  142OSM    O1215451   2.392   4.414   2.944  0.1591  0.1629  0.2853
  142OSM    C1S15452   2.101   4.503   3.142  0.0682  1.2034 -0.4597
  142OSM    H1S15453   2.058   4.401   3.139 -0.9654  1.6460 -0.9375
  142OSM    H1T15454   2.039   4.575   3.086 -0.4858  0.2055 -1.1558
  142OSM     NF15455   1.978   4.523   3.358  0.5651  0.2086  0.2383
  142OSM    HNF15456   1.954   4.601   3.416 -3.0922 -0.5024 -0.0677
  142OSM    C2S15457   2.109   4.539   3.297 -0.4770  0.5816  0.4434
  142OSM    H2S15458   2.180   4.460   3.329 -0.1152  0.6060 -0.2852
  142OSM    C3S15459   2.189   4.669   3.340 -0.3323 -0.4185 -0.1680
  142OSM    H3S15460   2.139   4.767   3.323  1.2304  0.5737  0.6264
  142OSM     O315461   2.317   4.697   3.275 -0.1464 -0.1284 -0.2354
  142OSM    HO315462   2.306   4.645   3.195  0.3362 -0.1133 -0.3140
  142OSM    C4S15463   2.205   4.649   3.489 -0.3646 -0.6721  0.1662
  142OSM    H4S15464   2.129   4.708   3.542 -0.3721  0.2736 -0.8732
  142OSM    C5S15465   2.292   4.580   3.561  0.2681 -0.4039 -0.1882
  142OSM    H5S15466   2.347   4.502   3.506 -0.4696 -0.6337 -0.6192
  142OSM    C6S15467   2.303   4.585   3.710  0.5294 -0.0284  0.5430
  142OSM    H6S15468   2.203   4.556   3.747 -0.3290  2.3036  0.2152
  142OSM    H6T15469   2.314   4.689   3.748 -0.8521  0.7596 -1.0626
  142OSM    C7S15470   2.410   4.489   3.768 -0.4605  0.2212 -0.0760
  142OSM    H7S15471   2.508   4.513   3.721 -0.4100 -2.3864 -1.5171
  142OSM    H7T15472   2.382   4.382   3.755 -0.4010 -0.1110  2.0451
  142OSM    C8S15473   2.433   4.502   3.921 -0.1480  0.3402 -0.4056
  142OSM    H8S15474   2.356   4.434   3.965  0.2364 -0.6361 -1.2061
  142OSM    H8T15475   2.417   4.607   3.953  2.4589  1.8911 -3.5593
  142OSM    C9S15476   2.578   4.461   3.956 -0.1616 -0.0962  0.2452
  142OSM    H9S15477   2.635   4.528   3.888 -1.1997  0.5039 -0.0350
  142OSM    H9T15478   2.601   4.355   3.928 -0.0554  0.1762 -0.7304
  142OSM   C10S15479   2.616   4.500   4.100  0.2530 -0.7407 -0.0824
  142OSM   H10S15480   2.555   4.430   4.160  0.2598  0.5053  1.4398
  142OSM   H10T15481   2.580   4.605   4.112 -1.7399 -1.4262  0.3029
  142OSM   C11S15482   2.761   4.477   4.129 -0.9616 -0.3618 -0.0391
  142OSM   H11S15483   2.820   4.536   4.055  2.3777 -0.8298  2.0209
  142OSM   H11T15484   2.791   4.371   4.111 -2.6646 -0.7648 -0.7337
  142OSM   C12S15485   2.799   4.519   4.270  0.9842  0.0035 -0.4478
  142OSM   H12S15486   2.705   4.557   4.316  0.3325 -1.4565 -0.4956
  142OSM   H12T15487   2.870   4.604   4.266 -0.3953  1.1640 -1.8648
  142OSM   C13S15488   2.837   4.395   4.352  0.1788  0.1123 -1.5797
  142OSM   H13S15489   2.937   4.354   4.327 -0.2995 -1.5303 -0.9529
  142OSM   H13T15490   2.770   4.307   4.345  1.1197 -0.8504  0.6254
  142OSM   C14S15491   2.823   4.415   4.507 -0.3853  0.1128  0.1690
  142OSM   H14S15492   2.732   4.478   4.518 -0.3231  0.8080 -2.4717
  142OSM   H14T15493   2.915   4.461   4.546  1.4693 -1.4429 -2.0770
  142OSM   C15S15494   2.804   4.274   4.584 -0.6979 -0.3443  0.1575
  142OSM   H15S15495   2.908   4.236   4.594  0.2517  2.0745  0.1657
  142OSM   H15T15496   2.737   4.208   4.525 -1.0758 -0.9551  1.2434
  142OSM   C16S15497   2.751   4.316   4.721  0.2211  0.4856 -0.2314
  142OSM   H16S15498   2.665   4.383   4.704  1.0539  0.9313 -3.3208
  142OSM   H16T15499   2.828   4.373   4.777  0.2697 -0.8904  1.1797
  142OSM   C17S15500   2.697   4.188   4.794 -0.0442  0.1661  0.3006
  142OSM   H17S15501   2.768   4.102   4.797 -0.2111  0.0503  1.6391
  142OSM   H17T15502   2.601   4.144   4.761 -0.8993 -0.5548  3.3974
  142OSM   C18S15503   2.677   4.224   4.941  0.6565 -0.4268 -0.4725
  142OSM   H18S15504   2.601   4.304   4.956  1.2841  0.3115 -1.1646
  142OSM   H18T15505   2.775   4.246   4.988  0.1459  0.7780  0.0856
  142OSM   H18U15506   2.657   4.139   5.010  0.6808  1.3816  1.8921
  142OSM    C1F15507   1.895   4.416   3.367 -0.5009 -0.0347 -0.7413
  142OSM     OF15508   1.930   4.304   3.334 -0.2803 -0.0291  0.5150
  142OSM    C2F15509   1.758   4.437   3.421 -0.0370 -0.0763  0.8352
  142OSM    H2F15510   1.694   4.398   3.338  2.2296 -1.7430 -0.2126
  142OSM    H2G15511   1.743   4.547   3.412  0.0465 -0.2192 -2.8282
  142OSM    C3F15512   1.700   4.373   3.557  0.1984 -0.3394 -0.4659
  142OSM    H3F15513   1.687   4.265   3.538 -1.5298 -0.1390 -0.5583
  142OSM    H3G15514   1.603   4.421   3.584  1.7227  3.2023 -0.6584
  142OSM    C4F15515   1.813   4.380   3.667 -0.0995  0.4972  0.5656
  142OSM    H4F15516   1.841   4.486   3.681 -0.0376  0.6939 -0.9185
  142OSM    H4G15517   1.902   4.322   3.633  0.9493  2.3916 -0.0306
  142OSM    C5F15518   1.778   4.312   3.793  0.2090 -0.3093  0.6533
  142OSM    H5F15519   1.737   4.214   3.764 -1.6778  0.8414 -0.8140
  142OSM    H5G15520   1.691   4.361   3.842  0.5989 -0.0525  1.0927
  142OSM    C6F15521   1.900   4.295   3.888  0.3062 -0.4919 -0.3616
  142OSM    H6F15522   1.914   4.392   3.941  2.6319 -0.7575 -0.3797
  142OSM    H6G15523   1.990   4.272   3.828  0.9215 -4.3736  1.7207
  142OSM    C7F15524   1.879   4.177   3.986 -0.2420 -0.1940 -0.8148
  142OSM    H7F15525   1.867   4.077   3.939  0.0607 -0.2410 -0.7951
  142OSM    H7G15526   1.779   4.189   4.034  0.9225 -0.2354  1.8231
  142OSM    C8F15527   1.984   4.163   4.095 -0.1162 -0.1176 -0.2885
  142OSM    H8F15528   1.989   4.245   4.170  2.0690  0.5107 -1.0546
  142OSM    H8G15529   2.078   4.191   4.044  0.1399 -0.0688  0.1995
  142OSM    C9F15530   1.982   4.023   4.157 -0.5341  0.4721  0.1251
  142OSM    H9F15531   2.025   3.950   4.088 -0.1087  2.2261 -1.5396
  142OSM   C10F15532   1.949   4.003   4.282 -0.5805 -0.4815 -0.5817
  142OSM   H10F15533   1.936   3.903   4.327 -1.2592 -0.2670 -0.2926
  142OSM   C11F15534   1.897   4.102   4.378  0.0277 -0.6535 -0.5812
  142OSM   H11F15535   1.803   4.142   4.333  0.7439 -0.7567 -2.2309
  142OSM   H11G15536   1.957   4.195   4.393 -1.2165  0.2145 -0.7616
  142OSM   C12F15537   1.838   4.044   4.509 -0.2802 -0.4563 -0.3288
  142OSM   H12F15538   1.899   3.954   4.532 -0.6864 -0.6179  0.1225
  142OSM   H12G15539   1.733   4.017   4.484 -0.6629 -1.7532  2.3831
  142OSM   C13F15540   1.849   4.129   4.636  0.0049  0.4390 -0.4494
  142OSM   H13F15541   1.827   4.232   4.600 -0.9137 -0.1208 -1.5527
  142OSM   H13G15542   1.952   4.134   4.678 -1.0287 -1.8529  2.7202
  142OSM   C14F15543   1.759   4.080   4.750 -0.0677  0.2051  0.6116
  142OSM   H14F15544   1.786   3.975   4.775  2.3826  0.7432  0.4485
  142OSM   H14G15545   1.651   4.096   4.727  0.5386  0.5519 -2.4995
  142OSM   C15F15546   1.806   4.170   4.869 -0.3252 -0.1461 -0.0320
  142OSM   H15F15547   1.791   4.279   4.852 -3.1013  0.4595  4.5658
  142OSM   H15G15548   1.913   4.139   4.879 -0.3364  0.3932  2.9252
  142OSM   C16F15549   1.735   4.136   4.995 -1.1641 -0.5430 -0.2255
  142OSM   H16F15550   1.626   4.147   4.972 -0.9617  0.1417 -0.9124
  142OSM   H16G15551   1.750   4.213   5.073 -1.2954  1.3461 -1.9835
  142OSM   C17F15552   1.769   3.994   5.058  0.3709 -0.5797 -0.0009
  142OSM   H17F15553   1.744   3.921   4.977  0.5867 -0.2994 -0.3224
  142OSM   H17G15554   1.719   3.975   5.155 -0.7314  3.4566  0.4024
  142OSM   C18F15555   1.923   3.967   5.079 -0.0982 -0.3939  0.3075
  142OSM   H18F15556   1.983   3.997   4.991 -1.9077  1.1230 -0.4833
  142OSM   H18G15557   1.944   3.859   5.094  0.9913 -0.5480 -2.0009
  142OSM   H18H15558   1.954   4.021   5.171  1.2074  0.3958 -0.5706
  143OSM      N15559   1.811   2.137   2.936  0.1405  0.2098 -0.4551
  143OSM    C1515560   1.892   2.233   2.860 -0.3058 -0.3921  1.0498
  143OSM   H15A15561   1.983   2.188   2.823  0.1562  0.1911  1.4525
  143OSM   H15B15562   1.927   2.315   2.920 -2.1720 -0.6734  2.6298
  143OSM   H15C15563   1.837   2.280   2.780 -0.6479 -0.0201  1.4960
  143OSM    C1415564   1.732   2.218   3.039 -0.5356  0.0790  0.1731
  143OSM   H14A15565   1.676   2.301   2.998  0.0624  1.5309  2.1537
  143OSM   H14B15566   1.797   2.258   3.115 -0.8163  1.1089 -0.1134
  143OSM   H14C15567   1.659   2.149   3.077  0.0576 -0.5784  0.1549
  143OSM    C1315568   1.719   2.059   2.850 -0.9351  0.5458  0.4289
  143OSM   H13A15569   1.629   2.024   2.898 -1.2292  0.3329 -0.2605
  143OSM   H13B15570   1.770   1.977   2.801  0.5278  0.5736  1.8471
  143OSM   H13C15571   1.674   2.123   2.776 -0.8508 -0.9215 -0.9618
  143OSM    C1215572   1.896   2.033   3.007 -0.3822  0.2899  0.2640
  143OSM   H12A15573   1.949   1.977   2.932 -0.2437  1.1261 -0.2868
  143OSM   H12B15574   1.832   1.958   3.052  0.3116 -0.5327 -0.1057
  143OSM    C1115575   2.003   2.076   3.108 -0.7474  0.3221 -0.9409
  143OSM   H11A15576   2.044   1.996   3.173  2.1512  2.6463  0.3132
  143OSM   H11B15577   1.955   2.145   3.181 -0.2785  2.7453 -2.7777
  143OSM      P15578   2.225   2.078   2.974  0.3871 -0.5781  0.0602
  143OSM    O1315579   2.180   1.971   2.880  0.0554  0.3083  0.4678
  143OSM    O1415580   2.312   2.174   2.912  0.2124  0.0911  0.5031
  143OSM    O1115581   2.301   2.019   3.097 -0.4466  0.0503  0.1755
  143OSM    O1215582   2.102   2.148   3.044  0.3040  0.0836 -0.1256
  143OSM    C1S15583   2.333   2.102   3.210  0.1193  0.0419  0.5252
  143OSM    H1S15584   2.250   2.175   3.219 -1.7555 -1.9292 -0.0285
  143OSM    H1T15585   2.423   2.165   3.191 -0.9152  1.5993  0.5958
  143OSM     NF15586   2.351   2.107   3.454  0.3289  0.5758 -0.1429
  143OSM    HNF15587   2.436   2.124   3.503  0.7033 -2.5298  0.4372
  143OSM    C2S15588   2.346   2.018   3.338 -0.4786  0.4238  0.0049
  143OSM    H2S15589   2.259   1.949   3.339  1.1820 -1.9885 -3.5333
  143OSM    C3S15590   2.474   1.928   3.311  0.3356  0.1466 -0.2619
  143OSM    H3S15591   2.551   1.991   3.261 -0.1346  0.3789 -0.6979
  143OSM     O315592   2.439   1.824   3.224 -0.1225  0.3066  0.5030
  143OSM    HO315593   2.379   1.868   3.163 -1.7871  0.2739  2.0592
  143OSM    C4S15594   2.518   1.867   3.436 -0.8360  0.7099 -0.3412
  143OSM    H4S15595   2.443   1.794   3.471  0.6588 -0.6618  0.0786
  143OSM    C5S15596   2.632   1.886   3.510  0.6876 -0.0705 -0.5076
  143OSM    H5S15597   2.699   1.965   3.473  0.2236 -0.3430 -1.9845
  143OSM    C6S15598   2.646   1.834   3.646 -0.9704  0.3236 -0.1104
  143OSM    H6S15599   2.563   1.767   3.674 -0.3818 -0.4629 -0.2229
  143OSM    H6T15600   2.641   1.918   3.719  1.2273  0.1701  0.2988
  143OSM    C7S15601   2.783   1.755   3.668  0.4192  0.4308  0.8258
  143OSM    H7S15602   2.875   1.813   3.647  1.1200 -0.9775 -0.1990
  143OSM    H7T15603   2.785   1.671   3.595 -1.0899 -2.5445  3.8968
  143OSM    C8S15604   2.789   1.698   3.814  0.3312  0.3025  0.6745
  143OSM    H8S15605   2.853   1.607   3.810 -1.0387 -0.6817  0.0973
  143OSM    H8T15606   2.687   1.669   3.846 -0.6903  0.8693 -1.8188
  143OSM    C9S15607   2.851   1.797   3.914  0.2512  0.3194  0.7144
  143OSM    H9S15608   2.772   1.875   3.926  1.1860  0.8961  4.2985
  143OSM    H9T15609   2.937   1.848   3.866 -2.3525  3.3206 -1.2471
  143OSM   C10S15610   2.887   1.723   4.045 -0.2022  0.3394  0.0998
  143OSM   H10S15611   2.934   1.623   4.040 -0.2990  0.2241  1.2411
  143OSM   H10T15612   2.788   1.712   4.094  0.9734 -2.3037  2.1091
  143OSM   C11S15613   2.979   1.812   4.137 -0.3829  0.1737 -0.0245
  143OSM   H11S15614   2.939   1.915   4.148  0.8510  1.1072 -3.1913
  143OSM   H11T15615   3.077   1.808   4.084 -0.4230 -0.4986 -0.0619
  143OSM   C12S15616   2.996   1.748   4.274 -0.1644 -0.5538  0.5001
  143OSM   H12S15617   2.895   1.752   4.321 -1.7525  1.6919 -2.7236
  143OSM   H12T15618   3.076   1.806   4.326  1.0277 -0.4884 -1.3359
  143OSM   C13S15619   3.038   1.602   4.281 -0.3684  0.5345 -0.0214
  143OSM   H13S15620   3.136   1.573   4.238 -0.6211 -1.9475  0.9085
  143OSM   H13T15621   2.965   1.537   4.228  0.7779 -1.9685  1.3138
  143OSM   C14S15622   3.024   1.543   4.426  0.1225  0.6523 -0.1026
  143OSM   H14S15623   2.938   1.590   4.478  0.0794 -0.6367  1.0489
  143OSM   H14T15624   3.113   1.579   4.482  0.0372  0.0778  0.4225
  143OSM   C15S15625   3.029   1.390   4.443 -0.4296 -0.5715 -0.6363
  143OSM   H15S15626   3.113   1.341   4.390 -0.5096 -0.8262 -0.5274
  143OSM   H15T15627   2.945   1.327   4.406 -1.5206 -0.0472  0.8476
  143OSM   C16S15628   3.041   1.350   4.589  0.8887 -0.0997 -0.2547
  143OSM   H16S15629   2.959   1.390   4.651  2.6130  2.7830  0.3870
  143OSM   H16T15630   3.131   1.397   4.633  0.0139  0.9543  0.4509
  143OSM   C17S15631   3.058   1.202   4.621 -0.4416 -0.9697  0.1368
  143OSM   H17S15632   3.126   1.159   4.544  1.4672  1.8062  0.1569
  143OSM   H17T15633   2.961   1.148   4.628 -0.8240 -0.2316  0.6442
  143OSM   C18S15634   3.148   1.186   4.742  0.2058  0.2260 -0.0487
  143OSM   H18S15635   3.253   1.199   4.710 -0.0665  0.5913 -0.8211
  143OSM   H18T15636   3.163   1.086   4.788 -1.0207  1.6380  3.8649
  143OSM   H18U15637   3.118   1.247   4.830 -0.5517 -0.0763 -0.0892
  143OSM    C1F15638   2.244   2.176   3.499  0.3478 -0.7713  0.0906
  143OSM     OF15639   2.135   2.161   3.440  0.5038 -0.0847  0.6294
  143OSM    C2F15640   2.262   2.286   3.603 -0.1838  0.4671  0.0999
  143OSM    H2F15641   2.224   2.378   3.553 -1.2574 -0.4372 -0.8148
  143OSM    H2G15642   2.370   2.284   3.627 -0.5539 -0.4653  1.8312
  143OSM    C3F15643   2.173   2.252   3.720 -0.0773  0.2478  0.5548
  143OSM    H3F15644   2.180   2.142   3.735 -1.1877 -0.3319 -2.5307
  143OSM    H3G15645   2.073   2.281   3.684  0.2740 -0.4927 -1.1208
  143OSM    C4F15646   2.216   2.325   3.839 -0.0651  0.1534 -1.0927
  143OSM    H4F15647   2.167   2.424   3.823 -0.6470  0.0789  0.0922
  143OSM    H4G15648   2.326   2.335   3.843 -0.2342  3.2356 -1.2736
  143OSM    C5F15649   2.160   2.250   3.964 -0.0957 -0.0745  0.3229
  143OSM    H5F15650   2.202   2.147   3.963 -1.1134 -0.5006 -0.0911
  143OSM    H5G15651   2.050   2.244   3.950 -0.3976  0.4216  2.1739
  143OSM    C6F15652   2.180   2.321   4.097  0.0292 -0.3067  0.4095
  143OSM    H6F15653   2.104   2.402   4.105 -0.1513 -0.5725  1.5781
  143OSM    H6G15654   2.280   2.368   4.109 -0.4743  0.7891  0.4750
  143OSM    C7F15655   2.154   2.233   4.226 -0.2761 -0.1216  0.3762
  143OSM    H7F15656   2.233   2.156   4.240 -1.4065 -1.1881  1.1138
  143OSM    H7G15657   2.069   2.164   4.205 -1.4757  1.3568  0.2614
  143OSM    C8F15658   2.131   2.321   4.352 -0.3287 -0.0399 -0.1220
  143OSM    H8F15659   2.043   2.387   4.335 -0.7178 -0.8781 -1.6057
  143OSM    H8G15660   2.228   2.376   4.351  0.3919 -1.2548 -1.8480
  143OSM    C9F15661   2.113   2.228   4.471 -0.4894 -0.3498  0.0573
  143OSM    H9F15662   2.014   2.180   4.473 -0.2063 -0.9680  2.0316
  143OSM   C10F15663   2.175   2.229   4.588 -0.5327  0.1603 -0.0483
  143OSM   H10F15664   2.156   2.145   4.657  0.5935  0.3804  0.5693
  143OSM   C11F15665   2.294   2.319   4.622 -0.1637 -0.1160  0.2407
  143OSM   H11F15666   2.256   2.421   4.645  2.2210  0.3168  2.7194
  143OSM   H11G15667   2.351   2.338   4.529 -2.1155  1.0017 -0.7955
  143OSM   C12F15668   2.360   2.268   4.753  0.5782 -0.1187  0.6276
  143OSM   H12F15669   2.395   2.162   4.751 -1.0161 -0.7764  2.8659
  143OSM   H12G15670   2.281   2.270   4.832  0.9749  0.3627  1.0180
  143OSM   C13F15671   2.481   2.354   4.800 -0.1456 -0.8082  0.3503
  143OSM   H13F15672   2.558   2.338   4.722  0.2849 -0.7392  0.7587
  143OSM   H13G15673   2.517   2.304   4.892 -1.4393 -2.7360 -0.1428
  143OSM   C14F15674   2.459   2.504   4.818 -0.1093  0.0081 -0.5492
  143OSM   H14F15675   2.455   2.555   4.719  1.2942 -1.2583 -1.2783
  143OSM   H14G15676   2.546   2.540   4.876 -2.1160  2.1639  1.3570
  143OSM   C15F15677   2.330   2.535   4.900  0.1427  0.4326  0.4272
  143OSM   H15F15678   2.361   2.512   5.004 -0.4424  2.4747  1.1077
  143OSM   H15G15679   2.249   2.471   4.860 -0.0051  0.6565  0.3644
  143OSM   C16F15680   2.274   2.677   4.894 -0.2671 -0.6413 -0.1171
  143OSM   H16F15681   2.166   2.693   4.911 -0.1804  0.3567 -0.4131
  143OSM   H16G15682   2.282   2.703   4.786  1.1471 -0.9562 -0.1139
  143OSM   C17F15683   2.362   2.782   4.958  0.3967  0.2327  0.9498
  143OSM   H17F15684   2.464   2.771   4.917  0.6670 -0.5393  1.7865
  143OSM   H17G15685   2.361   2.771   5.069 -1.1541 -0.8187  0.8609
  143OSM   C18F15686   2.312   2.922   4.916 -0.4259  0.0037 -0.1059
  143OSM   H18F15687   2.349   3.006   4.979 -1.4471  0.0734  0.4226
  143OSM   H18G15688   2.202   2.925   4.906 -0.6689 -1.5146  1.4924
  143OSM   H18H15689   2.351   2.942   4.814 -0.7598  2.3587  0.1740
  144OSM      N15690   3.564   2.324   2.512  0.1049  0.5762 -0.7309
  144OSM    C1515691   3.675   2.356   2.413 -0.0009  0.8947  0.0460
  144OSM   H15A15692   3.646   2.435   2.345  1.1549 -0.0202 -1.6011
  144OSM   H15B15693   3.702   2.275   2.346 -0.4546  0.5908  0.2270
  144OSM   H15C15694   3.765   2.375   2.469 -0.1301  0.8400  0.2690
  144OSM    C1415695   3.442   2.285   2.430 -0.5966 -0.3213  0.9379
  144OSM   H14A15696   3.356   2.280   2.496 -0.7952 -2.9533  0.5953
  144OSM   H14B15697   3.458   2.194   2.374  1.1768 -0.3242  1.3757
  144OSM   H14C15698   3.429   2.362   2.356  0.5659  0.4432  1.4841
  144OSM    C1315699   3.605   2.208   2.597 -0.0995  0.6393 -0.1157
  144OSM   H13A15700   3.680   2.234   2.669 -0.1337 -1.7288  0.8587
  144OSM   H13B15701   3.629   2.123   2.534  0.3866  1.3599 -0.9237
  144OSM   H13C15702   3.522   2.173   2.657  1.0909 -0.0711  1.1649
  144OSM    C1215703   3.526   2.438   2.602 -0.2479  0.1951  0.0049
  144OSM   H12A15704   3.492   2.517   2.535  1.1178  0.3181 -0.5779
  144OSM   H12B15705   3.612   2.491   2.641  0.8538  0.0289 -2.0446
  144OSM    C1115706   3.418   2.411   2.704 -0.2548  0.3448 -0.4276
  144OSM   H11A15707   3.420   2.494   2.778 -1.4936  1.8378 -1.9700
  144OSM   H11B15708   3.448   2.316   2.753  0.2554  0.2429 -0.9265
  144OSM      P15709   3.214   2.540   2.617  0.0299 -0.2643  0.3522
  144OSM    O1315710   3.289   2.620   2.518 -0.9906 -0.2143 -0.7049
  144OSM    O1415711   3.072   2.510   2.582 -0.1728  0.1358 -0.6320
  144OSM    O1115712   3.218   2.622   2.745 -0.4195  0.7955  0.1796
  144OSM    O1215713   3.290   2.407   2.651 -0.1304  0.5915  0.5690
  144OSM    C1S15714   3.149   2.572   2.870  0.1432 -0.7813  0.1978
  144OSM    H1S15715   3.116   2.467   2.865  0.5276 -0.8738 -0.5592
  144OSM    H1T15716   3.060   2.635   2.891  1.0705  0.4148  0.7128
  144OSM     NF15717   3.194   2.535   3.105  0.1254  0.9598 -0.1438
  144OSM    HNF15718   3.158   2.593   3.177  0.8863 -1.0033  1.9618
  144OSM    C2S15719   3.249   2.592   2.983  0.5531  0.1677  0.2142
  144OSM    H2S15720   3.345   2.543   2.958  0.4041 -0.4538  0.8665
  144OSM    C3S15721   3.285   2.743   2.994 -0.0534  0.1560  1.0059
  144OSM    H3S15722   3.188   2.789   3.021  0.5290 -0.5068  4.9273
  144OSM     O315723   3.330   2.797   2.869 -0.6714 -0.7134 -0.3358
  144OSM    HO315724   3.267   2.757   2.808 -1.9409 -0.2663  0.6308
  144OSM    C4S15725   3.390   2.776   3.091  0.4861 -0.0757  0.2309
  144OSM    H4S15726   3.493   2.742   3.075  1.3004  1.9323  0.9979
  144OSM    C5S15727   3.380   2.856   3.200 -0.1974  0.2172 -0.7614
  144OSM    H5S15728   3.285   2.897   3.239 -0.4583 -1.9009  1.1178
  144OSM    C6S15729   3.497   2.878   3.299 -0.4042  0.4234  0.2035
  144OSM    H6S15730   3.551   2.976   3.301  2.8602 -1.1247 -1.8839
  144OSM    H6T15731   3.574   2.802   3.274 -0.6320  1.0920 -3.1376
  144OSM    C7S15732   3.448   2.861   3.446  0.0200  0.0275  0.3900
  144OSM    H7S15733   3.361   2.925   3.472  0.5042  0.2958  1.3901
  144OSM    H7T15734   3.541   2.876   3.506  0.0992 -0.3575  0.3693
  144OSM    C8S15735   3.416   2.716   3.472 -0.1716  0.7280  0.1571
  144OSM    H8S15736   3.496   2.643   3.448 -3.2449 -2.2177 -2.1451
  144OSM    H8T15737   3.339   2.682   3.399 -1.1712  0.0154  1.4704
  144OSM    C9S15738   3.355   2.669   3.612 -0.5697  0.1509 -0.3816
  144OSM    H9S15739   3.414   2.723   3.690  0.1571 -1.1133 -0.0223
  144OSM    H9T15740   3.367   2.559   3.620 -0.6397  0.1977  0.4596
  144OSM   C10S15741   3.200   2.685   3.642 -0.7559  0.2299  0.7563
  144OSM   H10S15742   3.137   2.645   3.560  0.0336 -1.2252  0.8293
  144OSM   H10T15743   3.179   2.794   3.644  0.6718  0.5067  1.7812
  144OSM   C11S15744   3.144   2.634   3.777 -0.3038 -0.5990  0.1445
  144OSM   H11S15745   3.200   2.695   3.852  0.9679 -0.2652 -1.0185
  144OSM   H11T15746   3.170   2.527   3.793  2.1156 -0.1544 -0.4201
  144OSM   C12S15747   2.999   2.662   3.807 -0.1210 -0.2050  0.7263
  144OSM   H12S15748   2.952   2.598   3.730  1.4221 -1.1099  0.4917
  144OSM   H12T15749   2.961   2.766   3.794 -0.2826 -0.3612 -0.1453
  144OSM   C13S15750   2.961   2.610   3.944 -0.6932 -0.3227 -0.8995
  144OSM   H13S15751   3.014   2.673   4.019 -0.1696 -1.9213  0.1075
  144OSM   H13T15752   2.998   2.509   3.969 -0.7773 -0.1403 -0.0040
  144OSM   C14S15753   2.810   2.634   3.979 -0.0592  0.2428 -0.3285
  144OSM   H14S15754   2.755   2.589   3.893  1.8453 -0.9378 -0.9946
  144OSM   H14T15755   2.802   2.744   3.990 -0.8061  0.0879  0.8898
  144OSM   C15S15756   2.759   2.572   4.107  0.0095 -0.4316 -0.4097
  144OSM   H15S15757   2.823   2.610   4.189  1.3041 -1.1313 -1.0572
  144OSM   H15T15758   2.780   2.464   4.087 -1.1098 -0.5974 -0.7746
  144OSM   C16S15759   2.611   2.619   4.124  0.1251  0.3813 -0.6107
  144OSM   H16S15760   2.549   2.593   4.035 -0.7665 -0.0002  0.1072
  144OSM   H16T15761   2.607   2.730   4.115 -2.3452  0.5123  1.0379
  144OSM   C17S15762   2.547   2.599   4.260 -0.5702 -0.3665 -0.0452
  144OSM   H17S15763   2.449   2.652   4.255 -1.2041 -1.3214  1.3941
  144OSM   H17T15764   2.599   2.628   4.353 -1.9150  1.2461  0.2536
  144OSM   C18S15765   2.498   2.459   4.292 -0.5809 -0.2421 -0.8828
  144OSM   H18S15766   2.469   2.400   4.203 -1.0094  1.3587 -1.8557
  144OSM   H18T15767   2.417   2.456   4.369 -1.1845  3.9519 -1.0881
  144OSM   H18U15768   2.584   2.395   4.321  0.4838  1.3847 -0.2812
  144OSM    C1F15769   3.193   2.408   3.141  0.4419  0.7382 -0.0429
  144OSM     OF15770   3.228   2.319   3.058  1.0003  0.1151  0.1606
  144OSM    C2F15771   3.156   2.372   3.287 -0.1714  0.2638  0.0271
  144OSM    H2F15772   3.058   2.320   3.288  0.5533 -1.1589  1.9234
  144OSM    H2G15773   3.150   2.468   3.342 -0.6734 -0.6863  1.6840
  144OSM    C3F15774   3.261   2.279   3.349 -0.3226  0.2308  0.9284
  144OSM    H3F15775   3.356   2.331   3.369 -1.2234  2.0812  0.5779
  144OSM    H3G15776   3.272   2.187   3.287 -2.9077  1.0161 -0.8973
  144OSM    C4F15777   3.197   2.210   3.472 -0.1242  0.0256 -0.6150
  144OSM    H4F15778   3.269   2.142   3.522  0.1028  1.4551  1.1290
  144OSM    H4G15779   3.107   2.151   3.445 -0.7671  0.9849 -0.6173
  144OSM    C5F15780   3.148   2.303   3.583 -0.2524 -0.0604 -0.4115
  144OSM    H5F15781   3.091   2.386   3.536  4.0591  3.0452 -0.7667
  144OSM    H5G15782   3.241   2.343   3.629  0.7578 -0.5176 -1.9626
  144OSM    C6F15783   3.058   2.244   3.694  0.2356  0.1515 -0.1536
  144OSM    H6F15784   3.049   2.321   3.773 -0.3194 -0.7211  0.6574
  144OSM    H6G15785   3.109   2.152   3.731 -0.3718 -1.1670 -2.3432
  144OSM    C7F15786   2.918   2.203   3.642 -0.0481  0.4680 -0.4674
  144OSM    H7F15787   2.938   2.117   3.575  0.3734 -0.2529  0.5539
  144OSM    H7G15788   2.880   2.289   3.582 -0.3397 -0.5400 -1.7625
  144OSM    C8F15789   2.822   2.155   3.753 -0.0162  0.4514  0.8240
  144OSM    H8F15790   2.876   2.078   3.813  0.5466 -0.2139 -0.5049
  144OSM    H8G15791   2.734   2.113   3.699  0.3719  1.7820 -0.9163
  144OSM    C9F15792   2.775   2.268   3.835  0.2377  0.3218 -0.4202
  144OSM    H9F15793   2.838   2.358   3.836 -0.9933  1.2048 -0.4072
  144OSM   C10F15794   2.665   2.257   3.915  1.1886  0.2039 -0.2388
  144OSM   H10F15795   2.627   2.350   3.961  1.0464 -1.5567  3.5148
  144OSM   C11F15796   2.579   2.134   3.938  0.3643  0.1572  0.0409
  144OSM   H11F15797   2.631   2.045   3.894 -0.2459 -1.1106  1.7714
  144OSM   H11G15798   2.483   2.134   3.881  1.7762 -0.1303 -2.4933
  144OSM   C12F15799   2.529   2.111   4.084 -0.3458  0.0465 -0.0707
  144OSM   H12F15800   2.458   2.026   4.082 -0.7246  0.3716 -1.0691
  144OSM   H12G15801   2.475   2.205   4.107  2.4104  1.7257 -0.0457
  144OSM   C13F15802   2.644   2.094   4.179 -0.0205 -0.4891  0.2817
  144OSM   H13F15803   2.684   2.196   4.201 -0.0586 -0.2679 -0.6450
  144OSM   H13G15804   2.721   2.036   4.126  1.4832  0.5955  1.1993
  144OSM   C14F15805   2.604   2.018   4.299  0.0492  0.4604 -0.6931
  144OSM   H14F15806   2.583   1.916   4.260 -1.0748  0.8697 -1.1802
  144OSM   H14G15807   2.511   2.054   4.347 -0.1436  0.3838 -1.0123
  144OSM   C15F15808   2.717   2.003   4.403 -0.7899  1.0470 -0.8951
  144OSM   H15F15809   2.804   1.959   4.349 -1.2905  1.2224 -1.8575
  144OSM   H15G15810   2.681   1.928   4.477  0.2160  1.3489 -0.0650
  144OSM   C16F15811   2.758   2.129   4.465  0.1957 -0.4198 -0.1544
  144OSM   H16F15812   2.672   2.189   4.501  1.5500  1.0311  0.8061
  144OSM   H16G15813   2.817   2.190   4.393  0.9779 -1.5765 -0.5235
  144OSM   C17F15814   2.849   2.117   4.588 -0.1611  0.1640  0.4422
  144OSM   H17F15815   2.880   2.219   4.619 -0.3667 -0.5321  3.2129
  144OSM   H17G15816   2.935   2.053   4.558 -1.0483 -1.0513  0.4461
  144OSM   C18F15817   2.792   2.041   4.706  0.5083 -0.6257  0.4047
  144OSM   H18F15818   2.868   2.035   4.787  0.5375 -0.0266  0.4237
  144OSM   H18G15819   2.766   1.938   4.674  1.2074 -1.5449  2.5981
  144OSM   H18H15820   2.699   2.091   4.740 -0.3340 -1.5205 -0.5495
  145SAPE     N15821   3.833   1.123   6.947  0.3388 -0.3969  0.0858
  145SAPE   HN115822   3.782   1.074   7.022 -0.6185 -1.3738 -1.1505
  145SAPE   HN215823   3.932   1.131   6.978  0.0887  0.5668  0.6688
  145SAPE   HN315824   3.785   1.215   6.944  0.5367 -0.2851  0.3344
  145SAPE   C1215825   3.820   1.053   6.815  0.0202  0.4618  0.3565
  145SAPE  H12A15826   3.844   0.945   6.827 -1.2353  0.3361  2.0749
  145SAPE  H12B15827   3.902   1.083   6.746  0.6734 -1.9485 -0.0171
  145SAPE   C1115828   3.684   1.071   6.758  0.1388 -0.4002 -0.0909
  145SAPE  H11A15829   3.681   1.046   6.650 -2.4479 -0.1515 -0.1492
  145SAPE  H11B15830   3.671   1.180   6.746 -1.4587 -0.3595  1.6336
  145SAPE     P15831   3.535   0.862   6.819 -0.1306  0.0135  0.3116
  145SAPE   O1315832   3.653   0.780   6.845  0.6318  0.0112 -0.1997
  145SAPE   O1415833   3.410   0.835   6.888 -0.0435 -0.1220 -0.8509
  145SAPE   O1215834   3.574   1.013   6.831 -0.3421 -0.1768 -0.1731
  145SAPE   O1115835   3.498   0.864   6.661  0.1506  0.2869 -0.2740
  145SAPE    C115836   3.371   0.914   6.625 -0.6476 -0.7898  0.5291
  145SAPE    HA15837   3.291   0.842   6.650 -2.6637 -0.0281 -3.0456
  145SAPE    HB15838   3.346   1.010   6.674 -1.8828 -2.7865  4.2541
  145SAPE    C215839   3.374   0.931   6.473  0.2567  0.1481  0.0201
  145SAPE    HS15840   3.288   0.994   6.442  0.9399  2.4604  2.4376
  145SAPE   O2115841   3.394   0.802   6.417  0.0415  1.0340  0.0259
  145SAPE   C2115842   3.331   0.786   6.295 -1.1950 -1.2839  0.3343
  145SAPE   O2215843   3.259   0.877   6.249  0.4583 -0.0459  0.1068
  145SAPE   C2215844   3.382   0.663   6.224 -0.0825  0.0661  0.4571
  145SAPE   H2R15845   3.414   0.590   6.302  2.1735  2.0690  1.5510
  145SAPE   H2S15846   3.290   0.620   6.179  0.6804 -0.0473 -1.0238
  145SAPE    C315847   3.515   1.007   6.434  0.2365  0.4126 -0.3128
  145SAPE    HX15848   3.598   0.941   6.466  0.6276  0.2457 -1.6395
  145SAPE    HY15849   3.521   1.098   6.498 -1.5770 -0.5243  1.3035
  145SAPE   O3115850   3.535   1.038   6.294  0.0478  0.6586 -0.9940
  145SAPE   C3115851   3.498   1.159   6.259  0.7071 -0.3183 -0.2814
  145SAPE   O3215852   3.460   1.244   6.335  0.2174  0.2707 -0.1629
  145SAPE   C3215853   3.505   1.181   6.104  0.4064  0.2348 -0.1736
  145SAPE   H2X15854   3.460   1.097   6.047 -0.3169  0.0362  0.6723
  145SAPE   H2Y15855   3.611   1.193   6.073  0.6983 -0.2700  0.6123
  145SAPE   C2315856   3.497   0.685   6.125  0.1416  0.5863  0.5488
  145SAPE   H3R15857   3.558   0.592   6.122 -1.4584 -0.4742 -1.4922
  145SAPE   H3S15858   3.564   0.768   6.157  0.3458  0.2388  1.0535
  145SAPE   C2415859   3.452   0.729   5.986  0.7171  0.1823 -0.4337
  145SAPE   H4R15860   3.381   0.814   5.987  0.7713  0.2302  1.0215
  145SAPE   H4S15861   3.391   0.648   5.941 -0.9075  1.8117 -1.2999
  145SAPE   C2515862   3.569   0.750   5.887  0.5502  0.2560  0.0047
  145SAPE   H5R15863   3.665   0.716   5.929  1.1557 -1.9239 -2.7866
  145SAPE   C2615864   3.557   0.800   5.761  0.2410  0.9597 -0.2759
  145SAPE   H6R15865   3.643   0.813   5.693  1.0742 -1.8714  0.1302
  145SAPE   C2715866   3.421   0.846   5.696  0.9093  0.0489 -0.0555
  145SAPE   H7R15867   3.337   0.842   5.769 -0.8060 -0.5756 -1.9673
  145SAPE   H7S15868   3.395   0.768   5.620  0.7408  0.2202 -0.1751
  145SAPE   C2815869   3.425   0.981   5.633  0.5370  0.5362 -0.1121
  145SAPE   H8R15870   3.458   1.053   5.709 -0.6285 -0.5558  1.4693
  145SAPE   C2915871   3.402   1.021   5.503  0.0141  0.2785 -0.1393
  145SAPE   H9R15872   3.403   1.129   5.480  0.7479  0.5060  0.9186
  145SAPE  C21015873   3.356   0.925   5.392 -0.4163  1.2095 -0.7010
  145SAPE  H10R15874   3.325   0.976   5.298  0.0316  0.6086 -1.1807
  145SAPE  H10S15875   3.263   0.876   5.430  0.1765 -0.1343 -0.9214
  145SAPE  C21115876   3.441   0.808   5.357  0.4158 -0.0545  0.6603
  145SAPE  H11R15877   3.533   0.806   5.417  0.9655 -0.0507 -0.1615
  145SAPE  C21215878   3.429   0.713   5.259  0.4184 -0.0635  0.7330
  145SAPE  H12R15879   3.494   0.624   5.253 -0.0330 -0.3392 -0.3988
  145SAPE  C21315880   3.310   0.719   5.165 -0.1502  0.5062 -0.4184
  145SAPE  H13R15881   3.239   0.799   5.197 -0.1335  0.0680  0.7744
  145SAPE  H13S15882   3.256   0.622   5.164  0.4392  0.1587 -2.1489
  145SAPE  C21415883   3.348   0.742   5.016  0.3307 -0.2392  0.4209
  145SAPE  H14R15884   3.316   0.659   4.951 -3.4625  1.5802 -0.2729
  145SAPE  C21515885   3.424   0.840   4.961 -0.6069  0.1956  0.0348
  145SAPE  H15R15886   3.436   0.847   4.852 -2.4930 -2.1055 -0.3955
  145SAPE  C21615887   3.483   0.959   5.029 -0.5465 -0.3367  0.8584
  145SAPE  H16R15888   3.451   0.963   5.135  1.7958 -0.9533  1.6649
  145SAPE  H16S15889   3.418   1.042   4.995 -2.5301 -1.9204  0.5922
  145SAPE  C21715890   3.626   1.001   5.012 -0.5951  0.6708  0.5863
  145SAPE  H17R15891   3.630   1.107   5.045 -0.3405  1.3211 -1.4205
  145SAPE  H17S15892   3.668   0.998   4.909  0.7675 -1.6672  1.1375
  145SAPE  C21815893   3.722   0.919   5.099  0.2620 -0.3894  0.2525
  145SAPE  H18R15894   3.672   0.910   5.198  0.2006  0.7112  0.3349
  145SAPE  H18S15895   3.817   0.977   5.106  0.5009 -0.3190 -2.5557
  145SAPE  C21915896   3.758   0.776   5.051  0.0306  0.4277  0.1352
  145SAPE  H19R15897   3.677   0.733   4.990 -0.0533 -0.2150  0.6844
  145SAPE  H19S15898   3.764   0.720   5.147  3.3194  0.5701  0.1431
  145SAPE  C22015899   3.893   0.755   4.973 -0.2756  0.1031 -0.5730
  145SAPE  H20R15900   3.912   0.651   4.939 -2.4635 -0.4016 -0.3972
  145SAPE  H20S15901   3.980   0.789   5.034 -0.3968 -0.6128  0.0158
  145SAPE  H20T15902   3.892   0.819   4.883 -0.4518  0.1775 -0.5193
  145SAPE   C3315903   3.425   1.302   6.054 -0.2082 -0.5678  0.0253
  145SAPE   H3X15904   3.487   1.385   6.096 -0.4543 -1.4571  2.2761
  145SAPE   H3Y15905   3.321   1.299   6.093 -0.3798  0.4436 -0.3334
  145SAPE   C3415906   3.419   1.313   5.903 -0.1502  0.4550 -0.0867
  145SAPE   H4X15907   3.341   1.243   5.865 -2.1628  2.7098 -0.3213
  145SAPE   H4Y15908   3.520   1.287   5.867 -0.8751  1.1231 -2.8325
  145SAPE   C3515909   3.387   1.450   5.844 -0.0886  0.4272  0.5714
  145SAPE   H5X15910   3.461   1.527   5.874  1.9694 -1.9795  2.1012
  145SAPE   H5Y15911   3.289   1.483   5.884 -0.8678 -0.0724 -0.8535
  145SAPE   C3615912   3.390   1.452   5.688  0.3020 -0.0954 -0.0492
  145SAPE   H6X15913   3.321   1.535   5.663 -0.6890 -0.6596  0.7876
  145SAPE   H6Y15914   3.343   1.359   5.649  2.6508 -1.9416  1.2001
  145SAPE   C3715915   3.525   1.457   5.618  0.3304 -0.1507  0.3023
  145SAPE   H7X15916   3.505   1.419   5.515 -0.0481 -1.0830  0.7072
  145SAPE   H7Y15917   3.600   1.388   5.664 -0.3336 -0.5603  0.7802
  145SAPE   C3815918   3.572   1.604   5.621  0.0229 -0.2618 -1.0139
  145SAPE   H8X15919   3.683   1.599   5.620  0.2102 -1.9116  3.5653
  145SAPE   H8Y15920   3.558   1.635   5.727  0.8223 -0.1475 -0.9342
  145SAPE   C3915921   3.505   1.701   5.515 -0.3029  0.1812  0.1077
  145SAPE   H9X15922   3.534   1.806   5.538 -0.3808  0.5519 -1.3893
  145SAPE   H9Y15923   3.394   1.697   5.522 -0.5447 -0.2280 -2.7789
  145SAPE  C31015924   3.555   1.672   5.368 -0.1085  0.6500 -0.0199
  145SAPE  H10X15925   3.536   1.567   5.335  1.1940  1.6060 -4.5119
  145SAPE  H10Y15926   3.664   1.689   5.356 -0.0030 -0.9050 -1.7445
  145SAPE  C31115927   3.480   1.766   5.271 -0.3136 -0.1648  0.6708
  145SAPE  H11X15928   3.492   1.875   5.289  0.7342 -0.0872 -0.3740
  145SAPE  H11Y15929   3.378   1.731   5.299 -0.4467 -0.7179 -0.4656
  145SAPE  C31215930   3.516   1.751   5.122  0.0009  0.8171  0.8477
  145SAPE  H12X15931   3.436   1.795   5.058  1.2762 -0.3530 -1.6897
  145SAPE  H12Y15932   3.514   1.644   5.091  1.1042  1.5971 -2.2468
  145SAPE  C31315933   3.656   1.806   5.089  0.3563 -0.2818  0.0323
  145SAPE  H13X15934   3.739   1.763   5.149 -0.7609 -2.6442  0.0010
  145SAPE  H13Y15935   3.644   1.914   5.114  1.7608  0.1291 -0.9472
  145SAPE  C31415936   3.697   1.789   4.943  0.5111  0.2825 -0.0200
  145SAPE  H14X15937   3.613   1.816   4.876 -2.0263 -0.4178  2.6773
  145SAPE  H14Y15938   3.700   1.678   4.935 -0.4711  0.2939 -0.8262
  145SAPE  C31515939   3.832   1.850   4.912  0.4097  0.2972  0.2446
  145SAPE  H15X15940   3.818   1.960   4.922  0.3147  0.3008  0.0742
  145SAPE  H15Y15941   3.845   1.834   4.803  0.2436  0.6388  0.1731
  145SAPE  C31615942   3.959   1.811   4.994 -0.1150  0.3980  0.2046
  145SAPE  H16X15943   3.948   1.705   5.024  1.7434  0.2254  0.3799
  145SAPE  H16Y15944   3.967   1.865   5.091  2.3514  0.8607 -0.1845
  145SAPE  C31715945   4.088   1.833   4.913  0.0886  0.2641  0.2682
  145SAPE  H17X15946   4.096   1.941   4.885  4.5884  0.1116  0.1520
  145SAPE  H17Y15947   4.085   1.774   4.819  1.2123  1.1712 -0.3689
  145SAPE  C31815948   4.212   1.800   4.994 -0.6037 -0.5172 -0.6680
  145SAPE  H18X15949   4.297   1.779   4.925 -1.4214 -1.7977 -1.3144
  145SAPE  H18Y15950   4.194   1.720   5.069 -1.2008  0.3782  0.1560
  145SAPE  H18Z15951   4.250   1.886   5.052  0.8767 -1.1069 -0.7110
  146SAPE     N15952   2.166   3.224   7.765  0.3132  0.2489 -0.2309
  146SAPE   HN115953   2.118   3.249   7.676 -0.5402  1.5812  0.5671
  146SAPE   HN215954   2.141   3.125   7.783  0.4558  0.6556  2.7626
  146SAPE   HN315955   2.132   3.277   7.847 -0.6780  0.8846 -1.0279
  146SAPE   C1215956   2.316   3.223   7.760 -0.0190 -0.0040  0.3490
  146SAPE  H12A15957   2.354   3.133   7.708  0.0922  0.6843 -0.7932
  146SAPE  H12B15958   2.346   3.216   7.867 -1.2976  0.0433  0.7270
  146SAPE   C1115959   2.373   3.329   7.664 -0.8229  0.1227  0.2733
  146SAPE  H11A15960   2.484   3.318   7.658 -0.5712  2.0668  0.6722
  146SAPE  H11B15961   2.358   3.430   7.709  0.3320  0.0014  0.9806
  146SAPE     P15962   2.387   3.403   7.416 -0.0095 -0.0647 -0.4860
  146SAPE   O1315963   2.298   3.427   7.298  0.6551 -0.5224 -0.4462
  146SAPE   O1415964   2.430   3.534   7.476  0.3950  0.3179  0.0394
  146SAPE   O1215965   2.312   3.323   7.534  0.6466 -0.1830  0.3276
  146SAPE   O1115966   2.508   3.304   7.387  0.0854  0.1520 -0.3174
  146SAPE    C115967   2.485   3.164   7.382 -0.5211 -0.7616 -0.2494
  146SAPE    HA15968   2.527   3.116   7.473 -1.6796 -1.2512  0.0460
  146SAPE    HB15969   2.379   3.132   7.387 -0.0420 -2.3617  0.3853
  146SAPE    C215970   2.562   3.091   7.263 -0.2317 -0.0376  0.9080
  146SAPE    HS15971   2.671   3.097   7.286  0.1301 -0.3662 -0.6223
  146SAPE   O2115972   2.539   3.156   7.136 -0.5353 -0.1665  0.8227
  146SAPE   C2115973   2.417   3.187   7.097  0.2135 -0.1054  0.2682
  146SAPE   O2215974   2.314   3.157   7.156  0.0157  0.0275 -0.3690
  146SAPE   C2215975   2.426   3.285   6.982 -0.4800  0.0399 -0.4704
  146SAPE   H2R15976   2.368   3.372   7.018  0.8391  1.4950 -1.7190
  146SAPE   H2S15977   2.527   3.329   6.966 -1.6640  2.0279 -3.2422
  146SAPE    C315978   2.532   2.944   7.248  0.1342 -0.2446 -0.5220
  146SAPE    HX15979   2.429   2.924   7.213  0.2745  1.6168 -2.2470
  146SAPE    HY15980   2.526   2.906   7.352 -2.8395 -0.7420 -0.8110
  146SAPE   O3115981   2.634   2.873   7.169  0.0309 -0.4893  0.5407
  146SAPE   C3115982   2.593   2.816   7.057 -0.1056  0.5097 -0.6633
  146SAPE   O3215983   2.481   2.811   7.013 -0.4459  0.2523 -0.1563
  146SAPE   C3215984   2.706   2.762   6.979  0.4483  0.0907  0.3906
  146SAPE   H2X15985   2.720   2.653   6.994  0.1617  0.1076  0.7860
  146SAPE   H2Y15986   2.805   2.800   7.012  0.4520 -1.5521  2.4910
  146SAPE   C2315987   2.372   3.244   6.848 -0.2910 -0.2043  0.1368
  146SAPE   H3R15988   2.364   3.338   6.790  0.7102 -1.1301 -1.5729
  146SAPE   H3S15989   2.265   3.221   6.869 -0.6107  1.8476  0.9668
  146SAPE   C2415990   2.458   3.140   6.769 -0.0225 -0.1891  0.1765
  146SAPE   H4R15991   2.388   3.089   6.700  1.0908 -0.1067 -1.0683
  146SAPE   H4S15992   2.488   3.068   6.848  1.1501  1.9141  1.7559
  146SAPE   C2515993   2.577   3.216   6.709 -0.3494  0.1990 -0.2314
  146SAPE   H5R15994   2.641   3.249   6.792 -1.5227 -0.3219  0.9175
  146SAPE   C2615995   2.620   3.227   6.582 -0.2429 -0.2749  0.3633
  146SAPE   H6R15996   2.715   3.280   6.566 -0.6173 -0.3358 -2.7214
  146SAPE   C2715997   2.555   3.157   6.463  0.1496  0.0120  0.0302
  146SAPE   H7R15998   2.528   3.055   6.498  1.1344 -0.3658 -0.2734
  146SAPE   H7S15999   2.634   3.134   6.389  1.8067 -0.6156  1.8976
  146SAPE   C2816000   2.442   3.239   6.407 -1.1693 -0.0836  0.1273
  146SAPE   H8R16001   2.405   3.298   6.491  0.7984  0.6192  0.5522
  146SAPE   C2916002   2.395   3.248   6.284  0.3585 -0.4548  0.7559
  146SAPE   H9R16003   2.313   3.320   6.267 -1.2067 -1.9619  1.5549
  146SAPE  C21016004   2.438   3.169   6.162 -0.0057  0.1844  0.3715
  146SAPE  H10R16005   2.351   3.109   6.129  0.2548 -0.8110  1.4327
  146SAPE  H10S16006   2.511   3.094   6.199 -0.8951 -0.0196  1.7862
  146SAPE  C21116007   2.477   3.258   6.045 -0.0885  0.5207  0.1032
  146SAPE  H11R16008   2.537   3.349   6.062 -0.8742  1.1373 -0.3255
  146SAPE  C21216009   2.443   3.240   5.916  0.6944 -0.0001 -0.3580
  146SAPE  H12R16010   2.490   3.304   5.840  3.2624 -2.0671 -0.6656
  146SAPE  C21316011   2.353   3.133   5.853 -0.6588  0.4272 -0.0493
  146SAPE  H13R16012   2.368   3.040   5.913  0.2267  1.1688  0.9037
  146SAPE  H13S16013   2.402   3.105   5.757 -0.0484 -0.0963  0.4072
  146SAPE  C21416014   2.204   3.155   5.830  0.0265  0.3260  0.0288
  146SAPE  H14R16015   2.163   3.245   5.878  0.6889  0.5820  0.1164
  146SAPE  C21516016   2.117   3.076   5.773 -0.1618 -0.3729 -0.0579
  146SAPE  H15R16017   2.011   3.106   5.767 -0.1275 -0.2765 -0.1818
  146SAPE  C21616018   2.153   2.943   5.703 -0.3914 -0.7477  0.2415
  146SAPE  H16R16019   2.087   2.861   5.740 -0.3031 -2.2434 -2.6232
  146SAPE  H16S16020   2.257   2.906   5.720 -0.8860 -2.0649  0.5406
  146SAPE  C21716021   2.130   2.948   5.548 -0.2529 -0.6808  0.1253
  146SAPE  H17R16022   2.203   3.013   5.496 -1.6708  1.3298  0.5177
  146SAPE  H17S16023   2.030   2.995   5.537  1.0480  2.5712  0.8803
  146SAPE  C21816024   2.141   2.806   5.487  0.0886  0.5134 -0.2417
  146SAPE  H18R16025   2.050   2.749   5.514  0.3800  0.4262  0.6129
  146SAPE  H18S16026   2.235   2.756   5.519 -0.0275  0.8147  0.5997
  146SAPE  C21916027   2.141   2.811   5.338  0.2629 -0.3586  0.1142
  146SAPE  H19R16028   2.152   2.707   5.299  2.7391 -0.1060  0.0020
  146SAPE  H19S16029   2.210   2.884   5.291 -1.2940  0.3911 -1.1341
  146SAPE  C22016030   2.003   2.860   5.289 -0.1442  0.0447  0.1238
  146SAPE  H20R16031   1.995   2.970   5.301 -0.1922  0.0472  0.0678
  146SAPE  H20S16032   1.918   2.810   5.341 -0.0455  1.9076  2.2655
  146SAPE  H20T16033   1.995   2.846   5.180  1.8673  1.0995 -0.1967
  146SAPE   C3316034   2.691   2.779   6.826 -0.1694 -0.0335  0.5124
  146SAPE   H3X16035   2.705   2.887   6.805  0.4659 -0.2483 -0.1914
  146SAPE   H3Y16036   2.591   2.751   6.787 -1.0540  3.5440 -0.1484
  146SAPE   C3416037   2.797   2.705   6.742 -0.1439  0.1646  1.0253
  146SAPE   H4X16038   2.786   2.597   6.765 -2.1626  0.4648  1.6577
  146SAPE   H4Y16039   2.898   2.739   6.774  0.1011 -0.1660  0.6027
  146SAPE   C3516040   2.781   2.717   6.593 -0.1621  0.2678  0.0794
  146SAPE   H5X16041   2.876   2.687   6.544 -0.3251  1.2240 -0.8684
  146SAPE   H5Y16042   2.774   2.827   6.575 -2.4644  0.0659 -0.5194
  146SAPE   C3616043   2.659   2.656   6.527  0.0684  0.3194  0.0494
  146SAPE   H6X16044   2.575   2.670   6.599  0.0875  1.6714 -0.1653
  146SAPE   H6Y16045   2.669   2.551   6.492  0.1930  0.8193 -1.4635
  146SAPE   C3716046   2.607   2.731   6.400  1.0798 -0.5545 -0.1230
  146SAPE   H7X16047   2.605   2.840   6.417  1.0314 -0.4403 -0.8495
  146SAPE   H7Y16048   2.501   2.707   6.377  0.7526  0.2973  0.4562
  146SAPE   C3816049   2.702   2.720   6.280 -0.7430  0.7921  0.4795
  146SAPE   H8X16050   2.712   2.613   6.253 -0.5671  0.9243  0.0072
  146SAPE   H8Y16051   2.805   2.754   6.304 -0.4795  1.2140 -1.1475
  146SAPE   C3916052   2.652   2.805   6.158 -0.3710  0.0203  0.8278
  146SAPE   H9X16053   2.648   2.912   6.189  1.1390  0.9080 -1.7096
  146SAPE   H9Y16054   2.548   2.769   6.139  0.5299 -1.9197 -0.7054
  146SAPE  C31016055   2.732   2.792   6.032  0.1457 -0.5723  0.1072
  146SAPE  H10X16056   2.764   2.689   6.007 -0.1569 -0.2106 -1.9302
  146SAPE  H10Y16057   2.823   2.854   6.044 -0.6383  1.3113 -2.6283
  146SAPE  C31116058   2.653   2.858   5.912 -0.0055 -0.6549  0.2610
  146SAPE  H11X16059   2.651   2.967   5.935  0.9651 -0.2632 -1.3107
  146SAPE  H11Y16060   2.549   2.823   5.899  1.0185 -3.8026 -0.4489
  146SAPE  C31216061   2.730   2.828   5.778  0.6532  0.2466  0.0237
  146SAPE  H12X16062   2.719   2.719   5.760 -0.9976  0.3441  0.2624
  146SAPE  H12Y16063   2.837   2.855   5.791  0.3409  2.1483 -0.9129
  146SAPE  C31316064   2.670   2.905   5.658  0.7697  0.2858 -0.3355
  146SAPE  H13X16065   2.560   2.894   5.660  0.7848  0.1659 -0.1756
  146SAPE  H13Y16066   2.707   2.860   5.564  0.2304 -2.6813  0.7846
  146SAPE  C31416067   2.714   3.057   5.664 -0.3516 -0.5270  0.8177
  146SAPE  H14X16068   2.819   3.065   5.701 -0.8645 -0.9366  2.4626
  146SAPE  H14Y16069   2.649   3.125   5.722  0.3993  2.6127 -1.7410
  146SAPE  C31516070   2.703   3.114   5.516 -0.3559  0.1156  0.3201
  146SAPE  H15X16071   2.599   3.123   5.479  0.7657 -2.3665 -4.1799
  146SAPE  H15Y16072   2.757   3.052   5.441  0.4898  1.8269 -0.5490
  146SAPE  C31616073   2.762   3.259   5.509  0.3353 -0.0228  0.1310
  146SAPE  H16X16074   2.868   3.258   5.542  0.9322  0.6923 -1.6680
  146SAPE  H16Y16075   2.694   3.317   5.576  2.4967  2.4068  0.3659
  146SAPE  C31716076   2.752   3.334   5.381  0.3032 -0.1121 -0.5970
  146SAPE  H17X16077   2.764   3.439   5.416 -0.8986 -1.1764  3.5356
  146SAPE  H17Y16078   2.652   3.313   5.337 -0.1696  2.4521 -0.8717
  146SAPE  C31816079   2.862   3.306   5.289  0.2916  0.0339  0.5397
  146SAPE  H18X16080   2.967   3.321   5.322  0.8580  2.2008 -1.8681
  146SAPE  H18Y16081   2.852   3.375   5.202  2.3050  1.9960  1.7850
  146SAPE  H18Z16082   2.866   3.203   5.247 -0.9296 -0.6184  1.9298
  147SAPE     N16083   0.345   0.233   7.339 -0.1459  0.4619 -0.3847
  147SAPE   HN116084   0.380   0.156   7.277  0.0920  0.2361  0.0262
  147SAPE   HN216085   0.336   0.201   7.437  1.8651 -2.9810 -1.1512
  147SAPE   HN316086   0.253   0.268   7.304 -0.3112  0.5606  0.1462
  147SAPE   C1216087   0.442   0.342   7.334 -0.1027  0.0646  0.6070
  147SAPE  H12A16088   0.544   0.305   7.359 -0.6147 -1.3178  0.7694
  147SAPE  H12B16089   0.393   0.418   7.399 -1.0096  1.3740 -1.4912
  147SAPE   C1116090   0.453   0.403   7.187  0.0525  0.3393 -0.3000
  147SAPE  H11A16091   0.509   0.329   7.126  2.4059  0.4889  1.5491
  147SAPE  H11B16092   0.530   0.483   7.193  0.8202 -0.4516  0.5154
  147SAPE     P16093   0.278   0.598   7.155  0.0036  0.4501  0.4795
  147SAPE   O1316094   0.140   0.607   7.104 -0.6946  0.3459 -0.0639
  147SAPE   O1416095   0.291   0.629   7.294  0.0338 -0.4387 -0.0812
  147SAPE   O1216096   0.323   0.447   7.134  0.1028 -0.4093 -0.1221
  147SAPE   O1116097   0.378   0.667   7.064 -0.0273  0.7438  0.3548
  147SAPE    C116098   0.368   0.809   7.053  0.1517  0.2391 -0.0167
  147SAPE    HA16099   0.298   0.858   7.124  1.9473  2.0024  0.6424
  147SAPE    HB16100   0.463   0.863   7.076 -0.7748  1.3256  1.4423
  147SAPE    C216101   0.324   0.844   6.904 -0.6576  0.2971  0.3376
  147SAPE    HS16102   0.325   0.955   6.902 -0.1500  0.3026 -1.9099
  147SAPE   O2116103   0.193   0.788   6.869  0.1087  0.0884 -0.5362
  147SAPE   C2116104   0.088   0.861   6.913 -0.2505 -0.1055  0.1045
  147SAPE   O2216105   0.096   0.949   6.996 -0.3041  0.4222  0.0562
  147SAPE   C2216106  -0.043   0.815   6.847 -0.4366  0.4227  0.1526
  147SAPE   H2R16107  -0.024   0.735   6.772 -2.2547 -1.0652  1.1887
  147SAPE   H2S16108  -0.096   0.770   6.934 -0.1964  2.1270  1.2192
  147SAPE    C316109   0.422   0.797   6.787  0.0571 -0.6202 -0.8545
  147SAPE    HX16110   0.422   0.686   6.797  1.3626 -0.6357 -0.8600
  147SAPE    HY16111   0.520   0.838   6.819  0.0192 -0.4772 -0.9239
  147SAPE   O3116112   0.376   0.849   6.664 -0.5330 -0.5266  0.5492
  147SAPE   C3116113   0.316   0.759   6.581  0.1026 -0.4324 -0.3111
  147SAPE   O3216114   0.301   0.641   6.600  0.2194  0.5337  0.0268
  147SAPE   C3216115   0.292   0.831   6.455 -0.5362 -0.2773  0.3804
  147SAPE   H2X16116   0.373   0.906   6.445 -0.5493 -0.0488  1.7436
  147SAPE   H2Y16117   0.204   0.898   6.466 -1.0880 -1.0018  0.4525
  147SAPE   C2316118  -0.115   0.930   6.776 -0.6699 -0.7623 -0.5682
  147SAPE   H3R16119  -0.157   0.985   6.862  1.3256 -2.0387  1.3245
  147SAPE   H3S16120  -0.207   0.882   6.737 -1.3993 -2.0007  2.3812
  147SAPE   C2416121  -0.027   1.010   6.677  0.0789  0.2797 -0.2554
  147SAPE   H4R16122  -0.014   0.936   6.595 -0.5562  0.4887 -0.5494
  147SAPE   H4S16123   0.077   1.015   6.716  0.1534 -0.3958 -0.3484
  147SAPE   C2516124  -0.100   1.140   6.651 -0.3606  0.4278 -0.7360
  147SAPE   H5R16125  -0.123   1.208   6.734 -2.4175 -0.9161 -0.1476
  147SAPE   C2616126  -0.133   1.174   6.525  0.1692  0.2575 -0.3105
  147SAPE   H6R16127  -0.179   1.273   6.512  1.9979  1.2865  0.7822
  147SAPE   C2716128  -0.125   1.105   6.393  0.6790 -0.0696  0.3325
  147SAPE   H7R16129  -0.185   1.163   6.320  1.3151 -1.2946 -1.2167
  147SAPE   H7S16130  -0.158   0.999   6.403  3.2382 -1.0443 -0.6137
  147SAPE   C2816131   0.015   1.102   6.337 -0.0607  0.5414 -1.1124
  147SAPE   H8R16132   0.094   1.062   6.402 -1.0886 -0.0834 -0.2119
  147SAPE   C2916133   0.054   1.144   6.220 -0.1014 -0.1653 -0.3171
  147SAPE   H9R16134   0.162   1.135   6.205  0.2392 -1.3937  2.4580
  147SAPE  C21016135  -0.029   1.204   6.105  0.5620 -0.2221  0.5820
  147SAPE  H10R16136  -0.123   1.145   6.101  0.8142 -0.6180  0.5365
  147SAPE  H10S16137   0.015   1.187   6.005 -0.6168  0.2801 -0.0508
  147SAPE  C21116138  -0.066   1.348   6.118  0.0758 -0.0370 -0.3084
  147SAPE  H11R16139  -0.118   1.375   6.212  1.3250 -0.1920  0.4463
  147SAPE  C21216140  -0.059   1.452   6.028  0.6811  0.3384 -0.9935
  147SAPE  H12R16141  -0.094   1.550   6.064  0.4637 -0.3149  0.6589
  147SAPE  C21316142  -0.009   1.464   5.887 -0.0654 -0.0683 -0.7211
  147SAPE  H13R16143  -0.041   1.562   5.846 -1.4056 -0.4661 -0.6483
  147SAPE  H13S16144  -0.050   1.384   5.823  4.0429 -0.4556 -3.2979
  147SAPE  C21416145   0.139   1.451   5.885  0.4699  0.6655  0.1032
  147SAPE  H14R16146   0.181   1.370   5.946 -1.1033 -0.8892 -0.7783
  147SAPE  C21516147   0.213   1.528   5.809  0.0646 -0.5219  0.3443
  147SAPE  H15R16148   0.322   1.520   5.823 -0.0214  1.1857  2.5550
  147SAPE  C21616149   0.180   1.644   5.713  0.1284  0.2723  0.2205
  147SAPE  H16R16150   0.072   1.656   5.689  0.4429 -0.0137 -1.4319
  147SAPE  H16S16151   0.225   1.621   5.614 -1.0645  0.5860 -0.4106
  147SAPE  C21716152   0.220   1.776   5.775 -0.2230 -0.3076  0.4096
  147SAPE  H17R16153   0.237   1.849   5.692 -0.2318  1.6927  2.0798
  147SAPE  H17S16154   0.310   1.761   5.838 -1.1848 -0.1177  1.8641
  147SAPE  C21816155   0.116   1.832   5.879  0.1862  0.5852  0.0022
  147SAPE  H18R16156   0.167   1.920   5.924 -0.4620  0.9101  0.1147
  147SAPE  H18S16157   0.103   1.749   5.952 -2.6985  1.0450  0.1185
  147SAPE  C21916158  -0.021   1.885   5.836  0.3209  0.0371 -0.2602
  147SAPE  H19R16159  -0.076   1.927   5.924 -0.2756  0.5329 -0.8567
  147SAPE  H19S16160  -0.083   1.800   5.802  2.1573 -1.0979 -0.8721
  147SAPE  C22016161  -0.004   1.993   5.731  0.2436  0.5904  0.0729
  147SAPE  H20R16162  -0.102   2.044   5.719 -0.5424 -0.8615  0.1253
  147SAPE  H20S16163   0.039   1.965   5.632  0.4771  3.8143 -0.8586
  147SAPE  H20T16164   0.064   2.070   5.774 -3.3697  2.4199  3.0601
  147SAPE   C3316165   0.275   0.746   6.331  0.1311 -0.4795  0.0379
  147SAPE   H3X16166   0.172   0.705   6.331 -0.0916  0.0345 -0.9697
  147SAPE   H3Y16167   0.353   0.667   6.335  1.6954  1.0463  0.9794
  147SAPE   C3416168   0.299   0.823   6.202  0.7090 -0.2931  0.2477
  147SAPE   H4X16169   0.404   0.859   6.200  0.2265  1.4109  2.2766
  147SAPE   H4Y16170   0.235   0.910   6.177 -0.0999 -1.4755 -2.2014
  147SAPE   C3516171   0.286   0.735   6.080  0.0553 -0.0713 -0.0844
  147SAPE   H5X16172   0.180   0.705   6.066 -0.2288  1.3635 -1.2706
  147SAPE   H5Y16173   0.339   0.641   6.104  2.0798  1.0218 -0.0022
  147SAPE   C3616174   0.340   0.804   5.954  0.4828  0.4234 -0.4275
  147SAPE   H6X16175   0.446   0.793   5.984  0.5603  2.2394  0.0726
  147SAPE   H6Y16176   0.336   0.915   5.958 -1.3703  0.3511  2.4486
  147SAPE   C3716177   0.304   0.727   5.826  0.3420 -0.6478 -0.3821
  147SAPE   H7X16178   0.196   0.750   5.808 -0.0391 -1.2545  1.0045
  147SAPE   H7Y16179   0.317   0.617   5.823 -1.3126 -0.8935  0.2219
  147SAPE   C3816180   0.369   0.794   5.706  0.4891 -0.3788  0.4170
  147SAPE   H8X16181   0.477   0.786   5.730 -0.3222 -1.1908  4.6330
  147SAPE   H8Y16182   0.339   0.901   5.709  1.9549  0.1133 -1.0650
  147SAPE   C3916183   0.340   0.726   5.572 -0.5954 -1.2781 -0.8555
  147SAPE   H9X16184   0.241   0.752   5.529 -0.4186 -0.3314 -0.7085
  147SAPE   H9Y16185   0.340   0.617   5.590 -0.5977 -0.9177  1.7742
  147SAPE  C31016186   0.446   0.756   5.464  0.4419 -0.0485  0.7030
  147SAPE  H10X16187   0.416   0.709   5.368  0.8136  0.9395  0.0872
  147SAPE  H10Y16188   0.543   0.721   5.504  1.1435  0.7629 -0.2566
  147SAPE  C31116189   0.448   0.903   5.426  0.8996  0.2838 -0.2420
  147SAPE  H11X16190   0.472   0.963   5.517 -1.0183  0.7431  0.0071
  147SAPE  H11Y16191   0.348   0.946   5.404  0.9992  1.2938  1.1100
  147SAPE  C31216192   0.545   0.947   5.315  0.5011  0.0684  0.0307
  147SAPE  H12X16193   0.653   0.931   5.332  0.3136 -2.7029 -0.7919
  147SAPE  H12Y16194   0.540   1.057   5.298 -1.4470  0.0966  0.5352
  147SAPE  C31316195   0.528   0.885   5.176  0.2475 -0.5105 -0.1287
  147SAPE  H13X16196   0.517   0.776   5.194  0.5745 -0.2507  1.9076
  147SAPE  H13Y16197   0.626   0.898   5.124 -0.0819  3.0561 -0.1358
  147SAPE  C31416198   0.413   0.929   5.091  0.1368  0.0836 -0.0792
  147SAPE  H14X16199   0.315   0.904   5.139 -0.6610 -0.0327 -1.7124
  147SAPE  H14Y16200   0.426   0.866   5.001  0.7681  0.5409 -0.3068
  147SAPE  C31516201   0.411   1.073   5.048 -0.5552 -0.4847 -0.7270
  147SAPE  H15X16202   0.503   1.101   4.994 -1.2263  3.0264 -0.2537
  147SAPE  H15Y16203   0.415   1.132   5.142  0.5954 -2.0952  0.2941
  147SAPE  C31616204   0.284   1.111   4.974 -0.1242  0.1581  0.5726
  147SAPE  H16X16205   0.199   1.065   5.029  2.1350 -0.2345  4.1069
  147SAPE  H16Y16206   0.287   1.078   4.869  0.0197  1.4065  0.1635
  147SAPE  C31716207   0.263   1.264   4.977  0.0335 -0.0022 -0.4037
  147SAPE  H17X16208   0.167   1.276   4.922  1.1565  0.4443 -2.3703
  147SAPE  H17Y16209   0.334   1.318   4.910 -2.0886  1.3293 -1.6887
  147SAPE  C31816210   0.255   1.332   5.121  0.3256  0.3085 -0.0404
  147SAPE  H18X16211   0.202   1.429   5.117  1.5901  1.0787  1.0578
  147SAPE  H18Y16212   0.360   1.334   5.155  0.4997  0.6564 -0.5810
  147SAPE  H18Z16213   0.211   1.251   5.184  1.6904  0.2990  0.9486
  148SAPE     N16214   6.816   3.880   2.854 -0.0393 -0.2104  0.0615
  148SAPE   HN116215   6.804   3.839   2.949 -0.9926  1.2388  0.5868
  148SAPE   HN216216   6.906   3.932   2.858 -0.2847  0.1511  1.6978
  148SAPE   HN316217   6.743   3.951   2.837 -1.6283 -0.9088  3.2786
  148SAPE   C1216218   6.824   3.761   2.770  0.0365  0.3753 -0.3842
  148SAPE  H12A16219   6.814   3.780   2.660  0.3708 -1.3028 -0.7339
  148SAPE  H12B16220   6.741   3.690   2.788 -1.1475  0.6350 -3.9449
  148SAPE   C1116221   6.959   3.683   2.789 -0.3225  0.6689 -0.1955
  148SAPE  H11A16222   6.942   3.594   2.725 -0.3023 -0.8498  1.8114
  148SAPE  H11B16223   6.966   3.656   2.896 -3.4218  0.1098 -0.0463
  148SAPE     P16224   7.221   3.710   2.774 -0.2438  0.2700 -0.3454
  148SAPE   O1316225   7.236   3.580   2.705 -0.5656 -0.3671 -0.8224
  148SAPE   O1416226   7.306   3.820   2.721 -0.1911  0.2926 -0.4211
  148SAPE   O1216227   7.072   3.767   2.759 -0.0885 -0.0388  0.6925
  148SAPE   O1116228   7.243   3.695   2.927 -0.1164  0.2468  0.1029
  148SAPE    C116229   7.231   3.806   3.026 -0.1516  0.0272  0.1233
  148SAPE    HA16230   7.157   3.879   2.989 -2.1673 -1.6412  0.7097
  148SAPE    HB16231   7.200   3.764   3.124 -0.2711 -0.3758 -0.0876
  148SAPE    C216232   7.362   3.893   3.036 -0.0185 -0.7302 -0.1058
  148SAPE    HS16233   7.403   3.911   2.934 -1.4796  2.5297 -0.2317
  148SAPE   O2116234   7.454   3.834   3.117 -0.3007  0.0033 -0.3065
  148SAPE   C2116235   7.528   3.740   3.070 -0.0039  0.2133  0.0320
  148SAPE   O2216236   7.551   3.718   2.951  0.1992 -0.3854  0.2593
  148SAPE   C2216237   7.582   3.651   3.178 -0.3721  0.7482 -0.0931
  148SAPE   H2R16238   7.676   3.599   3.148 -0.9508 -0.9105  0.8648
  148SAPE   H2S16239   7.611   3.721   3.260  0.8879  0.6658 -0.4487
  148SAPE    C316240   7.337   4.032   3.104  0.1228 -0.3099  0.7523
  148SAPE    HX16241   7.258   4.081   3.042 -1.9128  0.8208  3.9930
  148SAPE    HY16242   7.419   4.106   3.089 -0.1844 -0.0450  0.3171
  148SAPE   O3116243   7.284   4.014   3.238  0.1372  0.0897  0.4401
  148SAPE   C3116244   7.277   4.128   3.305 -0.5400  0.3371 -0.3250
  148SAPE   O3216245   7.316   4.235   3.262 -0.2315 -0.4252 -0.2162
  148SAPE   C3216246   7.218   4.094   3.445  0.1663 -1.1416  0.7252
  148SAPE   H2X16247   7.264   3.996   3.471 -0.7269 -1.6758  0.3408
  148SAPE   H2Y16248   7.109   4.080   3.431  0.3307 -1.1568 -0.6340
  148SAPE   C2316249   7.496   3.544   3.245  0.0895  0.2792 -1.3639
  148SAPE   H3R16250   7.554   3.470   3.304 -1.7453 -0.8204 -0.8360
  148SAPE   H3S16251   7.433   3.488   3.173 -0.9508 -2.6846  1.5904
  148SAPE   C2416252   7.390   3.600   3.349  0.4833 -0.0496 -0.3271
  148SAPE   H4R16253   7.316   3.672   3.309  0.9894  1.7124  1.7308
  148SAPE   H4S16254   7.438   3.672   3.419 -2.1903  0.3950  1.1582
  148SAPE   C2516255   7.325   3.484   3.420 -0.2327  0.3986  0.0947
  148SAPE   H5R16256   7.283   3.411   3.350  1.7079 -0.9749  0.2950
  148SAPE   C2616257   7.309   3.457   3.554 -0.0781 -0.5681 -0.4781
  148SAPE   H6R16258   7.250   3.371   3.590  2.3213 -1.2137  2.2873
  148SAPE   C2716259   7.353   3.550   3.671 -0.1637 -0.1468 -0.3725
  148SAPE   H7R16260   7.387   3.653   3.645 -0.4854 -0.0080 -0.2464
  148SAPE   H7S16261   7.443   3.508   3.721 -0.4143  0.3202  0.4994
  148SAPE   C2816262   7.246   3.581   3.762  0.3496  0.6291 -0.2052
  148SAPE   H8R16263   7.186   3.660   3.715  1.9718  1.4514 -0.9793
  148SAPE   C2916264   7.254   3.557   3.894  0.2831 -0.0168 -0.5697
  148SAPE   H9R16265   7.161   3.582   3.948  1.5453 -0.5896  1.9971
  148SAPE  C21016266   7.350   3.468   3.973  1.1358  0.4252 -0.5022
  148SAPE  H10R16267   7.367   3.517   4.071 -0.6387 -1.4019  0.8163
  148SAPE  H10S16268   7.448   3.466   3.922  2.1696  1.1538  1.3666
  148SAPE  C21116269   7.292   3.325   3.985  0.4410 -0.4449 -0.2305
  148SAPE  H11R16270   7.260   3.277   3.891 -2.8389  1.1464 -0.0584
  148SAPE  C21216271   7.266   3.265   4.102  0.1136  0.1710  0.0269
  148SAPE  H12R16272   7.220   3.165   4.096  0.5360 -0.0173 -0.0544
  148SAPE  C21316273   7.258   3.327   4.237 -0.1863 -0.0257  0.1568
  148SAPE  H13R16274   7.164   3.300   4.291  1.0079 -0.3052  2.1748
  148SAPE  H13S16275   7.258   3.438   4.244  1.3598  0.1007 -1.3018
  148SAPE  C21416276   7.379   3.276   4.308 -0.1575 -0.6974 -0.4458
  148SAPE  H14R16277   7.428   3.189   4.262  0.7207 -0.5421  0.1585
  148SAPE  C21516278   7.435   3.323   4.423 -0.2539 -0.1274 -0.1651
  148SAPE  H15R16279   7.524   3.264   4.453  0.2069 -0.4961 -2.1155
  148SAPE  C21616280   7.386   3.441   4.502  0.1351  0.0098 -0.3423
  148SAPE  H16R16281   7.349   3.514   4.427  1.7436 -0.2767 -1.4661
  148SAPE  H16S16282   7.471   3.501   4.543  2.2171 -0.5745 -3.4699
  148SAPE  C21716283   7.286   3.421   4.617  0.9842  0.2661 -0.6429
  148SAPE  H17R16284   7.189   3.392   4.571 -0.4084 -0.4851  2.5015
  148SAPE  H17S16285   7.270   3.524   4.654  0.1505  1.1861 -3.3753
  148SAPE  C21816286   7.318   3.314   4.728 -0.5946 -0.1249  0.3712
  148SAPE  H18R16287   7.323   3.212   4.685  2.3026  0.9795 -2.3568
  148SAPE  H18S16288   7.235   3.312   4.802 -1.0938  1.0528 -0.1293
  148SAPE  C21916289   7.458   3.338   4.795 -0.3977 -0.5133 -0.3684
  148SAPE  H19R16290   7.528   3.364   4.713 -0.2071  1.8781  0.4614
  148SAPE  H19S16291   7.492   3.243   4.842  0.0610  0.1037  0.5749
  148SAPE  C22016292   7.449   3.440   4.911  0.3949 -0.1381  0.0473
  148SAPE  H20R16293   7.552   3.466   4.943  0.5918 -1.0522  0.1668
  148SAPE  H20S16294   7.391   3.395   4.994  1.2269  0.4716  0.9787
  148SAPE  H20T16295   7.391   3.531   4.881 -0.4793 -0.9585 -0.8144
  148SAPE   C3316296   7.252   4.203   3.548 -0.2515 -0.8335 -0.1140
  148SAPE   H3X16297   7.227   4.308   3.520  0.9385 -0.0974  1.3727
  148SAPE   H3Y16298   7.360   4.204   3.573 -0.4907 -3.5220  1.4883
  148SAPE   C3416299   7.187   4.169   3.673 -0.2275 -0.2856 -0.3097
  148SAPE   H4X16300   7.218   4.074   3.721  1.8721  0.6552  0.3008
  148SAPE   H4Y16301   7.078   4.154   3.658 -0.0486 -0.9615 -0.9333
  148SAPE   C3516302   7.198   4.287   3.773  0.0681  0.4728  0.1061
  148SAPE   H5X16303   7.122   4.366   3.759 -2.1015 -1.0201  2.4595
  148SAPE   H5Y16304   7.300   4.325   3.756 -0.1190  2.2079  2.3799
  148SAPE   C3616305   7.202   4.236   3.919 -1.0279  0.8434 -0.3936
  148SAPE   H6X16306   7.279   4.297   3.970  0.5929  0.1440 -1.9155
  148SAPE   H6Y16307   7.240   4.132   3.920 -0.8380  0.7465 -4.0841
  148SAPE   C3716308   7.080   4.250   4.008  0.6355  0.6344  0.1446
  148SAPE   H7X16309   7.000   4.184   3.967  0.7495  0.6309 -0.0772
  148SAPE   H7Y16310   7.032   4.350   4.005 -0.6813  0.0160 -0.6447
  148SAPE   C3816311   7.103   4.214   4.158  0.0386 -0.5526 -0.4771
  148SAPE   H8X16312   7.163   4.303   4.188 -1.4409  0.4536 -0.4275
  148SAPE   H8Y16313   7.162   4.120   4.166 -1.4760 -1.4295  1.1422
  148SAPE   C3916314   6.974   4.206   4.232  0.6139  0.0889  0.2403
  148SAPE   H9X16315   6.903   4.134   4.187  1.3559  0.0364 -0.8827
  148SAPE   H9Y16316   6.931   4.308   4.229 -1.9335 -0.9412 -0.1841
  148SAPE  C31016317   6.985   4.164   4.378  0.1469 -0.2208 -0.1432
  148SAPE  H10X16318   7.020   4.253   4.433 -2.7834  1.5701 -0.9705
  148SAPE  H10Y16319   7.065   4.087   4.391 -0.1605 -0.5210 -0.0288
  148SAPE  C31116320   6.854   4.115   4.439 -0.4737  0.2672  0.2845
  148SAPE  H11X16321   6.813   4.052   4.358  1.0823 -2.7763  1.6847
  148SAPE  H11Y16322   6.780   4.195   4.460 -1.5054 -0.4789 -0.4012
  148SAPE  C31216323   6.869   4.042   4.569 -0.7217  0.3221  0.2814
  148SAPE  H12X16324   6.947   3.965   4.552 -0.6895  0.4102  0.0264
  148SAPE  H12Y16325   6.776   4.000   4.615 -0.2887 -1.0946 -0.0754
  148SAPE  C31316326   6.901   4.136   4.688  0.1637 -0.2436 -0.0079
  148SAPE  H13X16327   6.809   4.195   4.709  0.6074  0.1380  0.9052
  148SAPE  H13Y16328   6.974   4.207   4.646 -0.9089  1.4670  0.9101
  148SAPE  C31416329   6.943   4.064   4.821 -0.3918  0.0754 -0.0313
  148SAPE  H14X16330   7.024   3.990   4.809  1.2515  1.9202 -1.0024
  148SAPE  H14Y16331   6.855   4.024   4.876 -1.4678  1.4257 -0.6894
  148SAPE  C31516332   6.999   4.157   4.933 -0.0954  0.2171 -0.3502
  148SAPE  H15X16333   6.936   4.248   4.949  2.2440  1.5918  1.7367
  148SAPE  H15Y16334   7.093   4.202   4.895 -1.0371  1.3082 -1.5183
  148SAPE  C31616335   6.999   4.087   5.066  0.0745 -0.6196 -0.1007
  148SAPE  H16X16336   7.070   4.003   5.079  1.7546  1.1067  3.2909
  148SAPE  H16Y16337   6.898   4.059   5.104 -0.0854 -0.5039 -0.4309
  148SAPE  C31716338   7.064   4.178   5.176  0.3348 -0.3927  0.1399
  148SAPE  H17X16339   7.165   4.212   5.143 -0.6056  1.4444 -1.0493
  148SAPE  H17Y16340   7.056   4.127   5.274 -0.8733  0.2335  0.3852
  148SAPE  C31816341   6.977   4.304   5.198  0.5807 -0.8414  0.6913
  148SAPE  H18X16342   7.002   4.375   5.116 -3.1154  0.8549  0.8201
  148SAPE  H18Y16343   7.000   4.350   5.296 -0.7931 -0.1016  0.6896
  148SAPE  H18Z16344   6.869   4.279   5.189  0.7135 -1.0415 -0.5096
  149SAPE     N16345   4.169   2.628   7.687  0.2255  0.1702  0.3006
  149SAPE   HN116346   4.153   2.728   7.711 -1.6390  0.2320 -0.9443
  149SAPE   HN216347   4.079   2.578   7.671  0.5207 -0.1617 -0.3491
  149SAPE   HN316348   4.230   2.574   7.751 -1.0656  1.8872  3.1680
  149SAPE   C1216349   4.242   2.624   7.554  0.1053  0.2307 -0.5834
  149SAPE  H12A16350   4.338   2.678   7.566  0.1909  0.4107 -1.9014
  149SAPE  H12B16351   4.187   2.681   7.476  2.2615 -0.0171 -2.3980
  149SAPE   C1116352   4.277   2.480   7.511  0.3778 -0.1202 -0.8803
  149SAPE  H11A16353   4.367   2.434   7.557  1.0591  2.1509  0.2001
  149SAPE  H11B16354   4.311   2.481   7.405 -2.0148  3.6318 -1.7845
  149SAPE     P16355   4.060   2.349   7.420  0.0031  0.0513  0.0542
  149SAPE   O1316356   4.070   2.205   7.410  0.5442  0.2572  0.0702
  149SAPE   O1416357   3.927   2.399   7.460  0.7176  0.0850 -0.1855
  149SAPE   O1216358   4.160   2.394   7.539 -0.3637 -0.0193  0.5333
  149SAPE   O1116359   4.108   2.426   7.288 -0.1162  0.5674 -0.1051
  149SAPE    C116360   4.152   2.326   7.186  0.1590 -0.1933 -0.4191
  149SAPE    HA16361   4.262   2.322   7.192  0.2129 -0.2581 -1.3320
  149SAPE    HB16362   4.100   2.228   7.187  0.1188 -0.2605  2.6847
  149SAPE    C216363   4.101   2.365   7.043  0.1603  0.2821 -0.2425
  149SAPE    HS16364   4.139   2.288   6.973 -0.2810 -0.9655  0.8468
  149SAPE   O2116365   4.145   2.497   7.014  0.0283 -0.7153  0.0914
  149SAPE   C2116366   4.260   2.516   6.943 -0.7428  0.5700  0.0272
  149SAPE   O2216367   4.335   2.428   6.911  0.5495 -0.2195  0.0866
  149SAPE   C2216368   4.269   2.668   6.914 -0.2798 -0.0381 -0.8438
  149SAPE   H2R16369   4.168   2.712   6.906  0.2273  1.5944  0.9556
  149SAPE   H2S16370   4.312   2.717   7.004 -0.3514  0.6274 -1.1692
  149SAPE    C316371   3.947   2.362   7.014 -0.4121  0.1364 -0.3693
  149SAPE    HX16372   3.935   2.436   6.932  0.8673 -0.2745 -0.9553
  149SAPE    HY16373   3.907   2.385   7.115 -1.3798 -0.1477 -0.6714
  149SAPE   O3116374   3.910   2.232   6.969 -0.0483 -0.0510 -0.1983
  149SAPE   C3116375   3.788   2.206   6.990  0.7390 -0.2580 -0.4526
  149SAPE   O3216376   3.709   2.267   7.066  0.2204 -0.2917  0.1837
  149SAPE   C3216377   3.734   2.093   6.899 -0.3283  0.5009  0.3541
  149SAPE   H2X16378   3.628   2.078   6.928 -0.8660 -0.8023 -1.9985
  149SAPE   H2Y16379   3.797   2.005   6.925  0.9113  1.1357 -0.3767
  149SAPE   C2316380   4.369   2.702   6.801  0.0343  0.0675 -0.3328
  149SAPE   H3R16381   4.454   2.631   6.796  1.4809  1.6647  0.4543
  149SAPE   H3S16382   4.408   2.803   6.825  1.0913 -0.6537  1.1221
  149SAPE   C2416383   4.301   2.707   6.665  0.0608 -0.2241  0.1394
  149SAPE   H4R16384   4.202   2.756   6.672  0.1706 -0.0542  0.5153
  149SAPE   H4S16385   4.270   2.601   6.659  1.9603 -0.9360  1.8007
  149SAPE   C2516386   4.378   2.770   6.546 -0.1226 -0.8693 -0.0856
  149SAPE   H5R16387   4.408   2.876   6.554 -0.7469 -0.7018  0.0807
  149SAPE   C2616388   4.425   2.696   6.448 -0.0661  0.3552 -0.4011
  149SAPE   H6R16389   4.472   2.748   6.363  0.4312 -0.0694 -0.3948
  149SAPE   C2716390   4.398   2.556   6.427 -0.3342  0.5545 -0.9388
  149SAPE   H7R16391   4.293   2.521   6.416  0.4477 -2.5159  0.1884
  149SAPE   H7S16392   4.443   2.505   6.515  0.4662 -0.0123 -1.6575
  149SAPE   C2816393   4.475   2.504   6.308 -0.1478 -0.1754  0.0248
  149SAPE   H8R16394   4.575   2.460   6.318 -0.2820 -0.3732  0.5271
  149SAPE   C2916395   4.429   2.529   6.182  0.2601  0.5034 -0.4855
  149SAPE   H9R16396   4.476   2.477   6.098 -0.1961  0.9433 -1.0266
  149SAPE  C21016397   4.301   2.596   6.140  0.0144  0.1485 -0.0364
  149SAPE  H10R16398   4.232   2.619   6.224 -1.1118 -1.1472 -0.5641
  149SAPE  H10S16399   4.261   2.509   6.084 -1.1304  0.3728  0.4023
  149SAPE  C21116400   4.307   2.715   6.041 -1.0534  0.4463 -0.0455
  149SAPE  H11R16401   4.300   2.816   6.084  0.1202 -0.3734  2.2653
  149SAPE  C21216402   4.333   2.701   5.906 -0.3014 -0.1722  0.1173
  149SAPE  H12R16403   4.329   2.792   5.844 -3.3784  1.1242  1.9906
  149SAPE  C21316404   4.370   2.578   5.824  0.3390 -0.1212  0.2418
  149SAPE  H13R16405   4.274   2.521   5.819  1.0765 -1.3309 -0.6207
  149SAPE  H13S16406   4.438   2.511   5.882  2.6665 -1.2396 -3.4355
  149SAPE  C21416407   4.421   2.619   5.688  0.5256 -0.3281 -0.3318
  149SAPE  H14R16408   4.530   2.633   5.685  0.4569  0.3581  0.2435
  149SAPE  C21516409   4.349   2.652   5.580 -0.1275 -0.1831 -0.1000
  149SAPE  H15R16410   4.411   2.684   5.495 -0.2057  1.4416  0.4272
  149SAPE  C21616411   4.196   2.655   5.554 -0.8088  0.0711 -0.5173
  149SAPE  H16R16412   4.158   2.732   5.625 -0.4514 -0.5686  0.4001
  149SAPE  H16S16413   4.140   2.561   5.577 -0.0308 -0.3270 -0.2204
  149SAPE  C21716414   4.147   2.688   5.414  0.2079  0.3709 -0.4023
  149SAPE  H17R16415   4.196   2.615   5.346  2.1260  0.0104  1.2809
  149SAPE  H17S16416   4.173   2.791   5.384 -0.0822  0.8101  0.7923
  149SAPE  C21816417   3.996   2.675   5.394  0.8657 -0.4072  0.3738
  149SAPE  H18R16418   3.954   2.737   5.475  1.9362 -0.3318  0.8883
  149SAPE  H18S16419   3.961   2.572   5.417  0.6340  0.0429  2.1792
  149SAPE  C21916420   3.954   2.734   5.258  0.2197 -0.0081  0.5564
  149SAPE  H19R16421   4.017   2.824   5.243  2.8487 -1.0162  4.0991
  149SAPE  H19S16422   3.846   2.759   5.257  0.1125 -0.3720 -1.3645
  149SAPE  C22016423   3.965   2.640   5.134 -0.2191  0.4007 -0.2116
  149SAPE  H20R16424   3.916   2.544   5.163 -0.4467  0.1751 -1.3109
  149SAPE  H20S16425   4.074   2.633   5.111 -0.1356 -2.0996  0.5642
  149SAPE  H20T16426   3.904   2.682   5.051 -0.4350  1.2501  0.3680
  149SAPE   C3316427   3.767   2.120   6.753 -0.5915  0.2905  0.5836
  149SAPE   H3X16428   3.741   2.034   6.686  0.4993 -0.3769  0.9956
  149SAPE   H3Y16429   3.874   2.140   6.731 -0.5334 -1.4715 -1.0461
  149SAPE   C3416430   3.689   2.238   6.701  0.4344 -0.0234 -0.0294
  149SAPE   H4X16431   3.742   2.334   6.722  0.3456  0.3250 -1.3365
  149SAPE   H4Y16432   3.590   2.240   6.750 -0.1717 -0.6034 -1.1857
  149SAPE   C3516433   3.663   2.215   6.552  0.0647  0.3245  0.6414
  149SAPE   H5X16434   3.591   2.294   6.520  0.4120  0.3391 -0.1356
  149SAPE   H5Y16435   3.613   2.117   6.543 -2.0939  1.4561 -0.5539
  149SAPE   C3616436   3.780   2.219   6.457  0.3008  0.1166 -0.0268
  149SAPE   H6X16437   3.863   2.160   6.501 -0.5257 -2.0823 -1.2099
  149SAPE   H6Y16438   3.808   2.325   6.443  2.6796 -0.6596 -1.8715
  149SAPE   C3716439   3.747   2.168   6.319 -0.1034 -0.1965  0.3492
  149SAPE   H7X16440   3.707   2.065   6.329  2.0879 -1.1790 -0.4031
  149SAPE   H7Y16441   3.839   2.158   6.258 -0.1591 -0.5870  0.3277
  149SAPE   C3816442   3.639   2.245   6.235  0.4675  0.0396 -0.2885
  149SAPE   H8X16443   3.684   2.343   6.206  0.8545  0.1465  0.6358
  149SAPE   H8Y16444   3.545   2.278   6.285  0.6499 -0.9960  0.7881
  149SAPE   C3916445   3.579   2.166   6.118 -0.0697 -0.1125  0.2006
  149SAPE   H9X16446   3.530   2.074   6.157  2.0907 -1.0095  0.9308
  149SAPE   H9Y16447   3.655   2.137   6.042 -2.4381 -0.4695 -2.1785
  149SAPE  C31016448   3.471   2.247   6.027 -0.7582  0.0578  0.1595
  149SAPE  H10X16449   3.513   2.343   5.991 -0.6100 -0.6835 -1.7897
  149SAPE  H10Y16450   3.381   2.262   6.090 -2.2459 -0.0746 -1.8257
  149SAPE  C31116451   3.433   2.162   5.904 -0.5563 -0.0508 -0.1826
  149SAPE  H11X16452   3.378   2.072   5.937  0.9305 -1.1313 -0.5380
  149SAPE  H11Y16453   3.527   2.119   5.864  0.9471  3.1529 -0.4468
  149SAPE  C31216454   3.370   2.247   5.800  0.5143 -0.1246  0.8311
  149SAPE  H12X16455   3.432   2.330   5.760  2.0864 -2.7936 -2.8829
  149SAPE  H12Y16456   3.271   2.281   5.838  0.4580  0.0729  0.5092
  149SAPE  C31316457   3.323   2.162   5.672 -0.1425  0.7578 -0.3031
  149SAPE  H13X16458   3.273   2.076   5.722  1.0620 -1.9968 -3.4069
  149SAPE  H13Y16459   3.413   2.121   5.620 -0.5686  1.6985 -1.8633
  149SAPE  C31416460   3.234   2.232   5.571  0.3545  0.3921  0.3049
  149SAPE  H14X16461   3.282   2.329   5.548 -0.7780  1.2049  1.2773
  149SAPE  H14Y16462   3.137   2.261   5.617  0.5118  0.0645  0.8572
  149SAPE  C31516463   3.211   2.147   5.441 -0.3463  0.3180 -0.1915
  149SAPE  H15X16464   3.116   2.188   5.401  0.3324  0.6102 -1.5505
  149SAPE  H15Y16465   3.193   2.042   5.475 -0.9031  0.9247  1.5006
  149SAPE  C31616466   3.319   2.161   5.331  0.8527  0.6398 -0.1199
  149SAPE  H16X16467   3.420   2.146   5.375  0.8443  0.3839 -0.1894
  149SAPE  H16Y16468   3.314   2.269   5.303 -1.1263  0.6399  0.1300
  149SAPE  C31716469   3.282   2.071   5.212  0.7641  0.1664  0.2144
  149SAPE  H17X16470   3.180   2.104   5.185 -0.0432 -2.4041 -0.1722
  149SAPE  H17Y16471   3.279   1.970   5.257  1.4038  0.3693  0.7304
  149SAPE  C31816472   3.371   2.076   5.088  0.1557 -0.5227 -0.1935
  149SAPE  H18X16473   3.401   2.176   5.051  0.1294 -0.0657  0.9804
  149SAPE  H18Y16474   3.309   2.030   5.008  0.9925  0.9099 -1.7373
  149SAPE  H18Z16475   3.469   2.025   5.100  0.5205 -0.0246 -1.0101
  150SAPE     N16476   0.426   4.808   7.287 -0.4573  0.3116 -0.1408
  150SAPE   HN116477   0.445   4.743   7.366 -1.9175 -1.4108 -1.1094
  150SAPE   HN216478   0.329   4.845   7.286 -0.7145 -0.3544 -1.1528
  150SAPE   HN316479   0.448   4.760   7.197  2.2754 -0.5144  0.8929
  150SAPE   C1216480   0.514   4.928   7.305 -1.3119  0.4394  0.5202
  150SAPE  H12A16481   0.447   5.006   7.348 -0.0565  1.3310  0.9187
  150SAPE  H12B16482   0.545   4.960   7.203 -1.7494  0.0693  0.2679
  150SAPE   C1116483   0.626   4.904   7.412 -0.6195 -0.3987  0.4903
  150SAPE  H11A16484   0.562   4.882   7.500 -2.4736  0.1941 -0.6721
  150SAPE  H11B16485   0.687   4.991   7.445 -2.7066  0.0861  3.4348
  150SAPE     P16486   0.860   4.829   7.334  0.3056 -0.4466  0.1021
  150SAPE   O1316487   0.954   4.771   7.435  1.0607 -0.3605 -0.0903
  150SAPE   O1416488   0.873   4.791   7.192  0.1496  0.4641  0.2106
  150SAPE   O1216489   0.713   4.797   7.376  0.5106 -0.8558  0.0927
  150SAPE   O1116490   0.884   4.985   7.322 -0.1867 -0.2640  0.3505
  150SAPE    C116491   1.002   5.048   7.370 -0.2037  0.3034  0.2078
  150SAPE    HA16492   1.005   5.052   7.481 -3.0296 -1.3318  0.4306
  150SAPE    HB16493   1.089   4.993   7.330 -1.9499 -2.2277 -0.3540
  150SAPE    C216494   1.003   5.197   7.330 -0.0737  0.1330  0.9059
  150SAPE    HS16495   0.903   5.235   7.360 -0.7848 -0.8459 -0.1520
  150SAPE   O2116496   1.035   5.220   7.188  0.1499 -0.1776  0.2016
  150SAPE   C2116497   0.934   5.218   7.103  0.0887  0.3629 -0.2192
  150SAPE   O2216498   0.817   5.208   7.133  0.2274 -0.1489 -0.5217
  150SAPE   C2216499   0.983   5.204   6.962 -0.4100  0.1892 -0.0990
  150SAPE   H2R16500   0.935   5.286   6.904 -2.0576 -0.0539  0.8686
  150SAPE   H2S16501   1.092   5.223   6.947 -0.6450  0.9883 -0.8885
  150SAPE    C316502   1.101   5.275   7.421 -0.0559  0.3267 -0.5057
  150SAPE    HX16503   1.197   5.220   7.416 -0.5873 -0.6143 -0.6504
  150SAPE    HY16504   1.080   5.258   7.529  1.9263  0.7789 -0.0210
  150SAPE   O3116505   1.110   5.414   7.381  0.1425  0.3742 -0.1063
  150SAPE   C3116506   1.008   5.484   7.421 -0.5597  0.3515 -0.3954
  150SAPE   O3216507   0.914   5.451   7.497 -0.6860  0.0401  0.7220
  150SAPE   C3216508   1.012   5.620   7.348  0.1880 -0.0928 -0.3680
  150SAPE   H2X16509   1.114   5.649   7.313  0.6334 -0.2770  0.7432
  150SAPE   H2Y16510   0.984   5.687   7.432  0.6592  0.1329 -0.3875
  150SAPE   C2316511   0.942   5.069   6.905  0.2293  0.1875  1.1390
  150SAPE   H3R16512   0.832   5.061   6.912 -0.3289  3.3265 -1.5388
  150SAPE   H3S16513   0.985   4.994   6.975  2.0945  1.5837  1.5639
  150SAPE   C2416514   0.994   5.053   6.762  0.0098  0.0765  0.1061
  150SAPE   H4R16515   1.104   5.073   6.766 -0.3163  2.2274 -0.3371
  150SAPE   H4S16516   0.948   5.140   6.710  0.2395 -0.1901 -0.5628
  150SAPE   C2516517   0.971   4.916   6.706  0.4696 -0.1374  0.0167
  150SAPE   H5R16518   1.023   4.840   6.766 -0.9809 -0.2781  1.1489
  150SAPE   C2616519   0.895   4.887   6.595 -0.2442 -0.4246  0.3698
  150SAPE   H6R16520   0.863   4.786   6.564 -0.6019  0.1415 -1.2426
  150SAPE   C2716521   0.832   4.990   6.496 -0.4243  0.3281 -0.7594
  150SAPE   H7R16522   0.778   5.074   6.544 -0.3533 -0.3993  0.6217
  150SAPE   H7S16523   0.744   4.945   6.445  0.5397 -0.9546 -1.3738
  150SAPE   C2816524   0.937   5.039   6.396 -0.2930  0.2968 -0.2850
  150SAPE   H8R16525   1.024   5.088   6.442 -0.3640  0.2962 -0.1485
  150SAPE   C2916526   0.942   5.015   6.258  0.1035  0.2646  0.0202
  150SAPE   H9R16527   1.027   5.057   6.202  0.7419 -0.1961  0.6272
  150SAPE  C21016528   0.843   4.943   6.170 -0.0406 -0.4029 -0.2200
  150SAPE  H10R16529   0.741   4.947   6.215 -0.0255  1.9526 -0.2770
  150SAPE  H10S16530   0.870   4.836   6.156 -1.9182 -0.9500  0.0625
  150SAPE  C21116531   0.821   5.001   6.033  0.2957 -0.3609 -0.3671
  150SAPE  H11R16532   0.861   5.100   6.008 -1.0281  0.1572 -0.5463
  150SAPE  C21216533   0.776   4.924   5.928 -0.8390  0.1463  0.1823
  150SAPE  H12R16534   0.765   4.970   5.828 -0.7129 -0.2378 -0.0099
  150SAPE  C21316535   0.717   4.787   5.930  0.4170 -0.0211  0.1441
  150SAPE  H13R16536   0.609   4.793   5.907  0.1460 -0.9156  1.0861
  150SAPE  H13S16537   0.715   4.740   6.031 -0.0390  0.1928  0.2342
  150SAPE  C21416538   0.783   4.695   5.828 -0.3654  0.1394 -0.5053
  150SAPE  H14R16539   0.882   4.722   5.788 -0.7231  1.1857 -0.7117
  150SAPE  C21516540   0.719   4.598   5.755 -0.5129  0.4897  0.0573
  150SAPE  H15R16541   0.772   4.547   5.673 -4.1847 -4.0590  0.0853
  150SAPE  C21616542   0.577   4.538   5.765 -0.1778 -0.2061  0.4467
  150SAPE  H16R16543   0.527   4.555   5.863 -0.7319 -1.9588  0.5114
  150SAPE  H16S16544   0.597   4.429   5.776 -2.1369 -0.8085 -1.3425
  150SAPE  C21716545   0.475   4.563   5.656  0.4175 -0.5637 -0.2136
  150SAPE  H17R16546   0.487   4.671   5.636 -0.0547 -0.4840 -0.0854
  150SAPE  H17S16547   0.374   4.547   5.700  0.2924 -0.4241 -0.4483
  150SAPE  C21816548   0.488   4.474   5.537 -0.8378  0.6195 -0.4790
  150SAPE  H18R16549   0.442   4.376   5.562 -3.8526  2.0189 -0.0962
  150SAPE  H18S16550   0.595   4.462   5.509  0.4564  0.6059  3.6596
  150SAPE  C21916551   0.409   4.518   5.422  0.1739 -0.0788 -0.1667
  150SAPE  H19R16552   0.441   4.621   5.397  1.4768 -0.0985  1.2755
  150SAPE  H19S16553   0.302   4.517   5.452  0.3027 -0.6967  0.3014
  150SAPE  C22016554   0.424   4.444   5.285 -0.5682 -0.5294  0.1998
  150SAPE  H20R16555   0.484   4.350   5.282  1.9699  0.9910  0.8882
  150SAPE  H20S16556   0.479   4.509   5.214 -1.4553 -1.3106 -1.2460
  150SAPE  H20T16557   0.328   4.427   5.232 -1.9430  1.0663  2.0276
  150SAPE   C3316558   0.906   5.619   7.231 -0.5152  0.1003 -1.1009
  150SAPE   H3X16559   0.890   5.727   7.210  1.2891  0.7007  0.3723
  150SAPE   H3Y16560   0.805   5.582   7.258 -0.1036 -2.8869 -3.1085
  150SAPE   C3416561   0.953   5.549   7.103 -0.3667  1.3618 -0.1866
  150SAPE   H4X16562   0.880   5.476   7.062  1.5414 -0.1736 -1.0682
  150SAPE   H4Y16563   1.048   5.498   7.128 -1.0531 -0.9807 -1.9757
  150SAPE   C3516564   0.988   5.644   6.985  0.1078  0.0595  0.0375
  150SAPE   H5X16565   1.068   5.707   7.029 -0.6221 -0.6063  2.4547
  150SAPE   H5Y16566   0.895   5.704   6.973 -0.1411 -0.7551 -2.8479
  150SAPE   C3616567   1.038   5.583   6.855  0.6564  0.2218  0.2036
  150SAPE   H6X16568   1.030   5.662   6.778  2.6006  1.9619  1.6699
  150SAPE   H6Y16569   0.977   5.498   6.818  0.8050 -1.3575  3.2512
  150SAPE   C3716570   1.187   5.539   6.863  0.7385  0.1719  0.7637
  150SAPE   H7X16571   1.197   5.473   6.952  0.3275  1.3720  1.7287
  150SAPE   H7Y16572   1.246   5.628   6.892  0.0629  1.5185 -1.6910
  150SAPE   C3816573   1.248   5.472   6.740  0.6163 -0.2255  0.0094
  150SAPE   H8X16574   1.355   5.445   6.748  0.8780 -0.2095 -2.5848
  150SAPE   H8Y16575   1.250   5.539   6.652 -0.0641 -0.4547 -0.1934
  150SAPE   C3916576   1.178   5.345   6.685  0.1619  0.3148 -0.1280
  150SAPE   H9X16577   1.072   5.367   6.664 -0.0196  0.1760  0.6111
  150SAPE   H9Y16578   1.183   5.281   6.776  1.2617 -2.5714 -2.0598
  150SAPE  C31016579   1.238   5.284   6.561 -0.3557 -0.0837  0.2860
  150SAPE  H10X16580   1.196   5.184   6.537  0.7343 -0.1793 -1.4224
  150SAPE  H10Y16581   1.347   5.278   6.582 -0.7619 -3.2946  2.0158
  150SAPE  C31116582   1.219   5.373   6.436 -0.4575  0.1472 -0.3685
  150SAPE  H11X16583   1.269   5.470   6.459 -0.8392  0.2123  0.2265
  150SAPE  H11Y16584   1.109   5.383   6.443 -0.4817 -0.2180 -0.1831
  150SAPE  C31216585   1.275   5.306   6.305  0.4300  0.5789 -0.3543
  150SAPE  H12X16586   1.232   5.207   6.281 -0.5142  1.0013 -0.4513
  150SAPE  H12Y16587   1.385   5.295   6.318  0.4459  1.5293  0.4930
  150SAPE  C31316588   1.229   5.381   6.184  0.2901  0.0562 -0.3359
  150SAPE  H13X16589   1.271   5.484   6.189 -1.8059  1.1310 -2.4778
  150SAPE  H13Y16590   1.118   5.392   6.188 -0.0969 -2.4893 -1.9205
  150SAPE  C31416591   1.262   5.324   6.045  0.3382  0.2159  0.3069
  150SAPE  H14X16592   1.367   5.290   6.036 -0.5844 -2.4414 -2.3092
  150SAPE  H14Y16593   1.248   5.402   5.966  0.8846 -2.7820 -3.0260
  150SAPE  C31516594   1.182   5.206   6.008 -0.2840  0.3148  0.2788
  150SAPE  H15X16595   1.081   5.242   5.976 -0.9925 -1.2302  0.6781
  150SAPE  H15Y16596   1.176   5.137   6.094  0.3990  0.6613  0.6093
  150SAPE  C31616597   1.239   5.125   5.893  1.0911 -0.1838  0.5708
  150SAPE  H16X16598   1.332   5.072   5.925 -0.2433 -2.2287  1.2168
  150SAPE  H16Y16599   1.263   5.180   5.799  1.4726 -0.5159  0.4689
  150SAPE  C31716600   1.136   5.018   5.840 -0.5725 -0.1931  0.2154
  150SAPE  H17X16601   1.044   5.075   5.815 -1.4955 -1.4138  0.7464
  150SAPE  H17Y16602   1.107   4.945   5.918  1.8143  0.9917  2.3428
  150SAPE  C31816603   1.168   4.966   5.699 -0.5224  0.2061  0.1705
  150SAPE  H18X16604   1.262   4.906   5.699 -0.6987 -0.0888  1.1267
  150SAPE  H18Y16605   1.186   5.063   5.648 -1.2735  0.1916 -0.1290
  150SAPE  H18Z16606   1.082   4.917   5.649  0.6879 -1.9712  0.0453
  151SAPE     N16607   6.880   1.999   7.539  0.0394  0.0707 -0.2877
  151SAPE   HN116608   6.837   2.071   7.600  0.1173 -0.5946  0.5560
  151SAPE   HN216609   6.793   1.959   7.500 -0.6738 -0.7506  2.0045
  151SAPE   HN316610   6.922   1.925   7.598 -0.1498 -1.2081 -1.7078
  151SAPE   C1216611   6.953   2.065   7.421  0.1483 -0.7021  0.3052
  151SAPE  H12A16612   6.956   1.980   7.350 -0.1595 -0.6949  0.2815
  151SAPE  H12B16613   7.058   2.097   7.444 -0.0407  1.0399 -1.0156
  151SAPE   C1116614   6.874   2.187   7.386 -0.5197  0.3936  0.3046
  151SAPE  H11A16615   6.773   2.147   7.363  0.8656 -1.9709 -2.1054
  151SAPE  H11B16616   6.917   2.238   7.298 -1.0165 -1.3917 -1.0198
  151SAPE     P16617   6.752   2.320   7.573 -0.3952 -0.2304 -0.2181
  151SAPE   O1316618   6.717   2.193   7.631  0.1902  0.1567  0.3778
  151SAPE   O1416619   6.783   2.427   7.673 -0.6609 -0.1459  1.1406
  151SAPE   O1216620   6.877   2.293   7.486  0.3791 -0.0569 -0.2152
  151SAPE   O1116621   6.649   2.358   7.461 -0.0494 -0.5992 -0.5317
  151SAPE    C116622   6.681   2.472   7.370  0.2962  0.9334 -1.3001
  151SAPE    HA16623   6.614   2.560   7.384 -1.0661 -0.3538  0.8610
  151SAPE    HB16624   6.784   2.509   7.391  0.6698 -1.4677  1.8638
  151SAPE    C216625   6.677   2.426   7.225 -0.3499  0.6614  0.3251
  151SAPE    HS16626   6.778   2.385   7.208 -2.3322 -3.7627 -2.4165
  151SAPE   O2116627   6.653   2.540   7.140  0.4209  0.1740 -0.4362
  151SAPE   C2116628   6.748   2.627   7.128 -0.0005  0.4167 -0.1222
  151SAPE   O2216629   6.859   2.621   7.181  0.6332  0.6348 -0.1802
  151SAPE   C2216630   6.713   2.731   7.028 -0.4901 -0.3627  0.2447
  151SAPE   H2R16631   6.640   2.699   6.950 -1.0907  1.9997 -0.2607
  151SAPE   H2S16632   6.665   2.811   7.089  0.4815 -0.2722  0.9082
  151SAPE    C316633   6.566   2.322   7.199  0.4467  0.8357  0.7296
  151SAPE    HX16634   6.485   2.384   7.243 -1.8083  1.1797 -3.4219
  151SAPE    HY16635   6.578   2.234   7.266 -0.5357 -1.0366 -1.4578
  151SAPE   O3116636   6.549   2.283   7.058  0.3977 -0.0355  0.2413
  151SAPE   C3116637   6.642   2.187   7.022  0.1949 -0.3581 -0.2568
  151SAPE   O3216638   6.727   2.139   7.092  0.4434  0.2593  0.8327
  151SAPE   C3216639   6.621   2.146   6.878 -0.9037  0.4383 -0.5421
  151SAPE   H2X16640   6.597   2.237   6.819 -1.8565 -0.6193 -1.8526
  151SAPE   H2Y16641   6.538   2.072   6.875 -1.6479  1.2761 -2.0854
  151SAPE   C2316642   6.840   2.800   6.962  0.6809  0.3701 -0.1575
  151SAPE   H3R16643   6.924   2.789   7.034 -1.7022 -1.5203  2.5452
  151SAPE   H3S16644   6.807   2.905   6.952 -1.4256 -0.3809 -1.7617
  151SAPE   C2416645   6.873   2.737   6.827  0.0187 -0.2692 -0.1494
  151SAPE   H4R16646   6.779   2.734   6.769 -0.3549 -1.5513  0.4821
  151SAPE   H4S16647   6.910   2.636   6.854 -0.0144 -0.0117  0.9346
  151SAPE   C2516648   6.982   2.807   6.751 -0.3473 -0.2824 -0.8385
  151SAPE   H5R16649   7.064   2.839   6.817 -1.7196  0.8926  0.3566
  151SAPE   C2616650   6.984   2.840   6.622 -0.0423  0.1628 -0.2588
  151SAPE   H6R16651   7.069   2.899   6.584  1.1897 -1.5514 -0.2936
  151SAPE   C2716652   6.868   2.817   6.528 -0.3187  0.0997 -0.0525
  151SAPE   H7R16653   6.818   2.718   6.537 -0.7521  0.2179 -1.0006
  151SAPE   H7S16654   6.918   2.811   6.429  2.5049 -3.0484  1.3410
  151SAPE   C2816655   6.776   2.935   6.537  0.0503  1.0160  0.3537
  151SAPE   H8R16656   6.754   2.958   6.643 -0.8310  0.0457  0.3990
  151SAPE   C2916657   6.720   3.008   6.442 -1.2981  0.3170 -0.3150
  151SAPE   H9R16658   6.674   3.101   6.478  0.4674  0.6594  1.1879
  151SAPE  C21016659   6.739   3.004   6.300 -0.0918 -0.2123  0.3549
  151SAPE  H10R16660   6.645   3.025   6.243 -2.3470 -2.1790  3.0606
  151SAPE  H10S16661   6.753   2.897   6.276  2.8522  0.0990  0.4096
  151SAPE  C21116662   6.864   3.079   6.258  0.4328  0.4530  0.0767
  151SAPE  H11R16663   6.954   3.078   6.322  0.3384 -0.4491  0.2019
  151SAPE  C21216664   6.890   3.148   6.145  0.6544  0.1615 -0.1291
  151SAPE  H12R16665   6.994   3.181   6.128  0.7768  0.7460  1.5672
  151SAPE  C21316666   6.784   3.159   6.035  0.2400  0.9813 -0.3586
  151SAPE  H13R16667   6.782   3.258   5.985 -0.1662  0.3151 -1.7418
  151SAPE  H13S16668   6.677   3.141   6.058  1.0590 -2.0984  1.6807
  151SAPE  C21416669   6.827   3.067   5.925  0.0861  0.4407  0.1398
  151SAPE  H14R16670   6.866   2.972   5.965 -0.1983  1.0175  1.8764
  151SAPE  C21516671   6.812   3.084   5.795  0.3040  0.2203 -0.7334
  151SAPE  H15R16672   6.864   3.012   5.730 -1.0019 -0.9724 -0.4997
  151SAPE  C21616673   6.761   3.200   5.723  0.3491  0.2253 -0.2551
  151SAPE  H16R16674   6.703   3.270   5.786  0.0116  0.6473 -1.0107
  151SAPE  H16S16675   6.691   3.166   5.644  0.5840  1.8690 -1.2315
  151SAPE  C21716676   6.869   3.271   5.649  0.2646 -0.1892 -0.4270
  151SAPE  H17R16677   6.814   3.347   5.587  0.2240  0.3955  0.3154
  151SAPE  H17S16678   6.932   3.207   5.584  2.7913  1.3722  0.3714
  151SAPE  C21816679   6.959   3.359   5.747  0.2520 -0.7986  0.4100
  151SAPE  H18R16680   7.044   3.301   5.788 -0.6488 -3.5985 -1.4167
  151SAPE  H18S16681   6.899   3.407   5.827  1.6932  2.5661 -0.3295
  151SAPE  C21916682   7.026   3.480   5.676 -0.1555  0.2856 -0.7648
  151SAPE  H19R16683   7.104   3.523   5.742 -1.2340  1.0914  0.0248
  151SAPE  H19S16684   6.958   3.566   5.655  1.2251  2.7033  3.5640
  151SAPE  C22016685   7.095   3.439   5.547  0.0490 -0.0754 -0.4380
  151SAPE  H20R16686   7.014   3.399   5.483 -0.7730  0.1321  0.4536
  151SAPE  H20S16687   7.163   3.356   5.575 -1.9162 -1.3843  0.7344
  151SAPE  H20T16688   7.142   3.520   5.487  0.8971 -2.2391 -2.8447
  151SAPE   C3316689   6.744   2.081   6.806 -0.4979 -0.6353  0.2141
  151SAPE   H3X16690   6.785   2.001   6.870 -0.9204 -1.3040 -0.3273
  151SAPE   H3Y16691   6.819   2.161   6.791 -2.1548  1.3106  1.7508
  151SAPE   C3416692   6.724   2.011   6.670 -0.2226  0.1651 -0.0103
  151SAPE   H4X16693   6.661   1.920   6.672 -1.7448  1.1660  0.0377
  151SAPE   H4Y16694   6.823   1.969   6.642 -0.8146 -2.3753  1.4899
  151SAPE   C3516695   6.684   2.111   6.556  0.0995  0.2830 -0.4318
  151SAPE   H5X16696   6.743   2.203   6.573 -0.5648  1.2543 -2.9674
  151SAPE   H5Y16697   6.577   2.138   6.569 -0.0175 -0.3827  0.0833
  151SAPE   C3616698   6.714   2.062   6.414 -0.5802  0.0234  0.9621
  151SAPE   H6X16699   6.824   2.047   6.403 -0.6756  0.5465 -1.1284
  151SAPE   H6Y16700   6.689   2.138   6.337 -0.7241 -1.0799 -0.1111
  151SAPE   C3716701   6.635   1.942   6.363  0.4816 -0.8766 -0.1679
  151SAPE   H7X16702   6.529   1.977   6.359  0.5144 -0.6066  0.9556
  151SAPE   H7Y16703   6.650   1.853   6.429  1.8137 -0.5473 -0.0120
  151SAPE   C3816704   6.680   1.905   6.219  0.2025 -0.1680  0.1285
  151SAPE   H8X16705   6.786   1.873   6.221 -0.3890 -2.2241  0.0461
  151SAPE   H8Y16706   6.677   2.004   6.168 -0.3844 -0.0261  0.4262
  151SAPE   C3916707   6.592   1.800   6.153 -0.6500 -0.3099  0.5924
  151SAPE   H9X16708   6.495   1.851   6.171 -0.1688  0.7350  0.3254
  151SAPE   H9Y16709   6.609   1.706   6.209 -0.0845 -0.2699  0.4915
  151SAPE  C31016710   6.620   1.782   6.004 -1.2858 -0.7503 -0.5898
  151SAPE  H10X16711   6.730   1.769   5.988 -1.3644 -0.4353 -1.4252
  151SAPE  H10Y16712   6.609   1.882   5.956  1.1767  0.5373  1.2793
  151SAPE  C31116713   6.547   1.670   5.939  0.7027  0.4343  0.2581
  151SAPE  H11X16714   6.438   1.691   5.934  0.4914 -0.5057  0.5909
  151SAPE  H11Y16715   6.573   1.571   5.984 -1.6759 -0.1519  0.4880
  151SAPE  C31216716   6.591   1.649   5.796  0.5256  0.5929  0.3531
  151SAPE  H12X16717   6.698   1.630   5.774 -0.0204 -1.4761 -0.7771
  151SAPE  H12Y16718   6.570   1.738   5.733  3.2094 -1.5069 -3.9397
  151SAPE  C31316719   6.512   1.529   5.727 -0.1083  0.0863  0.2324
  151SAPE  H13X16720   6.408   1.549   5.759 -0.6124 -1.1390 -0.5580
  151SAPE  H13Y16721   6.546   1.434   5.774 -1.4442 -1.2519 -1.3587
  151SAPE  C31416722   6.507   1.535   5.576 -0.1868 -0.0650  0.4270
  151SAPE  H14X16723   6.489   1.635   5.529  0.0878  0.3086  1.0983
  151SAPE  H14Y16724   6.422   1.467   5.556 -0.0931  0.0842 -0.5262
  151SAPE  C31516725   6.632   1.480   5.506  0.5847  0.2206 -0.1540
  151SAPE  H15X16726   6.612   1.450   5.401  2.5183 -1.8530 -0.0008
  151SAPE  H15Y16727   6.680   1.393   5.555  0.4235 -0.7696 -1.6801
  151SAPE  C31616728   6.734   1.593   5.480  0.4550  0.9844  0.0749
  151SAPE  H16X16729   6.748   1.641   5.579 -2.7117 -1.6404  2.0143
  151SAPE  H16Y16730   6.696   1.658   5.398 -0.4490  0.6416  0.2129
  151SAPE  C31716731   6.881   1.544   5.447  0.3452  0.0032 -0.6204
  151SAPE  H17X16732   6.868   1.469   5.366 -1.2563 -0.8462  0.3729
  151SAPE  H17Y16733   6.926   1.486   5.531 -1.3916 -3.7713 -2.0570
  151SAPE  C31816734   6.971   1.658   5.393  0.0519 -0.1110 -0.1973
  151SAPE  H18X16735   6.952   1.751   5.452  1.9765  0.5913 -0.5864
  151SAPE  H18Y16736   6.952   1.678   5.285  2.2635  1.0748 -0.4308
  151SAPE  H18Z16737   7.077   1.626   5.402 -0.3148 -2.1789 -2.3336
  152SAPE     N16738   2.888   3.412   7.652 -0.1089  0.3041  0.0802
  152SAPE   HN116739   2.942   3.415   7.564  0.1197  0.7208  0.2338
  152SAPE   HN216740   2.928   3.475   7.725  2.9691 -2.3576  0.8930
  152SAPE   HN316741   2.887   3.313   7.683 -1.5749 -0.1617 -1.3170
  152SAPE   C1216742   2.745   3.448   7.628  0.7426 -0.0704 -0.2398
  152SAPE  H12A16743   2.703   3.473   7.728  1.2850  1.2343 -0.3202
  152SAPE  H12B16744   2.695   3.367   7.570 -1.5796  1.2595 -0.2355
  152SAPE   C1116745   2.740   3.574   7.543  0.2122 -1.1982  0.4658
  152SAPE  H11A16746   2.642   3.628   7.539  0.5421 -0.5666  0.8618
  152SAPE  H11B16747   2.755   3.549   7.436  1.4776  0.9387  0.0719
  152SAPE     P16748   2.977   3.708   7.501 -0.1405 -0.1107  0.5074
  152SAPE   O1316749   3.031   3.825   7.568 -0.3140 -0.3401 -0.3690
  152SAPE   O1416750   3.057   3.589   7.524 -0.5288  0.3000  0.0559
  152SAPE   O1216751   2.838   3.678   7.565  0.4526 -0.3648  0.0460
  152SAPE   O1116752   2.949   3.730   7.348  0.6587  0.9096  0.7031
  152SAPE    C116753   2.831   3.816   7.316  0.0327 -0.4988  0.2171
  152SAPE    HA16754   2.758   3.845   7.395 -1.7727 -0.5820 -1.3524
  152SAPE    HB16755   2.873   3.912   7.280 -1.3790 -0.4934 -1.5495
  152SAPE    C216756   2.754   3.755   7.198  0.9793  0.0375  0.3345
  152SAPE    HS16757   2.741   3.650   7.232  1.9600 -0.1529  0.1641
  152SAPE   O2116758   2.831   3.762   7.076  0.1978  0.8970 -0.4761
  152SAPE   C2116759   2.805   3.653   6.995 -0.2444  0.0803 -1.4268
  152SAPE   O2216760   2.750   3.551   7.032 -0.8337 -0.7597 -0.1763
  152SAPE   C2216761   2.871   3.676   6.858  1.1889  0.5237  0.4149
  152SAPE   H2R16762   2.840   3.768   6.805  0.9404 -1.2787 -2.8661
  152SAPE   H2S16763   2.980   3.686   6.877  0.9546  2.6615  0.8443
  152SAPE    C316764   2.615   3.825   7.172 -0.1741 -0.6783 -0.8436
  152SAPE    HX16765   2.629   3.933   7.153  0.7890 -1.0901 -2.7136
  152SAPE    HY16766   2.560   3.800   7.265  1.2832  1.1197  0.5790
  152SAPE   O3116767   2.551   3.764   7.055  0.3331  0.1614  0.1283
  152SAPE   C3116768   2.460   3.826   6.986  0.2567  0.0201 -0.1108
  152SAPE   O3216769   2.428   3.944   7.004  0.7946  0.1852 -0.3630
  152SAPE   C3216770   2.410   3.742   6.863 -0.0710  0.1008  0.1303
  152SAPE   H2X16771   2.300   3.755   6.853  0.1304  1.1947 -0.8751
  152SAPE   H2Y16772   2.422   3.640   6.906 -1.0621 -0.0825  0.0164
  152SAPE   C2316773   2.846   3.562   6.759  0.8706 -0.0162  0.6126
  152SAPE   H3R16774   2.742   3.550   6.722  0.9837  1.0615 -0.1141
  152SAPE   H3S16775   2.877   3.467   6.807 -1.7289 -0.5532  1.3552
  152SAPE   C2416776   2.939   3.574   6.636 -0.3749 -0.7594  0.1844
  152SAPE   H4R16777   2.941   3.470   6.597 -0.5756 -0.4289 -0.7381
  152SAPE   H4S16778   3.040   3.603   6.670 -0.9751 -0.8716  2.2061
  152SAPE   C2516779   2.863   3.671   6.541 -0.1096  0.4262 -0.2388
  152SAPE   H5R16780   2.762   3.640   6.511  0.0684 -0.4289  0.0365
  152SAPE   C2616781   2.913   3.793   6.509 -0.1261 -0.4539 -0.6680
  152SAPE   H6R16782   2.850   3.851   6.440 -0.2262  2.0343  1.3494
  152SAPE   C2716783   3.047   3.854   6.547  0.1988  0.0858  0.0041
  152SAPE   H7R16784   3.117   3.857   6.460  2.4859 -0.1694  1.7444
  152SAPE   H7S16785   3.098   3.789   6.622 -0.7099 -1.7509 -0.8939
  152SAPE   C2816786   3.033   3.992   6.604  0.2186 -0.6211 -0.0861
  152SAPE   H8R16787   2.943   4.012   6.664 -0.5782 -1.4025 -0.9813
  152SAPE   C2916788   3.121   4.091   6.587  0.4437  0.0411 -0.6930
  152SAPE   H9R16789   3.109   4.174   6.658 -0.0700 -0.8826  0.3255
  152SAPE  C21016790   3.247   4.099   6.500 -0.1981  0.3032  0.2198
  152SAPE  H10R16791   3.271   4.004   6.448  0.1093  0.4217  0.1406
  152SAPE  H10S16792   3.328   4.116   6.575 -0.5825  0.9028  0.5066
  152SAPE  C21116793   3.266   4.205   6.399 -0.2397 -0.6820 -0.5286
  152SAPE  H11R16794   3.290   4.307   6.434  1.7609 -0.2451 -2.9574
  152SAPE  C21216795   3.266   4.191   6.265 -0.0538 -0.7461 -0.4268
  152SAPE  H12R16796   3.292   4.282   6.209  0.1640  0.6778  1.8241
  152SAPE  C21316797   3.234   4.066   6.185  0.4084  0.0918 -0.2916
  152SAPE  H13R16798   3.131   4.077   6.144  0.5380  0.3332 -0.5541
  152SAPE  H13S16799   3.223   3.970   6.240 -1.2343 -0.4751 -1.5361
  152SAPE  C21416800   3.333   4.047   6.075  0.3151  0.6694 -0.3248
  152SAPE  H14R16801   3.433   4.091   6.085  0.7890 -0.8219  2.2888
  152SAPE  C21516802   3.320   3.961   5.974  0.2463  1.0922  0.2255
  152SAPE  H15R16803   3.415   3.950   5.919  1.1777 -3.7942  2.2568
  152SAPE  C21616804   3.197   3.868   5.953 -0.3698  0.3378 -0.0938
  152SAPE  H16R16805   3.113   3.887   6.022  0.7826  2.8791  0.7042
  152SAPE  H16S16806   3.225   3.761   5.964 -0.3615  0.0238 -2.5047
  152SAPE  C21716807   3.147   3.870   5.804  0.3322 -0.4219  0.0290
  152SAPE  H17R16808   3.123   3.967   5.755 -0.0513 -1.1743 -1.3415
  152SAPE  H17S16809   3.050   3.816   5.801  0.0898  0.0397 -0.5722
  152SAPE  C21816810   3.239   3.803   5.704 -0.9980  0.0609  0.0159
  152SAPE  H18R16811   3.287   3.715   5.752  1.3769  2.2842  2.0257
  152SAPE  H18S16812   3.325   3.871   5.687  0.7982 -1.7367  1.4634
  152SAPE  C21916813   3.175   3.773   5.569 -0.5259 -0.3424 -0.4119
  152SAPE  H19R16814   3.140   3.867   5.521  0.5704  0.2819 -0.0295
  152SAPE  H19S16815   3.074   3.735   5.595 -0.6475  0.5778  0.5353
  152SAPE  C22016816   3.271   3.703   5.474  0.4406  0.2050 -0.1053
  152SAPE  H20R16817   3.370   3.752   5.471  0.6316  0.0901  2.1967
  152SAPE  H20S16818   3.226   3.688   5.374 -0.1180 -2.9766  0.4922
  152SAPE  H20T16819   3.292   3.597   5.502  1.2728  0.0621 -1.1982
  152SAPE   C3316820   2.488   3.749   6.734 -0.1156 -0.0416  0.2084
  152SAPE   H3X16821   2.590   3.707   6.744 -0.4505 -0.9038  0.1066
  152SAPE   H3Y16822   2.488   3.856   6.704 -0.4441  0.0324  0.4615
  152SAPE   C3416823   2.407   3.671   6.619 -0.6519 -0.1046  0.9614
  152SAPE   H4X16824   2.300   3.695   6.604 -0.5796 -1.1494 -2.0048
  152SAPE   H4Y16825   2.397   3.563   6.645 -2.7687 -0.6221 -1.5488
  152SAPE   C3516826   2.474   3.687   6.477 -0.5756  0.3910 -0.2409
  152SAPE   H5X16827   2.542   3.599   6.471 -1.2913 -0.1723 -0.2101
  152SAPE   H5Y16828   2.539   3.776   6.470  0.4666 -0.3727 -0.5515
  152SAPE   C3616829   2.383   3.673   6.356  0.0199 -0.8367  0.0636
  152SAPE   H6X16830   2.303   3.751   6.358  0.2591 -0.5979  0.4078
  152SAPE   H6Y16831   2.342   3.575   6.386  1.0410 -0.4565  3.0492
  152SAPE   C3716832   2.458   3.676   6.226 -0.8001  0.3136 -0.0216
  152SAPE   H7X16833   2.527   3.590   6.215 -0.8159  0.4718 -1.5076
  152SAPE   H7Y16834   2.522   3.767   6.228  0.5914 -0.6517  0.9647
  152SAPE   C3816835   2.369   3.677   6.103 -0.4244 -0.1806  0.4051
  152SAPE   H8X16836   2.316   3.775   6.098  0.5134  0.3323  0.2404
  152SAPE   H8Y16837   2.296   3.594   6.100 -2.0927  1.2420 -2.0949
  152SAPE   C3916838   2.448   3.657   5.972  0.4840  0.1589  0.5935
  152SAPE   H9X16839   2.447   3.550   5.941 -0.0025  0.7842 -1.7510
  152SAPE   H9Y16840   2.554   3.690   5.985  1.7647 -2.7534 -1.3279
  152SAPE  C31016841   2.386   3.737   5.860 -0.3263  0.2953 -0.7894
  152SAPE  H10X16842   2.397   3.843   5.890 -1.4563  0.2187 -0.0485
  152SAPE  H10Y16843   2.278   3.712   5.853 -0.3401 -0.7647  1.9423
  152SAPE  C31116844   2.442   3.717   5.717  0.3412  0.2768  1.3362
  152SAPE  H11X16845   2.466   3.611   5.694 -0.2651  0.7600 -2.0667
  152SAPE  H11Y16846   2.528   3.787   5.707 -0.0577  0.5260 -0.8605
  152SAPE  C31216847   2.350   3.751   5.598 -0.1224 -0.4501  0.7660
  152SAPE  H12X16848   2.331   3.860   5.603 -1.2600 -0.4840 -1.6400
  152SAPE  H12Y16849   2.252   3.706   5.626 -2.0878  2.8374 -0.3238
  152SAPE  C31316850   2.388   3.693   5.463 -0.2499  0.3747  0.2936
  152SAPE  H13X16851   2.414   3.586   5.478 -2.5556 -0.0374  1.8197
  152SAPE  H13Y16852   2.483   3.730   5.418  0.2729 -1.4241 -0.1563
  152SAPE  C31416853   2.283   3.701   5.343 -0.5363  0.0595  0.0744
  152SAPE  H14X16854   2.234   3.799   5.364 -0.7572 -0.2016  0.8155
  152SAPE  H14Y16855   2.212   3.616   5.353 -0.9039  0.2983 -0.4645
  152SAPE  C31516856   2.354   3.702   5.200 -0.6408  0.4619  0.0597
  152SAPE  H15X16857   2.424   3.787   5.184  0.1308  0.0016  0.9202
  152SAPE  H15Y16858   2.285   3.717   5.114 -0.0872  2.3784 -0.1010
  152SAPE  C31616859   2.436   3.572   5.180 -0.0194  0.5341 -0.6385
  152SAPE  H16X16860   2.373   3.481   5.189 -0.3670  0.7689 -0.7264
  152SAPE  H16Y16861   2.520   3.567   5.253 -2.6059 -1.9251  2.4188
  152SAPE  C31716862   2.491   3.570   5.033 -0.1588 -0.0406  0.0802
  152SAPE  H17X16863   2.580   3.505   5.022 -1.8325 -2.3134 -0.9555
  152SAPE  H17Y16864   2.518   3.673   5.001 -2.6476 -0.0869 -2.6532
  152SAPE  C31816865   2.382   3.513   4.944 -0.3903  0.3819 -0.2470
  152SAPE  H18X16866   2.401   3.534   4.836 -1.7206 -0.4706 -0.6656
  152SAPE  H18Y16867   2.279   3.540   4.974 -0.2330 -2.1002  3.0368
  152SAPE  H18Z16868   2.383   3.403   4.963  0.1097  0.2574 -0.9239
  153SAPE     N16869   1.981   1.561   7.185  0.0711 -0.2167 -0.2744
  153SAPE   HN116870   1.922   1.504   7.120  1.1529  1.6059 -3.0174
  153SAPE   HN216871   2.020   1.510   7.267  0.3513  2.3413  1.2904
  153SAPE   HN316872   1.933   1.637   7.238  2.6117  0.8837  0.6191
  153SAPE   C1216873   2.103   1.596   7.108  0.3370  0.2544  0.2045
  153SAPE  H12A16874   2.066   1.667   7.030  0.4718 -0.6664 -0.7190
  153SAPE  H12B16875   2.142   1.512   7.047 -0.6320  1.7538 -2.7076
  153SAPE   C1116876   2.208   1.660   7.200 -0.7255 -0.2976  1.0262
  153SAPE  H11A16877   2.289   1.672   7.125 -1.0743  1.3056  0.8795
  153SAPE  H11B16878   2.253   1.588   7.272  3.5868 -0.1397 -1.1948
  153SAPE     P16879   2.167   1.918   7.188 -0.1035  0.1600 -0.1223
  153SAPE   O1316880   2.026   1.924   7.148  0.1704  0.0430  0.2740
  153SAPE   O1416881   2.224   2.028   7.269  0.5795 -0.8818  0.1641
  153SAPE   O1216882   2.170   1.784   7.270  0.5856  0.4058 -0.7348
  153SAPE   O1116883   2.258   1.882   7.064  0.0897  0.5779  0.4528
  153SAPE    C116884   2.249   1.962   6.948 -0.1059  0.3003 -0.3298
  153SAPE    HA16885   2.201   2.060   6.969  0.5760  0.3136  1.3143
  153SAPE    HB16886   2.354   1.975   6.915  0.2764 -1.7260 -0.0357
  153SAPE    C216887   2.179   1.890   6.836  0.0326  0.6489 -0.4850
  153SAPE    HS16888   2.097   1.831   6.881  2.5713 -2.9824 -0.1643
  153SAPE   O2116889   2.278   1.804   6.776 -0.7891  0.7933  0.1816
  153SAPE   C2116890   2.242   1.672   6.765  0.4255  0.2040  0.6670
  153SAPE   O2216891   2.134   1.628   6.794 -0.1409 -0.1728  0.5740
  153SAPE   C2216892   2.348   1.586   6.693 -0.0719  0.1069 -0.1143
  153SAPE   H2R16893   2.453   1.621   6.707  0.7030 -1.8733 -0.6775
  153SAPE   H2S16894   2.336   1.485   6.737 -2.6042  0.6238  0.5678
  153SAPE    C316895   2.106   1.980   6.725 -1.0775  1.0962  0.5154
  153SAPE    HX16896   2.027   2.046   6.765 -0.8545  2.6014 -1.4020
  153SAPE    HY16897   2.051   1.912   6.656 -0.7373  2.2073 -0.9001
  153SAPE   O3116898   2.188   2.058   6.637 -0.7577 -0.1304 -0.1761
  153SAPE   C3116899   2.217   2.176   6.685  0.2204 -0.0047 -0.1117
  153SAPE   O3216900   2.185   2.226   6.792 -0.7190  0.3840 -0.7417
  153SAPE   C3216901   2.289   2.258   6.577  0.6256 -0.1036  0.4727
  153SAPE   H2X16902   2.255   2.215   6.480 -1.6876 -1.2656  1.7111
  153SAPE   H2Y16903   2.399   2.244   6.576  0.3083 -3.6222  0.4553
  153SAPE   C2316904   2.301   1.573   6.551  0.1049  0.2831  0.3162
  153SAPE   H3R16905   2.299   1.670   6.497  0.6231  1.3731  2.1526
  153SAPE   H3S16906   2.199   1.529   6.543  0.0674  0.4672 -0.3106
  153SAPE   C2416907   2.400   1.485   6.473 -0.0620 -0.2781 -0.5171
  153SAPE   H4R16908   2.424   1.393   6.531  0.5679  0.8260  1.0429
  153SAPE   H4S16909   2.495   1.542   6.480  0.0261 -0.5591  1.0926
  153SAPE   C2516910   2.352   1.447   6.336  0.0063  0.3281 -0.4202
  153SAPE   H5R16911   2.253   1.401   6.343 -0.7491  2.0020  0.4600
  153SAPE   C2616912   2.411   1.468   6.214 -0.0795  0.2786 -0.1890
  153SAPE   H6R16913   2.359   1.430   6.125  1.2202 -3.5980  0.4936
  153SAPE   C2716914   2.539   1.537   6.190 -0.3128  0.6375  0.2802
  153SAPE   H7R16915   2.608   1.473   6.131  2.3155  1.8890  1.8294
  153SAPE   H7S16916   2.592   1.553   6.286  1.5682 -0.1509 -0.5841
  153SAPE   C2816917   2.512   1.655   6.102  0.3687 -0.4583  0.3480
  153SAPE   H8R16918   2.490   1.750   6.153 -0.8877 -0.4879 -0.0946
  153SAPE   C2916919   2.506   1.675   5.969  0.1512 -0.1330  0.4079
  153SAPE   H9R16920   2.484   1.773   5.923 -3.1944 -0.8524  0.2615
  153SAPE  C21016921   2.525   1.573   5.855 -0.6486 -0.0629  0.5972
  153SAPE  H10R16922   2.539   1.474   5.904 -2.1362 -0.1032  0.9781
  153SAPE  H10S16923   2.621   1.598   5.805 -1.1452  0.7256  0.0274
  153SAPE  C21116924   2.410   1.572   5.763  0.6501 -0.3728  0.9425
  153SAPE  H11R16925   2.325   1.512   5.798 -1.0607  1.3248 -0.1250
  153SAPE  C21216926   2.385   1.653   5.656  0.5176  0.0587 -0.3343
  153SAPE  H12R16927   2.290   1.638   5.602  0.3649  0.7778 -0.2874
  153SAPE  C21316928   2.487   1.746   5.592 -0.4300 -0.9479  0.4479
  153SAPE  H13R16929   2.532   1.816   5.666  0.4199  0.9853 -1.7574
  153SAPE  H13S16930   2.442   1.812   5.515  0.5013 -1.5980 -0.6846
  153SAPE  C21416931   2.595   1.668   5.523 -0.4800 -0.3024 -0.0402
  153SAPE  H14R16932   2.692   1.679   5.573  0.1874  1.9420 -1.6374
  153SAPE  C21516933   2.582   1.593   5.417 -0.2066  0.8808 -0.1077
  153SAPE  H15R16934   2.676   1.540   5.396  0.6595  1.5416  1.9013
  153SAPE  C21616935   2.450   1.560   5.346 -0.0919 -0.6458 -0.0137
  153SAPE  H16R16936   2.368   1.627   5.378 -0.5616 -0.8076 -0.8359
  153SAPE  H16S16937   2.430   1.453   5.369 -0.5795 -0.3761  0.8705
  153SAPE  C21716938   2.473   1.584   5.200  0.3019  0.2494  0.0267
  153SAPE  H17R16939   2.563   1.529   5.168  2.0421  3.7442 -1.6235
  153SAPE  H17S16940   2.495   1.690   5.176  1.0497 -0.1391 -1.0588
  153SAPE  C21816941   2.353   1.528   5.121  0.5576 -0.4766 -0.4291
  153SAPE  H18R16942   2.335   1.423   5.153 -1.4809 -0.1103 -0.2365
  153SAPE  H18S16943   2.377   1.538   5.013  2.8573  1.6877  0.1966
  153SAPE  C21916944   2.221   1.603   5.134 -0.2777  0.6278  0.2533
  153SAPE  H19R16945   2.177   1.583   5.234 -1.4660  1.0222 -0.1748
  153SAPE  H19S16946   2.158   1.565   5.051  1.3864  2.8585 -2.2233
  153SAPE  C22016947   2.233   1.757   5.121  0.0134 -0.3356 -0.5967
  153SAPE  H20R16948   2.132   1.801   5.117 -0.0112  0.3356  3.3833
  153SAPE  H20S16949   2.289   1.786   5.029 -1.8903 -0.6933 -1.9123
  153SAPE  H20T16950   2.292   1.789   5.209 -1.1489  0.1741  0.0055
  153SAPE   C3316951   2.251   2.412   6.571 -0.2433 -0.2530  0.3037
  153SAPE   H3X16952   2.278   2.462   6.666  0.0945 -1.6165  0.9463
  153SAPE   H3Y16953   2.141   2.428   6.574 -0.0966  0.7605  2.4131
  153SAPE   C3416954   2.326   2.490   6.461  0.3862 -0.8176 -0.5154
  153SAPE   H4X16955   2.436   2.474   6.470  0.4634  0.0385  0.2306
  153SAPE   H4Y16956   2.306   2.599   6.470 -0.3092 -0.9532 -0.3666
  153SAPE   C3516957   2.283   2.468   6.309  0.3357 -0.3169 -0.7537
  153SAPE   H5X16958   2.176   2.491   6.291  0.1326 -1.4833 -1.0989
  153SAPE   H5Y16959   2.298   2.364   6.272 -1.0817 -1.2436  1.1211
  153SAPE   C3616960   2.355   2.554   6.200 -0.4092 -0.4797 -0.8733
  153SAPE   H6X16961   2.464   2.541   6.213 -0.2509  1.6548  0.5068
  153SAPE   H6Y16962   2.330   2.662   6.210 -2.8355 -1.0758  0.3261
  153SAPE   C3716963   2.315   2.505   6.060 -0.1912  1.0005  0.0292
  153SAPE   H7X16964   2.206   2.523   6.043 -0.4204  0.0578  0.4510
  153SAPE   H7Y16965   2.326   2.395   6.049  0.8312  1.0692  0.2829
  153SAPE   C3816966   2.397   2.579   5.956  0.0283  1.1366 -0.0109
  153SAPE   H8X16967   2.502   2.569   5.992 -0.3349  0.5489  0.9305
  153SAPE   H8Y16968   2.353   2.680   5.955 -0.9784  0.7125  0.4119
  153SAPE   C3916969   2.384   2.515   5.817  0.0836 -0.5279  0.1081
  153SAPE   H9X16970   2.278   2.503   5.787 -0.1354 -0.0192  0.6642
  153SAPE   H9Y16971   2.424   2.411   5.817  1.1602 -0.1320  0.5938
  153SAPE  C31016972   2.470   2.581   5.710 -0.3454 -0.3773  0.7878
  153SAPE  H10X16973   2.570   2.550   5.749 -0.4381  0.0021  1.3388
  153SAPE  H10Y16974   2.464   2.691   5.721 -0.1933 -0.1156 -1.3346
  153SAPE  C31116975   2.443   2.544   5.562  0.7446 -0.0501 -0.6837
  153SAPE  H11X16976   2.335   2.566   5.551  0.7027 -0.0467 -0.2909
  153SAPE  H11Y16977   2.460   2.436   5.545 -1.4776 -0.8001  1.3253
  153SAPE  C31216978   2.526   2.632   5.472 -0.4544 -0.3056  0.6738
  153SAPE  H12X16979   2.632   2.600   5.481 -0.6657 -1.8402 -1.5034
  153SAPE  H12Y16980   2.524   2.735   5.512 -1.9265  0.3381 -0.9714
  153SAPE  C31316981   2.479   2.648   5.322  0.0226  0.3690  0.4205
  153SAPE  H13X16982   2.405   2.730   5.314 -1.8927 -1.2659  0.7550
  153SAPE  H13Y16983   2.430   2.551   5.296  2.6410 -1.8705  3.0981
  153SAPE  C31416984   2.607   2.667   5.226 -0.2741 -0.2012  0.4556
  153SAPE  H14X16985   2.568   2.686   5.124  0.4544 -2.2072 -0.2423
  153SAPE  H14Y16986   2.651   2.565   5.222  0.0767 -0.0507  0.3821
  153SAPE  C31516987   2.702   2.780   5.275 -0.0674  0.4043 -0.2313
  153SAPE  H15X16988   2.753   2.737   5.363 -1.9839 -0.6625  0.4124
  153SAPE  H15Y16989   2.631   2.857   5.312  0.2701  0.3328  0.5821
  153SAPE  C31616990   2.792   2.835   5.165 -0.2193 -0.1080  0.5274
  153SAPE  H16X16991   2.837   2.925   5.211 -1.1898 -0.5755  2.4931
  153SAPE  H16Y16992   2.735   2.870   5.077 -0.7975  1.6997  1.5792
  153SAPE  C31716993   2.900   2.732   5.130  0.0805  1.4177 -0.5113
  153SAPE  H17X16994   2.851   2.637   5.101 -0.2425  0.9487  1.4651
  153SAPE  H17Y16995   2.950   2.692   5.221  1.2750 -0.1597 -1.8014
  153SAPE  C31816996   2.997   2.767   5.018 -0.8656  0.2447 -0.2165
  153SAPE  H18X16997   3.074   2.688   5.007 -1.6285 -0.4777 -0.5197
  153SAPE  H18Y16998   3.053   2.858   5.048 -1.1561  0.2306  0.3837
  153SAPE  H18Z16999   2.949   2.787   4.920 -1.1801  0.4630 -0.0228
  154SAPE     N17000   0.438   2.724   7.508  0.1426 -0.0699 -0.2151
  154SAPE   HN117001   0.495   2.810   7.524 -0.0605 -0.0042  0.1611
  154SAPE   HN217002   0.358   2.722   7.573  1.5888 -0.1647  1.6567
  154SAPE   HN317003   0.503   2.649   7.539  0.3223  0.3902  0.5489
  154SAPE   C1217004   0.401   2.690   7.365 -0.0356 -0.0539  0.0569
  154SAPE  H12A17005   0.329   2.767   7.331 -0.6227 -0.4353  0.4176
  154SAPE  H12B17006   0.350   2.591   7.367 -2.3521  1.0845 -0.1214
  154SAPE   C1117007   0.528   2.693   7.277  0.5310 -0.2403 -0.0444
  154SAPE  H11A17008   0.569   2.796   7.267  1.5976 -0.5170  1.2285
  154SAPE  H11B17009   0.495   2.662   7.176 -0.4182  0.8227 -0.0784
  154SAPE     P17010   0.665   2.464   7.275 -0.0285 -0.4427 -0.0879
  154SAPE   O1317011   0.788   2.410   7.325  0.3895  0.1484 -0.0120
  154SAPE   O1417012   0.552   2.374   7.295  0.2554  0.3992  0.2886
  154SAPE   O1217013   0.634   2.614   7.331  0.6166 -0.1969 -0.0191
  154SAPE   O1117014   0.683   2.474   7.119 -0.6209  0.0231  0.0409
  154SAPE    C117015   0.579   2.434   7.025 -0.0690 -0.0215 -0.5133
  154SAPE    HA17016   0.565   2.324   7.025  3.0114 -0.4908  0.6187
  154SAPE    HB17017   0.480   2.478   7.050  0.6110  1.9929 -1.1173
  154SAPE    C217018   0.595   2.476   6.880 -0.2073  0.4046  0.5024
  154SAPE    HS17019   0.516   2.431   6.817 -1.4634  1.2235  1.4349
  154SAPE   O2117020   0.733   2.449   6.841 -0.7392  0.3437 -0.0176
  154SAPE   C2117021   0.763   2.325   6.813 -0.7060  0.5072 -0.1633
  154SAPE   O2217022   0.684   2.234   6.821 -0.0293 -0.2674  0.0918
  154SAPE   C2217023   0.908   2.299   6.776 -0.5952 -0.0821  0.4211
  154SAPE   H2R17024   0.978   2.377   6.813  0.3768 -0.4456 -0.5845
  154SAPE   H2S17025   0.934   2.202   6.822  2.3521  0.8013  0.8649
  154SAPE    C317026   0.578   2.626   6.852 -0.1297 -0.5757 -0.0851
  154SAPE    HX17027   0.676   2.668   6.885 -0.1873  0.4598 -1.1829
  154SAPE    HY17028   0.508   2.678   6.920  0.4118 -1.2206  0.9981
  154SAPE   O3117029   0.577   2.654   6.716  0.4201  0.1331  0.1541
  154SAPE   C3117030   0.461   2.707   6.682 -0.2429  0.5223  0.2228
  154SAPE   O3217031   0.357   2.713   6.743 -0.3485  0.1355  0.7218
  154SAPE   C3217032   0.473   2.742   6.535  0.0825  0.1408  0.0620
  154SAPE   H2X17033   0.478   2.649   6.474  2.0433 -0.4179  0.9871
  154SAPE   H2Y17034   0.567   2.797   6.516 -0.1599  0.0436 -1.5835
  154SAPE   C2317035   0.923   2.268   6.624  0.2677 -0.0294  0.1518
  154SAPE   H3R17036   0.828   2.224   6.586  0.1647 -0.1382  0.5257
  154SAPE   H3S17037   0.999   2.190   6.610  1.1584  0.8394  0.0344
  154SAPE   C2417038   0.949   2.386   6.531  0.4658 -0.6028  1.1164
  154SAPE   H4R17039   0.915   2.362   6.428  0.7754 -0.9052  1.0837
  154SAPE   H4S17040   1.059   2.392   6.543  0.6597 -2.8293  0.8926
  154SAPE   C2517041   0.874   2.517   6.558  0.7741  1.1246  0.2550
  154SAPE   H5R17042   0.881   2.561   6.659 -1.1353  1.3579  0.3154
  154SAPE   C2617043   0.785   2.576   6.473  0.3915 -0.4032 -0.6667
  154SAPE   H6R17044   0.729   2.666   6.502  2.6716  0.2148  2.4411
  154SAPE   C2717045   0.758   2.534   6.324 -0.6206 -0.1750 -0.7678
  154SAPE   H7R17046   0.680   2.455   6.328  0.1215 -0.8720  0.8950
  154SAPE   H7S17047   0.855   2.501   6.282  1.6844 -0.8051  4.2759
  154SAPE   C2817048   0.709   2.638   6.232  0.1548 -0.5431  0.5690
  154SAPE   H8R17049   0.726   2.740   6.268 -0.0586 -0.2728 -0.0872
  154SAPE   C2917050   0.630   2.620   6.121  0.2560  0.1637 -0.2482
  154SAPE   H9R17051   0.590   2.708   6.069 -0.9978  1.0252  2.0181
  154SAPE  C21017052   0.572   2.486   6.066  0.2206  0.4090  0.1568
  154SAPE  H10R17053   0.466   2.498   6.034 -0.0638 -0.5330  0.7167
  154SAPE  H10S17054   0.571   2.411   6.147 -1.0097  1.5482  1.2421
  154SAPE  C21117055   0.653   2.443   5.948  0.9591 -0.5455 -0.2628
  154SAPE  H11R17056   0.754   2.485   5.938  0.4113  1.3292  1.5234
  154SAPE  C21217057   0.617   2.341   5.864 -0.6151  0.2585  0.5906
  154SAPE  H12R17058   0.685   2.316   5.781 -1.1171 -1.5717  0.6797
  154SAPE  C21317059   0.499   2.239   5.886  0.2022  0.0152  0.6592
  154SAPE  H13R17060   0.407   2.264   5.827 -0.0488  1.3140  1.5765
  154SAPE  H13S17061   0.469   2.232   5.992  0.5990  0.3945  0.7954
  154SAPE  C21417062   0.546   2.101   5.841  0.4643 -0.9082  0.1657
  154SAPE  H14R17063   0.579   2.045   5.930  1.7244  1.5765  1.3831
  154SAPE  C21517064   0.568   2.055   5.720 -0.0702  0.0202  0.9691
  154SAPE  H15R17065   0.604   1.952   5.708  0.8847  0.3986  0.4638
  154SAPE  C21617066   0.535   2.119   5.590  0.0235 -0.0781  0.7186
  154SAPE  H16R17067   0.625   2.155   5.535  0.0281 -0.9369  0.1393
  154SAPE  H16S17068   0.475   2.211   5.604 -1.6132 -0.2831 -3.4391
  154SAPE  C21717069   0.476   2.015   5.487 -0.2166 -0.5686  0.5673
  154SAPE  H17R17070   0.388   1.967   5.533 -0.4825 -0.0405  0.6204
  154SAPE  H17S17071   0.550   1.936   5.463  0.6335 -0.0487  1.3792
  154SAPE  C21817072   0.431   2.088   5.359 -0.1981 -0.1499 -0.1601
  154SAPE  H18R17073   0.363   2.165   5.401  0.1127 -0.9802  1.9459
  154SAPE  H18S17074   0.370   2.013   5.303 -1.4428  0.0969  0.8086
  154SAPE  C21917075   0.540   2.148   5.266  0.3008 -0.6099  0.6620
  154SAPE  H19R17076   0.618   2.069   5.257  3.3322  2.1897  0.6159
  154SAPE  H19S17077   0.584   2.237   5.314  3.0763 -1.7294  0.3653
  154SAPE  C22017078   0.492   2.191   5.132 -0.6250 -0.0622 -0.3962
  154SAPE  H20R17079   0.572   2.240   5.072 -0.2581  1.7137  1.4351
  154SAPE  H20S17080   0.401   2.254   5.142 -0.5325  0.1849 -1.0822
  154SAPE  H20T17081   0.459   2.103   5.073 -0.3349 -1.3209  1.2608
  154SAPE   C3317082   0.353   2.836   6.487 -0.3080  0.3281  0.0060
  154SAPE   H3X17083   0.319   2.901   6.570  0.3696 -1.1563  1.5127
  154SAPE   H3Y17084   0.284   2.755   6.453  0.8314 -1.5208  1.8402
  154SAPE   C3417085   0.390   2.916   6.364 -0.0829  0.2808  0.1147
  154SAPE   H4X17086   0.392   2.841   6.282 -0.8544  0.3520  0.0160
  154SAPE   H4Y17087   0.491   2.956   6.387 -0.0919 -0.2278  1.0950
  154SAPE   C3517088   0.282   3.013   6.323  0.0229  0.5661  0.1945
  154SAPE   H5X17089   0.267   3.090   6.402  0.7154  0.9869 -0.0725
  154SAPE   H5Y17090   0.181   2.974   6.297  0.1096  0.0813  0.5870
  154SAPE   C3617091   0.330   3.090   6.195 -0.1275  0.2888  0.6163
  154SAPE   H6X17092   0.430   3.132   6.215  0.9469 -2.3265  1.2454
  154SAPE   H6Y17093   0.262   3.177   6.184  1.3930  1.3029 -1.1889
  154SAPE   C3717094   0.350   3.013   6.068  0.0180  0.5024 -0.4753
  154SAPE   H7X17095   0.430   2.940   6.090 -0.3167  0.0664 -0.6930
  154SAPE   H7Y17096   0.384   3.091   5.997  0.3485 -0.3760 -1.3046
  154SAPE   C3817097   0.229   2.943   6.011  0.0537 -0.2587  1.2763
  154SAPE   H8X17098   0.149   3.014   5.982  0.8058  0.4852  0.9960
  154SAPE   H8Y17099   0.190   2.879   6.093 -0.1547 -0.1349  1.2742
  154SAPE   C3917100   0.261   2.863   5.883  0.1611 -0.0431 -0.4160
  154SAPE   H9X17101   0.295   2.930   5.802  1.3263  1.2436  1.0600
  154SAPE   H9Y17102   0.161   2.822   5.858  0.2668 -0.1498 -0.6547
  154SAPE  C31017103   0.370   2.752   5.893  0.3344 -0.9985  0.4392
  154SAPE  H10X17104   0.348   2.690   5.983 -4.5207 -0.7256 -0.2904
  154SAPE  H10Y17105   0.467   2.805   5.906  0.4757 -0.6239 -1.7292
  154SAPE  C31117106   0.372   2.667   5.767  0.6843 -0.4827 -0.3762
  154SAPE  H11X17107   0.444   2.583   5.759  1.0641  0.0144 -2.9757
  154SAPE  H11Y17108   0.385   2.736   5.681  0.5883 -1.2920 -1.0536
  154SAPE  C31217109   0.245   2.591   5.733  0.5177 -0.1202 -0.1552
  154SAPE  H12X17110   0.153   2.653   5.743  0.7534  0.2486 -0.2211
  154SAPE  H12Y17111   0.228   2.506   5.802 -1.7369 -0.4283 -1.0264
  154SAPE  C31317112   0.233   2.515   5.591 -0.0320 -0.2413 -0.0447
  154SAPE  H13X17113   0.138   2.459   5.602  1.3070 -2.3295  1.9775
  154SAPE  H13Y17114   0.320   2.445   5.589  0.5192  0.4443 -0.8479
  154SAPE  C31417115   0.237   2.615   5.475  0.6220  0.1963 -0.2860
  154SAPE  H14X17116   0.209   2.556   5.385 -0.3433  1.4114 -0.8094
  154SAPE  H14Y17117   0.344   2.641   5.463  1.0666 -1.4092 -0.0407
  154SAPE  C31517118   0.159   2.747   5.488 -0.0514  0.2982  0.2084
  154SAPE  H15X17119   0.215   2.807   5.563 -0.1485  0.9845 -0.2696
  154SAPE  H15Y17120   0.057   2.727   5.529 -0.8679 -2.0304 -2.5904
  154SAPE  C31617121   0.148   2.833   5.364 -0.1926 -0.5230  0.2262
  154SAPE  H16X17122   0.078   2.785   5.292  0.5746  0.3171 -1.1380
  154SAPE  H16Y17123   0.246   2.845   5.312  0.6569  0.4652  1.9723
  154SAPE  C31717124   0.083   2.970   5.403  0.2099 -0.0791 -0.6315
  154SAPE  H17X17125  -0.012   2.954   5.458  1.0837 -1.4736  0.5397
  154SAPE  H17Y17126   0.045   3.024   5.314  0.3865 -1.0543 -1.3131
  154SAPE  C31817127   0.184   3.060   5.468  0.1240  0.2814  0.2944
  154SAPE  H18X17128   0.237   3.011   5.552  0.3277  1.2558  0.7590
  154SAPE  H18Y17129   0.149   3.160   5.503  1.8826  1.1315 -0.2524
  154SAPE  H18Z17130   0.269   3.083   5.400  0.4529  0.1402  0.6548
  155SAPE     N17131   1.379   4.440   7.382 -0.1919 -0.1499  0.0863
  155SAPE   HN117132   1.346   4.504   7.457  0.1697  0.4108 -0.2259
  155SAPE   HN217133   1.350   4.490   7.295 -2.2635 -1.7921 -0.2624
  155SAPE   HN317134   1.335   4.346   7.378  2.1606 -1.3073 -0.2274
  155SAPE   C1217135   1.524   4.425   7.381 -0.1338 -0.7744  0.7225
  155SAPE  H12A17136   1.538   4.323   7.338  0.0806 -0.1884 -0.6472
  155SAPE  H12B17137   1.551   4.424   7.488 -2.7762 -0.0290  1.4842
  155SAPE   C1117138   1.607   4.527   7.302  1.1000 -0.7442 -0.1059
  155SAPE  H11A17139   1.585   4.527   7.193  2.2315 -0.5766 -0.3507
  155SAPE  H11B17140   1.712   4.491   7.302  1.0403 -0.9600 -1.5622
  155SAPE     P17141   1.513   4.757   7.363  0.3095 -0.2576 -0.0035
  155SAPE   O1317142   1.446   4.721   7.487  0.3931 -0.4814 -0.3204
  155SAPE   O1417143   1.558   4.897   7.353  0.0845  0.0691 -0.1249
  155SAPE   O1217144   1.624   4.653   7.362 -0.7832 -0.0330  0.1098
  155SAPE   O1117145   1.427   4.727   7.235 -0.1794 -0.0467  0.2110
  155SAPE    C117146   1.457   4.785   7.105 -0.5633  0.7359  1.2549
  155SAPE    HA17147   1.445   4.894   7.121 -1.8137  1.0177 -1.1304
  155SAPE    HB17148   1.554   4.761   7.057 -0.6911  0.7939  0.9667
  155SAPE    C217149   1.339   4.742   7.011 -0.3086  0.2707 -0.5795
  155SAPE    HS17150   1.254   4.721   7.080 -1.5401 -0.5299 -2.2717
  155SAPE   O2117151   1.359   4.623   6.935 -0.7885 -0.5450  0.0104
  155SAPE   C2117152   1.366   4.505   7.000  0.1038 -0.0673 -0.7325
  155SAPE   O2217153   1.307   4.490   7.108  0.3810  0.0250 -0.0583
  155SAPE   C2217154   1.447   4.405   6.922 -0.7212  0.6557 -0.1355
  155SAPE   H2R17155   1.440   4.425   6.813 -0.9460  0.0157 -0.2492
  155SAPE   H2S17156   1.554   4.410   6.948 -0.2940  3.7363 -1.9479
  155SAPE    C317157   1.287   4.849   6.924 -0.5145 -0.3087  0.5123
  155SAPE    HX17158   1.243   4.925   6.992 -2.4186  0.1952 -1.1820
  155SAPE    HY17159   1.206   4.800   6.866  0.5265  0.2117 -1.4823
  155SAPE   O3117160   1.374   4.885   6.818 -0.0346  0.3629 -0.2904
  155SAPE   C3117161   1.398   5.015   6.794 -0.0074  0.1876  0.2233
  155SAPE   O3217162   1.358   5.103   6.868 -0.1465  0.2194  0.1745
  155SAPE   C3217163   1.488   5.026   6.666  0.1016  0.1586  0.2250
  155SAPE   H2X17164   1.425   5.063   6.583  0.4538  3.7383  1.3816
  155SAPE   H2Y17165   1.530   4.926   6.641  0.3696 -0.3251  2.4164
  155SAPE   C2317166   1.395   4.266   6.944 -0.1790  0.0748 -0.2828
  155SAPE   H3R17167   1.297   4.245   6.897  0.1752  1.3553 -1.6753
  155SAPE   H3S17168   1.388   4.252   7.054  1.4892 -1.4630 -0.3150
  155SAPE   C2417169   1.485   4.165   6.879 -0.1515 -0.3449 -0.4691
  155SAPE   H4R17170   1.476   4.063   6.923  0.8863 -0.1793  0.1695
  155SAPE   H4S17171   1.588   4.202   6.899 -1.0646  1.9827  0.1309
  155SAPE   C2517172   1.485   4.153   6.725 -0.1467  0.5379  0.4803
  155SAPE   H5R17173   1.515   4.242   6.668  2.0940 -0.7214 -0.4229
  155SAPE   C2617174   1.442   4.044   6.650 -0.0303  0.7076  1.3627
  155SAPE   H6R17175   1.436   4.050   6.540 -3.0716  0.5877  1.4391
  155SAPE   C2717176   1.391   3.905   6.703 -0.4288 -0.2526  0.4488
  155SAPE   H7R17177   1.296   3.876   6.654 -0.3099  0.6837 -0.3806
  155SAPE   H7S17178   1.359   3.923   6.808 -0.4074 -0.9179  0.5689
  155SAPE   C2817179   1.484   3.789   6.703 -0.3222 -0.3177 -0.2091
  155SAPE   H8R17180   1.504   3.749   6.803  0.9452  0.6576 -0.0523
  155SAPE   C2917181   1.534   3.724   6.599 -0.1249  0.0172  0.1592
  155SAPE   H9R17182   1.599   3.637   6.616 -0.0468 -0.2363 -1.3252
  155SAPE  C21017183   1.497   3.747   6.453  0.5364 -0.5315 -0.2274
  155SAPE  H10R17184   1.406   3.810   6.448 -0.2695 -1.6745 -0.4703
  155SAPE  H10S17185   1.454   3.650   6.419 -0.5198  0.1705 -0.9633
  155SAPE  C21117186   1.610   3.794   6.361  1.1290 -0.4687 -0.0502
  155SAPE  H11R17187   1.704   3.816   6.415  0.3949 -1.1390  1.5358
  155SAPE  C21217188   1.594   3.800   6.227  0.4251  0.0685 -0.2476
  155SAPE  H12R17189   1.673   3.848   6.167 -0.2527  0.4017 -0.8863
  155SAPE  C21317190   1.472   3.765   6.140 -0.5949  0.9337  0.1834
  155SAPE  H13R17191   1.377   3.800   6.186 -0.7175 -0.2926  0.8951
  155SAPE  H13S17192   1.468   3.654   6.138  0.2435  0.9032 -0.3538
  155SAPE  C21417193   1.484   3.812   5.999 -1.0192 -1.3443  0.4396
  155SAPE  H14R17194   1.507   3.919   5.986 -1.5310 -1.1513  1.0551
  155SAPE  C21517195   1.444   3.741   5.893 -0.2523  0.0802 -0.5233
  155SAPE  H15R17196   1.460   3.772   5.788 -1.6400  0.0085 -0.7719
  155SAPE  C21617197   1.399   3.596   5.902  0.3169  0.3656  0.4717
  155SAPE  H16R17198   1.376   3.553   6.002  1.5558 -1.0139  0.1987
  155SAPE  H16S17199   1.478   3.529   5.862 -0.8659 -0.3040 -0.8621
  155SAPE  C21717200   1.279   3.568   5.807 -0.2997  0.2576  0.5682
  155SAPE  H17R17201   1.205   3.649   5.821  0.5703  1.0029  1.0124
  155SAPE  H17S17202   1.239   3.467   5.829  2.2755 -0.8248  0.6601
  155SAPE  C21817203   1.307   3.566   5.660 -0.3602 -0.1912  0.1767
  155SAPE  H18R17204   1.397   3.506   5.637 -0.4265 -0.2457  0.0586
  155SAPE  H18S17205   1.337   3.669   5.631  1.7018 -0.6902  0.3902
  155SAPE  C21917206   1.193   3.499   5.574 -0.2147 -0.3483 -0.0048
  155SAPE  H19R17207   1.101   3.561   5.566 -2.5569 -3.4963  0.5263
  155SAPE  H19S17208   1.174   3.397   5.614 -1.7218 -0.6985 -1.5026
  155SAPE  C22017209   1.242   3.465   5.433  0.3752 -0.3336 -0.0331
  155SAPE  H20R17210   1.157   3.464   5.361 -2.7140  0.8956  3.2392
  155SAPE  H20S17211   1.313   3.381   5.419  1.0735  0.1729  0.4269
  155SAPE  H20T17212   1.300   3.550   5.394 -0.2072  0.0613 -0.0511
  155SAPE   C3317213   1.602   5.135   6.688 -0.0959 -1.3180 -0.4526
  155SAPE   H3X17214   1.664   5.100   6.773 -0.5815 -1.8206 -0.2939
  155SAPE   H3Y17215   1.558   5.234   6.710  0.6971 -0.6781 -1.6587
  155SAPE   C3417216   1.679   5.155   6.553 -0.5382 -0.3329 -0.0763
  155SAPE   H4X17217   1.723   5.257   6.556  0.9978 -0.8893 -1.8815
  155SAPE   H4Y17218   1.603   5.161   6.472  0.7893  0.2570 -1.3162
  155SAPE   C3517219   1.791   5.062   6.520 -0.2567  0.5513 -0.1451
  155SAPE   H5X17220   1.744   4.962   6.507 -0.4248  0.3202  1.8916
  155SAPE   H5Y17221   1.850   5.062   6.614 -1.4016  0.5217  0.5915
  155SAPE   C3617222   1.876   5.120   6.403  0.7372 -0.2722 -0.2409
  155SAPE   H6X17223   1.971   5.065   6.389  2.5281  2.1840  1.5638
  155SAPE   H6Y17224   1.913   5.218   6.441 -0.4197 -0.1977  0.7815
  155SAPE   C3717225   1.794   5.123   6.270  0.1252  0.2712  0.1320
  155SAPE   H7X17226   1.842   5.192   6.197 -0.4615  0.2102 -0.3246
  155SAPE   H7Y17227   1.693   5.170   6.271  0.6720  1.6893 -2.2614
  155SAPE   C3817228   1.785   4.985   6.207 -0.9655  0.6217  0.2895
  155SAPE   H8X17229   1.744   4.913   6.280  1.8615  0.6983  2.1396
  155SAPE   H8Y17230   1.888   4.948   6.185  0.4046  1.4637  4.2536
  155SAPE   C3917231   1.703   4.987   6.074  0.4220  0.4083 -0.3442
  155SAPE   H9X17232   1.716   5.093   6.042  3.1515  0.5155  0.8453
  155SAPE   H9Y17233   1.596   4.971   6.098  1.1434 -0.4717  2.7770
  155SAPE  C31017234   1.760   4.891   5.973 -0.6414  0.0237  0.2533
  155SAPE  H10X17235   1.739   4.785   6.000 -0.4789  0.4643  2.2601
  155SAPE  H10Y17236   1.870   4.910   5.973 -0.8062  1.0120 -0.6954
  155SAPE  C31117237   1.696   4.913   5.831 -0.3519 -0.1175 -1.1626
  155SAPE  H11X17238   1.725   5.016   5.801 -2.4366  1.5358  1.9271
  155SAPE  H11Y17239   1.585   4.909   5.836 -0.3613 -2.4806 -1.7647
  155SAPE  C31217240   1.735   4.810   5.727  0.4544 -0.4846 -0.3308
  155SAPE  H12X17241   1.846   4.812   5.732  0.4248  1.1169  0.4693
  155SAPE  H12Y17242   1.697   4.853   5.632 -2.1478  1.0254  1.2566
  155SAPE  C31317243   1.664   4.679   5.753  0.1657 -0.1736 -0.8038
  155SAPE  H13X17244   1.553   4.686   5.762  0.1864  0.5827 -0.9850
  155SAPE  H13Y17245   1.695   4.624   5.844 -0.6604 -0.1923 -0.5166
  155SAPE  C31417246   1.689   4.579   5.637 -0.5083  0.2845 -0.2569
  155SAPE  H14X17247   1.790   4.536   5.650  0.2637  2.1060  0.1140
  155SAPE  H14Y17248   1.679   4.625   5.537  0.5786 -0.1423 -0.5698
  155SAPE  C31517249   1.580   4.471   5.640  0.4945  0.3369  0.1588
  155SAPE  H15X17250   1.480   4.514   5.660 -0.0691 -1.4256  1.3611
  155SAPE  H15Y17251   1.598   4.394   5.717  0.3971  0.5689  0.4151
  155SAPE  C31617252   1.588   4.387   5.512 -0.8212 -0.0846  0.0142
  155SAPE  H16X17253   1.698   4.376   5.500 -0.6167  1.5794  0.1101
  155SAPE  H16Y17254   1.548   4.451   5.431  1.5645  0.2751 -0.9596
  155SAPE  C31717255   1.511   4.253   5.514  0.0639  0.6648 -0.1899
  155SAPE  H17X17256   1.471   4.220   5.416 -1.5135  1.1075  0.2859
  155SAPE  H17Y17257   1.423   4.277   5.577  1.0091  0.2585  1.3335
  155SAPE  C31817258   1.589   4.132   5.586  0.9536 -0.1242  1.4475
  155SAPE  H18X17259   1.533   4.045   5.547 -0.7343  0.5242  2.3069
  155SAPE  H18Y17260   1.589   4.126   5.696 -2.2161 -1.8331  1.4681
  155SAPE  H18Z17261   1.687   4.122   5.534 -0.9608 -2.9838 -2.0542
  156SAPE     N17262   2.359   0.066   7.077  0.1470  0.5302  0.7234
  156SAPE   HN117263   2.366   0.006   6.993  2.3074  1.8624 -0.1343
  156SAPE   HN217264   2.457   0.081   7.108  0.7800  1.2942 -1.4586
  156SAPE   HN317265   2.304   0.031   7.159  2.5808  0.0220  2.2397
  156SAPE   C1217266   2.318   0.206   7.037  0.1342 -0.3850 -0.1210
  156SAPE  H12A17267   2.211   0.214   7.065  0.3956  2.4346  0.3705
  156SAPE  H12B17268   2.329   0.223   6.927 -1.1160  0.3725 -0.1492
  156SAPE   C1117269   2.380   0.314   7.119  0.5229  0.7173 -0.1654
  156SAPE  H11A17270   2.338   0.309   7.222  0.3776  2.0197 -0.1420
  156SAPE  H11B17271   2.352   0.408   7.068 -0.1450 -0.0863 -1.3444
  156SAPE     P17272   2.603   0.382   7.201  0.3481 -0.1836  0.1646
  156SAPE   O1317273   2.591   0.355   7.349 -0.2902 -0.1363  0.7428
  156SAPE   O1417274   2.740   0.384   7.145 -0.0479 -0.0992  0.6736
  156SAPE   O1217275   2.514   0.280   7.124 -0.4452 -0.2541  0.8618
  156SAPE   O1117276   2.530   0.521   7.185  0.8122  0.5639  0.7764
  156SAPE    C117277   2.585   0.653   7.180 -0.1252 -0.1910  0.7478
  156SAPE    HA17278   2.525   0.733   7.228 -0.2623 -0.0948  0.4219
  156SAPE    HB17279   2.688   0.650   7.221  0.3870 -1.2796 -0.5328
  156SAPE    C217280   2.603   0.706   7.028 -0.2270 -0.1372  0.1043
  156SAPE    HS17281   2.645   0.809   7.035  1.4500 -0.7841 -0.1545
  156SAPE   O2117282   2.471   0.697   6.963  0.3703  0.0003 -0.1312
  156SAPE   C2117283   2.452   0.780   6.860  0.0253 -0.0664  0.6684
  156SAPE   O2217284   2.538   0.859   6.820 -0.0575 -0.1622 -0.6305
  156SAPE   C2217285   2.323   0.747   6.776  0.0351  0.0058  0.1309
  156SAPE   H2R17286   2.339   0.645   6.736  0.2984  0.7152 -1.6665
  156SAPE   H2S17287   2.235   0.753   6.844 -0.8601 -1.6775 -0.8291
  156SAPE    C317288   2.708   0.618   6.949  0.2314 -0.0204 -0.0459
  156SAPE    HX17289   2.662   0.516   6.947 -2.3431  1.0335  0.5678
  156SAPE    HY17290   2.788   0.623   7.026  1.1295  2.0423 -1.0480
  156SAPE   O3117291   2.763   0.662   6.824  0.6396 -0.1895  0.4092
  156SAPE   C3117292   2.711   0.616   6.715 -0.5809 -0.0920  0.1495
  156SAPE   O3217293   2.618   0.535   6.701 -0.3895 -0.1100 -0.3213
  156SAPE   C3217294   2.797   0.669   6.605  0.9532  0.3209 -0.4344
  156SAPE   H2X17295   2.897   0.623   6.614 -0.0613 -1.8172  0.7391
  156SAPE   H2Y17296   2.797   0.779   6.616 -0.7621  0.3680 -0.6013
  156SAPE   C2317297   2.294   0.855   6.665 -0.2810  0.0380 -0.2679
  156SAPE   H3R17298   2.303   0.960   6.700  2.6531  0.4139 -1.8666
  156SAPE   H3S17299   2.188   0.831   6.640  0.0706  0.1169 -1.9525
  156SAPE   C2417300   2.370   0.835   6.532  0.3612 -0.3893  0.0393
  156SAPE   H4R17301   2.478   0.846   6.557 -0.1858  0.8353  2.0314
  156SAPE   H4S17302   2.354   0.920   6.462  3.7065  0.7305  0.4623
  156SAPE   C2517303   2.349   0.704   6.462  0.2423  0.4139 -0.5159
  156SAPE   H5R17304   2.386   0.619   6.521 -0.0332  0.0595 -0.8473
  156SAPE   C2617305   2.281   0.683   6.346 -0.3414  0.0664  0.1774
  156SAPE   H6R17306   2.302   0.589   6.292 -0.2944  0.4081 -0.4072
  156SAPE   C2717307   2.191   0.783   6.278 -0.1172  0.5053 -0.1867
  156SAPE   H7R17308   2.147   0.856   6.350  0.3727  1.5048 -0.8862
  156SAPE   H7S17309   2.110   0.716   6.241  1.0416 -1.0134 -0.0826
  156SAPE   C2817310   2.264   0.856   6.171 -0.5104 -0.3833  0.2292
  156SAPE   H8R17311   2.295   0.959   6.193  1.3096 -1.3191  2.4814
  156SAPE   C2917312   2.303   0.801   6.052  0.5037 -0.2973  0.1778
  156SAPE   H9R17313   2.358   0.852   5.972 -1.5218 -0.2401 -1.2484
  156SAPE  C21017314   2.267   0.660   6.016 -0.3128  0.8322  0.0156
  156SAPE  H10R17315   2.226   0.595   6.096 -0.0035 -0.6815 -1.0209
  156SAPE  H10S17316   2.367   0.618   5.994 -0.7576 -0.4325  0.3329
  156SAPE  C21117317   2.163   0.651   5.901 -0.2045 -0.0721  0.7783
  156SAPE  H11R17318   2.057   0.678   5.915 -0.8272 -1.1384 -1.3908
  156SAPE  C21217319   2.197   0.626   5.772  0.6307 -0.3162 -0.5335
  156SAPE  H12R17320   2.112   0.622   5.703 -0.0129 -0.4117  0.2552
  156SAPE  C21317321   2.331   0.590   5.715  0.1155 -0.7244  0.1199
  156SAPE  H13R17322   2.310   0.523   5.629 -3.1185  1.0743 -0.6743
  156SAPE  H13S17323   2.390   0.532   5.790  0.4185  0.3339  0.7243
  156SAPE  C21417324   2.411   0.709   5.682 -0.4117 -0.4801  0.0013
  156SAPE  H14R17325   2.443   0.776   5.763 -1.0892  0.2405 -0.3151
  156SAPE  C21517326   2.474   0.727   5.562  0.0129 -0.1156 -0.4989
  156SAPE  H15R17327   2.515   0.829   5.556  1.5384 -0.6085  0.9505
  156SAPE  C21617328   2.468   0.652   5.441 -0.6952  0.5539 -0.3552
  156SAPE  H16R17329   2.367   0.650   5.394 -1.2473  0.0759  0.7945
  156SAPE  H16S17330   2.495   0.546   5.463  2.2135  1.4392  0.7109
  156SAPE  C21717331   2.583   0.679   5.336 -0.2123 -0.2474  0.7512
  156SAPE  H17R17332   2.583   0.785   5.304  1.5563 -0.2576  0.6067
  156SAPE  H17S17333   2.558   0.621   5.244  0.5241  1.1855 -0.4005
  156SAPE  C21817334   2.721   0.632   5.377 -0.1033 -0.7671  0.5265
  156SAPE  H18R17335   2.706   0.530   5.419 -1.4669 -1.6290 -1.8509
  156SAPE  H18S17336   2.762   0.699   5.455  0.5348 -1.4732  0.8088
  156SAPE  C21917337   2.804   0.602   5.256 -0.4208 -0.9282  0.0724
  156SAPE  H19R17338   2.746   0.547   5.179 -2.4520  1.4710 -0.2585
  156SAPE  H19S17339   2.890   0.538   5.284  0.3404 -0.3553 -0.8604
  156SAPE  C22017340   2.878   0.730   5.208  0.1871  0.5377  0.6575
  156SAPE  H20R17341   2.955   0.700   5.133 -1.1061  0.1680 -0.5630
  156SAPE  H20S17342   2.938   0.782   5.286 -0.0151  1.2775  0.3290
  156SAPE  H20T17343   2.801   0.792   5.158  1.2203  1.2829 -0.0576
  156SAPE   C3317344   2.728   0.643   6.468  0.7123 -0.6581 -0.5632
  156SAPE   H3X17345   2.623   0.680   6.462  0.6226 -1.1304 -2.7783
  156SAPE   H3Y17346   2.737   0.537   6.437 -1.2558 -0.4371 -2.0849
  156SAPE   C3417347   2.801   0.719   6.355 -0.1505 -0.9417  0.6830
  156SAPE   H4X17348   2.902   0.673   6.345 -0.1021 -0.6152 -0.6218
  156SAPE   H4Y17349   2.827   0.823   6.381  2.1939 -1.3699  0.2574
  156SAPE   C3517350   2.732   0.704   6.223 -0.5814  0.7520  0.0365
  156SAPE   H5X17351   2.627   0.738   6.238 -0.1483  1.3875  1.9075
  156SAPE   H5Y17352   2.743   0.596   6.197 -0.3566 -0.0306  3.0419
  156SAPE   C3617353   2.795   0.785   6.112 -0.5997  0.1999  0.3858
  156SAPE   H6X17354   2.792   0.893   6.137  0.3266  0.4310 -0.4227
  156SAPE   H6Y17355   2.735   0.770   6.020 -0.5917 -0.1066  0.4289
  156SAPE   C3717356   2.943   0.738   6.084 -0.5232  0.6337  0.3023
  156SAPE   H7X17357   2.946   0.631   6.055  2.4684  0.4801  0.8718
  156SAPE   H7Y17358   3.002   0.763   6.175  2.6128 -0.3560 -1.3162
  156SAPE   C3817359   3.010   0.810   5.966  0.7238 -0.1738 -0.8091
  156SAPE   H8X17360   3.098   0.755   5.928  0.3763  0.2346 -2.2497
  156SAPE   H8Y17361   3.043   0.910   6.002  0.4851 -0.6985  0.9639
  156SAPE   C3917362   2.922   0.838   5.845  0.1037  0.3407 -1.0041
  156SAPE   H9X17363   2.832   0.901   5.864  1.6465  2.9288 -1.6752
  156SAPE   H9Y17364   2.891   0.747   5.792  1.4167  0.0352 -1.2932
  156SAPE  C31017365   3.012   0.893   5.726 -0.0459 -0.8911 -0.1738
  156SAPE  H10X17366   3.083   0.817   5.689  0.6933 -0.8913  1.1688
  156SAPE  H10Y17367   3.064   0.980   5.772 -1.8150 -0.8021  1.8267
  156SAPE  C31117368   2.927   0.944   5.608  0.2471  0.0757  0.0839
  156SAPE  H11X17369   2.836   0.992   5.651  1.0934 -0.8971  3.2310
  156SAPE  H11Y17370   2.898   0.852   5.554 -1.3334  0.2275  0.6107
  156SAPE  C31217371   3.011   1.040   5.513  0.3158 -0.4749 -0.3515
  156SAPE  H12X17372   3.099   0.985   5.474  0.9049  1.4463 -1.8783
  156SAPE  H12Y17373   3.050   1.121   5.577 -3.2649  0.6587  0.6191
  156SAPE  C31317374   2.935   1.092   5.392  0.5325  0.9379 -0.0818
  156SAPE  H13X17375   2.893   1.192   5.415  2.5927  1.6138  1.0320
  156SAPE  H13Y17376   2.855   1.017   5.375  1.5901 -0.5244  1.0694
  156SAPE  C31417377   3.011   1.120   5.260 -0.4907  0.1694  0.3205
  156SAPE  H14X17378   3.038   1.022   5.216  0.3568 -0.4818  2.1728
  156SAPE  H14Y17379   3.095   1.191   5.272  0.0174 -0.4849  0.7030
  156SAPE  C31517380   2.929   1.194   5.149 -0.3182  0.1748 -0.3030
  156SAPE  H15X17381   2.991   1.205   5.057  0.2940  0.8611  0.1837
  156SAPE  H15Y17382   2.901   1.292   5.194 -1.1528  1.0816 -2.6102
  156SAPE  C31617383   2.792   1.115   5.136 -0.0693 -0.8176 -0.0659
  156SAPE  H16X17384   2.736   1.122   5.231  0.5003  1.3124  0.1773
  156SAPE  H16Y17385   2.813   1.008   5.115 -3.5142 -2.1018  2.3045
  156SAPE  C31717386   2.714   1.163   5.009  0.1669  0.0038  0.0674
  156SAPE  H17X17387   2.784   1.190   4.928 -1.6740 -0.2268 -1.6737
  156SAPE  H17Y17388   2.666   1.261   5.027  0.7051  0.3127 -0.1670
  156SAPE  C31817389   2.601   1.073   4.955 -0.2234  0.8010 -0.5460
  156SAPE  H18X17390   2.643   0.971   4.954  0.4088  1.0315 -2.7248
  156SAPE  H18Y17391   2.571   1.105   4.853 -0.3042  0.3387 -0.6670
  156SAPE  H18Z17392   2.522   1.092   5.031  0.7336  0.6741  0.5129
  157SAPE     N17393   0.414   0.713   7.528 -0.0506 -0.0182  0.4308
  157SAPE   HN117394   0.390   0.679   7.433  0.0126  0.6817  0.1589
  157SAPE   HN217395   0.350   0.669   7.597 -0.2129  1.0697  1.0089
  157SAPE   HN317396   0.384   0.813   7.525 -0.0397  0.0292  1.4743
  157SAPE   C1217397   0.561   0.704   7.571 -0.1884  0.1286 -1.6004
  157SAPE  H12A17398   0.549   0.656   7.671 -0.3836  0.1440 -1.6177
  157SAPE  H12B17399   0.604   0.806   7.574 -2.1046  0.9675  1.1112
  157SAPE   C1117400   0.630   0.607   7.486 -0.7459 -0.0967  0.4970
  157SAPE  H11A17401   0.576   0.510   7.485 -1.0386  0.0645  0.3905
  157SAPE  H11B17402   0.729   0.581   7.528  0.3420  0.0735 -1.7791
  157SAPE     P17403   0.742   0.766   7.306  0.0107  0.0139 -0.1338
  157SAPE   O1317404   0.661   0.890   7.315  0.4097  0.3897  0.2144
  157SAPE   O1417405   0.866   0.760   7.380 -0.4632  0.0282 -0.8488
  157SAPE   O1217406   0.649   0.651   7.351 -0.0545  0.0037 -0.5724
  157SAPE   O1117407   0.775   0.739   7.148 -0.1352 -0.4167  0.3555
  157SAPE    C117408   0.821   0.610   7.111  0.1049  0.4013 -0.0828
  157SAPE    HA17409   0.931   0.600   7.123  0.2493 -0.7858 -2.0413
  157SAPE    HB17410   0.780   0.525   7.171  0.4857  2.2846  3.0652
  157SAPE    C217411   0.801   0.585   6.957  0.0230 -0.7109 -0.3925
  157SAPE    HS17412   0.872   0.502   6.938  0.6308 -0.2726 -0.0905
  157SAPE   O2117413   0.831   0.700   6.869 -0.6499 -0.3738 -0.4211
  157SAPE   C2117414   0.960   0.734   6.864  0.8419 -0.6938 -0.8433
  157SAPE   O2217415   1.049   0.671   6.920  0.4554 -0.3061 -0.1044
  157SAPE   C2217416   0.967   0.849   6.763  0.8044  0.0856 -0.5430
  157SAPE   H2R17417   0.869   0.870   6.716 -0.0842 -2.2639  0.1367
  157SAPE   H2S17418   0.988   0.943   6.820  0.4176  1.9768 -3.3083
  157SAPE    C317419   0.657   0.536   6.927  0.2803 -0.2471 -0.2431
  157SAPE    HX17420   0.603   0.608   6.992  0.7268 -0.0275 -0.1174
  157SAPE    HY17421   0.636   0.436   6.971 -1.9486 -0.2379 -1.1521
  157SAPE   O3117422   0.609   0.540   6.790  0.3243  0.5962 -0.0978
  157SAPE   C3117423   0.670   0.460   6.695  0.0088 -0.6158  0.1048
  157SAPE   O3217424   0.776   0.406   6.704 -0.3158  0.0874  0.4859
  157SAPE   C3217425   0.587   0.447   6.566  0.2542  0.4692 -0.0107
  157SAPE   H2X17426   0.525   0.539   6.559  0.8812  1.0749  1.8824
  157SAPE   H2Y17427   0.538   0.348   6.577  2.9920 -0.9072  0.8874
  157SAPE   C2317428   1.062   0.821   6.650 -0.0844 -0.2697 -0.1037
  157SAPE   H3R17429   1.016   0.754   6.574  1.2577 -0.8925 -0.3968
  157SAPE   H3S17430   1.153   0.771   6.690  0.2875 -0.0590 -0.6604
  157SAPE   C2417431   1.124   0.955   6.591 -0.0454  0.4520  0.6761
  157SAPE   H4R17432   1.159   1.010   6.681  1.5161 -1.6537  1.4462
  157SAPE   H4S17433   1.038   1.009   6.546 -2.2020 -2.6396  0.7956
  157SAPE   C2517434   1.241   0.935   6.498  0.5275 -0.6050  0.5037
  157SAPE   H5R17435   1.331   0.900   6.551  1.6866  3.0815  1.2829
  157SAPE   C2617436   1.256   0.970   6.368 -0.4347  0.1019 -0.2198
  157SAPE   H6R17437   1.346   0.927   6.321 -0.3723 -1.8180  1.5250
  157SAPE   C2717438   1.138   1.020   6.278 -0.3372 -0.1623 -0.1253
  157SAPE   H7R17439   1.177   1.108   6.223  0.0059 -0.8736 -1.0439
  157SAPE   H7S17440   1.058   1.067   6.340  0.3977 -0.1297  0.8171
  157SAPE   C2817441   1.088   0.908   6.191  1.0718  0.4642  0.0038
  157SAPE   H8R17442   0.993   0.867   6.230  0.3678  1.8344 -0.2023
  157SAPE   C2917443   1.113   0.872   6.060 -0.1769 -0.0602 -0.3963
  157SAPE   H9R17444   1.061   0.787   6.013  0.9195 -0.6192 -0.6244
  157SAPE  C21017445   1.230   0.923   5.978 -0.0968 -0.1095 -0.0357
  157SAPE  H10R17446   1.299   0.990   6.032  2.7583 -2.3737 -0.6197
  157SAPE  H10S17447   1.189   0.985   5.895 -1.7460 -0.7369  0.2670
  157SAPE  C21117448   1.308   0.797   5.932 -0.5737  0.1163 -0.3623
  157SAPE  H11R17449   1.368   0.738   6.002 -0.1225 -0.8417 -1.5132
  157SAPE  C21217450   1.302   0.753   5.803 -0.7300  0.7884 -0.2037
  157SAPE  H12R17451   1.368   0.668   5.782  0.6407  1.3542  1.5539
  157SAPE  C21317452   1.232   0.809   5.684 -0.2130  0.0449 -0.3978
  157SAPE  H13R17453   1.123   0.808   5.706 -0.4685  0.3262 -1.5982
  157SAPE  H13S17454   1.245   0.735   5.603 -2.4815 -0.4001 -0.4122
  157SAPE  C21417455   1.272   0.952   5.635 -0.0555  0.5163 -0.1904
  157SAPE  H14R17456   1.328   1.011   5.709 -0.4688  0.5252  0.1170
  157SAPE  C21517457   1.242   1.012   5.524  0.7776  0.9289 -0.1344
  157SAPE  H15R17458   1.289   1.110   5.504  0.1963  1.2686  0.1196
  157SAPE  C21617459   1.157   0.956   5.413  0.2382 -1.0998  0.4572
  157SAPE  H16R17460   1.086   1.030   5.371  0.8518 -0.0039  1.2906
  157SAPE  H16S17461   1.090   0.873   5.443  1.3658 -2.5880 -0.9558
  157SAPE  C21717462   1.251   0.902   5.296 -0.8394 -0.6995 -0.6412
  157SAPE  H17R17463   1.191   0.881   5.205  0.6731  0.1654 -1.9002
  157SAPE  H17S17464   1.280   0.806   5.345 -5.0825 -1.5111  0.6983
  157SAPE  C21817465   1.368   0.993   5.251 -0.4038 -0.7244  0.6446
  157SAPE  H18R17466   1.434   1.027   5.334  0.5891 -0.6284 -0.1620
  157SAPE  H18S17467   1.324   1.090   5.221  0.3607  0.3419  2.7336
  157SAPE  C21917468   1.451   0.932   5.138  0.0811 -0.2167  0.3261
  157SAPE  H19R17469   1.395   0.893   5.050  1.8508  1.0982 -1.4602
  157SAPE  H19S17470   1.504   0.849   5.189  1.3064  1.3472  1.7289
  157SAPE  C22017471   1.560   1.032   5.083 -0.3797 -0.0702 -0.1080
  157SAPE  H20R17472   1.578   0.980   4.987 -0.5750  0.5195 -0.4719
  157SAPE  H20S17473   1.658   1.038   5.135 -1.4742  1.8981  1.9303
  157SAPE  H20T17474   1.520   1.136   5.078  2.2497  1.0234 -0.0640
  157SAPE   C3317475   0.655   0.456   6.427 -0.9020  0.3848  0.1156
  157SAPE   H3X17476   0.576   0.419   6.359 -0.9985  1.0870 -0.1643
  157SAPE   H3Y17477   0.743   0.389   6.418 -1.1603 -0.3210  2.2806
  157SAPE   C3417478   0.689   0.599   6.395  0.6284 -0.6037  0.2575
  157SAPE   H4X17479   0.757   0.631   6.477  0.8372 -1.2298  0.3335
  157SAPE   H4Y17480   0.593   0.653   6.383  0.7829 -0.1236  1.1101
  157SAPE   C3517481   0.763   0.611   6.260  0.1366 -0.1982  0.1500
  157SAPE   H5X17482   0.828   0.522   6.246 -0.7499 -1.0227  1.1203
  157SAPE   H5Y17483   0.842   0.688   6.274  0.2574 -0.3018  0.0384
  157SAPE   C3617484   0.666   0.634   6.149  0.0602 -0.6877 -0.2829
  157SAPE   H6X17485   0.600   0.721   6.164  0.6226 -0.1079 -1.1131
  157SAPE   H6Y17486   0.598   0.546   6.142 -0.0937 -0.5235 -0.9142
  157SAPE   C3717487   0.743   0.647   6.015 -0.4387 -1.1944  0.2250
  157SAPE   H7X17488   0.836   0.587   6.030 -0.7902 -1.1401  3.1051
  157SAPE   H7Y17489   0.774   0.752   5.996  0.9366 -1.6434 -0.1371
  157SAPE   C3817490   0.672   0.591   5.893 -0.3147 -0.8037  0.2791
  157SAPE   H8X17491   0.580   0.650   5.873  0.1545  0.4491  1.6323
  157SAPE   H8Y17492   0.636   0.492   5.926 -0.1688 -0.7049  0.7333
  157SAPE   C3917493   0.764   0.574   5.774  0.9543  0.5616  0.2576
  157SAPE   H9X17494   0.716   0.495   5.713 -0.2513 -0.2301  2.1378
  157SAPE   H9Y17495   0.865   0.537   5.802 -0.2489 -1.3040  2.4438
  157SAPE  C31017496   0.785   0.705   5.688  0.0135 -0.3356 -0.8612
  157SAPE  H10X17497   0.833   0.771   5.763 -0.0264 -0.0115 -1.1184
  157SAPE  H10Y17498   0.694   0.752   5.644  1.4538  1.4904 -2.0918
  157SAPE  C31117499   0.887   0.671   5.568 -0.5460  0.2498  0.4710
  157SAPE  H11X17500   0.978   0.639   5.623 -0.6682 -1.6046 -0.3194
  157SAPE  H11Y17501   0.912   0.765   5.514  0.6382 -1.0477 -1.3822
  157SAPE  C31217502   0.851   0.572   5.463  0.3125  0.2744  0.2275
  157SAPE  H12X17503   0.755   0.606   5.418  0.1602  3.0841  2.3783
  157SAPE  H12Y17504   0.836   0.469   5.501 -0.7932 -0.4359 -1.9767
  157SAPE  C31317505   0.957   0.564   5.348 -0.1205 -1.0186 -0.6105
  157SAPE  H13X17506   1.056   0.528   5.381  0.2500  0.4669  0.0059
  157SAPE  H13Y17507   0.965   0.667   5.306  0.8708  0.0018  1.8435
  157SAPE  C31417508   0.909   0.493   5.227  0.4143 -0.1231 -0.1397
  157SAPE  H14X17509   0.861   0.396   5.252  1.8395 -0.8983 -0.2986
  157SAPE  H14Y17510   1.004   0.464   5.178  0.3667 -1.4117  0.4986
  157SAPE  C31517511   0.833   0.583   5.130 -0.3332  0.4800  0.5917
  157SAPE  H15X17512   0.883   0.682   5.127  0.2827  0.2571  2.3157
  157SAPE  H15Y17513   0.729   0.594   5.166 -1.1661  2.3206 -2.0656
  157SAPE  C31617514   0.822   0.505   4.995  0.7795  0.1206  0.6010
  157SAPE  H16X17515   0.793   0.398   5.009 -2.2897 -0.1378 -4.8063
  157SAPE  H16Y17516   0.918   0.501   4.939 -0.6911 -0.2387 -2.0933
  157SAPE  C31717517   0.725   0.573   4.892 -0.3954  0.6365 -0.8692
  157SAPE  H17X17518   0.774   0.662   4.845  3.0775 -0.3193  0.6329
  157SAPE  H17Y17519   0.639   0.613   4.950  1.0190  2.1732  0.3010
  157SAPE  C31817520   0.682   0.482   4.781  0.2489  0.2561 -0.5445
  157SAPE  H18X17521   0.767   0.438   4.725  1.8349  2.2102  0.1883
  157SAPE  H18Y17522   0.617   0.535   4.709  1.0949 -0.9491 -2.2525
  157SAPE  H18Z17523   0.610   0.406   4.817 -0.1373  1.2620  0.9204
  158SAPE     N17524   4.807   1.874   7.399 -0.1959 -0.3075 -0.0472
  158SAPE   HN117525   4.813   1.970   7.360 -0.7441  0.0611  0.7497
  158SAPE   HN217526   4.891   1.872   7.460  1.5081  1.3533 -2.1669
  158SAPE   HN317527   4.814   1.805   7.321  1.4412 -0.0377 -0.1699
  158SAPE   C1217528   4.679   1.864   7.476 -0.2248 -0.3342  0.2523
  158SAPE  H12A17529   4.598   1.890   7.405  0.1553  1.9118  0.5784
  158SAPE  H12B17530   4.665   1.947   7.548 -0.0058 -0.3057  0.2634
  158SAPE   C1117531   4.675   1.721   7.537 -0.3909  0.0634  0.0495
  158SAPE  H11A17532   4.577   1.724   7.590 -0.6957  1.0739 -0.5424
  158SAPE  H11B17533   4.762   1.708   7.605 -0.8649 -0.1025  0.6412
  158SAPE     P17534   4.746   1.488   7.435  0.0170 -0.4462  0.2036
  158SAPE   O1317535   4.847   1.493   7.543 -0.1894 -0.2705 -0.3850
  158SAPE   O1417536   4.643   1.384   7.445  0.8745 -0.2473  0.1604
  158SAPE   O1217537   4.666   1.620   7.433 -0.0408  0.1168  0.2278
  158SAPE   O1117538   4.808   1.475   7.290  0.2491  0.0319  0.7878
  158SAPE    C117539   4.850   1.349   7.230 -0.4181 -0.6460  0.0743
  158SAPE    HA17540   4.954   1.318   7.255 -0.2459  1.5752  2.5751
  158SAPE    HB17541   4.781   1.271   7.267 -1.7892  1.5352  2.4888
  158SAPE    C217542   4.829   1.352   7.076 -0.5651 -0.1340  0.0524
  158SAPE    HS17543   4.861   1.250   7.044  0.9736  0.0924  0.7349
  158SAPE   O2117544   4.911   1.453   7.007 -0.6347  0.0534  0.3933
  158SAPE   C2117545   5.038   1.418   6.978 -0.3417 -0.8482  0.2709
  158SAPE   O2217546   5.092   1.310   7.012  0.4240 -0.3904  0.4376
  158SAPE   C2217547   5.099   1.533   6.889 -1.4729 -0.1878 -0.1888
  158SAPE   H2R17548   5.020   1.570   6.820 -2.4118 -1.0295  0.3926
  158SAPE   H2S17549   5.125   1.617   6.956  2.5045  0.2533 -2.0086
  158SAPE    C317550   4.684   1.376   7.031  0.0920 -0.6095  0.1592
  158SAPE    HX17551   4.683   1.487   7.034 -1.2653 -0.6061  0.4347
  158SAPE    HY17552   4.617   1.330   7.106  2.1351 -2.2226  1.0726
  158SAPE   O3117553   4.657   1.330   6.893 -0.5896  0.2976 -0.1220
  158SAPE   C3117554   4.574   1.401   6.822  0.9376  0.2938 -0.3423
  158SAPE   O3217555   4.512   1.496   6.868 -0.1410 -0.4106 -0.1019
  158SAPE   C3217556   4.546   1.333   6.694  0.3867  0.1611 -0.1400
  158SAPE   H2X17557   4.472   1.383   6.628  0.1686  0.2715  0.1861
  158SAPE   H2Y17558   4.512   1.230   6.714  0.2152 -0.2599 -2.3461
  158SAPE   C2317559   5.232   1.486   6.821  0.3420 -0.6628 -0.2878
  158SAPE   H3R17560   5.202   1.457   6.718 -0.3207 -1.1666  0.0395
  158SAPE   H3S17561   5.277   1.391   6.858 -0.1481 -1.6554 -2.1244
  158SAPE   C2417562   5.329   1.601   6.820 -0.0114 -0.2656  0.4085
  158SAPE   H4R17563   5.361   1.628   6.923 -0.0826  1.7476 -0.0575
  158SAPE   H4S17564   5.290   1.691   6.769  0.2781 -0.6487 -0.4982
  158SAPE   C2517565   5.464   1.575   6.756 -0.0679 -0.3358 -0.5135
  158SAPE   H5R17566   5.550   1.549   6.819 -0.3834 -1.1291 -0.3966
  158SAPE   C2617567   5.484   1.579   6.633  0.3836 -0.6376  0.4363
  158SAPE   H6R17568   5.582   1.556   6.588 -0.0388 -0.1340 -0.7814
  158SAPE   C2717569   5.379   1.608   6.522 -0.1163 -0.0434 -0.0553
  158SAPE   H7R17570   5.284   1.655   6.556 -0.4570 -0.2355 -0.7280
  158SAPE   H7S17571   5.340   1.510   6.486  1.3851 -0.2237 -1.2856
  158SAPE   C2817572   5.443   1.682   6.400  0.3859 -0.0559 -0.2022
  158SAPE   H8R17573   5.533   1.739   6.424 -0.5684  1.6891 -0.6051
  158SAPE   C2917574   5.372   1.709   6.290  0.3273  0.5238 -0.2423
  158SAPE   H9R17575   5.430   1.749   6.206 -2.0394  1.0224 -1.7346
  158SAPE  C21017576   5.230   1.666   6.262  0.3225  0.7248 -0.8607
  158SAPE  H10R17577   5.161   1.745   6.301 -0.6511 -0.6745  0.3708
  158SAPE  H10S17578   5.192   1.582   6.324  0.8000  1.2330  0.1454
  158SAPE  C21117579   5.196   1.644   6.119 -0.0477  0.2083 -0.0276
  158SAPE  H11R17580   5.169   1.541   6.091 -1.5548  0.5535  0.1044
  158SAPE  C21217581   5.181   1.730   6.012  0.2736  0.3339 -1.0530
  158SAPE  H12R17582   5.145   1.689   5.917 -0.2066 -0.5874 -0.4902
  158SAPE  C21317583   5.197   1.884   6.016  0.5229 -0.1589 -0.3344
  158SAPE  H13R17584   5.235   1.928   6.110  0.9858 -0.0600 -0.5684
  158SAPE  H13S17585   5.093   1.923   6.014  0.5439 -0.1016 -1.5241
  158SAPE  C21417586   5.274   1.931   5.898  0.4423  0.4471  0.6379
  158SAPE  H14R17587   5.377   1.961   5.922  1.7837 -0.0831 -3.5452
  158SAPE  C21517588   5.230   1.957   5.771 -0.1616  0.4598 -0.8387
  158SAPE  H15R17589   5.306   1.995   5.701  2.2139 -0.9437  0.8214
  158SAPE  C21617590   5.096   1.939   5.701  0.6955 -0.3342  0.5060
  158SAPE  H16R17591   5.019   1.914   5.777  0.8473 -4.5380 -0.4770
  158SAPE  H16S17592   5.097   1.850   5.635 -0.5608 -0.2552  0.3553
  158SAPE  C21717593   5.049   2.049   5.603 -0.4568  0.5458  0.0222
  158SAPE  H17R17594   5.133   2.086   5.541 -0.5007 -0.1351 -0.4598
  158SAPE  H17S17595   5.014   2.139   5.658 -0.8125 -0.9661  2.3993
  158SAPE  C21817596   4.944   2.000   5.500  0.2383  0.5350 -0.7147
  158SAPE  H18R17597   4.859   1.955   5.555  1.1791  1.2676  1.4329
  158SAPE  H18S17598   4.985   1.918   5.437  2.0318  0.7962  0.0625
  158SAPE  C21917599   4.883   2.110   5.408 -0.2340 -0.1153 -0.3897
  158SAPE  H19R17600   4.810   2.163   5.473  0.2363 -1.9563  1.7991
  158SAPE  H19S17601   4.820   2.052   5.337  1.9157 -1.8230 -1.0204
  158SAPE  C22017602   4.982   2.199   5.331  0.2141 -0.5830  0.7620
  158SAPE  H20R17603   4.915   2.250   5.259 -1.1831  0.1622  2.5067
  158SAPE  H20S17604   5.050   2.136   5.269  1.0689  1.1460 -0.1350
  158SAPE  H20T17605   5.036   2.272   5.396 -0.5092 -0.9458  1.8034
  158SAPE   C3317606   4.671   1.305   6.605 -0.6728  0.0508  0.2959
  158SAPE   H3X17607   4.750   1.263   6.672 -0.6306 -0.5856 -0.1431
  158SAPE   H3Y17608   4.710   1.401   6.566 -0.7606  0.1822  0.5277
  158SAPE   C3417609   4.650   1.199   6.499  0.0145  0.6516  0.6129
  158SAPE   H4X17610   4.620   1.100   6.541 -0.8491  0.7287  0.2128
  158SAPE   H4Y17611   4.744   1.191   6.441 -1.2724 -1.3124 -1.3894
  158SAPE   C3517612   4.532   1.237   6.396  0.1002 -0.1214  0.4967
  158SAPE   H5X17613   4.559   1.333   6.346  1.4879 -1.0333 -0.5888
  158SAPE   H5Y17614   4.436   1.251   6.450 -0.6065  0.1390 -0.7993
  158SAPE   C3617615   4.520   1.137   6.277 -0.0854 -1.2140 -0.0625
  158SAPE   H6X17616   4.526   1.031   6.310  0.6778 -0.0918  3.9699
  158SAPE   H6Y17617   4.618   1.150   6.226 -0.0155  1.5846  0.6275
  158SAPE   C3717618   4.386   1.149   6.200  0.7860  0.7370 -0.1442
  158SAPE   H7X17619   4.377   1.244   6.142  1.0318  0.9763  0.2093
  158SAPE   H7Y17620   4.301   1.136   6.271  0.0463 -3.6246 -1.5382
  158SAPE   C3817621   4.373   1.025   6.106 -0.8259 -0.0888  0.0667
  158SAPE   H8X17622   4.281   1.020   6.044 -1.1415  1.9278  0.3344
  158SAPE   H8Y17623   4.364   0.942   6.180 -0.2802  1.7725  2.3136
  158SAPE   C3917624   4.498   1.015   6.020  0.3303  0.1281  0.3563
  158SAPE   H9X17625   4.493   0.925   5.955 -0.1013  0.7331 -0.4716
  158SAPE   H9Y17626   4.599   0.999   6.064  0.6737 -1.7427 -0.9469
  158SAPE  C31017627   4.505   1.129   5.916 -0.4865  0.4480  0.2859
  158SAPE  H10X17628   4.522   1.222   5.974 -1.1222  0.6907  0.0821
  158SAPE  H10Y17629   4.413   1.137   5.855 -0.2479  0.5681 -0.0557
  158SAPE  C31117630   4.619   1.107   5.823 -0.1801 -0.6657 -0.5090
  158SAPE  H11X17631   4.609   1.024   5.749 -1.9346 -1.4105  0.5023
  158SAPE  H11Y17632   4.711   1.078   5.878 -0.1920 -2.1363 -1.2016
  158SAPE  C31217633   4.645   1.236   5.737  0.1867 -0.9789 -0.0998
  158SAPE  H12X17634   4.739   1.204   5.687  1.0384 -0.4249  1.0861
  158SAPE  H12Y17635   4.661   1.328   5.798 -2.0458  0.7407 -1.9281
  158SAPE  C31317636   4.533   1.259   5.638  0.0347  0.2063 -0.3804
  158SAPE  H13X17637   4.572   1.337   5.569 -1.4664  0.4960 -0.9430
  158SAPE  H13Y17638   4.442   1.311   5.673 -0.1228 -0.3714  0.0775
  158SAPE  C31417639   4.490   1.132   5.557 -0.5291  0.5717  0.1606
  158SAPE  H14X17640   4.430   1.062   5.620 -0.0211 -1.5915 -1.6097
  158SAPE  H14Y17641   4.589   1.090   5.529 -0.4737  1.4445 -1.0256
  158SAPE  C31517642   4.403   1.162   5.427 -0.5435  0.2527  0.2147
  158SAPE  H15X17643   4.450   1.222   5.346 -0.9723 -0.2568 -0.4313
  158SAPE  H15Y17644   4.330   1.236   5.466  0.4362  1.3046  0.1013
  158SAPE  C31617645   4.336   1.038   5.368 -0.4731  0.2242  0.3149
  158SAPE  H16X17646   4.288   0.964   5.435  1.8825 -0.3420  1.4859
  158SAPE  H16Y17647   4.418   0.990   5.311 -1.2105  2.2166 -2.6342
  158SAPE  C31717648   4.237   1.091   5.262  0.4592  0.3604  1.0702
  158SAPE  H17X17649   4.280   1.175   5.203 -1.2566 -1.0144 -2.4034
  158SAPE  H17Y17650   4.143   1.116   5.316 -0.2484  0.3753 -0.1395
  158SAPE  C31817651   4.190   0.987   5.156 -0.4518 -0.3635 -0.4900
  158SAPE  H18X17652   4.126   0.905   5.194  0.4040 -0.5529  0.5747
  158SAPE  H18Y17653   4.275   0.937   5.106  0.9439  1.8211 -0.4356
  158SAPE  H18Z17654   4.117   1.031   5.084 -3.2472  0.7558  2.7486
  159SAPE     N17655   5.042   0.579   2.717  0.1834 -0.1664 -0.2652
  159SAPE   HN117656   4.957   0.519   2.706 -0.7549  1.3002 -1.3951
  159SAPE   HN217657   5.074   0.576   2.816  2.4929  0.6734 -0.9321
  159SAPE   HN317658   5.026   0.674   2.679  0.8520 -0.9292 -2.6254
  159SAPE   C1217659   5.156   0.520   2.649 -0.3993 -0.3443 -0.0684
  159SAPE  H12A17660   5.238   0.595   2.655 -1.4745  0.7061  3.1728
  159SAPE  H12B17661   5.125   0.509   2.543  1.4122 -3.3032 -0.4166
  159SAPE   C1117662   5.195   0.387   2.724 -0.3380 -0.1170 -0.1843
  159SAPE  H11A17663   5.287   0.341   2.682 -0.1484 -0.0556  0.1606
  159SAPE  H11B17664   5.117   0.309   2.715  0.6697 -1.3419  1.2185
  159SAPE     P17665   5.336   0.400   2.944  0.0479  0.6556  0.0844
  159SAPE   O1317666   5.447   0.469   2.872 -0.5105  1.0123  0.4588
  159SAPE   O1417667   5.313   0.448   3.084 -0.0112  0.0171  0.4619
  159SAPE   O1217668   5.204   0.407   2.863 -0.1280 -0.1234  0.1166
  159SAPE   O1117669   5.370   0.245   2.947 -0.0224  0.1281  0.5298
  159SAPE    C117670   5.259   0.152   2.937  1.1954  0.0855 -0.3423
  159SAPE    HA17671   5.160   0.202   2.942 -0.5677 -3.2481  1.9564
  159SAPE    HB17672   5.262   0.085   2.848 -2.8696 -3.0921  1.5643
  159SAPE    C217673   5.257   0.054   3.060  0.3134 -0.5802 -0.3170
  159SAPE    HS17674   5.229   0.104   3.155  0.5605 -1.4715  0.2372
  159SAPE   O2117675   5.388  -0.005   3.064  0.1734 -0.8197 -0.1468
  159SAPE   C2117676   5.445  -0.006   3.188 -0.5742  0.2740  0.2051
  159SAPE   O2217677   5.389   0.028   3.292 -0.2187  0.0636  0.0233
  159SAPE   C2217678   5.593  -0.032   3.175 -0.0474 -0.4982 -0.1590
  159SAPE   H2R17679   5.608  -0.129   3.124  0.1514 -0.4808 -0.1362
  159SAPE   H2S17680   5.632   0.054   3.116  2.4491 -1.3444  0.1358
  159SAPE    C317681   5.167  -0.070   3.050  0.3967 -0.0079  0.0435
  159SAPE    HX17682   5.199  -0.124   2.959  0.2477  2.0942 -1.3396
  159SAPE    HY17683   5.060  -0.052   3.025 -0.3909 -4.7972 -0.9256
  159SAPE   O3117684   5.175  -0.144   3.175 -0.6343  0.0947 -0.1945
  159SAPE   C3117685   5.094  -0.108   3.271 -0.0004 -0.0069 -0.7471
  159SAPE   O3217686   5.031   0.000   3.270 -0.2756 -1.1368 -0.2867
  159SAPE   C3217687   5.099  -0.210   3.383 -0.0663 -0.0813  0.4653
  159SAPE   H2X17688   5.204  -0.248   3.384  0.6827  1.7760 -0.7989
  159SAPE   H2Y17689   5.026  -0.290   3.362  1.0543 -1.7143  2.4068
  159SAPE   C2317690   5.665  -0.026   3.313 -0.3805  0.2570  0.1058
  159SAPE   H3R17691   5.631  -0.122   3.359  0.1096 -0.3010 -0.6668
  159SAPE   H3S17692   5.628   0.064   3.367 -1.1986  0.6855 -1.1379
  159SAPE   C2417693   5.817  -0.039   3.298  0.2023  0.0353 -0.2186
  159SAPE   H4R17694   5.844  -0.126   3.233  1.2961  1.2959 -1.5397
  159SAPE   H4S17695   5.867  -0.067   3.393 -0.0520 -3.0609 -0.8905
  159SAPE   C2517696   5.871   0.089   3.243 -0.3471 -0.3901  0.0425
  159SAPE   H5R17697   5.868   0.107   3.134  2.8047 -0.7786 -0.1854
  159SAPE   C2617698   5.918   0.192   3.320 -0.6276  0.3321 -0.5509
  159SAPE   H6R17699   5.956   0.285   3.276  0.1986  0.3024  0.0568
  159SAPE   C2717700   5.929   0.195   3.470 -0.2669 -0.0355 -0.6496
  159SAPE   H7R17701   6.012   0.266   3.489  1.2790 -1.4661 -1.6804
  159SAPE   H7S17702   5.968   0.105   3.523 -0.5767  0.8010  1.0532
  159SAPE   C2817703   5.794   0.237   3.534  0.7390  0.8378  0.0948
  159SAPE   H8R17704   5.710   0.273   3.474 -0.8442 -0.8089  1.2176
  159SAPE   C2917705   5.771   0.247   3.668  0.5245 -0.1986 -0.1578
  159SAPE   H9R17706   5.676   0.286   3.707  0.6937  2.0875 -1.8186
  159SAPE  C21017707   5.865   0.219   3.777  0.2099 -0.2113  0.3870
  159SAPE  H10R17708   5.936   0.139   3.746 -0.6485 -0.5918 -0.6754
  159SAPE  H10S17709   5.814   0.164   3.860  2.6366  0.4134  2.4389
  159SAPE  C21117710   5.937   0.339   3.834  0.0277  0.6650  0.0692
  159SAPE  H11R17711   5.956   0.424   3.766  1.0400 -0.6402 -1.3601
  159SAPE  C21217712   5.965   0.354   3.966  0.2161  0.2814 -0.2589
  159SAPE  H12R17713   6.036   0.434   3.990  1.4209  0.5201 -4.0227
  159SAPE  C21317714   5.945   0.257   4.087 -0.4509 -0.0266 -0.7607
  159SAPE  H13R17715   5.836   0.244   4.101 -0.3573 -2.4979 -1.7338
  159SAPE  H13S17716   5.968   0.319   4.176 -3.2859 -1.8918  1.4528
  159SAPE  C21417717   6.020   0.124   4.089  0.4615 -0.0097 -0.6319
  159SAPE  H14R17718   6.028   0.066   3.996  0.4434  0.4211 -0.9003
  159SAPE  C21517719   6.095   0.069   4.188  0.1301  0.2439 -0.4162
  159SAPE  H15R17720   6.138  -0.031   4.177 -0.1666  0.2448 -1.7533
  159SAPE  C21617721   6.120   0.127   4.324  0.0907 -0.8702 -0.3414
  159SAPE  H16R17722   6.079   0.062   4.404 -0.6459 -0.8981 -0.7346
  159SAPE  H16S17723   6.071   0.226   4.337  0.5859 -0.7298  0.5491
  159SAPE  C21717724   6.273   0.137   4.335 -1.0058  0.8878  0.2977
  159SAPE  H17R17725   6.319   0.160   4.236 -0.6218 -2.9486 -0.5786
  159SAPE  H17S17726   6.319   0.041   4.366 -1.7055  0.7734  1.0104
  159SAPE  C21817727   6.326   0.247   4.427 -0.5626 -0.3502  0.6270
  159SAPE  H18R17728   6.263   0.338   4.420  0.0493 -0.0188 -1.2834
  159SAPE  H18S17729   6.418   0.290   4.381  1.4071 -0.6539  3.9412
  159SAPE  C21917730   6.343   0.222   4.573 -0.3855  0.6760  0.0539
  159SAPE  H19R17731   6.418   0.141   4.586  0.6185  1.4565 -0.7563
  159SAPE  H19S17732   6.249   0.186   4.621  0.2686  1.2254  1.8375
  159SAPE  C22017733   6.399   0.342   4.649  0.8421  0.9787 -0.7486
  159SAPE  H20R17734   6.322   0.414   4.682 -0.6140 -0.9396  0.2314
  159SAPE  H20S17735   6.481   0.387   4.589  0.9488  0.0065 -1.3689
  159SAPE  H20T17736   6.439   0.308   4.747 -0.1041  0.2708 -0.6008
  159SAPE   C3317737   5.074  -0.141   3.518 -0.1392  0.6630  0.4086
  159SAPE   H3X17738   4.974  -0.095   3.527  0.2669  1.7428 -0.3860
  159SAPE   H3Y17739   5.148  -0.058   3.521  1.7645 -0.9264 -0.3828
  159SAPE   C3417740   5.086  -0.236   3.632  0.1350  0.4786 -0.1135
  159SAPE   H4X17741   5.100  -0.170   3.720  0.0596 -1.1500  1.1552
  159SAPE   H4Y17742   5.174  -0.298   3.604 -0.4917 -0.0455 -0.9591
  159SAPE   C3517743   4.963  -0.334   3.653 -0.0456 -0.4265 -0.2084
  159SAPE   H5X17744   4.949  -0.398   3.564 -3.3338 -0.5333  0.2759
  159SAPE   H5Y17745   4.868  -0.277   3.658  0.0734 -0.1894 -0.6634
  159SAPE   C3617746   4.977  -0.423   3.783 -0.4468 -0.2944 -0.2087
  159SAPE   H6X17747   5.073  -0.479   3.777 -0.3299 -0.0544 -0.5782
  159SAPE   H6Y17748   4.900  -0.503   3.781  0.5270 -1.4209  2.5266
  159SAPE   C3717749   4.976  -0.339   3.909 -0.4165  0.0587  0.1987
  159SAPE   H7X17750   4.873  -0.300   3.916 -0.1488  0.5667  1.9445
  159SAPE   H7Y17751   5.046  -0.253   3.903 -2.7227  2.3847  3.2858
  159SAPE   C3817752   5.016  -0.420   4.038 -0.5874 -0.4318 -0.4427
  159SAPE   H8X17753   4.966  -0.519   4.046  1.6673 -1.6823 -0.9041
  159SAPE   H8Y17754   4.991  -0.364   4.130  0.6637  1.7886 -1.3689
  159SAPE   C3917755   5.167  -0.424   4.038 -0.4329  0.2779  0.6084
  159SAPE   H9X17756   5.217  -0.326   4.047  0.3317 -0.1014  0.6160
  159SAPE   H9Y17757   5.212  -0.472   3.948  2.6966 -0.9479  2.6481
  159SAPE  C31017758   5.232  -0.505   4.155  0.1834  0.1092  0.2041
  159SAPE  H10X17759   5.236  -0.612   4.126 -0.6603  0.5033 -1.4803
  159SAPE  H10Y17760   5.174  -0.495   4.249 -0.5501 -1.6772 -0.0311
  159SAPE  C31117761   5.371  -0.457   4.179 -0.1769  0.1066  0.3486
  159SAPE  H11X17762   5.355  -0.348   4.191 -0.7024  0.1654 -0.6907
  159SAPE  H11Y17763   5.439  -0.470   4.092 -1.9547 -0.0732 -1.0761
  159SAPE  C31217764   5.415  -0.506   4.316 -0.1890  0.4285  0.1409
  159SAPE  H12X17765   5.526  -0.514   4.306 -0.1793  1.5849 -0.9182
  159SAPE  H12Y17766   5.369  -0.604   4.339 -1.3232  0.5851 -1.2883
  159SAPE  C31317767   5.370  -0.422   4.438  0.2117 -0.4875  0.9146
  159SAPE  H13X17768   5.422  -0.476   4.520  2.8269 -1.1550 -1.0315
  159SAPE  H13Y17769   5.260  -0.436   4.441  0.3439 -2.4723 -1.0518
  159SAPE  C31417770   5.412  -0.274   4.442  0.1054  0.5738 -0.0941
  159SAPE  H14X17771   5.357  -0.218   4.364 -0.7490  0.1299  0.1709
  159SAPE  H14Y17772   5.519  -0.267   4.415 -0.4135  0.6602 -2.2355
  159SAPE  C31517773   5.397  -0.199   4.577 -0.0396  0.1945 -0.5241
  159SAPE  H15X17774   5.450  -0.103   4.557  0.2518  0.0006 -0.6884
  159SAPE  H15Y17775   5.449  -0.252   4.660 -0.1346 -0.0244 -0.6034
  159SAPE  C31617776   5.249  -0.165   4.607  0.6824  0.6451  0.3247
  159SAPE  H16X17777   5.233  -0.144   4.715  1.6866 -0.2006  0.6524
  159SAPE  H16Y17778   5.175  -0.245   4.586 -1.5385  3.0387 -1.6079
  159SAPE  C31717779   5.181  -0.047   4.533 -0.3699  1.1882  0.4606
  159SAPE  H17X17780   5.170  -0.070   4.425  1.7511  2.4649 -0.1006
  159SAPE  H17Y17781   5.252   0.039   4.535  1.7539 -0.4591  0.0006
  159SAPE  C31817782   5.038  -0.008   4.589  0.3363 -0.8031 -0.0376
  159SAPE  H18X17783   4.997   0.073   4.526 -0.0387 -1.3665 -0.5306
  159SAPE  H18Y17784   5.050   0.028   4.693 -0.3324  1.5373 -0.7188
  159SAPE  H18Z17785   4.972  -0.097   4.583 -2.2787  0.7889  2.4541
  160SAPE     N17786   4.242   2.296   2.458  0.5566  0.4583 -0.3710
  160SAPE   HN117787   4.314   2.248   2.400 -0.4250  0.4451 -1.6117
  160SAPE   HN217788   4.188   2.218   2.502  0.2311 -0.3106 -2.0618
  160SAPE   HN317789   4.188   2.358   2.396 -0.8461 -0.7566 -0.4129
  160SAPE   C1217790   4.304   2.383   2.556  0.4281 -0.2260 -0.6270
  160SAPE  H12A17791   4.244   2.474   2.575  1.6434  0.8023 -1.5633
  160SAPE  H12B17792   4.397   2.426   2.511 -0.0140 -0.6255 -1.9758
  160SAPE   C1117793   4.332   2.303   2.687 -0.1135  0.2890 -0.3670
  160SAPE  H11A17794   4.356   2.365   2.776  0.2253 -1.9885  1.2097
  160SAPE  H11B17795   4.420   2.242   2.659  0.4566  1.3306 -0.9031
  160SAPE     P17796   4.100   2.272   2.794  0.3309 -0.2807 -0.6111
  160SAPE   O1317797   4.060   2.399   2.726 -0.2769 -0.0743  0.1115
  160SAPE   O1417798   3.992   2.169   2.808  0.2455 -0.2593  0.0441
  160SAPE   O1217799   4.222   2.218   2.717  0.2195  0.1622  0.9369
  160SAPE   O1117800   4.153   2.299   2.933  0.0235 -0.1629  0.2472
  160SAPE    C117801   4.087   2.370   3.034 -0.2847  0.2523  0.0040
  160SAPE    HA17802   4.167   2.424   3.089  1.4691 -0.8220 -1.3992
  160SAPE    HB17803   4.002   2.434   3.003 -1.9513 -1.5102  0.6917
  160SAPE    C217804   4.034   2.272   3.146  0.0314  0.0525  0.3881
  160SAPE    HS17805   4.118   2.212   3.187 -0.8642 -1.3756  0.2176
  160SAPE   O2117806   3.917   2.199   3.108 -0.2238 -1.0482  0.1281
  160SAPE   C2117807   3.934   2.068   3.095  0.5482  0.4372 -0.4357
  160SAPE   O2217808   4.032   2.005   3.114 -0.4260  0.2393  0.3555
  160SAPE   C2217809   3.801   1.999   3.043  0.4228  0.0047 -0.6717
  160SAPE   H2R17810   3.761   2.049   2.952 -1.1438 -1.0725 -0.6084
  160SAPE   H2S17811   3.826   1.898   3.005  0.6321  0.3355 -1.4339
  160SAPE    C317812   4.003   2.348   3.284 -0.0085 -0.3991 -0.4028
  160SAPE    HX17813   3.927   2.426   3.261 -1.0229 -1.5450 -1.0529
  160SAPE    HY17814   4.091   2.400   3.327 -0.2486 -1.9386  2.1951
  160SAPE   O3117815   3.940   2.259   3.386  0.2833 -0.1467  0.8666
  160SAPE   C3117816   4.025   2.193   3.464  0.2932 -0.2725  0.8492
  160SAPE   O3217817   4.145   2.205   3.465  0.5043  0.3319 -0.0156
  160SAPE   C3217818   3.955   2.101   3.561  1.1159 -0.5902  0.2511
  160SAPE   H2X17819   3.938   2.008   3.503  1.4170 -0.2864 -0.3341
  160SAPE   H2Y17820   3.859   2.146   3.593  0.1356 -1.2852 -1.5180
  160SAPE   C2317821   3.682   1.994   3.145 -0.4543  0.7054  0.4862
  160SAPE   H3R17822   3.587   1.982   3.088 -0.8577 -0.4683  1.3581
  160SAPE   H3S17823   3.677   2.087   3.206 -0.1664  1.2102 -0.2446
  160SAPE   C2417824   3.674   1.865   3.236 -0.4264  0.4443 -0.9670
  160SAPE   H4R17825   3.762   1.860   3.304 -1.1252 -1.2954 -0.1454
  160SAPE   H4S17826   3.672   1.772   3.175 -1.1844 -0.1506 -0.0689
  160SAPE   C2517827   3.546   1.864   3.317  0.7987 -0.5115 -0.3569
  160SAPE   H5R17828   3.451   1.863   3.261 -0.5770 -1.6611  1.8564
  160SAPE   C2617829   3.532   1.866   3.450  0.0429 -0.6000 -0.1575
  160SAPE   H6R17830   3.431   1.853   3.493 -0.2258 -0.3223 -0.6896
  160SAPE   C2717831   3.642   1.894   3.556  0.2764 -0.0582 -0.3396
  160SAPE   H7R17832   3.739   1.923   3.510 -0.8572  2.1942 -1.5153
  160SAPE   H7S17833   3.658   1.796   3.604  0.4673 -0.1648 -0.6206
  160SAPE   C2817834   3.606   2.005   3.655  0.9414 -0.2618 -0.3673
  160SAPE   H8R17835   3.570   2.100   3.613  2.3461  0.3688 -0.2294
  160SAPE   C2917836   3.609   2.004   3.788 -0.7588 -0.8733 -0.2225
  160SAPE   H9R17837   3.572   2.091   3.844 -1.0095 -2.0965  1.5792
  160SAPE  C21017838   3.650   1.890   3.884  0.5889 -0.2815 -0.1102
  160SAPE  H10R17839   3.665   1.795   3.829  1.1043  0.2800 -0.9625
  160SAPE  H10S17840   3.571   1.864   3.958  0.0997 -0.5887 -0.7360
  160SAPE  C21117841   3.773   1.924   3.953  0.1543  0.2888 -0.4883
  160SAPE  H11R17842   3.854   1.978   3.901 -0.0529  0.7484 -0.3423
  160SAPE  C21217843   3.805   1.892   4.076 -0.5178  0.1523 -0.5981
  160SAPE  H12R17844   3.910   1.901   4.107 -0.3002  0.5832 -1.4432
  160SAPE  C21317845   3.711   1.818   4.172  0.5287 -0.1705  0.4621
  160SAPE  H13R17846   3.601   1.822   4.155  0.4604  1.0955  1.0435
  160SAPE  H13S17847   3.731   1.868   4.269  2.5151 -2.6739  1.4516
  160SAPE  C21417848   3.742   1.669   4.186 -0.2137 -0.5119  0.3079
  160SAPE  H14R17849   3.729   1.608   4.095 -2.9838 -1.1840  1.0495
  160SAPE  C21517850   3.744   1.604   4.303  0.0823 -1.0993  0.2945
  160SAPE  H15R17851   3.761   1.496   4.289 -1.6353 -1.0815 -3.1151
  160SAPE  C21617852   3.724   1.670   4.439 -0.6147  0.1289 -0.1708
  160SAPE  H16R17853   3.715   1.781   4.433 -0.9202  0.0403 -1.9943
  160SAPE  H16S17854   3.811   1.641   4.501  0.1934 -0.6786 -1.6127
  160SAPE  C21717855   3.599   1.619   4.502  0.0391 -0.2923  0.3211
  160SAPE  H17R17856   3.522   1.620   4.422  2.8664  1.5213 -2.5942
  160SAPE  H17S17857   3.556   1.692   4.574  0.9315 -0.6103  1.2030
  160SAPE  C21817858   3.608   1.478   4.566 -0.2159 -0.1734 -0.8100
  160SAPE  H18R17859   3.675   1.500   4.652 -0.6178 -0.5598 -0.3943
  160SAPE  H18S17860   3.652   1.409   4.491  0.5112 -1.6834  0.9291
  160SAPE  C21917861   3.469   1.431   4.624 -0.1258 -0.0662  0.5325
  160SAPE  H19R17862   3.466   1.330   4.671 -2.5767 -1.0608 -1.5309
  160SAPE  H19S17863   3.403   1.432   4.535  0.7584  2.9165 -0.1923
  160SAPE  C22017864   3.401   1.524   4.726  0.2794  0.4327 -0.8232
  160SAPE  H20R17865   3.395   1.625   4.680  0.0225  0.8216  0.0561
  160SAPE  H20S17866   3.447   1.523   4.826 -3.7172  1.6194  1.2433
  160SAPE  H20T17867   3.298   1.485   4.742  0.0669  0.1181 -2.6827
  160SAPE   C3317868   4.056   2.068   3.678  0.4150  0.3158 -0.5409
  160SAPE   H3X17869   4.156   2.029   3.648  0.6802 -0.1326  0.8629
  160SAPE   H3Y17870   4.010   1.987   3.738 -0.7683  1.6280  0.3960
  160SAPE   C3417871   4.071   2.196   3.765  1.0656 -0.6682 -0.0319
  160SAPE   H4X17872   3.968   2.222   3.797  1.1437 -0.6982  0.2563
  160SAPE   H4Y17873   4.110   2.288   3.718 -0.8624  1.1459  1.7224
  160SAPE   C3517874   4.168   2.159   3.884  0.0820 -0.4284 -0.5752
  160SAPE   H5X17875   4.188   2.250   3.944 -1.3580 -1.3775  1.4633
  160SAPE   H5Y17876   4.267   2.125   3.847  0.4925  0.5212 -0.3729
  160SAPE   C3617877   4.100   2.056   3.980 -0.3835 -0.3249  0.7061
  160SAPE   H6X17878   4.092   1.955   3.936  1.1294 -0.2910  0.2819
  160SAPE   H6Y17879   3.996   2.088   4.003 -0.3948  0.8529 -0.7989
  160SAPE   C3717880   4.202   2.040   4.096 -0.2957 -0.3415 -0.3877
  160SAPE   H7X17881   4.227   2.144   4.124 -0.1468  0.8576 -4.3820
  160SAPE   H7Y17882   4.299   1.993   4.068 -0.0689 -0.5941  0.7480
  160SAPE   C3817883   4.148   1.969   4.227 -0.5513 -0.5367 -0.6458
  160SAPE   H8X17884   4.047   2.002   4.259 -0.5677  0.1651 -1.3931
  160SAPE   H8Y17885   4.204   2.005   4.316 -1.7982  1.6373 -0.6896
  160SAPE   C3917886   4.175   1.822   4.205 -0.7064  0.1597 -1.1089
  160SAPE   H9X17887   4.285   1.818   4.186 -0.8087 -0.7181 -1.5585
  160SAPE   H9Y17888   4.140   1.777   4.109 -0.8639 -2.1436 -0.0383
  160SAPE  C31017889   4.122   1.733   4.317 -0.9039  0.2354  1.0304
  160SAPE  H10X17890   4.156   1.633   4.284  0.3207  1.1378 -0.5548
  160SAPE  H10Y17891   4.011   1.735   4.321 -0.9660 -1.9577  1.6164
  160SAPE  C31117892   4.165   1.757   4.464 -0.3429 -0.0233 -0.3462
  160SAPE  H11X17893   4.106   1.817   4.536  2.9770 -0.5690  3.1809
  160SAPE  H11Y17894   4.270   1.796   4.460  0.7362 -2.3745  1.9966
  160SAPE  C31217895   4.198   1.628   4.554  0.3977  0.2081 -1.0190
  160SAPE  H12X17896   4.107   1.564   4.548  0.7530 -0.8775  2.8187
  160SAPE  H12Y17897   4.220   1.653   4.660  2.4417  0.5968 -1.4978
  160SAPE  C31317898   4.310   1.539   4.497 -0.4680  0.4320 -0.3318
  160SAPE  H13X17899   4.405   1.595   4.510 -1.3857  1.5397  2.3717
  160SAPE  H13Y17900   4.288   1.507   4.393 -4.1949 -1.3347  0.8207
  160SAPE  C31417901   4.340   1.408   4.576 -0.4335  1.1710  0.1668
  160SAPE  H14X17902   4.433   1.369   4.530  0.3747  2.1738  0.8984
  160SAPE  H14Y17903   4.263   1.333   4.550  1.5359 -0.7876 -0.3825
  160SAPE  C31517904   4.354   1.409   4.728 -0.7140  0.3860 -0.7277
  160SAPE  H15X17905   4.382   1.309   4.767  0.9934  0.0316 -2.6961
  160SAPE  H15Y17906   4.253   1.439   4.763 -1.2499 -1.9374 -0.1544
  160SAPE  C31617907   4.460   1.509   4.780 -0.0841 -0.2820 -0.3409
  160SAPE  H16X17908   4.424   1.611   4.756 -0.6977  0.1609  2.1635
  160SAPE  H16Y17909   4.552   1.493   4.721  0.8441  1.0862  0.6896
  160SAPE  C31717910   4.474   1.496   4.929  0.3016  0.1713 -0.1308
  160SAPE  H17X17911   4.379   1.468   4.980 -0.1893 -1.5605 -1.8760
  160SAPE  H17Y17912   4.511   1.591   4.973  2.6314 -0.3525 -0.8119
  160SAPE  C31817913   4.588   1.397   4.961  0.5018  0.4174 -0.3336
  160SAPE  H18X17914   4.579   1.314   4.887  0.6140  0.6629 -0.6256
  160SAPE  H18Y17915   4.596   1.365   5.067  0.8908 -4.6936 -1.6591
  160SAPE  H18Z17916   4.678   1.456   4.933 -0.0108  0.4317 -2.0824
  161SAPE     N17917   3.567   6.682   2.764 -0.0840 -0.4987  0.1818
  161SAPE   HN117918   3.494   6.751   2.790 -1.3638 -2.3655  1.8234
  161SAPE   HN217919   3.659   6.731   2.768  0.1060 -0.9123  1.6202
  161SAPE   HN317920   3.547   6.636   2.673  0.5748 -0.3711 -0.0343
  161SAPE   C1217921   3.588   6.588   2.874  0.9707  0.8680 -0.4844
  161SAPE  H12A17922   3.496   6.535   2.905  0.8488  1.6339  0.4954
  161SAPE  H12B17923   3.611   6.649   2.963  0.8632 -0.6058  0.5897
  161SAPE   C1117924   3.706   6.504   2.835  0.3689  0.5212 -0.2462
  161SAPE  H11A17925   3.684   6.443   2.746 -0.4429 -0.9950  0.9519
  161SAPE  H11B17926   3.720   6.427   2.914 -2.5595  1.7123  1.5977
  161SAPE     P17927   3.951   6.562   2.898  0.0732  0.0004 -0.4755
  161SAPE   O1317928   3.977   6.419   2.883  0.3941 -0.5101  0.6552
  161SAPE   O1417929   4.047   6.657   2.835  0.1954  0.1130 -0.8635
  161SAPE   O1217930   3.821   6.585   2.813  0.0521 -0.2405  0.5653
  161SAPE   O1117931   3.914   6.579   3.047 -0.2204 -0.1382  0.0056
  161SAPE    C117932   3.955   6.697   3.121 -0.1547  0.7779  0.0907
  161SAPE    HA17933   3.973   6.779   3.048  1.3079  2.7504  2.5029
  161SAPE    HB17934   3.877   6.727   3.195 -1.0317  2.1919 -1.3379
  161SAPE    C217935   4.079   6.656   3.195 -0.2153 -0.2442 -0.3257
  161SAPE    HS17936   4.161   6.639   3.121  0.6906 -0.7984  0.7692
  161SAPE   O2117937   4.056   6.542   3.280  0.2526 -0.3292 -0.2364
  161SAPE   C2117938   4.147   6.451   3.285 -0.0059 -0.9017 -0.7418
  161SAPE   O2217939   4.257   6.452   3.232  0.2627  0.0643 -0.1273
  161SAPE   C2217940   4.113   6.366   3.410 -0.2102  0.2968 -1.3262
  161SAPE   H2R17941   4.073   6.425   3.495 -1.5012 -2.0326 -0.2309
  161SAPE   H2S17942   4.041   6.289   3.376  0.8164 -0.9580 -0.7275
  161SAPE    C317943   4.132   6.769   3.290 -0.0071  0.4125  0.4635
  161SAPE    HX17944   4.156   6.856   3.225 -1.2760  0.5167  0.1095
  161SAPE    HY17945   4.227   6.731   3.333 -0.6612  0.5111  2.0617
  161SAPE   O3117946   4.037   6.812   3.398 -0.6247  0.2362 -0.1014
  161SAPE   C3117947   4.097   6.880   3.505 -0.1397  0.0278  0.2744
  161SAPE   O3217948   4.218   6.891   3.516  1.0412 -0.2255 -1.2379
  161SAPE   C3217949   3.998   6.934   3.599 -0.4030  0.0290 -0.1380
  161SAPE   H2X17950   3.934   7.000   3.537 -0.8008 -0.2218  0.0043
  161SAPE   H2Y17951   4.050   6.988   3.681  0.0221 -2.1374  1.1174
  161SAPE   C2317952   4.233   6.280   3.471  0.1744  0.1958 -0.0088
  161SAPE   H3R17953   4.322   6.344   3.481 -0.6090  1.2754  0.2283
  161SAPE   H3S17954   4.249   6.197   3.399 -0.5013  2.3743 -2.8506
  161SAPE   C2417955   4.197   6.221   3.610 -0.0375 -0.5443  0.2201
  161SAPE   H4R17956   4.273   6.141   3.627 -0.2288 -0.8552 -0.3478
  161SAPE   H4S17957   4.099   6.168   3.623 -2.0540  2.2450 -2.2291
  161SAPE   C2517958   4.197   6.330   3.716 -0.7117 -0.0951  0.6915
  161SAPE   H5R17959   4.167   6.432   3.689  0.1447  0.6825  2.5125
  161SAPE   C2617960   4.210   6.297   3.849  0.0702 -1.0353 -0.2818
  161SAPE   H6R17961   4.192   6.376   3.923  1.8173 -0.1025 -0.8043
  161SAPE   C2717962   4.242   6.154   3.905  0.9121 -0.6455  0.2575
  161SAPE   H7R17963   4.303   6.177   3.995  0.0832  1.7049  0.2924
  161SAPE   H7S17964   4.308   6.094   3.839  0.1027 -0.8664 -0.3685
  161SAPE   C2817965   4.120   6.077   3.947 -0.1200 -0.0170 -0.1089
  161SAPE   H8R17966   4.053   6.031   3.873 -0.6404  0.0873  0.2881
  161SAPE   C2917967   4.095   6.042   4.076 -0.6632  0.5055 -0.1633
  161SAPE   H9R17968   4.001   5.989   4.099  0.0815 -1.4600 -1.3932
  161SAPE  C21017969   4.170   6.088   4.200  0.1082 -0.3558  0.3793
  161SAPE  H10R17970   4.276   6.080   4.168  0.0917  0.5184  0.0826
  161SAPE  H10S17971   4.157   6.011   4.279 -1.0662 -0.4340  0.1289
  161SAPE  C21117972   4.142   6.224   4.256  0.0396  0.0991 -0.1318
  161SAPE  H11R17973   4.146   6.310   4.187 -3.4556  1.8041  1.5687
  161SAPE  C21217974   4.114   6.263   4.383  0.0414  0.2181  0.2007
  161SAPE  H12R17975   4.093   6.368   4.404  1.6670 -0.2298  5.2503
  161SAPE  C21317976   4.106   6.174   4.502 -0.0818 -0.1153  0.8126
  161SAPE  H13R17977   4.166   6.213   4.587  0.2192  0.0526  0.5211
  161SAPE  H13S17978   4.156   6.080   4.471 -0.4806 -0.7092  1.9114
  161SAPE  C21417979   3.964   6.137   4.540 -0.1372  0.0356 -0.5189
  161SAPE  H14R17980   3.882   6.208   4.522  1.0069  2.2865  2.3198
  161SAPE  C21517981   3.935   6.030   4.609  0.2123  0.8027  0.3687
  161SAPE  H15R17982   3.831   6.009   4.639  0.4442  0.6024  1.0470
  161SAPE  C21617983   4.026   5.925   4.661 -0.1028 -0.8039  0.7092
  161SAPE  H16R17984   4.127   5.911   4.617 -0.0263 -1.8647  1.1883
  161SAPE  H16S17985   3.982   5.829   4.629 -2.5891  0.9457 -1.5820
  161SAPE  C21717986   4.050   5.938   4.811  0.4257  0.2437 -0.2902
  161SAPE  H17R17987   4.097   6.038   4.827 -2.9584  1.8320  0.5942
  161SAPE  H17S17988   4.117   5.854   4.838  0.1566  0.4291  1.0104
  161SAPE  C21817989   3.923   5.923   4.895  0.5872 -0.0038  0.0505
  161SAPE  H18R17990   3.897   5.816   4.902 -0.3279  0.2265  0.2954
  161SAPE  H18S17991   3.831   5.968   4.852  1.3106  0.4226 -1.0968
  161SAPE  C21917992   3.938   5.974   5.035  0.0319  0.0682 -0.1231
  161SAPE  H19R17993   3.980   6.076   5.031  0.5710 -0.1651 -0.5732
  161SAPE  H19S17994   4.015   5.921   5.094 -0.1278  0.1857  0.1932
  161SAPE  C22017995   3.814   5.981   5.118  0.1566 -0.5545  0.0463
  161SAPE  H20R17996   3.769   5.884   5.148 -3.3812  1.0643  0.4479
  161SAPE  H20S17997   3.736   6.041   5.067  0.1928 -0.8907 -0.4179
  161SAPE  H20T17998   3.825   6.040   5.211  0.1395  1.3256 -1.0903
  161SAPE   C3317999   3.912   6.816   3.656 -0.3266 -0.5909  0.7709
  161SAPE   H3X18000   3.850   6.777   3.573  0.2932  1.1219 -0.5387
  161SAPE   H3Y18001   3.851   6.862   3.738 -0.0150 -1.0737  1.2800
  161SAPE   C3418002   4.003   6.713   3.714  0.0627 -0.6484 -0.5723
  161SAPE   H4X18003   4.081   6.759   3.779 -0.2091 -0.4291 -0.3999
  161SAPE   H4Y18004   4.056   6.660   3.632  1.0610  0.6539 -0.8028
  161SAPE   C3518005   3.931   6.612   3.803 -0.4781 -0.7583 -0.0617
  161SAPE   H5X18006   3.962   6.514   3.761  1.9179 -0.4346  0.7837
  161SAPE   H5Y18007   3.824   6.640   3.793 -0.7083 -1.2053  1.0270
  161SAPE   C3618008   3.970   6.629   3.954  0.1972  0.1144  0.0651
  161SAPE   H6X18009   3.940   6.725   4.001  0.4369 -0.7243  2.0377
  161SAPE   H6Y18010   4.080   6.613   3.958  0.2049  0.5017  2.7186
  161SAPE   C3718011   3.903   6.517   4.040  0.4450  0.0039 -0.0022
  161SAPE   H7X18012   3.921   6.419   3.991  1.0646  0.0077  0.2075
  161SAPE   H7Y18013   3.792   6.524   4.031  0.3226  1.4680  2.0176
  161SAPE   C3818014   3.952   6.517   4.189  0.1162 -0.1295 -0.5681
  161SAPE   H8X18015   4.063   6.511   4.187  0.0332 -2.5161 -1.3256
  161SAPE   H8Y18016   3.915   6.422   4.232 -1.4175  0.2561 -0.9501
  161SAPE   C3918017   3.921   6.654   4.265 -0.0786 -0.6505 -0.8215
  161SAPE   H9X18018   3.811   6.669   4.254  0.1389  3.0659  0.4957
  161SAPE   H9Y18019   3.973   6.736   4.211 -0.4175 -0.3643 -0.7187
  161SAPE  C31018020   3.950   6.670   4.412 -0.4414 -0.2027 -0.1143
  161SAPE  H10X18021   3.930   6.577   4.469  1.6914 -0.0420  1.0037
  161SAPE  H10Y18022   3.874   6.738   4.454  1.0691  3.5286 -2.8353
  161SAPE  C31118023   4.089   6.728   4.447  0.0936 -0.1072 -0.4912
  161SAPE  H11X18024   4.080   6.775   4.548 -0.1108  0.0454 -0.5786
  161SAPE  H11Y18025   4.111   6.817   4.384 -5.0127  2.4078  0.6703
  161SAPE  C31218026   4.195   6.617   4.455  0.3325 -0.2738  0.6700
  161SAPE  H12X18027   4.182   6.565   4.357  3.7403  0.6431 -0.4143
  161SAPE  H12Y18028   4.187   6.549   4.542  1.0563 -0.4073  0.6404
  161SAPE  C31318029   4.329   6.692   4.470 -0.0780  0.5435  0.0526
  161SAPE  H13X18030   4.333   6.758   4.559 -0.0509 -0.4268  0.7781
  161SAPE  H13Y18031   4.343   6.757   4.380 -1.9679  0.1339 -0.5800
  161SAPE  C31418032   4.452   6.595   4.465  0.5591  0.5665  0.2364
  161SAPE  H14X18033   4.434   6.539   4.370  0.1217  1.6964 -0.3646
  161SAPE  H14Y18034   4.460   6.538   4.560  0.4140  3.0614  1.8200
  161SAPE  C31518035   4.586   6.665   4.448 -0.1052  0.7313 -0.1091
  161SAPE  H15X18036   4.608   6.720   4.543 -1.0019 -1.5384  1.5000
  161SAPE  H15Y18037   4.583   6.726   4.355 -0.8135 -0.2054 -0.7104
  161SAPE  C31618038   4.702   6.566   4.431  0.1224  0.0536 -0.1883
  161SAPE  H16X18039   4.677   6.499   4.346  0.2767  0.1700 -0.3253
  161SAPE  H16Y18040   4.727   6.510   4.523 -1.3855 -2.4542 -1.1964
  161SAPE  C31718041   4.834   6.640   4.398  0.3060 -0.0233  0.5094
  161SAPE  H17X18042   4.842   6.735   4.456 -1.5728  1.2375 -1.1494
  161SAPE  H17Y18043   4.821   6.675   4.294  1.2420  0.7897  0.6519
  161SAPE  C31818044   4.963   6.557   4.409 -0.7442 -0.6401  0.9320
  161SAPE  H18X18045   4.956   6.460   4.356 -1.0603  1.2026 -2.7136
  161SAPE  H18Y18046   4.997   6.533   4.512 -1.2137 -2.8977  0.6229
  161SAPE  H18Z18047   5.047   6.613   4.362 -1.4601 -1.7945 -1.9958
  162SAPE     N18048   2.239   3.699   3.308  0.1953  0.4535  0.2518
  162SAPE   HN118049   2.156   3.642   3.282 -0.0460  1.1356 -0.5194
  162SAPE   HN218050   2.243   3.787   3.253  0.1752 -0.3595 -1.1072
  162SAPE   HN318051   2.315   3.634   3.279 -0.3797 -0.1582  0.0711
  162SAPE   C1218052   2.252   3.720   3.451  0.1704 -0.6299 -0.1773
  162SAPE  H12A18053   2.278   3.621   3.495 -0.8456 -1.2397 -0.8891
  162SAPE  H12B18054   2.154   3.755   3.490  2.2744  2.2890  3.0663
  162SAPE   C1118055   2.355   3.840   3.472 -0.7941  0.9353 -0.3690
  162SAPE  H11A18056   2.365   3.868   3.578 -1.1270  0.2482 -0.1489
  162SAPE  H11B18057   2.319   3.928   3.415 -1.7268  1.1040  0.4537
  162SAPE     P18058   2.588   3.888   3.338  0.3351 -0.2744 -0.2032
  162SAPE   O1318059   2.702   3.811   3.285 -0.5852 -0.2442  0.2928
  162SAPE   O1418060   2.507   3.965   3.242  0.4335 -0.0234  0.7243
  162SAPE   O1218061   2.486   3.791   3.417 -0.0836 -0.1714  0.4378
  162SAPE   O1118062   2.619   3.989   3.461 -0.1791  0.0900 -0.7696
  162SAPE    C118063   2.721   3.970   3.560  0.1363 -0.2218 -0.5514
  162SAPE    HA18064   2.805   3.911   3.517  0.0311  0.2919 -1.4893
  162SAPE    HB18065   2.760   4.071   3.584 -1.0078 -0.4804  2.9530
  162SAPE    C218066   2.669   3.907   3.689 -0.2204  0.4815 -0.9703
  162SAPE    HS18067   2.753   3.879   3.755 -1.7637 -0.0519  0.8748
  162SAPE   O2118068   2.585   3.796   3.674 -0.0840  0.6136 -0.4783
  162SAPE   C2118069   2.658   3.689   3.644  0.4165 -0.1719 -0.4105
  162SAPE   O2218070   2.780   3.684   3.629  0.4806  0.3306  0.0038
  162SAPE   C2218071   2.562   3.573   3.649 -0.3999 -0.4531 -0.6118
  162SAPE   H2R18072   2.491   3.597   3.731 -0.1327  1.7602 -0.9723
  162SAPE   H2S18073   2.496   3.572   3.560  3.0085 -3.0577 -3.3835
  162SAPE    C318074   2.590   4.014   3.777 -0.3193  0.4184 -0.1707
  162SAPE    HX18075   2.485   4.004   3.743 -0.3978  0.2963  0.1005
  162SAPE    HY18076   2.637   4.108   3.740 -1.8030  0.6036 -1.6711
  162SAPE   O3118077   2.602   4.001   3.923  0.4672  0.4160  0.2251
  162SAPE   C3118078   2.494   4.048   3.990  0.1704  0.8346  1.0446
  162SAPE   O3218079   2.388   4.077   3.936  0.4928  0.0162  0.2811
  162SAPE   C3218080   2.526   4.063   4.135 -0.3811 -0.4476  0.1601
  162SAPE   H2X18081   2.620   4.121   4.144 -1.6895  1.9609 -0.9182
  162SAPE   H2Y18082   2.539   3.963   4.181  0.5266  0.5810  2.2910
  162SAPE   C2318083   2.634   3.435   3.658 -0.1216  0.4000  0.0978
  162SAPE   H3R18084   2.716   3.425   3.584 -0.5273 -1.8229 -0.1162
  162SAPE   H3S18085   2.565   3.350   3.638  0.7852 -0.1413 -0.8446
  162SAPE   C2418086   2.690   3.398   3.796  0.3426 -0.4689 -0.8403
  162SAPE   H4R18087   2.756   3.483   3.826  0.3951 -0.8322  0.1164
  162SAPE   H4S18088   2.763   3.314   3.795 -0.0714 -0.8662  0.4596
  162SAPE   C2518089   2.590   3.373   3.910  0.3245 -0.0501  0.4246
  162SAPE   H5R18090   2.531   3.284   3.884 -0.2438  0.7197 -1.0641
  162SAPE   C2618091   2.569   3.449   4.018 -0.1157 -0.3271  0.0533
  162SAPE   H6R18092   2.480   3.425   4.078 -0.9370 -1.3223 -1.4735
  162SAPE   C2718093   2.649   3.572   4.058 -0.0835  0.3104  0.3443
  162SAPE   H7R18094   2.742   3.592   4.000  0.6020 -0.2305  1.2333
  162SAPE   H7S18095   2.681   3.547   4.162 -1.1862 -0.2672  0.5637
  162SAPE   C2818096   2.552   3.684   4.078 -0.1677  0.3382 -0.0162
  162SAPE   H8R18097   2.554   3.756   3.995  1.9837  2.3380  1.6287
  162SAPE   C2918098   2.472   3.703   4.184 -0.2020 -0.2989  0.1002
  162SAPE   H9R18099   2.400   3.787   4.187  0.8275  0.6061 -0.1170
  162SAPE  C21018100   2.464   3.617   4.306  0.0909  0.6936 -0.4218
  162SAPE  H10R18101   2.509   3.517   4.289 -0.8694  0.2482 -0.4502
  162SAPE  H10S18102   2.357   3.592   4.325  0.2962 -0.4655 -0.7257
  162SAPE  C21118103   2.519   3.689   4.424  0.2351 -0.4318 -0.4161
  162SAPE  H11R18104   2.619   3.649   4.449  0.7516  1.1164  0.1447
  162SAPE  C21218105   2.457   3.780   4.497  0.3870  0.2171 -0.0392
  162SAPE  H12R18106   2.503   3.812   4.592 -0.1382 -0.9400  0.6302
  162SAPE  C21318107   2.315   3.816   4.467  0.2811 -0.6346 -0.2060
  162SAPE  H13R18108   2.287   3.810   4.360  2.1028  3.0015 -1.0542
  162SAPE  H13S18109   2.321   3.924   4.491  1.4995 -1.3182  3.0898
  162SAPE  C21418110   2.198   3.762   4.555  0.0689 -0.0925  0.1028
  162SAPE  H14R18111   2.132   3.683   4.516 -1.6799  0.4945  1.7379
  162SAPE  C21518112   2.160   3.819   4.673  0.1593 -0.5125  0.6972
  162SAPE  H15R18113   2.070   3.775   4.719 -0.9882  0.2064 -0.7977
  162SAPE  C21618114   2.224   3.946   4.738 -0.5155  0.8945 -0.5581
  162SAPE  H16R18115   2.145   4.022   4.759 -0.4560  1.1673 -1.3061
  162SAPE  H16S18116   2.293   4.002   4.671  1.4655 -0.3627  0.3315
  162SAPE  C21718117   2.301   3.906   4.870 -0.9436 -0.0276  0.0351
  162SAPE  H17R18118   2.373   3.825   4.846 -1.8824 -0.7502 -0.3709
  162SAPE  H17S18119   2.225   3.859   4.936 -0.0791 -0.9531  0.4022
  162SAPE  C21818120   2.373   4.024   4.941 -1.1742  0.6240  0.4257
  162SAPE  H18R18121   2.438   4.083   4.873  0.6818 -0.8646  0.8322
  162SAPE  H18S18122   2.439   3.994   5.025  1.5751 -0.1130 -1.8392
  162SAPE  C21918123   2.266   4.124   4.994  0.0115 -1.2124  0.0614
  162SAPE  H19R18124   2.190   4.070   5.054 -1.9509 -0.1940 -1.4214
  162SAPE  H19S18125   2.208   4.176   4.915  0.4430  0.7321  0.9818
  162SAPE  C22018126   2.329   4.228   5.085 -0.1716  0.5466 -0.1179
  162SAPE  H20R18127   2.416   4.178   5.135  0.5652  0.2185 -1.6559
  162SAPE  H20S18128   2.258   4.281   5.152  1.4637  0.4448  1.7982
  162SAPE  H20T18129   2.369   4.312   5.024 -2.2633  1.5597 -0.1787
  162SAPE   C3318130   2.420   4.142   4.213 -0.2831  0.3631  0.0745
  162SAPE   H3X18131   2.334   4.075   4.236 -0.4854  0.7166  0.3524
  162SAPE   H3Y18132   2.389   4.227   4.149  0.3773 -0.0244 -0.7856
  162SAPE   C3418133   2.457   4.200   4.350  0.1898  0.5059 -0.1606
  162SAPE   H4X18134   2.555   4.252   4.357 -0.0800  0.8240  2.0764
  162SAPE   H4Y18135   2.462   4.122   4.430  0.7228 -0.9293 -1.5438
  162SAPE   C3518136   2.353   4.298   4.410  0.0477  0.4543 -0.0150
  162SAPE   H5X18137   2.271   4.234   4.450 -0.4560 -0.0394 -1.7650
  162SAPE   H5Y18138   2.316   4.377   4.343 -2.8102 -0.8141 -0.0648
  162SAPE   C3618139   2.414   4.377   4.532  0.2419  0.4223 -0.9813
  162SAPE   H6X18140   2.491   4.436   4.476  1.1161 -0.7154 -1.0277
  162SAPE   H6Y18141   2.460   4.318   4.614 -0.2749  1.7470  0.3027
  162SAPE   C3718142   2.312   4.482   4.592  0.0199 -0.3774  0.5114
  162SAPE   H7X18143   2.275   4.541   4.506  1.7264 -1.5992 -1.1456
  162SAPE   H7Y18144   2.377   4.546   4.656 -0.0711  0.3433 -0.1020
  162SAPE   C3818145   2.202   4.428   4.679  1.2842  0.2321  0.0495
  162SAPE   H8X18146   2.243   4.361   4.758 -2.4514 -1.8881  0.4462
  162SAPE   H8Y18147   2.132   4.368   4.617  1.3173  0.0202  0.2150
  162SAPE   C3918148   2.116   4.541   4.735  0.8417  0.3093 -0.0483
  162SAPE   H9X18149   2.112   4.616   4.653  0.7056  0.0128 -0.3126
  162SAPE   H9Y18150   2.166   4.591   4.821  1.2388  0.0862 -0.1479
  162SAPE  C31018151   1.978   4.487   4.769  0.1370  0.2376 -0.2254
  162SAPE  H10X18152   1.998   4.406   4.842  1.3044  2.7871  2.5163
  162SAPE  H10Y18153   1.930   4.440   4.681  1.6926 -0.6669 -0.6206
  162SAPE  C31118154   1.894   4.597   4.838  0.2592 -0.5413  0.0263
  162SAPE  H11X18155   1.817   4.645   4.774  0.7902  1.4052  0.7755
  162SAPE  H11Y18156   1.960   4.681   4.869  0.6702 -0.4156 -1.1216
  162SAPE  C31218157   1.820   4.555   4.967 -0.6074 -0.0392  0.2655
  162SAPE  H12X18158   1.889   4.507   5.039  1.6841  1.3661 -0.8671
  162SAPE  H12Y18159   1.743   4.482   4.934 -1.7407  1.4512 -0.4888
  162SAPE  C31318160   1.753   4.689   5.027  1.0266  0.5941 -0.6540
  162SAPE  H13X18161   1.685   4.725   4.946 -1.3835 -2.4251 -0.1520
  162SAPE  H13Y18162   1.828   4.765   5.056  2.1211 -0.4321 -0.7036
  162SAPE  C31418163   1.664   4.651   5.146  1.0594 -0.0126 -0.2977
  162SAPE  H14X18164   1.725   4.613   5.231  0.4725 -0.2479  0.0200
  162SAPE  H14Y18165   1.599   4.565   5.120 -1.6581  1.5434  0.8719
  162SAPE  C31518166   1.571   4.769   5.195  0.7185  0.4923  0.4700
  162SAPE  H15X18167   1.531   4.823   5.107 -0.4358  2.4928  2.1183
  162SAPE  H15Y18168   1.629   4.840   5.259 -2.0791  1.5980  1.9741
  162SAPE  C31618169   1.457   4.717   5.283  0.0040 -0.6392  0.5540
  162SAPE  H16X18170   1.501   4.670   5.374  1.7597 -0.5746 -0.2141
  162SAPE  H16Y18171   1.390   4.643   5.234  1.0393 -0.7822 -0.6995
  162SAPE  C31718172   1.366   4.829   5.325  0.3656  0.2765  0.1420
  162SAPE  H17X18173   1.293   4.780   5.394  3.1339 -1.5750  1.9614
  162SAPE  H17Y18174   1.309   4.868   5.237  2.8074 -0.8189 -2.0672
  162SAPE  C31818175   1.429   4.953   5.386  0.1875 -0.1070  0.0943
  162SAPE  H18X18176   1.473   4.933   5.487 -0.7211  1.1915  0.7764
  162SAPE  H18Y18177   1.347   5.021   5.416  0.8641 -0.3716  2.9145
  162SAPE  H18Z18178   1.500   5.001   5.315  0.1185 -0.2729 -0.0871
  163SAPE     N18179   1.683   1.242   2.720 -0.0004 -0.2857  0.7412
  163SAPE   HN118180   1.739   1.206   2.640  0.2587 -2.0321  1.6491
  163SAPE   HN218181   1.585   1.252   2.688 -0.1397  0.5898  1.4068
  163SAPE   HN318182   1.707   1.342   2.735 -0.5730 -0.1237  0.6028
  163SAPE   C1218183   1.680   1.166   2.846  0.1791 -0.6946 -0.1088
  163SAPE  H12A18184   1.650   1.235   2.929 -0.9048 -0.2659 -0.8315
  163SAPE  H12B18185   1.787   1.145   2.869  1.1740  2.3432 -1.3962
  163SAPE   C1118186   1.594   1.044   2.828  0.0027 -0.4339  0.1907
  163SAPE  H11A18187   1.595   0.973   2.914 -1.2764 -1.3829 -0.5513
  163SAPE  H11B18188   1.650   0.997   2.744  0.4153  2.1522 -1.0845
  163SAPE     P18189   1.360   0.947   2.790 -0.3594 -0.2630  0.3770
  163SAPE   O1318190   1.234   1.003   2.726 -0.5859 -0.1495  0.1714
  163SAPE   O1418191   1.423   0.829   2.730 -0.0785  0.2999 -1.0454
  163SAPE   O1218192   1.465   1.071   2.780  0.4183 -0.3800  0.1402
  163SAPE   O1118193   1.328   0.909   2.942 -0.2315  0.0707 -0.7710
  163SAPE    C118194   1.273   1.005   3.035  0.1835  0.0537  0.1515
  163SAPE    HA18195   1.236   1.096   2.984  1.6259  2.5515  3.2267
  163SAPE    HB18196   1.196   0.953   3.096  0.1459 -3.0780 -2.2583
  163SAPE    C218197   1.376   1.047   3.143  0.5036 -0.0480 -0.0104
  163SAPE    HS18198   1.440   1.124   3.097 -0.4559  1.6036  1.2994
  163SAPE   O2118199   1.459   0.937   3.193  0.6607 -0.4346  0.1373
  163SAPE   C2118200   1.545   0.981   3.282 -0.3536  0.8156 -0.1799
  163SAPE   O2218201   1.558   1.096   3.324  0.0762  0.4982  0.1052
  163SAPE   C2218202   1.633   0.871   3.334 -0.5558  0.0542  0.1208
  163SAPE   H2R18203   1.569   0.780   3.338  0.6775 -0.8286  0.3895
  163SAPE   H2S18204   1.710   0.850   3.256 -0.7869  1.1578 -0.4197
  163SAPE    C318205   1.284   1.118   3.248  0.6323  0.0130 -0.2617
  163SAPE    HX18206   1.225   1.194   3.193  2.1268  1.3571 -0.1004
  163SAPE    HY18207   1.348   1.181   3.315  0.7745  1.1465 -1.4354
  163SAPE   O3118208   1.204   1.028   3.330  0.4293  0.1025 -0.2628
  163SAPE   C3118209   1.126   1.077   3.420  0.1017  0.0234 -0.2040
  163SAPE   O3218210   1.111   1.199   3.438  0.4848  0.5879 -0.3374
  163SAPE   C3218211   1.053   0.970   3.499  0.0503 -0.0860 -0.1482
  163SAPE   H2X18212   1.086   0.867   3.472 -2.0105 -0.7957 -0.1711
  163SAPE   H2Y18213   0.950   0.979   3.458  0.2529  0.7216 -0.4910
  163SAPE   C2318214   1.703   0.904   3.470 -0.6890  0.3930  0.2763
  163SAPE   H3R18215   1.629   0.931   3.548  0.5005  1.7292  0.9751
  163SAPE   H3S18216   1.779   0.985   3.466 -0.1639 -0.0631  0.8854
  163SAPE   C2418217   1.767   0.781   3.543 -0.8513 -0.8107  0.7207
  163SAPE   H4R18218   1.688   0.708   3.570 -0.1681 -2.8454 -2.3271
  163SAPE   H4S18219   1.808   0.832   3.633  0.1539 -0.7303  0.2354
  163SAPE   C2518220   1.882   0.725   3.467  0.2058 -0.0797 -0.0315
  163SAPE   H5R18221   1.876   0.738   3.358  0.1616 -0.3756 -0.0645
  163SAPE   C2618222   1.998   0.690   3.516 -0.4259 -0.0079 -0.1763
  163SAPE   H6R18223   2.077   0.647   3.452  1.9100  1.2173  1.7398
  163SAPE   C2718224   2.051   0.698   3.664 -0.3241 -0.0120  0.3463
  163SAPE   H7R18225   2.012   0.787   3.717  0.1802  0.5491 -0.1950
  163SAPE   H7S18226   2.162   0.703   3.664 -0.1901 -1.1806 -2.1573
  163SAPE   C2818227   2.014   0.568   3.735 -0.4306 -0.2128 -0.5697
  163SAPE   H8R18228   2.026   0.476   3.676  2.1286 -0.1362 -0.2814
  163SAPE   C2918229   2.011   0.554   3.873  0.6095  0.2077 -1.6217
  163SAPE   H9R18230   1.972   0.461   3.919  1.1193  1.4662  1.6475
  163SAPE  C21018231   1.995   0.659   3.979 -0.4478 -0.5571 -0.1695
  163SAPE  H10R18232   2.045   0.751   3.943  0.6680 -0.9852  0.2188
  163SAPE  H10S18233   2.059   0.643   4.069  1.7431  2.7638 -0.9544
  163SAPE  C21118234   1.850   0.671   4.020 -0.1444  0.9077 -0.4781
  163SAPE  H11R18235   1.772   0.682   3.943 -0.2621  1.5032 -0.2805
  163SAPE  C21218236   1.813   0.670   4.151 -0.6919  0.1624 -0.1275
  163SAPE  H12R18237   1.704   0.658   4.165 -0.5832 -1.6662 -0.6623
  163SAPE  C21318238   1.887   0.619   4.270 -0.6582 -0.0454 -0.1475
  163SAPE  H13R18239   1.839   0.664   4.360 -0.0982 -1.2392  0.7769
  163SAPE  H13S18240   1.988   0.664   4.281 -0.4227 -0.5151 -0.3630
  163SAPE  C21418241   1.901   0.471   4.290  0.6178 -0.2955 -0.2334
  163SAPE  H14R18242   1.891   0.403   4.204  1.8882 -1.0535  0.1925
  163SAPE  C21518243   1.916   0.409   4.409 -0.1792 -0.2661 -0.3937
  163SAPE  H15R18244   1.945   0.303   4.407 -0.5267 -0.4038  0.8617
  163SAPE  C21618245   1.942   0.479   4.545  0.1583  0.2002 -0.3936
  163SAPE  H16R18246   1.988   0.575   4.514  1.7041 -0.4125 -0.0812
  163SAPE  H16S18247   2.024   0.432   4.603 -0.1753  1.2318  0.9843
  163SAPE  C21718248   1.815   0.510   4.626 -0.1507  0.5788  0.5639
  163SAPE  H17R18249   1.779   0.415   4.672 -0.6777  1.3010  1.6941
  163SAPE  H17S18250   1.739   0.555   4.559 -0.0694 -3.0392 -2.2135
  163SAPE  C21818251   1.849   0.607   4.743  0.7777 -0.8502  0.0694
  163SAPE  H18R18252   1.841   0.716   4.725  2.7556 -0.2919  2.1031
  163SAPE  H18S18253   1.954   0.593   4.775  1.5641 -0.5082 -2.1731
  163SAPE  C21918254   1.760   0.577   4.873 -0.3494  0.2782 -0.0182
  163SAPE  H19R18255   1.761   0.469   4.900  2.3604  0.2607  0.0505
  163SAPE  H19S18256   1.651   0.577   4.853 -0.3664 -2.3764 -0.3018
  163SAPE  C22018257   1.787   0.667   4.998 -0.3223  0.2836 -0.4111
  163SAPE  H20R18258   1.722   0.641   5.084 -0.9242  0.5357 -0.7861
  163SAPE  H20S18259   1.782   0.771   4.959 -0.9728 -0.4824 -2.4714
  163SAPE  H20T18260   1.887   0.661   5.045 -0.8150  0.2529  0.6638
  163SAPE   C3318261   1.073   0.981   3.654  0.2114  0.0792  0.1093
  163SAPE   H3X18262   1.010   0.907   3.708  1.9420 -1.7204 -0.1760
  163SAPE   H3Y18263   1.052   1.084   3.688  0.2782 -0.0137  0.4431
  163SAPE   C3418264   1.215   0.940   3.699  0.3549  0.4142 -0.1186
  163SAPE   H4X18265   1.289   0.995   3.638 -1.5812  1.1570 -1.9334
  163SAPE   H4Y18266   1.222   0.833   3.671 -0.0935  0.7457 -1.5798
  163SAPE   C3518267   1.235   0.959   3.850  0.2784 -0.3589 -0.3912
  163SAPE   H5X18268   1.162   0.894   3.903  1.7567 -1.4917  0.3134
  163SAPE   H5Y18269   1.204   1.063   3.876 -2.6652 -1.3501  0.4743
  163SAPE   C3618270   1.377   0.922   3.891 -0.3476  0.1537 -0.0411
  163SAPE   H6X18271   1.440   0.997   3.839  1.9992 -0.3880  1.8403
  163SAPE   H6Y18272   1.386   0.814   3.868 -1.4871  0.0207  0.0830
  163SAPE   C3718273   1.397   0.941   4.041  0.3912 -0.0065  0.2194
  163SAPE   H7X18274   1.327   0.877   4.098  1.1256 -0.6043  0.4678
  163SAPE   H7Y18275   1.369   1.047   4.062 -2.0093 -0.0928 -2.1485
  163SAPE   C3818276   1.544   0.923   4.082  0.7641  0.5311 -0.0323
  163SAPE   H8X18277   1.605   0.993   4.021  1.8976 -0.3166  0.0961
  163SAPE   H8Y18278   1.577   0.821   4.051  1.1479  1.6629 -3.8049
  163SAPE   C3918279   1.569   0.951   4.227 -0.7216  0.1307 -0.0788
  163SAPE   H9X18280   1.530   1.053   4.247 -0.0327  0.4290 -0.2440
  163SAPE   H9Y18281   1.672   0.931   4.264 -0.4307 -2.0409 -1.8455
  163SAPE  C31018282   1.488   0.849   4.313  0.0098 -0.3474 -0.8107
  163SAPE  H10X18283   1.481   0.754   4.256 -0.8291 -1.6733  1.3717
  163SAPE  H10Y18284   1.387   0.893   4.328  1.3891  1.9837  3.1667
  163SAPE  C31118285   1.537   0.833   4.462  0.2665 -0.2553  0.7384
  163SAPE  H11X18286   1.488   0.910   4.525  0.2957 -0.8988  1.5505
  163SAPE  H11Y18287   1.647   0.852   4.461  0.0589  1.0339  0.9765
  163SAPE  C31218288   1.508   0.692   4.533 -0.1472 -0.3443  0.2567
  163SAPE  H12X18289   1.541   0.699   4.638 -1.9257  1.8622  0.7666
  163SAPE  H12Y18290   1.562   0.629   4.459 -0.4016 -0.7730  0.4363
  163SAPE  C31318291   1.358   0.653   4.525 -0.3298 -0.7848 -0.1204
  163SAPE  H13X18292   1.304   0.666   4.429 -0.4368  0.1903  0.0638
  163SAPE  H13Y18293   1.298   0.708   4.600 -0.8357 -1.3532 -0.0983
  163SAPE  C31418294   1.352   0.501   4.545 -0.3290  0.1792  1.4191
  163SAPE  H14X18295   1.418   0.461   4.465  0.6113  3.2009  0.5377
  163SAPE  H14Y18296   1.247   0.467   4.534  0.0302 -1.3627  2.4648
  163SAPE  C31518297   1.393   0.460   4.682  0.2003  0.0243 -0.1371
  163SAPE  H15X18298   1.492   0.507   4.702 -0.7485  2.3114 -0.5335
  163SAPE  H15Y18299   1.407   0.349   4.680  0.6317  0.0769 -0.2691
  163SAPE  C31618300   1.303   0.499   4.797 -0.0739 -0.0389  0.1625
  163SAPE  H16X18301   1.211   0.444   4.772 -0.3007  0.5866 -0.4079
  163SAPE  H16Y18302   1.295   0.610   4.795  0.3031 -0.0104 -1.7099
  163SAPE  C31718303   1.352   0.467   4.933 -0.8054 -0.1896 -0.8207
  163SAPE  H17X18304   1.444   0.528   4.940 -0.3195 -0.8064 -1.6264
  163SAPE  H17Y18305   1.371   0.357   4.934 -0.1718 -0.0818 -0.3528
  163SAPE  C31818306   1.242   0.491   5.035  0.5595 -0.2833 -1.1229
  163SAPE  H18X18307   1.152   0.447   4.988  1.5538  1.5279 -5.1449
  163SAPE  H18Y18308   1.236   0.600   5.058 -0.4458 -0.9291  2.3023
  163SAPE  H18Z18309   1.259   0.436   5.130 -0.1840 -1.5045 -1.6777
  164SAPE     N18310   5.772   1.995   2.723  0.0707 -0.0287  0.1043
  164SAPE   HN118311   5.870   2.013   2.695 -0.3362  2.5602  0.0995
  164SAPE   HN218312   5.723   1.989   2.631 -0.3102  2.1272  0.0981
  164SAPE   HN318313   5.748   2.082   2.774 -1.1679  0.2055 -0.8132
  164SAPE   C1218314   5.753   1.878   2.801  0.3561  0.8392 -0.9648
  164SAPE  H12A18315   5.802   1.793   2.749  0.3141  0.1075  0.1639
  164SAPE  H12B18316   5.646   1.856   2.821  0.4734  1.6481  0.7424
  164SAPE   C1118317   5.831   1.891   2.934 -0.0860  0.4476 -0.3290
  164SAPE  H11A18318   5.785   1.810   2.994 -0.3124 -0.0116 -1.1025
  164SAPE  H11B18319   5.813   1.991   2.978 -0.7016 -0.3866  1.3825
  164SAPE     P18320   6.052   1.747   2.944  0.3027 -0.0092 -0.6393
  164SAPE   O1318321   5.986   1.643   2.875 -0.4966 -0.2296 -0.0383
  164SAPE   O1418322   6.202   1.768   2.934  0.0761  0.4851  0.1183
  164SAPE   O1218323   5.973   1.877   2.916  0.4840  0.3388 -0.1025
  164SAPE   O1118324   6.018   1.744   3.105 -0.1436 -0.1332 -0.3620
  164SAPE    C118325   6.082   1.842   3.180 -0.0514 -0.5818 -0.4366
  164SAPE    HA18326   6.192   1.826   3.179  0.1267 -0.2597  3.0735
  164SAPE    HB18327   6.067   1.943   3.134  2.2813 -0.3104 -0.7364
  164SAPE    C218328   6.034   1.844   3.331 -0.5291  0.4024 -0.4917
  164SAPE    HS18329   6.064   1.940   3.379 -1.5345  0.6565 -0.3474
  164SAPE   O2118330   6.075   1.725   3.408  0.5043  0.1281 -0.2052
  164SAPE   C2118331   6.194   1.730   3.458 -0.8641  0.1210  0.3017
  164SAPE   O2218332   6.273   1.830   3.444 -0.1285  0.6354 -0.2055
  164SAPE   C2218333   6.201   1.614   3.557  0.2449  0.6264  0.8677
  164SAPE   H2R18334   6.113   1.546   3.559  2.2774 -2.2097  0.4953
  164SAPE   H2S18335   6.287   1.552   3.523 -0.2480 -0.7512  2.0323
  164SAPE    C318336   5.886   1.843   3.325  0.3052  0.7139  0.4572
  164SAPE    HX18337   5.833   1.762   3.270  0.8397 -0.1193  1.1449
  164SAPE    HY18338   5.857   1.937   3.274 -1.4820 -0.2682 -0.4264
  164SAPE   O3118339   5.832   1.847   3.457 -0.2218  0.1649 -0.2115
  164SAPE   C3118340   5.793   1.731   3.519  0.0985  0.0312  0.6371
  164SAPE   O3218341   5.774   1.626   3.464  0.1279  0.1552  0.2223
  164SAPE   C3218342   5.761   1.767   3.659  0.1921 -0.2407  0.2055
  164SAPE   H2X18343   5.653   1.744   3.673 -0.0927  0.5260 -0.6963
  164SAPE   H2Y18344   5.772   1.875   3.681 -0.0149 -0.0890 -0.4255
  164SAPE   C2318345   6.228   1.662   3.699 -0.7967  0.1046 -0.3745
  164SAPE   H3R18346   6.135   1.711   3.735 -0.3508  0.6950 -0.0213
  164SAPE   H3S18347   6.302   1.745   3.699 -0.9992  0.2938 -1.2130
  164SAPE   C2418348   6.279   1.547   3.790 -0.7152 -0.0360 -0.0637
  164SAPE   H4R18349   6.390   1.535   3.784 -0.7711  0.0621 -2.9110
  164SAPE   H4S18350   6.229   1.454   3.755  2.3412 -1.2041 -1.7569
  164SAPE   C2518351   6.227   1.577   3.932 -0.2432 -0.2045  0.0570
  164SAPE   H5R18352   6.149   1.652   3.952 -0.5165 -0.8105  1.3483
  164SAPE   C2618353   6.260   1.515   4.050  0.4543 -0.3737  0.0372
  164SAPE   H6R18354   6.230   1.560   4.146 -0.3929  1.0793 -0.8726
  164SAPE   C2718355   6.367   1.406   4.051 -0.0438 -0.4899  0.3126
  164SAPE   H7R18356   6.465   1.448   4.080 -0.1590 -0.6316  0.9303
  164SAPE   H7S18357   6.373   1.353   3.954 -2.0569  1.6603 -1.1084
  164SAPE   C2818358   6.347   1.309   4.159 -0.1348  0.1230  0.5970
  164SAPE   H8R18359   6.297   1.213   4.136  1.3605 -0.4141 -0.5787
  164SAPE   C2918360   6.360   1.333   4.291  0.0192  1.0638  0.1023
  164SAPE   H9R18361   6.338   1.247   4.355  2.2245  0.7203  0.4645
  164SAPE  C21018362   6.417   1.457   4.352  0.4217  1.0988  0.6883
  164SAPE  H10R18363   6.331   1.513   4.395  0.2812  0.0422  1.8089
  164SAPE  H10S18364   6.467   1.532   4.286  0.8011 -0.4111 -0.8075
  164SAPE  C21118365   6.506   1.419   4.460 -0.6359 -0.0697 -0.0035
  164SAPE  H11R18366   6.571   1.334   4.438 -1.1779 -0.8086  1.1673
  164SAPE  C21218367   6.512   1.477   4.584  0.4872  0.0193 -0.0486
  164SAPE  H12R18368   6.601   1.466   4.647  1.4396  1.2150 -1.1469
  164SAPE  C21318369   6.424   1.583   4.633  0.6438 -0.7072 -0.4865
  164SAPE  H13R18370   6.316   1.573   4.607  0.7334 -2.5615 -0.3239
  164SAPE  H13S18371   6.456   1.676   4.582  0.4156  0.2526  1.0627
  164SAPE  C21418372   6.447   1.606   4.783  0.2497  0.2612 -0.1239
  164SAPE  H14R18373   6.501   1.698   4.811 -1.1632  0.5090  1.9862
  164SAPE  C21518374   6.400   1.540   4.887 -0.1381 -0.6636 -0.0117
  164SAPE  H15R18375   6.425   1.581   4.986  0.6539  0.5815 -0.7041
  164SAPE  C21618376   6.313   1.418   4.887  0.2849  0.0334 -0.4823
  164SAPE  H16R18377   6.275   1.406   4.783  0.4481  0.8283 -0.6402
  164SAPE  H16S18378   6.226   1.423   4.956 -0.4303  0.1496 -1.3664
  164SAPE  C21718379   6.405   1.308   4.916 -0.0971 -0.1893 -0.9122
  164SAPE  H17R18380   6.488   1.306   4.842 -0.8915 -0.0957 -1.8189
  164SAPE  H17S18381   6.343   1.218   4.901 -0.8558  0.3734 -1.2295
  164SAPE  C21818382   6.453   1.298   5.060 -0.2693  0.3916  0.0439
  164SAPE  H18R18383   6.537   1.368   5.076  0.1044 -0.1919  0.6883
  164SAPE  H18S18384   6.482   1.191   5.072 -0.5029  0.3021 -0.1733
  164SAPE  C21918385   6.346   1.324   5.167 -0.8390  0.5473  1.3238
  164SAPE  H19R18386   6.373   1.255   5.250  1.0698  0.5191  0.7314
  164SAPE  H19S18387   6.247   1.295   5.127 -0.9050 -0.2708  2.0472
  164SAPE  C22018388   6.352   1.467   5.210 -0.3277  0.3100  0.6906
  164SAPE  H20R18389   6.300   1.531   5.136 -0.7901 -0.8957 -0.0624
  164SAPE  H20S18390   6.461   1.491   5.211 -0.4194  0.7376  0.6933
  164SAPE  H20T18391   6.306   1.484   5.309 -0.8935  2.7178  0.0845
  164SAPE   C3318392   5.857   1.692   3.756 -1.0041 -0.1630 -0.1422
  164SAPE   H3X18393   5.953   1.743   3.780 -1.4741  1.4556 -1.5244
  164SAPE   H3Y18394   5.878   1.585   3.731 -0.9732  0.0181 -0.9173
  164SAPE   C3418395   5.787   1.693   3.891 -0.0752 -0.2237  0.6340
  164SAPE   H4X18396   5.687   1.645   3.878  0.5237 -1.0664 -1.3197
  164SAPE   H4Y18397   5.754   1.794   3.922 -0.1498  0.2752 -0.9599
  164SAPE   C3518398   5.858   1.615   3.999  0.4764  0.3181  0.3856
  164SAPE   H5X18399   5.951   1.671   4.020  0.6065  0.7933 -1.2895
  164SAPE   H5Y18400   5.874   1.505   3.988  1.9288  0.4495  1.0464
  164SAPE   C3618401   5.763   1.612   4.127 -0.1936  0.3989 -0.0732
  164SAPE   H6X18402   5.666   1.581   4.081  1.6905 -2.2966 -2.6129
  164SAPE   H6Y18403   5.750   1.717   4.160 -1.8864 -0.3965  2.0458
  164SAPE   C3718404   5.808   1.524   4.241 -0.6091  0.1646 -0.2426
  164SAPE   H7X18405   5.904   1.477   4.208  0.1973 -0.4935  2.7600
  164SAPE   H7Y18406   5.729   1.452   4.271 -1.2016  1.1537  0.6245
  164SAPE   C3818407   5.836   1.600   4.366 -0.6215 -0.1693  0.6480
  164SAPE   H8X18408   5.742   1.624   4.421 -1.6597 -0.9500 -0.7335
  164SAPE   H8Y18409   5.890   1.696   4.349 -1.2891  0.0200 -0.4925
  164SAPE   C3918410   5.929   1.528   4.464  0.4926  0.3835  0.1377
  164SAPE   H9X18411   6.012   1.478   4.409  0.0317 -1.3791  0.9856
  164SAPE   H9Y18412   5.871   1.445   4.509 -0.2942  0.6808 -0.3046
  164SAPE  C31018413   5.989   1.624   4.572  0.0271 -0.5714 -0.3856
  164SAPE  H10X18414   5.995   1.721   4.520 -0.4168 -0.2321  0.1851
  164SAPE  H10Y18415   6.085   1.574   4.598 -0.8628 -1.9557  0.3626
  164SAPE  C31118416   5.908   1.635   4.711 -0.2216  0.1507 -0.3860
  164SAPE  H11X18417   5.806   1.675   4.693  0.7531  1.9219 -2.3981
  164SAPE  H11Y18418   5.959   1.712   4.772 -0.6813  1.0247 -1.0953
  164SAPE  C31218419   5.915   1.494   4.776  0.2401 -0.1018 -0.4745
  164SAPE  H12X18420   6.017   1.458   4.752  0.3076 -0.0210 -0.3080
  164SAPE  H12Y18421   5.846   1.420   4.729 -1.5662 -0.9228  3.1188
  164SAPE  C31318422   5.919   1.484   4.929 -0.1452 -0.4224 -0.4079
  164SAPE  H13X18423   5.966   1.579   4.963 -0.2601  0.0168 -1.4300
  164SAPE  H13Y18424   5.982   1.403   4.970 -1.3803 -0.6445  1.1287
  164SAPE  C31418425   5.773   1.481   4.977  0.2830  0.0707 -0.8873
  164SAPE  H14X18426   5.717   1.410   4.914 -0.5205 -0.5782  0.5008
  164SAPE  H14Y18427   5.722   1.580   4.972 -2.1765 -1.1062 -0.3570
  164SAPE  C31518428   5.765   1.418   5.116  0.1744  0.1247 -0.2058
  164SAPE  H15X18429   5.659   1.419   5.151  0.0616 -1.8188 -0.3792
  164SAPE  H15Y18430   5.824   1.484   5.183 -2.6374  1.0977  1.4845
  164SAPE  C31618431   5.828   1.272   5.140  0.6017  0.4799  0.8170
  164SAPE  H16X18432   5.790   1.229   5.235 -0.8878 -1.5150 -0.6153
  164SAPE  H16Y18433   5.937   1.280   5.161  0.4798  0.8947  1.3357
  164SAPE  C31718434   5.796   1.174   5.019  0.2493 -0.2220 -0.9388
  164SAPE  H17X18435   5.859   1.194   4.930  0.3978  0.8498 -0.6049
  164SAPE  H17Y18436   5.690   1.201   4.996  0.6998  1.6639 -0.8897
  164SAPE  C31818437   5.801   1.030   5.069 -0.0542 -0.6826  0.3817
  164SAPE  H18X18438   5.761   0.968   4.986 -1.4777 -0.9100  1.2021
  164SAPE  H18Y18439   5.733   1.019   5.157  0.9381  2.0106  1.5819
  164SAPE  H18Z18440   5.906   1.006   5.096  0.9937  0.3525 -2.4005
  165SAPE     N18441   5.851   1.418   2.826  0.4235 -0.0574  0.3772
  165SAPE   HN118442   5.896   1.340   2.773  2.6520  1.6378 -0.3833
  165SAPE   HN218443   5.805   1.468   2.748  0.9624  0.5297  0.4247
  165SAPE   HN318444   5.926   1.482   2.858  0.0212  0.4744  0.2607
  165SAPE   C1218445   5.754   1.377   2.939 -0.6638  0.3927  0.1213
  165SAPE  H12A18446   5.801   1.319   3.021 -0.9286  1.6729  1.2140
  165SAPE  H12B18447   5.676   1.313   2.892  1.3359 -0.8077 -1.7612
  165SAPE   C1118448   5.697   1.505   3.000 -0.3248  0.3184 -0.8177
  165SAPE  H11A18449   5.780   1.560   3.050  0.0342 -0.4515 -0.5479
  165SAPE  H11B18450   5.615   1.481   3.071 -1.0502  0.8316 -1.4579
  165SAPE     P18451   5.501   1.578   2.827  0.0838  0.2958  0.0167
  165SAPE   O1318452   5.436   1.712   2.814  0.6672 -0.5703 -0.7175
  165SAPE   O1418453   5.525   1.499   2.700 -0.1734 -0.3817  0.0310
  165SAPE   O1218454   5.644   1.586   2.892 -0.4443 -0.5167  0.0292
  165SAPE   O1118455   5.416   1.499   2.930 -0.2199  0.4213  0.0657
  165SAPE    C118456   5.288   1.546   2.970 -0.2400 -0.1823 -0.1330
  165SAPE    HA18457   5.221   1.581   2.888  0.7460  1.5330 -0.2553
  165SAPE    HB18458   5.229   1.457   3.002  0.0195  0.4627  2.3098
  165SAPE    C218459   5.276   1.648   3.092 -0.1228  0.3377  0.0635
  165SAPE    HS18460   5.294   1.745   3.041  0.0972 -0.1735 -0.8701
  165SAPE   O2118461   5.355   1.613   3.203 -0.0495  0.5844 -0.2438
  165SAPE   C2118462   5.382   1.722   3.276  0.8458  0.0658  0.2156
  165SAPE   O2218463   5.385   1.839   3.231 -0.0502 -0.1396  0.1442
  165SAPE   C2218464   5.433   1.681   3.421  0.3527 -0.3029  0.4520
  165SAPE   H2R18465   5.487   1.585   3.409  1.2743  0.3138 -0.4923
  165SAPE   H2S18466   5.506   1.762   3.443 -0.2944 -0.0548  1.8006
  165SAPE    C318467   5.128   1.645   3.147  0.1295  0.4327 -0.5499
  165SAPE    HX18468   5.102   1.547   3.193 -2.8753  1.8577  0.9782
  165SAPE    HY18469   5.055   1.654   3.064  0.8428  1.8661 -1.0440
  165SAPE   O3118470   5.107   1.735   3.248 -0.1731 -0.6531 -0.3379
  165SAPE   C3118471   5.056   1.850   3.209 -0.2864 -0.1001  1.0012
  165SAPE   O3218472   5.047   1.891   3.092 -0.7391 -0.1686 -1.0732
  165SAPE   C3218473   5.003   1.934   3.324 -0.1947 -0.6154  0.2218
  165SAPE   H2X18474   4.960   2.019   3.267  0.0452 -0.9296 -0.4472
  165SAPE   H2Y18475   5.084   1.972   3.389 -1.7600  0.3524  1.6717
  165SAPE   C2318476   5.322   1.680   3.521  0.5830  0.9414  0.1558
  165SAPE   H3R18477   5.243   1.602   3.510  1.4444 -0.0115  0.6217
  165SAPE   H3S18478   5.282   1.783   3.537  1.5799  1.2284  0.8861
  165SAPE   C2418479   5.396   1.638   3.653 -0.1330  0.0121  0.4461
  165SAPE   H4R18480   5.458   1.727   3.677  0.1098  0.0713 -0.3606
  165SAPE   H4S18481   5.468   1.555   3.640  0.1964  0.6022 -2.0567
  165SAPE   C2518482   5.309   1.624   3.774  1.1374 -0.6613 -0.1733
  165SAPE   H5R18483   5.232   1.701   3.788  0.6201 -1.2232  0.1307
  165SAPE   C2618484   5.327   1.540   3.875  0.0988 -0.5630 -0.8707
  165SAPE   H6R18485   5.253   1.531   3.956 -1.6980  2.3121 -2.0716
  165SAPE   C2718486   5.427   1.428   3.871  0.5256 -0.1474 -0.1533
  165SAPE   H7R18487   5.525   1.444   3.922  0.7825  0.2589 -0.7585
  165SAPE   H7S18488   5.456   1.399   3.768  1.3674 -2.5722  0.7046
  165SAPE   C2818489   5.365   1.300   3.923  0.4440 -0.7614 -0.2593
  165SAPE   H8R18490   5.314   1.248   3.841 -0.0085  1.9732 -1.8437
  165SAPE   C2918491   5.369   1.255   4.046 -0.2997 -0.0887 -0.4079
  165SAPE   H9R18492   5.307   1.165   4.061 -1.2194  0.2423 -2.0400
  165SAPE  C21018493   5.447   1.305   4.165  0.4130 -0.7030  0.0404
  165SAPE  H10R18494   5.458   1.415   4.159 -0.9502 -0.5945 -0.9857
  165SAPE  H10S18495   5.551   1.267   4.161  0.8288  0.4949 -1.4104
  165SAPE  C21118496   5.379   1.262   4.292 -0.5318  0.0440 -0.1370
  165SAPE  H11R18497   5.272   1.286   4.303 -0.3043  1.4005 -0.6150
  165SAPE  C21218498   5.428   1.188   4.391 -0.6415  0.9739  0.2043
  165SAPE  H12R18499   5.360   1.175   4.476  1.8477  0.0646  2.1789
  165SAPE  C21318500   5.574   1.136   4.409  0.4796 -0.2214 -0.1488
  165SAPE  H13R18501   5.641   1.177   4.330  4.3141 -1.3217  2.2393
  165SAPE  H13S18502   5.574   1.026   4.400  1.6456 -0.3014  0.6058
  165SAPE  C21418503   5.637   1.172   4.544  1.0363 -0.0574  0.5196
  165SAPE  H14R18504   5.648   1.281   4.543 -1.0854  0.2045 -0.2366
  165SAPE  C21518505   5.672   1.100   4.657  0.6182  0.3395 -0.5373
  165SAPE  H15R18506   5.706   1.162   4.741 -2.1036 -1.5363  2.1863
  165SAPE  C21618507   5.673   0.953   4.685  0.4012  0.0989 -0.5481
  165SAPE  H16R18508   5.774   0.925   4.721 -0.2365 -1.3571  0.1679
  165SAPE  H16S18509   5.661   0.896   4.590  0.2145 -1.2200  0.2439
  165SAPE  C21718510   5.549   0.893   4.765 -0.8120 -0.3461 -0.0775
  165SAPE  H17R18511   5.452   0.921   4.718  0.0812  1.5405 -0.9152
  165SAPE  H17S18512   5.544   0.924   4.872 -1.0584 -0.6565  0.0030
  165SAPE  C21818513   5.547   0.736   4.777 -0.2107  0.9229  0.3154
  165SAPE  H18R18514   5.579   0.676   4.689 -0.1262  1.4741 -0.0347
  165SAPE  H18S18515   5.444   0.701   4.801  0.3391 -0.6398  0.5562
  165SAPE  C21918516   5.635   0.701   4.894 -0.0883 -0.4531 -0.1386
  165SAPE  H19R18517   5.598   0.747   4.989 -0.3258 -1.2043  0.1437
  165SAPE  H19S18518   5.742   0.731   4.889  0.0728 -1.1849 -1.5336
  165SAPE  C22018519   5.640   0.548   4.913  0.0098  0.2782  0.3015
  165SAPE  H20R18520   5.730   0.527   4.975  1.8738  0.5374 -2.1435
  165SAPE  H20S18521   5.663   0.492   4.819  1.1379  0.7842  0.2656
  165SAPE  H20T18522   5.544   0.515   4.958 -0.0966 -0.9779 -0.7697
  165SAPE   C3318523   4.904   1.854   3.399 -0.0099 -0.0719  0.0885
  165SAPE   H3X18524   4.868   1.757   3.358 -0.3342  0.7952 -1.7906
  165SAPE   H3Y18525   4.812   1.910   3.427  0.0492 -1.0286  2.4069
  165SAPE   C3418526   4.961   1.823   3.538  0.3266 -0.1060  0.0323
  165SAPE   H4X18527   5.064   1.782   3.536  0.3997  0.0626  0.3006
  165SAPE   H4Y18528   4.893   1.749   3.586  1.3433 -0.0706  1.5940
  165SAPE   C3518529   4.959   1.946   3.627 -0.4439 -0.1439 -0.6636
  165SAPE   H5X18530   4.851   1.959   3.653 -0.2581 -1.5688  0.9586
  165SAPE   H5Y18531   5.008   2.032   3.576 -1.1350  1.0127  0.5511
  165SAPE   C3618532   5.029   1.911   3.765 -0.0443 -0.0800 -0.3468
  165SAPE   H6X18533   5.138   1.903   3.743 -0.0350 -1.7783  0.1462
  165SAPE   H6Y18534   4.986   1.813   3.797 -1.0164  0.0482 -1.2061
  165SAPE   C3718535   5.008   2.012   3.877 -0.3015  0.0785  0.2831
  165SAPE   H7X18536   4.915   2.065   3.848  0.2250  1.3200  0.7513
  165SAPE   H7Y18537   5.089   2.089   3.880 -0.4958  0.2681  0.6845
  165SAPE   C3818538   4.974   1.953   4.011  0.5302 -0.2692  0.2366
  165SAPE   H8X18539   4.890   1.884   3.993  1.1086 -0.2360 -3.2814
  165SAPE   H8Y18540   4.945   2.037   4.078  1.0345 -1.2574  1.7497
  165SAPE   C3918541   5.094   1.894   4.085  1.0440 -0.3533  0.0659
  165SAPE   H9X18542   5.173   1.969   4.106  2.1283 -2.0568  2.5792
  165SAPE   H9Y18543   5.138   1.816   4.019  1.1921 -0.4333  0.2579
  165SAPE  C31018544   5.058   1.840   4.222 -0.5022  0.3668  0.6802
  165SAPE  H10X18545   5.009   1.741   4.209  1.0836 -0.8419  3.1185
  165SAPE  H10Y18546   4.984   1.907   4.270 -2.6843 -2.0154  0.8601
  165SAPE  C31118547   5.177   1.808   4.314  0.1236  0.1538 -0.3712
  165SAPE  H11X18548   5.134   1.769   4.408  0.1988  1.1005  0.0630
  165SAPE  H11Y18549   5.232   1.900   4.343 -1.0389  1.1553 -1.2415
  165SAPE  C31218550   5.275   1.695   4.274  0.3483  0.1064  1.1461
  165SAPE  H12X18551   5.325   1.732   4.182 -0.7667  0.0013  0.4742
  165SAPE  H12Y18552   5.212   1.606   4.254 -1.9186  1.9585 -0.5486
  165SAPE  C31318553   5.385   1.672   4.380 -0.5375  0.2545 -0.8232
  165SAPE  H13X18554   5.416   1.775   4.409 -0.8405  0.5582 -1.5723
  165SAPE  H13Y18555   5.480   1.641   4.333  0.7437 -0.3235  1.9232
  165SAPE  C31418556   5.352   1.592   4.505 -0.5854 -1.0741  0.3955
  165SAPE  H14X18557   5.331   1.490   4.466  1.1151 -0.9254 -1.0282
  165SAPE  H14Y18558   5.263   1.616   4.567 -1.0280 -1.1468 -0.1972
  165SAPE  C31518559   5.468   1.588   4.610 -0.7339  0.1380 -0.4312
  165SAPE  H15X18560   5.481   1.685   4.663 -0.2712 -0.1638  0.0159
  165SAPE  H15Y18561   5.565   1.577   4.557 -1.8024 -0.2085 -2.4093
  165SAPE  C31618562   5.456   1.477   4.706  0.0902 -0.2266  0.1622
  165SAPE  H16X18563   5.548   1.477   4.767 -0.2812  0.0387  0.7292
  165SAPE  H16Y18564   5.460   1.380   4.651 -0.8827 -0.6039  0.7183
  165SAPE  C31718565   5.328   1.467   4.792  0.4453 -0.8188 -0.3070
  165SAPE  H17X18566   5.242   1.434   4.730 -0.8218  0.5298  0.6524
  165SAPE  H17Y18567   5.297   1.567   4.830 -2.3172 -1.2536 -1.1469
  165SAPE  C31818568   5.345   1.368   4.907  0.7026 -0.4078  0.0624
  165SAPE  H18X18569   5.419   1.392   4.986 -0.7067 -2.6479  2.2031
  165SAPE  H18Y18570   5.374   1.272   4.858 -0.8565  0.1166 -2.0358
  165SAPE  H18Z18571   5.254   1.354   4.968  0.9257  0.7128  0.6685
  166SAPE     N18572   0.521   2.704   3.344  0.1167  0.2575 -0.2919
  166SAPE   HN118573   0.478   2.633   3.406  0.6637  0.8814  0.8401
  166SAPE   HN218574   0.483   2.799   3.361  2.6268  1.6843 -1.8986
  166SAPE   HN318575   0.511   2.667   3.247  0.5385 -2.3107  0.5686
  166SAPE   C1218576   0.669   2.707   3.374  0.5206 -0.4444 -0.4510
  166SAPE  H12A18577   0.671   2.736   3.481 -0.7533  0.8991 -0.7489
  166SAPE  H12B18578   0.712   2.788   3.311  1.4579 -0.1584  0.5350
  166SAPE   C1118579   0.728   2.568   3.336 -0.5374  0.3873 -0.3041
  166SAPE  H11A18580   0.665   2.493   3.388  1.8366 -0.4451  1.5795
  166SAPE  H11B18581   0.830   2.560   3.379 -0.6818 -0.0451 -0.0383
  166SAPE     P18582   0.684   2.419   3.128 -1.0354 -0.3510  0.3937
  166SAPE   O1318583   0.694   2.436   2.981 -0.0983 -0.2695 -0.4186
  166SAPE   O1418584   0.771   2.313   3.185  0.5644 -0.1468  0.0445
  166SAPE   O1218585   0.727   2.561   3.195 -0.1197 -0.0975 -0.4933
  166SAPE   O1118586   0.540   2.409   3.172 -0.8222  0.1305  0.0766
  166SAPE    C118587   0.440   2.322   3.110  0.3558 -0.9947  0.2087
  166SAPE    HA18588   0.355   2.392   3.092  0.9635 -0.6876 -1.7044
  166SAPE    HB18589   0.471   2.284   3.011  1.1764 -2.4617  1.0014
  166SAPE    C218590   0.414   2.196   3.194 -0.7881  0.3265  0.6044
  166SAPE    HS18591   0.394   2.237   3.295 -0.8744 -0.7971  1.0521
  166SAPE   O2118592   0.528   2.117   3.184 -0.0339 -0.4470  0.5060
  166SAPE   C2118593   0.552   2.046   3.292 -0.6059 -0.0442 -0.2447
  166SAPE   O2218594   0.499   2.046   3.403  0.1039 -0.5399 -0.0382
  166SAPE   C2218595   0.681   1.976   3.256 -0.4246 -0.0146  0.3356
  166SAPE   H2R18596   0.674   1.921   3.160 -1.5714  1.4029 -0.4239
  166SAPE   H2S18597   0.762   2.052   3.252  1.4382 -1.8467  1.2678
  166SAPE    C318598   0.271   2.131   3.176  0.1998  0.0824 -0.2041
  166SAPE    HX18599   0.260   2.098   3.071  0.0117 -0.0950 -0.1283
  166SAPE    HY18600   0.198   2.212   3.199  1.4318  1.2999 -0.4100
  166SAPE   O3118601   0.250   2.023   3.262  0.2826  0.1396 -0.0677
  166SAPE   C3118602   0.194   2.041   3.378  0.6583 -0.3992 -0.1066
  166SAPE   O3218603   0.152   2.147   3.421 -0.1197  0.0580  0.6636
  166SAPE   C3218604   0.171   1.898   3.435  0.1561 -0.0325  0.1850
  166SAPE   H2X18605   0.274   1.856   3.439  0.7376  1.3687  0.8292
  166SAPE   H2Y18606   0.116   1.839   3.359 -1.6730  0.2182  1.2470
  166SAPE   C2318607   0.709   1.866   3.358  0.5796  0.9388 -0.2287
  166SAPE   H3R18608   0.725   1.924   3.452 -0.5885 -0.6966  1.0306
  166SAPE   H3S18609   0.808   1.818   3.344 -0.2063 -0.6223 -0.6078
  166SAPE   C2418610   0.602   1.764   3.370 -0.3893  0.7110 -0.0100
  166SAPE   H4R18611   0.599   1.706   3.275  4.1996  1.7646 -1.0720
  166SAPE   H4S18612   0.508   1.820   3.388  0.7999  2.7263  0.1504
  166SAPE   C2518613   0.628   1.661   3.477  0.1404 -0.2669 -0.0322
  166SAPE   H5R18614   0.627   1.558   3.439 -1.8654 -0.4072  0.3143
  166SAPE   C2618615   0.608   1.669   3.612 -0.2205  0.1592  0.0667
  166SAPE   H6R18616   0.631   1.577   3.668  0.8073 -0.3813 -1.2131
  166SAPE   C2718617   0.573   1.794   3.691 -0.0663 -0.0996 -0.5403
  166SAPE   H7R18618   0.527   1.876   3.632  0.6839  1.3301  0.7919
  166SAPE   H7S18619   0.662   1.840   3.737  0.9971 -3.1354  0.7128
  166SAPE   C2818620   0.467   1.753   3.793  0.1180 -0.5568  0.2885
  166SAPE   H8R18621   0.379   1.707   3.745  1.0010 -2.0416  0.0280
  166SAPE   C2918622   0.473   1.758   3.928 -0.7681 -0.1948 -0.1889
  166SAPE   H9R18623   0.389   1.721   3.988 -1.2168  2.6451  1.1021
  166SAPE  C21018624   0.586   1.807   4.021 -0.2180  0.0365  0.3314
  166SAPE  H10R18625   0.679   1.812   3.959 -0.4278 -2.1836 -0.2512
  166SAPE  H10S18626   0.619   1.720   4.082 -1.0013  0.6462  1.6722
  166SAPE  C21118627   0.567   1.931   4.100  0.2219  0.0270 -0.2273
  166SAPE  H11R18628   0.575   2.027   4.047  1.0068  0.4472  0.6121
  166SAPE  C21218629   0.536   1.934   4.234 -0.2065 -0.1165 -0.1958
  166SAPE  H12R18630   0.520   2.034   4.278 -0.9629  0.0337 -0.7902
  166SAPE  C21318631   0.531   1.813   4.329  0.5780 -0.6110  0.4774
  166SAPE  H13R18632   0.586   1.834   4.424  0.6087 -0.9493  0.5385
  166SAPE  H13S18633   0.594   1.736   4.279  3.0457  0.6532  1.4328
  166SAPE  C21418634   0.396   1.750   4.349  0.1142  0.3312 -0.0136
  166SAPE  H14R18635   0.348   1.713   4.257  1.1882 -0.2228 -0.3677
  166SAPE  C21518636   0.342   1.734   4.470  0.7223 -0.2316 -0.5695
  166SAPE  H15R18637   0.248   1.678   4.483 -1.9041  2.9466 -3.8513
  166SAPE  C21618638   0.401   1.771   4.602 -0.5298 -0.1818 -0.7214
  166SAPE  H16R18639   0.340   1.852   4.648  2.9104  1.9693  0.4635
  166SAPE  H16S18640   0.506   1.807   4.595 -0.9595  1.4293  0.3937
  166SAPE  C21718641   0.410   1.648   4.699 -0.1708  0.1518  0.2367
  166SAPE  H17R18642   0.478   1.580   4.643 -1.5902  1.3539 -3.2015
  166SAPE  H17S18643   0.309   1.602   4.707 -1.4750  2.2455 -2.6787
  166SAPE  C21818644   0.460   1.657   4.848 -0.0477 -0.7359 -0.6693
  166SAPE  H18R18645   0.534   1.738   4.866  0.8526 -2.3385  4.1293
  166SAPE  H18S18646   0.521   1.573   4.887  1.7340  1.6446  2.0539
  166SAPE  C21918647   0.350   1.680   4.956 -0.1567 -0.3342 -0.0345
  166SAPE  H19R18648   0.401   1.676   5.054  2.3627 -3.0831 -1.2719
  166SAPE  H19S18649   0.272   1.603   4.940 -0.7837  0.3037 -0.0762
  166SAPE  C22018650   0.282   1.814   4.930 -0.3585 -0.1912 -0.1792
  166SAPE  H20R18651   0.347   1.904   4.941 -1.5965  0.6505  0.5613
  166SAPE  H20S18652   0.192   1.827   4.994  0.0034 -1.7533  0.6945
  166SAPE  H20T18653   0.239   1.816   4.827  0.4016  1.2384 -0.4934
  166SAPE   C3318654   0.093   1.878   3.568 -0.5379 -0.2769  0.7445
  166SAPE   H3X18655   0.084   1.769   3.593  0.8171 -0.5833 -0.0334
  166SAPE   H3Y18656  -0.005   1.925   3.546  1.8008  4.0188 -1.7312
  166SAPE   C3418657   0.157   1.957   3.680  0.0510 -0.1706 -0.3158
  166SAPE   H4X18658   0.149   2.065   3.654 -1.3628 -0.0812  0.4157
  166SAPE   H4Y18659   0.262   1.926   3.698 -0.3818 -1.2920  0.3650
  166SAPE   C3518660   0.081   1.929   3.809  0.3756  0.6473  0.5510
  166SAPE   H5X18661   0.067   1.819   3.815 -1.9048  0.8116 -0.6278
  166SAPE   H5Y18662  -0.020   1.974   3.798  0.1485 -0.1965 -1.0681
  166SAPE   C3618663   0.142   1.997   3.942 -0.3411 -0.5241 -0.5703
  166SAPE   H6X18664   0.164   2.104   3.926  0.4097 -0.4870  0.5817
  166SAPE   H6Y18665   0.245   1.956   3.951  0.6832  1.8572 -0.7857
  166SAPE   C3718666   0.053   1.971   4.065  0.2246  0.1580 -0.1158
  166SAPE   H7X18667   0.067   1.866   4.097 -0.7743  0.5045  1.5766
  166SAPE   H7Y18668  -0.052   1.995   4.039  0.3937 -0.4620 -1.4786
  166SAPE   C3818669   0.099   2.059   4.181 -0.1123  0.1034  0.7150
  166SAPE   H8X18670   0.105   2.163   4.142 -2.5364  0.4197  1.0231
  166SAPE   H8Y18671   0.202   2.026   4.208 -0.1571 -2.0109 -1.3745
  166SAPE   C3918672   0.027   2.061   4.304  0.0246  0.8219  0.4611
  166SAPE   H9X18673  -0.025   1.965   4.327 -1.5553  1.7056  0.7455
  166SAPE   H9Y18674  -0.056   2.134   4.300  0.2590  1.1499  1.2694
  166SAPE  C31018675   0.135   2.085   4.421  0.0903  0.0183  0.8090
  166SAPE  H10X18676   0.201   2.171   4.396 -0.5553 -0.4234 -3.1494
  166SAPE  H10Y18677   0.204   1.999   4.422  1.3936  0.6791 -4.0888
  166SAPE  C31118678   0.064   2.115   4.553 -0.3920 -0.4444  0.4511
  166SAPE  H11X18679  -0.010   2.035   4.573 -0.7032 -1.4122 -3.7720
  166SAPE  H11Y18680   0.002   2.206   4.538  0.0316 -0.7073 -4.2922
  166SAPE  C31218681   0.158   2.135   4.673  0.0468  0.3652 -0.3731
  166SAPE  H12X18682   0.243   2.202   4.649  0.1363  0.3942  0.0307
  166SAPE  H12Y18683   0.212   2.044   4.705 -0.9438 -1.4852 -3.5354
  166SAPE  C31318684   0.100   2.199   4.796  0.0478  0.5129 -0.4289
  166SAPE  H13X18685   0.009   2.140   4.821  0.1666  1.3951  2.4377
  166SAPE  H13Y18686   0.065   2.296   4.753  0.4137 -0.8316 -4.1627
  166SAPE  C31418687   0.198   2.213   4.903 -0.2895 -0.3488 -0.3073
  166SAPE  H14X18688   0.289   2.264   4.865  0.4346 -0.6890  0.9431
  166SAPE  H14Y18689   0.231   2.114   4.939 -0.9510 -0.5767 -0.3141
  166SAPE  C31518690   0.144   2.290   5.019  0.3042  0.5839  0.1333
  166SAPE  H15X18691   0.067   2.358   4.977 -0.1927  2.2815  3.4794
  166SAPE  H15Y18692   0.219   2.352   5.072  2.3692 -1.2073 -0.5122
  166SAPE  C31618693   0.085   2.215   5.140  0.1905  0.0900 -0.1163
  166SAPE  H16X18694   0.160   2.142   5.177 -2.5846 -2.9729 -0.1189
  166SAPE  H16Y18695  -0.005   2.156   5.112 -1.6753  1.5069  2.4642
  166SAPE  C31718696   0.056   2.311   5.260 -0.3434 -0.6369  0.3674
  166SAPE  H17X18697  -0.024   2.384   5.232 -1.3125 -1.4833  0.8543
  166SAPE  H17Y18698   0.143   2.376   5.285  0.6291 -1.5586 -0.5596
  166SAPE  C31818699   0.009   2.231   5.383 -0.1518 -0.0412  0.6418
  166SAPE  H18X18700  -0.099   2.203   5.377 -0.6160  0.2990  4.4473
  166SAPE  H18Y18701   0.024   2.298   5.471 -1.6786  1.4358 -0.1567
  166SAPE  H18Z18702   0.068   2.138   5.393 -0.2765 -0.2022 -0.0669
  167SAPE     N18703   5.918   6.889   2.779  0.4130  0.4471  0.1662
  167SAPE   HN118704   5.936   6.817   2.852 -0.5036  0.5786  0.5297
  167SAPE   HN218705   5.834   6.946   2.801  2.2561  2.9220  1.3763
  167SAPE   HN318706   5.909   6.836   2.691 -2.2852  0.5008  0.3275
  167SAPE   C1218707   6.023   6.995   2.771  0.6303  0.1246 -0.3849
  167SAPE  H12A18708   6.013   7.062   2.859  0.7834  0.6157 -0.7410
  167SAPE  H12B18709   6.000   7.054   2.680 -4.1489 -1.4928 -0.5188
  167SAPE   C1118710   6.163   6.938   2.762 -0.1418  0.7980  0.8894
  167SAPE  H11A18711   6.232   7.025   2.755  1.6849 -0.6679 -5.0167
  167SAPE  H11B18712   6.169   6.884   2.665 -0.5223 -3.0131  2.8053
  167SAPE     P18713   6.241   6.703   2.848  0.2426  0.0798 -0.1406
  167SAPE   O1318714   6.128   6.628   2.784 -0.5064 -0.5135 -0.0899
  167SAPE   O1418715   6.378   6.696   2.792 -0.0405  0.3769  0.2282
  167SAPE   O1218716   6.197   6.846   2.869 -0.8343 -0.5108  0.0592
  167SAPE   O1118717   6.247   6.636   2.991 -0.3872  0.3435 -0.4079
  167SAPE    C118718   6.357   6.647   3.082  0.1550 -0.1051 -0.3644
  167SAPE    HA18719   6.435   6.568   3.071  1.1825  0.4317  2.4017
  167SAPE    HB18720   6.416   6.740   3.070 -2.0426  1.2657 -1.1658
  167SAPE    C218721   6.309   6.646   3.226  0.1113 -0.1394 -0.8187
  167SAPE    HS18722   6.399   6.672   3.286 -0.4240 -0.8085  0.3272
  167SAPE   O2118723   6.259   6.516   3.259  0.0866  0.0123 -0.8287
  167SAPE   C2118724   6.260   6.479   3.383  0.2308  0.6382 -0.0072
  167SAPE   O2218725   6.326   6.525   3.474  0.5514  0.0586 -0.4321
  167SAPE   C2218726   6.159   6.364   3.394  0.6583 -0.1069 -0.1888
  167SAPE   H2R18727   6.061   6.398   3.351  1.5358  1.7878 -0.8196
  167SAPE   H2S18728   6.183   6.262   3.359 -0.4972 -0.3795 -0.2432
  167SAPE    C318729   6.204   6.763   3.238 -0.9863 -0.1848  0.4226
  167SAPE    HX18730   6.116   6.720   3.185 -0.9584 -1.3870  1.3067
  167SAPE    HY18731   6.245   6.855   3.191  0.4036 -0.3140  1.3198
  167SAPE   O3118732   6.162   6.802   3.369 -0.0610  0.6323  0.5288
  167SAPE   C3118733   6.248   6.853   3.455  0.1007 -0.6562 -0.2583
  167SAPE   O3218734   6.363   6.882   3.427 -0.1931 -0.3806 -0.2632
  167SAPE   C3218735   6.183   6.869   3.591 -0.5146 -0.7693  1.0424
  167SAPE   H2X18736   6.151   6.975   3.591 -1.0227 -0.9209  1.1701
  167SAPE   H2Y18737   6.264   6.861   3.667  0.0219  0.9791  0.6879
  167SAPE   C2318738   6.116   6.335   3.543  0.4139 -0.0457 -0.2970
  167SAPE   H3R18739   6.052   6.423   3.567  0.4212  0.1147 -0.8420
  167SAPE   H3S18740   6.204   6.326   3.610  0.9570  0.9139 -0.8513
  167SAPE   C2418741   6.037   6.206   3.565  0.0281 -0.3345 -0.6080
  167SAPE   H4R18742   6.049   6.185   3.674  0.0779 -1.7452 -0.8613
  167SAPE   H4S18743   6.087   6.119   3.516 -0.4820 -1.4280  0.7393
  167SAPE   C2518744   5.893   6.201   3.523  0.2632 -0.4330  0.1064
  167SAPE   H5R18745   5.872   6.228   3.418  2.0665 -1.4538 -0.5469
  167SAPE   C2618746   5.781   6.186   3.604 -0.4618 -0.2039 -0.8119
  167SAPE   H6R18747   5.684   6.189   3.552 -0.6826 -1.0759 -0.4605
  167SAPE   C2718748   5.782   6.157   3.755 -0.3466  0.3256  0.1095
  167SAPE   H7R18749   5.878   6.108   3.781 -0.8723 -1.0545 -0.4249
  167SAPE   H7S18750   5.712   6.073   3.775  0.7318 -0.6237  0.0060
  167SAPE   C2818751   5.770   6.281   3.839 -0.3985 -0.3736  0.6089
  167SAPE   H8R18752   5.845   6.361   3.829 -1.3606  0.3529 -1.3568
  167SAPE   C2918753   5.683   6.304   3.943  0.6234  0.5705 -0.5256
  167SAPE   H9R18754   5.699   6.400   3.995 -0.5608  1.7404 -2.2157
  167SAPE  C21018755   5.565   6.218   3.995  0.0749  0.8095  0.0719
  167SAPE  H10R18756   5.495   6.210   3.909 -0.7395 -2.1697  0.8880
  167SAPE  H10S18757   5.506   6.273   4.071 -0.2864 -0.2425  0.5713
  167SAPE  C21118758   5.600   6.079   4.046  1.0134 -0.2682  0.3808
  167SAPE  H11R18759   5.601   6.001   3.969 -0.1273 -0.1628  0.2489
  167SAPE  C21218760   5.646   6.048   4.169  0.8497  0.0237 -0.1099
  167SAPE  H12R18761   5.674   5.942   4.175  1.5518  0.2353  0.5652
  167SAPE  C21318762   5.658   6.149   4.283 -0.0590  0.7629  0.1423
  167SAPE  H13R18763   5.571   6.139   4.351 -0.7197  0.4752 -0.7281
  167SAPE  H13S18764   5.633   6.253   4.254 -2.0970 -0.0747 -1.3705
  167SAPE  C21418765   5.792   6.135   4.369  0.3308 -0.4386 -0.0099
  167SAPE  H14R18766   5.879   6.164   4.307 -0.1969  3.1186  0.7476
  167SAPE  C21518767   5.806   6.105   4.501 -0.1388  0.2977 -0.1576
  167SAPE  H15R18768   5.904   6.104   4.552 -1.0889 -0.1582  1.7408
  167SAPE  C21618769   5.701   6.054   4.598 -0.3000  0.2156  0.4031
  167SAPE  H16R18770   5.744   5.968   4.654  4.2268  2.2995  0.5468
  167SAPE  H16S18771   5.603   6.019   4.560 -1.7458  1.6423  2.5970
  167SAPE  C21718772   5.670   6.155   4.713  0.1984 -0.0969 -0.0788
  167SAPE  H17R18773   5.754   6.207   4.763  0.7674 -1.3439  0.3148
  167SAPE  H17S18774   5.612   6.101   4.791 -0.2275  0.9438  0.3312
  167SAPE  C21818775   5.575   6.277   4.672 -1.0708  0.2370 -0.4287
  167SAPE  H18R18776   5.496   6.232   4.608 -1.8093  0.3227  0.4058
  167SAPE  H18S18777   5.637   6.335   4.600 -0.3786  2.8175  2.0625
  167SAPE  C21918778   5.544   6.375   4.783 -0.1403  0.1658  0.0928
  167SAPE  H19R18779   5.477   6.460   4.756 -2.1770 -1.2769  0.3923
  167SAPE  H19S18780   5.640   6.401   4.833 -0.1311  0.0882  0.1146
  167SAPE  C22018781   5.460   6.303   4.893  0.5032 -0.4920 -0.7452
  167SAPE  H20R18782   5.398   6.375   4.951  0.2081  0.0039 -1.6549
  167SAPE  H20S18783   5.514   6.232   4.959 -2.3130 -1.4179  0.7404
  167SAPE  H20T18784   5.377   6.250   4.841 -1.0906  1.9242 -0.8326
  167SAPE   C3318785   6.055   6.787   3.625 -0.2923 -0.3220 -0.3804
  167SAPE   H3X18786   6.030   6.709   3.550 -0.3230 -1.7338  1.0432
  167SAPE   H3Y18787   5.981   6.869   3.633 -0.1413  0.1048 -2.6923
  167SAPE   C3418788   6.069   6.734   3.769 -0.0332  0.7564  0.3666
  167SAPE   H4X18789   6.149   6.787   3.825  2.0999 -1.0361 -0.8345
  167SAPE   H4Y18790   6.095   6.626   3.773 -0.5500  0.6463  0.9267
  167SAPE   C3518791   5.938   6.753   3.862 -0.2495 -0.1448  0.2691
  167SAPE   H5X18792   5.854   6.696   3.816  0.9879 -1.0674 -0.9259
  167SAPE   H5Y18793   5.899   6.857   3.856 -0.1558 -0.1334 -0.1886
  167SAPE   C3618794   5.955   6.692   3.999 -0.1371 -0.0166 -0.6878
  167SAPE   H6X18795   6.007   6.770   4.059  1.5756 -1.4535 -0.2117
  167SAPE   H6Y18796   6.011   6.597   3.998  0.4418  0.2490  1.2856
  167SAPE   C3718797   5.816   6.682   4.061 -0.0838  0.1254 -0.2302
  167SAPE   H7X18798   5.758   6.603   4.008  0.9111 -0.7674 -0.0240
  167SAPE   H7Y18799   5.771   6.782   4.043 -2.9765 -0.1973  3.8058
  167SAPE   C3818800   5.828   6.668   4.213 -0.0481  0.2981 -0.5028
  167SAPE   H8X18801   5.729   6.678   4.263  0.7848  0.2746  1.1879
  167SAPE   H8Y18802   5.888   6.751   4.255  0.4525 -0.2904 -0.0485
  167SAPE   C3918803   5.896   6.534   4.257 -0.2608  0.0627  0.2933
  167SAPE   H9X18804   5.990   6.523   4.198 -0.4443 -3.0669  0.4158
  167SAPE   H9Y18805   5.821   6.459   4.224 -1.1931  0.7806  0.7419
  167SAPE  C31018806   5.947   6.543   4.401  0.3811 -0.1037 -0.2445
  167SAPE  H10X18807   6.007   6.634   4.420  0.3807 -0.0374 -0.5529
  167SAPE  H10Y18808   6.024   6.464   4.414  2.1392  1.3087 -1.4510
  167SAPE  C31118809   5.834   6.541   4.500 -0.1333 -0.3133  0.6786
  167SAPE  H11X18810   5.784   6.442   4.494 -0.2571 -0.1846 -0.7161
  167SAPE  H11Y18811   5.758   6.615   4.470 -1.1036 -1.4617  0.2207
  167SAPE  C31218812   5.881   6.574   4.642 -0.3867 -0.2107  0.0096
  167SAPE  H12X18813   5.798   6.619   4.701 -1.2760 -2.1312  0.2670
  167SAPE  H12Y18814   5.951   6.661   4.638 -1.7224  0.9180  0.3807
  167SAPE  C31318815   5.954   6.461   4.717  0.3368 -0.4369 -0.4435
  167SAPE  H13X18816   6.046   6.430   4.662  0.2763 -3.2684  0.8549
  167SAPE  H13Y18817   5.878   6.380   4.726  0.3117 -0.1926  2.0951
  167SAPE  C31418818   5.992   6.497   4.862  0.9827 -0.1602 -0.1799
  167SAPE  H14X18819   6.066   6.579   4.850 -1.2152  2.2065  1.3491
  167SAPE  H14Y18820   6.059   6.419   4.904  0.5801 -1.3281 -1.6264
  167SAPE  C31518821   5.871   6.536   4.953 -0.4651 -0.1142 -0.2392
  167SAPE  H15X18822   5.819   6.445   4.991 -3.1493  0.4837 -2.1374
  167SAPE  H15Y18823   5.800   6.604   4.901 -0.5203 -2.2200 -3.2430
  167SAPE  C31618824   5.926   6.607   5.073 -0.3252 -0.1957  0.2213
  167SAPE  H16X18825   5.948   6.710   5.038 -1.3412 -0.2249 -0.5447
  167SAPE  H16Y18826   6.018   6.551   5.102 -0.1244  0.4265  0.8119
  167SAPE  C31718827   5.826   6.597   5.190  0.3514 -0.5518 -0.6017
  167SAPE  H17X18828   5.819   6.492   5.224 -1.9682  0.3856  2.3124
  167SAPE  H17Y18829   5.723   6.628   5.162 -0.0008 -0.0167  1.1211
  167SAPE  C31818830   5.872   6.684   5.304  0.1732  0.8030  0.0447
  167SAPE  H18X18831   5.981   6.703   5.305  0.6681 -1.1058 -3.3098
  167SAPE  H18Y18832   5.841   6.629   5.396  1.7732  0.1130  0.2068
  167SAPE  H18Z18833   5.824   6.784   5.298 -0.6707  0.6714  2.7876
  168SAPE     N18834   1.972   3.368   3.066  0.0963  0.2018  0.0522
  168SAPE   HN118835   1.917   3.281   3.079  0.9129 -0.3040  0.1915
  168SAPE   HN218836   1.911   3.449   3.091 -0.2461 -0.5263  1.7033
  168SAPE   HN318837   1.984   3.388   2.964 -1.7270  0.3584 -0.1613
  168SAPE   C1218838   2.084   3.345   3.160  0.6265 -0.1358 -0.1273
  168SAPE  H12A18839   2.038   3.366   3.259  0.6278  1.5428 -0.4480
  168SAPE  H12B18840   2.168   3.414   3.134  3.3396 -2.3860  2.0469
  168SAPE   C1118841   2.133   3.203   3.151 -0.0262 -0.4181  1.1280
  168SAPE  H11A18842   2.225   3.174   3.206  1.4675 -0.2957 -1.1805
  168SAPE  H11B18843   2.156   3.186   3.044 -0.5585 -0.0786  0.9524
  168SAPE     P18844   2.012   3.039   3.314  0.1044 -0.2046 -0.1487
  168SAPE   O1318845   1.882   2.965   3.322 -0.0895 -0.0661  0.3383
  168SAPE   O1418846   2.138   2.958   3.333  0.6749 -0.3909  0.1869
  168SAPE   O1218847   2.027   3.114   3.179 -0.1119 -0.4566  0.2163
  168SAPE   O1118848   2.019   3.156   3.412  0.5709 -0.0360  0.3980
  168SAPE    C118849   1.897   3.234   3.451 -0.0898 -0.7584 -0.0951
  168SAPE    HA18850   1.845   3.273   3.361  1.6189 -0.3013 -0.9490
  168SAPE    HB18851   1.830   3.174   3.515 -0.7547 -0.2757 -0.3281
  168SAPE    C218852   1.933   3.355   3.539  0.7396 -0.2178 -0.2038
  168SAPE    HS18853   1.999   3.416   3.474 -0.2407  1.5272  0.3687
  168SAPE   O2118854   2.003   3.301   3.658 -0.3482 -0.3256  0.2701
  168SAPE   C2118855   2.101   3.390   3.699  0.2099  0.6681 -0.3811
  168SAPE   O2218856   2.122   3.493   3.639 -0.6940  0.3878  0.0253
  168SAPE   C2218857   2.167   3.342   3.832 -0.0538  0.2454 -0.4119
  168SAPE   H2R18858   2.104   3.267   3.885  1.3578 -0.6095  0.1027
  168SAPE   H2S18859   2.261   3.294   3.796 -0.7990 -1.5521 -0.0862
  168SAPE    C318860   1.812   3.446   3.578 -0.2627 -0.2246  0.4900
  168SAPE    HX18861   1.774   3.494   3.485  1.1914  0.8626  0.4175
  168SAPE    HY18862   1.852   3.525   3.646  1.2689 -2.1432  1.9269
  168SAPE   O3118863   1.699   3.370   3.638  0.1404 -0.1519 -0.5347
  168SAPE   C3118864   1.715   3.354   3.770 -0.1911  0.1314 -0.0355
  168SAPE   O3218865   1.789   3.421   3.840 -0.0840  0.3766  0.2873
  168SAPE   C3218866   1.612   3.242   3.818  0.5276 -0.5302 -0.2608
  168SAPE   H2X18867   1.585   3.181   3.729  0.6891 -0.3664 -0.4219
  168SAPE   H2Y18868   1.521   3.304   3.834 -1.0743 -2.1849 -2.3932
  168SAPE   C2318869   2.191   3.467   3.928 -0.6299 -0.2361 -0.5476
  168SAPE   H3R18870   2.265   3.535   3.881  0.6403 -1.1572  0.0556
  168SAPE   H3S18871   2.260   3.434   4.009 -0.9972  1.9647  0.7360
  168SAPE   C2418872   2.069   3.536   3.996 -0.4491  0.1201  0.5612
  168SAPE   H4R18873   1.993   3.462   4.028 -1.7282  0.6184 -1.1839
  168SAPE   H4S18874   2.029   3.604   3.917  0.4038  0.9195  0.7981
  168SAPE   C2518875   2.115   3.620   4.109  0.5569 -0.7847 -0.3188
  168SAPE   H5R18876   2.183   3.704   4.088 -0.4519 -0.2013 -1.4424
  168SAPE   C2618877   2.055   3.635   4.232  0.3750 -0.7531  0.0100
  168SAPE   H6R18878   2.097   3.710   4.300  0.6262 -1.5823  0.7988
  168SAPE   C2718879   1.938   3.557   4.286  0.0920 -0.1477  0.0137
  168SAPE   H7R18880   1.941   3.556   4.397 -2.5239  3.8040  0.3310
  168SAPE   H7S18881   1.948   3.450   4.262 -1.5854 -0.5154  0.7906
  168SAPE   C2818882   1.812   3.611   4.233 -0.4934  0.0361 -0.7010
  168SAPE   H8R18883   1.811   3.627   4.124 -0.1924  0.5153 -0.6382
  168SAPE   C2918884   1.713   3.667   4.307  0.0606 -0.0826 -0.6309
  168SAPE   H9R18885   1.622   3.697   4.254 -0.6539  2.3769  1.7332
  168SAPE  C21018886   1.709   3.649   4.456  0.1281  0.3198  0.9916
  168SAPE  H10R18887   1.802   3.701   4.487  0.5693 -0.0423  0.3072
  168SAPE  H10S18888   1.734   3.544   4.482 -0.2985 -0.2950 -0.8910
  168SAPE  C21118889   1.588   3.702   4.530 -0.0816  0.0250 -0.3372
  168SAPE  H11R18890   1.499   3.740   4.479  0.5125  2.6193  0.3939
  168SAPE  C21218891   1.587   3.728   4.667  0.9991 -0.3495  0.1848
  168SAPE  H12R18892   1.489   3.760   4.704 -0.1623 -2.3251 -0.9694
  168SAPE  C21318893   1.693   3.695   4.770  0.2896 -0.9061  1.0974
  168SAPE  H13R18894   1.670   3.751   4.863 -1.6090 -0.2427  0.2727
  168SAPE  H13S18895   1.792   3.730   4.732 -0.0356 -1.8193 -0.6692
  168SAPE  C21418896   1.694   3.551   4.805 -0.1550 -0.0605  0.3062
  168SAPE  H14R18897   1.615   3.497   4.752  0.6009  0.7131 -1.7170
  168SAPE  C21518898   1.788   3.488   4.877  0.0298 -0.1462 -0.2356
  168SAPE  H15R18899   1.757   3.390   4.914 -1.7516  0.0308 -1.1458
  168SAPE  C21618900   1.912   3.543   4.945 -0.1505  0.0058 -0.3698
  168SAPE  H16R18901   1.903   3.653   4.955 -0.8480 -0.1673  1.1271
  168SAPE  H16S18902   1.996   3.526   4.875  0.6230 -1.6434  0.8816
  168SAPE  C21718903   1.938   3.497   5.091  0.2851  0.4931  0.3035
  168SAPE  H17R18904   1.865   3.511   5.173  0.1560  0.0962  0.2567
  168SAPE  H17S18905   2.024   3.563   5.118  0.2605  0.3135  0.8393
  168SAPE  C21818906   1.997   3.358   5.086  0.2121  0.4324  0.2397
  168SAPE  H18R18907   2.060   3.351   4.995  0.7788  0.0168  0.6523
  168SAPE  H18S18908   1.921   3.281   5.061  0.6737  0.0386  0.0435
  168SAPE  C21918909   2.055   3.313   5.216  0.6308 -0.1961  0.5524
  168SAPE  H19R18910   1.974   3.268   5.278 -0.0926 -2.0666 -1.6111
  168SAPE  H19S18911   2.109   3.394   5.269  0.0751  0.1777  0.5536
  168SAPE  C22018912   2.149   3.194   5.208 -0.2146 -0.1102 -0.3071
  168SAPE  H20R18913   2.193   3.169   5.307  0.3915  1.7678 -0.0699
  168SAPE  H20S18914   2.228   3.213   5.132  1.0809  1.4743  1.3479
  168SAPE  H20T18915   2.091   3.104   5.178  0.3186  0.4152 -3.2271
  168SAPE   C3318916   1.644   3.161   3.941 -0.2397 -0.0935  0.5200
  168SAPE   H3X18917   1.746   3.120   3.924 -0.3968  0.8502 -3.8273
  168SAPE   H3Y18918   1.569   3.081   3.962  0.6928 -0.5476  2.3806
  168SAPE   C3418919   1.631   3.239   4.068 -0.0911  0.3301  0.2192
  168SAPE   H4X18920   1.525   3.235   4.101  0.0047  0.5866  0.5593
  168SAPE   H4Y18921   1.668   3.343   4.058  1.3644 -0.2071 -0.2445
  168SAPE   C3518922   1.719   3.174   4.183  0.1655 -0.3840 -0.3114
  168SAPE   H5X18923   1.824   3.172   4.149  0.5752  0.4340  0.8540
  168SAPE   H5Y18924   1.700   3.066   4.200  1.4723 -0.5866 -0.0845
  168SAPE   C3618925   1.708   3.249   4.324  0.6050  0.2738 -0.3162
  168SAPE   H6X18926   1.598   3.264   4.331  0.4946  2.6010 -4.1481
  168SAPE   H6Y18927   1.749   3.352   4.328 -0.6198  0.7966 -0.8134
  168SAPE   C3718928   1.768   3.164   4.438 -0.2631  0.2893  0.3958
  168SAPE   H7X18929   1.864   3.141   4.388 -0.1772  0.0516  0.6686
  168SAPE   H7Y18930   1.708   3.071   4.448  1.8165 -1.0301  1.2512
  168SAPE   C3818931   1.783   3.238   4.575 -0.3593  0.0064  0.2664
  168SAPE   H8X18932   1.680   3.249   4.615 -0.5744  0.0142 -0.2792
  168SAPE   H8Y18933   1.825   3.339   4.558 -0.0843  0.0622  1.2148
  168SAPE   C3918934   1.844   3.162   4.693 -0.0936  0.0198  0.2908
  168SAPE   H9X18935   1.884   3.230   4.771  1.1897 -0.0216 -0.3048
  168SAPE   H9Y18936   1.931   3.102   4.657 -0.2431 -0.8599  1.3297
  168SAPE  C31018937   1.747   3.066   4.750 -0.5490 -0.4707  0.6638
  168SAPE  H10X18938   1.722   2.998   4.665  1.4648 -1.8123  1.0579
  168SAPE  H10Y18939   1.669   3.134   4.791  1.5491  2.1484  0.5662
  168SAPE  C31118940   1.804   2.975   4.859  0.5702  0.1305  0.1081
  168SAPE  H11X18941   1.739   2.986   4.948  1.3628 -1.0469  0.8656
  168SAPE  H11Y18942   1.894   3.029   4.896  0.3614  0.1082  0.6562
  168SAPE  C31218943   1.806   2.822   4.820 -0.9099 -0.0573 -0.1762
  168SAPE  H12X18944   1.903   2.806   4.768 -1.1903 -0.5122 -0.5630
  168SAPE  H12Y18945   1.731   2.807   4.740 -1.0987 -1.3193  0.2111
  168SAPE  C31318946   1.791   2.730   4.940 -0.2696 -0.0684  0.8909
  168SAPE  H13X18947   1.715   2.770   5.011  0.6067  0.7055  1.4112
  168SAPE  H13Y18948   1.885   2.732   4.999  1.8709  0.1115 -2.2983
  168SAPE  C31418949   1.768   2.588   4.904  0.0493  0.0486  0.1460
  168SAPE  H14X18950   1.849   2.555   4.837  0.2890  1.3947 -0.2564
  168SAPE  H14Y18951   1.674   2.567   4.848  0.6965 -1.1794 -0.4929
  168SAPE  C31518952   1.769   2.488   5.021 -0.7089  0.0176  0.5230
  168SAPE  H15X18953   1.695   2.520   5.098 -1.0424  1.9298 -0.5266
  168SAPE  H15Y18954   1.870   2.485   5.067  0.4650 -2.0613 -1.9335
  168SAPE  C31618955   1.738   2.349   4.969 -0.0558  0.5917 -0.0168
  168SAPE  H16X18956   1.644   2.348   4.910 -0.3036  0.3915  0.3812
  168SAPE  H16Y18957   1.723   2.281   5.056  2.2768 -2.4143 -1.7774
  168SAPE  C31718958   1.851   2.287   4.883  0.4710 -0.1856 -0.6845
  168SAPE  H17X18959   1.946   2.296   4.941  0.2708 -1.2996 -0.1431
  168SAPE  H17Y18960   1.868   2.345   4.791 -1.3384  2.0554  0.3045
  168SAPE  C31818961   1.835   2.137   4.845 -0.0026 -0.5319 -0.1408
  168SAPE  H18X18962   1.917   2.113   4.775  1.1809  3.0241 -0.1373
  168SAPE  H18Y18963   1.741   2.116   4.788  0.3281 -2.0113 -0.1912
  168SAPE  H18Z18964   1.846   2.069   4.933 -1.2403 -1.0906 -0.3794
  169SAPE     N18965   6.507   5.995   2.849 -0.2405 -0.0335  0.0101
  169SAPE   HN118966   6.415   6.044   2.852 -0.4882 -0.4706 -0.2744
  169SAPE   HN218967   6.577   6.034   2.914 -0.2934  0.1504 -0.0423
  169SAPE   HN318968   6.529   6.031   2.754 -1.9207  1.3578  0.0875
  169SAPE   C1218969   6.467   5.859   2.866  0.2995  0.2158 -0.8420
  169SAPE  H12A18970   6.549   5.790   2.835 -0.8929 -0.7118 -2.0180
  169SAPE  H12B18971   6.381   5.832   2.802 -0.0767  1.2917 -0.7968
  169SAPE   C1118972   6.435   5.824   3.018  0.0951  0.5257 -0.2224
  169SAPE  H11A18973   6.425   5.714   3.032 -0.9993  0.5963 -0.3347
  169SAPE  H11B18974   6.337   5.867   3.047  0.8064  1.5703  0.7336
  169SAPE     P18975   6.655   5.779   3.161 -0.2363  0.2632  0.0843
  169SAPE   O1318976   6.602   5.640   3.174 -0.0676 -0.2109 -0.2331
  169SAPE   O1418977   6.765   5.795   3.066 -0.0663 -0.0479  0.3104
  169SAPE   O1218978   6.538   5.877   3.105 -0.0497 -0.5191  0.6868
  169SAPE   O1118979   6.692   5.842   3.299  0.7712  0.1947 -0.1922
  169SAPE    C118980   6.604   5.925   3.374  0.3907 -0.1433 -0.4819
  169SAPE    HA18981   6.646   6.027   3.380 -1.1381  0.5380 -0.8063
  169SAPE    HB18982   6.501   5.932   3.333 -0.0399 -0.5102  0.5027
  169SAPE    C218983   6.589   5.862   3.518  0.2905 -0.0634  0.6845
  169SAPE    HS18984   6.508   5.787   3.505 -0.8040  1.4321 -1.8550
  169SAPE   O2118985   6.549   5.959   3.613  0.6199 -0.4959  0.2409
  169SAPE   C2118986   6.424   5.983   3.626  0.2208 -0.7338 -0.2087
  169SAPE   O2218987   6.327   5.940   3.566 -0.9679 -0.1355 -0.2896
  169SAPE   C2218988   6.405   6.082   3.742  0.1345  0.6376 -0.1561
  169SAPE   H2R18989   6.478   6.164   3.723  0.4181  0.6625  0.9543
  169SAPE   H2S18990   6.302   6.124   3.736 -0.5403 -0.4181  2.4627
  169SAPE    C318991   6.714   5.792   3.565  0.1333 -0.0462 -0.6951
  169SAPE    HX18992   6.798   5.864   3.578  1.0705 -1.2294  0.0966
  169SAPE    HY18993   6.745   5.706   3.502  1.3815  0.8386 -1.3447
  169SAPE   O3118994   6.695   5.750   3.699  0.5316 -0.1192  0.6778
  169SAPE   C3118995   6.645   5.629   3.725 -0.2091 -0.3561 -0.2422
  169SAPE   O3218996   6.568   5.565   3.654 -0.0923 -0.3644 -0.3408
  169SAPE   C3218997   6.694   5.585   3.866  0.8856 -0.1992 -0.1526
  169SAPE   H2X18998   6.801   5.618   3.868  0.5508  0.9556 -0.3017
  169SAPE   H2Y18999   6.683   5.477   3.885  0.7299 -0.3377 -1.0152
  169SAPE   C2319000   6.430   6.022   3.879 -0.2867 -0.9601  0.0468
  169SAPE   H3R19001   6.417   6.090   3.965  0.5664 -2.2218  1.2124
  169SAPE   H3S19002   6.533   5.981   3.887 -0.7938 -2.2929  0.0223
  169SAPE   C2419003   6.334   5.902   3.904 -0.3800 -0.0529  0.5106
  169SAPE   H4R19004   6.379   5.846   3.989  1.9263  2.0940  0.7989
  169SAPE   H4S19005   6.345   5.826   3.824  2.8847  0.3516  0.4578
  169SAPE   C2519006   6.189   5.938   3.931 -0.4319  0.7493  0.1882
  169SAPE   H5R19007   6.132   5.916   3.839  1.2605  0.3168 -0.7990
  169SAPE   C2619008   6.127   5.983   4.040  0.3510  0.1796 -1.0132
  169SAPE   H6R19009   6.019   6.004   4.044  0.4528  0.6968 -0.9211
  169SAPE   C2719010   6.198   5.999   4.173  0.6152 -0.8282 -0.2997
  169SAPE   H7R19011   6.160   6.086   4.231 -0.0156 -2.1049  1.2724
  169SAPE   H7S19012   6.308   6.019   4.172  0.5191 -0.1902  0.6329
  169SAPE   C2819013   6.166   5.875   4.256 -0.1538 -0.2617 -0.5000
  169SAPE   H8R19014   6.112   5.793   4.207  0.2010 -0.4056 -0.6545
  169SAPE   C2919015   6.187   5.865   4.391 -0.4089 -0.2695  0.6259
  169SAPE   H9R19016   6.157   5.772   4.441 -0.3473 -0.5613  0.1327
  169SAPE  C21019017   6.246   5.972   4.486 -0.0073 -0.1428  0.1921
  169SAPE  H10R19018   6.279   6.070   4.444 -2.5237  0.6546 -0.0701
  169SAPE  H10S19019   6.338   5.921   4.521 -0.7259 -1.7265 -0.1599
  169SAPE  C21119020   6.154   5.985   4.602  0.0774  0.0179  0.5526
  169SAPE  H11R19021   6.078   5.907   4.621  0.3781 -0.1292  1.1607
  169SAPE  C21219022   6.167   6.079   4.699 -0.2727 -0.1296  0.3117
  169SAPE  H12R19023   6.091   6.083   4.778  1.5068 -0.5787  2.1339
  169SAPE  C21319024   6.261   6.190   4.708 -0.0636 -0.1190  0.1883
  169SAPE  H13R19025   6.214   6.277   4.759 -2.4930 -0.2794 -1.6064
  169SAPE  H13S19026   6.283   6.222   4.604  0.1228  1.7453  0.7614
  169SAPE  C21419027   6.395   6.147   4.776  0.7711 -0.6137 -0.2779
  169SAPE  H14R19028   6.469   6.099   4.710 -1.9804 -2.3991 -2.3254
  169SAPE  C21519029   6.417   6.156   4.915  0.1763  0.2204  0.1403
  169SAPE  H15R19030   6.498   6.094   4.954 -1.4437 -2.3518 -0.3021
  169SAPE  C21619031   6.320   6.204   5.023 -1.0229  0.5577 -0.2968
  169SAPE  H16R19032   6.310   6.142   5.114 -0.0323  1.6339  0.5807
  169SAPE  H16S19033   6.217   6.215   4.983 -0.9033  0.7481 -0.5573
  169SAPE  C21719034   6.375   6.333   5.081  0.3047 -0.2206  0.1498
  169SAPE  H17R19035   6.375   6.403   4.994  0.4453  0.1803  0.4682
  169SAPE  H17S19036   6.480   6.319   5.114 -0.7273 -4.4865  2.3116
  169SAPE  C21819037   6.292   6.400   5.186 -0.4976 -0.2041 -0.4486
  169SAPE  H18R19038   6.274   6.336   5.275 -0.5470  0.6032  0.1330
  169SAPE  H18S19039   6.192   6.405   5.136 -0.9704  0.0470  0.4914
  169SAPE  C21919040   6.324   6.547   5.233  0.4987 -0.6374 -0.0020
  169SAPE  H19R19041   6.239   6.591   5.290  0.6995  1.2175 -1.0679
  169SAPE  H19S19042   6.318   6.608   5.141 -3.8933  0.4253  0.7601
  169SAPE  C22019043   6.453   6.562   5.309 -0.3913  0.3204 -0.4880
  169SAPE  H20R19044   6.465   6.467   5.366 -2.6855 -0.4477 -1.1607
  169SAPE  H20S19045   6.453   6.654   5.372  0.5772  1.1042 -1.6008
  169SAPE  H20T19046   6.539   6.561   5.239 -0.1143 -1.9765 -0.2076
  169SAPE   C3319047   6.630   5.653   3.986 -0.6103  1.1895  0.1621
  169SAPE   H3X19048   6.617   5.762   3.965  2.6297  1.0935 -3.2705
  169SAPE   H3Y19049   6.709   5.653   4.065  1.0460 -0.3842 -1.4032
  169SAPE   C3419050   6.501   5.588   4.047  0.2253  0.3302 -0.5394
  169SAPE   H4X19051   6.526   5.482   4.069 -1.9400 -0.1395 -0.0932
  169SAPE   H4Y19052   6.417   5.591   3.975 -0.6435  0.4456  0.4527
  169SAPE   C3519053   6.471   5.664   4.176  0.3908  0.3346 -0.0652
  169SAPE   H5X19054   6.362   5.671   4.192  0.4277 -0.5230  0.6440
  169SAPE   H5Y19055   6.506   5.768   4.162 -1.0635  0.8137 -0.2734
  169SAPE   C3619056   6.528   5.625   4.314  0.1859 -0.2871 -0.0634
  169SAPE   H6X19057   6.637   5.609   4.299  0.1628  0.8146 -1.6921
  169SAPE   H6Y19058   6.486   5.533   4.359 -0.6000 -1.1512 -2.4462
  169SAPE   C3719059   6.511   5.730   4.429  0.2291  0.4458  0.1600
  169SAPE   H7X19060   6.404   5.720   4.456 -0.3130  0.6855 -1.7661
  169SAPE   H7Y19061   6.535   5.836   4.405 -2.6461  1.2921  0.6200
  169SAPE   C3819062   6.604   5.706   4.552  0.3176 -0.0219  0.1456
  169SAPE   H8X19063   6.707   5.732   4.520  0.1829  0.2303 -0.0873
  169SAPE   H8Y19064   6.603   5.595   4.560 -0.3465 -0.1910 -1.6778
  169SAPE   C3919065   6.559   5.778   4.683 -0.1897  0.0212 -0.0126
  169SAPE   H9X19066   6.572   5.883   4.648 -1.6664  1.0524  2.3609
  169SAPE   H9Y19067   6.643   5.751   4.751  0.8072  0.5529 -0.9859
  169SAPE  C31019068   6.417   5.725   4.725 -0.1178  1.1472  0.2364
  169SAPE  H10X19069   6.433   5.617   4.747  0.4620  0.4859 -2.9973
  169SAPE  H10Y19070   6.339   5.736   4.646 -0.0026  0.8086  0.0736
  169SAPE  C31119071   6.357   5.794   4.843 -0.4948  0.0222 -0.3616
  169SAPE  H11X19072   6.345   5.899   4.811 -0.4423  0.3505  0.6425
  169SAPE  H11Y19073   6.426   5.786   4.930 -1.9073  0.9518  0.9026
  169SAPE  C31219074   6.228   5.725   4.888  0.6399  0.3416  0.2518
  169SAPE  H12X19075   6.234   5.623   4.931 -1.1941  0.4580  0.8691
  169SAPE  H12Y19076   6.166   5.703   4.798  0.2174  0.7768  0.4308
  169SAPE  C31319077   6.148   5.814   4.987 -0.3762 -0.4079  0.0678
  169SAPE  H13X19078   6.082   5.870   4.918  1.8217  2.2463 -0.0419
  169SAPE  H13Y19079   6.215   5.884   5.041 -1.2476  0.3386  0.2123
  169SAPE  C31419080   6.072   5.723   5.092 -0.2018  0.0347 -0.0534
  169SAPE  H14X19081   6.148   5.682   5.161 -1.4686 -0.4924  1.0829
  169SAPE  H14Y19082   6.031   5.632   5.044  0.2711  0.5036 -1.3959
  169SAPE  C31519083   5.966   5.788   5.183  0.1670 -1.0361 -0.1286
  169SAPE  H15X19084   5.888   5.839   5.123  0.0818 -1.4621 -0.3792
  169SAPE  H15Y19085   6.012   5.873   5.237  1.1035 -1.7189  0.1799
  169SAPE  C31619086   5.900   5.692   5.280  0.6482 -0.5135 -0.0628
  169SAPE  H16X19087   5.982   5.622   5.309  0.0170 -1.1015  0.3292
  169SAPE  H16Y19088   5.839   5.619   5.223  0.2239  1.5035 -2.3192
  169SAPE  C31719089   5.845   5.756   5.413 -0.0116  0.1686 -0.1581
  169SAPE  H17X19090   5.764   5.830   5.396  0.6956  0.5762 -1.8735
  169SAPE  H17Y19091   5.921   5.827   5.453 -1.0332  1.8980 -1.1733
  169SAPE  C31819092   5.820   5.663   5.529 -0.7237  0.4776  0.2640
  169SAPE  H18X19093   5.788   5.708   5.626 -0.9602 -0.2262  0.5128
  169SAPE  H18Y19094   5.919   5.615   5.548 -1.5919 -0.5644  2.5319
  169SAPE  H18Z19095   5.757   5.574   5.508 -3.2504  2.1850  0.1461
  170SAPE     N19096   5.418   0.662   3.195 -0.4076 -0.5786 -0.0818
  170SAPE   HN119097   5.388   0.636   3.291  2.0567 -2.0209  0.3810
  170SAPE   HN219098   5.375   0.755   3.175 -0.1813 -0.2411  0.9456
  170SAPE   HN319099   5.391   0.581   3.136  0.7788 -3.1854  2.6870
  170SAPE   C1219100   5.566   0.687   3.172 -0.1464 -0.3160 -0.3892
  170SAPE  H12A19101   5.632   0.598   3.167 -1.3710 -1.2616 -0.3055
  170SAPE  H12B19102   5.598   0.746   3.260 -0.0148 -2.1919  0.8850
  170SAPE   C1119103   5.585   0.776   3.052  0.4291  0.1644 -0.4687
  170SAPE  H11A19104   5.559   0.720   2.960  1.0417  0.6219 -0.9287
  170SAPE  H11B19105   5.692   0.790   3.028  0.3011  0.0345 -1.1595
  170SAPE     P19106   5.571   1.029   3.129 -0.1674 -0.0332 -0.4385
  170SAPE   O1319107   5.520   1.145   3.055 -0.6808 -0.3412  0.1247
  170SAPE   O1419108   5.537   1.007   3.269  0.5071 -0.0549  0.1788
  170SAPE   O1219109   5.520   0.901   3.053 -0.2369 -0.0830  0.0745
  170SAPE   O1119110   5.730   1.013   3.114  0.1010  0.3052 -0.0842
  170SAPE    C119111   5.797   1.082   3.223  0.7324 -0.0597  0.1771
  170SAPE    HA19112   5.842   1.177   3.188 -0.7429  0.7722  0.4489
  170SAPE    HB19113   5.740   1.094   3.317 -1.2497 -0.6739 -0.8957
  170SAPE    C219114   5.912   0.995   3.271  0.2022 -0.5704  0.4468
  170SAPE    HS19115   5.964   0.973   3.176 -0.6289  0.5618 -0.2920
  170SAPE   O2119116   5.862   0.873   3.327  0.2149 -0.3421  0.0900
  170SAPE   C2119117   5.942   0.765   3.309  0.2664 -0.5545  0.1900
  170SAPE   O2219118   6.055   0.774   3.257  0.3643 -0.2998  0.0517
  170SAPE   C2219119   5.869   0.637   3.357 -0.0684 -0.2699 -0.2533
  170SAPE   H2R19120   5.793   0.604   3.283 -2.0980 -1.4404  2.1993
  170SAPE   H2S19121   5.950   0.561   3.364  0.8862  0.7608  0.2800
  170SAPE    C319122   6.000   1.073   3.375  0.7528  0.0402 -0.3848
  170SAPE    HX19123   6.038   1.160   3.318  1.6054  0.7698  1.2251
  170SAPE    HY19124   6.087   1.011   3.405  3.5994  2.8445 -2.1441
  170SAPE   O3119125   5.913   1.110   3.487  0.3788 -0.2184 -0.4154
  170SAPE   C3119126   5.941   1.220   3.554 -0.1225 -0.1476 -0.1362
  170SAPE   O3219127   6.027   1.299   3.527 -0.8067 -0.0834  0.0410
  170SAPE   C3219128   5.822   1.261   3.642 -0.1709  1.1636 -0.3634
  170SAPE   H2X19129   5.763   1.167   3.642 -1.3631  1.8967 -0.2385
  170SAPE   H2Y19130   5.782   1.344   3.581  2.8464  2.8517 -0.2402
  170SAPE   C2319131   5.804   0.645   3.493  0.0462 -0.1915  0.3690
  170SAPE   H3R19132   5.744   0.553   3.510 -0.1104  0.0433  1.1579
  170SAPE   H3S19133   5.734   0.730   3.509  1.2613  0.5040  2.4639
  170SAPE   C2419134   5.904   0.650   3.620  0.0176  0.0169 -0.1036
  170SAPE   H4R19135   5.995   0.587   3.607  0.0555  0.4274 -2.1087
  170SAPE   H4S19136   5.852   0.616   3.712  0.6072 -0.1290  0.1818
  170SAPE   C2519137   5.938   0.792   3.641  0.3775  0.1724 -0.4215
  170SAPE   H5R19138   5.867   0.864   3.598  1.1475  2.7583  2.2923
  170SAPE   C2619139   6.034   0.841   3.720  0.3265  0.0616 -0.4245
  170SAPE   H6R19140   6.045   0.951   3.715 -1.0561  0.2802  0.7471
  170SAPE   C2719141   6.124   0.765   3.804 -0.9350  0.3867 -0.8892
  170SAPE   H7R19142   6.216   0.826   3.811 -1.9505  1.8868 -0.1322
  170SAPE   H7S19143   6.156   0.662   3.776  3.0156  1.5070 -1.0974
  170SAPE   C2819144   6.068   0.752   3.944  0.0127 -0.0201 -0.2296
  170SAPE   H8R19145   5.959   0.737   3.948  0.0937 -0.7053 -0.5087
  170SAPE   C2919146   6.129   0.748   4.062  0.8453 -0.2703 -0.3356
  170SAPE   H9R19147   6.069   0.749   4.154 -0.7151 -0.3925 -1.3274
  170SAPE  C21019148   6.272   0.750   4.094 -0.3593  0.7156  0.1088
  170SAPE  H10R19149   6.293   0.845   4.146  3.3435  0.2475 -0.2112
  170SAPE  H10S19150   6.335   0.749   4.002 -0.0933  2.4537  0.2441
  170SAPE  C21119151   6.299   0.627   4.182 -0.2283  0.2855  0.0100
  170SAPE  H11R19152   6.315   0.533   4.127 -1.4122 -1.2549  2.1586
  170SAPE  C21219153   6.314   0.623   4.316 -0.2744 -0.4701 -0.4869
  170SAPE  H12R19154   6.349   0.526   4.354 -0.0280  0.2151  1.0827
  170SAPE  C21319155   6.308   0.747   4.406 -0.4170  1.0106 -0.5326
  170SAPE  H13R19156   6.204   0.782   4.389 -0.8676 -0.4181 -0.8377
  170SAPE  H13S19157   6.386   0.821   4.378  1.1328  0.2347  1.4946
  170SAPE  C21419158   6.326   0.707   4.549 -0.4457  0.8060 -0.1713
  170SAPE  H14R19159   6.251   0.643   4.598 -1.9615  1.4183 -1.5758
  170SAPE  C21519160   6.432   0.731   4.625  0.2055 -0.0140 -0.2194
  170SAPE  H15R19161   6.440   0.681   4.722  2.9182 -2.6777 -1.6436
  170SAPE  C21619162   6.558   0.807   4.591  0.2877 -0.0440 -0.4135
  170SAPE  H16R19163   6.583   0.797   4.483  1.0466 -0.9676 -0.1689
  170SAPE  H16S19164   6.646   0.754   4.632  0.3831 -1.2560 -2.0593
  170SAPE  C21719165   6.553   0.952   4.636 -1.4088 -0.1995 -0.6343
  170SAPE  H17R19166   6.539   0.956   4.746 -1.4073  0.9353 -0.6676
  170SAPE  H17S19167   6.460   1.005   4.605 -1.6465  1.7528  2.9470
  170SAPE  C21819168   6.680   1.029   4.590  0.1965 -0.0473  0.0490
  170SAPE  H18R19169   6.655   1.073   4.491  0.8600 -0.0437 -0.1188
  170SAPE  H18S19170   6.767   0.960   4.581  1.7188  1.7616  0.2903
  170SAPE  C21919171   6.712   1.153   4.680 -0.4048 -0.4904 -0.9364
  170SAPE  H19R19172   6.622   1.205   4.718  1.5042  1.6716  0.9806
  170SAPE  H19S19173   6.757   1.229   4.612 -0.3256  1.2334  0.9493
  170SAPE  C22019174   6.812   1.126   4.796 -0.2933  0.0810 -0.2287
  170SAPE  H20R19175   6.751   1.087   4.881  0.2076  3.0421  1.6291
  170SAPE  H20S19176   6.855   1.224   4.826  2.5659 -0.6651 -1.6193
  170SAPE  H20T19177   6.890   1.060   4.754 -1.2652 -1.3184  0.1136
  170SAPE   C3319178   5.855   1.297   3.784 -1.3520  0.2734 -0.1322
  170SAPE   H3X19179   5.758   1.331   3.825 -2.1482 -2.1896  0.1949
  170SAPE   H3Y19180   5.917   1.389   3.788 -0.8988 -0.0408  0.1143
  170SAPE   C3419181   5.919   1.190   3.874  0.0520  0.2226 -0.1697
  170SAPE   H4X19182   6.012   1.155   3.825 -0.6297 -0.4569 -1.0311
  170SAPE   H4Y19183   5.851   1.102   3.877  2.3068 -1.6088  0.5056
  170SAPE   C3519184   5.958   1.236   4.014 -1.2156 -0.3003 -0.3859
  170SAPE   H5X19185   5.874   1.297   4.053  0.0158  0.1837  1.6441
  170SAPE   H5Y19186   6.053   1.293   4.011 -0.6834 -1.1976 -1.0093
  170SAPE   C3619187   5.973   1.133   4.126 -0.5024 -0.4750  1.1336
  170SAPE   H6X19188   6.068   1.078   4.104 -0.4778 -1.4804  3.4750
  170SAPE   H6Y19189   5.887   1.065   4.108 -0.6928  0.3630 -1.6664
  170SAPE   C3719190   5.976   1.184   4.264  0.2972  0.2047 -0.0956
  170SAPE   H7X19191   5.882   1.233   4.297 -0.9401 -1.6474 -0.7423
  170SAPE   H7Y19192   6.044   1.272   4.259  0.3282  0.1368 -1.0301
  170SAPE   C3819193   6.013   1.073   4.364 -0.0353 -0.0420 -0.4512
  170SAPE   H8X19194   6.094   1.011   4.319  1.5575  2.7472 -1.6826
  170SAPE   H8Y19195   5.924   1.009   4.384 -1.8397  2.3721 -0.3648
  170SAPE   C3919196   6.051   1.145   4.493 -0.8630  0.3226 -0.2932
  170SAPE   H9X19197   5.976   1.222   4.522 -1.1555 -0.6212  1.6510
  170SAPE   H9Y19198   6.154   1.186   4.482  0.0315 -0.9409  2.4222
  170SAPE  C31019199   6.072   1.045   4.607  0.2627  0.4087  0.4922
  170SAPE  H10X19200   6.128   0.954   4.578 -1.2830  0.1555 -1.9225
  170SAPE  H10Y19201   5.968   1.019   4.637  0.2316  1.2431  1.1778
  170SAPE  C31119202   6.136   1.116   4.722  0.3149 -0.3661  0.7471
  170SAPE  H11X19203   6.074   1.208   4.734  2.2715  1.0321  0.6065
  170SAPE  H11Y19204   6.237   1.157   4.705  0.8752 -0.1554  3.9943
  170SAPE  C31219205   6.118   1.045   4.860  0.4353 -0.1834  0.0332
  170SAPE  H12X19206   6.009   1.030   4.875  0.5768 -0.9421  0.3507
  170SAPE  H12Y19207   6.146   1.097   4.954 -1.4958  0.0638  0.5215
  170SAPE  C31319208   6.195   0.915   4.863  0.0252 -0.1003 -0.1793
  170SAPE  H13X19209   6.292   0.926   4.809  0.8497 -1.4591  0.9597
  170SAPE  H13Y19210   6.133   0.842   4.807 -0.8543  0.6624 -0.2172
  170SAPE  C31419211   6.219   0.861   5.008  0.7254 -0.2247  0.4074
  170SAPE  H14X19212   6.217   0.752   4.987  1.1995  0.1528 -1.7710
  170SAPE  H14Y19213   6.130   0.892   5.067 -0.7807  1.3972 -2.4970
  170SAPE  C31519214   6.347   0.919   5.083  0.1421 -0.3628  0.6002
  170SAPE  H15X19215   6.352   1.023   5.121  1.7451  0.0764 -0.6992
  170SAPE  H15Y19216   6.427   0.922   5.006 -0.1978  1.3982  0.2774
  170SAPE  C31619217   6.396   0.828   5.198 -1.1161 -1.0157  0.1535
  170SAPE  H16X19218   6.416   0.735   5.141  2.4304  0.4787 -1.2898
  170SAPE  H16Y19219   6.329   0.801   5.283 -1.4792  1.6890  0.8203
  170SAPE  C31719220   6.527   0.875   5.270 -0.3508 -0.0041 -1.0111
  170SAPE  H17X19221   6.601   0.919   5.200  1.7721 -1.4851  0.1710
  170SAPE  H17Y19222   6.579   0.787   5.314 -0.9955  1.0694  2.1652
  170SAPE  C31819223   6.497   0.978   5.379 -0.4670  0.2112  0.1485
  170SAPE  H18X19224   6.568   1.062   5.391  0.3185 -0.5571  1.0366
  170SAPE  H18Y19225   6.487   0.931   5.479  1.3614  1.4331  0.9636
  170SAPE  H18Z19226   6.404   1.030   5.349  0.1908  0.8976 -0.8018
  171SAPE     N19227   0.915   0.466   2.537  0.4713  1.0342  0.2293
  171SAPE   HN119228   0.880   0.559   2.506 -0.9804  1.0655  1.8053
  171SAPE   HN219229   1.005   0.468   2.486  0.7828  0.3055  0.7342
  171SAPE   HN319230   0.857   0.386   2.503  0.3749  0.6792  1.1884
  171SAPE   C1219231   0.932   0.459   2.687  0.2224 -0.2410  0.3040
  171SAPE  H12A19232   1.016   0.525   2.719 -2.1771  2.8994  0.6119
  171SAPE  H12B19233   0.963   0.358   2.722  1.7691  0.3676  0.7917
  171SAPE   C1119234   0.808   0.501   2.756 -0.3486 -0.4718 -0.4091
  171SAPE  H11A19235   0.781   0.606   2.731  1.3400  0.2238  0.4968
  171SAPE  H11B19236   0.826   0.503   2.866 -0.9904  1.0790 -0.2924
  171SAPE     P19237   0.564   0.410   2.784 -0.0330 -0.1254 -0.7418
  171SAPE   O1319238   0.499   0.539   2.748  0.2816 -0.2000 -0.1148
  171SAPE   O1419239   0.495   0.290   2.738  0.1909 -0.0069  0.3173
  171SAPE   O1219240   0.709   0.405   2.721  0.1376 -0.8328  0.2566
  171SAPE   O1119241   0.605   0.394   2.932  0.5304 -0.5817 -0.3928
  171SAPE    C119242   0.504   0.380   3.031 -0.8053 -0.9553 -0.1289
  171SAPE    HA19243   0.410   0.333   2.994  0.0217 -2.0165 -0.9360
  171SAPE    HB19244   0.538   0.311   3.110 -1.3358 -0.6106  0.4115
  171SAPE    C219245   0.473   0.518   3.107 -0.2974  0.0309 -0.0059
  171SAPE    HS19246   0.394   0.497   3.182 -3.1982  3.7107 -1.6640
  171SAPE   O2119247   0.415   0.631   3.031  0.8993  0.1851  0.3535
  171SAPE   C2119248   0.295   0.610   2.984 -0.0759 -0.0281 -0.4513
  171SAPE   O2219249   0.231   0.504   3.006 -0.4171 -0.4187 -0.1629
  171SAPE   C2219250   0.239   0.729   2.910 -0.0331 -0.0397 -0.1933
  171SAPE   H2R19251   0.291   0.816   2.955  0.5798  0.6029 -2.0834
  171SAPE   H2S19252   0.275   0.714   2.807  1.2034  3.5918 -0.4310
  171SAPE    C319253   0.594   0.562   3.184 -0.2924 -0.0154  0.0059
  171SAPE    HX19254   0.673   0.581   3.108 -3.0609  0.6401 -2.9001
  171SAPE    HY19255   0.631   0.479   3.249  0.5069 -1.2093 -1.9038
  171SAPE   O3119256   0.571   0.662   3.292 -0.1004  0.0459 -0.1712
  171SAPE   C3119257   0.580   0.783   3.238 -0.4218  0.3793 -0.3063
  171SAPE   O3219258   0.608   0.805   3.123  0.2919  0.6475 -0.9976
  171SAPE   C3219259   0.548   0.894   3.327 -0.2755 -0.1053 -0.9183
  171SAPE   H2X19260   0.469   0.856   3.396  2.9260 -3.9701  1.0513
  171SAPE   H2Y19261   0.485   0.965   3.270 -0.6464 -0.3558 -0.8261
  171SAPE   C2319262   0.088   0.732   2.925 -0.5209 -0.4982 -0.7077
  171SAPE   H3R19263   0.041   0.632   2.914 -0.7980 -0.4040 -0.3976
  171SAPE   H3S19264   0.054   0.796   2.841  0.0615 -1.1926 -1.4819
  171SAPE   C2419265   0.041   0.796   3.056  0.5289  0.7216 -0.2688
  171SAPE   H4R19266  -0.060   0.836   3.032  0.2011  1.1645  1.6997
  171SAPE   H4S19267   0.098   0.887   3.084 -1.2095  1.5503  0.7309
  171SAPE   C2519268   0.028   0.697   3.171  0.4304 -0.6269 -0.4777
  171SAPE   H5R19269  -0.008   0.597   3.144 -1.6653  0.2489 -1.1430
  171SAPE   C2619270   0.097   0.717   3.291  0.0001 -0.0599  0.6390
  171SAPE   H6R19271   0.115   0.629   3.354  1.5621 -0.9628 -0.9949
  171SAPE   C2719272   0.194   0.829   3.335 -0.3123 -1.1305 -0.3497
  171SAPE   H7R19273   0.250   0.863   3.245  2.9529  0.6330  2.1220
  171SAPE   H7S19274   0.271   0.775   3.393  0.4446  0.2653 -0.0164
  171SAPE   C2819275   0.132   0.938   3.431 -0.2388  0.4317  0.3914
  171SAPE   H8R19276   0.064   1.001   3.371  0.1778  2.6032  2.0323
  171SAPE   C2919277   0.145   0.963   3.557 -0.3070 -0.1095 -0.2213
  171SAPE   H9R19278   0.081   1.042   3.598 -0.1033 -0.2567  0.3863
  171SAPE  C21019279   0.244   0.891   3.651  0.5960 -0.0492  0.3315
  171SAPE  H10R19280   0.334   0.866   3.591 -0.4717  0.7406 -1.6912
  171SAPE  H10S19281   0.202   0.795   3.686  1.3627 -0.0532  1.2841
  171SAPE  C21119282   0.293   0.985   3.763  0.2864  0.1148 -0.2461
  171SAPE  H11R19283   0.243   1.082   3.775 -1.6880 -0.8170 -0.3641
  171SAPE  C21219284   0.394   0.953   3.852 -0.3622  0.0724 -0.1549
  171SAPE  H12R19285   0.412   1.030   3.929 -0.5182  2.0026 -1.9440
  171SAPE  C21319286   0.472   0.823   3.852  1.0301  0.4482 -0.4271
  171SAPE  H13R19287   0.465   0.769   3.755  1.6390 -1.5007  0.5614
  171SAPE  H13S19288   0.413   0.752   3.914 -1.8105  2.1163 -1.0235
  171SAPE  C21419289   0.622   0.827   3.889 -0.1215 -0.2331  0.4076
  171SAPE  H14R19290   0.695   0.805   3.810  0.7903 -0.2762  1.2438
  171SAPE  C21519291   0.667   0.840   4.019 -0.3166  0.8807 -0.2670
  171SAPE  H15R19292   0.775   0.829   4.034  0.0316 -1.7977 -3.5207
  171SAPE  C21619293   0.577   0.877   4.145 -0.2596  0.2666  0.0404
  171SAPE  H16R19294   0.469   0.881   4.119 -0.6240 -0.1133  1.4027
  171SAPE  H16S19295   0.600   0.978   4.186  1.0959 -0.2539  0.6254
  171SAPE  C21719296   0.597   0.773   4.257  0.1390 -0.4902 -0.2563
  171SAPE  H17R19297   0.706   0.771   4.278  0.1605 -0.2431 -0.3395
  171SAPE  H17S19298   0.567   0.671   4.228  0.3308 -0.6497  0.1010
  171SAPE  C21819299   0.525   0.817   4.382 -0.5258 -0.3314  0.0763
  171SAPE  H18R19300   0.500   0.727   4.442  2.0663  0.0068  1.8280
  171SAPE  H18S19301   0.439   0.883   4.360 -0.3565  0.3886  1.4835
  171SAPE  C21919302   0.623   0.904   4.472  0.0623  0.4943  0.6734
  171SAPE  H19R19303   0.646   1.001   4.423  1.5248 -2.5810 -5.6977
  171SAPE  H19S19304   0.714   0.840   4.470 -0.7696 -0.7044  0.4526
  171SAPE  C22019305   0.582   0.925   4.617  0.4538 -0.1390 -0.2906
  171SAPE  H20R19306   0.580   0.833   4.679 -1.9343  0.2908  0.3668
  171SAPE  H20S19307   0.480   0.968   4.618  0.3244 -0.4196  1.3343
  171SAPE  H20T19308   0.651   0.995   4.669  1.0570 -1.8732  1.3670
  171SAPE   C3319309   0.662   0.956   3.422 -0.2272  0.2803  0.6537
  171SAPE   H3X19310   0.747   0.986   3.358 -0.3662 -2.1738 -0.7886
  171SAPE   H3Y19311   0.710   0.875   3.482  3.8457  0.7037 -1.6847
  171SAPE   C3419312   0.616   1.060   3.527  0.2975 -1.0925 -0.0223
  171SAPE   H4X19313   0.614   1.003   3.622  1.6808 -1.3750 -0.1490
  171SAPE   H4Y19314   0.513   1.093   3.498  0.3686  0.1676  1.0623
  171SAPE   C3519315   0.714   1.176   3.539  0.0537 -0.1713  0.5345
  171SAPE   H5X19316   0.724   1.213   3.435 -1.3001  0.3138  0.5534
  171SAPE   H5Y19317   0.811   1.134   3.573  0.3288 -0.9270 -1.0935
  171SAPE   C3619318   0.671   1.287   3.631  0.3618  0.2292 -0.4561
  171SAPE   H6X19319   0.573   1.325   3.595  0.4391  0.2766 -0.6168
  171SAPE   H6Y19320   0.757   1.357   3.630  1.0898 -0.6115  0.6901
  171SAPE   C3719321   0.678   1.237   3.777  0.1861 -0.2861 -0.0073
  171SAPE   H7X19322   0.603   1.155   3.786 -0.2782  0.0603 -0.5996
  171SAPE   H7Y19323   0.647   1.328   3.834  1.2467 -1.3549  2.3807
  171SAPE   C3819324   0.814   1.173   3.833  0.1699 -0.2106  0.1649
  171SAPE   H8X19325   0.881   1.243   3.779 -1.1698  0.0518 -1.2013
  171SAPE   H8Y19326   0.822   1.070   3.793 -1.3875  0.7589 -2.9309
  171SAPE   C3919327   0.837   1.176   3.987  0.2682 -0.6262  0.4281
  171SAPE   H9X19328   0.740   1.138   4.023  0.0479 -1.7166 -1.1906
  171SAPE   H9Y19329   0.835   1.279   4.029 -1.4307 -0.6703  0.5033
  171SAPE  C31019330   0.957   1.099   4.057  0.1624  0.7696  0.0961
  171SAPE  H10X19331   1.059   1.137   4.037  0.4005  0.2526  0.3200
  171SAPE  H10Y19332   0.942   0.996   4.019 -1.1658  1.5343 -1.6073
  171SAPE  C31119333   0.948   1.079   4.205 -0.0690  0.2853 -0.5721
  171SAPE  H11X19334   0.843   1.052   4.226  0.2813 -0.1170  0.7631
  171SAPE  H11Y19335   0.957   1.177   4.256 -0.4326  0.1959 -0.3321
  171SAPE  C31219336   1.045   0.977   4.265 -0.1406 -0.3426  0.0601
  171SAPE  H12X19337   1.149   1.015   4.251 -0.4412  0.4789  0.0031
  171SAPE  H12Y19338   1.034   0.882   4.209  1.0883  0.8437 -2.3556
  171SAPE  C31319339   0.999   0.955   4.412 -0.0038  0.2955  0.0824
  171SAPE  H13X19340   0.888   0.954   4.407 -0.1482  3.0049  1.1139
  171SAPE  H13Y19341   1.007   1.048   4.472  0.2585  1.3738 -1.5382
  171SAPE  C31419342   1.061   0.831   4.473 -0.7094  0.3802  0.6805
  171SAPE  H14X19343   1.172   0.836   4.477 -0.4373 -2.1251 -1.3745
  171SAPE  H14Y19344   1.039   0.742   4.411 -0.3394 -0.1097  1.2530
  171SAPE  C31519345   1.005   0.813   4.615 -0.0032 -0.2275  0.5015
  171SAPE  H15X19346   1.061   0.733   4.670 -0.0767  0.1811  1.1767
  171SAPE  H15Y19347   0.895   0.798   4.619 -0.6692  3.6452 -0.0568
  171SAPE  C31619348   1.025   0.944   4.695 -0.4054 -0.4599 -0.5477
  171SAPE  H16X19349   0.972   1.033   4.655 -0.7982  0.0156  0.9651
  171SAPE  H16Y19350   1.135   0.961   4.702 -0.1770 -1.9459 -0.1434
  171SAPE  C31719351   0.981   0.914   4.837  1.0815  0.1011 -0.4785
  171SAPE  H17X19352   1.026   0.823   4.883 -0.2794  0.5254  1.9207
  171SAPE  H17Y19353   0.871   0.898   4.833  0.5622  3.0002 -0.0278
  171SAPE  C31819354   1.010   1.036   4.932 -0.1015  0.1992 -0.2725
  171SAPE  H18X19355   0.945   1.125   4.923  1.1601  1.0400 -1.3128
  171SAPE  H18Y19356   1.114   1.074   4.928  0.1592 -0.6155 -1.9810
  171SAPE  H18Z19357   0.991   0.994   5.034  0.5593 -3.6449 -1.5530
  172SAPE     N19358   1.303   3.505   2.844 -0.1644  0.5344 -0.2828
  172SAPE   HN119359   1.266   3.467   2.755  1.6046 -0.1803 -0.7470
  172SAPE   HN219360   1.309   3.434   2.920 -1.3470 -1.9001 -2.3487
  172SAPE   HN319361   1.243   3.582   2.881  0.3146  0.5326  0.5391
  172SAPE   C1219362   1.427   3.585   2.814 -0.2665  0.6482  0.0467
  172SAPE  H12A19363   1.416   3.687   2.857  2.3177  1.6059 -1.3350
  172SAPE  H12B19364   1.421   3.586   2.703  1.3993 -0.6995 -0.0891
  172SAPE   C1119365   1.568   3.526   2.853  0.1897 -0.2118  0.7260
  172SAPE  H11A19366   1.640   3.600   2.813 -0.0913  0.4009  1.3373
  172SAPE  H11B19367   1.576   3.430   2.797 -1.5607 -1.1780  1.9997
  172SAPE     P19368   1.668   3.608   3.075  0.5708  0.0572  0.3978
  172SAPE   O1319369   1.812   3.573   3.093 -0.3234  0.4627 -0.1176
  172SAPE   O1419370   1.636   3.743   3.023 -0.2428 -0.5109  0.1114
  172SAPE   O1219371   1.590   3.501   2.990 -0.0494 -0.1144 -0.2336
  172SAPE   O1119372   1.587   3.595   3.215  0.1548  0.1251  0.5350
  172SAPE    C119373   1.530   3.465   3.252 -0.7600 -0.5198 -0.5536
  172SAPE    HA19374   1.460   3.427   3.174 -1.0726 -2.7111  0.7161
  172SAPE    HB19375   1.613   3.391   3.256  0.9158  1.2714 -0.5612
  172SAPE    C219376   1.458   3.471   3.387 -0.1452  0.2474 -0.2892
  172SAPE    HS19377   1.357   3.513   3.368  0.3864  2.0916  0.7425
  172SAPE   O2119378   1.530   3.550   3.485 -0.5420  0.1968 -0.4931
  172SAPE   C2119379   1.508   3.680   3.491  0.1113 -0.2459  0.5507
  172SAPE   O2219380   1.423   3.743   3.427  0.1851  0.2611 -0.5247
  172SAPE   C2219381   1.613   3.741   3.586  0.3229 -0.3312 -0.7247
  172SAPE   H2R19382   1.624   3.679   3.677 -3.4787 -1.7844 -1.0404
  172SAPE   H2S19383   1.709   3.724   3.533 -0.1043 -1.8475 -1.0450
  172SAPE    C319384   1.426   3.325   3.440 -0.0448 -0.4675 -0.4312
  172SAPE    HX19385   1.526   3.279   3.453  0.0365  0.3271  2.2810
  172SAPE    HY19386   1.367   3.273   3.361  0.4804  0.8003 -1.7174
  172SAPE   O3119387   1.365   3.327   3.572 -0.3158 -0.4090 -0.0198
  172SAPE   C3119388   1.239   3.345   3.576 -0.2256  0.9316  0.1558
  172SAPE   O3219389   1.166   3.358   3.480  0.4077 -0.5950 -0.7106
  172SAPE   C3219390   1.193   3.348   3.725 -0.3808 -0.0181  0.3607
  172SAPE   H2X19391   1.218   3.253   3.777 -1.7448  0.3093  1.6750
  172SAPE   H2Y19392   1.084   3.365   3.726 -0.1839  2.1256 -2.3795
  172SAPE   C2319393   1.591   3.889   3.611 -0.1898 -0.4293  0.0173
  172SAPE   H3R19394   1.600   3.944   3.515  3.3714  3.6479  2.3119
  172SAPE   H3S19395   1.681   3.915   3.670  0.7940  0.2235 -1.6940
  172SAPE   C2419396   1.458   3.922   3.682 -0.5088  0.0542  1.4986
  172SAPE   H4R19397   1.423   3.841   3.749 -1.7981  1.1736  2.2278
  172SAPE   H4S19398   1.374   3.928   3.608  1.3980 -0.9898 -0.8959
  172SAPE   C2519399   1.464   4.058   3.748 -0.0044  0.3746  0.2737
  172SAPE   H5R19400   1.470   4.140   3.675 -0.1253  0.4843  0.3864
  172SAPE   C2619401   1.471   4.078   3.881  0.0191  0.1403  0.4228
  172SAPE   H6R19402   1.474   4.185   3.907 -1.8010  0.2559  0.3192
  172SAPE   C2719403   1.469   3.976   3.986  0.2868  0.3930 -0.2133
  172SAPE   H7R19404   1.497   3.873   3.955 -2.2786 -0.3297 -0.3756
  172SAPE   H7S19405   1.360   3.971   4.008  0.2750  1.8157  0.1209
  172SAPE   C2819406   1.548   4.009   4.111  0.0725  0.4343  0.1085
  172SAPE   H8R19407   1.656   4.005   4.094 -0.1067 -1.0431 -0.8507
  172SAPE   C2919408   1.500   4.040   4.231 -0.9539  0.0261 -0.0154
  172SAPE   H9R19409   1.569   4.043   4.317 -1.3473 -0.3445  0.3181
  172SAPE  C21019410   1.351   4.059   4.279 -0.3453  0.5597  0.1048
  172SAPE  H10R19411   1.279   4.054   4.195 -0.6824  1.4398  0.3296
  172SAPE  H10S19412   1.340   4.168   4.300  1.3566  1.4004 -2.7681
  172SAPE  C21119413   1.312   3.962   4.387 -0.7134 -0.3113 -0.4374
  172SAPE  H11R19414   1.271   3.867   4.351 -2.4193  0.6530 -1.1689
  172SAPE  C21219415   1.347   3.981   4.517  0.0123  0.0119 -0.2412
  172SAPE  H12R19416   1.313   3.903   4.587 -0.9591  0.2138 -0.4791
  172SAPE  C21319417   1.401   4.103   4.579 -0.1323  0.1041 -0.2743
  172SAPE  H13R19418   1.480   4.146   4.514 -0.0658 -0.9260 -0.8915
  172SAPE  H13S19419   1.453   4.067   4.670  1.6438  2.1590 -0.4024
  172SAPE  C21419420   1.299   4.210   4.612 -0.3735 -0.1721 -0.2352
  172SAPE  H14R19421   1.211   4.201   4.547 -0.5957 -2.3747  0.3011
  172SAPE  C21519422   1.314   4.319   4.686 -0.2216 -0.3432 -0.5314
  172SAPE  H15R19423   1.230   4.385   4.713  0.5933  1.1070 -1.3890
  172SAPE  C21619424   1.434   4.356   4.772 -0.3725  0.1603  0.3606
  172SAPE  H16R19425   1.481   4.451   4.739  0.9555  0.5111  2.9649
  172SAPE  H16S19426   1.508   4.275   4.754 -2.5262 -1.4571 -1.9427
  172SAPE  C21719427   1.401   4.377   4.922 -0.0253  0.4335 -0.1484
  172SAPE  H17R19428   1.338   4.468   4.935  1.4005  1.3919  0.3095
  172SAPE  H17S19429   1.487   4.412   4.983 -2.5088  1.5909  2.9394
  172SAPE  C21819430   1.324   4.262   4.997 -0.0661 -0.1792  0.3188
  172SAPE  H18R19431   1.386   4.171   4.977  0.6372  0.6193 -1.3589
  172SAPE  H18S19432   1.231   4.245   4.940  1.4825 -0.8528 -2.2039
  172SAPE  C21919433   1.285   4.282   5.146  0.3819  0.0954 -0.5375
  172SAPE  H19R19434   1.187   4.335   5.146  1.6007  2.4824  0.6782
  172SAPE  H19S19435   1.353   4.345   5.206 -0.5173  0.8030 -0.2313
  172SAPE  C22019436   1.269   4.144   5.209 -0.0559  0.7308  0.6014
  172SAPE  H20R19437   1.212   4.151   5.304  2.3149  1.2638  2.0585
  172SAPE  H20S19438   1.370   4.101   5.225 -0.2938  0.1048  0.4597
  172SAPE  H20T19439   1.218   4.074   5.138  0.3510  2.3462 -1.3847
  172SAPE   C3319440   1.270   3.462   3.798 -1.2916 -0.0203  0.0619
  172SAPE   H3X19441   1.234   3.560   3.757 -0.3389  0.9741  1.5097
  172SAPE   H3Y19442   1.378   3.451   3.778 -1.7149 -0.3855 -2.2839
  172SAPE   C3419443   1.244   3.470   3.947 -0.6838  0.6076  0.4758
  172SAPE   H4X19444   1.277   3.374   3.992 -0.8710  0.1044 -0.4192
  172SAPE   H4Y19445   1.136   3.495   3.956 -1.1898 -0.4641 -1.8671
  172SAPE   C3519446   1.331   3.572   4.021  0.2591  0.0826  0.1078
  172SAPE   H5X19447   1.301   3.670   3.979 -1.6546 -0.0206  1.1421
  172SAPE   H5Y19448   1.440   3.560   4.002  1.7284  5.5121  2.9861
  172SAPE   C3619449   1.319   3.582   4.177  0.1535  0.2576 -0.5287
  172SAPE   H6X19450   1.221   3.630   4.199  0.5046 -0.4821  3.4023
  172SAPE   H6Y19451   1.396   3.653   4.216  0.0112  0.3905 -0.4881
  172SAPE   C3719452   1.326   3.452   4.251 -0.4355  0.7698  0.4056
  172SAPE   H7X19453   1.392   3.369   4.218 -1.4775  0.2742 -0.5136
  172SAPE   H7Y19454   1.226   3.405   4.261  0.0294 -0.8553 -1.7186
  172SAPE   C3819455   1.367   3.479   4.394  0.0908  0.4072  0.0618
  172SAPE   H8X19456   1.326   3.578   4.423 -1.7881 -0.3474  0.1325
  172SAPE   H8Y19457   1.477   3.469   4.402  0.1706 -2.1601 -2.4216
  172SAPE   C3919458   1.324   3.374   4.495  0.0357 -0.7275 -0.5088
  172SAPE   H9X19459   1.369   3.277   4.465  1.6280 -0.1729 -0.0122
  172SAPE   H9Y19460   1.213   3.364   4.504 -0.2772  2.0276 -0.4872
  172SAPE  C31019461   1.383   3.408   4.637 -0.1209  0.5815 -0.6143
  172SAPE  H10X19462   1.336   3.499   4.678 -3.2100 -1.4449  0.6671
  172SAPE  H10Y19463   1.491   3.433   4.625 -0.3004  1.3443 -0.6884
  172SAPE  C31119464   1.376   3.290   4.731  0.0390  0.2530  0.2017
  172SAPE  H11X19465   1.460   3.223   4.706  0.9572  1.0575  1.0476
  172SAPE  H11Y19466   1.295   3.217   4.709  1.6074 -0.8848 -2.1904
  172SAPE  C31219467   1.377   3.337   4.873  0.2640 -0.7934 -0.0681
  172SAPE  H12X19468   1.305   3.420   4.889  1.6585  0.1788  1.6493
  172SAPE  H12Y19469   1.467   3.396   4.903 -2.1514  2.4671  1.3956
  172SAPE  C31319470   1.356   3.222   4.966 -0.6608 -0.4320 -0.0993
  172SAPE  H13X19471   1.432   3.146   4.942  0.8116  0.8938  0.2004
  172SAPE  H13Y19472   1.262   3.171   4.934 -1.1077 -0.0519  0.5759
  172SAPE  C31419473   1.341   3.275   5.112 -0.4271  0.6502 -0.5220
  172SAPE  H14X19474   1.253   3.230   5.163  0.2482 -0.7621 -0.5502
  172SAPE  H14Y19475   1.331   3.385   5.111  0.7144  0.7792 -0.1743
  172SAPE  C31519476   1.464   3.243   5.198  0.3954 -0.2845 -0.5388
  172SAPE  H15X19477   1.533   3.182   5.136 -0.1034 -0.4757 -0.9080
  172SAPE  H15Y19478   1.440   3.191   5.293 -1.7303  2.0053  0.2733
  172SAPE  C31619479   1.543   3.366   5.244  0.5221  0.0257 -0.4236
  172SAPE  H16X19480   1.480   3.440   5.298  1.2153 -0.1451  0.6468
  172SAPE  H16Y19481   1.576   3.422   5.154 -1.3366  0.8974 -0.6194
  172SAPE  C31719482   1.654   3.333   5.343  0.3932 -0.0931  1.2515
  172SAPE  H17X19483   1.730   3.414   5.343  2.3850 -1.6955 -2.4955
  172SAPE  H17Y19484   1.712   3.248   5.301 -0.2353 -2.1789  4.2687
  172SAPE  C31819485   1.610   3.302   5.483  0.3101  0.0295  0.3179
  172SAPE  H18X19486   1.587   3.396   5.538 -0.2446 -0.5275  1.0562
  172SAPE  H18Y19487   1.688   3.245   5.538 -1.0446 -1.5657  0.6447
  172SAPE  H18Z19488   1.515   3.245   5.473  0.3145  0.0744  0.0254
  173SLPC     N19489   0.988   2.690   7.381 -0.5612 -0.1829  0.0595
  173SLPC   C1319490   0.884   2.753   7.292 -0.3120 -0.1907 -0.2770
  173SLPC  H13A19491   0.788   2.704   7.294 -0.6466  0.3945  2.5209
  173SLPC  H13B19492   0.861   2.855   7.319  0.1927 -0.4210  1.1436
  173SLPC  H13C19493   0.923   2.745   7.192  1.6797 -0.4661  0.4598
  173SLPC   C1419494   0.913   2.672   7.512 -0.0687  0.0203  0.5516
  173SLPC  H14A19495   0.864   2.767   7.519  1.7133  0.9053  1.9437
  173SLPC  H14B19496   0.849   2.585   7.507  1.2682 -0.9507 -0.8708
  173SLPC  H14C19497   0.980   2.643   7.591 -0.0238  1.1709  0.9490
  173SLPC   C1519498   1.094   2.785   7.420 -0.5735 -0.2337 -0.3679
  173SLPC  H15A19499   1.046   2.875   7.456 -2.1848 -1.6363  1.1630
  173SLPC  H15B19500   1.161   2.751   7.497  1.6529  2.1469 -1.0969
  173SLPC  H15C19501   1.157   2.816   7.337 -1.1304  1.7551 -0.1041
  173SLPC   C1219502   1.036   2.566   7.314  0.0957 -0.5861 -0.0348
  173SLPC  H12A19503   1.105   2.579   7.232  0.5688  2.1058  0.7172
  173SLPC  H12B19504   0.949   2.522   7.268 -0.1768 -0.6478  0.5275
  173SLPC   C1119505   1.120   2.475   7.410 -0.0597  0.1855  0.3455
  173SLPC  H11A19506   1.116   2.375   7.363 -0.1563  1.5802 -2.8590
  173SLPC  H11B19507   1.071   2.474   7.509  0.2260 -0.5961  0.4864
  173SLPC     P19508   1.356   2.525   7.309  0.4122  0.1165  0.3688
  173SLPC   O1319509   1.401   2.670   7.296 -0.3921 -0.2628  0.0069
  173SLPC   O1419510   1.458   2.423   7.331 -0.3173 -0.0816 -0.4902
  173SLPC   O1219511   1.249   2.520   7.426  0.0039 -0.4017 -0.6353
  173SLPC   O1119512   1.275   2.486   7.180 -0.1531 -0.4401  0.6335
  173SLPC    C119513   1.255   2.360   7.131 -0.0802 -0.4379  0.1442
  173SLPC    HA19514   1.265   2.280   7.207  3.2003  1.8590  2.3562
  173SLPC    HB19515   1.150   2.346   7.096  0.7035 -0.0247 -2.6364
  173SLPC    C219516   1.353   2.323   7.011 -0.0454 -0.1124  0.5723
  173SLPC    HS19517   1.457   2.301   7.046  0.0682 -1.0424 -0.3099
  173SLPC   O2119518   1.349   2.436   6.918 -0.0294  0.6994 -0.5033
  173SLPC   C2119519   1.457   2.514   6.926  0.3741  0.3896  0.3034
  173SLPC   O2219520   1.551   2.490   6.996 -0.6953 -0.0752  0.2301
  173SLPC   C2219521   1.446   2.630   6.832  0.7334 -0.2612  0.7171
  173SLPC   H2R19522   1.364   2.695   6.867 -0.1182 -1.1907  0.4799
  173SLPC   H2S19523   1.531   2.702   6.836 -0.4508  1.2140  0.1114
  173SLPC    C319524   1.293   2.197   6.937  0.3383  0.5440 -0.1519
  173SLPC    HX19525   1.184   2.217   6.930  0.1208 -0.5997 -0.2222
  173SLPC    HY19526   1.306   2.113   7.008  0.3309 -0.5441 -1.4005
  173SLPC   O3119527   1.338   2.172   6.805 -0.2748  0.2304  0.3912
  173SLPC   C3119528   1.466   2.125   6.808  0.4715 -0.4924 -1.1302
  173SLPC   O3219529   1.535   2.111   6.907  0.1006 -0.0530 -0.6643
  173SLPC   C3219530   1.519   2.108   6.669 -0.4395  0.0758  0.2436
  173SLPC   H2X19531   1.489   2.194   6.604  1.0137  0.1207 -0.4214
  173SLPC   H2Y19532   1.477   2.014   6.628 -0.5196 -0.2855  1.1540
  173SLPC   C2319533   1.397   2.587   6.692  0.4590  0.5745  0.2000
  173SLPC   H3R19534   1.378   2.670   6.620  1.4717 -1.1769 -2.2017
  173SLPC   H3S19535   1.292   2.551   6.696  0.7259 -0.2645 -0.2289
  173SLPC   C2419536   1.497   2.486   6.632 -0.0444 -0.5988  0.1519
  173SLPC   H4R19537   1.466   2.397   6.691 -0.7738  0.5993  1.6444
  173SLPC   H4S19538   1.600   2.521   6.654  0.6733 -2.4326 -0.1233
  173SLPC   C2519539   1.469   2.454   6.487  0.0083 -0.1110 -0.5055
  173SLPC   H5R19540   1.548   2.382   6.458 -1.5008 -1.0671 -2.5038
  173SLPC   H5S19541   1.487   2.543   6.422 -0.6098  0.7777  0.4998
  173SLPC   C2619542   1.329   2.397   6.460  0.4496  0.5115 -0.6718
  173SLPC   H6R19543   1.245   2.466   6.482 -1.6886 -2.6880  2.4534
  173SLPC   H6S19544   1.304   2.324   6.541  0.9052 -0.1665 -1.1309
  173SLPC   C2719545   1.299   2.323   6.323  0.0408 -0.0833 -0.3738
  173SLPC   H7R19546   1.318   2.394   6.239  3.0610  0.0638  0.3135
  173SLPC   H7S19547   1.190   2.302   6.318  0.2868 -1.2327 -1.4596
  173SLPC   C2819548   1.382   2.196   6.308  0.1081  0.5573  0.0566
  173SLPC   H8R19549   1.369   2.145   6.406  0.7667 -1.3472 -0.8064
  173SLPC   H8S19550   1.492   2.211   6.317  0.1998 -0.2622  0.3808
  173SLPC   C2919551   1.331   2.111   6.200  0.0221  1.0869 -0.1344
  173SLPC   H9R19552   1.235   2.062   6.218  0.1993  0.9056  0.3252
  173SLPC  C21019553   1.401   2.082   6.090  0.1818  0.3308 -0.3889
  173SLPC  H10R19554   1.358   2.015   6.014  0.4094 -0.5223  0.2262
  173SLPC  C21119555   1.537   2.137   6.059  0.7662  0.1286  0.1842
  173SLPC  H11R19556   1.586   2.072   5.983  0.7490  3.3927 -2.8966
  173SLPC  H11S19557   1.602   2.140   6.149  0.0548  2.0027  0.6762
  173SLPC  C21219558   1.540   2.286   6.020 -0.2979  0.0009 -0.2425
  173SLPC  H12R19559   1.524   2.347   6.110 -0.8971 -0.6798  0.1264
  173SLPC  C21319560   1.526   2.337   5.897 -0.8303  0.1610  0.6048
  173SLPC  H13R19561   1.539   2.445   5.880  1.9883 -0.5450 -3.0990
  173SLPC  C21419562   1.532   2.256   5.775 -0.4182  0.4608  0.1725
  173SLPC  H14R19563   1.505   2.150   5.797 -0.7466  0.1587 -1.5488
  173SLPC  H14S19564   1.638   2.246   5.743 -0.5948 -1.4532  0.0440
  173SLPC  C21519565   1.438   2.308   5.665 -0.3038 -0.6636  0.3149
  173SLPC  H15R19566   1.355   2.368   5.709 -0.1021  1.7363 -2.2665
  173SLPC  H15S19567   1.392   2.214   5.625  1.0720 -0.9584 -0.6289
  173SLPC  C21619568   1.517   2.379   5.555  0.5161 -0.0883 -0.0021
  173SLPC  H16R19569   1.588   2.453   5.597  0.3487  1.1332 -1.7701
  173SLPC  H16S19570   1.442   2.437   5.498  0.4688 -1.7868 -1.7712
  173SLPC  C21719571   1.596   2.290   5.461  0.2501 -0.4995 -0.4681
  173SLPC  H17R19572   1.531   2.209   5.422 -1.1745 -0.0517  0.8584
  173SLPC  H17S19573   1.670   2.243   5.530 -1.8761 -0.2484  2.1635
  173SLPC  C21819574   1.660   2.374   5.345  0.3313  0.2820 -0.3975
  173SLPC  H18R19575   1.707   2.298   5.280 -1.3215 -2.2203  1.1327
  173SLPC  H18S19576   1.720   2.457   5.387 -0.8999  2.1497 -2.1925
  173SLPC  H18T19577   1.580   2.416   5.281  0.8973 -1.4497 -2.3461
  173SLPC   C3319578   1.680   2.107   6.659  0.1581  0.4179 -0.1772
  173SLPC   H3X19579   1.718   2.006   6.685 -0.4940 -0.4785 -2.4783
  173SLPC   H3Y19580   1.722   2.168   6.741  0.1607  0.0123  0.1259
  173SLPC   C3419581   1.724   2.160   6.522 -0.7093 -0.4526  0.0295
  173SLPC   H4X19582   1.716   2.270   6.529 -0.3149 -0.3466 -1.0355
  173SLPC   H4Y19583   1.643   2.132   6.451 -0.5880 -0.2663 -0.1834
  173SLPC   C3519584   1.867   2.107   6.483  0.6966  0.1079 -0.4512
  173SLPC   H5X19585   1.866   2.012   6.426  0.1233  0.3426 -0.8332
  173SLPC   H5Y19586   1.923   2.109   6.579 -1.1401 -0.8999  0.6760
  173SLPC   C3619587   1.934   2.210   6.391 -0.0331  0.2011 -0.1558
  173SLPC   H6X19588   2.043   2.193   6.404 -0.0980  0.1780  0.3768
  173SLPC   H6Y19589   1.920   2.317   6.418 -3.5506 -0.2271  0.1649
  173SLPC   C3719590   1.893   2.202   6.244  0.2779 -0.9261  0.7415
  173SLPC   H7X19591   1.784   2.220   6.235  0.7016  3.4792  2.1158
  173SLPC   H7Y19592   1.904   2.094   6.222  1.5029 -0.7101  0.1519
  173SLPC   C3819593   1.985   2.282   6.152 -0.0916  0.2757  0.2162
  173SLPC   H8X19594   2.087   2.238   6.154  0.0796  0.6683  0.3144
  173SLPC   H8Y19595   1.977   2.389   6.181 -0.9916  0.0851  0.7071
  173SLPC   C3919596   1.929   2.267   6.008 -0.8550 -0.2972  0.2085
  173SLPC   H9X19597   1.823   2.302   6.014 -0.3511  1.3686 -0.1523
  173SLPC   H9Y19598   1.945   2.158   5.996 -0.8763 -0.2237 -0.5229
  173SLPC  C31019599   1.997   2.360   5.903 -0.3581 -0.6488 -0.5226
  173SLPC  H10X19600   2.100   2.374   5.943  0.0875  1.8552 -2.3023
  173SLPC  H10Y19601   1.945   2.458   5.896  2.6939  1.0244 -1.8899
  173SLPC  C31119602   1.991   2.305   5.760 -0.2970 -1.0341 -0.1948
  173SLPC  H11X19603   1.887   2.270   5.740 -0.1631 -1.1444 -0.6916
  173SLPC  H11Y19604   2.059   2.220   5.739  1.3044  0.1423 -0.0056
  173SLPC  C31219605   2.016   2.416   5.656 -0.1560  0.6983 -0.0005
  173SLPC  H12X19606   2.124   2.443   5.663 -0.0163  0.1023  0.1807
  173SLPC  H12Y19607   1.944   2.499   5.673 -0.3096  0.6313 -0.3082
  173SLPC  C31319608   2.000   2.366   5.519  0.1707  0.1800 -0.0041
  173SLPC  H13X19609   1.896   2.343   5.487  1.0043 -1.9824 -1.2882
  173SLPC  H13Y19610   2.041   2.263   5.511 -0.5712 -0.1680  0.5170
  173SLPC  C31419611   2.058   2.456   5.415  0.0775  0.3032  0.2412
  173SLPC  H14X19612   2.154   2.507   5.441  0.2090  0.5143 -0.6147
  173SLPC  H14Y19613   1.969   2.520   5.403 -1.0643 -0.8133  2.1400
  173SLPC  C31519614   2.063   2.392   5.274  0.1293  0.4939 -0.1903
  173SLPC  H15X19615   2.113   2.466   5.207 -0.8349 -0.2974 -1.8504
  173SLPC  H15Y19616   1.963   2.373   5.229  0.5088  1.1849 -1.3694
  173SLPC  C31619617   2.144   2.257   5.253  0.2872 -0.0116  0.0602
  173SLPC  H16X19618   2.117   2.203   5.159  0.1535  1.6672 -0.9098
  173SLPC  H16Y19619   2.088   2.189   5.321  1.9376  0.8403  2.3599
  173SLPC  C31719620   2.293   2.280   5.274 -0.2065 -0.1024 -0.3590
  173SLPC  H17X19621   2.316   2.320   5.374  0.0130  1.7443 -1.1164
  173SLPC  H17Y19622   2.324   2.361   5.204 -0.7797  0.7705  0.3839
  173SLPC  C31819623   2.376   2.155   5.238 -0.5321 -0.4819  0.2700
  173SLPC  H18X19624   2.469   2.145   5.297  0.6986  1.9530 -1.1084
  173SLPC  H18Y19625   2.406   2.160   5.131 -0.5921 -0.3316  0.2601
  173SLPC  H18Z19626   2.317   2.061   5.239 -0.0283 -0.8542 -1.3936
  174SLPC     N19627   5.718   3.813   7.519  0.1636  0.0509  0.2516
  174SLPC   C1319628   5.743   3.893   7.396  0.3664  0.0866 -0.0971
  174SLPC  H13A19629   5.665   3.868   7.325 -0.2336  0.3508  0.4546
  174SLPC  H13B19630   5.734   3.997   7.422  0.7557 -0.1756  1.1841
  174SLPC  H13C19631   5.842   3.876   7.358  0.3644  0.5181 -0.3017
  174SLPC   C1419632   5.838   3.818   7.602 -1.0358  0.2735  0.0222
  174SLPC  H14A19633   5.906   3.740   7.572 -0.5218  0.0099  1.7593
  174SLPC  H14B19634   5.879   3.917   7.607  1.8789 -0.8950  1.9312
  174SLPC  H14C19635   5.826   3.789   7.706  0.7267 -1.4189 -0.1813
  174SLPC   C1519636   5.697   3.670   7.469  0.0583  0.6987 -0.1139
  174SLPC  H15A19637   5.717   3.599   7.548  1.7160  0.1410 -0.9743
  174SLPC  H15B19638   5.593   3.659   7.443  0.3317  0.3442 -1.1098
  174SLPC  H15C19639   5.758   3.646   7.383 -0.2850 -1.7472  0.2394
  174SLPC   C1219640   5.595   3.860   7.587  0.2837 -0.2073 -0.6149
  174SLPC  H12A19641   5.602   3.962   7.623 -1.9114  0.9932 -3.2535
  174SLPC  H12B19642   5.583   3.802   7.677 -1.0115  0.6619 -0.1929
  174SLPC   C1119643   5.450   3.865   7.515 -0.4781  0.1678 -0.0202
  174SLPC  H11A19644   5.456   3.936   7.430  0.0205 -1.3285 -1.2839
  174SLPC  H11B19645   5.379   3.904   7.591 -2.0607 -1.5347 -0.5460
  174SLPC     P19646   5.339   3.709   7.330  0.0160 -0.1698 -0.0097
  174SLPC   O1319647   5.228   3.807   7.313  0.2669  0.3973 -0.5416
  174SLPC   O1419648   5.452   3.711   7.234 -0.6386 -0.3330  0.2129
  174SLPC   O1219649   5.405   3.736   7.475  0.6763  0.4011  0.3332
  174SLPC   O1119650   5.284   3.563   7.355 -0.5226  0.0101  0.3837
  174SLPC    C119651   5.363   3.453   7.315 -0.4715  0.4062  0.2096
  174SLPC    HA19652   5.470   3.474   7.298  0.0352 -2.4143 -0.6387
  174SLPC    HB19653   5.347   3.396   7.409 -1.2373  1.2265  0.5906
  174SLPC    C219654   5.292   3.390   7.185 -0.9411  0.0550 -0.3720
  174SLPC    HS19655   5.329   3.287   7.167  0.2191  0.7925 -2.5497
  174SLPC   O2119656   5.315   3.475   7.079  0.0545  0.2736 -0.1591
  174SLPC   C2119657   5.434   3.452   7.021 -0.0936 -0.1180 -0.3039
  174SLPC   O2219658   5.527   3.396   7.072 -0.2372 -0.7144  0.0137
  174SLPC   C2219659   5.450   3.513   6.886  0.1497 -0.0491  0.0685
  174SLPC   H2R19660   5.367   3.472   6.825  0.3893  0.6910 -0.7559
  174SLPC   H2S19661   5.439   3.622   6.904  0.4867 -0.1102  0.6657
  174SLPC    C319662   5.131   3.383   7.214  0.2857  0.2734 -0.0677
  174SLPC    HX19663   5.090   3.486   7.209 -1.1741 -0.3354 -1.5626
  174SLPC    HY19664   5.121   3.355   7.321  1.3646  1.2306  0.3050
  174SLPC   O3119665   5.062   3.292   7.122  0.3259 -0.7474 -0.4899
  174SLPC   C3119666   5.003   3.348   7.022 -0.1678  0.2081  0.2856
  174SLPC   O3219667   4.973   3.469   7.011 -0.4891  0.1695  0.1993
  174SLPC   C3219668   4.980   3.243   6.913 -0.2561  0.0483  0.4577
  174SLPC   H2X19669   4.892   3.181   6.940 -0.7932  1.4539  2.1557
  174SLPC   H2Y19670   5.074   3.184   6.904 -1.7644 -2.2005 -2.5584
  174SLPC   C2319671   5.588   3.490   6.817 -0.5606 -0.2224 -0.2989
  174SLPC   H3R19672   5.607   3.387   6.781  0.8464 -0.2451  0.4438
  174SLPC   H3S19673   5.668   3.518   6.888 -0.2857 -0.4561 -0.5132
  174SLPC   C2419674   5.611   3.588   6.700 -0.2196  0.4450 -0.9679
  174SLPC   H4R19675   5.711   3.563   6.657  0.3306  0.4161  0.3080
  174SLPC   H4S19676   5.627   3.688   6.745  1.8182 -0.5382  0.6395
  174SLPC   C2519677   5.492   3.597   6.607  0.0644 -0.5814  0.1582
  174SLPC   H5R19678   5.404   3.641   6.659  2.1020  2.2782  1.4092
  174SLPC   H5S19679   5.464   3.492   6.584 -2.1310 -0.0869  0.3788
  174SLPC   C2619680   5.511   3.661   6.468  0.0719 -0.3203  1.0339
  174SLPC   H6R19681   5.604   3.624   6.419  1.4518  1.3102  2.3302
  174SLPC   H6S19682   5.514   3.771   6.479 -0.4328  0.0009 -1.3448
  174SLPC   C2719683   5.407   3.626   6.372  0.9637 -0.0335  0.1705
  174SLPC   H7R19684   5.317   3.683   6.405  0.0974 -2.4029  2.2524
  174SLPC   H7S19685   5.385   3.518   6.358 -0.4038  0.2690 -0.1530
  174SLPC   C2819686   5.452   3.661   6.226  0.0523 -0.4165  0.2831
  174SLPC   H8R19687   5.538   3.605   6.183  0.5666  0.7863 -0.3136
  174SLPC   H8S19688   5.492   3.765   6.225  0.8247 -0.6958 -1.1448
  174SLPC   C2919689   5.332   3.652   6.136 -0.6326  0.9459 -0.6698
  174SLPC   H9R19690   5.234   3.628   6.178  0.1181  1.2694  1.3665
  174SLPC  C21019691   5.336   3.678   6.006 -0.0479  0.2131  0.5041
  174SLPC  H10R19692   5.242   3.671   5.950  0.3785 -0.5245 -0.1436
  174SLPC  C21119693   5.460   3.721   5.933 -0.1345 -0.0647  0.6743
  174SLPC  H11R19694   5.551   3.736   5.995  1.0105  0.9497 -1.1909
  174SLPC  H11S19695   5.439   3.822   5.893  0.1823  0.3751  1.5788
  174SLPC  C21219696   5.500   3.625   5.824  0.6109  0.0191 -0.3164
  174SLPC  H12R19697   5.567   3.545   5.859 -0.7408 -0.2908  1.7303
  174SLPC  C21319698   5.461   3.629   5.692  0.5862 -0.3715  0.0228
  174SLPC  H13R19699   5.509   3.557   5.624  1.2752 -1.6144  1.7510
  174SLPC  C21419700   5.384   3.733   5.613  0.6319 -0.8278 -0.5709
  174SLPC  H14R19701   5.357   3.813   5.685 -2.6929 -2.3013 -0.0155
  174SLPC  H14S19702   5.283   3.690   5.599 -0.6981  1.4922  1.1444
  174SLPC  C21519703   5.438   3.801   5.483  0.1764  0.8244  0.0883
  174SLPC  H15R19704   5.535   3.850   5.504 -0.2991  1.2305  1.4557
  174SLPC  H15S19705   5.357   3.874   5.459 -0.5827 -0.4089 -1.2743
  174SLPC  C21619706   5.465   3.696   5.375  0.0120 -0.1227 -0.2664
  174SLPC  H16R19707   5.380   3.625   5.366 -0.0276 -0.0860 -0.1852
  174SLPC  H16S19708   5.549   3.634   5.413 -0.9245 -0.3469  1.5570
  174SLPC  C21719709   5.493   3.752   5.233 -0.4337  0.3463  0.6055
  174SLPC  H17R19710   5.536   3.669   5.175 -0.4816  1.3313 -0.8839
  174SLPC  H17S19711   5.570   3.832   5.228  0.7257 -0.4047  3.9374
  174SLPC  C21819712   5.368   3.794   5.160 -0.1976 -0.0726  0.1947
  174SLPC  H18R19713   5.319   3.879   5.213  0.2758  0.7726 -0.6879
  174SLPC  H18S19714   5.290   3.715   5.152  2.7464 -3.0175 -4.2105
  174SLPC  H18T19715   5.395   3.830   5.058 -0.3785  1.1233  0.5552
  174SLPC   C3319716   4.948   3.315   6.771  0.3630  0.4302  0.4586
  174SLPC   H3X19717   4.855   3.373   6.791  0.3420  0.3468  0.6064
  174SLPC   H3Y19718   4.922   3.234   6.700 -0.1828 -1.3758  2.5921
  174SLPC   C3419719   5.059   3.400   6.705 -0.1346  0.1882  0.2860
  174SLPC   H4X19720   5.149   3.339   6.682 -2.0087 -2.5139 -0.3306
  174SLPC   H4Y19721   5.092   3.476   6.779  0.5746 -0.7292  0.9317
  174SLPC   C3519722   5.002   3.458   6.575 -0.0636 -0.0384  0.0169
  174SLPC   H5X19723   5.083   3.527   6.540  1.3735 -0.6026  2.0532
  174SLPC   H5Y19724   4.918   3.529   6.592  0.6889  0.8701  0.0323
  174SLPC   C3619725   4.987   3.354   6.464  0.0138 -0.1249  0.3159
  174SLPC   H6X19726   4.880   3.323   6.464 -0.3098  0.9026 -0.8217
  174SLPC   H6Y19727   5.046   3.261   6.482  0.7892  0.6708  2.0877
  174SLPC   C3719728   5.035   3.401   6.322 -0.9859 -0.2714  0.2503
  174SLPC   H7X19729   5.143   3.423   6.332 -0.6534 -1.9306  0.4897
  174SLPC   H7Y19730   4.984   3.494   6.288  0.9534  1.4672  1.8663
  174SLPC   C3819731   5.027   3.280   6.230  0.3500 -0.1736 -0.3138
  174SLPC   H8X19732   4.925   3.237   6.232  0.5885 -0.7093  1.3840
  174SLPC   H8Y19733   5.096   3.196   6.252 -0.3038 -0.8453 -0.7734
  174SLPC   C3919734   5.072   3.312   6.087  0.7447  0.0065 -0.6015
  174SLPC   H9X19735   5.121   3.225   6.038  0.7546  0.6097 -1.7010
  174SLPC   H9Y19736   5.145   3.396   6.084  0.1372  0.5918  0.5073
  174SLPC  C31019737   4.955   3.371   6.001 -0.2226  0.1104 -0.0197
  174SLPC  H10X19738   4.915   3.456   6.059 -1.5718 -1.4719  1.4818
  174SLPC  H10Y19739   4.873   3.296   5.998 -0.0545 -0.0923  0.4341
  174SLPC  C31119740   4.983   3.409   5.858 -0.0089  0.5190  0.3868
  174SLPC  H11X19741   5.062   3.486   5.847 -0.7440  1.1013 -1.1307
  174SLPC  H11Y19742   4.896   3.465   5.818 -0.8541 -1.4179 -0.6477
  174SLPC  C31219743   5.012   3.286   5.767 -0.0679  0.6895  0.2977
  174SLPC  H12X19744   4.932   3.209   5.765  0.2572  0.3565 -0.9448
  174SLPC  H12Y19745   5.100   3.238   5.813 -1.2286 -0.2574  1.6195
  174SLPC  C31319746   5.057   3.321   5.619  0.5989  0.6215  0.3090
  174SLPC  H13X19747   5.114   3.235   5.578 -1.7758 -1.4873  1.1770
  174SLPC  H13Y19748   5.113   3.417   5.629 -1.4430  1.8905  0.0393
  174SLPC  C31419749   4.936   3.356   5.519 -0.6814 -0.6251 -0.4967
  174SLPC  H14X19750   4.905   3.457   5.554  0.7823 -0.3865  0.1941
  174SLPC  H14Y19751   4.848   3.288   5.523 -0.4335 -0.9861 -1.1018
  174SLPC  C31519752   4.981   3.385   5.373  0.7269  0.9773 -0.0822
  174SLPC  H15X19753   5.065   3.457   5.383  1.3951  0.1381  0.3781
  174SLPC  H15Y19754   4.885   3.420   5.329  0.8099  1.0417 -0.2125
  174SLPC  C31619755   5.034   3.268   5.293  0.7388  0.5232  0.7514
  174SLPC  H16X19756   4.972   3.182   5.325 -0.8887  0.6319 -1.8122
  174SLPC  H16Y19757   5.131   3.233   5.335  2.1034  1.2399 -1.5880
  174SLPC  C31719758   5.046   3.273   5.140 -0.0341 -0.1292 -0.2987
  174SLPC  H17X19759   4.947   3.306   5.102 -0.5585 -0.7169  0.5340
  174SLPC  H17Y19760   5.071   3.175   5.095 -1.8134  0.4366 -2.7711
  174SLPC  C31819761   5.144   3.377   5.089 -0.0946 -0.6083 -0.9466
  174SLPC  H18X19762   5.248   3.353   5.120  0.1398  0.5215 -0.8341
  174SLPC  H18Y19763   5.124   3.474   5.139  1.2289  0.0978 -1.7488
  174SLPC  H18Z19764   5.136   3.391   4.979  3.7796 -1.0034 -1.4075
  175SLPC     N19765   2.319   5.496   7.184  0.1301  0.8055 -0.8491
  175SLPC   C1319766   2.189   5.426   7.154 -0.4104 -0.5599 -0.4958
  175SLPC  H13A19767   2.111   5.502   7.157 -1.3880 -1.5167  2.6150
  175SLPC  H13B19768   2.190   5.389   7.053 -1.3050  0.4018 -0.8756
  175SLPC  H13C19769   2.165   5.348   7.225 -1.5645  0.0683 -0.1561
  175SLPC   C1419770   2.415   5.383   7.235  0.0129 -0.1473  0.1943
  175SLPC  H14A19771   2.503   5.425   7.282  0.2873  1.6635 -1.7929
  175SLPC  H14B19772   2.358   5.331   7.311 -0.6161  0.0447 -0.1372
  175SLPC  H14C19773   2.436   5.320   7.150  1.7755  0.7574 -0.0906
  175SLPC   C1519774   2.292   5.590   7.296  0.1330 -0.8171 -0.4078
  175SLPC  H15A19775   2.237   5.549   7.380 -0.6204  1.0686  0.0906
  175SLPC  H15B19776   2.386   5.632   7.329 -0.9051 -0.4565  2.3516
  175SLPC  H15C19777   2.231   5.674   7.264 -0.1246 -0.9296 -0.2159
  175SLPC   C1219778   2.367   5.563   7.058 -0.2076  0.4763 -0.2918
  175SLPC  H12A19779   2.368   5.488   6.980  0.1201  0.3158 -0.1382
  175SLPC  H12B19780   2.468   5.595   7.079 -0.1646  0.8171 -1.0060
  175SLPC   C1119781   2.274   5.680   7.018  0.0021 -0.4346 -0.1750
  175SLPC  H11A19782   2.172   5.641   6.999  0.6969 -2.2698 -0.3460
  175SLPC  H11B19783   2.314   5.696   6.915 -0.9595  1.9152 -0.2466
  175SLPC     P19784   2.389   5.903   7.104 -0.1644 -0.2427  0.3588
  175SLPC   O1319785   2.341   6.029   7.153 -0.6708 -0.2287  0.2858
  175SLPC   O1419786   2.506   5.840   7.178 -0.0512  0.5113 -0.3061
  175SLPC   O1219787   2.268   5.801   7.098 -0.0004  0.2992  0.4694
  175SLPC   O1119788   2.426   5.927   6.952  0.5919  0.4480 -0.0053
  175SLPC    C119789   2.381   6.034   6.867 -0.1051 -0.5112  0.5798
  175SLPC    HA19790   2.351   6.123   6.927  3.1590  0.7373  0.5667
  175SLPC    HB19791   2.459   6.066   6.794  0.4124  0.9080  1.6917
  175SLPC    C219792   2.257   6.001   6.782  0.1776  0.1344 -0.0732
  175SLPC    HS19793   2.174   5.960   6.843 -1.1392  0.4696 -1.5819
  175SLPC   O2119794   2.302   5.899   6.697  0.0066 -0.6750 -0.3468
  175SLPC   C2119795   2.217   5.812   6.661 -0.1377  0.1528  1.1531
  175SLPC   O2219796   2.102   5.801   6.708  0.2257  0.2244 -0.6390
  175SLPC   C2219797   2.282   5.707   6.566  0.5296 -0.4489 -0.1753
  175SLPC   H2R19798   2.380   5.744   6.530 -0.0002  0.7678 -0.4232
  175SLPC   H2S19799   2.300   5.619   6.631 -0.2734  1.5999  3.0222
  175SLPC    C319800   2.198   6.123   6.697  0.4413 -0.0034  0.2024
  175SLPC    HX19801   2.278   6.159   6.629 -0.0275  1.9458  0.6240
  175SLPC    HY19802   2.168   6.211   6.757 -0.9723  0.4180 -1.0438
  175SLPC   O3119803   2.083   6.080   6.616 -0.1958  0.1056 -0.2451
  175SLPC   C3119804   1.961   6.081   6.668 -0.5800  1.2465 -0.6575
  175SLPC   O3219805   1.935   6.133   6.774 -0.4080 -0.5257  0.2639
  175SLPC   C3219806   1.861   5.992   6.588  0.8925 -0.2834  0.7461
  175SLPC   H2X19807   1.777   5.975   6.658  2.8125  0.8763  3.5257
  175SLPC   H2Y19808   1.911   5.903   6.545 -1.3199 -0.9330 -0.6716
  175SLPC   C2319809   2.178   5.680   6.457  0.3415  0.7061 -0.2077
  175SLPC   H3R19810   2.074   5.674   6.497  0.2944  0.0678 -0.4118
  175SLPC   H3S19811   2.203   5.600   6.384  1.0161  1.8497 -1.2702
  175SLPC   C2419812   2.162   5.799   6.358 -0.2556  1.0392 -0.0036
  175SLPC   H4R19813   2.257   5.805   6.301 -0.2952 -1.8396 -0.4943
  175SLPC   H4S19814   2.151   5.891   6.420  1.1555  1.6506 -0.6231
  175SLPC   C2519815   2.036   5.778   6.274  0.0395  0.5280  0.0451
  175SLPC   H5R19816   1.968   5.776   6.362 -0.5996 -3.1823 -0.3622
  175SLPC   H5S19817   2.029   5.682   6.219  1.1495  1.2469 -1.4221
  175SLPC   C2619818   2.028   5.893   6.176  0.0830  0.1298  0.6584
  175SLPC   H6R19819   2.094   5.865   6.091 -0.1506 -0.0370  0.5280
  175SLPC   H6S19820   2.068   5.983   6.226  0.8244 -0.4722  1.1651
  175SLPC   C2719821   1.886   5.933   6.113  0.0087 -0.1004 -0.3178
  175SLPC   H7R19822   1.798   5.915   6.178 -0.6900  0.7170 -1.0112
  175SLPC   H7S19823   1.865   5.868   6.025 -2.7573 -0.0099  0.1699
  175SLPC   C2819824   1.897   6.075   6.061  0.1069 -0.1943 -0.4999
  175SLPC   H8R19825   1.982   6.077   5.990 -1.1792 -1.2695 -2.1466
  175SLPC   H8S19826   1.921   6.149   6.140 -0.3528  0.8983 -1.3508
  175SLPC   C2919827   1.763   6.118   6.000 -0.1513 -0.5510 -0.1532
  175SLPC   H9R19828   1.705   6.171   6.078  0.9903  1.8446 -0.8320
  175SLPC  C21019829   1.702   6.076   5.884  0.8335  1.1668  0.1440
  175SLPC  H10R19830   1.595   6.088   5.866  0.3504 -3.3000 -0.9728
  175SLPC  C21119831   1.768   5.986   5.782  0.5175 -0.6870  0.1861
  175SLPC  H11R19832   1.708   5.892   5.784  0.1959 -0.4775  1.0506
  175SLPC  H11S19833   1.870   5.950   5.806  1.1049  0.5868 -0.2917
  175SLPC  C21219834   1.785   6.030   5.636 -0.0529 -0.3996  0.9964
  175SLPC  H12R19835   1.782   6.139   5.630 -0.1384 -0.3918  1.1763
  175SLPC  C21319836   1.821   5.959   5.526  0.2119 -0.4132 -0.4510
  175SLPC  H13R19837   1.818   6.005   5.426 -0.0528 -3.0784 -1.7596
  175SLPC  C21419838   1.842   5.809   5.528  0.0953 -0.2804  0.0614
  175SLPC  H14R19839   1.759   5.763   5.470 -0.3361 -0.2166  0.6156
  175SLPC  H14S19840   1.838   5.764   5.630 -1.6816  0.8385  0.5495
  175SLPC  C21519841   1.969   5.785   5.461 -0.0755  0.2007  0.9817
  175SLPC  H15R19842   2.052   5.820   5.525  0.3222  0.5136  0.3061
  175SLPC  H15S19843   1.971   5.829   5.359 -1.8143 -0.5853  0.5681
  175SLPC  C21619844   1.989   5.635   5.437 -0.4107 -0.3916 -0.6930
  175SLPC  H16R19845   1.896   5.594   5.392 -0.6989 -0.7697  0.2229
  175SLPC  H16S19846   1.999   5.586   5.536  1.1029 -0.9994 -1.1143
  175SLPC  C21719847   2.121   5.605   5.362  0.6873  0.7370 -0.2548
  175SLPC  H17R19848   2.205   5.635   5.428  0.3892 -0.6573  0.7948
  175SLPC  H17S19849   2.127   5.664   5.268  0.3665  0.2059 -0.6143
  175SLPC  C21819850   2.130   5.458   5.327  0.6663 -0.1086 -0.0220
  175SLPC  H18R19851   2.037   5.441   5.268 -0.4180 -0.0735  1.6199
  175SLPC  H18S19852   2.141   5.382   5.407  1.7579  1.1997  1.1465
  175SLPC  H18T19853   2.222   5.443   5.267 -0.6195 -0.6376 -1.9653
  175SLPC   C3319854   1.796   6.061   6.464 -0.0005 -0.0824 -0.7846
  175SLPC   H3X19855   1.756   5.967   6.420  0.5530 -0.8599  0.3354
  175SLPC   H3Y19856   1.858   6.118   6.392 -0.4639  0.2697 -0.9085
  175SLPC   C3419857   1.664   6.137   6.500  0.8520 -0.3809 -0.6180
  175SLPC   H4X19858   1.689   6.207   6.583 -0.9878  1.9781 -1.9283
  175SLPC   H4Y19859   1.584   6.071   6.540 -0.6384  1.2966 -0.6971
  175SLPC   C3519860   1.604   6.215   6.388  0.2858  0.2553 -0.0583
  175SLPC   H5X19861   1.618   6.148   6.300  2.2724 -1.4288  1.4482
  175SLPC   H5Y19862   1.658   6.309   6.367  0.0476  0.1224 -1.3688
  175SLPC   C3619863   1.454   6.246   6.408  0.4397  0.0896  0.7351
  175SLPC   H6X19864   1.441   6.343   6.459  1.9721  0.5202  0.3446
  175SLPC   H6Y19865   1.403   6.170   6.471 -0.0434 -0.1093  0.1158
  175SLPC   C3719866   1.366   6.257   6.283  0.5208  0.1034  0.5236
  175SLPC   H7X19867   1.272   6.200   6.302  0.0882  0.5134 -0.3296
  175SLPC   H7Y19868   1.425   6.205   6.204  0.4718 -0.7739  1.0510
  175SLPC   C3819869   1.333   6.400   6.239 -0.9346  0.1811  0.2132
  175SLPC   H8X19870   1.432   6.431   6.201  0.2321  0.1523  2.9462
  175SLPC   H8Y19871   1.300   6.468   6.320  1.0961  3.4932 -1.5465
  175SLPC   C3919872   1.219   6.399   6.139  0.2313  0.0496 -0.1893
  175SLPC   H9X19873   1.186   6.504   6.124  0.8417  0.1017 -1.3261
  175SLPC   H9Y19874   1.132   6.335   6.165 -0.3213 -0.5570 -3.1454
  175SLPC  C31019875   1.266   6.336   6.007 -0.3353 -0.5793  1.5304
  175SLPC  H10X19876   1.325   6.245   6.029  3.5707  1.3194 -0.2601
  175SLPC  H10Y19877   1.335   6.410   5.963  0.6048 -1.0074  2.2665
  175SLPC  C31119878   1.136   6.314   5.920 -0.7469  0.0697  0.0781
  175SLPC  H11X19879   1.076   6.408   5.917 -0.3378  0.5483  3.2870
  175SLPC  H11Y19880   1.066   6.247   5.976  0.9261 -1.1967  0.7184
  175SLPC  C31219881   1.154   6.262   5.783  0.5178  0.0823  0.1478
  175SLPC  H12X19882   1.186   6.156   5.772  1.1485  0.3761 -0.9972
  175SLPC  H12Y19883   1.240   6.313   5.735  2.8507 -1.5647  2.3740
  175SLPC  C31319884   1.028   6.282   5.699  0.2998 -0.1231  0.2126
  175SLPC  H13X19885   0.975   6.380   5.699 -2.9545 -1.6690  2.9729
  175SLPC  H13Y19886   0.951   6.206   5.727  1.3700 -1.5943 -0.7049
  175SLPC  C31419887   1.062   6.260   5.560 -0.2589  0.5930  0.0385
  175SLPC  H14X19888   1.114   6.163   5.545 -0.0877 -0.0073  3.7763
  175SLPC  H14Y19889   1.141   6.331   5.529  0.9427 -0.1847  1.2589
  175SLPC  C31519890   0.940   6.285   5.470 -0.3221  0.2570 -0.1588
  175SLPC  H15X19891   0.907   6.390   5.463  1.4734  0.7918 -1.4503
  175SLPC  H15Y19892   0.849   6.235   5.509  1.1952  0.8224  4.8891
  175SLPC  C31619893   0.971   6.228   5.329  0.0821  0.0297 -0.5656
  175SLPC  H16X19894   0.966   6.117   5.334  0.6495 -0.0035 -0.6769
  175SLPC  H16Y19895   1.060   6.261   5.271 -0.4057  0.0328 -1.3288
  175SLPC  C31719896   0.869   6.303   5.239  0.5432 -0.7119 -0.4505
  175SLPC  H17X19897   0.889   6.280   5.131 -2.6860  1.6085 -1.6781
  175SLPC  H17Y19898   0.883   6.412   5.252 -4.6138  0.4751 -2.6825
  175SLPC  C31819899   0.720   6.268   5.271  0.0016 -0.2714  0.5778
  175SLPC  H18X19900   0.661   6.322   5.194 -0.9911 -1.4039  0.5227
  175SLPC  H18Y19901   0.704   6.309   5.373  3.8895  0.8682  0.8790
  175SLPC  H18Z19902   0.702   6.159   5.260  2.7862 -1.2312  3.7982
  176SLPC     N19903   3.205   4.145   7.367 -0.3715 -0.4208 -0.7030
  176SLPC   C1319904   3.170   4.022   7.295 -0.2178  0.5033 -0.3536
  176SLPC  H13A19905   3.067   4.033   7.262 -0.6609 -1.8155  0.0632
  176SLPC  H13B19906   3.232   3.985   7.215  1.0499 -1.0794  1.2901
  176SLPC  H13C19907   3.163   3.944   7.370 -0.2512  1.2201  0.4002
  176SLPC   C1419908   3.348   4.142   7.411  0.2750 -0.0961  0.1374
  176SLPC  H14A19909   3.379   4.222   7.477 -0.6489  0.4978 -0.1266
  176SLPC  H14B19910   3.357   4.051   7.468  0.3899  1.2020  2.3032
  176SLPC  H14C19911   3.410   4.146   7.323 -1.0329 -0.6513 -0.8421
  176SLPC   C1519912   3.124   4.148   7.485  0.1729 -0.0989 -0.3732
  176SLPC  H15A19913   3.019   4.133   7.464 -0.0838  0.9358  0.1252
  176SLPC  H15B19914   3.163   4.079   7.559  0.5349  0.1380 -0.3394
  176SLPC  H15C19915   3.125   4.247   7.528  2.7102 -0.0557 -0.3391
  176SLPC   C1219916   3.184   4.269   7.272 -0.3030 -0.0269 -0.6274
  176SLPC  H12A19917   3.090   4.249   7.223  0.2755 -2.5943 -0.7823
  176SLPC  H12B19918   3.260   4.266   7.196 -0.5506 -0.6250 -0.8572
  176SLPC   C1119919   3.175   4.406   7.345  0.6157 -0.2369 -0.4381
  176SLPC  H11A19920   3.185   4.483   7.265  0.2419  1.3927  1.0394
  176SLPC  H11B19921   3.261   4.415   7.414 -0.6132 -0.4242  1.1556
  176SLPC     P19922   2.935   4.519   7.358  0.6378 -0.2538  0.2259
  176SLPC   O1319923   2.812   4.509   7.441 -0.5053  0.2061 -0.0577
  176SLPC   O1419924   2.990   4.657   7.322 -0.2586  0.7318  0.2404
  176SLPC   O1219925   3.052   4.426   7.419  0.6946  0.9245  0.1411
  176SLPC   O1119926   2.908   4.435   7.221  0.4746  0.3309 -0.4025
  176SLPC    C119927   2.884   4.510   7.107 -0.4899 -0.0628 -0.3382
  176SLPC    HA19928   2.954   4.594   7.088 -1.5295  0.6490 -1.1694
  176SLPC    HB19929   2.882   4.444   7.018 -2.1994 -1.4679  0.6767
  176SLPC    C219930   2.748   4.580   7.102  1.2764 -0.1659 -0.3164
  176SLPC    HS19931   2.749   4.644   7.193  2.1837  3.1057 -2.4196
  176SLPC   O2119932   2.634   4.490   7.112  0.0838 -0.0566  0.0627
  176SLPC   C2119933   2.519   4.542   7.142 -0.0037 -0.4218 -0.5444
  176SLPC   O2219934   2.494   4.654   7.183  0.5736  0.4186 -0.1503
  176SLPC   C2219935   2.411   4.435   7.143  0.3267  0.3557  0.1571
  176SLPC   H2R19936   2.455   4.333   7.143  2.4672  1.2417  0.3766
  176SLPC   H2S19937   2.352   4.449   7.237 -0.4343  0.4232 -0.3219
  176SLPC    C319938   2.730   4.690   6.993 -0.1437  0.0900 -0.7889
  176SLPC    HX19939   2.799   4.774   7.016 -0.1021 -0.8271  3.3218
  176SLPC    HY19940   2.632   4.737   7.017  0.1409  0.1854  0.2391
  176SLPC   O3119941   2.716   4.627   6.860  0.1951  0.1032 -0.1993
  176SLPC   C3119942   2.813   4.648   6.779  0.2416  0.0616 -1.0668
  176SLPC   O3219943   2.895   4.738   6.798 -0.3119 -0.7087  0.4439
  176SLPC   C3219944   2.798   4.562   6.656  0.6413 -0.0951  0.2033
  176SLPC   H2X19945   2.699   4.578   6.608  1.1950  1.0730 -0.5786
  176SLPC   H2Y19946   2.782   4.460   6.699 -1.2237 -0.0998 -0.4090
  176SLPC   C2319947   2.301   4.458   7.030  0.2344  0.1355 -0.4873
  176SLPC   H3R19948   2.249   4.556   7.042 -1.5125 -0.7643 -0.4313
  176SLPC   H3S19949   2.224   4.378   7.040 -0.2113  0.7618  1.4997
  176SLPC   C2419950   2.371   4.434   6.891  0.2902  0.7410 -0.4851
  176SLPC   H4R19951   2.400   4.328   6.883 -0.2949  0.6990 -2.7559
  176SLPC   H4S19952   2.460   4.500   6.893 -0.2413  1.5153  2.0639
  176SLPC   C2519953   2.295   4.479   6.764  0.2309  0.0393 -0.0230
  176SLPC   H5R19954   2.240   4.576   6.771 -0.6594 -0.4946  0.6134
  176SLPC   H5S19955   2.212   4.405   6.756 -2.1515  2.6529 -2.0416
  176SLPC   C2619956   2.378   4.469   6.646  0.6774 -1.1043  0.6758
  176SLPC   H6R19957   2.425   4.369   6.635  1.4167 -0.8085  1.0534
  176SLPC   H6S19958   2.457   4.545   6.665 -0.1918 -0.6918  2.9780
  176SLPC   C2719959   2.290   4.488   6.516  0.0338  0.5448 -0.7482
  176SLPC   H7R19960   2.202   4.551   6.538 -1.0026 -1.3393  0.8093
  176SLPC   H7S19961   2.256   4.397   6.463 -0.8210  0.3551  0.1091
  176SLPC   C2819962   2.362   4.562   6.396 -0.3501  0.4565 -0.1909
  176SLPC   H8R19963   2.404   4.657   6.435  0.1750 -1.0216  3.2273
  176SLPC   H8S19964   2.297   4.572   6.306 -0.9631  0.6018  0.2637
  176SLPC   C2919965   2.482   4.470   6.376  0.5409  0.0919  0.9914
  176SLPC   H9R19966   2.544   4.457   6.466  0.7093 -1.7586  0.6497
  176SLPC  C21019967   2.515   4.397   6.263  0.0462  0.2520  1.6624
  176SLPC  H10R19968   2.605   4.334   6.261  0.0718  0.2185  3.1804
  176SLPC  C21119969   2.426   4.408   6.137 -0.4525  0.2712  0.6065
  176SLPC  H11R19970   2.319   4.404   6.168 -1.0078 -1.8727 -1.2719
  176SLPC  H11S19971   2.447   4.318   6.075 -1.4071  1.8088 -2.0964
  176SLPC  C21219972   2.472   4.528   6.051  0.5666  0.1814  0.1440
  176SLPC  H12R19973   2.539   4.605   6.090 -0.1295  0.4987  0.7435
  176SLPC  C21319974   2.437   4.545   5.920  0.7910  0.3882  0.2621
  176SLPC  H13R19975   2.493   4.621   5.864 -0.4690 -1.5846 -4.1243
  176SLPC  C21419976   2.341   4.458   5.836 -0.1365  0.1358 -0.9338
  176SLPC  H14R19977   2.292   4.376   5.892 -0.7914 -0.0902 -1.8145
  176SLPC  H14S19978   2.403   4.414   5.755  3.2663 -2.7751  2.8661
  176SLPC  C21519979   2.228   4.533   5.760 -0.5697  0.2439 -0.8998
  176SLPC  H15R19980   2.188   4.466   5.681  1.2937 -0.8097 -1.0181
  176SLPC  H15S19981   2.264   4.619   5.700  1.3533 -0.0836 -0.2845
  176SLPC  C21619982   2.117   4.593   5.844  0.7395 -0.4317 -0.0488
  176SLPC  H16R19983   2.052   4.655   5.778  0.7778 -0.1098  0.2099
  176SLPC  H16S19984   2.158   4.660   5.923 -0.7280 -0.8174  1.0655
  176SLPC  C21719985   2.034   4.485   5.913 -0.3045  0.0779 -0.1134
  176SLPC  H17R19986   2.104   4.412   5.959  0.8966  0.5869 -1.0768
  176SLPC  H17S19987   1.983   4.428   5.833 -1.0204 -1.3315  1.2854
  176SLPC  C21819988   1.939   4.537   6.029 -0.5076 -0.1786 -0.0728
  176SLPC  H18R19989   2.012   4.575   6.103 -0.9512  1.0098 -0.2131
  176SLPC  H18S19990   1.875   4.458   6.073  0.3126 -0.7392  0.1207
  176SLPC  H18T19991   1.883   4.627   5.993  1.0695  1.0699  0.4937
  176SLPC   C3319992   2.914   4.584   6.557  0.6094 -0.4885  0.5476
  176SLPC   H3X19993   3.016   4.579   6.600  0.9075  1.9059  0.2315
  176SLPC   H3Y19994   2.899   4.690   6.527  2.0006 -0.1027  1.1642
  176SLPC   C3419995   2.907   4.490   6.440  0.3157 -0.1453 -0.0204
  176SLPC   H4X19996   2.799   4.476   6.421  0.0816 -0.5717  1.4672
  176SLPC   H4Y19997   2.943   4.386   6.455  0.9010 -0.0617 -0.8017
  176SLPC   C3519998   2.988   4.519   6.308  0.3755 -0.0884  0.4680
  176SLPC   H5X19999   3.097   4.519   6.333  0.7565  2.0655 -0.8560
  176SLPC   H5Y20000   2.959   4.619   6.269 -1.7709 -0.2691  1.4910
  176SLPC   C3620001   2.965   4.421   6.200 -0.6581 -0.9054 -0.3658
  176SLPC   H6X20002   2.856   4.405   6.186 -0.8021 -1.1815  0.9315
  176SLPC   H6Y20003   3.014   4.324   6.227  0.6245  0.0876  1.0048
  176SLPC   C3720004   3.022   4.464   6.064  0.4042 -0.5041 -0.0995
  176SLPC   H7X20005   3.127   4.496   6.082  0.7779 -0.4626 -2.1308
  176SLPC   H7Y20006   2.965   4.553   6.030 -1.4122 -1.8945 -0.8794
  176SLPC   C3820007   3.033   4.353   5.958  0.1778 -0.3368 -0.1838
  176SLPC   H8X20008   2.931   4.331   5.920 -0.0275  0.5066 -0.1342
  176SLPC   H8Y20009   3.073   4.258   6.000 -3.1292 -1.1483  1.4360
  176SLPC   C3920010   3.106   4.385   5.828 -0.0107  0.3730 -0.0987
  176SLPC   H9X20011   3.198   4.447   5.828  1.7215 -1.9453 -2.3154
  176SLPC   H9Y20012   3.033   4.445   5.770 -0.4459  2.0318  2.0726
  176SLPC  C31020013   3.131   4.263   5.742  0.0847 -0.1561 -0.3143
  176SLPC  H10X20014   3.030   4.220   5.723 -0.7268  1.3541  0.3657
  176SLPC  H10Y20015   3.187   4.183   5.796  0.9975 -1.6874 -3.2910
  176SLPC  C31120016   3.212   4.276   5.612 -0.1377 -0.0353  0.9622
  176SLPC  H11X20017   3.315   4.309   5.636  0.1704 -0.1426 -0.1627
  176SLPC  H11Y20018   3.164   4.353   5.549  0.6542 -1.3606 -1.3828
  176SLPC  C31220019   3.211   4.150   5.518  0.0731 -0.3365 -0.9350
  176SLPC  H12X20020   3.249   4.071   5.586 -1.7553 -0.4018  0.0714
  176SLPC  H12Y20021   3.293   4.168   5.445  1.4434  0.7883  0.8025
  176SLPC  C31320022   3.079   4.123   5.441  0.4109 -0.1828  0.5501
  176SLPC  H13X20023   2.996   4.103   5.512 -0.1972 -3.2870 -0.8653
  176SLPC  H13Y20024   3.098   4.030   5.384  1.8627  0.6746 -0.4342
  176SLPC  C31420025   3.017   4.237   5.352 -0.1603 -0.5569  0.1189
  176SLPC  H14X20026   2.968   4.317   5.410 -0.1619 -0.7739  0.4161
  176SLPC  H14Y20027   2.933   4.189   5.297 -0.7560 -0.5153  0.9883
  176SLPC  C31520028   3.116   4.288   5.236 -0.2443 -0.8756 -0.2848
  176SLPC  H15X20029   3.156   4.191   5.199  1.7259 -0.4760  0.7056
  176SLPC  H15Y20030   3.187   4.348   5.297 -1.5275 -0.7482  1.1388
  176SLPC  C31620031   3.048   4.366   5.123 -0.0884  0.4137 -0.4819
  176SLPC  H16X20032   2.981   4.450   5.148 -2.7072 -1.7175  0.1108
  176SLPC  H16Y20033   2.985   4.294   5.067  1.0606 -1.7295  0.8044
  176SLPC  C31720034   3.152   4.412   5.021  0.7354 -0.0856  0.1125
  176SLPC  H17X20035   3.229   4.332   5.015 -1.1599 -1.9286 -0.7964
  176SLPC  H17Y20036   3.200   4.504   5.059 -1.8894  1.8694 -1.0090
  176SLPC  C31820037   3.101   4.441   4.882 -0.0385 -1.0186 -0.6399
  176SLPC  H18X20038   3.184   4.499   4.837  0.0015 -0.4456  0.1642
  176SLPC  H18Y20039   3.005   4.496   4.874  0.4277 -0.0387  0.3511
  176SLPC  H18Z20040   3.084   4.347   4.824 -2.0067  0.2323 -2.2085
  177SLPC     N20041   0.127   4.123   7.525  0.3842 -0.4044 -0.1925
  177SLPC   C1320042   0.034   4.193   7.620  0.0466  0.1505  0.4214
  177SLPC  H13A20043  -0.054   4.130   7.616  0.5273 -0.5112 -2.8857
  177SLPC  H13B20044   0.075   4.180   7.719  0.1675  1.2567  0.5280
  177SLPC  H13C20045   0.010   4.296   7.597 -0.9348  0.0021  0.7330
  177SLPC   C1420046   0.121   3.978   7.564 -1.4863  0.3984 -0.3934
  177SLPC  H14A20047   0.017   3.949   7.571 -0.9357 -1.5998  0.1747
  177SLPC  H14B20048   0.164   3.906   7.496 -0.2151  0.4438  0.3341
  177SLPC  H14C20049   0.159   3.958   7.663 -2.4089  3.0108  0.5721
  177SLPC   C1520050   0.259   4.180   7.552 -0.4228 -0.5088 -0.1183
  177SLPC  H15A20051   0.335   4.130   7.493 -0.8862  0.0576 -1.2361
  177SLPC  H15B20052   0.253   4.284   7.525 -2.9056 -0.9625 -1.7025
  177SLPC  H15C20053   0.278   4.183   7.658  0.9607  0.6404 -0.3627
  177SLPC   C1220054   0.084   4.146   7.376  0.0654 -0.5899  0.0394
  177SLPC  H12A20055  -0.016   4.109   7.356  0.0137 -0.4740  0.0797
  177SLPC  H12B20056   0.147   4.087   7.311  0.5740 -0.1562  0.1343
  177SLPC   C1120057   0.098   4.296   7.322 -0.2428  0.2369  0.6022
  177SLPC  H11A20058   0.052   4.284   7.222 -1.1229  2.0194  0.7585
  177SLPC  H11B20059   0.207   4.313   7.326 -0.1208 -0.7143  3.3767
  177SLPC     P20060   0.094   4.528   7.429  0.2544 -0.1193  0.1712
  177SLPC   O1320061   0.004   4.603   7.516  0.2242  0.4223 -0.2484
  177SLPC   O1420062   0.228   4.499   7.484 -0.1500 -0.5052 -0.5908
  177SLPC   O1220063   0.023   4.389   7.393 -0.3108 -0.0392 -0.9264
  177SLPC   O1120064   0.108   4.594   7.285 -0.4986  0.5513 -0.2464
  177SLPC    C120065   0.010   4.588   7.189  0.5459  0.3938  0.0365
  177SLPC    HA20066  -0.010   4.488   7.146  1.8182 -0.5831  1.5955
  177SLPC    HB20067  -0.090   4.619   7.228 -0.6970 -2.3411 -0.7720
  177SLPC    C220068   0.033   4.677   7.070 -0.0070  0.3255  0.1432
  177SLPC    HS20069   0.022   4.783   7.102 -2.1566  0.7288 -1.6242
  177SLPC   O2120070  -0.070   4.637   6.978  0.1988  0.0498  0.4568
  177SLPC   C2120071  -0.136   4.739   6.922 -0.3742 -0.5050  0.8409
  177SLPC   O2220072  -0.117   4.856   6.940  0.1985 -0.7435 -0.3219
  177SLPC   C2220073  -0.259   4.681   6.847 -0.2812  0.3031  0.3696
  177SLPC   H2R20074  -0.277   4.576   6.877  0.2610  0.3563  0.9081
  177SLPC   H2S20075  -0.349   4.737   6.880 -0.5741  1.1110 -1.6265
  177SLPC    C320076   0.165   4.656   7.000  0.5655 -0.3883 -0.4326
  177SLPC    HX20077   0.173   4.556   6.951 -0.0200 -1.2371  1.1409
  177SLPC    HY20078   0.241   4.651   7.082  0.2964 -1.7958 -0.2430
  177SLPC   O3120079   0.192   4.753   6.892 -0.2379  0.1707  0.3634
  177SLPC   C3120080   0.256   4.868   6.924  0.1514  0.6249 -0.1602
  177SLPC   O3220081   0.279   4.909   7.039  0.4160  0.3739  0.6850
  177SLPC   C3220082   0.323   4.921   6.795 -0.1034 -0.0388  0.1322
  177SLPC   H2X20083   0.242   4.941   6.721  0.3017  0.7514 -0.1108
  177SLPC   H2Y20084   0.395   4.856   6.740  0.4467 -0.6249  1.5081
  177SLPC   C2320085  -0.229   4.690   6.696 -0.1528 -0.2575  0.0091
  177SLPC   H3R20086  -0.163   4.609   6.658  0.3960  0.2780 -0.1878
  177SLPC   H3S20087  -0.188   4.788   6.665 -1.4114 -0.5439 -2.8898
  177SLPC   C2420088  -0.363   4.691   6.621 -0.0472 -0.3309 -0.0774
  177SLPC   H4R20089  -0.433   4.766   6.663  0.5423  0.4906 -0.5282
  177SLPC   H4S20090  -0.403   4.591   6.648  1.3478 -0.3969  2.0216
  177SLPC   C2520091  -0.351   4.704   6.463  0.3616 -0.8267 -0.3847
  177SLPC   H5R20092  -0.458   4.697   6.431 -0.7494  0.5600  2.6351
  177SLPC   H5S20093  -0.301   4.610   6.431 -0.5411 -1.6132  0.4260
  177SLPC   C2620094  -0.288   4.824   6.398 -0.0405  0.4661 -0.4492
  177SLPC   H6R20095  -0.180   4.810   6.418 -0.1357 -0.4621 -0.5409
  177SLPC   H6S20096  -0.310   4.922   6.446 -0.4196 -0.0094  0.3679
  177SLPC   C2720097  -0.318   4.829   6.247  0.6157 -0.1865 -0.7917
  177SLPC   H7R20098  -0.426   4.843   6.225  0.4164  2.8552  1.4825
  177SLPC   H7S20099  -0.281   4.740   6.192  0.9767 -1.5248  1.4834
  177SLPC   C2820100  -0.246   4.955   6.187 -0.7974  0.2509 -0.0053
  177SLPC   H8R20101  -0.136   4.948   6.205 -1.0721  0.4644  2.0756
  177SLPC   H8S20102  -0.278   5.046   6.244  2.1429  0.8424  0.8685
  177SLPC   C2920103  -0.281   4.977   6.042  0.1184 -0.7383 -0.6073
  177SLPC   H9R20104  -0.382   5.013   6.020  0.6760  1.8529  0.6171
  177SLPC  C21020105  -0.209   4.941   5.937 -0.3841 -0.2165  0.0920
  177SLPC  H10R20106  -0.258   4.937   5.839  1.4967 -1.7682 -0.8499
  177SLPC  C21120107  -0.072   4.879   5.930 -0.2114 -0.5220  0.4264
  177SLPC  H11R20108  -0.047   4.852   5.825  0.5410  2.8159 -0.3796
  177SLPC  H11S20109  -0.075   4.783   5.985  0.9176 -2.5489 -2.7241
  177SLPC  C21220110   0.046   4.958   5.976  0.6803  0.1527  0.0691
  177SLPC  H12R20111   0.030   5.043   6.043  6.7672  2.0015 -0.1676
  177SLPC  C21320112   0.178   4.938   5.958 -0.2124 -0.0123  0.0898
  177SLPC  H13R20113   0.247   5.004   6.012 -0.3360  1.6213 -1.6153
  177SLPC  C21420114   0.232   4.825   5.874  0.2380 -0.0302  0.5489
  177SLPC  H14R20115   0.160   4.740   5.876 -0.9574  0.8817 -0.8278
  177SLPC  H14S20116   0.329   4.797   5.920 -0.1077  0.4295  1.5867
  177SLPC  C21520117   0.247   4.867   5.725  0.0779  0.3159  0.8494
  177SLPC  H15R20118   0.146   4.879   5.681  0.9499  0.2544 -1.3042
  177SLPC  H15S20119   0.288   4.778   5.671 -0.8945 -0.6219  1.6248
  177SLPC  C21620120   0.315   4.999   5.695  1.1705  0.1947  0.4498
  177SLPC  H16R20121   0.260   5.078   5.750  0.0604 -1.0807  1.2180
  177SLPC  H16S20122   0.297   5.034   5.591  0.4274  2.3583  1.2616
  177SLPC  C21720123   0.467   5.001   5.718  0.6478  0.1973 -0.7336
  177SLPC  H17R20124   0.506   4.910   5.668  1.4752 -0.7726  1.5718
  177SLPC  H17S20125   0.480   4.987   5.827  0.8387 -1.7508 -0.9609
  177SLPC  C21820126   0.534   5.120   5.664 -0.0019 -0.5105 -0.2027
  177SLPC  H18R20127   0.512   5.139   5.557  1.7449 -1.1222 -0.7113
  177SLPC  H18S20128   0.645   5.107   5.662  0.1270  0.5756 -1.6521
  177SLPC  H18T20129   0.510   5.213   5.720  2.7681 -0.9927  2.0493
  177SLPC   C3320130   0.395   5.054   6.815  0.1828 -0.3562  0.3212
  177SLPC   H3X20131   0.469   5.054   6.898 -1.1179  0.5027  1.5356
  177SLPC   H3Y20132   0.322   5.127   6.858  1.1139  1.5349 -1.1375
  177SLPC   C3420133   0.475   5.097   6.687  0.0130 -0.5850  0.7545
  177SLPC   H4X20134   0.525   5.006   6.648 -0.4668 -0.4795 -0.1199
  177SLPC   H4Y20135   0.566   5.156   6.711 -0.4197 -0.0071  1.0172
  177SLPC   C3520136   0.407   5.192   6.589 -0.2963 -0.7654 -0.7731
  177SLPC   H5X20137   0.396   5.289   6.640  0.3334 -1.3453  0.4983
  177SLPC   H5Y20138   0.304   5.159   6.563 -0.6444 -0.2543 -0.0418
  177SLPC   C3620139   0.487   5.212   6.468 -0.0488  0.4170 -0.1873
  177SLPC   H6X20140   0.542   5.119   6.443 -1.6671 -1.2559  2.0747
  177SLPC   H6Y20141   0.559   5.296   6.473  0.0069  0.3825 -0.3796
  177SLPC   C3720142   0.389   5.238   6.345 -0.2881 -0.0463 -1.2282
  177SLPC   H7X20143   0.327   5.330   6.356 -0.2994  0.0571 -2.1224
  177SLPC   H7Y20144   0.315   5.155   6.334 -1.1543  0.4479  0.4506
  177SLPC   C3820145   0.469   5.251   6.219 -0.3254  0.0135  0.3871
  177SLPC   H8X20146   0.501   5.150   6.185  0.2731  0.5592 -0.7124
  177SLPC   H8Y20147   0.566   5.302   6.235  0.0698 -1.5194  3.8774
  177SLPC   C3920148   0.389   5.305   6.101  0.1289  0.3892  0.1192
  177SLPC   H9X20149   0.282   5.304   6.130  0.3547  1.8243  1.0988
  177SLPC   H9Y20150   0.400   5.233   6.017 -0.3363 -0.0963  0.4726
  177SLPC  C31020151   0.431   5.447   6.066  0.6437 -0.2990  0.0547
  177SLPC  H10X20152   0.373   5.484   5.978  0.6892 -3.1844 -1.2888
  177SLPC  H10Y20153   0.534   5.458   6.027  0.7978 -0.6350  0.3741
  177SLPC  C31120154   0.404   5.541   6.181 -0.0145 -0.6927 -0.1305
  177SLPC  H11X20155   0.476   5.536   6.266  0.4368  0.1829 -0.4524
  177SLPC  H11Y20156   0.309   5.512   6.231  0.5201 -1.1607  0.6434
  177SLPC  C31220157   0.398   5.687   6.130  0.2455  0.7885  0.2614
  177SLPC  H12X20158   0.325   5.699   6.047 -0.5286 -0.7383  0.6757
  177SLPC  H12Y20159   0.498   5.705   6.085  0.7450  0.3850  1.1955
  177SLPC  C31320160   0.391   5.792   6.233 -0.1843  0.1275 -0.5812
  177SLPC  H13X20161   0.380   5.887   6.177  0.3058  1.3394  1.2866
  177SLPC  H13Y20162   0.482   5.793   6.296 -0.5348 -1.9465  0.0448
  177SLPC  C31420163   0.268   5.780   6.321  0.2343  0.2269  0.4551
  177SLPC  H14X20164   0.294   5.697   6.389  1.2975  0.0596 -0.1319
  177SLPC  H14Y20165   0.176   5.751   6.265  0.9431 -0.2066 -0.5036
  177SLPC  C31520166   0.256   5.910   6.396  0.6897 -0.3832 -0.0316
  177SLPC  H15X20167   0.330   5.976   6.345  1.3974 -1.2456 -0.1410
  177SLPC  H15Y20168   0.290   5.908   6.501 -0.1256  0.1399  0.2573
  177SLPC  C31620169   0.115   5.977   6.385  1.2722 -0.3923 -0.8721
  177SLPC  H16X20170   0.073   5.974   6.283  0.9324 -0.0268 -0.7424
  177SLPC  H16Y20171   0.129   6.086   6.405 -0.1004 -0.2382 -0.6466
  177SLPC  C31720172   0.026   5.928   6.494 -0.5650  0.0366  0.6085
  177SLPC  H17X20173   0.091   5.908   6.582 -2.8509 -1.9707  1.9585
  177SLPC  H17Y20174  -0.015   5.830   6.461  1.8646 -0.7013 -0.4944
  177SLPC  C31820175  -0.086   6.020   6.539  0.4483  0.1021 -0.2970
  177SLPC  H18X20176  -0.129   5.975   6.631  0.8867 -2.8646 -1.4504
  177SLPC  H18Y20177  -0.168   6.038   6.467  0.4510  2.3459  0.1646
  177SLPC  H18Z20178  -0.052   6.119   6.577 -0.9281  0.0679  1.0946
  178SLPC     N20179   6.342   2.683   7.641  0.2378 -0.0392  0.2561
  178SLPC   C1320180   6.275   2.633   7.758 -0.6554  0.4388  0.1879
  178SLPC  H13A20181   6.270   2.525   7.763 -2.1512  0.3030 -2.5106
  178SLPC  H13B20182   6.319   2.665   7.851  1.1261  1.5363 -0.9706
  178SLPC  H13C20183   6.168   2.649   7.757 -1.0541 -1.3125  3.0038
  178SLPC   C1420184   6.474   2.619   7.630 -0.9286 -0.0148 -0.3797
  178SLPC  H14A20185   6.469   2.513   7.609  1.2513 -0.4443  0.9777
  178SLPC  H14B20186   6.538   2.668   7.559 -1.6735  0.5639 -0.6633
  178SLPC  H14C20187   6.529   2.628   7.722 -1.6466 -2.9944  0.4877
  178SLPC   C1520188   6.360   2.832   7.649 -0.3540 -0.2412  0.7070
  178SLPC  H15A20189   6.435   2.855   7.575 -0.8959  0.3831  0.3429
  178SLPC  H15B20190   6.275   2.891   7.619  1.2792  1.2095 -1.3352
  178SLPC  H15C20191   6.387   2.866   7.748 -0.9187 -1.1607  1.1863
  178SLPC   C1220192   6.272   2.649   7.507 -0.9485  0.0143 -0.5150
  178SLPC  H12A20193   6.296   2.546   7.489  0.1189 -0.1159  1.3916
  178SLPC  H12B20194   6.317   2.709   7.430 -0.2895  1.0110  0.6114
  178SLPC   C1120195   6.116   2.663   7.481  0.1795 -0.5019  0.0029
  178SLPC  H11A20196   6.068   2.594   7.553 -2.6128  2.7223  1.5316
  178SLPC  H11B20197   6.084   2.628   7.380 -1.7335 -1.9817  1.0727
  178SLPC     P20198   6.092   2.905   7.385 -0.2562 -0.3078  0.5132
  178SLPC   O1320199   6.016   3.030   7.419 -0.1779 -0.0433 -0.8415
  178SLPC   O1420200   6.238   2.917   7.373  0.0164  0.1441 -0.1271
  178SLPC   O1220201   6.075   2.793   7.500  0.2986  0.3706 -0.3419
  178SLPC   O1120202   6.031   2.833   7.256 -0.2495  0.1658  0.7538
  178SLPC    C120203   5.914   2.754   7.251  0.0783 -0.0185  0.3352
  178SLPC    HA20204   5.946   2.649   7.232 -0.9964 -0.3165  0.1242
  178SLPC    HB20205   5.862   2.754   7.349 -1.4809 -0.0172 -0.4661
  178SLPC    C220206   5.809   2.791   7.143  0.1673 -0.6729 -0.7166
  178SLPC    HS20207   5.749   2.698   7.128 -2.1461  0.6424 -0.1313
  178SLPC   O2120208   5.863   2.838   7.023  0.3921 -0.4383  0.2542
  178SLPC   C2120209   5.909   2.749   6.938 -0.2079  0.6300 -0.0615
  178SLPC   O2220210   5.903   2.628   6.962  0.0854 -0.5657  0.7740
  178SLPC   C2220211   5.989   2.815   6.819 -0.0647  0.8893 -0.2733
  178SLPC   H2R20212   5.980   2.923   6.843  0.6293  0.7966  0.4501
  178SLPC   H2S20213   6.090   2.773   6.836 -0.3283 -0.5711 -2.0322
  178SLPC    C320214   5.706   2.901   7.189  0.2408 -0.0764  0.2478
  178SLPC    HX20215   5.758   2.999   7.184  0.5212 -0.1982  0.7387
  178SLPC    HY20216   5.677   2.880   7.294  2.7581  4.4641  2.1585
  178SLPC   O3120217   5.593   2.911   7.096  0.3387 -0.9101 -0.1919
  178SLPC   C3120218   5.497   2.988   7.145  0.0628  0.0248  0.0641
  178SLPC   O3220219   5.510   3.070   7.234  0.1185 -0.6963  0.6690
  178SLPC   C3220220   5.361   2.949   7.075  0.0863  0.0273  0.6481
  178SLPC   H2X20221   5.284   2.964   7.153  0.9190 -0.8120  1.6541
  178SLPC   H2Y20222   5.362   2.840   7.051  1.4549 -0.2038  1.6280
  178SLPC   C2320223   5.934   2.785   6.682  0.2682  0.1038 -0.1228
  178SLPC   H3R20224   5.877   2.690   6.682 -1.7013  1.2111 -0.1325
  178SLPC   H3S20225   6.019   2.780   6.611 -0.0581 -2.0513 -0.4003
  178SLPC   C2420226   5.839   2.894   6.642 -0.3171 -0.3203  0.1960
  178SLPC   H4R20227   5.887   2.994   6.636 -0.0338 -0.5008 -0.9057
  178SLPC   H4S20228   5.758   2.910   6.717  0.7019 -0.8455  1.4287
  178SLPC   C2520229   5.776   2.856   6.510  0.0991 -0.1304  0.4646
  178SLPC   H5R20230   5.711   2.940   6.478 -1.5445 -1.8425 -0.9068
  178SLPC   H5S20231   5.714   2.765   6.524  2.0237 -1.4572  0.8105
  178SLPC   C2620232   5.864   2.841   6.390 -0.6369 -0.4673  0.3583
  178SLPC   H6R20233   5.946   2.767   6.403 -0.3905 -0.0941  0.9616
  178SLPC   H6S20234   5.907   2.941   6.367 -1.3199 -0.0470  0.8830
  178SLPC   C2720235   5.775   2.793   6.264 -0.4629 -0.4730  0.4536
  178SLPC   H7R20236   5.681   2.853   6.271 -1.8422 -2.4730 -0.1486
  178SLPC   H7S20237   5.746   2.687   6.279 -0.4605 -0.4757  0.4393
  178SLPC   C2820238   5.826   2.833   6.118 -0.3250 -0.1554 -0.3509
  178SLPC   H8R20239   5.923   2.779   6.118 -0.6662 -0.9645  2.6205
  178SLPC   H8S20240   5.835   2.943   6.108 -2.6038  0.1110 -0.0303
  178SLPC   C2920241   5.726   2.774   6.018  0.0876  0.2909  0.6325
  178SLPC   H9R20242   5.663   2.691   6.056  2.0500 -1.3766  0.4048
  178SLPC  C21020243   5.691   2.822   5.892  1.0324  0.1571 -0.1593
  178SLPC  H10R20244   5.608   2.776   5.836  0.1123  0.5294  0.8699
  178SLPC  C21120245   5.760   2.937   5.823  0.4550 -0.1999 -0.6260
  178SLPC  H11R20246   5.768   3.014   5.903 -2.0772  0.0830 -0.5628
  178SLPC  H11S20247   5.688   2.975   5.747 -1.4687 -0.8187  0.8095
  178SLPC  C21220248   5.899   2.899   5.771 -0.5279  0.1360 -0.3073
  178SLPC  H12R20249   5.958   2.847   5.848  2.0427  0.2086 -2.0865
  178SLPC  C21320250   5.950   2.914   5.650 -0.9071 -0.7173  1.1815
  178SLPC  H13R20251   6.048   2.866   5.635 -0.4299  0.3269  0.8482
  178SLPC  C21420252   5.885   2.993   5.541 -0.4045  0.0505  0.8070
  178SLPC  H14R20253   5.952   3.078   5.518 -1.5838  0.5773 -0.8724
  178SLPC  H14S20254   5.787   3.035   5.572 -1.6856 -1.0362 -1.5553
  178SLPC  C21520255   5.871   2.914   5.409  0.0617 -0.1205 -0.5652
  178SLPC  H15R20256   5.967   2.888   5.360 -0.1750  1.2214 -1.8108
  178SLPC  H15S20257   5.817   2.979   5.336 -2.1139 -0.6756  0.4749
  178SLPC  C21620258   5.779   2.791   5.410  0.3496 -0.1626 -0.6432
  178SLPC  H16R20259   5.688   2.818   5.469 -1.6957 -0.5334 -3.3908
  178SLPC  H16S20260   5.837   2.711   5.460 -1.3350 -1.2589 -0.3695
  178SLPC  C21720261   5.730   2.751   5.269  0.1285 -0.1792  0.4583
  178SLPC  H17R20262   5.823   2.733   5.211 -1.0518  0.0955 -1.5713
  178SLPC  H17S20263   5.671   2.833   5.222  2.0459  0.6587 -0.5924
  178SLPC  C21820264   5.650   2.623   5.282  0.5792  0.2406  1.0571
  178SLPC  H18R20265   5.563   2.642   5.348 -0.1278 -0.0782  0.2395
  178SLPC  H18S20266   5.711   2.535   5.312  2.2111  1.3567  1.1580
  178SLPC  H18T20267   5.615   2.604   5.178 -0.3422  0.8709  1.2467
  178SLPC   C3320268   5.329   3.042   6.952  0.5848 -0.4400 -0.4470
  178SLPC   H3X20269   5.341   3.150   6.977 -0.9055 -0.0041 -1.5148
  178SLPC   H3Y20270   5.222   3.035   6.924  1.1606  0.0781 -2.9702
  178SLPC   C3420271   5.416   3.021   6.834 -0.3500 -0.0025 -0.4646
  178SLPC   H4X20272   5.423   2.914   6.804  2.4471  0.0407 -0.2162
  178SLPC   H4Y20273   5.521   3.033   6.870  0.4258 -1.7122 -1.9847
  178SLPC   C3520274   5.388   3.128   6.719 -0.5023 -0.6481 -0.3657
  178SLPC   H5X20275   5.405   3.233   6.751  2.0228 -1.2529  0.4344
  178SLPC   H5Y20276   5.278   3.119   6.703 -0.4052 -0.2656 -1.2889
  178SLPC   C3620277   5.476   3.115   6.595  0.3610  0.2916  0.6558
  178SLPC   H6X20278   5.489   3.008   6.570  1.7701  0.8048 -1.0390
  178SLPC   H6Y20279   5.578   3.159   6.608  0.4700  1.8872 -3.7221
  178SLPC   C3720280   5.409   3.176   6.473 -0.1743 -0.3428 -0.0581
  178SLPC   H7X20281   5.388   3.282   6.497 -0.2227 -0.8561  2.5295
  178SLPC   H7Y20282   5.312   3.121   6.475 -0.2511 -0.2090 -0.1063
  178SLPC   C3820283   5.493   3.173   6.351 -0.4801  0.2509 -0.0266
  178SLPC   H8X20284   5.527   3.068   6.338 -0.6892  0.4525 -2.7560
  178SLPC   H8Y20285   5.593   3.220   6.357  0.4230 -1.6134  0.5543
  178SLPC   C3920286   5.416   3.216   6.227  1.0069 -0.0431 -0.4517
  178SLPC   H9X20287   5.384   3.321   6.244 -1.1704 -0.8042  0.6238
  178SLPC   H9Y20288   5.320   3.159   6.230  1.3235 -0.5487  0.7362
  178SLPC  C31020289   5.487   3.186   6.101 -0.1228 -0.3548  0.1901
  178SLPC  H10X20290   5.455   3.083   6.076 -1.8049  0.3734 -0.8960
  178SLPC  H10Y20291   5.592   3.183   6.135 -1.0146 -2.6559  3.0735
  178SLPC  C31120292   5.446   3.286   5.982 -0.6017 -0.2282 -0.3516
  178SLPC  H11X20293   5.459   3.389   6.020 -1.9216 -0.3002  0.3843
  178SLPC  H11Y20294   5.340   3.267   5.953 -0.4868 -0.5067 -0.6035
  178SLPC  C31220295   5.522   3.244   5.853 -0.3341 -0.8259 -0.0052
  178SLPC  H12X20296   5.613   3.187   5.879  0.6311  0.6974  0.0784
  178SLPC  H12Y20297   5.553   3.346   5.822 -1.8403  0.7564  3.1311
  178SLPC  C31320298   5.439   3.166   5.750  0.7650  0.2696  0.8626
  178SLPC  H13X20299   5.338   3.212   5.754  0.6871  0.2526 -0.4551
  178SLPC  H13Y20300   5.444   3.057   5.773 -3.2382 -0.7818 -2.1603
  178SLPC  C31420301   5.493   3.179   5.605  0.8904 -0.3402 -0.4189
  178SLPC  H14X20302   5.598   3.144   5.600  1.7964  1.0088  4.2701
  178SLPC  H14Y20303   5.481   3.289   5.592 -1.0737 -0.5129 -0.3645
  178SLPC  C31520304   5.403   3.098   5.511  0.1940  0.1353 -0.6320
  178SLPC  H15X20305   5.398   3.151   5.413 -0.4842  0.3030 -0.5115
  178SLPC  H15Y20306   5.302   3.116   5.553 -0.9681  1.0209 -3.5184
  178SLPC  C31620307   5.432   2.952   5.500 -0.8071  0.8927 -0.3871
  178SLPC  H16X20308   5.457   2.925   5.605  0.4754  3.2528 -0.0297
  178SLPC  H16Y20309   5.517   2.926   5.432  0.4071  2.5363  0.4253
  178SLPC  C31720310   5.317   2.869   5.443 -0.2017 -0.1084  0.0365
  178SLPC  H17X20311   5.215   2.903   5.471 -0.3142  0.5062 -1.1010
  178SLPC  H17Y20312   5.333   2.766   5.482  0.8222 -0.0314 -0.1488
  178SLPC  C31820313   5.316   2.864   5.295  0.3656  0.1891  0.4154
  178SLPC  H18X20314   5.234   2.803   5.252  0.9578 -1.6140  1.7108
  178SLPC  H18Y20315   5.399   2.809   5.246 -0.3483 -1.1294  0.6532
  178SLPC  H18Z20316   5.302   2.970   5.264  1.9049  0.6458  1.1764
  179SLPC     N20317   3.173   5.363   2.435 -0.5547  0.1454 -0.0713
  179SLPC   C1320318   3.181   5.508   2.451  0.0540  0.0359 -0.5269
  179SLPC  H13A20319   3.163   5.536   2.554  0.5408 -0.0430 -0.4162
  179SLPC  H13B20320   3.276   5.552   2.422  0.9990 -1.4893  0.1324
  179SLPC  H13C20321   3.099   5.553   2.399 -1.8106  0.2664  2.3749
  179SLPC   C1420322   3.187   5.327   2.290 -0.2185 -0.0927  0.2208
  179SLPC  H14A20323   3.273   5.373   2.244 -0.5786  0.2890 -0.0846
  179SLPC  H14B20324   3.200   5.220   2.289  2.0914  0.1022  2.2318
  179SLPC  H14C20325   3.102   5.362   2.233 -1.2382  0.7723  2.1745
  179SLPC   C1520326   3.035   5.326   2.482 -0.3992  0.1006  0.8758
  179SLPC  H15A20327   2.960   5.380   2.425  1.1901 -1.5867 -3.2364
  179SLPC  H15B20328   3.019   5.220   2.477  1.5177 -0.2360  1.2937
  179SLPC  H15C20329   3.042   5.354   2.586  1.1265  2.5544  0.2149
  179SLPC   C1220330   3.290   5.284   2.506  0.6974  0.6452 -0.5925
  179SLPC  H12A20331   3.382   5.314   2.459  0.6609  0.5621 -0.7147
  179SLPC  H12B20332   3.274   5.180   2.484 -0.4491  1.1085 -2.1235
  179SLPC   C1120333   3.299   5.301   2.658 -0.4660 -0.3395  0.4193
  179SLPC  H11A20334   3.362   5.221   2.704 -1.9004 -1.5064  0.4056
  179SLPC  H11B20335   3.204   5.279   2.710 -0.2308 -0.6539  0.7220
  179SLPC     P20336   3.494   5.484   2.636  0.0031 -0.0005 -0.5800
  179SLPC   O1320337   3.570   5.370   2.584 -0.1072  0.2159 -0.1598
  179SLPC   O1420338   3.489   5.599   2.546 -0.0229  0.4637  0.5152
  179SLPC   O1220339   3.348   5.433   2.682  0.0724 -0.4612  0.2349
  179SLPC   O1120340   3.534   5.536   2.777  0.0043 -0.2331 -0.1452
  179SLPC    C120341   3.605   5.469   2.880  0.6083  0.2432  0.0838
  179SLPC    HA20342   3.649   5.374   2.843  1.4903  0.5665  0.2906
  179SLPC    HB20343   3.684   5.541   2.910 -0.1941  3.4322 -4.3119
  179SLPC    C220344   3.511   5.407   2.983 -0.2109  0.1746 -0.5828
  179SLPC    HS20345   3.438   5.346   2.926 -0.5710  2.1172 -2.3627
  179SLPC   O2120346   3.441   5.522   3.042 -0.1992  0.1732 -0.1676
  179SLPC   C2120347   3.326   5.503   3.093 -0.0060  0.3882  0.1464
  179SLPC   O2220348   3.248   5.415   3.053 -0.6080  0.2514  0.1692
  179SLPC   C2220349   3.303   5.596   3.207  0.5110 -0.1750  0.2434
  179SLPC   H2R20350   3.401   5.630   3.247  0.3625  0.6308 -0.0562
  179SLPC   H2S20351   3.245   5.680   3.164 -0.5808 -0.6398  0.7737
  179SLPC    C320352   3.581   5.316   3.090  0.4337 -0.0353  0.1787
  179SLPC    HX20353   3.674   5.362   3.130  0.3431 -0.4182  0.8339
  179SLPC    HY20354   3.623   5.228   3.036  0.1123  0.1842 -0.4390
  179SLPC   O3120355   3.501   5.283   3.202 -0.1307  0.6829  0.4615
  179SLPC   C3120356   3.559   5.204   3.297  0.6826  0.2121  0.3511
  179SLPC   O3220357   3.657   5.137   3.288 -0.2496 -0.2812 -0.0741
  179SLPC   C3220358   3.481   5.212   3.426  0.6125  1.0086  0.8372
  179SLPC   H2X20359   3.386   5.158   3.406  0.7823  0.7985  0.5892
  179SLPC   H2Y20360   3.451   5.318   3.441 -1.1850  1.2219 -2.9613
  179SLPC   C2320361   3.221   5.533   3.319 -0.3427  0.1798  0.3021
  179SLPC   H3R20362   3.274   5.450   3.371  0.2761  0.9256  0.8762
  179SLPC   H3S20363   3.130   5.490   3.272  0.9168 -1.2567 -0.9426
  179SLPC   C2420364   3.156   5.630   3.424  0.5189 -0.1419 -0.1006
  179SLPC   H4R20365   3.092   5.694   3.360  0.7211  1.1964  1.0025
  179SLPC   H4S20366   3.221   5.709   3.467 -2.2280  0.8860  2.4729
  179SLPC   C2520367   3.099   5.556   3.542 -0.3102 -0.1907 -0.3286
  179SLPC   H5R20368   3.190   5.522   3.595 -0.9567 -0.8324  0.3915
  179SLPC   H5S20369   3.038   5.469   3.509 -0.4977 -0.6527  1.1707
  179SLPC   C2620370   3.025   5.655   3.635 -0.3773  0.0829  0.0883
  179SLPC   H6R20371   2.975   5.734   3.576  0.9196  0.8786  0.0118
  179SLPC   H6S20372   3.092   5.703   3.710  0.7344  0.5324 -1.1539
  179SLPC   C2720373   2.918   5.580   3.712 -0.3941 -0.9016  0.5920
  179SLPC   H7R20374   2.845   5.539   3.639 -1.0049 -0.3077  0.8497
  179SLPC   H7S20375   2.857   5.646   3.779  2.2746  1.5205  0.8487
  179SLPC   C2820376   2.966   5.463   3.796 -0.3572  0.3399 -0.5619
  179SLPC   H8R20377   3.022   5.397   3.727 -0.0951 -1.4862  1.3016
  179SLPC   H8S20378   2.876   5.412   3.837  1.4440 -1.4882  1.3376
  179SLPC   C2920379   3.063   5.504   3.904  0.6566 -0.4372  0.9364
  179SLPC   H9R20380   3.157   5.554   3.875 -0.2205  0.1979 -0.9742
  179SLPC  C21020381   3.034   5.488   4.033 -0.0211 -0.3175  0.5453
  179SLPC  H10R20382   3.107   5.526   4.105 -0.0543 -0.3217  0.5810
  179SLPC  C21120383   2.912   5.432   4.100  0.2731  0.3462 -0.2574
  179SLPC  H11R20384   2.828   5.458   4.031  2.4465  4.4422 -1.6620
  179SLPC  H11S20385   2.897   5.490   4.193 -4.8006 -2.0837  0.7833
  179SLPC  C21220386   2.920   5.280   4.133  0.1714 -0.0203 -0.3244
  179SLPC  H12R20387   2.960   5.210   4.059  0.8052  0.2791 -0.2721
  179SLPC  C21320388   2.872   5.219   4.242  0.3380 -0.2484  0.6328
  179SLPC  H13R20389   2.897   5.113   4.256 -0.6974 -0.6287 -0.2981
  179SLPC  C21420390   2.787   5.270   4.358  0.1096 -0.0073  1.9438
  179SLPC  H14R20391   2.718   5.190   4.393 -1.0264 -1.0600 -2.1049
  179SLPC  H14S20392   2.722   5.349   4.315  0.6028 -0.2619  0.6926
  179SLPC  C21520393   2.880   5.306   4.474  0.2303 -0.1197 -0.0142
  179SLPC  H15R20394   2.936   5.397   4.445 -1.1348  0.6835 -0.2032
  179SLPC  H15S20395   2.956   5.226   4.487  1.3017  0.5270 -1.9921
  179SLPC  C21620396   2.800   5.325   4.609  0.1922  0.5824 -0.6986
  179SLPC  H16R20397   2.868   5.337   4.697 -0.8806  0.7041  0.1345
  179SLPC  H16S20398   2.747   5.229   4.625  2.9489 -0.6937  1.8153
  179SLPC  C21720399   2.685   5.434   4.599 -0.2700 -0.7574  0.1461
  179SLPC  H17R20400   2.621   5.396   4.516 -0.2282  1.3450 -0.9096
  179SLPC  H17S20401   2.732   5.527   4.561 -0.7685 -0.7934 -0.5957
  179SLPC  C21820402   2.613   5.458   4.728 -0.2583 -0.3099 -0.1438
  179SLPC  H18R20403   2.563   5.363   4.755  1.9089 -1.5214 -0.1280
  179SLPC  H18S20404   2.532   5.534   4.721  1.9866  2.8142  3.4677
  179SLPC  H18T20405   2.681   5.494   4.808 -1.9612  4.7150 -0.5865
  179SLPC   C3320406   3.556   5.162   3.552 -0.0645 -0.1412  0.2857
  179SLPC   H3X20407   3.662   5.193   3.556  0.1786 -0.3869 -2.4568
  179SLPC   H3Y20408   3.544   5.052   3.544 -0.4409 -0.2359  1.7938
  179SLPC   C3420409   3.487   5.190   3.682  0.0689  0.2061 -0.8739
  179SLPC   H4X20410   3.544   5.131   3.756  0.0869  1.0096 -0.2372
  179SLPC   H4Y20411   3.385   5.146   3.680  0.2089 -0.3114  1.2100
  179SLPC   C3520412   3.462   5.342   3.722  0.3897 -0.3694  0.1617
  179SLPC   H5X20413   3.563   5.387   3.732 -0.4132  1.1090  2.8604
  179SLPC   H5Y20414   3.399   5.391   3.645 -0.6608 -0.6392  0.8148
  179SLPC   C3620415   3.400   5.349   3.860  0.0298  0.1206  0.5966
  179SLPC   H6X20416   3.310   5.286   3.877 -0.2107 -0.0526 -1.1459
  179SLPC   H6Y20417   3.384   5.454   3.893  1.8766  0.5722  0.1911
  179SLPC   C3720418   3.497   5.293   3.972  0.5645 -0.0751  0.7814
  179SLPC   H7X20419   3.600   5.322   3.942  0.2085 -0.7991 -1.2156
  179SLPC   H7Y20420   3.492   5.183   3.964  0.3468 -0.0008 -0.1606
  179SLPC   C3820421   3.474   5.330   4.120 -0.5651 -0.2157 -0.0996
  179SLPC   H8X20422   3.482   5.441   4.113 -0.8156 -0.1143  1.0398
  179SLPC   H8Y20423   3.558   5.293   4.182 -0.3274  0.8083  0.2110
  179SLPC   C3920424   3.347   5.274   4.180 -0.0104 -0.2565 -0.2837
  179SLPC   H9X20425   3.364   5.164   4.186  1.6721  0.0532  2.0851
  179SLPC   H9Y20426   3.253   5.279   4.122 -0.9016 -0.4675  1.1140
  179SLPC  C31020427   3.319   5.318   4.326 -0.7687 -0.1450 -0.2916
  179SLPC  H10X20428   3.214   5.305   4.360 -2.0699  4.0951 -2.0850
  179SLPC  H10Y20429   3.345   5.426   4.323  0.2114 -0.3269  0.8393
  179SLPC  C31120430   3.417   5.269   4.438 -0.5068  0.9853 -0.8556
  179SLPC  H11X20431   3.511   5.327   4.427  0.3933 -0.2757 -0.0967
  179SLPC  H11Y20432   3.450   5.167   4.408  3.4535  1.4542  1.1915
  179SLPC  C31220433   3.360   5.268   4.582 -0.1679  0.3721  0.1766
  179SLPC  H12X20434   3.283   5.188   4.592 -1.0222  1.1907  0.2122
  179SLPC  H12Y20435   3.306   5.365   4.589  1.2299  1.1056  1.2901
  179SLPC  C31320436   3.468   5.259   4.694 -0.2398  0.0279  0.4347
  179SLPC  H13X20437   3.409   5.226   4.782 -0.2797 -0.9278  0.0587
  179SLPC  H13Y20438   3.507   5.363   4.704 -2.0906  0.9399 -1.1134
  179SLPC  C31420439   3.582   5.156   4.678 -0.1544 -0.6816 -0.4053
  179SLPC  H14X20440   3.630   5.184   4.581 -2.2990  0.7611 -1.1150
  179SLPC  H14Y20441   3.545   5.052   4.672 -0.1018 -0.7057 -0.3147
  179SLPC  C31520442   3.695   5.165   4.788  0.2149  0.3968 -0.5778
  179SLPC  H15X20443   3.647   5.152   4.888  0.3950 -1.1190 -0.6706
  179SLPC  H15Y20444   3.738   5.266   4.772 -0.1802  0.4561 -1.2831
  179SLPC  C31620445   3.798   5.058   4.762  0.4455 -0.1666 -0.1683
  179SLPC  H16X20446   3.837   5.060   4.658  1.7688  1.8230  0.3165
  179SLPC  H16Y20447   3.749   4.958   4.762  3.1237 -1.6102  1.2455
  179SLPC  C31720448   3.915   5.061   4.858 -0.6076  0.0690  0.1944
  179SLPC  H17X20449   3.878   5.036   4.960  0.0895  0.5337  0.5645
  179SLPC  H17Y20450   3.953   5.165   4.864  0.1719 -0.2387  0.6808
  179SLPC  C31820451   4.015   4.952   4.826 -0.2540  0.5089  0.4316
  179SLPC  H18X20452   3.973   4.853   4.855  2.5491 -0.7097  0.7145
  179SLPC  H18Y20453   4.106   4.969   4.887  2.4291 -1.7226 -2.5690
  179SLPC  H18Z20454   4.047   4.951   4.719 -0.3142  2.2720  0.3747
  180SLPC     N20455   2.136   5.003   2.960 -0.1152 -0.4400 -0.3332
  180SLPC   C1320456   2.168   5.150   2.948  0.1979  0.0662 -0.2633
  180SLPC  H13A20457   2.145   5.179   2.846 -0.5447 -1.7908 -0.6519
  180SLPC  H13B20458   2.118   5.215   3.018 -0.7903  0.6425 -1.4606
  180SLPC  H13C20459   2.273   5.174   2.958  0.3574 -0.0990 -1.4084
  180SLPC   C1420460   2.152   4.960   3.103 -0.2472  0.7354  0.2512
  180SLPC  H14A20461   2.251   4.991   3.133  0.4807  0.0477 -1.3473
  180SLPC  H14B20462   2.079   5.018   3.158 -1.8549 -0.2185 -0.7872
  180SLPC  H14C20463   2.137   4.855   3.124  1.8057  0.7880  2.3349
  180SLPC   C1520464   2.233   4.929   2.880 -0.0853  0.1033 -0.3704
  180SLPC  H15A20465   2.214   4.918   2.774  0.2746 -1.8787 -0.2709
  180SLPC  H15B20466   2.327   4.981   2.886 -2.0128  3.8347  1.4612
  180SLPC  H15C20467   2.248   4.828   2.916 -0.0658 -0.4907 -1.9432
  180SLPC   C1220468   2.003   4.964   2.917 -0.7090  0.6257  0.1309
  180SLPC  H12A20469   1.986   4.859   2.934  0.5660 -0.2846 -3.4243
  180SLPC  H12B20470   1.988   4.972   2.810  0.0568  1.8590  0.0989
  180SLPC   C1120471   1.882   5.040   2.979 -0.5916 -0.4164 -0.0796
  180SLPC  H11A20472   1.786   5.036   2.923 -0.1900  1.2500 -0.9546
  180SLPC  H11B20473   1.903   5.149   2.976 -0.6806 -0.4199 -1.4539
  180SLPC     P20474   1.759   4.920   3.165 -0.4097 -0.3118 -0.1597
  180SLPC   O1320475   1.625   4.944   3.103  0.0930  0.3678 -0.6351
  180SLPC   O1420476   1.808   4.782   3.164  0.1294  0.2909  0.3263
  180SLPC   O1220477   1.870   5.016   3.119 -0.3033 -0.3337  0.4216
  180SLPC   O1120478   1.757   4.974   3.314  0.3348 -0.3290 -0.6999
  180SLPC    C120479   1.670   5.080   3.356  0.6709 -0.2447  0.3450
  180SLPC    HA20480   1.721   5.175   3.329 -2.3451  1.7520  1.1569
  180SLPC    HB20481   1.567   5.084   3.314 -0.1471  1.6342  2.3277
  180SLPC    C220482   1.669   5.072   3.507 -0.1770 -0.6392 -0.7950
  180SLPC    HS20483   1.774   5.102   3.529 -0.3620  0.7046 -1.6058
  180SLPC   O2120484   1.642   4.939   3.556 -0.7990 -0.9605  0.2524
  180SLPC   C2120485   1.530   4.879   3.531 -0.1067  0.1912  0.1372
  180SLPC   O2220486   1.432   4.923   3.475  0.1124 -0.2857 -0.8880
  180SLPC   C2220487   1.547   4.734   3.584 -0.1513 -0.3782 -0.1986
  180SLPC   H2R20488   1.453   4.676   3.581 -1.6116  1.8273  0.3039
  180SLPC   H2S20489   1.605   4.678   3.508  1.3712  1.0106 -0.1203
  180SLPC    C320490   1.573   5.175   3.578  0.2562 -0.8611  0.4496
  180SLPC    HX20491   1.469   5.137   3.576  0.8870 -2.6687  0.0888
  180SLPC    HY20492   1.569   5.271   3.522 -3.2656 -1.4726 -0.6131
  180SLPC   O3120493   1.616   5.177   3.709 -0.0709 -0.6458 -0.6410
  180SLPC   C3120494   1.647   5.302   3.755  0.9956 -0.2163  0.2180
  180SLPC   O3220495   1.663   5.400   3.683  0.5284  0.3581 -0.3571
  180SLPC   C3220496   1.673   5.303   3.908 -0.2113 -0.4324 -1.2434
  180SLPC   H2X20497   1.755   5.231   3.926  1.6325  1.9513  0.4879
  180SLPC   H2Y20498   1.584   5.258   3.957 -0.6195  0.9873 -0.6503
  180SLPC   C2320499   1.634   4.724   3.717  0.4379  0.5229 -0.5341
  180SLPC   H3R20500   1.740   4.757   3.712  1.2588 -1.2953  2.3535
  180SLPC   H3S20501   1.634   4.614   3.727  0.8286  0.1480 -3.6750
  180SLPC   C2420502   1.570   4.792   3.835 -0.2000  0.5734  0.4762
  180SLPC   H4R20503   1.459   4.794   3.830 -0.2000  1.0847  0.5798
  180SLPC   H4S20504   1.595   4.898   3.813 -2.5004  0.3466 -4.9148
  180SLPC   C2520505   1.634   4.733   3.965 -0.4999  0.1837 -0.0320
  180SLPC   H5R20506   1.744   4.740   3.954 -0.3465 -1.9305 -0.4055
  180SLPC   H5S20507   1.621   4.622   3.962  2.0730 -0.2124  1.2205
  180SLPC   C2620508   1.579   4.783   4.101  0.3370 -0.6361  0.0316
  180SLPC   H6R20509   1.639   4.733   4.180 -1.3385  1.2242  2.6123
  180SLPC   H6S20510   1.471   4.757   4.111 -0.1810 -0.5143 -3.6392
  180SLPC   C2720511   1.587   4.939   4.123 -0.9533 -0.5618  0.4793
  180SLPC   H7R20512   1.514   4.988   4.056  0.7901  1.8344  0.2080
  180SLPC   H7S20513   1.691   4.976   4.108 -0.3701 -1.9663  0.8756
  180SLPC   C2820514   1.545   4.973   4.270  0.3014 -0.1116 -0.5332
  180SLPC   H8R20515   1.440   4.940   4.284 -0.4678  2.4669  0.1921
  180SLPC   H8S20516   1.534   5.083   4.268 -0.4227 -0.1897 -1.2656
  180SLPC   C2920517   1.621   4.924   4.397 -0.4834 -0.4226 -0.4353
  180SLPC   H9R20518   1.731   4.936   4.395 -0.4562  0.2334  1.7943
  180SLPC  C21020519   1.565   4.879   4.505 -0.1965  0.0988 -0.5472
  180SLPC  H10R20520   1.632   4.862   4.591  1.4813 -0.4491 -1.8863
  180SLPC  C21120521   1.415   4.852   4.526  0.7588  0.2166 -0.2972
  180SLPC  H11R20522   1.369   4.813   4.432  0.4484  1.9450 -0.8846
  180SLPC  H11S20523   1.362   4.945   4.556 -1.8199 -1.7610  1.8078
  180SLPC  C21220524   1.388   4.759   4.646  0.3637  0.3343 -0.3462
  180SLPC  H12R20525   1.326   4.671   4.624  1.3828 -0.6829  0.7160
  180SLPC  C21320526   1.397   4.794   4.777 -0.0751  0.1990  0.3647
  180SLPC  H13R20527   1.370   4.720   4.854 -2.3494  0.8804  0.3000
  180SLPC  C21420528   1.455   4.917   4.845  0.2148 -0.3444  0.4855
  180SLPC  H14R20529   1.474   4.995   4.768  0.1132  0.3746  1.1778
  180SLPC  H14S20530   1.547   4.900   4.904  1.1078  1.5828 -0.2379
  180SLPC  C21520531   1.350   4.983   4.939 -0.8273 -0.0359  0.4326
  180SLPC  H15R20532   1.312   4.912   5.015  0.3364 -1.6365 -0.4070
  180SLPC  H15S20533   1.263   5.024   4.884  0.5156  3.0091  0.3829
  180SLPC  C21620534   1.426   5.091   5.020  0.1982 -0.0411 -0.1723
  180SLPC  H16R20535   1.499   5.150   4.960  1.4517  0.5453  1.8177
  180SLPC  H16S20536   1.493   5.053   5.100 -0.8126 -0.1741  0.6319
  180SLPC  C21720537   1.331   5.181   5.088 -0.7608  0.4529 -0.0510
  180SLPC  H17R20538   1.263   5.118   5.149  1.8963 -2.3291  0.2928
  180SLPC  H17S20539   1.274   5.234   5.010  0.2094 -0.3416 -1.3422
  180SLPC  C21820540   1.394   5.289   5.181  0.6153  0.2175  0.0822
  180SLPC  H18R20541   1.458   5.226   5.245  0.0132 -0.7333 -0.2316
  180SLPC  H18S20542   1.316   5.340   5.241 -0.1800 -0.1201 -0.6444
  180SLPC  H18T20543   1.458   5.365   5.131  1.5549 -0.3506  0.3966
  180SLPC   C3320544   1.701   5.446   3.967 -0.6932  0.0268 -0.5889
  180SLPC   H3X20545   1.604   5.496   3.990  0.2598  1.2001  1.0823
  180SLPC   H3Y20546   1.763   5.507   3.899 -2.7562  1.2020 -1.5087
  180SLPC   C3420547   1.781   5.434   4.100 -0.3548 -0.1862 -0.4181
  180SLPC   H4X20548   1.802   5.533   4.147 -0.1182  0.0759 -1.0699
  180SLPC   H4Y20549   1.879   5.385   4.078 -1.2363 -1.3969 -1.7646
  180SLPC   C3520550   1.717   5.340   4.200  0.3116 -0.1441  0.1380
  180SLPC   H5X20551   1.737   5.236   4.166 -0.3959 -0.3178  0.2344
  180SLPC   H5Y20552   1.610   5.371   4.193 -0.1401 -1.6264  0.1029
  180SLPC   C3620553   1.752   5.364   4.347 -0.5101 -0.6027  1.0162
  180SLPC   H6X20554   1.740   5.472   4.371  2.2519  0.2344 -0.9289
  180SLPC   H6Y20555   1.856   5.339   4.375 -0.2041  0.2117  0.6343
  180SLPC   C3720556   1.675   5.275   4.446  0.9766  0.0159 -0.5654
  180SLPC   H7X20557   1.692   5.170   4.411  0.6087  0.8376 -3.4726
  180SLPC   H7Y20558   1.571   5.311   4.450  1.3722  1.0764  1.7668
  180SLPC   C3820559   1.742   5.288   4.587  0.1620 -0.9690  0.3386
  180SLPC   H8X20560   1.716   5.395   4.602  1.3122 -0.3961 -1.4970
  180SLPC   H8Y20561   1.853   5.291   4.581  0.2467  2.3147  1.2827
  180SLPC   C3920562   1.700   5.191   4.693 -0.3669 -0.1603 -0.3191
  180SLPC   H9X20563   1.747   5.096   4.660 -1.6915 -0.4627 -1.4372
  180SLPC   H9Y20564   1.591   5.169   4.698 -0.4801  0.3168 -0.6756
  180SLPC  C31020565   1.752   5.227   4.829  0.0110  0.1732 -1.0135
  180SLPC  H10X20566   1.716   5.157   4.907  0.9052 -0.4483 -1.1439
  180SLPC  H10Y20567   1.730   5.333   4.856  0.7133 -0.1145  0.8346
  180SLPC  C31120568   1.904   5.200   4.826  0.3170  0.1790  0.3942
  180SLPC  H11X20569   1.960   5.295   4.808 -0.7019  0.5243 -1.1124
  180SLPC  H11Y20570   1.930   5.126   4.748 -0.6015  0.3033 -0.0439
  180SLPC  C31220571   1.964   5.152   4.957 -0.2416 -0.5218 -1.3385
  180SLPC  H12X20572   1.909   5.065   4.998  1.8860 -1.3780 -0.1842
  180SLPC  H12Y20573   1.956   5.228   5.038  1.2957  0.6832 -2.2672
  180SLPC  C31320574   2.105   5.109   4.946 -0.4246  0.1186 -0.0071
  180SLPC  H13X20575   2.175   5.188   4.909  1.0803 -0.7759  0.8183
  180SLPC  H13Y20576   2.105   5.048   4.853  0.1995  0.4530 -0.2380
  180SLPC  C31420577   2.152   5.034   5.068 -0.1806  0.4567  0.4179
  180SLPC  H14X20578   2.079   5.040   5.152 -2.0470 -1.9512 -0.9139
  180SLPC  H14Y20579   2.248   5.080   5.100  0.7172 -1.4311  0.5853
  180SLPC  C31520580   2.179   4.888   5.022  0.1580  0.7404 -0.5352
  180SLPC  H15X20581   2.261   4.874   4.948 -0.1346  1.3542 -0.9824
  180SLPC  H15Y20582   2.087   4.851   4.972 -0.0159 -1.5116  1.2518
  180SLPC  C31620583   2.211   4.805   5.143 -0.1417  0.6214  0.0130
  180SLPC  H16X20584   2.271   4.865   5.214  1.0194 -0.1203 -0.3181
  180SLPC  H16Y20585   2.267   4.715   5.108  0.4042  0.1496  1.9845
  180SLPC  C31720586   2.097   4.759   5.232  0.1211 -0.0805 -0.0369
  180SLPC  H17X20587   2.016   4.709   5.175 -1.6181  2.2010  0.2792
  180SLPC  H17Y20588   2.043   4.844   5.278  1.0181 -0.2847  1.4346
  180SLPC  C31820589   2.151   4.672   5.348  0.2887  0.5890  0.0657
  180SLPC  H18X20590   2.232   4.723   5.406 -0.3080  1.0617  0.4922
  180SLPC  H18Y20591   2.190   4.573   5.315  0.2227  0.1767  1.1839
  180SLPC  H18Z20592   2.067   4.648   5.416 -0.3523  0.0910 -0.8905
  181SLPC     N20593   0.589   3.432   2.626 -0.2916 -0.2557 -0.3627
  181SLPC   C1320594   0.599   3.558   2.551 -0.3628 -0.2457 -0.5643
  181SLPC  H13A20595   0.672   3.619   2.601  0.1070 -1.4946  0.3292
  181SLPC  H13B20596   0.619   3.540   2.446  1.6074  1.3483 -0.5063
  181SLPC  H13C20597   0.501   3.600   2.567 -0.0949 -0.7666  3.5481
  181SLPC   C1420598   0.712   3.356   2.617  0.6030 -0.1988 -0.3354
  181SLPC  H14A20599   0.722   3.269   2.681  0.8110 -0.6782 -1.0089
  181SLPC  H14B20600   0.727   3.327   2.514  1.3746  0.3210 -0.3786
  181SLPC  H14C20601   0.804   3.411   2.629  0.6873 -0.1597 -1.1074
  181SLPC   C1520602   0.482   3.344   2.566 -0.2625  0.6651  0.6119
  181SLPC  H15A20603   0.489   3.309   2.464  1.6149 -0.4026  1.0575
  181SLPC  H15B20604   0.464   3.249   2.614 -1.2540  0.6358  0.2234
  181SLPC  H15C20605   0.385   3.388   2.584 -0.0642  1.3673  0.0035
  181SLPC   C1220606   0.553   3.470   2.771 -0.3869  0.2843 -1.4272
  181SLPC  H12A20607   0.468   3.536   2.765 -0.3954  0.1659 -3.4371
  181SLPC  H12B20608   0.637   3.531   2.802 -0.0225 -0.1777 -1.4925
  181SLPC   C1120609   0.521   3.360   2.873  0.2691 -0.2275  0.1425
  181SLPC  H11A20610   0.437   3.294   2.839  0.5594 -2.1782  2.8831
  181SLPC  H11B20611   0.475   3.401   2.965 -1.5231  0.0374 -0.8146
  181SLPC     P20612   0.663   3.139   2.914  0.0076  0.0982 -0.3058
  181SLPC   O1320613   0.584   3.059   2.818  0.3851  0.4181 -0.1923
  181SLPC   O1420614   0.809   3.108   2.922 -0.2551 -0.0507 -0.0523
  181SLPC   O1220615   0.644   3.293   2.892  0.1958 -0.0179 -0.0518
  181SLPC   O1120616   0.607   3.114   3.057 -1.0472  0.1113  0.3438
  181SLPC    C120617   0.665   3.179   3.172 -0.2045  0.0461  0.9247
  181SLPC    HA20618   0.776   3.170   3.177 -0.1106  0.1964 -0.4466
  181SLPC    HB20619   0.641   3.287   3.162  0.0027  0.2387  2.3585
  181SLPC    C220620   0.601   3.127   3.306  0.1356 -1.2221 -0.0387
  181SLPC    HS20621   0.635   3.021   3.301  3.4672 -0.2724  0.2578
  181SLPC   O2120622   0.459   3.153   3.311 -0.0046  0.3237  0.2372
  181SLPC   C2120623   0.388   3.054   3.364  0.3824 -0.3950 -0.7237
  181SLPC   O2220624   0.430   2.942   3.390 -0.2685 -0.0196 -0.5037
  181SLPC   C2220625   0.249   3.102   3.399  0.7189  0.1288 -0.7305
  181SLPC   H2R20626   0.247   3.172   3.485  2.3408  0.8894 -1.2803
  181SLPC   H2S20627   0.210   3.174   3.323 -1.2106 -1.0820 -0.9499
  181SLPC    C320628   0.662   3.192   3.434 -0.4049 -0.0262 -0.0948
  181SLPC    HX20629   0.653   3.302   3.433  0.4453  0.1075  1.8481
  181SLPC    HY20630   0.770   3.166   3.433  0.4254  3.0131  0.4866
  181SLPC   O3120631   0.591   3.149   3.557  0.0682 -0.2480  0.0025
  181SLPC   C3120632   0.625   3.033   3.601  0.1587  0.6177 -0.2887
  181SLPC   O3220633   0.707   2.960   3.554  0.2979 -0.1781  0.4317
  181SLPC   C3220634   0.548   2.998   3.726  0.2170 -0.1084 -0.7124
  181SLPC   H2X20635   0.446   2.966   3.698  0.0708  1.5721 -2.2781
  181SLPC   H2Y20636   0.545   3.088   3.791  1.4455 -0.3300 -0.3216
  181SLPC   C2320637   0.147   2.981   3.418  0.8039 -0.5143  0.6779
  181SLPC   H3R20638   0.153   2.904   3.338  0.0947  0.2551 -0.1415
  181SLPC   H3S20639   0.047   3.029   3.415  1.2768  0.5774  1.6797
  181SLPC   C2420640   0.144   2.903   3.550 -0.2205 -0.5037  0.6893
  181SLPC   H4R20641   0.231   2.834   3.554 -0.2569 -0.5880  0.0927
  181SLPC   H4S20642   0.054   2.837   3.548 -1.5562  1.0867  3.1902
  181SLPC   C2520643   0.143   2.975   3.691 -0.5820 -0.0767  0.4528
  181SLPC   H5R20644   0.049   3.035   3.703 -0.7941 -0.6355  1.8070
  181SLPC   H5S20645   0.230   3.044   3.688 -0.7912  0.1578 -0.8831
  181SLPC   C2620646   0.148   2.866   3.808  0.4497  0.1501  0.0682
  181SLPC   H6R20647   0.236   2.809   3.772  0.6398  0.3621  0.1979
  181SLPC   H6S20648   0.061   2.798   3.793  0.4132  0.5768 -1.8988
  181SLPC   C2720649   0.157   2.929   3.949 -0.4438  0.5394  0.4396
  181SLPC   H7R20650   0.082   3.009   3.965 -0.0545  1.5773 -2.4191
  181SLPC   H7S20651   0.257   2.978   3.949 -0.8126  1.2984 -0.2539
  181SLPC   C2820652   0.147   2.818   4.053  0.3740 -0.4413 -0.5520
  181SLPC   H8R20653   0.225   2.742   4.034 -0.6575 -0.9891 -2.9852
  181SLPC   H8S20654   0.050   2.769   4.031  0.5135  0.3109 -3.1778
  181SLPC   C2920655   0.133   2.868   4.195  0.3012 -0.6377 -0.1025
  181SLPC   H9R20656   0.172   2.971   4.199  0.2926 -0.6165 -0.4941
  181SLPC  C21020657   0.072   2.819   4.304  0.0309 -0.0946 -0.4143
  181SLPC  H10R20658   0.060   2.886   4.390  0.8649  1.3824 -1.4156
  181SLPC  C21120659   0.011   2.681   4.326 -0.3981  0.1782  0.2272
  181SLPC  H11R20660   0.086   2.619   4.380 -1.3611 -2.2678 -1.1111
  181SLPC  H11S20661  -0.002   2.628   4.229 -2.3393 -1.2580  1.1945
  181SLPC  C21220662  -0.112   2.661   4.400 -0.3028  0.6420  0.4831
  181SLPC  H12R20663  -0.198   2.654   4.331 -0.2381 -2.0246  0.5683
  181SLPC  C21320664  -0.130   2.634   4.538 -0.2466 -0.2687  0.1480
  181SLPC  H13R20665  -0.227   2.625   4.589  0.1369 -0.7850  0.8046
  181SLPC  C21420666  -0.011   2.631   4.639 -0.1749  0.2386 -0.5442
  181SLPC  H14R20667   0.073   2.701   4.618  1.1880 -1.4316 -0.9896
  181SLPC  H14S20668   0.042   2.533   4.641 -0.6823 -0.0253  0.2726
  181SLPC  C21520669  -0.068   2.660   4.775  0.4610 -0.4213  0.5073
  181SLPC  H15R20670  -0.138   2.576   4.799  0.2970 -0.5794 -0.4474
  181SLPC  H15S20671  -0.127   2.754   4.778 -0.3836 -0.7960 -1.7444
  181SLPC  C21620672   0.043   2.668   4.883  0.2335 -0.1574  0.1745
  181SLPC  H16R20673   0.100   2.762   4.870 -0.3333  0.0596 -0.7791
  181SLPC  H16S20674   0.109   2.585   4.848  1.3292  0.9528 -0.4900
  181SLPC  C21720675   0.012   2.647   5.029 -0.4927 -0.6788 -0.6971
  181SLPC  H17R20676   0.101   2.656   5.096 -0.6204  1.5628 -0.7294
  181SLPC  H17S20677  -0.025   2.544   5.045 -1.9931 -0.3113 -1.6080
  181SLPC  C21820678  -0.092   2.742   5.080 -0.1538  0.0351 -0.7717
  181SLPC  H18R20679  -0.114   2.706   5.183  2.3560  0.5283 -0.0042
  181SLPC  H18S20680  -0.177   2.735   5.009  1.0501 -2.2815 -2.1228
  181SLPC  H18T20681  -0.049   2.844   5.088 -0.1891 -0.1261  3.2498
  181SLPC   C3320682   0.621   2.875   3.792 -0.7744 -0.5727  0.0545
  181SLPC   H3X20683   0.731   2.891   3.797 -0.9420  0.4309  0.7121
  181SLPC   H3Y20684   0.602   2.786   3.728 -0.2581 -0.8633  0.2987
  181SLPC   C3420685   0.570   2.828   3.931  0.0592 -0.1254 -0.3992
  181SLPC   H4X20686   0.594   2.720   3.932  1.0295  0.0789 -0.4901
  181SLPC   H4Y20687   0.460   2.839   3.940  0.1625  0.8957 -0.2583
  181SLPC   C3520688   0.653   2.900   4.040  0.3057 -0.3067  0.1577
  181SLPC   H5X20689   0.648   3.011   4.029 -0.0039 -0.2242  1.0390
  181SLPC   H5Y20690   0.762   2.879   4.030  0.5917  1.7042 -1.8225
  181SLPC   C3620691   0.606   2.872   4.186 -0.4872  0.1745 -0.1141
  181SLPC   H6X20692   0.605   2.761   4.191  0.2066  0.0526 -1.8901
  181SLPC   H6Y20693   0.502   2.909   4.195 -0.3656  0.5561 -0.2270
  181SLPC   C3720694   0.699   2.954   4.275  0.0095  0.3975 -0.1763
  181SLPC   H7X20695   0.690   3.058   4.237  3.8932 -0.5114 -4.4717
  181SLPC   H7Y20696   0.802   2.924   4.247 -0.0826  2.3713 -3.0208
  181SLPC   C3820697   0.669   2.935   4.419 -0.2587  0.5121 -0.8117
  181SLPC   H8X20698   0.663   2.825   4.437 -1.9378  0.8095  0.7366
  181SLPC   H8Y20699   0.574   2.984   4.450 -1.2619 -1.9824  0.3416
  181SLPC   C3920700   0.797   2.980   4.499  0.0477 -0.7869  0.1426
  181SLPC   H9X20701   0.835   3.077   4.461  0.1119 -0.6257  0.6151
  181SLPC   H9Y20702   0.871   2.900   4.484  1.4068  0.4856 -0.1637
  181SLPC  C31020703   0.761   2.968   4.649  0.5745 -0.5380  0.4015
  181SLPC  H10X20704   0.691   2.884   4.667 -0.3714 -0.6094 -3.0405
  181SLPC  H10Y20705   0.706   3.059   4.684  0.5452  0.0753 -1.1674
  181SLPC  C31120706   0.889   2.951   4.729  0.1749  0.3160 -0.4719
  181SLPC  H11X20707   0.965   3.008   4.671  1.6257 -0.9501  0.1258
  181SLPC  H11Y20708   0.914   2.844   4.715 -2.0972 -0.0616 -2.2614
  181SLPC  C31220709   0.871   2.996   4.873 -0.2192 -0.2459  0.9024
  181SLPC  H12X20710   0.770   2.959   4.900 -1.8283  2.0408 -1.4918
  181SLPC  H12Y20711   0.863   3.107   4.881 -0.2283 -0.1607 -0.1424
  181SLPC  C31320712   0.979   2.942   4.969 -0.1644 -0.0523 -0.0736
  181SLPC  H13X20713   1.068   3.008   4.956  1.4649 -1.7351  1.9799
  181SLPC  H13Y20714   0.995   2.834   4.953  2.3871  0.2869 -0.1759
  181SLPC  C31420715   0.937   2.959   5.120  0.9211  0.1681 -0.4361
  181SLPC  H14X20716   1.015   2.918   5.189 -0.0775 -1.0737 -0.0048
  181SLPC  H14Y20717   0.850   2.894   5.145  1.3698 -0.4606 -0.4936
  181SLPC  C31520718   0.898   3.108   5.153 -0.2484 -0.1111  0.4221
  181SLPC  H15X20719   0.808   3.126   5.091 -0.5672 -0.1024  0.8799
  181SLPC  H15Y20720   0.980   3.168   5.107 -0.0420  0.2206  1.1971
  181SLPC  C31620721   0.889   3.140   5.297 -0.2361  0.1502 -0.3914
  181SLPC  H16X20722   0.816   3.076   5.352 -0.1892 -2.0432 -2.7059
  181SLPC  H16Y20723   0.836   3.238   5.304 -2.5134 -0.8806 -1.8620
  181SLPC  C31720724   1.021   3.142   5.373 -0.3450 -0.3472 -0.3678
  181SLPC  H17X20725   1.080   3.229   5.335  0.0558 -0.6474 -0.4416
  181SLPC  H17Y20726   1.077   3.048   5.354 -0.6642 -0.3435 -1.3598
  181SLPC  C31820727   1.014   3.174   5.522 -0.2535 -0.5203  0.0224
  181SLPC  H18X20728   0.953   3.259   5.559 -0.9242 -1.3566  0.9045
  181SLPC  H18Y20729   1.117   3.192   5.561 -0.9979  0.4112  1.6638
  181SLPC  H18Z20730   0.967   3.083   5.567 -1.4586 -0.0374 -0.2390
  182SLPC     N20731   5.091   2.610   2.927 -0.1831 -0.4476 -0.3908
  182SLPC   C1320732   5.160   2.632   2.805 -0.1471 -0.0914 -0.2183
  182SLPC  H13A20733   5.118   2.718   2.754 -0.5809 -0.0444  0.2015
  182SLPC  H13B20734   5.262   2.655   2.829 -0.0641  1.5797 -1.8841
  182SLPC  H13C20735   5.152   2.548   2.738 -0.0321 -0.1197 -0.1970
  182SLPC   C1420736   5.114   2.465   2.966 -0.0549  0.0973 -0.4709
  182SLPC  H14A20737   5.101   2.397   2.884 -2.4439  0.8041 -0.7706
  182SLPC  H14B20738   5.214   2.454   3.006 -0.2412  0.3622  0.0800
  182SLPC  H14C20739   5.032   2.434   3.029  0.7752  0.3466  0.7563
  182SLPC   C1520740   4.943   2.638   2.905 -0.3200 -0.5380 -0.9667
  182SLPC  H15A20741   4.901   2.650   3.003  0.7166 -1.0755 -0.4414
  182SLPC  H15B20742   4.926   2.733   2.855  1.5983  0.2758 -0.1573
  182SLPC  H15C20743   4.891   2.562   2.848 -1.3760 -0.7300  0.2043
  182SLPC   C1220744   5.132   2.715   3.030 -0.2694  0.2292  0.2389
  182SLPC  H12A20745   5.056   2.709   3.107  0.5636  1.9400  1.2542
  182SLPC  H12B20746   5.135   2.810   2.979  0.2324  0.2709  0.3365
  182SLPC   C1120747   5.260   2.697   3.101 -0.8115  0.5463  0.6474
  182SLPC  H11A20748   5.259   2.600   3.154  0.0203 -0.0819 -0.4434
  182SLPC  H11B20749   5.278   2.763   3.188  0.7136 -1.5048  1.9616
  182SLPC     P20750   5.438   2.861   2.992  0.1193 -0.3751 -0.1611
  182SLPC   O1320751   5.576   2.836   3.041  0.3712  0.3464 -0.2544
  182SLPC   O1420752   5.413   2.905   2.856 -0.4382 -0.4324 -0.0364
  182SLPC   O1220753   5.372   2.714   3.014 -0.0207  0.7934  0.1376
  182SLPC   O1120754   5.360   2.949   3.095  0.1169 -0.1114 -0.1309
  182SLPC    C120755   5.415   3.066   3.160  0.6595 -0.4729  0.3602
  182SLPC    HA20756   5.520   3.088   3.134  0.3726 -1.0295 -1.4377
  182SLPC    HB20757   5.351   3.151   3.126 -0.1950 -1.1983  0.1058
  182SLPC    C220758   5.395   3.062   3.315  0.7964  1.0965 -0.2536
  182SLPC    HS20759   5.446   3.150   3.361  0.0967  0.7394  1.2770
  182SLPC   O2120760   5.449   2.938   3.364  0.3569 -0.0553 -0.0943
  182SLPC   C2120761   5.498   2.946   3.489 -0.2155  0.1603  0.1400
  182SLPC   O2220762   5.508   3.052   3.550  0.0390 -0.4361  0.4330
  182SLPC   C2220763   5.535   2.808   3.558  0.0475 -0.0801 -0.4286
  182SLPC   H2R20764   5.470   2.806   3.648  1.2846  0.8098  0.5275
  182SLPC   H2S20765   5.501   2.721   3.498  2.2980 -1.2165 -0.1683
  182SLPC    C320766   5.245   3.063   3.359  0.3849 -0.6074 -0.5049
  182SLPC    HX20767   5.193   2.974   3.317 -1.4316  1.0387 -1.9204
  182SLPC    HY20768   5.203   3.157   3.318  0.1609 -1.7350 -2.9948
  182SLPC   O3120769   5.226   3.065   3.507  0.2644  0.7242 -0.1791
  182SLPC   C3120770   5.104   3.076   3.555  1.0499 -0.7401 -0.1122
  182SLPC   O3220771   5.001   3.064   3.486  0.3031  0.3651  0.1947
  182SLPC   C3220772   5.107   3.114   3.693  0.0222 -0.7581 -0.5121
  182SLPC   H2X20773   5.007   3.129   3.738 -0.2356 -0.6984 -1.0971
  182SLPC   H2Y20774   5.152   3.215   3.704 -3.5358  0.9288 -0.2511
  182SLPC   C2320775   5.681   2.798   3.605 -0.4346  0.5940  0.0306
  182SLPC   H3R20776   5.742   2.889   3.585 -0.4360  0.2626 -1.6412
  182SLPC   H3S20777   5.723   2.715   3.545  0.7413  0.8613  0.4529
  182SLPC   C2420778   5.700   2.760   3.749  0.4979 -0.4509 -0.5740
  182SLPC   H4R20779   5.810   2.755   3.761  0.3047 -1.2829  1.1467
  182SLPC   H4S20780   5.671   2.654   3.764 -1.0228 -0.3468 -2.3397
  182SLPC   C2520781   5.642   2.851   3.854 -0.4571  1.0104 -0.1835
  182SLPC   H5R20782   5.531   2.851   3.855 -0.4488  0.6692  0.6884
  182SLPC   H5S20783   5.671   2.954   3.822  1.4624  1.3897  2.4667
  182SLPC   C2620784   5.694   2.809   3.993 -0.3084  0.3407  0.6855
  182SLPC   H6R20785   5.805   2.809   3.997 -0.2681 -0.3082 -0.1929
  182SLPC   H6S20786   5.670   2.701   4.007 -0.4024 -0.1184 -2.4452
  182SLPC   C2720787   5.628   2.885   4.105  0.2934 -0.4174 -0.4358
  182SLPC   H7R20788   5.519   2.886   4.089  0.1780  0.8820  0.3375
  182SLPC   H7S20789   5.673   2.986   4.116  0.0855 -0.5425  2.1071
  182SLPC   C2820790   5.650   2.798   4.234  1.0120  0.0088 -0.6190
  182SLPC   H8R20791   5.756   2.769   4.256  1.0515  0.4283 -0.2159
  182SLPC   H8S20792   5.604   2.702   4.205  0.6622 -0.9090  2.5850
  182SLPC   C2920793   5.584   2.853   4.357 -0.1998  0.5143  0.2309
  182SLPC   H9R20794   5.535   2.948   4.332  2.6136  1.8241 -0.7511
  182SLPC  C21020795   5.556   2.778   4.466 -0.0048  0.3116  0.1109
  182SLPC  H10R20796   5.494   2.816   4.549 -2.3706 -3.9196  0.5323
  182SLPC  C21120797   5.615   2.640   4.491  0.3988 -0.2191 -0.1600
  182SLPC  H11R20798   5.701   2.628   4.421 -0.6117  0.5748 -1.5766
  182SLPC  H11S20799   5.534   2.569   4.464 -1.5828  1.5752  0.8316
  182SLPC  C21220800   5.662   2.618   4.634 -0.3866  0.5245  0.1885
  182SLPC  H12R20801   5.767   2.642   4.659  0.2163 -1.4047 -0.3597
  182SLPC  C21320802   5.584   2.571   4.730 -0.6541  0.9228 -0.1146
  182SLPC  H13R20803   5.627   2.566   4.831 -0.4126  0.2172 -0.2434
  182SLPC  C21420804   5.436   2.531   4.713 -0.7988  1.0255  0.5033
  182SLPC  H14R20805   5.437   2.475   4.617  1.5529  2.5059 -0.4249
  182SLPC  H14S20806   5.386   2.627   4.687 -1.2992  0.5351 -0.3572
  182SLPC  C21520807   5.355   2.451   4.823 -0.0306  0.1948  0.3911
  182SLPC  H15R20808   5.394   2.347   4.822 -0.3188  0.0782 -0.8888
  182SLPC  H15S20809   5.253   2.434   4.781  0.9793  1.0406 -2.7205
  182SLPC  C21620810   5.349   2.524   4.953  0.3005 -0.9648 -0.0557
  182SLPC  H16R20811   5.332   2.632   4.931  0.7375 -0.5321  1.6085
  182SLPC  H16S20812   5.454   2.527   4.989  0.8336 -0.7954 -1.5308
  182SLPC  C21720813   5.246   2.455   5.048 -0.7043 -0.1129 -0.0113
  182SLPC  H17R20814   5.266   2.493   5.150 -1.8616 -0.8318  0.5056
  182SLPC  H17S20815   5.263   2.346   5.031  1.2164  0.4103 -1.7936
  182SLPC  C21820816   5.099   2.490   5.015  0.0645  0.8502  0.5007
  182SLPC  H18R20817   5.074   2.493   4.907 -2.7127  0.4427  1.0425
  182SLPC  H18S20818   5.080   2.595   5.045 -3.8134  0.5972 -0.4928
  182SLPC  H18T20819   5.032   2.415   5.063 -0.6320  0.3909 -1.1314
  182SLPC   C3320820   5.200   3.018   3.772 -0.3026 -0.0376  0.7407
  182SLPC   H3X20821   5.302   3.038   3.733 -1.4455  2.2833 -1.3106
  182SLPC   H3Y20822   5.169   2.916   3.740 -0.0043  0.3914 -1.0240
  182SLPC   C3420823   5.190   3.036   3.925 -0.3499 -0.7210 -0.6071
  182SLPC   H4X20824   5.180   3.145   3.946 -1.3323 -0.6972 -1.1321
  182SLPC   H4Y20825   5.280   2.996   3.975 -1.2963 -1.9792  0.1428
  182SLPC   C3520826   5.088   2.953   4.004 -0.3256  0.1904 -0.2516
  182SLPC   H5X20827   5.110   2.844   3.997 -3.5895 -0.6742  1.0834
  182SLPC   H5Y20828   4.992   2.983   3.956 -0.9982 -0.5955  0.5619
  182SLPC   C3620829   5.084   2.986   4.154 -0.2896  0.0068 -0.5351
  182SLPC   H6X20830   4.987   2.947   4.193 -0.5940  0.6276 -0.6463
  182SLPC   H6Y20831   5.079   3.096   4.172 -1.6238 -0.1135 -0.0135
  182SLPC   C3720832   5.204   2.923   4.232  0.2339 -0.8234  0.3018
  182SLPC   H7X20833   5.296   2.965   4.186 -0.8751  1.2265 -0.1739
  182SLPC   H7Y20834   5.186   2.814   4.224 -0.2403 -0.7594  0.4871
  182SLPC   C3820835   5.204   2.962   4.382  0.7262  0.5212  0.0198
  182SLPC   H8X20836   5.223   3.069   4.406 -1.5157  1.1874 -0.9079
  182SLPC   H8Y20837   5.290   2.907   4.427 -1.3363 -1.1913  2.1586
  182SLPC   C3920838   5.082   2.918   4.465  0.5895  0.7980  0.2989
  182SLPC   H9X20839   5.047   2.814   4.447  2.5773  0.2797 -0.8507
  182SLPC   H9Y20840   5.002   2.986   4.428 -0.0541  0.3966  0.9433
  182SLPC  C31020841   5.099   2.925   4.619  0.4110 -0.5670 -0.6428
  182SLPC  H10X20842   5.121   3.026   4.659  3.0863 -1.4477  0.3093
  182SLPC  H10Y20843   5.177   2.851   4.646 -0.6268 -0.5184  3.0041
  182SLPC  C31120844   4.970   2.873   4.688 -0.1055  0.3068  0.4453
  182SLPC  H11X20845   4.927   2.798   4.618 -2.0657  1.3180  0.4894
  182SLPC  H11Y20846   4.893   2.952   4.671  1.4723  1.4467 -2.1261
  182SLPC  C31220847   4.998   2.804   4.819  0.8225 -0.4571 -0.0770
  182SLPC  H12X20848   5.073   2.722   4.815  0.8662 -0.4010 -0.4338
  182SLPC  H12Y20849   4.904   2.749   4.842  0.9629 -1.5806 -1.9729
  182SLPC  C31320850   5.006   2.910   4.929  0.2142 -0.6140  0.3053
  182SLPC  H13X20851   4.927   2.985   4.908  0.5480 -0.3637 -0.0731
  182SLPC  H13Y20852   5.110   2.949   4.919 -0.4986  1.2946 -0.1589
  182SLPC  C31420853   4.990   2.868   5.079 -0.4321 -0.4649  0.0210
  182SLPC  H14X20854   5.000   2.956   5.145  1.0770 -1.6303  1.4311
  182SLPC  H14Y20855   5.068   2.791   5.097 -0.9167 -0.7122  1.1516
  182SLPC  C31520856   4.851   2.806   5.112 -0.1147 -0.9481 -0.1680
  182SLPC  H15X20857   4.827   2.727   5.038  1.0755 -0.4697 -1.1034
  182SLPC  H15Y20858   4.767   2.878   5.111 -0.3775 -1.1998  1.6980
  182SLPC  C31620859   4.879   2.757   5.260  0.0528 -0.0065 -0.8850
  182SLPC  H16X20860   4.919   2.833   5.332 -1.2889 -0.1191  0.0087
  182SLPC  H16Y20861   4.948   2.671   5.252 -1.0837 -1.4329  2.6130
  182SLPC  C31720862   4.761   2.699   5.327  0.8929 -0.0661  0.2040
  182SLPC  H17X20863   4.672   2.763   5.309  0.8400 -0.0074  0.6687
  182SLPC  H17Y20864   4.791   2.702   5.434 -0.4001 -2.7893  0.7480
  182SLPC  C31820865   4.716   2.559   5.291 -0.1658  0.4400 -0.4433
  182SLPC  H18X20866   4.648   2.504   5.360 -0.2280  0.6982 -0.2978
  182SLPC  H18Y20867   4.811   2.501   5.289 -0.8966 -0.7867 -1.2972
  182SLPC  H18Z20868   4.678   2.541   5.188 -0.4169 -2.9103  0.0998
  183SLPC     N20869   1.351   4.786   2.863 -0.3561  0.6680 -0.1798
  183SLPC   C1320870   1.444   4.685   2.799 -0.1363 -0.0341  0.1040
  183SLPC  H13A20871   1.396   4.593   2.770 -0.2912  1.0543 -3.7659
  183SLPC  H13B20872   1.490   4.724   2.709  1.8775 -0.7817  0.7570
  183SLPC  H13C20873   1.519   4.655   2.870 -1.7799 -2.2037  1.0312
  183SLPC   C1420874   1.241   4.827   2.770  0.3613  0.4365 -0.1738
  183SLPC  H14A20875   1.184   4.740   2.738  1.1688  0.4594 -1.7492
  183SLPC  H14B20876   1.176   4.900   2.817 -2.4405 -2.3895  0.7352
  183SLPC  H14C20877   1.265   4.868   2.673 -1.0404 -0.1152 -0.7749
  183SLPC   C1520878   1.424   4.915   2.897 -0.0715 -0.1242 -0.0837
  183SLPC  H15A20879   1.359   4.986   2.945 -1.0830  0.0049 -1.5741
  183SLPC  H15B20880   1.515   4.897   2.952 -0.7173 -0.6476  0.8456
  183SLPC  H15C20881   1.464   4.974   2.816  2.0361 -0.1066  0.8878
  183SLPC   C1220882   1.288   4.725   2.991  0.4681 -0.6288  0.6570
  183SLPC  H12A20883   1.209   4.787   3.030  0.6682 -0.8838  1.4836
  183SLPC  H12B20884   1.365   4.739   3.066  2.1930 -0.3345 -1.0861
  183SLPC   C1120885   1.234   4.581   2.976  0.5000 -0.1220 -0.9380
  183SLPC  H11A20886   1.326   4.522   2.996  0.5794  0.0778 -0.7149
  183SLPC  H11B20887   1.195   4.563   2.874  0.1226 -0.4070 -0.7455
  183SLPC     P20888   0.987   4.623   3.051  0.5058 -0.3063  0.0810
  183SLPC   O1320889   1.007   4.773   3.056  0.2235 -0.2604 -0.0508
  183SLPC   O1420890   0.919   4.567   2.931  0.5572  0.3927  0.6246
  183SLPC   O1220891   1.130   4.549   3.074  0.3410 -0.2574 -0.3981
  183SLPC   O1120892   0.914   4.586   3.178  0.6292  0.1378 -0.1567
  183SLPC    C120893   0.961   4.626   3.306  0.3653  0.5314 -0.0668
  183SLPC    HA20894   1.048   4.696   3.314 -0.8645  1.9055  3.5538
  183SLPC    HB20895   0.872   4.680   3.345  0.1013  1.3430 -1.7268
  183SLPC    C220896   0.983   4.515   3.406 -0.4743 -1.2127 -0.0551
  183SLPC    HS20897   1.076   4.458   3.383  1.1629  1.1437  0.3861
  183SLPC   O2120898   0.868   4.437   3.413 -0.2679  0.3535  0.5371
  183SLPC   C2120899   0.864   4.331   3.337 -0.5632  0.2780  0.0161
  183SLPC   O2220900   0.953   4.288   3.263 -0.1580  0.3636 -0.2736
  183SLPC   C2220901   0.719   4.280   3.329  0.1761  0.0954  0.6881
  183SLPC   H2R20902   0.653   4.328   3.403  0.7635  1.9210  0.0853
  183SLPC   H2S20903   0.677   4.311   3.231  1.3597 -2.3338 -0.6812
  183SLPC    C320904   1.013   4.575   3.548 -0.5065  0.1764 -0.0739
  183SLPC    HX20905   0.917   4.596   3.600  0.6687  2.9692  1.1327
  183SLPC    HY20906   1.062   4.669   3.515 -0.3127 -0.3601 -1.3615
  183SLPC   O3120907   1.100   4.479   3.621  0.5657 -0.0313 -0.6808
  183SLPC   C3120908   1.200   4.532   3.689 -0.3457  0.1789 -0.4029
  183SLPC   O3220909   1.218   4.653   3.706 -0.3794 -0.2681  0.1291
  183SLPC   C3220910   1.283   4.415   3.749 -0.6193  0.3004 -0.4908
  183SLPC   H2X20911   1.375   4.403   3.688 -0.4781  1.0130 -0.4262
  183SLPC   H2Y20912   1.229   4.320   3.733  0.8919 -0.7878  0.6143
  183SLPC   C2320913   0.711   4.124   3.357  0.1289 -0.2973 -0.1205
  183SLPC   H3R20914   0.804   4.075   3.322  0.9923  1.6769 -0.7429
  183SLPC   H3S20915   0.628   4.092   3.291  0.8524 -0.5240 -0.9360
  183SLPC   C2420916   0.682   4.097   3.508  0.4174  0.1430  0.4492
  183SLPC   H4R20917   0.601   4.167   3.539 -0.4455  0.8158 -2.9150
  183SLPC   H4S20918   0.773   4.115   3.568 -0.2325  0.3847  1.3969
  183SLPC   C2520919   0.631   3.951   3.541 -0.3627 -0.2223 -0.3657
  183SLPC   H5R20920   0.705   3.888   3.487  0.3037 -0.2081  0.5067
  183SLPC   H5S20921   0.531   3.950   3.493 -1.0355  3.3025  0.7113
  183SLPC   C2620922   0.631   3.909   3.687 -0.3150 -0.5691 -0.7552
  183SLPC   H6R20923   0.736   3.895   3.720  0.1312  1.7595 -1.0091
  183SLPC   H6S20924   0.578   3.811   3.696  0.2659 -0.7485  1.0879
  183SLPC   C2720925   0.584   4.022   3.775  0.2690 -0.2897 -0.0952
  183SLPC   H7R20926   0.477   4.029   3.744  0.3718 -1.2447 -0.7084
  183SLPC   H7S20927   0.636   4.117   3.747  0.2095 -1.0030 -2.9072
  183SLPC   C2820928   0.581   4.008   3.929  0.2579  0.4559  0.5446
  183SLPC   H8R20929   0.527   4.094   3.973 -0.0698  0.5708 -0.0602
  183SLPC   H8S20930   0.687   4.005   3.960  1.3567 -0.8567 -2.8247
  183SLPC   C2920931   0.511   3.876   3.972 -0.0887  0.2554  0.4777
  183SLPC   H9R20932   0.487   3.801   3.896 -2.6200  1.7701 -0.3185
  183SLPC  C21020933   0.459   3.847   4.090 -0.1272 -0.4343  0.2463
  183SLPC  H10R20934   0.418   3.747   4.106 -0.9362 -0.4663 -1.7107
  183SLPC  C21120935   0.465   3.939   4.203  0.0907 -0.2404 -0.6952
  183SLPC  H11R20936   0.364   3.970   4.238 -0.2167  0.1436 -1.8457
  183SLPC  H11S20937   0.520   4.035   4.192  0.2096 -0.0611  1.1633
  183SLPC  C21220938   0.539   3.852   4.304 -0.0103 -0.3723 -0.5168
  183SLPC  H12R20939   0.639   3.830   4.261  0.8239  0.9345  0.6747
  183SLPC  C21320940   0.510   3.826   4.435 -0.2813 -0.4627  0.8740
  183SLPC  H13R20941   0.586   3.779   4.498  1.2555  0.1717 -0.4610
  183SLPC  C21420942   0.379   3.855   4.510 -0.0425  0.6570 -0.3846
  183SLPC  H14R20943   0.338   3.770   4.569  0.7986  1.4437  1.4119
  183SLPC  H14S20944   0.297   3.895   4.446  0.7798  1.2226 -1.0948
  183SLPC  C21520945   0.417   3.961   4.618  0.1843 -0.1297 -0.3377
  183SLPC  H15R20946   0.325   3.998   4.668  1.2421  1.0910  0.7672
  183SLPC  H15S20947   0.464   4.052   4.577  3.2053 -1.1921  0.5321
  183SLPC  C21620948   0.515   3.917   4.732 -0.4438  0.0667 -0.0426
  183SLPC  H16R20949   0.542   4.018   4.770  0.8875 -0.4149  0.3624
  183SLPC  H16S20950   0.611   3.879   4.689 -0.5801  0.4060 -0.6521
  183SLPC  C21720951   0.461   3.834   4.848  0.0963  0.2701 -0.1363
  183SLPC  H17R20952   0.528   3.848   4.936  0.0942  1.5210 -0.3130
  183SLPC  H17S20953   0.451   3.728   4.817  0.2378  0.4650 -0.8565
  183SLPC  C21820954   0.325   3.871   4.905 -0.5584 -0.4256  0.3659
  183SLPC  H18R20955   0.250   3.868   4.823  0.0183  0.4539 -0.2207
  183SLPC  H18S20956   0.323   3.966   4.962 -0.8224 -0.8711  1.1126
  183SLPC  H18T20957   0.305   3.801   4.989 -0.9393 -0.1460  0.5113
  183SLPC   C3320958   1.322   4.443   3.896  0.0876  0.3060 -0.3582
  183SLPC   H3X20959   1.357   4.546   3.919 -0.0311  0.1859  0.3899
  183SLPC   H3Y20960   1.409   4.379   3.920  0.5178  1.4892  1.5127
  183SLPC   C3420961   1.220   4.386   4.000 -1.3283  0.1482  0.1255
  183SLPC   H4X20962   1.280   4.379   4.093  1.1290 -3.1859 -1.5037
  183SLPC   H4Y20963   1.182   4.291   3.958 -1.6698  0.7282 -0.9029
  183SLPC   C3520964   1.109   4.484   4.017 -0.0295 -0.4008 -0.1501
  183SLPC   H5X20965   1.023   4.434   4.067 -2.5857  1.9734 -1.8605
  183SLPC   H5Y20966   1.065   4.527   3.925  0.9460 -1.4024 -1.1124
  183SLPC   C3620967   1.145   4.603   4.115  0.0970  0.2624 -0.0238
  183SLPC   H6X20968   1.083   4.694   4.102  0.2322  0.3776  0.1205
  183SLPC   H6Y20969   1.248   4.636   4.091  0.2105  0.0219  0.1177
  183SLPC   C3720970   1.157   4.567   4.270  0.5167  0.9147  0.9812
  183SLPC   H7X20971   1.205   4.651   4.324  2.1961  2.0479 -2.0045
  183SLPC   H7Y20972   1.212   4.471   4.284 -2.4104 -1.1369 -0.4494
  183SLPC   C3820973   1.019   4.530   4.336 -0.5315 -0.3421  0.0772
  183SLPC   H8X20974   0.968   4.445   4.286 -0.6979 -1.5450  2.1395
  183SLPC   H8Y20975   0.961   4.622   4.316 -1.2254 -0.1668  2.5782
  183SLPC   C3920976   1.043   4.507   4.484 -0.4187  0.1041  0.3600
  183SLPC   H9X20977   1.110   4.587   4.524  0.4609  0.2913 -1.3866
  183SLPC   H9Y20978   1.119   4.425   4.485  1.4044  1.6236 -2.2101
  183SLPC  C31020979   0.914   4.486   4.558  0.5259  0.1153  0.9055
  183SLPC  H10X20980   0.855   4.400   4.521 -0.6436  1.4822 -0.5206
  183SLPC  H10Y20981   0.849   4.576   4.552 -1.0544 -1.0194  0.2524
  183SLPC  C31120982   0.936   4.459   4.706 -0.0558  0.1602  0.2813
  183SLPC  H11X20983   1.006   4.373   4.713  3.0151  2.3594 -0.7458
  183SLPC  H11Y20984   0.837   4.448   4.755 -0.0680 -0.3349  0.1518
  183SLPC  C31220985   1.014   4.576   4.766 -0.4884  0.7546 -0.3722
  183SLPC  H12X20986   0.966   4.673   4.741 -0.4211  0.7610 -0.4782
  183SLPC  H12Y20987   1.118   4.584   4.727 -0.4583 -2.1064 -1.1251
  183SLPC  C31320988   1.013   4.561   4.914 -0.7432 -1.2687  0.4944
  183SLPC  H13X20989   1.075   4.479   4.956  2.7409  1.2628  0.6438
  183SLPC  H13Y20990   0.909   4.541   4.950 -1.1421  2.2881  1.7144
  183SLPC  C31420991   1.068   4.685   4.988  0.4947 -0.4301  0.2547
  183SLPC  H14X20992   0.998   4.761   4.946 -0.8693 -0.8821  1.6002
  183SLPC  H14Y20993   1.170   4.710   4.953 -0.6076  0.7203 -2.4309
  183SLPC  C31520994   1.064   4.679   5.137 -0.6503  0.2164 -0.5046
  183SLPC  H15X20995   1.086   4.784   5.167  0.4923 -0.2443  0.3448
  183SLPC  H15Y20996   1.146   4.617   5.179 -2.1557 -1.7347 -0.3162
  183SLPC  C31620997   0.921   4.652   5.191 -0.2391  0.8853  0.5803
  183SLPC  H16X20998   0.898   4.552   5.148  0.8580  0.9993 -0.3282
  183SLPC  H16Y20999   0.848   4.721   5.144  0.9134  0.1942 -2.5072
  183SLPC  C31721000   0.891   4.657   5.340 -0.0167 -0.1255  0.2151
  183SLPC  H17X21001   0.944   4.579   5.399 -0.2633  1.8238  3.2609
  183SLPC  H17Y21002   0.784   4.636   5.362  0.2940 -2.3170 -0.1049
  183SLPC  C31821003   0.920   4.800   5.398  0.3252  0.1653 -0.3013
  183SLPC  H18X21004   0.856   4.873   5.344 -1.0487  0.2748  1.3593
  183SLPC  H18Y21005   1.027   4.828   5.389  0.2752  0.1481 -0.9348
  183SLPC  H18Z21006   0.910   4.808   5.509  1.1138 -0.2610 -0.1969
  184SLPC     N21007   4.505   0.014   2.554 -0.3606 -0.0867  0.4099
  184SLPC   C1321008   4.378  -0.038   2.608  0.7576  0.0142  0.8834
  184SLPC  H13A21009   4.388  -0.058   2.714  1.4261  1.2485  1.0698
  184SLPC  H13B21010   4.298   0.033   2.590  0.4264 -0.1130  1.7816
  184SLPC  H13C21011   4.336  -0.128   2.567  0.4500  0.1134  0.9747
  184SLPC   C1421012   4.540   0.140   2.624  0.2309 -0.1331 -0.0652
  184SLPC  H14A21013   4.456   0.207   2.613  0.0537 -0.5124 -1.1985
  184SLPC  H14B21014   4.556   0.122   2.729  1.4237  2.1565  0.2050
  184SLPC  H14C21015   4.625   0.190   2.580 -2.0523  2.3495 -1.9701
  184SLPC   C1521016   4.478   0.057   2.408 -0.1336  0.0240 -0.1780
  184SLPC  H15A21017   4.432  -0.022   2.351 -0.3504 -1.0382  1.3924
  184SLPC  H15B21018   4.409   0.139   2.406 -1.0266 -0.5549  2.6211
  184SLPC  H15C21019   4.565   0.093   2.354  0.0034  2.3449  1.4192
  184SLPC   C1221020   4.620  -0.084   2.561 -0.1053 -0.2993 -0.4674
  184SLPC  H12A21021   4.706  -0.031   2.524  0.7282 -0.7016  0.7997
  184SLPC  H12B21022   4.600  -0.167   2.495 -0.6541 -1.1276  0.7145
  184SLPC   C1121023   4.655  -0.147   2.696 -0.3271  0.2961  0.5962
  184SLPC  H11A21024   4.578  -0.222   2.724  0.3884  0.3432  2.8700
  184SLPC  H11B21025   4.658  -0.070   2.777 -0.2477 -0.4055  1.2774
  184SLPC     P21026   4.909  -0.190   2.767 -0.0715 -0.2386  0.3798
  184SLPC   O1321027   5.021  -0.281   2.732 -0.1655 -0.4307 -0.0076
  184SLPC   O1421028   4.944  -0.045   2.764  0.0526 -0.0593  0.0579
  184SLPC   O1221029   4.781  -0.221   2.673  0.4025  0.2079  0.4841
  184SLPC   O1121030   4.873  -0.232   2.917  0.6289 -0.0522 -0.7332
  184SLPC    C121031   4.810  -0.362   2.926  0.2972  0.3314 -0.3016
  184SLPC    HA21032   4.700  -0.350   2.936  0.1491 -1.5010  0.6263
  184SLPC    HB21033   4.831  -0.431   2.841 -0.3056  2.1374 -2.0043
  184SLPC    C221034   4.852  -0.449   3.050 -0.0418 -0.2212 -0.3873
  184SLPC    HS21035   4.815  -0.553   3.043  1.3780 -0.7375 -0.3061
  184SLPC   O2121036   4.805  -0.383   3.173  0.1593 -0.2541 -0.5475
  184SLPC   C2121037   4.691  -0.422   3.220 -0.2703 -0.0428  0.6939
  184SLPC   O2221038   4.606  -0.492   3.159 -0.8402 -0.0560  0.0885
  184SLPC   C2221039   4.684  -0.376   3.363  0.2671  0.9097  0.1572
  184SLPC   H2R21040   4.760  -0.429   3.424  0.5864  1.4698  0.2568
  184SLPC   H2S21041   4.708  -0.267   3.360 -0.1749  1.0335  0.8939
  184SLPC    C321042   5.008  -0.451   3.054 -0.2131  0.1889 -0.5675
  184SLPC    HX21043   5.052  -0.361   3.007  1.6758 -0.1604  0.4116
  184SLPC    HY21044   5.026  -0.526   2.973  1.2933 -1.0817  0.8767
  184SLPC   O3121045   5.064  -0.485   3.175 -0.0124  0.3467 -0.2916
  184SLPC   C3121046   5.045  -0.607   3.217  0.6952  0.5827  0.2920
  184SLPC   O3221047   4.974  -0.690   3.164  0.3015  0.0551 -0.2021
  184SLPC   C3221048   5.127  -0.631   3.344 -0.0652 -0.0667  0.0740
  184SLPC   H2X21049   5.150  -0.533   3.390 -0.9353 -0.4504  1.3769
  184SLPC   H2Y21050   5.222  -0.685   3.324  0.0692 -0.3237  1.3310
  184SLPC   C2321051   4.552  -0.392   3.427  0.0163 -0.6882  0.6214
  184SLPC   H3R21052   4.531  -0.501   3.427  1.5649 -1.1386 -2.8850
  184SLPC   H3S21053   4.469  -0.337   3.378  0.2302  1.1036  2.1571
  184SLPC   C2421054   4.569  -0.361   3.577 -0.8214 -0.2681 -0.1903
  184SLPC   H4R21055   4.624  -0.266   3.596  2.2564 -1.8547 -0.4856
  184SLPC   H4S21056   4.615  -0.448   3.629  2.7326  1.0613 -0.8545
  184SLPC   C2521057   4.425  -0.344   3.640 -0.2737  0.1833  0.2823
  184SLPC   H5R21058   4.359  -0.432   3.621 -0.0175  0.4015 -1.9850
  184SLPC   H5S21059   4.380  -0.265   3.577  0.3581 -1.3374 -2.2483
  184SLPC   C2621060   4.427  -0.288   3.782  0.2337 -0.2910 -0.1336
  184SLPC   H6R21061   4.323  -0.269   3.816  0.6609 -0.2395  1.1752
  184SLPC   H6S21062   4.481  -0.190   3.787 -0.3957  0.0012  1.6918
  184SLPC   C2721063   4.515  -0.360   3.886  0.4634 -0.3412 -0.3281
  184SLPC   H7R21064   4.619  -0.366   3.845  0.8907  4.1508 -0.4870
  184SLPC   H7S21065   4.473  -0.462   3.887  0.6717 -0.4251  0.1379
  184SLPC   C2821066   4.522  -0.297   4.023  1.1627  0.4197  0.0804
  184SLPC   H8R21067   4.563  -0.194   4.021  1.2610  0.4211  1.2861
  184SLPC   H8S21068   4.584  -0.360   4.090 -1.1504  0.1685  2.1368
  184SLPC   C2921069   4.392  -0.314   4.081 -0.6820  0.5850 -0.2352
  184SLPC   H9R21070   4.380  -0.420   4.108  0.0335  0.4763 -0.2998
  184SLPC  C21021071   4.287  -0.231   4.089 -0.3565  0.1259  0.0460
  184SLPC  H10R21072   4.205  -0.271   4.150  0.8375 -1.2747  0.8271
  184SLPC  C21121073   4.285  -0.084   4.049 -0.2885 -0.2592 -0.5282
  184SLPC  H11R21074   4.259  -0.076   3.942 -1.3369 -0.1569 -0.2773
  184SLPC  H11S21075   4.390  -0.049   4.054 -0.4934  0.4289 -0.9549
  184SLPC  C21221076   4.193  -0.004   4.135  0.1829 -0.4094 -0.4676
  184SLPC  H12R21077   4.204  -0.017   4.244  0.9850  2.3844 -0.1381
  184SLPC  C21321078   4.085   0.064   4.097 -0.1404 -0.0016 -0.2914
  184SLPC  H13R21079   4.035   0.127   4.172  0.2139 -0.3433  0.2330
  184SLPC  C21421080   4.039   0.096   3.960 -0.0815  0.0409  0.3111
  184SLPC  H14R21081   3.936   0.059   3.939  0.8746 -2.2013 -0.7145
  184SLPC  H14S21082   4.112   0.047   3.892  0.2532  1.0431 -0.0781
  184SLPC  C21521083   4.046   0.246   3.923  0.1343 -0.1279  0.3857
  184SLPC  H15R21084   4.150   0.285   3.915  0.1987 -0.2337  0.6825
  184SLPC  H15S21085   3.995   0.303   4.004 -0.2787  0.8359 -0.5414
  184SLPC  C21621086   3.978   0.294   3.789  0.3581  0.2592  0.2230
  184SLPC  H16R21087   3.868   0.287   3.796  0.4241  0.2783  1.5948
  184SLPC  H16S21088   4.015   0.230   3.705  0.3854  1.7477 -0.9295
  184SLPC  C21721089   4.029   0.441   3.755 -0.2336  0.8285 -0.4801
  184SLPC  H17R21090   4.093   0.447   3.665  1.5550  1.5931  0.8027
  184SLPC  H17S21091   4.072   0.491   3.844  0.7770  1.0013 -1.0575
  184SLPC  C21821092   3.910   0.530   3.728  0.0560 -0.3176 -0.6754
  184SLPC  H18R21093   3.928   0.640   3.736 -0.4238 -0.2992  0.3665
  184SLPC  H18S21094   3.825   0.512   3.797  0.8641 -1.8843 -0.0383
  184SLPC  H18T21095   3.871   0.509   3.626  1.1627 -3.7382 -0.5073
  184SLPC   C3321096   5.052  -0.714   3.449  0.5122 -0.0987  0.2015
  184SLPC   H3X21097   5.022  -0.814   3.412  2.2973 -0.5921  0.0007
  184SLPC   H3Y21098   4.954  -0.661   3.459  1.8052  2.1768  1.8171
  184SLPC   C3421099   5.131  -0.725   3.577 -0.0777  0.4875 -0.4577
  184SLPC   H4X21100   5.166  -0.625   3.609  0.1066  0.6547 -1.1640
  184SLPC   H4Y21101   5.224  -0.787   3.570  0.2198  0.9977 -1.1275
  184SLPC   C3521102   5.054  -0.788   3.701  0.0432 -0.1542  0.0411
  184SLPC   H5X21103   5.016  -0.884   3.659 -0.1137  0.5750 -1.5536
  184SLPC   H5Y21104   4.974  -0.722   3.741 -0.0799  0.1946 -0.7599
  184SLPC   C3621105   5.158  -0.820   3.810  0.4093 -0.3554  0.4266
  184SLPC   H6X21106   5.216  -0.730   3.838 -0.5703  0.2246  0.6378
  184SLPC   H6Y21107   5.219  -0.902   3.767 -0.9698 -0.3065 -1.7773
  184SLPC   C3721108   5.097  -0.863   3.946  0.3437 -0.3506  0.3515
  184SLPC   H7X21109   5.025  -0.946   3.929  0.4006 -0.1106 -1.1608
  184SLPC   H7Y21110   5.033  -0.779   3.981 -2.0432 -0.5200 -3.1018
  184SLPC   C3821111   5.202  -0.906   4.043 -0.0334 -0.3659  0.2888
  184SLPC   H8X21112   5.278  -0.827   4.057  1.0439 -0.8114 -2.5220
  184SLPC   H8Y21113   5.255  -0.996   4.005 -0.8519 -0.3555 -0.9390
  184SLPC   C3921114   5.140  -0.946   4.184 -0.3706 -0.3646  0.9150
  184SLPC   H9X21115   5.055  -1.015   4.167 -0.2932 -0.4896  1.0436
  184SLPC   H9Y21116   5.105  -0.852   4.232 -0.9925 -0.0591 -0.0891
  184SLPC  C31021117   5.248  -1.006   4.267  0.1749 -0.5258 -0.0441
  184SLPC  H10X21118   5.338  -0.943   4.279  0.9731 -1.7548  0.6584
  184SLPC  H10Y21119   5.293  -1.097   4.220  3.0649  1.6504 -1.8141
  184SLPC  C31121120   5.208  -1.036   4.416 -0.5416 -0.6881  0.6343
  184SLPC  H11X21121   5.126  -1.110   4.412  0.0830 -1.3833  0.3115
  184SLPC  H11Y21122   5.179  -0.945   4.473  0.0198  0.0948 -0.3027
  184SLPC  C31221123   5.338  -1.089   4.479  0.2062 -0.1175 -0.0639
  184SLPC  H12X21124   5.408  -1.006   4.499 -0.7813  0.5710  0.6230
  184SLPC  H12Y21125   5.396  -1.165   4.422 -1.3085 -0.5201 -1.1333
  184SLPC  C31321126   5.302  -1.145   4.622 -0.4058 -0.1423  0.3804
  184SLPC  H13X21127   5.215  -1.214   4.618  0.4426 -1.3520  1.9198
  184SLPC  H13Y21128   5.261  -1.077   4.700 -1.4136 -1.6348  1.1916
  184SLPC  C31421129   5.424  -1.219   4.672  0.2393  0.1747 -0.2664
  184SLPC  H14X21130   5.515  -1.160   4.649 -0.7198  0.8900 -2.5357
  184SLPC  H14Y21131   5.431  -1.310   4.608 -2.7119 -0.5218  0.2359
  184SLPC  C31521132   5.405  -1.280   4.811  0.2773  0.4062 -0.2787
  184SLPC  H15X21133   5.333  -1.365   4.808  0.7612 -0.0400  0.4057
  184SLPC  H15Y21134   5.371  -1.195   4.874  0.7129  1.4506 -1.4116
  184SLPC  C31621135   5.540  -1.320   4.889  1.2107 -0.4272  0.0954
  184SLPC  H16X21136   5.589  -1.391   4.819  2.3849  0.6176 -0.1965
  184SLPC  H16Y21137   5.508  -1.371   4.982 -2.1489 -0.2467 -0.8296
  184SLPC  C31721138   5.649  -1.214   4.916 -0.3799  1.0227 -0.1834
  184SLPC  H17X21139   5.678  -1.167   4.819 -0.0914  1.6289  0.1897
  184SLPC  H17Y21140   5.738  -1.269   4.955 -0.5219  1.6222  1.0085
  184SLPC  C31821141   5.611  -1.114   5.022  0.6211 -0.3469  0.0064
  184SLPC  H18X21142   5.650  -1.013   4.997 -2.6472  1.2020  0.6126
  184SLPC  H18Y21143   5.651  -1.151   5.119  0.3233 -0.4305  0.0986
  184SLPC  H18Z21144   5.501  -1.101   5.027  0.4075 -1.6288 -0.7546
  185POPC     N21145   4.051   6.431   7.337  0.2077 -0.8052 -0.7135
  185POPC   C1221146   4.058   6.405   7.180  0.1116 -0.1751 -0.0530
  185POPC  H12A21147   4.161   6.393   7.151  0.6240 -0.0029  1.5964
  185POPC  H12B21148   4.013   6.495   7.140  0.3904 -0.3699 -0.8261
  185POPC   C1321149   4.129   6.327   7.409  0.1246  0.7085  0.9635
  185POPC  H13A21150   4.234   6.337   7.382  0.2636 -0.3258  1.0603
  185POPC  H13B21151   4.118   6.337   7.516 -1.1516  1.5833  0.7593
  185POPC  H13C21152   4.095   6.230   7.375  0.7911  0.3447  1.3069
  185POPC   C1421153   4.109   6.563   7.371  0.3383 -0.3312 -1.1811
  185POPC  H14A21154   4.206   6.572   7.326  1.2708 -0.6386  0.6885
  185POPC  H14B21155   4.046   6.650   7.357  1.8640  1.2860  1.2526
  185POPC  H14C21156   4.128   6.566   7.477  0.0574  3.6818 -1.1134
  185POPC   C1521157   3.913   6.431   7.389  0.9664 -0.7815 -0.5098
  185POPC  H15A21158   3.866   6.521   7.351  3.2361 -0.1650 -2.0540
  185POPC  H15B21159   3.911   6.447   7.496 -2.2352 -0.5245 -0.4978
  185POPC  H15C21160   3.857   6.342   7.364  1.1690 -1.0751  0.0710
  185POPC   C1121161   3.978   6.287   7.129  0.0990 -0.1384 -0.1003
  185POPC  H11A21162   3.981   6.283   7.018 -1.8211 -0.0040 -0.1840
  185POPC  H11B21163   3.871   6.305   7.150 -0.7095 -1.8936 -2.3025
  185POPC     P21164   3.959   6.024   7.186 -0.0325 -0.1864 -0.1093
  185POPC   O1321165   3.839   6.050   7.264  0.2019 -0.4205 -0.5584
  185POPC   O1421166   4.044   5.911   7.220 -0.4181  0.6272 -0.1285
  185POPC   O1221167   4.028   6.163   7.185 -0.2310 -1.0997  0.3685
  185POPC   O1121168   3.910   5.997   7.036 -0.3661  0.0755 -0.0608
  185POPC    C121169   4.009   5.960   6.940  0.2343  0.7026 -0.0448
  185POPC    HA21170   4.069   5.871   6.969  1.3739  1.4879  0.0755
  185POPC    HB21171   4.074   6.049   6.923 -0.3954  0.7350 -2.6344
  185POPC    C221172   3.939   5.926   6.803 -0.2084  0.3412  0.0550
  185POPC    HS21173   3.886   5.828   6.804  0.8555 -0.2466  0.3689
  185POPC   O2121174   4.041   5.938   6.703  0.8443  0.5505 -0.0132
  185POPC   C2121175   4.041   5.842   6.617  0.3131  0.0077  0.2146
  185POPC   O2221176   3.958   5.753   6.606  0.2125 -0.3237 -0.0439
  185POPC   C2221177   4.146   5.893   6.518 -0.0826  0.0509 -0.3292
  185POPC   H2R21178   4.239   5.863   6.571 -0.6018  0.3397  0.7716
  185POPC   H2S21179   4.140   6.004   6.524 -1.6812 -0.0767  1.8207
  185POPC    C321180   3.830   6.026   6.775  0.6656 -0.1831 -0.2915
  185POPC    HX21181   3.862   6.131   6.795 -1.3868  1.0203 -2.6118
  185POPC    HY21182   3.748   6.002   6.847 -0.4126  1.1900 -0.9981
  185POPC   O3121183   3.788   6.015   6.639  0.3506  0.0306 -0.4418
  185POPC   C3121184   3.732   6.125   6.588  0.6912  0.7899  0.3906
  185POPC   O3221185   3.738   6.236   6.634  0.5420 -0.4196  0.7943
  185POPC   C3221186   3.649   6.087   6.463 -0.0997  0.3428  0.6379
  185POPC   H2X21187   3.549   6.125   6.490 -0.8356 -0.7113 -0.4573
  185POPC   H2Y21188   3.645   5.976   6.461  1.0179  0.2138 -3.4810
  185POPC   C2321189   4.124   5.842   6.369 -0.0601  0.4606  0.3403
  185POPC   H3R21190   4.120   5.731   6.372 -0.6054  0.2900 -2.9917
  185POPC   H3S21191   4.208   5.872   6.304 -0.7983  3.3820  0.5660
  185POPC   C2421192   4.003   5.886   6.294 -0.1253  0.0007  0.6780
  185POPC   H4R21193   4.004   5.996   6.276 -1.0285  0.1525  1.4754
  185POPC   H4S21194   3.907   5.871   6.347 -0.3720  0.6091  0.4263
  185POPC   C2521195   3.996   5.814   6.158 -0.1739 -0.1385 -0.9704
  185POPC   H5R21196   3.961   5.709   6.173 -0.6989  0.4005  2.1519
  185POPC   H5S21197   4.091   5.828   6.103  0.9756 -0.0890  0.9631
  185POPC   C2621198   3.885   5.886   6.082  0.0266 -0.7542  0.1324
  185POPC   H6R21199   3.928   5.979   6.039 -0.6392  0.4114  1.9047
  185POPC   H6S21200   3.805   5.916   6.153 -0.2806  0.8989 -0.8533
  185POPC   C2721201   3.827   5.792   5.975  0.6449  0.2365  0.6244
  185POPC   H7R21202   3.760   5.722   6.030 -0.6729  1.9613  1.3100
  185POPC   H7S21203   3.907   5.734   5.924  0.4582  1.3488 -1.0371
  185POPC   C2821204   3.743   5.857   5.870  0.1691  0.0231 -0.1890
  185POPC   H8R21205   3.668   5.916   5.928 -1.0850 -2.1226  0.4777
  185POPC   H8S21206   3.691   5.773   5.821  1.9229 -1.0563 -0.2736
  185POPC   C2921207   3.825   5.932   5.777  0.3403 -0.5936  1.2112
  185POPC   H9121208   3.886   6.010   5.826  2.3766  0.0640 -2.0895
  185POPC  C21021209   3.829   5.920   5.638  0.1924 -0.0939  0.4940
  185POPC  H10121210   3.890   5.989   5.578  0.5292  0.9777  2.0131
  185POPC  C21121211   3.766   5.802   5.565 -0.3686 -0.2322 -0.1154
  185POPC  H11R21212   3.692   5.744   5.625  1.1481  0.4777  2.6309
  185POPC  H11S21213   3.843   5.728   5.536  1.1193  1.4434 -0.6005
  185POPC  C21221214   3.690   5.831   5.438  0.4351  0.1548  0.2909
  185POPC  H12R21215   3.751   5.893   5.369  1.5781 -0.4626  0.7247
  185POPC  H12S21216   3.595   5.885   5.460  0.8282  0.6284  0.8637
  185POPC  C21321217   3.649   5.702   5.351 -0.2880  0.0075 -1.0695
  185POPC  H13R21218   3.613   5.632   5.430 -1.5323 -0.6713 -2.2042
  185POPC  H13S21219   3.738   5.653   5.305 -1.2732 -1.0365 -1.9313
  185POPC  C21421220   3.524   5.718   5.270  0.1413 -0.2217  0.6036
  185POPC  H14R21221   3.528   5.806   5.203 -1.3100  0.5479  1.4655
  185POPC  H14S21222   3.433   5.719   5.334 -1.4821 -2.5058 -1.4830
  185POPC  C21521223   3.504   5.591   5.180 -0.0651  0.5910  1.1348
  185POPC  H15R21224   3.399   5.583   5.146  0.9417 -0.3375 -2.1350
  185POPC  H15S21225   3.539   5.503   5.238 -2.2433 -2.6900 -2.1073
  185POPC  C21621226   3.578   5.594   5.047 -0.3507  0.6277  0.0206
  185POPC  H16R21227   3.559   5.500   4.991  1.5027 -0.3156  0.9135
  185POPC  H16S21228   3.688   5.593   5.063 -0.2178  1.8835 -0.6204
  185POPC  C21721229   3.552   5.710   4.954  0.5064  0.5426 -0.0062
  185POPC  H17R21230   3.631   5.784   4.979  0.9685 -0.6527  2.3768
  185POPC  H17S21231   3.455   5.758   4.979 -0.1219 -1.0826  0.7782
  185POPC  C21821232   3.551   5.666   4.809 -0.7141 -0.4221  0.4550
  185POPC  H18R21233   3.543   5.754   4.742  3.6229 -0.1355 -0.0246
  185POPC  H18S21234   3.476   5.584   4.807  0.2959 -1.3556 -1.4117
  185POPC  H18T21235   3.649   5.628   4.772  0.6054  2.8874  0.2470
  185POPC   C3321236   3.699   6.136   6.323 -0.4498 -0.2679 -0.0172
  185POPC   H3X21237   3.794   6.082   6.305  0.2588  1.0703 -0.4027
  185POPC   H3Y21238   3.705   6.247   6.326 -1.2274 -0.1781 -1.2947
  185POPC   C3421239   3.604   6.114   6.210 -0.1096  0.8841  0.1967
  185POPC   H4X21240   3.509   6.163   6.239 -0.1077  0.4508  0.9452
  185POPC   H4Y21241   3.589   6.004   6.204  1.0214  0.6500  1.3690
  185POPC   C3521242   3.642   6.185   6.082 -0.1146 -0.4986  0.3833
  185POPC   H5X21243   3.725   6.123   6.040  0.2951  1.2569 -1.5804
  185POPC   H5Y21244   3.662   6.292   6.103 -0.9351  0.0393 -1.3989
  185POPC   C3621245   3.535   6.189   5.977 -0.3534 -0.9369  0.3496
  185POPC   H6X21246   3.459   6.265   6.005  0.8481  1.4456 -2.3366
  185POPC   H6Y21247   3.485   6.091   5.962  3.0534 -2.6400 -0.8656
  185POPC   C3721248   3.583   6.228   5.833 -0.0165  0.3305  0.1260
  185POPC   H7X21249   3.658   6.150   5.808 -1.7342 -1.9615  1.6847
  185POPC   H7Y21250   3.637   6.325   5.843 -1.4805  1.0260  1.9961
  185POPC   C3821251   3.475   6.231   5.727 -0.3371  0.3480 -0.8427
  185POPC   H8X21252   3.393   6.283   5.780  0.5412 -0.2479  1.2018
  185POPC   H8Y21253   3.437   6.129   5.706  1.2639 -0.5316  0.3146
  185POPC   C3921254   3.506   6.311   5.603 -0.2618  0.1750  0.6897
  185POPC   H9X21255   3.592   6.257   5.557 -0.8473 -0.3812  0.2202
  185POPC   H9Y21256   3.552   6.410   5.621  0.5361 -0.1359  0.4167
  185POPC  C31021257   3.398   6.323   5.497 -0.1025 -0.8356  0.0487
  185POPC  H10X21258   3.435   6.370   5.404 -2.0993 -0.1819 -0.4683
  185POPC  H10Y21259   3.316   6.378   5.549 -2.4016 -1.6194 -2.5097
  185POPC  C31121260   3.326   6.187   5.456 -0.5265 -0.3150 -1.0045
  185POPC  H11X21261   3.251   6.213   5.379 -0.0482 -0.1684 -1.4291
  185POPC  H11Y21262   3.281   6.141   5.546  1.2866 -1.5113 -0.6441
  185POPC  C31221263   3.418   6.083   5.388 -0.4769 -0.1074 -0.3329
  185POPC  H12X21264   3.374   5.981   5.393  3.4194 -1.8906  0.7831
  185POPC  H12Y21265   3.513   6.081   5.445  1.1667 -1.0402 -2.9856
  185POPC  C31321266   3.454   6.106   5.243 -0.7192 -1.0124  0.5491
  185POPC  H13X21267   3.534   6.035   5.213  0.3637 -0.8540  2.7975
  185POPC  H13Y21268   3.494   6.209   5.239  0.8498 -1.3747  3.5156
  185POPC  C31421269   3.340   6.087   5.148  0.3599  0.4805  0.5188
  185POPC  H14X21270   3.362   6.115   5.043 -2.3064 -0.1026 -0.2809
  185POPC  H14Y21271   3.258   6.158   5.176 -0.7578 -1.6542  3.0942
  185POPC  C31521272   3.265   5.949   5.154 -0.0767  0.1203  0.1279
  185POPC  H15X21273   3.213   5.945   5.252 -0.2850  2.0223  0.1331
  185POPC  H15Y21274   3.351   5.879   5.152 -1.0997 -1.1685 -1.7638
  185POPC  C31621275   3.178   5.915   5.034 -0.2817  0.0594  0.5805
  185POPC  H16X21276   3.202   5.983   4.950 -0.7108  1.3246  1.4595
  185POPC  H16Y21277   3.071   5.939   5.055 -1.2039 -2.7981 -0.4159
  185POPC  H16Z21278   3.180   5.813   4.989 -0.8672  1.3291 -2.5705
  186POPC     N21279   5.213   1.507   7.521  0.2960 -0.0977 -0.1762
  186POPC   C1221280   5.099   1.576   7.438 -0.4665  0.1888 -0.1595
  186POPC  H12A21281   5.043   1.636   7.508 -1.0892  0.7322 -1.0988
  186POPC  H12B21282   5.023   1.505   7.411  2.2932 -2.6665 -1.0503
  186POPC   C1321283   5.291   1.404   7.445 -0.6886  0.1327 -0.1430
  186POPC  H13A21284   5.230   1.341   7.383 -0.8935 -0.6031  0.7732
  186POPC  H13B21285   5.370   1.462   7.400 -2.0654  1.4421 -0.9575
  186POPC  H13C21286   5.352   1.360   7.523 -0.9956  6.0181  4.0698
  186POPC   C1421287   5.309   1.605   7.583 -0.1047 -0.0238  1.2684
  186POPC  H14A21288   5.375   1.552   7.650  0.4842 -1.1945 -0.1866
  186POPC  H14B21289   5.379   1.656   7.519  0.0816 -0.4945  1.0893
  186POPC  H14C21290   5.248   1.677   7.635 -1.6573 -1.1216  1.0479
  186POPC   C1521291   5.149   1.435   7.634 -1.1108 -0.1386 -0.2455
  186POPC  H15A21292   5.073   1.367   7.598 -2.5632  2.0141 -1.5210
  186POPC  H15B21293   5.117   1.505   7.710 -0.2652  1.1680 -1.0576
  186POPC  H15C21294   5.225   1.379   7.685  0.6761  1.8381 -0.5990
  186POPC   C1121295   5.145   1.667   7.328  0.1113  0.0173 -0.1253
  186POPC  H11A21296   5.060   1.697   7.263  0.8346  1.0936 -0.5874
  186POPC  H11B21297   5.208   1.600   7.265  0.5669  0.6467 -0.3444
  186POPC     P21298   5.167   1.910   7.433 -0.1361 -0.6675  0.2962
  186POPC   O1321299   5.272   1.991   7.500 -0.0163 -0.2243  0.4760
  186POPC   O1421300   5.048   1.885   7.512 -0.2594  0.3121  0.1746
  186POPC   O1221301   5.229   1.776   7.369  0.5889 -0.1629  0.1092
  186POPC   O1121302   5.113   1.999   7.308  0.1176 -0.2857  0.1759
  186POPC    C121303   5.192   2.001   7.189 -0.8303 -0.1689 -0.2629
  186POPC    HA21304   5.160   1.922   7.119 -1.8310  2.3339 -2.7925
  186POPC    HB21305   5.298   1.985   7.220 -1.7706 -1.1098  2.8413
  186POPC    C221306   5.213   2.138   7.124 -0.0644 -0.6992 -0.0214
  186POPC    HS21307   5.123   2.184   7.078  1.9671 -0.0216 -3.7530
  186POPC   O2121308   5.308   2.130   7.013  0.0724 -0.6716 -0.4150
  186POPC   C2121309   5.277   2.073   6.902  0.3114  0.8519  0.3724
  186POPC   O2221310   5.165   2.032   6.876  0.0296 -0.2766 -0.4238
  186POPC   C2221311   5.404   2.051   6.817 -0.7062 -0.6005  0.4072
  186POPC   H2R21312   5.469   1.996   6.888  0.5830  1.3220  0.7803
  186POPC   H2S21313   5.450   2.149   6.790 -1.5592 -0.2399  0.2357
  186POPC    C321314   5.247   2.250   7.228  0.6848  0.5621  0.5626
  186POPC    HX21315   5.353   2.248   7.261  0.6518 -0.0043  0.6480
  186POPC    HY21316   5.189   2.231   7.320 -0.0491  2.0971  0.4490
  186POPC   O3121317   5.231   2.385   7.172 -0.5068 -0.1631 -0.5954
  186POPC   C3121318   5.114   2.444   7.192 -0.7604  0.1435  0.6492
  186POPC   O3221319   5.014   2.384   7.224  0.2856  0.2023 -0.0334
  186POPC   C3221320   5.123   2.585   7.143 -0.3950  0.5816  0.0606
  186POPC   H2X21321   5.203   2.631   7.204  0.6929 -1.0654 -0.0610
  186POPC   H2Y21322   5.027   2.640   7.154 -0.0877  1.2670 -0.5316
  186POPC   C2321323   5.371   1.966   6.693  0.1310 -0.0937 -0.1703
  186POPC   H3R21324   5.301   1.883   6.719  0.2654 -0.4333 -0.8589
  186POPC   H3S21325   5.459   1.910   6.655 -0.5389 -1.4792  0.2142
  186POPC   C2421326   5.308   2.048   6.578  0.5372  0.0499 -0.4922
  186POPC   H4R21327   5.231   2.117   6.619  1.9544  2.2776 -1.4207
  186POPC   H4S21328   5.261   1.990   6.495  1.7801  0.3432 -1.4322
  186POPC   C2521329   5.414   2.136   6.507  0.1023  0.4808 -0.1369
  186POPC   H5R21330   5.487   2.182   6.577  2.2741 -1.2712 -1.1347
  186POPC   H5S21331   5.360   2.212   6.446  0.1691  0.3739 -0.3288
  186POPC   C2621332   5.489   2.051   6.409 -0.8972  0.3567  0.1142
  186POPC   H6R21333   5.420   1.990   6.347 -0.7909 -0.9208  1.2090
  186POPC   H6S21334   5.552   1.978   6.465 -0.6741  0.5823  0.1606
  186POPC   C2721335   5.584   2.130   6.325  0.0330 -0.0749 -0.3007
  186POPC   H7R21336   5.654   2.059   6.277  0.0314  0.9679 -1.9527
  186POPC   H7S21337   5.644   2.198   6.389  1.1676 -0.0851 -1.3224
  186POPC   C2821338   5.512   2.210   6.222  0.0447  0.3946 -0.6404
  186POPC   H8R21339   5.449   2.285   6.276  2.9365  3.2910 -0.9860
  186POPC   H8S21340   5.437   2.156   6.160  1.6254 -0.0249 -2.2678
  186POPC   C2921341   5.611   2.288   6.137  0.6019  0.6348  0.4297
  186POPC   H9121342   5.614   2.397   6.153 -0.4083  0.8243 -0.5028
  186POPC  C21021343   5.688   2.239   6.037 -0.4394  1.0347 -0.5113
  186POPC  H10121344   5.745   2.316   5.983 -1.0985  1.5527 -0.4705
  186POPC  C21121345   5.703   2.096   5.992  0.6467  0.0930  0.6960
  186POPC  H11R21346   5.637   2.033   6.056 -1.2622 -0.5166 -1.7408
  186POPC  H11S21347   5.804   2.051   6.005  1.1532  1.4926  1.8114
  186POPC  C21221348   5.672   2.080   5.841  1.1195  0.8187 -0.1203
  186POPC  H12R21349   5.577   2.132   5.813  0.4656 -0.8727 -1.1854
  186POPC  H12S21350   5.656   1.973   5.817 -1.8467  0.8278  1.3230
  186POPC  C21321351   5.787   2.137   5.753  0.0138  0.4898  0.0555
  186POPC  H13R21352   5.885   2.112   5.798  0.2037  2.3113  0.7331
  186POPC  H13S21353   5.778   2.248   5.756  0.4048  0.4973  1.0506
  186POPC  C21421354   5.780   2.090   5.606 -0.7286 -0.1174  0.6538
  186POPC  H14R21355   5.782   1.980   5.590  1.7820 -0.1889  1.0871
  186POPC  H14S21356   5.868   2.131   5.553 -0.0447 -3.1288 -0.7654
  186POPC  C21521357   5.650   2.150   5.550 -0.3492 -0.3917  0.1011
  186POPC  H15R21358   5.647   2.258   5.577  0.3556 -0.4932  0.6126
  186POPC  H15S21359   5.571   2.105   5.615  1.5339 -1.8402  1.5297
  186POPC  C21621360   5.626   2.117   5.405  0.2796  0.1510 -0.5315
  186POPC  H16R21361   5.670   2.017   5.385  2.4888  1.2654 -1.6496
  186POPC  H16S21362   5.691   2.183   5.343 -0.2256  0.8256 -0.3629
  186POPC  C21721363   5.485   2.125   5.338  0.2913  0.3274 -0.1841
  186POPC  H17R21364   5.430   2.033   5.368  0.5700  0.4153  0.6443
  186POPC  H17S21365   5.498   2.107   5.229 -1.7234  0.0431 -0.4087
  186POPC  C21821366   5.415   2.253   5.381  0.3089 -0.2674 -0.1179
  186POPC  H18R21367   5.341   2.282   5.304  0.5472  1.6898  0.3561
  186POPC  H18S21368   5.489   2.335   5.371 -0.3663  0.3230 -0.3076
  186POPC  H18T21369   5.363   2.256   5.479 -0.9704  2.4371 -0.7788
  186POPC   C3321370   5.160   2.606   6.993 -0.5121 -0.0248 -0.5114
  186POPC   H3X21371   5.152   2.714   6.969  1.7162  0.7504  1.7501
  186POPC   H3Y21372   5.094   2.542   6.931 -2.1662  0.4050  0.7253
  186POPC   C3421373   5.305   2.573   6.965 -0.9991  0.0029 -0.5956
  186POPC   H4X21374   5.350   2.474   6.988  1.8143  0.9981 -1.2874
  186POPC   H4Y21375   5.360   2.644   7.031 -1.1966  0.0714 -0.5060
  186POPC   C3521376   5.360   2.617   6.830 -0.0556  0.7649 -0.0317
  186POPC   H5X21377   5.470   2.625   6.844 -0.1811  0.8995  0.9088
  186POPC   H5Y21378   5.318   2.712   6.792 -1.1283  0.2261 -0.2439
  186POPC   C3621379   5.332   2.516   6.720 -0.2709  0.0942 -0.0773
  186POPC   H6X21380   5.232   2.477   6.748 -0.0374  0.1865  0.8907
  186POPC   H6Y21381   5.407   2.434   6.715  2.7611  2.6482  0.8138
  186POPC   C3721382   5.319   2.580   6.580  0.5973  0.7603 -0.1483
  186POPC   H7X21383   5.234   2.650   6.575  0.4012  0.5131 -0.3132
  186POPC   H7Y21384   5.284   2.505   6.506 -1.7135  2.2490 -0.6388
  186POPC   C3821385   5.440   2.659   6.532 -0.0336 -0.6570  0.0623
  186POPC   H8X21386   5.512   2.584   6.493  1.3776 -0.2465  1.7661
  186POPC   H8Y21387   5.478   2.719   6.617  1.2847 -2.1554  0.5708
  186POPC   C3921388   5.407   2.770   6.424  0.0561  0.2672 -0.8469
  186POPC   H9X21389   5.494   2.835   6.397 -1.2064  2.0069 -0.8939
  186POPC   H9Y21390   5.343   2.834   6.488 -0.4354 -2.8247  2.0616
  186POPC  C31021391   5.321   2.729   6.304  0.1526  1.0937 -0.2016
  186POPC  H10X21392   5.217   2.699   6.328  0.9642 -1.8590  0.0045
  186POPC  H10Y21393   5.367   2.633   6.271 -0.2158  0.3689  1.2636
  186POPC  C31121394   5.326   2.831   6.186 -0.2545  0.5181  0.0826
  186POPC  H11X21395   5.435   2.842   6.168  0.3147 -1.6019  1.7906
  186POPC  H11Y21396   5.277   2.913   6.243 -1.3290  0.5298 -0.8290
  186POPC  C31221397   5.241   2.787   6.066  0.1266  0.7338 -0.1240
  186POPC  H12X21398   5.144   2.743   6.094  0.5004  0.3879  0.6669
  186POPC  H12Y21399   5.302   2.711   6.012  0.1296  0.4777  0.2402
  186POPC  C31321400   5.209   2.899   5.968  0.2220  0.0727 -0.3609
  186POPC  H13X21401   5.305   2.931   5.922  1.0040 -2.0004 -0.2946
  186POPC  H13Y21402   5.159   2.986   6.016  1.5571  0.8804 -0.3769
  186POPC  C31421403   5.119   2.837   5.855  0.8696  0.2616  0.3576
  186POPC  H14X21404   5.019   2.821   5.902  0.7660 -0.8297 -0.1951
  186POPC  H14Y21405   5.153   2.739   5.815  0.6890  0.6982 -0.9018
  186POPC  C31521406   5.096   2.937   5.737  0.4587 -0.3303  0.4880
  186POPC  H15X21407   5.195   2.945   5.687  0.6629  1.7626  1.0942
  186POPC  H15Y21408   5.088   3.041   5.777  0.9736 -0.1799  0.2121
  186POPC  C31621409   4.981   2.910   5.642  0.1610  0.3601 -0.3188
  186POPC  H16X21410   4.994   2.821   5.576  1.5327  0.6729 -0.4933
  186POPC  H16Y21411   4.953   3.001   5.586 -1.9556 -0.4658 -0.7293
  186POPC  H16Z21412   4.892   2.897   5.707  0.9052  0.0744  0.6639
  187POPC     N21413   5.179   1.142   2.874  0.5755  0.1772  0.1305
  187POPC   C1221414   5.172   1.104   3.020 -0.1878 -0.1454 -0.5545
  187POPC  H12A21415   5.195   1.189   3.083  2.6953 -1.3843  0.2084
  187POPC  H12B21416   5.248   1.030   3.041 -0.6041 -0.4199 -0.0011
  187POPC   C1321417   5.299   1.212   2.850 -0.2804 -0.8935  0.1576
  187POPC  H13A21418   5.359   1.183   2.765  1.6850  0.1601  1.1137
  187POPC  H13B21419   5.277   1.318   2.849 -3.1446 -1.3609 -2.2548
  187POPC  H13C21420   5.367   1.192   2.931 -0.4304  1.6665  1.0201
  187POPC   C1421421   5.178   1.016   2.788  0.1472 -0.1261 -0.4656
  187POPC  H14A21422   5.253   0.952   2.833  1.2641  1.1468 -0.4806
  187POPC  H14B21423   5.080   0.971   2.780 -0.2166  0.8043 -1.2639
  187POPC  H14C21424   5.213   1.057   2.695  0.1640 -0.8709 -0.7951
  187POPC   C1521425   5.066   1.228   2.825  0.5554  0.4709 -0.0711
  187POPC  H15A21426   5.059   1.324   2.873  1.4156 -0.1015  1.2578
  187POPC  H15B21427   4.972   1.177   2.839  0.9197  0.2547  1.8053
  187POPC  H15C21428   5.081   1.252   2.721 -0.8869  0.0098 -0.4086
  187POPC   C1121429   5.044   1.030   3.067  0.1076 -0.4222  1.0230
  187POPC  H11A21430   4.963   1.104   3.048 -0.1976 -0.4810  2.0230
  187POPC  H11B21431   5.043   1.028   3.178 -1.1104 -0.4991  1.0209
  187POPC     P21432   5.092   0.770   3.049 -0.2744 -0.0431  0.1927
  187POPC   O1321433   5.231   0.794   3.026 -0.0010 -0.1389  0.3071
  187POPC   O1421434   5.023   0.651   2.990  0.4527  0.2655 -0.0945
  187POPC   O1221435   5.012   0.902   3.002 -0.4285  0.4424 -0.0478
  187POPC   O1121436   5.057   0.775   3.206  0.6322 -0.0018  0.4027
  187POPC    C121437   4.919   0.764   3.247  0.4284  0.0086 -0.7172
  187POPC    HA21438   4.867   0.668   3.222 -0.3224 -0.0225  0.8588
  187POPC    HB21439   4.863   0.836   3.183 -0.5217 -1.6764 -1.8744
  187POPC    C221440   4.898   0.785   3.399  0.2860  0.2422  0.0727
  187POPC    HS21441   4.799   0.751   3.435 -0.2436  0.8967 -0.7359
  187POPC   O2121442   4.927   0.924   3.437 -0.2711  0.6600  0.4109
  187POPC   C2121443   4.818   0.994   3.426  0.4058  0.3036  0.0446
  187POPC   O2221444   4.719   0.947   3.369 -0.2159  0.1318  0.7505
  187POPC   C2221445   4.818   1.132   3.486  0.1718  0.3637 -0.5369
  187POPC   H2R21446   4.760   1.195   3.416  1.8332  2.3342 -0.2226
  187POPC   H2S21447   4.920   1.177   3.493 -0.1851  1.2253 -0.8304
  187POPC    C321448   4.991   0.688   3.485  0.0662 -0.3475  0.0200
  187POPC    HX21449   5.096   0.720   3.469 -0.2089  1.9421  2.2661
  187POPC    HY21450   4.965   0.598   3.425  0.3103  0.0557 -0.7004
  187POPC   O3121451   4.954   0.697   3.623 -0.1304 -0.6325 -0.0537
  187POPC   C3121452   4.995   0.583   3.681  0.5204 -0.3057  0.3054
  187POPC   O3221453   5.061   0.497   3.625 -0.2152 -0.2292  0.0042
  187POPC   C3221454   4.913   0.568   3.809  0.2895 -0.4390  1.1729
  187POPC   H2X21455   4.846   0.479   3.801  0.2838 -0.3352 -0.0997
  187POPC   H2Y21456   4.850   0.658   3.823 -0.4496 -0.6862 -0.3394
  187POPC   C2321457   4.730   1.153   3.621 -0.0494  0.7649  0.2656
  187POPC   H3R21458   4.624   1.118   3.614 -0.3866  1.7838  0.0371
  187POPC   H3S21459   4.720   1.262   3.638  1.4213  0.8656  0.5701
  187POPC   C2421460   4.793   1.097   3.745  0.5260  0.3719  0.5104
  187POPC   H4R21461   4.741   1.149   3.828 -0.1448 -2.3286  1.8881
  187POPC   H4S21462   4.902   1.117   3.753  0.4682  1.1502 -0.3850
  187POPC   C2521463   4.763   0.946   3.779  0.0953  0.1272 -0.4956
  187POPC   H5R21464   4.810   0.883   3.700  1.9241 -0.1368  0.7328
  187POPC   H5S21465   4.652   0.937   3.776 -0.2319 -0.5535  4.6939
  187POPC   C2621466   4.818   0.910   3.920  1.0551  0.2611 -0.1146
  187POPC   H6R21467   4.768   0.817   3.954  0.8110  0.8748  1.3021
  187POPC   H6S21468   4.781   0.985   3.994  0.5868 -0.4475  0.3767
  187POPC   C2721469   4.974   0.913   3.930 -0.0557 -0.1458  1.0770
  187POPC   H7R21470   5.011   1.015   3.909 -1.6170  0.2927  0.2352
  187POPC   H7S21471   5.024   0.841   3.862 -2.2654 -3.4609  2.6663
  187POPC   C2821472   5.023   0.870   4.073 -0.0039  0.0801  0.4413
  187POPC   H8R21473   5.126   0.832   4.056 -0.0987  0.3687 -0.8690
  187POPC   H8S21474   4.964   0.780   4.102  0.7306 -0.3410  0.6382
  187POPC   C2921475   5.020   0.974   4.177  0.3208  0.0019 -1.2499
  187POPC   H9121476   4.941   1.050   4.165  0.0611 -0.1060 -0.3186
  187POPC  C21021477   5.108   0.982   4.281 -0.0736  0.9255 -0.3577
  187POPC  H10121478   5.117   1.067   4.350  1.1437 -0.8272  1.7783
  187POPC  C21121479   5.219   0.881   4.306 -0.7026 -0.1871 -0.0662
  187POPC  H11R21480   5.317   0.919   4.271 -0.7385  0.0440  0.0820
  187POPC  H11S21481   5.214   0.788   4.245  1.3843 -0.2411 -0.2251
  187POPC  C21221482   5.215   0.816   4.457  0.0999  0.0550  0.6040
  187POPC  H12R21483   5.249   0.894   4.528 -0.5522  1.6364 -0.7579
  187POPC  H12S21484   5.292   0.737   4.463 -1.6978 -1.8726 -0.2862
  187POPC  C21321485   5.085   0.745   4.490  0.5185 -0.1631 -0.1259
  187POPC  H13R21486   5.071   0.659   4.420 -1.4944  0.4402 -0.5220
  187POPC  H13S21487   5.004   0.813   4.455  0.7041 -0.8977 -2.1308
  187POPC  C21421488   5.083   0.702   4.631  0.5260 -0.6485  0.7087
  187POPC  H14R21489   5.056   0.789   4.695 -3.8156 -1.4017  0.1606
  187POPC  H14S21490   5.187   0.673   4.661  1.2052 -1.1862 -1.9508
  187POPC  C21521491   4.982   0.594   4.665  0.0972 -0.0086 -0.1381
  187POPC  H15R21492   4.992   0.509   4.595 -0.2078 -1.0803  1.0853
  187POPC  H15S21493   4.876   0.622   4.647 -1.3918 -3.1354  2.6392
  187POPC  C21621494   4.991   0.533   4.811  1.1380  0.2377  0.8901
  187POPC  H16R21495   4.936   0.604   4.876  0.8528  0.1809  0.7156
  187POPC  H16S21496   5.093   0.516   4.851  1.7351  3.6482  1.1206
  187POPC  C21721497   4.922   0.399   4.831 -0.4922 -0.1920  0.0462
  187POPC  H17R21498   4.953   0.324   4.756 -1.7946  1.9962 -2.8685
  187POPC  H17S21499   4.813   0.410   4.813 -0.9462  1.0709  2.8717
  187POPC  C21821500   4.949   0.328   4.965 -0.1380  0.3702 -0.1911
  187POPC  H18R21501   5.054   0.302   4.989 -1.1350 -4.4483 -0.1931
  187POPC  H18S21502   4.902   0.228   4.966  5.0098 -2.3738 -1.6467
  187POPC  H18T21503   4.904   0.379   5.053  0.9369 -1.4485  1.4972
  187POPC   C3321504   5.001   0.558   3.927 -0.8945 -0.6732  1.0903
  187POPC   H3X21505   4.948   0.595   4.018 -2.0164  4.0922 -1.1982
  187POPC   H3Y21506   5.092   0.620   3.911 -2.4590  1.3127 -0.5505
  187POPC   C3421507   5.051   0.412   3.950  0.7940 -0.0734  0.3950
  187POPC   H4X21508   5.128   0.384   3.874 -1.3357 -0.2098 -1.8272
  187POPC   H4Y21509   4.966   0.342   3.939  1.2831 -1.3551  3.6115
  187POPC   C3521510   5.116   0.379   4.089  0.2548  0.0090 -0.3797
  187POPC   H5X21511   5.179   0.468   4.111 -0.6592  0.3151  1.1296
  187POPC   H5Y21512   5.183   0.291   4.092 -0.3234 -0.4810 -1.4819
  187POPC   C3621513   5.003   0.379   4.198  0.0563 -0.0292 -0.4868
  187POPC   H6X21514   4.924   0.305   4.172  0.1735 -1.0009  1.7281
  187POPC   H6Y21515   4.957   0.480   4.198  2.1980  1.0612  1.6763
  187POPC   C3721516   5.060   0.338   4.334  0.4393  0.6448  0.8711
  187POPC   H7X21517   5.056   0.227   4.341 -2.1988  0.4918 -1.4187
  187POPC   H7Y21518   4.984   0.379   4.404 -0.2446  0.9306 -0.0246
  187POPC   C3821519   5.207   0.376   4.361  0.7367 -0.0536  0.2619
  187POPC   H8X21520   5.232   0.480   4.333  1.0290 -0.6021 -1.6284
  187POPC   H8Y21521   5.266   0.309   4.296 -0.4029  0.1618 -1.0519
  187POPC   C3921522   5.248   0.354   4.514  0.1489  0.8750 -0.3193
  187POPC   H9X21523   5.206   0.253   4.536 -0.0089  1.3171  1.5542
  187POPC   H9Y21524   5.200   0.434   4.573  1.4806  0.7066  1.0708
  187POPC  C31021525   5.398   0.354   4.539 -0.2610 -0.7657  0.3456
  187POPC  H10X21526   5.413   0.456   4.581  0.2622 -0.6092 -0.1952
  187POPC  H10Y21527   5.451   0.357   4.441 -3.6510 -0.5173 -1.6375
  187POPC  C31121528   5.444   0.260   4.644 -0.9371  0.0384  0.9823
  187POPC  H11X21529   5.551   0.286   4.659  0.2610 -2.5025 -2.0643
  187POPC  H11Y21530   5.443   0.154   4.611 -1.1665  0.2727  0.2269
  187POPC  C31221531   5.367   0.266   4.777  0.6363  0.0825 -0.0715
  187POPC  H12X21532   5.262   0.230   4.766  0.1794  1.3790 -0.0500
  187POPC  H12Y21533   5.363   0.366   4.824 -0.2111 -0.7149  1.6726
  187POPC  C31321534   5.427   0.174   4.889 -0.5257 -0.2361 -0.6213
  187POPC  H13X21535   5.522   0.220   4.923 -0.9628 -0.5655  1.1513
  187POPC  H13Y21536   5.450   0.078   4.838  0.9131 -1.9376  2.8825
  187POPC  C31421537   5.340   0.163   5.021  0.6304 -0.0990 -0.2411
  187POPC  H14X21538   5.400   0.101   5.091  1.4297  2.0867  1.0789
  187POPC  H14Y21539   5.239   0.118   5.007 -0.4566  1.0740  3.0427
  187POPC  C31521540   5.335   0.301   5.094 -0.1256  0.6145  0.5665
  187POPC  H15X21541   5.276   0.367   5.027  1.3835 -0.6540 -2.1963
  187POPC  H15Y21542   5.437   0.345   5.097  0.5280 -0.7129 -0.8704
  187POPC  C31621543   5.286   0.287   5.243  0.1946  0.2810  0.7904
  187POPC  H16X21544   5.359   0.225   5.298 -1.9172 -3.8048 -0.6315
  187POPC  H16Y21545   5.189   0.235   5.252 -0.4231  1.4512  1.1838
  187POPC  H16Z21546   5.272   0.387   5.291  0.4882  0.4574  0.5153
  188POPC     N21547   6.159   0.752   2.489 -0.7487  0.4196  0.0937
  188POPC   C1221548   6.263   0.647   2.532  0.3234  0.5321  0.2554
  188POPC  H12A21549   6.318   0.619   2.444 -0.0460 -1.8402  0.7154
  188POPC  H12B21550   6.216   0.553   2.558  0.7625 -0.1428 -1.2834
  188POPC   C1321551   6.085   0.702   2.372 -0.3967 -0.0760  0.0357
  188POPC  H13A21552   6.051   0.600   2.382 -1.7787  0.3828  0.1998
  188POPC  H13B21553   5.990   0.753   2.366 -0.7246 -0.7128 -0.2369
  188POPC  H13C21554   6.139   0.715   2.279 -1.1575  1.4430 -0.2255
  188POPC   C1421555   6.057   0.760   2.602 -0.2344  0.3997  0.1714
  188POPC  H14A21556   5.985   0.841   2.593 -1.3399 -0.6823 -1.3685
  188POPC  H14B21557   6.003   0.666   2.605 -0.0460  0.2382 -1.0866
  188POPC  H14C21558   6.122   0.782   2.685  0.6631 -0.2181 -0.3537
  188POPC   C1521559   6.221   0.881   2.463  0.0100 -0.8011  0.3893
  188POPC  H15A21560   6.141   0.949   2.437 -0.1309 -0.7402  0.9689
  188POPC  H15B21561   6.283   0.877   2.375 -0.9267 -0.0065 -0.3288
  188POPC  H15C21562   6.278   0.918   2.547  2.3709 -1.1938 -0.9655
  188POPC   C1121563   6.359   0.690   2.642  0.5375 -0.6647 -0.3976
  188POPC  H11A21564   6.402   0.784   2.602 -1.5909  2.3529  3.7414
  188POPC  H11B21565   6.450   0.626   2.642  1.5719  0.7744 -0.5738
  188POPC     P21566   6.297   0.583   2.871 -0.3596  0.2655 -0.2523
  188POPC   O1321567   6.380   0.474   2.813 -0.7286 -0.5940  0.0879
  188POPC   O1421568   6.156   0.555   2.915  0.1183  0.1826 -0.5750
  188POPC   O1221569   6.300   0.709   2.773 -0.0511 -0.1305 -0.3012
  188POPC   O1121570   6.386   0.617   2.994 -0.5553 -0.7082 -0.0284
  188POPC    C121571   6.333   0.677   3.115  0.3386  0.5222  0.4639
  188POPC    HA21572   6.230   0.642   3.137  0.6559  0.7000  2.3967
  188POPC    HB21573   6.333   0.787   3.099  1.7334  0.8710  2.5117
  188POPC    C221574   6.421   0.633   3.235 -0.0409 -0.0727 -0.3888
  188POPC    HS21575   6.527   0.648   3.205  0.5626 -1.4356  0.9546
  188POPC   O2121576   6.385   0.500   3.269  0.2795 -0.1067  0.4582
  188POPC   C2121577   6.479   0.435   3.328  0.3320 -0.6855 -0.3320
  188POPC   O2221578   6.586   0.483   3.355  0.1133  0.1338 -0.5767
  188POPC   C2221579   6.438   0.292   3.341  0.1629  0.2925  0.2209
  188POPC   H2R21580   6.509   0.229   3.282 -0.9562 -0.5583 -0.2625
  188POPC   H2S21581   6.340   0.269   3.294  1.3654  0.0054 -2.3463
  188POPC    C321582   6.385   0.722   3.362  0.1337  0.0944  0.1626
  188POPC    HX21583   6.278   0.723   3.392  0.3133  2.2772  0.9206
  188POPC    HY21584   6.407   0.826   3.329 -0.0008 -0.1004 -0.5720
  188POPC   O3121585   6.466   0.694   3.480  0.3395 -0.0463  0.6675
  188POPC   C3121586   6.584   0.754   3.474 -0.3832  0.0854  0.4139
  188POPC   O3221587   6.619   0.840   3.403 -0.4501  0.6276  0.0817
  188POPC   C3221588   6.669   0.705   3.597  0.2965  0.0175 -0.4526
  188POPC   H2X21589   6.753   0.776   3.613  1.4169 -1.4059  0.3412
  188POPC   H2Y21590   6.722   0.616   3.556  0.1990 -0.1536 -0.2096
  188POPC   C2321591   6.455   0.255   3.495  0.4147  0.2036  0.1002
  188POPC   H3R21592   6.555   0.284   3.535  0.5237  0.2500 -0.1989
  188POPC   H3S21593   6.433   0.148   3.516 -3.0148  0.3405 -1.9760
  188POPC   C2421594   6.344   0.318   3.581 -0.1449 -0.6635 -0.3446
  188POPC   H4R21595   6.248   0.266   3.561 -0.8813  0.6614 -0.3679
  188POPC   H4S21596   6.335   0.424   3.550  1.1202 -0.0598  1.1874
  188POPC   C2521597   6.364   0.310   3.734  0.0741 -0.6827  0.3231
  188POPC   H5R21598   6.263   0.320   3.780  0.5176 -0.1835  1.2178
  188POPC   H5S21599   6.422   0.396   3.774 -1.6229  1.3394 -1.2946
  188POPC   C2621600   6.417   0.181   3.790 -0.3937  0.4538 -0.4371
  188POPC   H6R21601   6.524   0.168   3.763  0.2433 -1.2816  2.4161
  188POPC   H6S21602   6.359   0.096   3.746 -0.0101  0.0414 -0.1609
  188POPC   C2721603   6.417   0.179   3.945  0.3834  0.1711  0.0638
  188POPC   H7R21604   6.323   0.222   3.987  1.5458  2.1903  0.7241
  188POPC   H7S21605   6.503   0.244   3.970  2.8097 -1.4754 -3.2282
  188POPC   C2821606   6.445   0.038   4.008  0.4646  0.5351 -0.6882
  188POPC   H8R21607   6.356  -0.030   4.008  1.6438 -1.1585  1.6856
  188POPC   H8S21608   6.458   0.056   4.117  0.2229  1.1628 -0.7580
  188POPC   C2921609   6.561  -0.034   3.946 -0.6311 -0.4695 -1.1517
  188POPC   H9121610   6.553  -0.083   3.847  1.5646 -0.8834 -1.1657
  188POPC  C21021611   6.686  -0.037   3.992 -0.1829 -0.1172  0.4507
  188POPC  H10121612   6.762  -0.101   3.943  1.7576  0.9268  1.9781
  188POPC  C21121613   6.736   0.030   4.117 -0.7488 -0.6434 -0.0260
  188POPC  H11R21614   6.664   0.106   4.154  1.7602  2.8765 -1.7632
  188POPC  H11S21615   6.829   0.083   4.087 -1.1708 -0.9883 -2.0608
  188POPC  C21221616   6.766  -0.076   4.227 -0.3443  0.2190  0.1303
  188POPC  H12R21617   6.850  -0.138   4.190 -1.6292 -0.6675 -1.4175
  188POPC  H12S21618   6.675  -0.139   4.235  0.1218 -0.5608 -0.5376
  188POPC  C21321619   6.795  -0.004   4.366  0.3138  0.3944 -0.2235
  188POPC  H13R21620   6.709   0.059   4.399 -1.1170 -1.9487  0.7483
  188POPC  H13S21621   6.879   0.067   4.348  0.9477 -0.1038  0.6839
  188POPC  C21421622   6.832  -0.105   4.486 -0.4349  0.1784  0.6464
  188POPC  H14R21623   6.821  -0.209   4.449  0.2879 -0.9514  3.3910
  188POPC  H14S21624   6.752  -0.085   4.560 -0.0852  1.2348  0.7570
  188POPC  C21521625   6.978  -0.085   4.527  0.1789 -0.1010 -0.1528
  188POPC  H15R21626   7.008   0.019   4.551  0.6598 -0.6755  1.9186
  188POPC  H15S21627   7.044  -0.121   4.445 -0.5133 -0.1784 -0.6863
  188POPC  C21621628   7.013  -0.160   4.655 -0.0170 -0.5337 -0.0777
  188POPC  H16R21629   7.106  -0.123   4.704 -0.7705  0.6943  0.5095
  188POPC  H16S21630   7.028  -0.268   4.637  0.2084 -0.6480  0.7577
  188POPC  C21721631   6.908  -0.140   4.762 -0.4042  0.3797  0.1422
  188POPC  H17R21632   6.821  -0.203   4.733  0.1359 -0.3151  0.0117
  188POPC  H17S21633   6.877  -0.034   4.751 -0.2332  0.5411  1.1044
  188POPC  C21821634   6.945  -0.164   4.906 -0.2767  0.2974  0.4487
  188POPC  H18R21635   6.988  -0.265   4.918 -0.7820 -0.0991 -0.9048
  188POPC  H18S21636   6.854  -0.176   4.969 -0.4474  0.4528  0.2386
  188POPC  H18T21637   7.016  -0.090   4.949 -0.5116  1.0397 -0.4015
  188POPC   C3321638   6.585   0.658   3.723  0.6710 -0.5028  0.2378
  188POPC   H3X21639   6.511   0.583   3.690 -0.4586  1.5112 -2.1917
  188POPC   H3Y21640   6.537   0.751   3.762  0.2543  0.5235 -2.4918
  188POPC   C3421641   6.687   0.599   3.818  0.0714  0.4741  0.1587
  188POPC   H4X21642   6.759   0.682   3.836  0.2964  0.6537 -1.4749
  188POPC   H4Y21643   6.753   0.517   3.782  0.9323  0.4626  1.6638
  188POPC   C3521644   6.613   0.557   3.944 -0.6443 -0.1708 -0.1335
  188POPC   H5X21645   6.540   0.475   3.930  0.8416 -1.7254  0.7754
  188POPC   H5Y21646   6.567   0.645   3.993 -1.3118 -0.1367 -0.7998
  188POPC   C3621647   6.715   0.505   4.051  0.5769  0.6728 -1.3608
  188POPC   H6X21648   6.802   0.572   4.067  0.9766  0.2258 -1.6231
  188POPC   H6Y21649   6.760   0.406   4.027  0.8315  0.7876 -1.3645
  188POPC   C3721650   6.643   0.477   4.189  0.2946 -0.0701  0.7251
  188POPC   H7X21651   6.554   0.413   4.169 -0.3010  0.8741  0.2635
  188POPC   H7Y21652   6.614   0.574   4.235  0.4021  1.0559 -1.4598
  188POPC   C3821653   6.745   0.406   4.282 -0.0653 -0.1858 -0.4027
  188POPC   H8X21654   6.822   0.485   4.290 -0.3802  0.1564 -0.7184
  188POPC   H8Y21655   6.781   0.317   4.225  3.1615  1.5996 -1.3715
  188POPC   C3921656   6.701   0.376   4.419 -0.4807 -0.7813  0.5661
  188POPC   H9X21657   6.645   0.280   4.417 -2.2235  0.1630  1.4421
  188POPC   H9Y21658   6.625   0.452   4.448  1.1861  1.9728 -1.6712
  188POPC  C31021659   6.819   0.377   4.509 -0.6576  0.0658  0.5526
  188POPC  H10X21660   6.876   0.472   4.502 -1.1708  0.4767  1.7416
  188POPC  H10Y21661   6.885   0.292   4.481 -1.1532 -0.6699  1.5705
  188POPC  C31121662   6.782   0.358   4.660  0.0076  0.5348 -0.1657
  188POPC  H11X21663   6.720   0.266   4.669  1.7077 -0.4035  3.9416
  188POPC  H11Y21664   6.706   0.435   4.685 -0.2086  0.2650  0.0171
  188POPC  C31221665   6.895   0.362   4.768 -0.4029  0.3273  0.2160
  188POPC  H12X21666   6.857   0.386   4.869  1.4099 -4.0871  2.2124
  188POPC  H12Y21667   6.961   0.434   4.715  3.3600 -2.5146  0.6335
  188POPC  C31321668   6.988   0.238   4.772 -0.3202  0.3360  0.3083
  188POPC  H13X21669   6.986   0.207   4.665 -2.4184  0.7456  0.1837
  188POPC  H13Y21670   6.937   0.154   4.825 -1.3990  0.8391  0.1092
  188POPC  C31421671   7.138   0.273   4.810  0.0473  0.4873 -0.2732
  188POPC  H14X21672   7.134   0.281   4.921 -0.8641 -3.5214  0.1190
  188POPC  H14Y21673   7.167   0.361   4.749 -1.5603 -1.0609 -3.4885
  188POPC  C31521674   7.236   0.165   4.774  0.1339  0.3089 -0.5616
  188POPC  H15X21675   7.244   0.169   4.663 -3.0251  0.9662 -0.8513
  188POPC  H15Y21676   7.187   0.070   4.804 -0.7518  0.1731 -2.3067
  188POPC  C31621677   7.367   0.180   4.844  0.8952 -0.7989  0.1173
  188POPC  H16X21678   7.433   0.099   4.807  3.5145  2.2740 -2.6024
  188POPC  H16Y21679   7.362   0.162   4.954  0.2542 -0.2802  0.1752
  188POPC  H16Z21680   7.422   0.276   4.831  1.6611 -1.0943  1.0101
  189SAPI   C1221681   3.919   1.740   7.123 -0.0734  0.0896  0.1268
  189SAPI    H221682   3.916   1.742   7.012  0.8134  1.1169  0.1092
  189SAPI    O221683   4.043   1.680   7.151 -0.0577 -0.1742 -0.1191
  189SAPI   HO221684   4.073   1.640   7.069 -1.7607 -2.1109  0.1161
  189SAPI   C1321685   3.908   1.883   7.172 -0.1667 -0.6214 -0.1670
  189SAPI    H321686   3.803   1.904   7.144  0.2947  0.0787 -1.4432
  189SAPI    O321687   3.983   1.974   7.099  0.0373 -0.0690  0.5239
  189SAPI   HO321688   4.076   1.967   7.119  0.4552  0.2284 -1.1292
  189SAPI   C1421689   3.928   1.893   7.322  0.0198 -0.1202 -1.0124
  189SAPI    H421690   4.035   1.874   7.343 -0.0141 -1.9788 -2.3275
  189SAPI    O421691   3.884   2.025   7.375 -0.0694  0.5216  0.0796
  189SAPI   HO421692   3.957   2.087   7.383 -0.8537  1.2504  3.1873
  189SAPI   C1521693   3.848   1.776   7.395  0.1494  0.1950  0.4588
  189SAPI    H521694   3.749   1.821   7.417 -0.1400  0.4405 -1.2504
  189SAPI    O521695   3.906   1.751   7.522 -0.0654 -0.2147 -0.3690
  189SAPI   HO521696   3.845   1.716   7.588  2.3540 -2.3039  0.9115
  189SAPI   C1621697   3.819   1.644   7.321 -0.0517  0.1033  0.3749
  189SAPI    H621698   3.909   1.582   7.339  0.7111  1.2973  0.8655
  189SAPI    O621699   3.708   1.584   7.386  0.7152 -0.2504 -0.0758
  189SAPI   HO621700   3.713   1.488   7.381  0.4114 -0.2953  0.3574
  189SAPI   C1121701   3.802   1.656   7.169  0.5407 -0.3220 -0.4087
  189SAPI    H121702   3.711   1.718   7.152  1.4821  0.9396 -1.0883
  189SAPI     P21703   3.715   1.507   6.958 -0.1676  0.2289 -0.1302
  189SAPI   O1321704   3.600   1.604   6.949  0.0363 -0.2848  0.4287
  189SAPI   O1421705   3.696   1.363   6.939 -0.0671  0.0970 -0.1431
  189SAPI   O1221706   3.789   1.526   7.100  1.1117 -0.4515 -0.0027
  189SAPI   O1121707   3.826   1.558   6.853 -0.3788  0.3772  0.1635
  189SAPI    C121708   3.815   1.684   6.777  0.1651 -0.0011  0.3731
  189SAPI    HA21709   3.730   1.746   6.814 -1.9943 -2.4755 -0.1112
  189SAPI    HB21710   3.911   1.738   6.782 -0.3009  0.9733 -0.8633
  189SAPI    C221711   3.796   1.636   6.626  0.3748 -0.3317 -0.4711
  189SAPI    HS21712   3.728   1.549   6.632 -0.6548  0.5243  1.1565
  189SAPI   O2121713   3.925   1.605   6.569 -0.2407  0.0112  0.2997
  189SAPI   C2121714   3.963   1.483   6.592 -0.0461 -0.6594 -0.2469
  189SAPI   O2221715   3.897   1.392   6.635 -0.0767  0.6162 -0.2236
  189SAPI   C2221716   4.114   1.473   6.580 -0.4862  0.0050 -0.2032
  189SAPI   H2R21717   4.151   1.564   6.631  0.8963 -1.6258  1.8698
  189SAPI   H2S21718   4.140   1.386   6.643  1.3502  0.9298  0.3942
  189SAPI    C321719   3.729   1.747   6.539  0.6012 -0.2926 -0.0274
  189SAPI    HX21720   3.800   1.828   6.510 -1.0161  0.3555 -2.5415
  189SAPI    HY21721   3.651   1.799   6.598 -0.3218 -1.4783 -0.1690
  189SAPI   O3121722   3.675   1.705   6.418  0.2008 -0.2168 -0.4662
  189SAPI   C3121723   3.550   1.652   6.440 -0.2083 -0.3524  0.2038
  189SAPI   O3221724   3.508   1.631   6.551 -0.2774 -0.3843  0.1148
  189SAPI   C3221725   3.477   1.618   6.311  0.2146 -0.5523  0.8409
  189SAPI   H2X21726   3.399   1.543   6.335  0.6148 -0.2529  3.3978
  189SAPI   H2Y21727   3.547   1.576   6.236 -0.7307 -0.8653  0.1303
  189SAPI   C2321728   4.165   1.475   6.432  0.2330  0.9305  0.3666
  189SAPI   H3R21729   4.276   1.485   6.424  0.3100 -0.3763 -0.4294
  189SAPI   H3S21730   4.129   1.570   6.386 -1.4035  1.0977  1.8780
  189SAPI   C2421731   4.122   1.350   6.352  0.0962  0.1412  0.5903
  189SAPI   H4R21732   4.161   1.266   6.414  0.7429 -1.5441 -1.9160
  189SAPI   H4S21733   4.192   1.347   6.265  1.0334 -1.0487  1.3476
  189SAPI   C2521734   3.982   1.336   6.301  0.8323 -0.0244 -0.3919
  189SAPI   H5R21735   3.904   1.321   6.378 -0.0819 -1.6139 -1.5883
  189SAPI   C2621736   3.939   1.315   6.178 -0.4663  0.5731 -0.4450
  189SAPI   H6R21737   3.830   1.298   6.169 -0.6545 -0.3909  2.5946
  189SAPI   C2721738   4.010   1.320   6.040 -0.2084 -0.7751  0.0229
  189SAPI   H7R21739   4.045   1.218   6.013  1.1040 -0.5087  0.6272
  189SAPI   H7S21740   4.090   1.397   6.043 -1.8388  1.1545 -2.1597
  189SAPI   C2821741   3.912   1.348   5.921 -0.5502  0.3190 -0.2516
  189SAPI   H8R21742   3.815   1.300   5.945 -0.6352  1.0695  0.9913
  189SAPI   C2921743   3.930   1.399   5.803 -0.5213  0.3811  0.8729
  189SAPI   H9R21744   3.849   1.395   5.728 -0.4504  1.2622  0.7384
  189SAPI  C21021745   4.061   1.447   5.756 -0.3224 -0.7292 -0.0633
  189SAPI  H10R21746   4.143   1.393   5.809 -0.1870 -1.4386 -0.9583
  189SAPI  H10S21747   4.070   1.552   5.789 -0.5444  0.0971 -2.5136
  189SAPI  C21121748   4.069   1.437   5.607 -0.5257  0.3706 -0.1954
  189SAPI  H11R21749   4.061   1.336   5.565 -0.6755  0.7012 -0.9734
  189SAPI  C21221750   4.080   1.537   5.517 -0.0252 -0.1702 -0.1392
  189SAPI  H12R21751   4.091   1.502   5.413  0.2213  1.3355 -0.6430
  189SAPI  C21321752   4.065   1.686   5.540  0.8869 -0.2269  0.0669
  189SAPI  H13R21753   4.141   1.748   5.489  2.5325 -2.7679 -0.7762
  189SAPI  H13S21754   4.065   1.719   5.647 -0.2221  0.2505 -0.0599
  189SAPI  C21421755   3.930   1.727   5.487 -0.6263  0.2420  0.4570
  189SAPI  H14R21756   3.883   1.668   5.407 -1.0205  0.1022  0.7908
  189SAPI  C21521757   3.849   1.830   5.520  0.2589 -0.5397  1.0438
  189SAPI  H15R21758   3.764   1.854   5.455  1.7035  2.3771  0.0362
  189SAPI  C21621759   3.882   1.934   5.634  0.0075 -0.2266 -0.5405
  189SAPI  H16R21760   3.866   2.035   5.591 -0.0731 -0.9559 -2.2857
  189SAPI  H16S21761   3.988   1.925   5.666 -0.0801  0.4558 -0.0385
  189SAPI  C21721762   3.806   1.931   5.767  0.3397  0.0717  0.2362
  189SAPI  H17R21763   3.703   1.962   5.739  0.3262 -0.3712 -0.2341
  189SAPI  H17S21764   3.856   2.001   5.837  1.3819 -1.5701  1.2091
  189SAPI  C21821765   3.797   1.799   5.842 -0.3360 -0.3228 -0.7800
  189SAPI  H18R21766   3.896   1.748   5.847  1.4992  3.0275  2.8323
  189SAPI  H18S21767   3.733   1.730   5.783  0.3382  0.0991 -2.0397
  189SAPI  C21921768   3.741   1.812   5.986 -0.4443 -0.8722 -0.3699
  189SAPI  H19R21769   3.630   1.801   5.989 -0.5115 -0.0228  0.8834
  189SAPI  H19S21770   3.754   1.917   6.018  3.0391 -0.7206 -1.8539
  189SAPI  C22021771   3.812   1.723   6.088  0.4949 -0.5051 -0.1930
  189SAPI  H20R21772   3.757   1.730   6.185  2.7153 -2.1492  1.2789
  189SAPI  H20S21773   3.918   1.748   6.106  0.4132 -1.4186  1.7857
  189SAPI  H20T21774   3.810   1.618   6.051  1.2874 -1.0899  1.3498
  189SAPI   C3321775   3.416   1.742   6.245  0.0553  0.0938 -0.1575
  189SAPI   H3X21776   3.492   1.821   6.226  0.0678  0.0178 -0.4174
  189SAPI   H3Y21777   3.332   1.768   6.314 -1.5160 -2.3013 -1.0314
  189SAPI   C3421778   3.353   1.709   6.104  0.4161  0.0947  0.0797
  189SAPI   H4X21779   3.310   1.607   6.100  1.7940 -0.5639  1.3886
  189SAPI   H4Y21780   3.435   1.723   6.030  0.7091 -0.0604  0.3751
  189SAPI   C3521781   3.239   1.808   6.060  0.3746 -0.0726  0.6849
  189SAPI   H5X21782   3.284   1.910   6.067 -1.4209  1.0191 -2.0190
  189SAPI   H5Y21783   3.165   1.803   6.143 -0.3732  0.5367  0.0670
  189SAPI   C3621784   3.189   1.783   5.914 -0.0023 -0.4491 -0.4163
  189SAPI   H6X21785   3.145   1.681   5.912 -0.7119 -0.1707 -3.1310
  189SAPI   H6Y21786   3.263   1.792   5.832  2.9691 -0.1208  2.1213
  189SAPI   C3721787   3.074   1.883   5.886 -0.7612 -0.1123  0.2503
  189SAPI   H7X21788   3.125   1.981   5.883  1.1835 -1.0833 -0.3601
  189SAPI   H7Y21789   3.013   1.884   5.979  2.9339  2.1231  2.8989
  189SAPI   C3821790   2.993   1.840   5.761 -0.1922 -0.2509  0.5985
  189SAPI   H8X21791   2.971   1.732   5.771 -1.8474  0.1062  1.2157
  189SAPI   H8Y21792   3.044   1.844   5.662 -0.0952 -0.1544  0.6524
  189SAPI   C3921793   2.848   1.903   5.749 -0.0383  0.5962  0.0339
  189SAPI   H9X21794   2.808   1.909   5.852  1.7287  1.6851  0.6966
  189SAPI   H9Y21795   2.806   1.827   5.679  1.2492  0.5984 -0.7725
  189SAPI  C31021796   2.842   2.040   5.685 -0.3901 -0.1700 -0.0581
  189SAPI  H10X21797   2.943   2.085   5.695 -0.7534  2.0700 -4.0149
  189SAPI  H10Y21798   2.770   2.108   5.736 -0.4217 -0.6539  0.5542
  189SAPI  C31121799   2.818   2.023   5.538  0.2800  0.2874  0.5540
  189SAPI  H11X21800   2.719   1.976   5.518 -0.5969  2.2670  0.0588
  189SAPI  H11Y21801   2.903   1.968   5.492 -2.0079 -1.8124 -1.4569
  189SAPI  C31221802   2.806   2.164   5.462 -0.0611  0.4679  0.1297
  189SAPI  H12X21803   2.883   2.232   5.502  1.1038 -1.0784  0.6212
  189SAPI  H12Y21804   2.708   2.212   5.482  0.9004  2.2144  0.7855
  189SAPI  C31321805   2.841   2.156   5.312 -0.2754  0.0275 -0.5266
  189SAPI  H13X21806   2.773   2.087   5.257  1.3491 -1.3665 -0.8753
  189SAPI  H13Y21807   2.942   2.108   5.315  0.7242  1.9736 -1.5190
  189SAPI  C31421808   2.863   2.285   5.230  0.4953  0.3566  0.0042
  189SAPI  H14X21809   2.941   2.351   5.273  0.3883  1.1267 -0.9555
  189SAPI  H14Y21810   2.766   2.338   5.230  1.2156  1.8084 -2.0074
  189SAPI  C31521811   2.896   2.261   5.082 -0.0917  0.3556  0.4365
  189SAPI  H15X21812   2.807   2.285   5.020  0.5123  0.8420 -0.2506
  189SAPI  H15Y21813   2.920   2.152   5.087 -1.8301 -0.0760 -0.0382
  189SAPI  C31621814   3.025   2.315   5.018 -0.1465 -0.2430 -0.5433
  189SAPI  H16X21815   3.116   2.268   5.062 -2.0409 -1.9635  1.7784
  189SAPI  H16Y21816   3.029   2.426   5.030 -0.5916 -0.0435 -2.0479
  189SAPI  C31721817   3.045   2.281   4.869 -0.2377  0.5108 -0.0294
  189SAPI  H17X21818   2.967   2.328   4.805 -2.3909 -0.7959  1.5110
  189SAPI  H17Y21819   3.040   2.172   4.850  0.9083  0.4234  0.0940
  189SAPI  C31821820   3.196   2.302   4.832 -0.3204  0.4387 -0.5019
  189SAPI  H18X21821   3.232   2.389   4.893  1.8595  0.2055 -1.3418
  189SAPI  H18Y21822   3.209   2.318   4.723 -1.7053  2.1404 -0.4588
  189SAPI  H18Z21823   3.263   2.219   4.861 -0.0757  0.8471  0.1317
  190SAPI   C1221824   2.997   2.774   7.850 -0.3857  0.0345 -0.2356
  190SAPI    H221825   2.993   2.772   7.739 -0.0288  0.5337 -0.2604
  190SAPI    O221826   2.915   2.671   7.901 -0.2006  0.0936  0.1343
  190SAPI   HO221827   2.884   2.627   7.821 -0.0141  1.0875 -0.4940
  190SAPI   C1321828   3.139   2.764   7.889 -0.5005  0.1641  0.0119
  190SAPI    H321829   3.185   2.856   7.846 -2.6484  0.1530 -2.5721
  190SAPI    O321830   3.209   2.648   7.839 -0.4026 -0.2155 -0.2974
  190SAPI   HO321831   3.155   2.574   7.869  0.5695  0.2748  3.0118
  190SAPI   C1421832   3.158   2.781   8.040  0.4496  0.2271  0.3185
  190SAPI    H421833   3.129   2.685   8.087 -1.3615  1.2338  1.3767
  190SAPI    O421834   3.295   2.796   8.075 -0.1164 -0.4934  0.1015
  190SAPI   HO421835   3.329   2.706   8.075  0.9287 -0.1729  2.0395
  190SAPI   C1521836   3.066   2.877   8.111  0.3952  0.1397 -0.3186
  190SAPI    H521837   3.124   2.972   8.110 -1.4912  1.3461 -1.8739
  190SAPI    O521838   3.040   2.852   8.257 -0.4354 -0.5173 -0.1105
  190SAPI   HO521839   2.987   2.774   8.272 -0.8599 -0.3828 -0.8510
  190SAPI   C1621840   2.935   2.911   8.042 -0.3021 -0.5757  0.0166
  190SAPI    H621841   2.861   2.841   8.087  2.3006 -2.2876  1.9264
  190SAPI    O621842   2.892   3.045   8.084 -0.2841 -0.0895 -0.2242
  190SAPI   HO621843   2.800   3.049   8.055 -0.6547  1.3197  0.9935
  190SAPI   C1121844   2.939   2.904   7.895 -0.4433 -0.1910  0.8536
  190SAPI    H121845   3.001   2.987   7.856  0.3435 -1.3316 -0.3875
  190SAPI     P21846   2.766   3.024   7.723  0.0476 -0.0511 -0.1107
  190SAPI   O1321847   2.810   3.163   7.749 -0.0463 -0.4596 -0.5361
  190SAPI   O1421848   2.615   3.008   7.696 -0.1431  0.3285 -0.2716
  190SAPI   O1221849   2.803   2.921   7.852  0.1467  0.1514 -0.4421
  190SAPI   O1121850   2.855   2.962   7.610 -0.4232  0.4643 -0.5041
  190SAPI    C121851   2.814   2.850   7.538  0.7044  0.3186  0.6848
  190SAPI    HA21852   2.813   2.758   7.600  1.8454  0.4771  0.9576
  190SAPI    HB21853   2.720   2.865   7.480  0.6975  0.6635  0.7860
  190SAPI    C221854   2.911   2.817   7.417  0.1914  0.5090 -0.1803
  190SAPI    HS21855   3.012   2.808   7.461 -0.4065 -0.3040  1.0746
  190SAPI   O2121856   2.896   2.926   7.323 -0.5381 -0.0653 -0.9923
  190SAPI   C2121857   2.994   2.942   7.229 -0.4631  0.1320  0.7666
  190SAPI   O2221858   3.104   2.887   7.229 -0.2133  0.3918  0.1933
  190SAPI   C2221859   2.952   3.033   7.121  0.2692  0.2583 -0.4720
  190SAPI   H2R21860   2.850   3.003   7.089 -0.6197  1.7033  0.8405
  190SAPI   H2S21861   2.934   3.130   7.173 -0.4310 -0.8938  1.5508
  190SAPI    C321862   2.876   2.680   7.356  0.1999 -0.1475 -0.5436
  190SAPI    HX21863   2.768   2.683   7.332  0.2968  1.2317 -0.8828
  190SAPI    HY21864   2.883   2.607   7.440 -1.5540  1.0602  0.7122
  190SAPI   O3121865   2.949   2.649   7.233  0.0918 -0.0702  0.5675
  190SAPI   C3121866   3.064   2.586   7.246 -0.3387 -0.1961  0.2442
  190SAPI   O3221867   3.120   2.555   7.352  0.3974  0.0528 -0.0875
  190SAPI   C3221868   3.143   2.570   7.114 -0.2081 -1.0408  0.3248
  190SAPI   H2X21869   3.223   2.498   7.142 -0.7236 -1.3046  1.1565
  190SAPI   H2Y21870   3.196   2.666   7.098 -0.8467 -0.4613  1.5849
  190SAPI   C2321871   3.051   3.060   7.008 -0.4338 -0.0404  0.1073
  190SAPI   H3R21872   3.067   2.965   6.953 -0.6281  0.2852 -0.5228
  190SAPI   H3S21873   3.150   3.100   7.040 -0.0051  0.0346 -1.2413
  190SAPI   C2421874   2.989   3.160   6.914 -0.0832  0.3802  0.4863
  190SAPI   H4R21875   2.954   3.248   6.972 -1.1120  0.9671 -0.9536
  190SAPI   H4S21876   2.899   3.120   6.863  1.2097  0.3922 -1.9803
  190SAPI   C2521877   3.085   3.200   6.807 -0.2959  0.9467 -0.0867
  190SAPI   H5R21878   3.162   3.272   6.836  2.0199 -1.1863 -0.5564
  190SAPI   C2621879   3.094   3.148   6.681  0.0021  0.0742 -0.2171
  190SAPI   H6R21880   3.156   3.196   6.605  0.0052 -0.9917 -0.9079
  190SAPI   C2721881   2.999   3.039   6.630  0.3045 -0.5462 -0.5613
  190SAPI   H7R21882   2.901   3.078   6.597 -0.0564 -0.7633  0.2240
  190SAPI   H7S21883   2.976   2.971   6.715 -2.0437  2.9108  1.8002
  190SAPI   C2821884   3.058   2.958   6.512  0.4482 -1.0693  0.1399
  190SAPI   H8R21885   3.110   2.867   6.546  0.0277 -1.6162 -0.6411
  190SAPI   C2921886   3.054   2.995   6.385 -0.2745 -0.0611  0.9353
  190SAPI   H9R21887   3.110   2.938   6.309 -1.0536  0.1906  0.1533
  190SAPI  C21021888   2.996   3.119   6.320 -0.4140 -0.4496  0.5837
  190SAPI  H10R21889   2.952   3.181   6.401  0.7384  0.6432  0.3992
  190SAPI  H10S21890   2.911   3.090   6.254 -1.2779 -1.0798  1.9227
  190SAPI  C21121891   3.088   3.213   6.254 -0.1360  0.5150  0.1754
  190SAPI  H11R21892   3.108   3.304   6.312 -0.0428 -1.4947  3.5321
  190SAPI  C21221893   3.160   3.190   6.145  1.0814 -0.3066  0.1131
  190SAPI  H12R21894   3.223   3.274   6.112 -0.2425  0.6679 -0.0022
  190SAPI  C21321895   3.157   3.066   6.060  0.0057 -0.0746  0.8507
  190SAPI  H13R21896   3.058   3.016   6.058  0.3846 -0.9311  2.0699
  190SAPI  H13S21897   3.232   2.998   6.106  1.2639  2.4347  2.7573
  190SAPI  C21421898   3.196   3.091   5.918  0.7011 -0.3128 -0.4668
  190SAPI  H14R21899   3.284   3.038   5.879  1.2564 -0.7044  1.2438
  190SAPI  C21521900   3.129   3.168   5.828  0.3031  0.5955 -0.0183
  190SAPI  H15R21901   3.156   3.171   5.722 -0.3576  0.7884 -0.1881
  190SAPI  C21621902   3.009   3.255   5.859 -0.2300  0.7906  0.3960
  190SAPI  H16R21903   2.976   3.235   5.964 -0.0536  2.1254  0.7268
  190SAPI  H16S21904   2.928   3.229   5.788 -0.8019  1.6085  0.7289
  190SAPI  C21721905   3.038   3.407   5.844  0.4002 -0.0589  0.0557
  190SAPI  H17R21906   3.068   3.422   5.738  0.4858  0.4634  0.1511
  190SAPI  H17S21907   3.131   3.438   5.897  2.2102  1.0910 -3.4773
  190SAPI  C21821908   2.923   3.500   5.903 -0.0847  0.1709 -0.0240
  190SAPI  H18R21909   2.970   3.599   5.923  0.5946 -0.0640 -0.4193
  190SAPI  H18S21910   2.893   3.461   6.002  0.1019 -0.2407 -0.1266
  190SAPI  C21921911   2.798   3.512   5.811 -0.5190  1.2551  0.3797
  190SAPI  H19R21912   2.707   3.557   5.858 -0.1734  0.8321  1.5002
  190SAPI  H19S21913   2.768   3.406   5.796 -0.8065  1.4661 -0.5467
  190SAPI  C22021914   2.823   3.578   5.674  0.5504 -0.0473  0.1618
  190SAPI  H20R21915   2.922   3.544   5.635  0.3518  0.1876 -0.5666
  190SAPI  H20S21916   2.813   3.689   5.681 -1.3989 -0.1666 -0.3026
  190SAPI  H20T21917   2.744   3.543   5.604 -0.7709 -0.4183  1.7943
  190SAPI   C3321918   3.055   2.531   6.990 -0.3739  0.4521  0.6004
  190SAPI   H3X21919   2.999   2.623   6.962 -1.0710 -0.6416 -1.8518
  190SAPI   H3Y21920   2.997   2.438   7.006  2.3417 -1.6939 -1.0029
  190SAPI   C3421921   3.132   2.480   6.872 -0.2656 -0.8461  0.0481
  190SAPI   H4X21922   3.051   2.452   6.801 -2.3057  3.3702  0.4028
  190SAPI   H4Y21923   3.204   2.398   6.888  0.7624  0.4375  2.4979
  190SAPI   C3521924   3.215   2.592   6.796  0.5589  0.2037  0.4337
  190SAPI   H5X21925   3.305   2.605   6.860 -0.9894  2.2295  2.3396
  190SAPI   H5Y21926   3.163   2.689   6.781  0.1702  0.0076  0.5101
  190SAPI   C3621927   3.258   2.531   6.664 -1.0080  0.9936  0.6659
  190SAPI   H6X21928   3.171   2.508   6.599  1.0179  1.9201 -2.6043
  190SAPI   H6Y21929   3.304   2.433   6.688 -0.6627  0.9061 -0.3361
  190SAPI   C3721930   3.362   2.618   6.585  0.0047  0.0260 -0.4635
  190SAPI   H7X21931   3.452   2.633   6.649 -2.0617  1.1198  2.4159
  190SAPI   H7Y21932   3.329   2.724   6.575  0.7161  0.4156  1.0326
  190SAPI   C3821933   3.414   2.567   6.450  0.3031 -0.5789  0.0533
  190SAPI   H8X21934   3.450   2.465   6.473 -0.0107 -0.5552  0.6445
  190SAPI   H8Y21935   3.502   2.625   6.413 -0.4627  0.5155 -0.1231
  190SAPI   C3921936   3.312   2.556   6.330 -0.2996  0.2277  0.1004
  190SAPI   H9X21937   3.224   2.510   6.381 -0.5554 -0.3510 -0.8393
  190SAPI   H9Y21938   3.354   2.486   6.255  1.9151  0.7329  0.7858
  190SAPI  C31021939   3.279   2.694   6.267  0.4244  0.1694  0.6830
  190SAPI  H10X21940   3.375   2.738   6.234  1.9415 -1.3737  2.7483
  190SAPI  H10Y21941   3.227   2.765   6.336 -1.0062 -0.5473  0.3912
  190SAPI  C31121942   3.168   2.681   6.163 -0.1937  0.1142  0.2964
  190SAPI  H11X21943   3.124   2.782   6.146  1.5131  0.9571  0.6542
  190SAPI  H11Y21944   3.091   2.606   6.189  1.1833 -1.3089  0.3676
  190SAPI  C31221945   3.227   2.626   6.032  0.6069  0.0030 -0.4320
  190SAPI  H12X21946   3.266   2.522   6.037 -1.6543 -0.8699  0.5259
  190SAPI  H12Y21947   3.311   2.692   6.004  1.4438 -0.9454 -0.1937
  190SAPI  C31321948   3.113   2.632   5.921  0.4249 -0.2050  0.2436
  190SAPI  H13X21949   3.080   2.738   5.925 -0.3152 -0.4311  0.2985
  190SAPI  H13Y21950   3.032   2.557   5.935  2.5754 -2.8151 -0.2832
  190SAPI  C31421951   3.177   2.599   5.787  0.3521  0.4061  0.4456
  190SAPI  H14X21952   3.194   2.490   5.777  1.9112  0.6726 -0.0567
  190SAPI  H14Y21953   3.282   2.632   5.777  0.9115 -1.8792 -2.7875
  190SAPI  C31521954   3.086   2.646   5.671  0.4446 -0.4598 -0.5917
  190SAPI  H15X21955   2.980   2.634   5.702  0.8233 -3.1568 -0.1003
  190SAPI  H15Y21956   3.097   2.582   5.581 -1.2226  1.3589 -2.1743
  190SAPI  C31621957   3.116   2.791   5.626 -0.0568 -0.1200  0.6256
  190SAPI  H16X21958   3.210   2.828   5.671  1.9979  0.1588 -3.4606
  190SAPI  H16Y21959   3.040   2.864   5.663 -0.7006  0.4072 -1.5902
  190SAPI  C31721960   3.132   2.811   5.476 -0.2581  0.2695  0.6962
  190SAPI  H17X21961   3.041   2.765   5.432 -0.9481  0.6943  1.6417
  190SAPI  H17Y21962   3.216   2.747   5.442 -0.4509  0.1025  0.5305
  190SAPI  C31821963   3.164   2.956   5.440 -0.2154 -0.1288 -0.2401
  190SAPI  H18X21964   3.156   2.954   5.329  0.9476  0.6403 -0.3603
  190SAPI  H18Y21965   3.263   2.991   5.476 -0.6416  1.8485 -0.8996
  190SAPI  H18Z21966   3.093   3.024   5.491 -0.0174  1.2615 -1.7522
  191SAPI   C1221967   6.693   4.755   2.764  0.1793 -0.1925 -0.8217
  191SAPI    H221968   6.723   4.725   2.866  2.6236  2.7849 -0.5413
  191SAPI    O221969   6.811   4.772   2.687  0.1512 -0.2155  0.1399
  191SAPI   HO221970   6.864   4.851   2.698 -0.6524  0.4729 -0.7142
  191SAPI   C1321971   6.607   4.644   2.702  0.5611 -0.5370  0.2950
  191SAPI    H321972   6.504   4.639   2.744 -0.5407  0.0982 -2.1609
  191SAPI    O321973   6.667   4.516   2.725 -0.2659  0.3853  0.1231
  191SAPI   HO321974   6.597   4.452   2.737  0.1137 -0.0268  0.1575
  191SAPI   C1421975   6.571   4.666   2.556  0.4544  0.3737 -0.4562
  191SAPI    H421976   6.663   4.658   2.494  0.0239  2.4373 -1.4525
  191SAPI    O421977   6.474   4.580   2.516  0.0481 -0.1066  0.0265
  191SAPI   HO421978   6.499   4.556   2.426  1.8871  0.6995  0.2757
  191SAPI   C1521979   6.529   4.810   2.531 -0.2296 -0.4590  0.4617
  191SAPI    H521980   6.418   4.815   2.531 -0.2779 -1.3729  0.3613
  191SAPI    O521981   6.565   4.853   2.395  0.3061  0.7080  0.0371
  191SAPI   HO521982   6.660   4.839   2.388  0.1967 -0.2709  0.3141
  191SAPI   C1621983   6.573   4.926   2.630 -0.2645  0.5890 -0.0526
  191SAPI    H621984   6.665   4.966   2.581  0.7672  1.1432  2.2408
  191SAPI    O621985   6.493   5.038   2.638  0.2706 -0.0798  0.5548
  191SAPI   HO621986   6.403   5.008   2.653 -0.6110  0.9740 -2.0326
  191SAPI   C1121987   6.616   4.886   2.775  0.1112  0.6669  0.4539
  191SAPI    H121988   6.525   4.858   2.832 -0.3151 -0.8580 -0.8958
  191SAPI     P21989   6.665   5.062   2.969  0.0984  0.2254  0.1936
  191SAPI   O1321990   6.518   5.068   2.994  0.2410 -0.1497  0.4295
  191SAPI   O1421991   6.722   5.198   2.966 -0.5662  0.0917  0.4027
  191SAPI   O1221992   6.699   4.984   2.832 -0.8306  0.2091 -0.6582
  191SAPI   O1121993   6.731   4.980   3.085 -0.1073  0.3390  0.0892
  191SAPI    C121994   6.708   4.837   3.105  0.4451  0.0851 -0.9343
  191SAPI    HA21995   6.606   4.801   3.080  0.0320  0.2766  0.3983
  191SAPI    HB21996   6.784   4.775   3.053 -1.3688 -4.4347  1.2100
  191SAPI    C221997   6.711   4.788   3.251  0.0273 -0.5972  0.1284
  191SAPI    HS21998   6.722   4.677   3.256  1.1668 -0.4532  2.6886
  191SAPI   O2121999   6.600   4.844   3.323 -0.2032 -0.3875 -0.1023
  191SAPI   C2122000   6.503   4.757   3.360  0.3449 -0.5618  0.0452
  191SAPI   O2222001   6.512   4.638   3.335  0.2261 -0.7222 -0.7817
  191SAPI   C2222002   6.383   4.834   3.419 -0.3335 -0.6661 -0.4526
  191SAPI   H2R22003   6.395   4.944   3.414 -0.9306 -0.5437  0.5363
  191SAPI   H2S22004   6.305   4.794   3.350 -0.3896 -0.2180 -0.6518
  191SAPI    C322005   6.831   4.857   3.318  0.1043 -1.0539  0.0374
  191SAPI    HX22006   6.816   4.967   3.321 -1.0614 -1.2114  0.5526
  191SAPI    HY22007   6.918   4.828   3.255 -0.9241  1.0568 -2.4906
  191SAPI   O3122008   6.853   4.812   3.451 -0.1010 -0.3443  0.0075
  191SAPI   C3122009   6.966   4.847   3.507 -0.0331  0.0083  0.4487
  191SAPI   O3222010   7.053   4.920   3.454 -0.1112 -0.5035  0.1666
  191SAPI   C3222011   6.944   4.808   3.649 -0.5254 -0.5805  0.2709
  191SAPI   H2X22012   6.878   4.719   3.651  0.3303 -1.2077  2.1784
  191SAPI   H2Y22013   6.888   4.893   3.694  0.5359  0.2597  0.0554
  191SAPI   C2322014   6.356   4.799   3.570  0.4134 -0.3180 -0.1985
  191SAPI   H3R22015   6.330   4.692   3.582 -2.3790  0.3780  0.8402
  191SAPI   H3S22016   6.271   4.862   3.606 -0.2903 -1.8379  0.8967
  191SAPI   C2422017   6.482   4.821   3.665  0.1876 -0.0293 -0.0406
  191SAPI   H4R22018   6.561   4.753   3.626  0.8713 -1.0569  2.8838
  191SAPI   H4S22019   6.454   4.800   3.771 -0.0097  0.3103 -0.0223
  191SAPI   C2522020   6.544   4.960   3.658  0.5453 -0.1301 -0.3461
  191SAPI   H5R22021   6.600   4.969   3.563 -0.7270  0.4996 -1.0558
  191SAPI   C2622022   6.527   5.065   3.739  0.0798  0.4047  1.0889
  191SAPI   H6R22023   6.559   5.164   3.702  0.0604  0.1232  0.2923
  191SAPI   C2722024   6.449   5.076   3.869 -0.1529 -0.8736 -0.7023
  191SAPI   H7R22025   6.424   4.980   3.921 -0.6893 -0.1526  0.4068
  191SAPI   H7S22026   6.347   5.118   3.851 -1.0356 -1.2489  2.6093
  191SAPI   C2822027   6.512   5.171   3.967  0.1980  0.0531 -0.0439
  191SAPI   H8R22028   6.576   5.244   3.915  0.6324 -0.8846 -0.8572
  191SAPI   C2922029   6.485   5.182   4.097 -0.3352  0.2772  0.5604
  191SAPI   H9R22030   6.530   5.264   4.155 -0.6508  0.8427  0.0218
  191SAPI  C21022031   6.392   5.104   4.174 -0.2799  0.7138  0.1921
  191SAPI  H10R22032   6.316   5.058   4.107  1.1436  1.3176 -1.9264
  191SAPI  H10S22033   6.336   5.184   4.226  0.9964  1.3338  0.6511
  191SAPI  C21122034   6.446   5.000   4.263  0.4323  0.1192  0.1158
  191SAPI  H11R22035   6.476   4.907   4.211  1.2034  1.0525 -1.1711
  191SAPI  C21222036   6.453   5.012   4.400 -0.1817 -0.4347  0.6019
  191SAPI  H12R22037   6.497   4.932   4.462  2.5578  0.7731  0.3501
  191SAPI  C21322038   6.407   5.124   4.485  0.2957  0.0942  0.2082
  191SAPI  H13R22039   6.449   5.217   4.442  0.8527 -0.0714  0.3807
  191SAPI  H13S22040   6.461   5.109   4.581 -0.1686  0.4512  0.5301
  191SAPI  C21422041   6.265   5.173   4.498 -0.5721 -0.1376 -0.6498
  191SAPI  H14R22042   6.213   5.167   4.401  0.5524  2.1044 -1.4618
  191SAPI  C21522043   6.230   5.260   4.591 -0.4346 -0.2999  0.1823
  191SAPI  H15R22044   6.131   5.307   4.586  0.3344  1.3757 -0.0068
  191SAPI  C21622045   6.316   5.297   4.706 -0.2050 -0.9450 -0.1178
  191SAPI  H16R22046   6.371   5.386   4.669 -0.9584 -0.8393 -1.0232
  191SAPI  H16S22047   6.403   5.230   4.721  2.1438  1.8057 -0.5330
  191SAPI  C21722048   6.241   5.318   4.835  0.8857  0.3650 -0.2807
  191SAPI  H17R22049   6.179   5.231   4.866  1.2017 -0.7238 -2.5713
  191SAPI  H17S22050   6.163   5.397   4.823 -2.2260 -2.3911  0.1065
  191SAPI  C21822051   6.334   5.350   4.950 -0.2425 -0.4394  0.6078
  191SAPI  H18R22052   6.396   5.434   4.913 -1.6137 -0.2821 -1.5457
  191SAPI  H18S22053   6.397   5.261   4.971 -0.6425 -0.9211 -0.1938
  191SAPI  C21922054   6.260   5.384   5.075 -0.2322  0.4652 -0.6702
  191SAPI  H19R22055   6.222   5.310   5.148 -0.3035  1.7370  0.6158
  191SAPI  H19S22056   6.186   5.463   5.049 -1.2192 -0.3309 -0.3101
  191SAPI  C22022057   6.363   5.451   5.165  0.0713 -0.6734 -0.1859
  191SAPI  H20R22058   6.314   5.506   5.248  0.0515 -0.8477 -0.0834
  191SAPI  H20S22059   6.445   5.513   5.121 -0.2746  0.3441  0.5499
  191SAPI  H20T22060   6.414   5.367   5.217 -0.1838 -0.1843  0.8755
  191SAPI   C3322061   7.069   4.776   3.723 -0.4687 -0.5746 -0.5250
  191SAPI   H3X22062   7.123   4.872   3.734  0.1980 -0.6938 -2.4095
  191SAPI   H3Y22063   7.123   4.698   3.666 -0.8704 -1.0619 -0.2438
  191SAPI   C3422064   7.047   4.738   3.869 -0.1875  0.3165 -0.2816
  191SAPI   H4X22065   7.032   4.630   3.888  1.7640  0.0236 -0.2718
  191SAPI   H4Y22066   6.961   4.800   3.905 -0.6479 -1.0240  1.0426
  191SAPI   C3522067   7.177   4.774   3.945 -0.3126 -0.9167 -0.4051
  191SAPI   H5X22068   7.205   4.881   3.942  0.7551 -1.1791 -0.1240
  191SAPI   H5Y22069   7.259   4.705   3.917 -0.1956 -0.4370 -1.2845
  191SAPI   C3622070   7.159   4.744   4.097  0.0445  0.4657 -0.3145
  191SAPI   H6X22071   7.075   4.800   4.142  0.5441  1.3848 -0.5062
  191SAPI   H6Y22072   7.249   4.781   4.150  0.5141  1.6538 -1.8801
  191SAPI   C3722073   7.135   4.595   4.136  0.0247  0.1092 -0.0206
  191SAPI   H7X22074   7.203   4.528   4.079 -1.0806 -0.4577 -0.7330
  191SAPI   H7Y22075   7.034   4.572   4.095  1.3575 -1.3444 -2.8025
  191SAPI   C3822076   7.138   4.560   4.287 -0.2137  0.4466  0.4682
  191SAPI   H8X22077   7.247   4.574   4.309 -0.4706  1.9608  0.9355
  191SAPI   H8Y22078   7.114   4.454   4.309  1.5731 -0.1230 -0.1560
  191SAPI   C3922079   7.065   4.635   4.385 -0.9904 -0.2458 -0.2676
  191SAPI   H9X22080   6.955   4.623   4.379 -1.1989  2.0649 -2.8478
  191SAPI   H9Y22081   7.098   4.740   4.395  2.7457 -1.3398  0.3580
  191SAPI  C31022082   7.096   4.578   4.529  0.0077 -0.3119 -0.0694
  191SAPI  H10X22083   7.205   4.579   4.548 -0.2667  2.1634  1.8719
  191SAPI  H10Y22084   7.058   4.473   4.535 -0.0471 -0.2079  1.9495
  191SAPI  C31122085   7.029   4.653   4.636  0.5907 -0.8660 -0.4349
  191SAPI  H11X22086   6.920   4.652   4.617  0.5466 -0.2528 -0.2241
  191SAPI  H11Y22087   7.063   4.758   4.624 -0.4313 -0.2535  1.6960
  191SAPI  C31222088   7.058   4.609   4.779 -0.1021 -0.8298 -0.1930
  191SAPI  H12X22089   7.168   4.605   4.788 -0.1959  0.8298  3.2224
  191SAPI  H12Y22090   7.013   4.508   4.792  0.4032 -1.2152 -1.3652
  191SAPI  C31322091   7.002   4.720   4.874  0.0979  0.1236  0.0550
  191SAPI  H13X22092   6.891   4.712   4.865 -0.0969 -0.8600  2.7271
  191SAPI  H13Y22093   7.044   4.817   4.839  2.1154 -1.2881 -1.7146
  191SAPI  C31422094   7.047   4.695   5.016 -0.0712 -0.5326  0.0490
  191SAPI  H14X22095   7.151   4.656   5.015 -0.8955 -2.9335 -1.3940
  191SAPI  H14Y22096   6.990   4.607   5.054  0.3584 -1.7019 -1.8705
  191SAPI  C31522097   7.028   4.810   5.120 -0.1570 -0.0451  0.3409
  191SAPI  H15X22098   6.920   4.822   5.144  0.2699  0.9640  1.9223
  191SAPI  H15Y22099   7.061   4.909   5.081 -0.3031  0.1233  0.6385
  191SAPI  C31622100   7.079   4.782   5.261 -0.3891 -0.0619 -0.5728
  191SAPI  H16X22101   7.190   4.773   5.265 -0.3492  0.5837 -0.1760
  191SAPI  H16Y22102   7.043   4.685   5.302  1.4218  0.0172  1.4007
  191SAPI  C31722103   7.025   4.894   5.355  0.8592  0.3433 -0.4283
  191SAPI  H17X22104   7.030   4.866   5.462 -3.1304  1.4999  0.2506
  191SAPI  H17Y22105   6.914   4.897   5.347  0.6540 -2.0902  0.6286
  191SAPI  C31822106   7.081   5.035   5.332 -0.5343  0.0173  0.6018
  191SAPI  H18X22107   7.191   5.035   5.347 -0.5869 -1.3294  1.1426
  191SAPI  H18Y22108   7.051   5.099   5.418 -0.8941  0.6452  0.0192
  191SAPI  H18Z22109   7.055   5.089   5.239 -1.2489  1.8246  1.7844
  192SAPI   C1222110   6.121   4.534   2.640  0.3213  0.6815  0.0461
  192SAPI    H222111   6.142   4.436   2.592 -1.3416 -1.1895  2.8111
  192SAPI    O222112   6.202   4.631   2.572  0.7737 -0.4886 -0.0375
  192SAPI   HO222113   6.292   4.601   2.583  0.1776 -1.4725  2.8179
  192SAPI   C1322114   5.976   4.565   2.626 -0.0768  0.0514 -0.6229
  192SAPI    H322115   5.925   4.495   2.696  0.0249 -0.6459 -1.2196
  192SAPI    O322116   5.925   4.550   2.491 -0.4815  0.3552  0.2200
  192SAPI   HO322117   5.999   4.509   2.445 -1.3802 -1.8154  0.5817
  192SAPI   C1422118   5.955   4.706   2.681 -0.1668 -0.5430  0.1577
  192SAPI    H422119   6.013   4.785   2.629  0.5806 -1.1110  0.1077
  192SAPI    O422120   5.817   4.754   2.666 -0.4708 -0.6250 -0.2241
  192SAPI   HO422121   5.764   4.711   2.734 -0.6549 -0.0699 -0.0108
  192SAPI   C1522122   5.993   4.707   2.837 -0.8686 -0.4233 -0.0485
  192SAPI    H522123   5.916   4.640   2.883 -0.3446 -1.3511 -0.4852
  192SAPI    O522124   5.983   4.841   2.900  0.1851  0.2303  0.1128
  192SAPI   HO522125   5.890   4.861   2.906  0.4970  1.3385  1.8424
  192SAPI   C1622126   6.127   4.643   2.862 -0.2304  0.2824 -0.1979
  192SAPI    H622127   6.207   4.713   2.830 -0.5466  1.2642  1.1067
  192SAPI    O622128   6.146   4.625   2.997 -0.5576  0.1837 -0.7240
  192SAPI   HO622129   6.224   4.678   3.018 -3.0700  4.0946 -0.1695
  192SAPI   C1122130   6.151   4.516   2.788  0.0197 -0.5078  0.5007
  192SAPI    H122131   6.091   4.438   2.840  0.4110  0.4849  2.5403
  192SAPI     P22132   6.348   4.330   2.819  0.0786  0.0558 -0.1402
  192SAPI   O1322133   6.479   4.332   2.759  0.3725  0.0505  1.1196
  192SAPI   O1422134   6.253   4.231   2.763 -0.0827  0.1989 -0.3361
  192SAPI   O1222135   6.287   4.483   2.805  0.4441 -0.2359 -0.4862
  192SAPI   O1122136   6.359   4.295   2.967  0.1275 -0.1311 -0.4380
  192SAPI    C122137   6.441   4.376   3.049  0.1154 -0.3561  0.2698
  192SAPI    HA22138   6.538   4.396   2.999 -1.9143  1.8725 -3.2016
  192SAPI    HB22139   6.397   4.477   3.066 -0.1803 -0.7039  1.7277
  192SAPI    C222140   6.475   4.310   3.182  0.2140 -0.2076  0.0364
  192SAPI    HS22141   6.569   4.350   3.227 -0.3417 -1.4141  2.4409
  192SAPI   O2122142   6.473   4.166   3.173 -0.2440 -0.0711 -0.5420
  192SAPI   C2122143   6.586   4.103   3.135  0.1361 -0.1361 -0.7092
  192SAPI   O2222144   6.683   4.162   3.095  0.5399  0.2010 -0.3357
  192SAPI   C2222145   6.562   3.951   3.143  0.2948  0.3328  0.1364
  192SAPI   H2R22146   6.494   3.921   3.060  2.0214 -0.4522 -1.0466
  192SAPI   H2S22147   6.663   3.910   3.121  1.1169  3.4518 -2.6521
  192SAPI    C322148   6.348   4.353   3.271  0.0400  0.2186  0.6804
  192SAPI    HX22149   6.250   4.316   3.233 -0.4207 -1.4002  3.1973
  192SAPI    HY22150   6.337   4.463   3.255 -2.2603 -0.2176 -1.3039
  192SAPI   O3122151   6.370   4.323   3.408 -0.2936 -0.2225  0.1266
  192SAPI   C3122152   6.291   4.230   3.465 -0.2709  0.3175  0.7006
  192SAPI   O3222153   6.207   4.159   3.408  0.7834 -0.2183 -0.2410
  192SAPI   C3222154   6.351   4.205   3.614 -0.3459  0.0762  0.6989
  192SAPI   H2X22155   6.359   4.304   3.664 -1.5265  0.6413 -0.1623
  192SAPI   H2Y22156   6.453   4.163   3.599  0.0207  1.4528 -1.0610
  192SAPI   C2322157   6.497   3.895   3.277 -0.3621 -0.6116 -0.7078
  192SAPI   H3R22158   6.489   3.785   3.269  2.0487 -0.9167  0.3282
  192SAPI   H3S22159   6.395   3.939   3.280 -0.1565 -0.1281 -0.7243
  192SAPI   C2422160   6.566   3.949   3.398 -0.3622 -0.2548  0.0224
  192SAPI   H4R22161   6.501   3.918   3.482  1.1500 -1.4367  0.7950
  192SAPI   H4S22162   6.582   4.059   3.395 -2.9684  0.2185  0.5305
  192SAPI   C2522163   6.698   3.873   3.431 -0.2673  0.3757  0.2415
  192SAPI   H5R22164   6.745   3.818   3.348 -0.3081  0.0158  0.4546
  192SAPI   C2622165   6.746   3.858   3.557  0.1610  0.4308  0.3567
  192SAPI   H6R22166   6.842   3.804   3.561  0.3834  0.8584  0.8216
  192SAPI   C2722167   6.692   3.918   3.688  0.7202  0.2940  0.4623
  192SAPI   H7R22168   6.659   3.829   3.747  1.4552 -1.5094 -1.6874
  192SAPI   H7S22169   6.608   3.990   3.678  1.0061  0.5545 -0.0773
  192SAPI   C2822170   6.799   3.990   3.764 -0.1697 -0.1673  0.8525
  192SAPI   H8R22171   6.787   4.098   3.749 -1.6678 -0.6038 -1.7568
  192SAPI   C2922172   6.906   3.939   3.828  0.7895  0.4453  0.1824
  192SAPI   H9R22173   6.981   4.006   3.874  2.0622 -0.5248 -0.3962
  192SAPI  C21022174   6.943   3.791   3.840  0.3764 -1.1429  0.0147
  192SAPI  H10R22175   7.051   3.797   3.866 -0.7612  0.1024  5.9632
  192SAPI  H10S22176   6.921   3.751   3.739  0.8236  0.6318 -0.8136
  192SAPI  C21122177   6.856   3.727   3.950 -0.7729  0.0070 -0.0574
  192SAPI  H11R22178   6.786   3.654   3.907  2.3368 -2.0301 -2.0622
  192SAPI  C21222179   6.884   3.737   4.085  0.1902 -0.0717  0.2628
  192SAPI  H12R22180   6.814   3.688   4.155 -0.5935  1.3651  0.5173
  192SAPI  C21322181   7.013   3.806   4.138 -0.1118  0.3880  0.5452
  192SAPI  H13R22182   6.976   3.886   4.206 -0.7598  1.5376 -1.0941
  192SAPI  H13S22183   7.069   3.853   4.053 -1.1962 -0.3790 -0.6203
  192SAPI  C21422184   7.085   3.693   4.214 -0.1778  0.4050 -0.5027
  192SAPI  H14R22185   7.179   3.661   4.167 -0.4719 -2.4707  0.6412
  192SAPI  C21522186   7.055   3.636   4.336  0.3705  0.2044  0.2407
  192SAPI  H15R22187   7.130   3.562   4.368  1.8837  1.7126  0.3478
  192SAPI  C21622188   6.937   3.668   4.425  0.2701 -0.0347 -0.2967
  192SAPI  H16R22189   6.866   3.582   4.426  1.0116 -0.6781  1.3310
  192SAPI  H16S22190   6.880   3.757   4.391  1.5836  1.1992  0.6397
  192SAPI  C21722191   6.982   3.689   4.575 -0.9446  0.1140 -0.5068
  192SAPI  H17R22192   7.053   3.773   4.588 -3.2567  2.2514 -0.9630
  192SAPI  H17S22193   7.038   3.603   4.619 -2.7101 -0.6437  0.3707
  192SAPI  C21822194   6.872   3.699   4.682  0.5298 -0.1762  0.8501
  192SAPI  H18R22195   6.778   3.735   4.635 -0.3535 -2.1811  0.9697
  192SAPI  H18S22196   6.898   3.771   4.763 -2.6222 -0.5033  2.3122
  192SAPI  C21922197   6.828   3.567   4.736 -0.4172 -0.0452  0.1803
  192SAPI  H19R22198   6.901   3.518   4.805  0.2777 -1.1160 -1.2770
  192SAPI  H19S22199   6.806   3.488   4.661  0.0377 -1.4080  1.4156
  192SAPI  C22022200   6.697   3.585   4.809  0.0051 -0.0147 -0.5810
  192SAPI  H20R22201   6.683   3.500   4.879  1.8327 -0.8219 -1.1299
  192SAPI  H20S22202   6.613   3.593   4.737  0.3531 -3.9718 -1.6187
  192SAPI  H20T22203   6.683   3.683   4.861  0.7271 -0.0253 -0.3547
  192SAPI   C3322204   6.261   4.119   3.707 -0.3285  0.4067 -0.5156
  192SAPI   H3X22205   6.224   4.038   3.640 -1.7295  2.1207 -1.9020
  192SAPI   H3Y22206   6.167   4.171   3.732 -1.0634 -1.4865  0.9471
  192SAPI   C3422207   6.347   4.056   3.810 -0.5586 -0.4023  0.1171
  192SAPI   H4X22208   6.445   4.023   3.770 -0.3755  1.1479 -0.7976
  192SAPI   H4Y22209   6.305   3.959   3.844 -0.3459 -1.3335 -2.0862
  192SAPI   C3522210   6.361   4.136   3.941 -0.7870 -0.4367  0.0887
  192SAPI   H5X22211   6.260   4.171   3.972 -0.5685  0.0249  0.2919
  192SAPI   H5Y22212   6.422   4.221   3.904 -1.1732 -1.0677 -2.1454
  192SAPI   C3622213   6.439   4.051   4.041 -0.1113 -0.0800  0.5333
  192SAPI   H6X22214   6.534   4.023   3.992 -1.0966 -0.8812 -0.9845
  192SAPI   H6Y22215   6.386   3.957   4.068 -0.7346  0.2653  0.5354
  192SAPI   C3722216   6.471   4.133   4.165  0.5852 -0.0531  0.2205
  192SAPI   H7X22217   6.516   4.231   4.139  1.8645 -0.8550 -0.7272
  192SAPI   H7Y22218   6.553   4.081   4.219  1.0088 -0.3021 -0.6439
  192SAPI   C3822219   6.348   4.135   4.264  0.4961 -0.1094 -0.0395
  192SAPI   H8X22220   6.319   4.028   4.249  1.5818 -0.5286  0.7193
  192SAPI   H8Y22221   6.268   4.191   4.210  0.9739 -0.9593 -1.6903
  192SAPI   C3922222   6.382   4.171   4.404  0.1623  0.0278 -0.3822
  192SAPI   H9X22223   6.421   4.275   4.409 -2.8471  1.2076  0.7828
  192SAPI   H9Y22224   6.466   4.109   4.442 -0.0931 -0.9412 -1.3549
  192SAPI  C31022225   6.257   4.174   4.494 -0.7020  0.2515  0.4256
  192SAPI  H10X22226   6.209   4.075   4.484  2.2887 -1.4456  1.5532
  192SAPI  H10Y22227   6.186   4.246   4.447 -2.0635 -0.9606  0.5599
  192SAPI  C31122228   6.283   4.208   4.640 -0.7425 -0.2820  0.0865
  192SAPI  H11X22229   6.315   4.314   4.644 -0.3777 -0.3654 -0.4691
  192SAPI  H11Y22230   6.364   4.150   4.687 -1.5252 -0.4390  1.2948
  192SAPI  C31222231   6.156   4.198   4.724  0.3633  0.5805 -0.2197
  192SAPI  H12X22232   6.184   4.198   4.831 -0.8767  0.2629  0.1098
  192SAPI  H12Y22233   6.108   4.102   4.697  0.8049  0.5681 -1.0211
  192SAPI  C31322234   6.048   4.308   4.706 -0.0473  0.4202 -0.0908
  192SAPI  H13X22235   5.988   4.282   4.616  1.6427  1.5195 -1.5864
  192SAPI  H13Y22236   6.096   4.406   4.685  1.1908 -0.1220  0.1112
  192SAPI  C31422237   5.940   4.305   4.813  0.2344 -0.4112 -0.1352
  192SAPI  H14X22238   5.893   4.205   4.819 -3.3297  1.1625  2.0760
  192SAPI  H14Y22239   5.856   4.375   4.793  1.6415  2.4413  2.8728
  192SAPI  C31522240   5.988   4.358   4.956 -0.3556  0.6469  0.5903
  192SAPI  H15X22241   6.022   4.464   4.945  0.5909  0.3048  0.1166
  192SAPI  H15Y22242   6.084   4.306   4.978 -0.3106 -0.1335 -1.2695
  192SAPI  C31622243   5.883   4.346   5.068  0.3413  0.2412  0.8016
  192SAPI  H16X22244   5.860   4.238   5.083  1.6871 -0.5857 -2.3393
  192SAPI  H16Y22245   5.794   4.409   5.046 -1.6950 -2.8045 -0.4264
  192SAPI  C31722246   5.932   4.405   5.200  0.1973  0.7030 -0.1471
  192SAPI  H17X22247   5.843   4.387   5.265  0.6120 -1.0679 -0.0254
  192SAPI  H17Y22248   5.950   4.514   5.183  0.9686  0.7560  0.9513
  192SAPI  C31822249   6.064   4.347   5.262 -0.2399 -0.5190 -0.2230
  192SAPI  H18X22250   6.044   4.280   5.348 -1.3510 -0.9730 -0.8184
  192SAPI  H18Y22251   6.136   4.427   5.289 -1.1760  0.3674 -0.2899
  192SAPI  H18Z22252   6.111   4.280   5.187  3.0100 -0.2501  1.4061
  193SOD    SOD22253   0.406   4.495   2.866  0.5366 -0.4527  0.4138
  194SOD    SOD22254   3.225   6.522   2.563 -0.4073 -0.7813 -0.0235
  195SOD    SOD22255   3.283   6.948   8.181  0.2961 -0.2870 -0.3635
  196SOD    SOD22256   0.369   0.056   6.981  0.2333 -0.2131  0.3109
  197SOD    SOD22257   0.835   2.552   2.156 -0.1285 -0.2013  0.0239
  198SOD    SOD22258   6.456   0.549   8.114  0.0936 -0.0260 -0.1787
  199SOD    SOD22259   1.631   2.043   7.116 -0.6525 -0.1877 -0.3144
  200SOD    SOD22260   5.826   4.875   1.083 -0.0680 -0.0631 -0.0310
  201SOD    SOD22261   0.509   1.269   7.183 -0.2524  0.5330  0.3057
  202SOD    SOD22262   3.806   0.672   7.807 -0.8994  0.2864 -0.1471
  203SOD    SOD22263   5.814   2.810   7.915  0.4344 -0.0724 -0.1556
  204SOD    SOD22264   2.021   1.157   8.098  0.1150 -0.0517 -0.0596
  205SOD    SOD22265   4.753   3.538   1.715  0.4450  0.3270  0.0377
  206SOD    SOD22266   6.284   6.093   6.955  0.0306 -0.9791  0.2260
  207SOD    SOD22267   5.476   5.111   0.224  0.2650 -0.1117  0.1347
  208SOD    SOD22268   1.630   2.013   8.326 -0.1416 -0.6412  0.5246
  209SOD    SOD22269   4.486   6.011   7.001 -0.5115  0.1877  0.2496
  210SOD    SOD22270   4.507   5.954   7.958  0.5996 -0.1180 -0.1379
  211SOD    SOD22271   0.900   6.714   1.719 -0.1121 -0.2395  0.2142
  212SOD    SOD22272   6.316   1.036   0.626  0.6891 -0.2790 -0.1666
  213SOD    SOD22273   4.396   4.176   8.389  0.3594  0.0697  0.4067
  214SOD    SOD22274   6.049   5.725   1.951 -0.2078 -0.0715 -0.0756
  215SOD    SOD22275   3.184   2.843   2.028  0.9153  0.2787  0.8603
  216SOD    SOD22276   5.727   5.804   2.791 -0.3826 -0.2432  0.0038
  217SOD    SOD22277   2.775   5.876   7.312  0.1464 -0.0518 -0.2752
  218SOD    SOD22278   5.311   4.148   1.342 -0.1383 -0.2975 -0.7170
  219SOD    SOD22279   3.833   2.185   7.970  0.3610 -0.3573 -0.1156
  220SOD    SOD22280   2.260   5.530   8.414  0.9667  0.0109 -0.2877
  221SOD    SOD22281   3.395   5.604   0.575  0.0409 -0.0509 -0.0253
  222SOD    SOD22282   4.760   3.552   1.110 -0.3065 -0.1284 -0.0191
  223SOD    SOD22283   5.407   5.568   1.819  0.6546  0.0865  0.3761
  224SOD    SOD22284   0.512   5.408   3.468  0.1514 -0.3472 -0.0195
  225SOD    SOD22285   4.732   5.912   2.181  0.0218  0.8422 -0.5902
  226SOD    SOD22286   3.007   0.999   6.887 -0.5965  0.0011  0.6373
  227SOD    SOD22287   5.511   0.075   0.407  0.0198  0.3413 -0.1129
  228SOD    SOD22288   0.416   6.284   1.541  0.1348 -0.6767  0.2232
  229SOD    SOD22289   3.695   5.068   2.232  0.1403  0.3670  0.2136
  230SOD    SOD22290   2.334   5.925   7.900  0.6377 -0.0627 -0.6057
  231SOD    SOD22291   4.176   6.302   0.793 -0.0435 -0.4273 -0.9153
  232SOD    SOD22292   4.895   4.586   2.353 -0.2630  0.0842 -0.2719
  233SOD    SOD22293   4.421   6.409   3.050 -0.1582  0.3665  0.2716
  234CLA    CLA22294   4.921   3.025   0.490 -0.2279 -0.0468  0.2308
  235CLA    CLA22295   6.120   0.630   2.004 -0.5600 -0.2815 -0.0080
  236CLA    CLA22296   1.357   5.507   8.377  0.2902  0.4245 -0.2601
  237CLA    CLA22297   0.750   4.366   1.968  0.6007 -0.1688  0.1532
  238CLA    CLA22298   4.267   6.535   1.379 -0.0283 -0.0536  0.2975
  239CLA    CLA22299   3.530   1.963   0.957 -0.2332  0.4160 -0.1062
  240CLA    CLA22300   2.009   3.359   2.759 -0.0416 -0.1251 -0.0652
  241CLA    CLA22301   6.900   6.087   0.501 -0.3832 -0.4230 -0.2675
  242CLA    CLA22302   4.635   6.770   1.131  0.3174 -0.7914 -0.1220
  243CLA    CLA22303   3.448   1.626   0.249 -0.1783  0.2886  0.0995
  244CLA    CLA22304   0.410   0.658   0.441  0.2433  0.3906 -0.4208
  245CLA    CLA22305   5.381   6.845   0.288  0.0491 -0.3267 -0.1036
  246CLA    CLA22306   6.080   0.382   1.323 -0.0845 -0.5327 -0.0762
  247CLA    CLA22307   4.360   4.009   1.109  0.1280 -0.2418  0.2506
  248CLA    CLA22308   6.150   5.783   0.608 -0.3027  0.0496 -0.2472
  249CLA    CLA22309   5.328   5.013   1.003 -0.4415 -0.5351  0.0496
  250CLA    CLA22310   5.264   2.023   1.206  0.0813  0.2964 -0.2544
  251TIP3   OH222311   5.818   3.766   2.131  0.0767 -0.1941  0.0344
  251TIP3    H122312   5.799   3.673   2.123 -1.6045  0.1448 -0.3044
  251TIP3    H222313   5.850   3.791   2.044 -0.2703 -0.2896 -0.1213
  252TIP3   OH222314   2.253   0.997   7.292 -0.6249 -0.0960  0.1151
  252TIP3    H122315   2.339   1.034   7.308 -0.2974 -1.1556  0.9053
  252TIP3    H222316   2.252   0.977   7.198 -0.4695  1.0304 -0.1326
  253TIP3   OH222317   2.628   0.751   8.426  0.0354  0.5880  0.2172
  253TIP3    H122318   2.619   0.686   8.497  0.4265  0.1755 -0.1081
  253TIP3    H222319   2.656   0.831   8.471 -0.5001  0.5518  0.6300
  254TIP3   OH222320   1.325   1.000   2.304  0.9298  0.1124 -0.5350
  254TIP3    H122321   1.241   1.044   2.317  1.4829  1.0877 -0.1408
  254TIP3    H222322   1.313   0.950   2.223 -0.2956 -0.4418 -0.0375
  255TIP3   OH222323   5.925   3.011   0.197 -0.1328  0.4083 -0.2313
  255TIP3    H122324   5.877   3.068   0.257 -0.1950 -1.0633  1.1942
  255TIP3    H222325   5.858   2.957   0.157  0.0457  0.4528 -0.5886
  256TIP3   OH222326   1.007   1.444   3.325 -0.0464  0.0742  0.1564
  256TIP3    H122327   1.091   1.436   3.278  0.5285 -1.1855  1.3320
  256TIP3    H222328   1.001   1.364   3.377 -1.0415  1.0529  1.6099
  257TIP3   OH222329   0.494   1.391   7.376 -0.2405  0.1052 -0.1561
  257TIP3    H122330   0.467   1.380   7.467 -2.2936  0.9206 -0.6080
  257TIP3    H222331   0.571   1.448   7.381  0.8198 -1.3364  1.1305
  258TIP3   OH222332   5.785   4.593   0.700 -0.2849 -0.1427 -0.4683
  258TIP3    H122333   5.766   4.685   0.718 -0.9634 -0.4306  0.3971
  258TIP3    H222334   5.699   4.551   0.694  0.0019 -0.6126 -1.5147
  259TIP3   OH222335   2.766   2.411   8.004 -0.3947 -0.0610  0.1566
  259TIP3    H122336   2.800   2.465   7.932  0.5549  1.6159  1.7879
  259TIP3    H222337   2.671   2.411   7.990 -0.4498  2.1682  0.1448
  260TIP3   OH222338   2.155   4.922   0.636  0.0914 -0.7806  0.2884
  260TIP3    H122339   2.130   4.913   0.728 -1.0760 -0.6278  0.0049
  260TIP3    H222340   2.135   4.836   0.598  1.6367 -1.2150  0.3967
  261TIP3   OH222341   5.588   1.524   7.869 -0.5582 -0.4516 -0.0256
  261TIP3    H122342   5.506   1.554   7.907 -0.2903  0.5636 -0.2216
  261TIP3    H222343   5.580   1.543   7.776 -0.3614 -0.9676 -0.1520
  262TIP3   OH222344   2.764   4.454   7.704  0.0719 -0.0659 -0.0095
  262TIP3    H122345   2.798   4.479   7.619 -0.8832 -0.1013 -0.4162
  262TIP3    H222346   2.680   4.500   7.711  0.4834  0.5496  1.2439
  263TIP3   OH222347   6.786   5.711   2.685 -0.0564  0.4358 -0.0381
  263TIP3    H122348   6.777   5.775   2.755  0.1236  1.9617 -1.3402
  263TIP3    H222349   6.736   5.635   2.714 -0.1887  1.1267  1.6063
  264TIP3   OH222350   3.602   1.219   0.042 -0.6460 -0.9355 -0.2284
  264TIP3    H122351   3.590   1.234   0.135 -3.1858 -0.9308 -0.5068
  264TIP3    H222352   3.585   1.125   0.030 -2.9964 -0.4769 -0.9831
  265TIP3   OH222353   4.707   4.623   2.239 -0.3554  0.1406 -0.5036
  265TIP3    H122354   4.696   4.609   2.145  0.5717 -1.0684 -0.4680
  265TIP3    H222355   4.622   4.601   2.277 -0.7813  0.7877 -1.0609
  266TIP3   OH222356   2.308   6.435   0.789  0.6583 -0.2441 -0.0649
  266TIP3    H122357   2.213   6.438   0.799  0.7526  0.2304  0.7311
  266TIP3    H222358   2.331   6.344   0.812  0.0548 -1.4989 -3.7608
  267TIP3   OH222359   5.803   2.355   0.725  0.6496  0.3886 -0.3959
  267TIP3    H122360   5.753   2.429   0.760  0.2720 -1.2602  2.9631
  267TIP3    H222361   5.741   2.282   0.724  1.5952 -0.4364 -1.4736
  268TIP3   OH222362   2.563   3.386   1.834 -0.0553  0.1438  0.3781
  268TIP3    H122363   2.614   3.342   1.902  0.0612 -0.0709  0.1518
  268TIP3    H222364   2.473   3.386   1.868  0.2777  1.6289  1.3429
  269TIP3   OH222365   5.523   4.150   1.985 -0.0170 -0.8209  0.1559
  269TIP3    H122366   5.575   4.107   2.053 -2.0009 -2.4576  0.7711
  269TIP3    H222367   5.489   4.078   1.932 -0.2025  0.3016 -1.2966
  270TIP3   OH222368   4.921   1.921   2.803  0.0680 -0.0739 -0.2405
  270TIP3    H122369   4.972   1.971   2.738  0.4585  0.3937  0.4198
  270TIP3    H222370   4.986   1.873   2.853 -0.3557 -1.9932 -1.4434
  271TIP3   OH222371   0.296   5.814   7.467  0.2567  0.7626  0.6224
  271TIP3    H122372   0.265   5.735   7.510  0.3108  0.3784 -0.0263
  271TIP3    H222373   0.391   5.803   7.461  0.1275  0.1843 -0.7751
  272TIP3   OH222374   5.071   1.484   1.632 -0.6961  0.1034  0.0023
  272TIP3    H122375   5.036   1.543   1.565  1.2818  0.1719 -1.0607
  272TIP3    H222376   5.032   1.399   1.612  1.7178 -0.4916 -2.9783
  273TIP3   OH222377   4.942   2.885   1.329 -0.1407 -0.0916 -0.5108
  273TIP3    H122378   5.027   2.927   1.328 -0.5739  0.8569  0.4411
  273TIP3    H222379   4.958   2.798   1.368  0.5346 -0.2964 -1.2399
  274TIP3   OH222380   5.328   3.195   1.798 -0.2104 -0.3775  0.4292
  274TIP3    H122381   5.401   3.238   1.843 -0.1509 -1.6081  1.5765
  274TIP3    H222382   5.349   3.102   1.803 -0.9569 -0.6378 -0.8770
  275TIP3   OH222383   3.087   3.497   0.871  0.1946  0.3250  0.0326
  275TIP3    H122384   3.090   3.592   0.881 -3.1338  0.4796  0.6808
  275TIP3    H222385   3.046   3.482   0.786 -0.3856 -0.5061  0.4448
  276TIP3   OH222386   1.353   3.016   0.252  0.3626  0.1416  0.7588
  276TIP3    H122387   1.377   3.093   0.305  0.1166  0.1279  0.8894
  276TIP3    H222388   1.327   2.950   0.316  0.0013  0.1468  0.6180
  277TIP3   OH222389   2.004   4.542   1.852  0.9338  0.1710 -0.4689
  277TIP3    H122390   1.911   4.536   1.873  0.8930 -1.5662 -1.0112
  277TIP3    H222391   2.049   4.502   1.926  1.6685  4.7229  1.9150
  278TIP3   OH222392   1.786   4.307   1.701 -0.0792 -0.3816 -0.0233
  278TIP3    H122393   1.700   4.347   1.710 -0.0785 -0.5267  0.7378
  278TIP3    H222394   1.798   4.257   1.782  0.7935 -0.2193 -0.0394
  279TIP3   OH222395   1.321   4.025   2.075  0.6572  0.2242  0.4868
  279TIP3    H122396   1.252   4.051   2.014  0.3887  0.2437  0.7942
  279TIP3    H222397   1.402   4.035   2.026  0.3989 -0.3649 -0.0666
  280TIP3   OH222398   2.849   1.298   0.642 -0.2776 -0.1140 -0.2651
  280TIP3    H122399   2.916   1.346   0.594 -0.2887 -0.9158 -1.1057
  280TIP3    H222400   2.877   1.303   0.734 -0.5713  1.9231 -0.2448
  281TIP3   OH222401   4.072   0.832   3.631 -0.4784 -0.2161  0.2075
  281TIP3    H122402   4.134   0.767   3.598  2.4985  2.1498  0.7152
  281TIP3    H222403   4.076   0.822   3.726 -1.1992 -0.2765  0.2390
  282TIP3   OH222404   0.371   3.131   7.876  0.3762  0.9721  0.3130
  282TIP3    H122405   0.321   3.065   7.924  1.3476  0.5753  0.8019
  282TIP3    H222406   0.375   3.206   7.935 -1.5027  1.8512 -0.5937
  283TIP3   OH222407   0.350   1.673   7.903  0.6113  0.7426  0.3785
  283TIP3    H122408   0.437   1.679   7.864  0.5397  0.4273  0.1630
  283TIP3    H222409   0.306   1.605   7.852  0.4717  0.4100  0.9365
  284TIP3   OH222410   5.664   2.804   1.354 -0.5407  1.0322  0.7329
  284TIP3    H122411   5.575   2.829   1.378 -0.2967  0.6016  2.1349
  284TIP3    H222412   5.653   2.739   1.285 -1.3175  0.8486  1.0241
  285TIP3   OH222413   4.715   1.825   7.875  0.2801  0.2137  0.1606
  285TIP3    H122414   4.776   1.825   7.948  1.0927 -0.0013 -0.5019
  285TIP3    H222415   4.764   1.867   7.804 -0.1778 -0.3786 -0.5105
  286TIP3   OH222416   2.577   2.433   2.063 -0.5950 -0.5186  0.1296
  286TIP3    H122417   2.574   2.340   2.086  0.8394 -0.5141  0.4443
  286TIP3    H222418   2.551   2.478   2.144  0.7709 -0.6148  0.6566
  287TIP3   OH222419   3.898   5.721   7.505 -0.5710 -0.0550  0.9133
  287TIP3    H122420   3.936   5.636   7.527 -0.1400  0.0494  0.5714
  287TIP3    H222421   3.814   5.700   7.464  0.0878 -0.3632 -0.3055
  288TIP3   OH222422   4.920   3.944   0.523 -0.5672 -0.1502 -0.1580
  288TIP3    H122423   4.877   3.864   0.495 -0.6523 -0.6082  1.2072
  288TIP3    H222424   4.988   3.915   0.583  0.0893  0.7325 -0.4604
  289TIP3   OH222425   4.724   6.514   0.945  0.5724 -0.3959 -0.7033
  289TIP3    H122426   4.812   6.530   0.913  0.3505  1.4242 -0.4972
  289TIP3    H222427   4.715   6.570   1.022 -0.6658 -0.7910 -0.5308
  290TIP3   OH222428   0.151   6.113   2.501  0.3063 -0.3055 -0.0570
  290TIP3    H122429   0.131   6.205   2.517  1.9752  0.0427  0.1444
  290TIP3    H222430   0.102   6.066   2.568 -0.2117  0.4619  0.1192
  291TIP3   OH222431   2.554   5.196   0.968  0.9289  0.6702 -0.0985
  291TIP3    H122432   2.579   5.288   0.963  0.6329  0.7641  0.1225
  291TIP3    H222433   2.503   5.190   1.049  0.5884  0.3977 -0.3335
  292TIP3   OH222434   2.619   5.871   3.053 -0.5068  0.1122  0.4889
  292TIP3    H122435   2.665   5.833   3.128  0.6649 -0.4201 -0.4751
  292TIP3    H222436   2.649   5.962   3.050  1.2081 -0.4337 -0.6171
  293TIP3   OH222437   6.463   2.489   8.046  0.3095  0.1939 -0.5726
  293TIP3    H122438   6.488   2.566   8.096 -0.0455  1.9923 -2.9572
  293TIP3    H222439   6.545   2.443   8.029  0.7325  0.8676 -0.3800
  294TIP3   OH222440   1.646   1.181   0.569  0.4392 -0.6595 -0.2465
  294TIP3    H122441   1.585   1.183   0.496  0.0830 -1.3116  0.0217
  294TIP3    H222442   1.715   1.244   0.546 -1.1511  1.3539  0.1791
  295TIP3   OH222443   3.237   5.045   8.371 -0.2622 -0.0461 -0.6328
  295TIP3    H122444   3.220   5.040   8.277 -2.5838  2.0198 -0.4291
  295TIP3    H222445   3.285   5.127   8.382 -1.0593  0.3448  0.0662
  296TIP3   OH222446   5.428   1.583   1.335 -0.0264 -0.1014  0.1647
  296TIP3    H122447   5.356   1.556   1.279 -0.2522  1.5546 -0.4181
  296TIP3    H222448   5.472   1.652   1.285 -0.7578  2.0735  2.3382
  297TIP3   OH222449   0.562   3.062   8.151  0.1387 -0.7852  0.7917
  297TIP3    H122450   0.565   2.982   8.099  0.5254 -0.0658 -0.3263
  297TIP3    H222451   0.613   3.042   8.230  0.0801 -1.6825  0.6089
  298TIP3   OH222452   1.476   1.869   7.082 -0.0132 -0.0886 -0.0145
  298TIP3    H122453   1.507   1.783   7.110 -0.9660 -0.7739 -0.9485
  298TIP3    H222454   1.381   1.857   7.070 -0.1027  0.9894 -0.5165
  299TIP3   OH222455   3.827   5.728   1.200 -0.3440  0.3265 -0.2711
  299TIP3    H122456   3.807   5.645   1.242  1.3024 -0.5000 -0.9969
  299TIP3    H222457   3.892   5.769   1.258 -0.0249  0.4010 -0.6786
  300TIP3   OH222458   4.043   0.819   2.799  0.3245 -0.2844  0.3482
  300TIP3    H122459   3.972   0.775   2.847 -0.8698 -0.2525 -1.2738
  300TIP3    H222460   4.060   0.899   2.848 -0.9220 -0.2024  0.6927
  301TIP3   OH222461   3.717   3.657   0.254  0.4290 -0.0247  0.3137
  301TIP3    H122462   3.699   3.669   0.160 -0.0688  0.2142  0.4339
  301TIP3    H222463   3.653   3.592   0.282 -0.0552  0.6019  0.6863
  302TIP3   OH222464   5.393   1.756   7.135  0.3237  0.0590  0.3572
  302TIP3    H122465   5.350   1.751   7.221  0.2559 -0.4996  0.2996
  302TIP3    H222466   5.448   1.834   7.139 -1.4203  1.3648  0.1038
  303TIP3   OH222467   0.411   0.452   0.721 -0.0371  0.5238  0.2711
  303TIP3    H122468   0.427   0.505   0.644 -1.3059 -1.0590 -1.1751
  303TIP3    H222469   0.495   0.448   0.766  0.8893  1.0230 -1.3533
  304TIP3   OH222470   2.965   4.684   7.689 -0.0814  0.2507  0.6078
  304TIP3    H122471   2.972   4.590   7.700 -0.5782  0.2967  1.4682
  304TIP3    H222472   3.051   4.712   7.658  0.9748 -0.1440  2.9684
  305TIP3   OH222473   1.728   2.266   7.139 -0.7107 -0.1517 -0.0758
  305TIP3    H122474   1.689   2.344   7.181 -2.3383  0.1996 -2.0641
  305TIP3    H222475   1.780   2.302   7.067  0.3316 -0.8272  0.3319
  306TIP3   OH222476   2.097   2.157   8.092 -0.1359 -0.0902  0.0932
  306TIP3    H122477   2.188   2.139   8.070 -0.7749 -0.4562 -2.4996
  306TIP3    H222478   2.049   2.080   8.061 -1.4686  0.5564  0.4729
  307TIP3   OH222479   2.824   3.141   1.881 -0.1232  0.6417  0.1174
  307TIP3    H122480   2.740   3.107   1.851 -1.3280  2.2734  1.3714
  307TIP3    H222481   2.869   3.171   1.801 -0.7963 -0.1168 -0.5528
  308TIP3   OH222482   1.018   6.230   0.471 -0.6811  0.1821 -0.3685
  308TIP3    H122483   0.947   6.269   0.420 -0.5717 -0.7435 -1.2600
  308TIP3    H222484   0.974   6.188   0.545 -0.8998  1.0173 -0.0177
  309TIP3   OH222485   0.745   5.114   0.079 -0.0265  0.1526  0.0588
  309TIP3    H122486   0.720   5.206   0.069  0.1303  0.3090  0.9986
  309TIP3    H222487   0.801   5.113   0.157  0.1080 -0.7183 -0.0414
  310TIP3   OH222488   1.116   3.255   2.300  0.3043  0.1648  0.4907
  310TIP3    H122489   1.047   3.196   2.330 -0.2931 -0.1336 -1.3569
  310TIP3    H222490   1.083   3.343   2.319 -1.0868  0.0775 -1.2469
  311TIP3   OH222491   4.834   1.082   1.802  0.9795  0.0367  0.0488
  311TIP3    H122492   4.754   1.054   1.845  0.6626  1.9541  0.8211
  311TIP3    H222493   4.875   1.001   1.770 -0.1439 -1.1726  1.5725
  312TIP3   OH222494   4.694   1.985   7.099  0.3749  0.1903  0.4269
  312TIP3    H122495   4.750   2.061   7.116  0.7277  0.2688 -0.9868
  312TIP3    H222496   4.754   1.915   7.075 -0.1061  0.2518 -1.0430
  313TIP3   OH222497   0.320   5.321   1.622  0.2994  0.2803 -0.4461
  313TIP3    H122498   0.274   5.251   1.667  1.2177  0.0823  0.1975
  313TIP3    H222499   0.387   5.277   1.570  0.2310  0.6155 -0.8289
  314TIP3   OH222500   4.180   5.104   2.310  0.7244 -0.2883 -0.3441
  314TIP3    H122501   4.170   5.075   2.219 -0.2429 -0.0796 -0.3173
  314TIP3    H222502   4.108   5.166   2.323 -0.1159 -1.4864  1.0171
  315TIP3   OH222503   3.127   3.775   7.096 -0.0467 -0.6795 -0.5209
  315TIP3    H122504   3.035   3.747   7.093 -0.2511 -0.2009  0.5654
  315TIP3    H222505   3.170   3.711   7.153  0.7008 -1.8962 -2.3678
  316TIP3   OH222506   3.913   5.466   2.133  0.1916 -0.2704  0.0485
  316TIP3    H122507   3.908   5.370   2.130  3.4087 -0.5791  0.6662
  316TIP3    H222508   3.889   5.488   2.223 -0.6104 -0.4553 -0.1087
  317TIP3   OH222509   5.615   2.961   1.630 -0.4114 -0.5003  0.2203
  317TIP3    H122510   5.688   2.985   1.687 -0.5185 -0.8289  0.4978
  317TIP3    H222511   5.656   2.936   1.547 -0.3042  0.7889 -0.1374
  318TIP3   OH222512   3.967   5.628   1.920  0.1693 -0.0756  0.0443
  318TIP3    H122513   3.952   5.575   1.998  1.3660 -1.2384 -0.4761
  318TIP3    H222514   3.996   5.566   1.854 -0.3622  0.9636 -1.1980
  319TIP3   OH222515   4.318   0.029   8.158 -0.0763  0.2987 -0.3904
  319TIP3    H122516   4.248  -0.017   8.113 -0.2077 -1.4883  1.4907
  319TIP3    H222517   4.343   0.100   8.098 -1.4219 -0.8336 -2.4012
  320TIP3   OH222518   1.092   4.093   1.893  0.2342  0.3657 -0.0119
  320TIP3    H122519   1.131   4.152   1.828 -1.2604  1.9440  0.4329
  320TIP3    H222520   1.056   4.021   1.841  2.7167 -0.6242 -0.5069
  321TIP3   OH222521   0.410   2.805   1.541  0.1424  0.3695 -0.6807
  321TIP3    H122522   0.396   2.767   1.628  0.1675  1.7996 -0.0304
  321TIP3    H222523   0.474   2.874   1.555 -0.7573  1.4269 -1.6062
  322TIP3   OH222524   2.918   0.639   1.003  0.4992  0.3636  0.2117
  322TIP3    H122525   3.011   0.655   0.983  1.2323 -2.0925  1.2116
  322TIP3    H222526   2.908   0.666   1.094  0.6190 -0.6349  0.5331
  323TIP3   OH222527   5.003   6.934   7.623 -0.0430  0.4666 -0.0038
  323TIP3    H122528   5.037   6.948   7.535 -0.1107  0.8808  0.0333
  323TIP3    H222529   4.914   6.900   7.610  0.5439 -1.1266 -0.1090
  324TIP3   OH222530   0.676   6.175   7.337 -0.0960  0.0802 -0.2928
  324TIP3    H122531   0.635   6.149   7.419 -2.7352 -0.0655 -1.5823
  324TIP3    H222532   0.759   6.127   7.335  0.1104  0.2179  2.3209
  325TIP3   OH222533   4.760   4.570   7.774 -0.0486  0.4651  0.4110
  325TIP3    H122534   4.778   4.478   7.789 -0.8963 -0.2873 -2.5108
  325TIP3    H222535   4.669   4.572   7.743  0.6231  1.9310 -1.6935
  326TIP3   OH222536   4.470   1.493   0.127  0.4581  0.3191  0.1281
  326TIP3    H122537   4.441   1.457   0.043 -1.1165  0.6084  0.5160
  326TIP3    H222538   4.529   1.427   0.162 -0.3741 -0.7110 -0.3416
  327TIP3   OH222539   6.814   4.342   1.462 -0.3076 -0.2120 -0.0068
  327TIP3    H122540   6.836   4.249   1.464  1.9364  0.1654  3.7555
  327TIP3    H222541   6.890   4.384   1.422  0.2339  0.1491  1.3181
  328TIP3   OH222542   1.866   6.229   2.323 -0.4659  0.2947  0.7015
  328TIP3    H122543   1.882   6.307   2.376  0.0111 -0.0506  1.0785
  328TIP3    H222544   1.873   6.259   2.233 -0.1415  0.6589  0.8458
  329TIP3   OH222545   6.803   0.181   0.301 -0.2920 -0.1418 -0.3467
  329TIP3    H122546   6.779   0.237   0.375  0.6014 -0.6387  0.3381
  329TIP3    H222547   6.811   0.094   0.340 -1.7683 -0.7948 -1.4128
  330TIP3   OH222548   1.033   4.023   0.061  0.5725  0.3588  0.0204
  330TIP3    H122549   0.979   3.958   0.106  1.7214 -0.7167 -0.1042
  330TIP3    H222550   0.991   4.107   0.081 -0.6330 -0.3612  0.6316
  331TIP3   OH222551   2.097   2.016   7.758 -0.4960 -0.2984  0.2653
  331TIP3    H122552   2.070   2.000   7.668 -1.8059  1.4770  0.2834
  331TIP3    H222553   2.015   2.022   7.807  0.2035 -1.6190  1.6677
  332TIP3   OH222554   1.056   2.293   2.060 -0.0232  0.1016  0.1710
  332TIP3    H122555   1.056   2.340   1.977  0.9222 -0.2497 -0.0430
  332TIP3    H222556   1.148   2.290   2.086 -0.1581 -0.9035  0.5904
  333TIP3   OH222557   5.559   4.711   1.688 -0.2653 -0.7963  0.2397
  333TIP3    H122558   5.516   4.630   1.662  1.8862 -2.2902  1.0930
  333TIP3    H222559   5.505   4.745   1.760 -0.8469 -1.7976  0.2971
  334TIP3   OH222560   5.531   2.653   3.280 -0.0199 -0.3610  0.5758
  334TIP3    H122561   5.566   2.576   3.235 -0.8432 -0.3548 -0.1056
  334TIP3    H222562   5.549   2.726   3.221  0.1199 -0.1363  0.8927
  335TIP3   OH222563   0.576   3.455   7.841 -0.1963  0.6354  0.5273
  335TIP3    H122564   0.558   3.538   7.885  0.4387  0.5586  0.9409
  335TIP3    H222565   0.568   3.389   7.910 -0.8033  0.3376  0.1782
  336TIP3   OH222566   5.658   6.041   2.382 -0.3201 -0.3463  0.2896
  336TIP3    H122567   5.571   6.051   2.419 -0.2574  0.5891  0.2236
  336TIP3    H222568   5.706   6.118   2.413  0.1650 -0.3124 -0.5080
  337TIP3   OH222569   0.789   1.361   7.443 -0.5410  0.8637  0.0083
  337TIP3    H122570   0.751   1.436   7.489  0.4655  1.1130  0.4632
  337TIP3    H222571   0.871   1.395   7.406 -0.9718  0.4724 -1.3515
  338TIP3   OH222572   5.441   5.992   7.663 -0.1590 -0.7148  0.1423
  338TIP3    H122573   5.447   6.062   7.599 -0.5148 -1.8101 -1.1278
  338TIP3    H222574   5.515   5.934   7.644  1.2008  0.1776  2.3228
  339TIP3   OH222575   0.337   3.887   0.996 -0.2022  0.2217 -0.3217
  339TIP3    H122576   0.294   3.875   0.912  1.4927  0.8866 -1.3317
  339TIP3    H222577   0.392   3.809   1.006 -0.1003  0.3316 -0.0102
  340TIP3   OH222578   3.184   6.116   1.439 -0.4225 -0.2126  0.2903
  340TIP3    H122579   3.244   6.148   1.506 -0.3229  0.3898 -0.0765
  340TIP3    H222580   3.097   6.141   1.470 -0.4350 -0.5249  0.5134
  341TIP3   OH222581   3.188   1.637   1.113  0.1972  0.0336 -0.3383
  341TIP3    H122582   3.185   1.706   1.047 -0.2729  1.5409  1.1711
  341TIP3    H222583   3.282   1.617   1.122  0.2771 -0.0875 -1.3254
  342TIP3   OH222584   1.426   2.947   7.671 -0.3418 -0.0909  0.1389
  342TIP3    H122585   1.511   2.948   7.628  0.6285 -2.2477  1.8129
  342TIP3    H222586   1.366   2.985   7.607  1.5330 -0.2479 -1.8238
  343TIP3   OH222587   6.149   0.720   1.373 -0.4861 -0.0371  0.9148
  343TIP3    H122588   6.136   0.627   1.355 -0.8875 -0.3354  2.5997
  343TIP3    H222589   6.089   0.764   1.312 -0.3677 -0.8748  0.1723
  344TIP3   OH222590   3.445   0.786   8.333  0.4018  0.0824  0.0681
  344TIP3    H122591   3.503   0.800   8.259  0.2426 -1.3488 -0.3578
  344TIP3    H222592   3.415   0.696   8.324 -0.3722  0.1750  1.3503
  345TIP3   OH222593   4.106   6.727   2.447 -0.2329 -0.1341 -0.5364
  345TIP3    H122594   4.089   6.810   2.401 -0.0764 -0.3624 -1.0214
  345TIP3    H222595   4.058   6.661   2.396  1.3274 -0.6570 -1.4287
  346TIP3   OH222596   5.056   2.542   0.018  0.2813  0.1361 -0.1565
  346TIP3    H122597   5.101   2.493   0.087  0.7194 -0.1064 -0.6076
  346TIP3    H222598   5.002   2.605   0.065 -0.9632 -1.3261  0.4934
  347TIP3   OH222599   5.922   0.165   1.472  0.1491 -0.1768  0.4882
  347TIP3    H122600   5.857   0.151   1.403 -0.1728  0.6038  0.6135
  347TIP3    H222601   5.981   0.231   1.436  0.6141 -0.5533  0.5507
  348TIP3   OH222602   6.723   6.441   1.101 -0.2048 -0.0235  0.4732
  348TIP3    H122603   6.692   6.453   1.012 -0.5643 -1.7297  0.3207
  348TIP3    H222604   6.643   6.438   1.154 -0.0681 -0.2976  0.6662
  349TIP3   OH222605   6.028   5.868   2.146 -0.5769 -0.5133 -0.5204
  349TIP3    H122606   5.978   5.949   2.143  0.6336  0.2738 -0.1283
  349TIP3    H222607   6.068   5.868   2.233  0.2583 -1.0104 -0.8883
  350TIP3   OH222608   5.491   0.646   7.254 -0.3699 -0.1072  0.1427
  350TIP3    H122609   5.508   0.564   7.300 -0.7066 -0.1275  0.2330
  350TIP3    H222610   5.408   0.677   7.289 -0.6536 -0.1439 -0.4819
  351TIP3   OH222611   2.125   4.527   7.439 -0.3111 -0.0506 -0.5447
  351TIP3    H122612   2.070   4.584   7.384 -0.9001  0.3652  0.4551
  351TIP3    H222613   2.132   4.445   7.389 -2.6290 -0.4584 -0.2835
  352TIP3   OH222614   6.755   4.785   7.420  0.0973  0.3276 -0.5003
  352TIP3    H122615   6.728   4.733   7.344  1.8438 -0.6220 -0.5227
  352TIP3    H222616   6.829   4.737   7.457  1.4901  2.5382 -0.2184
  353TIP3   OH222617   4.464   3.831   2.389  0.5596 -0.7546 -0.1228
  353TIP3    H122618   4.376   3.812   2.357  0.4144  0.1727 -0.3221
  353TIP3    H222619   4.523   3.795   2.323  0.3095 -0.7529 -0.3482
  354TIP3   OH222620   5.714   6.060   1.627 -0.4666  0.4649  0.1339
  354TIP3    H122621   5.653   6.042   1.699  0.5700  2.7128  1.6785
  354TIP3    H222622   5.687   6.145   1.593  0.9679  0.8783 -0.0386
  355TIP3   OH222623   1.737   5.413   7.288 -0.4061 -0.6038 -0.2656
  355TIP3    H122624   1.759   5.330   7.332  0.4440 -1.5619 -2.3703
  355TIP3    H222625   1.650   5.435   7.321  0.6808 -0.4840  2.9240
  356TIP3   OH222626   1.895   0.786   2.592  0.3605  0.3730  1.0623
  356TIP3    H122627   1.808   0.749   2.604 -0.2504  2.0535  2.2977
  356TIP3    H222628   1.938   0.728   2.530 -1.2304 -1.1544  1.3129
  357TIP3   OH222629   5.486   4.760   1.968 -1.0962  0.2633  0.0847
  357TIP3    H122630   5.449   4.709   2.040  0.2109 -1.5025 -0.4318
  357TIP3    H222631   5.579   4.764   1.987 -0.8718  0.5944 -1.0154
  358TIP3   OH222632   5.460   4.615   0.043  0.1946 -0.0585 -0.7260
  358TIP3    H122633   5.407   4.680  -0.003  0.5246 -0.1389 -1.2277
  358TIP3    H222634   5.398   4.547   0.070  0.1914 -0.7108 -2.2898
  359TIP3   OH222635   4.220   0.805   3.252 -0.1337 -0.1141 -0.5569
  359TIP3    H122636   4.139   0.830   3.296 -1.3665 -1.5721 -1.8509
  359TIP3    H222637   4.289   0.827   3.315 -1.6281 -0.1322  1.1951
  360TIP3   OH222638   5.362   4.571   2.119  0.1907  0.2628  0.2093
  360TIP3    H122639   5.329   4.486   2.091 -0.2562  0.5449 -0.1273
  360TIP3    H222640   5.393   4.557   2.208  0.4305 -0.3333  0.0317
  361TIP3   OH222641   0.527   1.281   0.461  0.8628 -0.1347  0.1731
  361TIP3    H122642   0.585   1.207   0.446 -0.2718 -0.8997 -0.6081
  361TIP3    H222643   0.463   1.249   0.525  1.5291  0.8371  1.3688
  362TIP3   OH222644   0.692   0.497   1.618 -0.3906 -0.3247  0.0268
  362TIP3    H122645   0.730   0.420   1.661  0.7798 -0.4895 -1.2278
  362TIP3    H222646   0.647   0.462   1.541  1.3300  0.3101 -1.3325
  363TIP3   OH222647   2.251   6.167   0.906  0.1157 -0.1775  0.5947
  363TIP3    H122648   2.196   6.193   0.980 -0.7258 -1.1563  0.3416
  363TIP3    H222649   2.189   6.157   0.833  0.6709 -1.0267  0.2248
  364TIP3   OH222650   2.591   2.802   2.368 -0.0181 -0.1602 -0.1553
  364TIP3    H122651   2.577   2.839   2.455 -1.7807 -0.1753 -0.3827
  364TIP3    H222652   2.659   2.735   2.380  0.8755  0.9008  0.8848
  365TIP3   OH222653   6.597   1.258   1.097  0.6374 -0.0707  0.2312
  365TIP3    H122654   6.667   1.323   1.108  0.9765 -0.1658 -1.2235
  365TIP3    H222655   6.643   1.175   1.091  0.5565 -0.0046 -2.1461
  366TIP3   OH222656   4.533   5.983   1.069  0.0301 -0.6350  0.0146
  366TIP3    H122657   4.474   6.028   1.130  0.3777  0.5970 -0.5368
  366TIP3    H222658   4.605   6.044   1.055  0.5268 -1.3728 -0.7573
  367TIP3   OH222659   1.889   4.446   1.469  0.2150 -0.2115 -0.4171
  367TIP3    H122660   1.858   4.357   1.487  0.8022 -0.3741 -0.2026
  367TIP3    H222661   1.828   4.502   1.517  1.3208 -0.6058  1.5494
  368TIP3   OH222662   5.016   6.659   8.077 -0.2349 -0.6931  0.3758
  368TIP3    H122663   5.049   6.634   7.991  0.9047  0.7532  0.3562
  368TIP3    H222664   5.091   6.648   8.135 -1.2643 -2.6549  1.4459
  369TIP3   OH222665   4.456   0.468   1.018  0.0004 -0.0987 -0.4797
  369TIP3    H122666   4.409   0.547   0.991  1.0084  0.5601 -0.3642
  369TIP3    H222667   4.488   0.489   1.106 -0.4305 -0.9643 -0.1013
  370TIP3   OH222668   1.585   2.101   1.713  0.4169 -0.1114  0.4857
  370TIP3    H122669   1.643   2.151   1.655  0.6477  0.8155  1.4850
  370TIP3    H222670   1.500   2.101   1.670  0.4945  0.8933  0.3217
  371TIP3   OH222671   0.154   6.861   8.050  0.2346 -0.6303  0.3093
  371TIP3    H122672   0.242   6.847   8.015  0.0696  0.9186 -0.8514
  371TIP3    H222673   0.113   6.775   8.048  0.2829 -0.7431 -3.3374
  372TIP3   OH222674   2.519   3.318   2.247  0.0974 -0.0985  1.0193
  372TIP3    H122675   2.490   3.286   2.332 -0.3758  0.9330  1.2627
  372TIP3    H222676   2.580   3.251   2.216  1.1157  0.0146  2.6562
  373TIP3   OH222677   3.989   4.286   8.369  0.0814 -0.1996 -0.5993
  373TIP3    H122678   3.932   4.361   8.351 -0.5000 -0.3984  0.3441
  373TIP3    H222679   3.938   4.211   8.338  0.2694 -0.2875 -0.6940
  374TIP3   OH222680   6.413   4.124   7.516 -0.0979 -0.5005  0.2756
  374TIP3    H122681   6.340   4.063   7.504 -0.1624 -0.3781  0.0384
  374TIP3    H222682   6.380   4.207   7.481  0.3234 -0.5630 -0.2781
  375TIP3   OH222683   2.793   3.317   1.255  0.1897 -0.0597 -0.2702
  375TIP3    H122684   2.718   3.353   1.303  1.3417  1.3510  0.5372
  375TIP3    H222685   2.770   3.329   1.163 -2.1550 -3.0129 -0.2513
  376TIP3   OH222686   1.756   4.584   7.596  0.4521 -0.0311  0.5287
  376TIP3    H122687   1.804   4.666   7.591  0.3982 -0.0436 -0.5715
  376TIP3    H222688   1.685   4.595   7.532 -0.8967 -0.0801  1.9730
  377TIP3   OH222689   0.874   2.303   1.241  0.4660  0.5509 -0.0771
  377TIP3    H122690   0.811   2.351   1.187  1.4681  2.3449  0.2774
  377TIP3    H222691   0.959   2.323   1.202  0.9306 -1.0406  0.0452
  378TIP3   OH222692   5.353   4.822   6.899 -0.0007 -0.2621  0.0719
  378TIP3    H122693   5.335   4.781   6.814  0.6340 -0.3132 -0.0460
  378TIP3    H222694   5.284   4.888   6.909  0.8800  0.9218 -1.2833
  379TIP3   OH222695   2.802   2.747   1.535 -0.0349  0.2975 -0.1518
  379TIP3    H122696   2.732   2.689   1.561  0.2694 -0.3810 -0.8134
  379TIP3    H222697   2.882   2.697   1.551  0.2540  0.7157 -0.2713
  380TIP3   OH222698   6.304   0.712   1.023  0.7643 -0.3173 -0.1577
  380TIP3    H122699   6.326   0.803   1.007 -0.3514 -0.0569 -0.2903
  380TIP3    H222700   6.229   0.695   0.966  0.8221 -1.2509  0.0319
  381TIP3   OH222701   3.616   1.677   0.856  0.5745 -0.2858 -0.1732
  381TIP3    H122702   3.608   1.761   0.901 -0.3621 -0.2851 -0.3067
  381TIP3    H222703   3.575   1.691   0.771  1.0487 -0.6826 -0.4713
  382TIP3   OH222704   1.109   5.649   8.121 -0.1849  0.0333 -0.8260
  382TIP3    H122705   1.046   5.712   8.086  0.0684  0.4535 -0.5298
  382TIP3    H222706   1.146   5.692   8.198 -1.3649 -1.2069  0.4893
  383TIP3   OH222707   4.866   0.364   1.808  0.3602 -0.1550 -0.4785
  383TIP3    H122708   4.954   0.379   1.773  0.0611  1.6365 -0.5256
  383TIP3    H222709   4.869   0.274   1.842  1.8554 -0.5253 -1.4991
  384TIP3   OH222710   2.397   0.106   8.365 -0.4054  0.0020  0.4139
  384TIP3    H122711   2.404   0.112   8.460  1.0460  2.0265  0.2431
  384TIP3    H222712   2.306   0.128   8.346 -1.3930 -2.7754  1.3909
  385TIP3   OH222713   2.043   6.250   0.624  0.1280 -0.3590 -0.2720
  385TIP3    H122714   2.049   6.183   0.555  0.0833 -1.7951  1.0455
  385TIP3    H222715   2.015   6.201   0.702 -2.6981  1.6673  0.1345
  386TIP3   OH222716   2.915   1.004   0.656 -0.1771  0.3548  0.1586
  386TIP3    H122717   2.942   1.003   0.748  0.5846  0.9111 -0.0430
  386TIP3    H222718   2.906   1.097   0.635 -1.5719  0.1970  0.0035
  387TIP3   OH222719   5.983   1.500   2.400  0.2051  0.7530 -0.7074
  387TIP3    H122720   5.906   1.442   2.397  0.4216  0.3409  0.7700
  387TIP3    H222721   5.981   1.537   2.488  2.3890 -0.2432 -0.1646
  388TIP3   OH222722   2.922   4.794   1.439  0.0929  0.5965  0.0542
  388TIP3    H122723   3.014   4.809   1.418 -0.4072  1.3290 -1.8465
  388TIP3    H222724   2.912   4.824   1.529  1.2952  2.3730 -0.3678
  389TIP3   OH222725   6.399   4.586   8.177  0.1040  0.2230  0.1372
  389TIP3    H122726   6.353   4.554   8.100 -0.4669 -0.3962  0.7137
  389TIP3    H222727   6.492   4.576   8.156 -0.0564 -1.0056 -0.0436
  390TIP3   OH222728   0.436   1.953   1.353 -0.5871 -0.1339  0.8790
  390TIP3    H122729   0.343   1.973   1.341 -0.5473  0.1280  1.0178
  390TIP3    H222730   0.438   1.897   1.431 -0.6507 -0.3328  0.7409
  391TIP3   OH222731   1.952   1.875   0.910  0.0888 -0.0547 -0.6129
  391TIP3    H122732   2.007   1.860   0.833  2.0516 -0.2525  0.7554
  391TIP3    H222733   1.943   1.971   0.914  2.7847  0.2331  0.6766
  392TIP3   OH222734   3.638   2.308   0.196  0.4618 -0.6205  0.3614
  392TIP3    H122735   3.700   2.348   0.134  1.6518 -1.3655  1.0222
  392TIP3    H222736   3.563   2.282   0.143  0.2836  1.1359 -0.3273
  393TIP3   OH222737   0.730   3.327   0.180 -0.2879  0.4043 -0.0805
  393TIP3    H122738   0.713   3.378   0.101 -2.8739  1.7992  1.2279
  393TIP3    H222739   0.654   3.268   0.187  1.0002 -1.3060  0.2353
  394TIP3   OH222740   5.812   0.920   1.766  0.0572 -0.3625  0.1893
  394TIP3    H122741   5.716   0.916   1.764 -0.0306 -0.1114  2.0389
  394TIP3    H222742   5.840   0.864   1.693 -1.4843 -1.7782  0.6269
  395TIP3   OH222743   4.278   5.974   7.367  0.5031 -0.3748 -0.9374
  395TIP3    H122744   4.333   5.995   7.292  0.5615 -0.8961 -1.0436
  395TIP3    H222745   4.192   5.955   7.330  0.3678 -0.0121 -0.8133
  396TIP3   OH222746   4.006   1.214   3.360 -0.0890  0.1599  0.4697
  396TIP3    H122747   3.920   1.245   3.388 -0.8428  0.3636 -1.8937
  396TIP3    H222748   3.998   1.203   3.266  2.5765  0.4611  0.1451
  397TIP3   OH222749   0.536   0.001   0.310 -0.2347 -0.1597  0.1821
  397TIP3    H122750   0.546   0.031   0.220  1.0905  1.9439  0.9526
  397TIP3    H222751   0.499  -0.087   0.303 -0.3252  0.0295 -2.3807
  398TIP3   OH222752   2.701   5.727   0.111 -0.3062  0.1529  0.7480
  398TIP3    H122753   2.754   5.655   0.076 -0.7645  0.4724 -0.6698
  398TIP3    H222754   2.621   5.684   0.143  1.0027 -0.4120  3.4854
  399TIP3   OH222755   2.287   4.399   1.883 -0.4654  0.1614  0.1860
  399TIP3    H122756   2.256   4.452   1.956 -0.0191  0.5255  0.1175
  399TIP3    H222757   2.349   4.456   1.837  0.2161 -0.5130  0.2600
  400TIP3   OH222758   5.380   0.918   8.206 -0.4023  0.5168  0.5924
  400TIP3    H122759   5.434   0.949   8.133 -2.5892  0.9562 -0.9069
  400TIP3    H222760   5.326   0.993   8.229 -1.5901 -0.4162  0.9154
  401TIP3   OH222761   4.777   4.303   7.819  0.1288 -0.4333 -0.1426
  401TIP3    H122762   4.687   4.305   7.785 -0.1133 -0.2110  0.4906
  401TIP3    H222763   4.820   4.233   7.769 -0.1161  0.1099 -1.1274
  402TIP3   OH222764   0.435   3.600   0.998  0.2676 -0.6736  0.3893
  402TIP3    H122765   0.495   3.578   1.069 -1.3850 -0.6678  1.8570
  402TIP3    H222766   0.375   3.526   0.993 -0.2380 -0.2245 -0.3263
  403TIP3   OH222767   3.514   5.097   0.684 -0.4477 -0.4747  0.0740
  403TIP3    H122768   3.589   5.039   0.667 -0.4800 -0.4177 -0.2757
  403TIP3    H222769   3.544   5.156   0.753  0.0859  0.0143 -0.5604
  404TIP3   OH222770   6.013   0.969   1.242  0.3249 -0.0723  0.6041
  404TIP3    H122771   5.987   0.911   1.170  1.1582 -0.1196  0.3334
  404TIP3    H222772   5.932   0.983   1.292 -0.3029  0.1003 -0.4360
  405TIP3   OH222773   6.918   6.101   7.265 -0.4857 -0.2567 -0.5709
  405TIP3    H122774   6.831   6.086   7.301 -0.7110  0.9988 -0.5374
  405TIP3    H222775   6.952   6.014   7.247 -0.5600 -0.9697  2.2247
  406TIP3   OH222776   3.484   3.836   2.936  0.6547  0.5563 -0.0204
  406TIP3    H122777   3.433   3.835   3.017 -0.8838 -0.4567 -0.9567
  406TIP3    H222778   3.571   3.806   2.963  0.3578  0.8496  1.3528
  407TIP3   OH222779   4.441   5.012   2.362  0.4655 -0.1035 -0.0208
  407TIP3    H122780   4.441   5.105   2.385  0.6589 -0.4490  1.4417
  407TIP3    H222781   4.352   4.995   2.330  0.4818  0.6092 -0.4741
  408TIP3   OH222782   6.406   1.295   7.666 -0.3313  0.3878 -0.0802
  408TIP3    H122783   6.496   1.287   7.634 -0.3640  1.6210 -0.5147
  408TIP3    H222784   6.411   1.273   7.759  0.1464 -1.0132 -0.4085
  409TIP3   OH222785   2.768   5.804   1.576 -0.7358 -0.3875  1.1456
  409TIP3    H122786   2.838   5.783   1.638  0.9554 -0.9092 -0.8190
  409TIP3    H222787   2.727   5.720   1.557 -0.2381 -0.4742  0.4283
  410TIP3   OH222788   5.476   0.193   2.588  0.2074  0.6162 -0.0388
  410TIP3    H122789   5.425   0.229   2.516 -0.0115  0.4414  0.0279
  410TIP3    H222790   5.539   0.261   2.610 -1.0306  1.4868  0.9403
  411TIP3   OH222791   3.237   1.557   2.512 -0.3890 -0.3820  0.1481
  411TIP3    H122792   3.149   1.525   2.533 -0.5325 -2.2605 -2.8110
  411TIP3    H222793   3.280   1.482   2.470  1.5049  1.4887 -1.4337
  412TIP3   OH222794   2.736   0.800   2.743  0.1749 -0.2836 -0.1543
  412TIP3    H122795   2.813   0.856   2.742  0.7153 -0.9791 -1.7887
  412TIP3    H222796   2.772   0.711   2.741 -0.6642 -0.6432  0.4643
  413TIP3   OH222797   2.935   2.418   2.179  0.3400  0.1143  0.7823
  413TIP3    H122798   2.871   2.419   2.250 -0.7264 -3.0324  0.0378
  413TIP3    H222799   2.995   2.347   2.202  0.9505  0.1442 -0.6384
  414TIP3   OH222800   0.118   2.223   8.037  0.0364  0.2209  0.3891
  414TIP3    H122801   0.056   2.292   8.060  0.9847  0.4576  2.4231
  414TIP3    H222802   0.065   2.156   7.995 -1.5145  0.6243  1.6238
  415TIP3   OH222803   0.923   6.173   0.949  0.0402  0.4532 -0.6476
  415TIP3    H122804   0.975   6.148   0.873  0.1163  0.1263 -0.4880
  415TIP3    H222805   0.968   6.133   1.024 -1.2645 -1.1255 -0.6592
  416TIP3   OH222806   1.820   4.124   8.186  0.1570  0.5903 -0.1349
  416TIP3    H122807   1.730   4.137   8.215 -0.1234  1.8100 -1.4467
  416TIP3    H222808   1.873   4.141   8.263 -0.7498 -1.5681  1.0595
  417TIP3   OH222809   1.396   2.921   1.233 -0.0097  0.2110 -0.5122
  417TIP3    H122810   1.360   2.982   1.297  1.9823  0.5129  0.3818
  417TIP3    H222811   1.377   2.961   1.148 -1.5105  0.4555 -0.0829
  418TIP3   OH222812   2.691   6.678   1.670  0.4705  0.2770 -0.7061
  418TIP3    H122813   2.630   6.643   1.735  0.7732  0.4117 -0.3464
  418TIP3    H222814   2.669   6.631   1.589  0.7873 -0.6525 -0.2686
  419TIP3   OH222815   6.168   2.396   0.893  0.0025  0.0709 -0.1189
  419TIP3    H122816   6.083   2.397   0.937  0.0928 -0.3337  0.0635
  419TIP3    H222817   6.156   2.454   0.817  0.1019  1.4465  0.8918
  420TIP3   OH222818   4.734   4.523   1.764  0.9015  0.4140 -0.2511
  420TIP3    H122819   4.769   4.526   1.675 -0.1811  1.2073 -0.6681
  420TIP3    H222820   4.741   4.430   1.789 -1.2967 -0.3982 -2.2296
  421TIP3   OH222821   5.068   6.106   7.536  1.0807 -0.5812  0.2009
  421TIP3    H122822   5.112   6.119   7.451  1.2538  1.2643  0.5264
  421TIP3    H222823   4.991   6.162   7.532  1.7630  0.5346  1.7114
  422TIP3   OH222824   3.827   5.300   2.563  0.0656 -0.2230 -0.2698
  422TIP3    H122825   3.734   5.311   2.581 -0.0665 -2.5420  0.8428
  422TIP3    H222826   3.870   5.364   2.621 -0.7593 -1.3785  1.7380
  423TIP3   OH222827   1.616   3.113   1.510  0.5470 -0.2535 -0.6697
  423TIP3    H122828   1.584   3.038   1.560  0.4030  0.7849  0.8600
  423TIP3    H222829   1.545   3.135   1.450  0.4345 -1.0810 -0.8416
  424TIP3   OH222830   5.533   3.700   1.243 -0.0714 -0.0766 -0.0152
  424TIP3    H122831   5.493   3.772   1.291 -1.6375  0.2273 -1.6688
  424TIP3    H222832   5.459   3.646   1.216  0.8483 -0.8029 -1.1657
  425TIP3   OH222833   0.802   2.514   2.384 -0.2128 -0.6569 -0.4552
  425TIP3    H122834   0.736   2.445   2.386 -1.4175  0.4257 -1.0394
  425TIP3    H222835   0.873   2.482   2.439 -0.9295 -2.1580 -0.3683
  426TIP3   OH222836   0.179   2.883   2.078 -0.1935 -0.1120 -0.3268
  426TIP3    H122837   0.091   2.851   2.099 -0.6303  2.7836  3.0402
  426TIP3    H222838   0.236   2.807   2.093 -1.6502 -0.7961  2.4987
  427TIP3   OH222839   2.457   6.581   8.153  0.0824 -0.3853  0.2561
  427TIP3    H122840   2.379   6.560   8.101 -0.1419  1.5673 -0.2965
  427TIP3    H222841   2.522   6.610   8.088  0.6094 -0.1608  0.8684
  428TIP3   OH222842   2.494   1.232   0.881 -0.0107  0.4185  0.4042
  428TIP3    H122843   2.543   1.260   0.803  2.1377  0.5425  1.7224
  428TIP3    H222844   2.438   1.307   0.901  0.2679  0.8520 -0.3519
  429TIP3   OH222845   6.902   5.027   2.648  0.0813  0.0719  0.2547
  429TIP3    H122846   6.963   5.096   2.676  0.1508 -0.5845  1.8246
  429TIP3    H222847   6.822   5.044   2.697 -0.0803 -0.6352  0.2463
  430TIP3   OH222848   5.203   5.829   0.043 -0.0738  0.2654  0.8169
  430TIP3    H122849   5.166   5.883  -0.028 -1.5620 -1.1878  0.4312
  430TIP3    H222850   5.293   5.813   0.016 -0.2974  0.6411 -0.2222
  431TIP3   OH222851   3.226   1.856   0.950 -0.8004 -0.6886  0.2973
  431TIP3    H122852   3.319   1.879   0.944 -0.7051 -1.4246 -2.7156
  431TIP3    H222853   3.180   1.940   0.947 -0.2420 -0.3955 -1.1058
  432TIP3   OH222854   1.532   5.287   8.023 -0.1439  0.2163  0.3148
  432TIP3    H122855   1.507   5.260   7.934  1.1583  2.9441 -1.0066
  432TIP3    H222856   1.592   5.220   8.053 -1.8230 -1.5928 -0.1598
  433TIP3   OH222857   5.347   3.385   0.646  0.2931  0.5812 -0.2869
  433TIP3    H122858   5.311   3.298   0.630  0.2654  0.5630 -0.1217
  433TIP3    H222859   5.442   3.371   0.649  0.3681  0.7306 -1.3895
  434TIP3   OH222860   5.971   3.501   7.361 -0.4942  0.3034 -0.2814
  434TIP3    H122861   6.000   3.471   7.275 -3.6498  0.5657 -1.5824
  434TIP3    H222862   5.931   3.423   7.400 -1.5094  0.8296 -0.2437
  435TIP3   OH222863   3.667   2.590   0.383 -0.2461  0.1464  0.1644
  435TIP3    H122864   3.639   2.567   0.472  0.5488  0.1934  0.4392
  435TIP3    H222865   3.676   2.506   0.339  2.1656 -0.1241  1.0181
  436TIP3   OH222866   0.858   6.607   0.844  0.3287 -0.1946  0.1660
  436TIP3    H122867   0.823   6.545   0.780  0.2226 -1.3198  1.2695
  436TIP3    H222868   0.928   6.559   0.888  1.4939  1.1168 -0.1941
  437TIP3   OH222869   2.787   2.957   1.045  0.0088 -0.5734  0.1430
  437TIP3    H122870   2.789   2.910   1.128 -0.2357 -0.8528 -0.0060
  437TIP3    H222871   2.852   2.912   0.991 -0.5042 -0.9914 -0.1315
  438TIP3   OH222872   3.981   1.182   3.090  0.2286  0.4200  0.1703
  438TIP3    H122873   3.981   1.231   3.008  1.3596 -1.9964 -1.4181
  438TIP3    H222874   3.925   1.106   3.073  2.4325 -1.4342  0.6730
  439TIP3   OH222875   6.819   3.394   2.326 -0.2650  0.1618  0.4688
  439TIP3    H122876   6.846   3.474   2.281 -0.2090  0.5910  1.2457
  439TIP3    H222877   6.869   3.324   2.283  1.7884  0.8715  1.5759
  440TIP3   OH222878   6.187   4.701   0.096  0.5983 -0.3834  0.1820
  440TIP3    H122879   6.275   4.668   0.078  1.2669  1.3676  0.0371
  440TIP3    H222880   6.201   4.783   0.143 -0.9858 -0.5085  0.9417
  441TIP3   OH222881   6.107   5.051   0.288  0.4699 -0.7609 -0.6720
  441TIP3    H122882   6.167   4.997   0.339  0.8568  0.7030  0.5230
  441TIP3    H222883   6.112   5.137   0.330 -1.2031 -0.1718 -1.5966
  442TIP3   OH222884   6.629   4.972   1.725  0.0519  0.2821 -0.4729
  442TIP3    H122885   6.586   4.897   1.684  2.0366 -0.9161 -0.4938
  442TIP3    H222886   6.706   4.935   1.768  0.2595  2.1056  0.8591
  443TIP3   OH222887   3.708   1.316   7.463  0.0706  0.3825  0.0246
  443TIP3    H122888   3.771   1.252   7.497 -0.1814  0.7147  1.1589
  443TIP3    H222889   3.653   1.337   7.538  0.4856  2.3294 -0.1639
  444TIP3   OH222890   3.372   3.326   0.219 -0.2575  0.0736 -0.5773
  444TIP3    H122891   3.424   3.246   0.222  0.7000  0.7106  1.0922
  444TIP3    H222892   3.321   3.318   0.138  2.5815 -0.4713 -2.4327
  445TIP3   OH222893   4.356   4.995   1.474  0.0034 -0.4517 -0.3568
  445TIP3    H122894   4.281   4.947   1.509  0.4774 -1.0422 -0.1403
  445TIP3    H222895   4.333   5.010   1.382 -1.1857  0.9892  0.1234
  446TIP3   OH222896   3.877   3.261   1.601 -0.0760 -0.5135 -0.2018
  446TIP3    H122897   3.807   3.319   1.628  0.4794 -0.2776  0.7705
  446TIP3    H222898   3.948   3.320   1.574  0.6724 -0.7077  1.2593
  447TIP3   OH222899   6.333   1.485   3.228  0.3728  0.3015 -0.1979
  447TIP3    H122900   6.241   1.500   3.207 -0.4034 -0.9160  2.0248
  447TIP3    H222901   6.381   1.533   3.161 -1.8676  2.1852 -0.5608
  448TIP3   OH222902   6.771   0.791   1.160 -0.6992 -0.0816 -0.3097
  448TIP3    H122903   6.685   0.798   1.201 -0.6921  1.2581 -0.4787
  448TIP3    H222904   6.779   0.870   1.106  0.3132 -0.5746 -0.9249
  449TIP3   OH222905   5.836   6.132   0.222  0.0531 -0.3397 -0.2718
  449TIP3    H122906   5.932   6.133   0.225  0.1003 -1.1315 -1.1035
  449TIP3    H222907   5.810   6.085   0.301  0.2300  1.9928  1.2771
  450TIP3   OH222908   6.008   1.239   2.679 -0.1338 -0.0318 -0.4419
  450TIP3    H122909   5.988   1.208   2.590 -2.0691 -1.6553  0.4777
  450TIP3    H222910   6.092   1.198   2.700 -0.6164 -1.2566 -0.8194
  451TIP3   OH222911   6.591   2.691   8.183  0.6221 -0.3816  0.2283
  451TIP3    H122912   6.535   2.762   8.213  1.6558  0.3415  0.4791
  451TIP3    H222913   6.640   2.728   8.109  2.5811 -0.1565  1.5519
  452TIP3   OH222914   5.545   1.929   7.536  0.4837  0.1999  0.0633
  452TIP3    H122915   5.596   2.004   7.566 -1.1583  1.4650 -0.1757
  452TIP3    H222916   5.454   1.958   7.541 -0.1176 -1.2334 -1.5171
  453TIP3   OH222917   6.105   5.951   1.818 -0.5886 -0.0752  0.0221
  453TIP3    H122918   6.060   6.034   1.797 -0.3602  0.0622  0.0767
  453TIP3    H222919   6.128   5.915   1.733  0.3536  0.4919  0.0296
  454TIP3   OH222920   2.648   1.410   1.676  0.3307  0.2644 -1.0851
  454TIP3    H122921   2.638   1.437   1.584 -0.0604 -2.3593 -1.8895
  454TIP3    H222922   2.594   1.332   1.684  2.5432 -1.1917  0.6234
  455TIP3   OH222923   6.480   1.914   3.236  0.2625 -0.0622 -0.4236
  455TIP3    H122924   6.447   1.835   3.193 -0.1294 -0.0716 -0.1100
  455TIP3    H222925   6.480   1.892   3.330  1.0497 -0.0230 -0.4093
  456TIP3   OH222926   4.792   0.116   7.419 -0.3646  0.1839 -0.2778
  456TIP3    H122927   4.807   0.199   7.376 -0.0195 -0.1225 -0.7467
  456TIP3    H222928   4.787   0.138   7.512  0.9796  0.5602 -0.2796
  457TIP3   OH222929   5.064   5.864   0.256 -0.5395  0.8170 -0.4395
  457TIP3    H122930   5.031   5.953   0.263  0.8836  1.2962  0.5520
  457TIP3    H222931   5.121   5.865   0.179  0.9869  1.3200  0.6365
  458TIP3   OH222932   0.782   2.339   2.611  0.5443  0.3324 -0.3694
  458TIP3    H122933   0.874   2.366   2.615  0.5033  0.4060  0.1316
  458TIP3    H222934   0.771   2.307   2.522  1.2082 -0.2083 -0.2688
  459TIP3   OH222935   2.838   6.844   7.270 -0.0640 -0.1274  0.3672
  459TIP3    H122936   2.907   6.788   7.236 -1.4787 -1.5730 -0.2932
  459TIP3    H222937   2.879   6.929   7.283  1.3572 -0.3883 -1.9147
  460TIP3   OH222938   0.183   5.820   2.189  0.3857  0.3065 -0.2971
  460TIP3    H122939   0.151   5.903   2.223 -0.8314 -0.5014  0.5781
  460TIP3    H222940   0.105   5.766   2.178  1.3237 -1.5487  1.4023
  461TIP3   OH222941   0.560   6.797   0.564 -0.3001 -0.1168  0.2610
  461TIP3    H122942   0.490   6.836   0.512  0.4601 -1.1210 -1.6123
  461TIP3    H222943   0.635   6.855   0.551 -0.3267  0.0800  0.9462
  462TIP3   OH222944   4.658   5.534   2.589 -0.2582 -0.1980  0.3122
  462TIP3    H122945   4.591   5.601   2.599 -0.2370 -0.4470  2.3830
  462TIP3    H222946   4.610   5.452   2.584 -0.2205 -0.1650 -1.1435
  463TIP3   OH222947   1.642   6.423   0.314 -0.1214 -0.3412 -0.6166
  463TIP3    H122948   1.569   6.389   0.366  0.3113  1.8009  1.5794
  463TIP3    H222949   1.600   6.468   0.241 -1.1042  1.4083  0.9566
  464TIP3   OH222950   3.019   5.555   0.192 -0.0080 -0.2688 -0.0121
  464TIP3    H122951   2.985   5.466   0.181 -2.3480  0.6317 -0.8206
  464TIP3    H222952   2.989   5.581   0.279  0.4998 -0.1941  0.1409
  465TIP3   OH222953   2.361   3.882   0.096  0.3476 -0.0358 -0.1529
  465TIP3    H122954   2.323   3.962   0.060  1.6551  0.4175 -0.5602
  465TIP3    H222955   2.420   3.850   0.028  1.9954  0.2207  1.0985
  466TIP3   OH222956   5.857   4.413   7.169 -0.2009  0.1365  0.5203
  466TIP3    H122957   5.828   4.403   7.259  1.1971 -1.1358  0.8645
  466TIP3    H222958   5.875   4.324   7.139  1.4417  0.6895 -0.2706
  467TIP3   OH222959   2.483   5.906   0.381 -0.3719 -0.3156  0.3066
  467TIP3    H122960   2.393   5.908   0.348 -0.0254 -4.3299 -1.4691
  467TIP3    H222961   2.530   5.969   0.326 -1.5703 -0.2903 -0.7360
  468TIP3   OH222962   5.218   3.199   7.959 -0.1793  0.4033 -0.2641
  468TIP3    H122963   5.265   3.281   7.945  0.0205  0.2752 -0.3501
  468TIP3    H222964   5.282   3.131   7.939 -0.6703  0.2197 -1.2946
  469TIP3   OH222965   4.606   3.101   0.509  0.8088  0.1880 -0.0254
  469TIP3    H122966   4.628   3.193   0.493  1.6157  0.3635  1.8482
  469TIP3    H222967   4.690   3.055   0.503  0.3957 -0.4553 -1.0412
  470TIP3   OH222968   1.588   0.197   3.129  0.1537  0.0856 -0.5570
  470TIP3    H122969   1.632   0.142   3.064 -1.3009  0.9512 -2.3653
  470TIP3    H222970   1.656   0.255   3.162  0.7980  0.0846 -1.8379
  471TIP3   OH222971   0.412   1.973   2.839 -0.2388  0.0304 -0.8217
  471TIP3    H122972   0.471   2.047   2.855  1.2859 -1.3113  0.1348
  471TIP3    H222973   0.383   1.947   2.926 -0.8486 -0.4383 -1.1593
  472TIP3   OH222974   3.328   1.987   0.653 -0.0925 -0.6631  0.0430
  472TIP3    H122975   3.393   1.941   0.706  1.1863 -0.3098 -1.1484
  472TIP3    H222976   3.368   2.072   0.635 -0.2562 -0.9276 -1.8189
  473TIP3   OH222977   6.384   4.815   0.296  0.2726  0.2387 -0.1948
  473TIP3    H122978   6.427   4.756   0.234 -2.4619  0.7270 -2.8228
  473TIP3    H222979   6.438   4.895   0.294  2.2711 -1.0043  1.0153
  474TIP3   OH222980   6.344   6.005   2.569 -0.0390 -0.2425 -0.7040
  474TIP3    H122981   6.349   6.090   2.526  0.4432  0.9781  1.5812
  474TIP3    H222982   6.282   6.019   2.641  0.3944 -1.6826 -0.0172
  475TIP3   OH222983   0.588   3.961   2.320 -0.1014  0.5029  0.0173
  475TIP3    H122984   0.505   3.928   2.357 -0.1456  0.9678  0.3466
  475TIP3    H222985   0.564   4.045   2.280  0.0336  0.1993 -0.7049
  476TIP3   OH222986   1.205   0.071   8.051 -0.0288 -0.1158  0.0439
  476TIP3    H122987   1.207   0.166   8.039  0.0183 -0.0050  0.8316
  476TIP3    H222988   1.240   0.035   7.970 -3.8070  0.3551 -2.0166
  477TIP3   OH222989   4.057   6.060   1.526  0.2583 -0.0280 -0.0112
  477TIP3    H122990   4.094   6.061   1.614 -2.8445  1.5672  1.4437
  477TIP3    H222991   4.063   6.151   1.497  1.4306 -0.5709 -1.6101
  478TIP3   OH222992   5.553   6.585   7.897 -0.4511 -0.3520  0.0533
  478TIP3    H122993   5.523   6.631   7.976 -2.3511  1.6332 -1.6904
  478TIP3    H222994   5.560   6.653   7.830  1.2643 -1.9333 -1.4898
  479TIP3   OH222995   6.143   3.427   2.815 -0.0651  0.0711 -0.3896
  479TIP3    H122996   6.214   3.471   2.769 -1.0057  1.4018 -0.6184
  479TIP3    H222997   6.137   3.471   2.900 -0.6712  0.0357 -0.4066
  480TIP3   OH222998   5.312   1.902   7.782  0.0379  0.2862  0.2156
  480TIP3    H122999   5.247   1.906   7.712  0.3725  1.4812 -0.0460
  480TIP3    H223000   5.279   1.835   7.842 -1.9683  1.5257  0.6036
  481TIP3   OH223001   2.050   3.514   2.106  0.2602  0.1377  0.5651
  481TIP3    H123002   2.131   3.498   2.153 -0.7066  1.1438  2.6771
  481TIP3    H223003   2.043   3.609   2.100 -0.5853  0.0631  0.0563
  482TIP3   OH223004   2.445   1.419   7.288  0.2428 -0.0819  0.3736
  482TIP3    H123005   2.383   1.403   7.360  1.0023 -2.1292  0.6634
  482TIP3    H223006   2.510   1.478   7.326 -0.0634 -0.1054  0.9572
  483TIP3   OH223007   5.836   4.960   0.449  0.0819  0.3484 -0.1820
  483TIP3    H123008   5.878   5.021   0.510 -0.6886  0.9593 -0.2592
  483TIP3    H223009   5.888   4.967   0.369  0.6801  0.0510  0.1672
  484TIP3   OH223010   0.002   0.592   7.789 -0.0325  0.4396 -0.6488
  484TIP3    H123011  -0.035   0.646   7.859  1.9495  1.6302 -0.4585
  484TIP3    H223012   0.021   0.508   7.831 -0.0666  0.7016 -0.0978
  485TIP3   OH223013   6.009   5.920   8.104 -0.3094  0.0638  0.4212
  485TIP3    H123014   6.078   5.863   8.137  2.1551  2.0477 -0.9177
  485TIP3    H223015   6.023   6.003   8.149  0.1306  1.3843 -1.9811
  486TIP3   OH223016   5.693   3.460   1.643  0.0662  0.0708  0.4559
  486TIP3    H123017   5.742   3.542   1.645  0.0141  0.0821  2.6241
  486TIP3    H223018   5.750   3.400   1.593  0.6176  1.0868 -0.1685
  487TIP3   OH223019   1.873   1.021   0.972  0.6959 -0.5485 -0.4436
  487TIP3    H123020   1.799   0.961   0.962  1.0457 -1.0694  0.0420
  487TIP3    H223021   1.845   1.101   0.927 -0.2055 -0.6957 -0.1632
  488TIP3   OH223022   2.617   4.286   0.537 -0.9156  0.0486  0.3999
  488TIP3    H123023   2.590   4.222   0.603 -0.5322 -1.5656 -0.9414
  488TIP3    H223024   2.544   4.290   0.476  0.4311 -1.8800 -1.4647
  489TIP3   OH223025   5.532   5.521   7.269  0.1165 -0.2148  0.1275
  489TIP3    H123026   5.470   5.456   7.302 -1.9301  2.0584  1.0018
  489TIP3    H223027   5.482   5.602   7.262  2.6082  1.3891 -0.6836
  490TIP3   OH223028   2.279   5.350   6.843 -0.2322 -0.5637  0.0805
  490TIP3    H123029   2.203   5.296   6.863 -1.0431  0.7040  0.6112
  490TIP3    H223030   2.353   5.304   6.882 -0.9686 -1.0500  0.9369
  491TIP3   OH223031   2.085   3.648   2.489 -0.6570 -0.0483  0.3754
  491TIP3    H123032   2.058   3.680   2.403 -0.3592  1.0446  0.6676
  491TIP3    H223033   2.178   3.628   2.479 -0.6206  0.0852  0.4370
  492TIP3   OH223034   2.559   6.543   7.550  0.0437  0.0117 -0.3624
  492TIP3    H123035   2.544   6.588   7.467  0.1329 -0.2750 -0.5352
  492TIP3    H223036   2.502   6.466   7.545  0.5381 -0.3485 -0.4320
  493TIP3   OH223037   0.595   0.315   7.723 -0.7037  0.3692  0.3173
  493TIP3    H123038   0.655   0.386   7.744  0.9940 -0.3693 -1.7122
  493TIP3    H223039   0.511   0.342   7.761  0.4462  2.3043  1.6403
  494TIP3   OH223040   0.686   3.971   1.930 -0.6967 -0.3771  0.4176
  494TIP3    H123041   0.620   4.030   1.894 -0.4721  0.4310  1.3119
  494TIP3    H223042   0.736   4.024   1.991  0.1434 -1.2451  0.5152
  495TIP3   OH223043   0.757   4.553   7.126  0.3780 -0.4790  0.5570
  495TIP3    H123044   0.802   4.637   7.134  0.5154 -0.2411 -1.9918
  495TIP3    H223045   0.827   4.490   7.108 -0.0551 -0.3934 -1.6883
  496TIP3   OH223046   5.223   0.556   8.028  0.6822  0.2560  0.0142
  496TIP3    H123047   5.195   0.647   8.015  0.5018  0.2111  0.0866
  496TIP3    H223048   5.142   0.507   8.038  0.4501 -0.6198 -4.1968
  497TIP3   OH223049   4.438   6.718   6.547 -0.5628  0.8459  0.0780
  497TIP3    H123050   4.403   6.807   6.545 -2.0785  0.3099  1.0139
  497TIP3    H223051   4.423   6.689   6.637  0.7204 -0.0679  0.0295
  498TIP3   OH223052   6.791   5.846   2.461  0.8417 -0.4901  0.3649
  498TIP3    H123053   6.792   5.790   2.538  0.6355 -0.4946  0.3637
  498TIP3    H223054   6.703   5.837   2.425  0.5528  0.4217  0.7967
  499TIP3   OH223055   3.535   0.435   1.685 -0.0922  0.0658 -0.2939
  499TIP3    H123056   3.464   0.373   1.700 -0.5289  0.8642  1.1642
  499TIP3    H223057   3.523   0.465   1.595 -0.2957 -1.4081 -0.7822
  500TIP3   OH223058   3.013   5.302   1.922  0.2041 -0.8429  0.3429
  500TIP3    H123059   2.944   5.258   1.872  0.5996 -1.0209 -0.0549
  500TIP3    H223060   2.968   5.373   1.968  0.0085  0.0683 -1.1990
  501TIP3   OH223061   5.009   5.790   2.821  0.1284  0.3285  0.0125
  501TIP3    H123062   4.936   5.728   2.813  1.3265 -1.0545 -0.7813
  501TIP3    H223063   4.998   5.828   2.908 -0.0974 -1.7924  0.9736
  502TIP3   OH223064   1.535   5.014   1.229 -0.1052  0.0404 -0.4977
  502TIP3    H123065   1.599   4.979   1.291 -1.8292 -0.7556  0.9372
  502TIP3    H223066   1.517   4.942   1.169 -0.8903 -0.3261  0.1582
  503TIP3   OH223067   2.476   4.576   7.700 -0.0281  0.4738 -0.2934
  503TIP3    H123068   2.402   4.605   7.648 -0.9933  0.8906  1.2643
  503TIP3    H223069   2.485   4.641   7.768 -0.0426 -1.0368  1.2200
  504TIP3   OH223070   0.573   6.041   0.453 -0.6239 -0.0177  0.6510
  504TIP3    H123071   0.583   6.071   0.363  1.2194  0.2309  0.8847
  504TIP3    H223072   0.648   5.983   0.467 -0.8497 -0.0135  2.0297
  505TIP3   OH223073   1.358   5.956   1.648 -0.0185  0.0935 -0.0111
  505TIP3    H123074   1.351   6.051   1.647 -1.3149  0.0566  1.7259
  505TIP3    H223075   1.373   5.933   1.740  3.4853 -1.2501 -0.7702
  506TIP3   OH223076   4.762   2.491   1.231 -0.2754  0.2217 -0.0311
  506TIP3    H123077   4.669   2.502   1.209  0.0023  0.5491 -1.1073
  506TIP3    H223078   4.807   2.491   1.146  0.6621 -0.4560  0.4412
  507TIP3   OH223079   3.895   4.121   0.460 -0.4123  0.5710 -0.5148
  507TIP3    H123080   3.894   4.217   0.462 -0.7972  0.5708  0.6853
  507TIP3    H223081   3.819   4.096   0.514  0.0328 -0.4041 -0.3170
  508TIP3   OH223082   5.293   5.296   0.600 -0.0489  0.0731 -0.5443
  508TIP3    H123083   5.224   5.250   0.647 -0.9367 -0.1538 -2.0300
  508TIP3    H223084   5.274   5.389   0.614 -0.3095  0.0056 -0.4556
  509TIP3   OH223085   6.085   0.323   2.799  0.4911 -0.6757 -0.0602
  509TIP3    H123086   6.091   0.413   2.831  2.2740 -1.2294  1.3261
  509TIP3    H223087   6.172   0.303   2.765  0.0373 -1.7865 -0.6579
  510TIP3   OH223088   2.012   0.018   0.583 -0.3037 -0.6220  0.1230
  510TIP3    H123089   1.946  -0.041   0.547 -0.2326 -0.7909  0.2662
  510TIP3    H223090   2.023  -0.011   0.673  0.9094 -1.4475 -0.2563
  511TIP3   OH223091   0.979   1.388   2.633  0.1431 -0.1931  0.0054
  511TIP3    H123092   1.048   1.412   2.696 -0.0771  0.7111 -0.0775
  511TIP3    H223093   0.964   1.469   2.583 -3.1986  0.6333  2.0812
  512TIP3   OH223094   2.573   6.581   2.401 -0.3840  0.1730 -0.3038
  512TIP3    H123095   2.516   6.503   2.403 -0.3452  0.1626  0.4850
  512TIP3    H223096   2.512   6.654   2.394 -0.6780  0.3157  2.6698
  513TIP3   OH223097   3.056   6.490   7.537  0.1541  0.5663 -0.0742
  513TIP3    H123098   3.017   6.403   7.536  1.3516  0.0185 -0.9638
  513TIP3    H223099   3.019   6.533   7.459 -1.6206  1.4379  1.1793
  514TIP3   OH223100   6.808   1.182   0.211  0.2921 -0.0379  0.0485
  514TIP3    H123101   6.775   1.235   0.283 -0.7713 -2.1255  1.1910
  514TIP3    H223102   6.845   1.245   0.149  0.7107  1.8709  2.1210
  515TIP3   OH223103   6.326   4.590   7.715 -0.0526 -0.5884  0.5152
  515TIP3    H123104   6.387   4.594   7.642 -0.5998 -0.4872  0.0567
  515TIP3    H223105   6.381   4.597   7.793  0.7292 -2.5428  0.1886
  516TIP3   OH223106   0.439   2.789   2.359  1.0356  0.2994 -0.1395
  516TIP3    H123107   0.370   2.851   2.337  1.1902 -0.1318 -2.0222
  516TIP3    H223108   0.393   2.715   2.400  0.6972  1.0306  0.8333
  517TIP3   OH223109   3.310   1.354   2.733 -0.3539  0.1255  1.0527
  517TIP3    H123110   3.388   1.377   2.682 -1.0168 -0.0270 -0.0681
  517TIP3    H223111   3.344   1.315   2.813  0.7353 -0.8868  0.1379
  518TIP3   OH223112   5.797   5.371   0.368  0.3715  0.3423  0.0678
  518TIP3    H123113   5.865   5.379   0.301  1.6591  1.4932  1.4315
  518TIP3    H223114   5.814   5.444   0.428 -0.7627 -0.5899  1.6112
  519TIP3   OH223115   1.559   6.143   2.802 -0.2749 -0.0166 -0.0596
  519TIP3    H123116   1.655   6.138   2.807 -0.1747 -0.4449 -1.8281
  519TIP3    H223117   1.530   6.138   2.893  1.3665 -0.3067  0.4778
  520TIP3   OH223118   2.311   4.078   0.639 -0.3425 -0.1054 -0.1461
  520TIP3    H123119   2.311   4.080   0.735 -0.9133  1.0708 -0.1571
  520TIP3    H223120   2.386   4.023   0.617  0.2554  0.2256  0.9665
  521TIP3   OH223121   4.167   1.834   2.559 -0.0830  0.0802  0.1053
  521TIP3    H123122   4.100   1.777   2.598  1.0241 -0.3488  1.4506
  521TIP3    H223123   4.246   1.781   2.558  0.3936  0.7835 -0.9239
  522TIP3   OH223124   5.945   4.978   7.780  0.0055  0.4205  0.0616
  522TIP3    H123125   5.888   4.918   7.733  0.5663 -0.6939  0.7721
  522TIP3    H223126   6.019   4.993   7.722  0.5452 -0.7010  0.4453
  523TIP3   OH223127   6.398   2.814   7.193  0.0561 -0.2805  0.6254
  523TIP3    H123128   6.484   2.819   7.235  0.3607 -1.9641  0.2814
  523TIP3    H223129   6.337   2.845   7.261  0.9054  0.9678  0.8601
  524TIP3   OH223130   4.616   5.178   0.158 -0.3581  0.1577 -0.3505
  524TIP3    H123131   4.532   5.218   0.181 -0.6216 -0.6726  0.1312
  524TIP3    H223132   4.679   5.250   0.165 -1.0100  0.7718 -0.6601
  525TIP3   OH223133   2.638   4.088   8.288  0.1499 -0.0847 -0.4344
  525TIP3    H123134   2.591   4.021   8.338 -0.9324  1.7101  1.0780
  525TIP3    H223135   2.680   4.143   8.354 -0.6100  1.8745 -1.4703
  526TIP3   OH223136   4.588   0.626   8.350 -0.2463 -0.2313  0.3360
  526TIP3    H123137   4.656   0.691   8.331 -2.4882  1.4718 -2.6811
  526TIP3    H223138   4.573   0.634   8.444  2.0557  1.0122  0.6677
  527TIP3   OH223139   6.277   1.525   7.716 -0.2501 -0.2288 -0.3969
  527TIP3    H123140   6.240   1.557   7.634 -1.5517  0.2076  0.3323
  527TIP3    H223141   6.276   1.429   7.706  1.7371 -0.1567 -1.7618
  528TIP3   OH223142   4.668   6.041   1.992  0.4395  0.1687 -0.3455
  528TIP3    H123143   4.742   6.078   1.944  1.5544  1.7225  2.3587
  528TIP3    H223144   4.591   6.067   1.941  1.6267 -0.7745 -2.7790
  529TIP3   OH223145   4.333   6.925   0.727  0.1421 -0.1232 -0.0937
  529TIP3    H123146   4.387   6.941   0.650 -0.7366 -0.4859 -0.8015
  529TIP3    H223147   4.304   7.012   0.755 -1.0489 -0.1040 -1.3010
  530TIP3   OH223148   3.830   1.971   7.825 -0.6476  0.3226 -0.5421
  530TIP3    H123149   3.750   1.926   7.798 -0.5029 -0.0430 -0.3644
  530TIP3    H223150   3.900   1.926   7.778 -0.2597 -1.0927  1.2995
  531TIP3   OH223151   6.884   1.274   8.111  0.2767  0.1726 -0.4610
  531TIP3    H123152   6.947   1.239   8.174  0.4909  0.7504 -0.3447
  531TIP3    H223153   6.919   1.360   8.087  0.0091  0.1148 -1.0976
  532TIP3   OH223154   4.138   2.620   0.030 -0.1242  0.4155 -1.4384
  532TIP3    H123155   4.096   2.682   0.089 -1.3586 -2.3399  0.8169
  532TIP3    H223156   4.075   2.607  -0.040 -1.5023 -0.8537 -0.0434
  533TIP3   OH223157   1.954   0.486   8.393  0.1552  0.0488 -0.5522
  533TIP3    H123158   2.003   0.487   8.475 -0.2962 -2.4708 -0.1542
  533TIP3    H223159   2.014   0.446   8.330 -0.7917 -1.6479 -0.4321
  534TIP3   OH223160   6.569   2.396   1.796  0.0855 -0.1309  0.4161
  534TIP3    H123161   6.658   2.412   1.827 -0.1514  1.5799  0.3203
  534TIP3    H223162   6.514   2.413   1.872 -0.1007 -3.9347  1.3310
  535TIP3   OH223163   6.188   2.413   1.696  0.1173 -0.3576 -0.0965
  535TIP3    H123164   6.240   2.333   1.690  0.7584  0.0021  0.4634
  535TIP3    H223165   6.098   2.382   1.703  0.2580 -0.9967 -0.9184
  536TIP3   OH223166   1.923   4.035   0.532 -0.0702  0.1122 -0.0823
  536TIP3    H123167   1.938   4.037   0.437  0.3550  1.2160 -0.0017
  536TIP3    H223168   1.891   3.946   0.549 -2.1312  0.4786 -1.5612
  537TIP3   OH223169   6.854   2.235   1.555  0.2856  0.0437  0.4086
  537TIP3    H123170   6.802   2.210   1.631  0.1171  1.9673  0.9783
  537TIP3    H223171   6.852   2.331   1.554  0.7854  0.0952 -1.6769
  538TIP3   OH223172   6.897   4.807   8.013 -0.2942  0.4702  0.1820
  538TIP3    H123173   6.979   4.839   8.052 -0.0547 -1.3799  1.3318
  538TIP3    H223174   6.828   4.849   8.065 -0.0545  0.8675  0.1861
  539TIP3   OH223175   1.257   4.024   8.151 -0.2593  0.6932  0.1601
  539TIP3    H123176   1.200   4.082   8.202 -0.1486  2.8260 -1.9863
  539TIP3    H223177   1.340   4.026   8.198 -1.1383 -0.3051  1.8447
  540TIP3   OH223178   2.457   5.541   8.271 -0.2679 -0.1345  0.0125
  540TIP3    H123179   2.493   5.496   8.195  0.1591  1.4299 -0.7479
  540TIP3    H223180   2.534   5.574   8.318 -0.5704  2.7414 -1.3182
  541TIP3   OH223181   4.831   6.059   1.180 -0.3377  0.0729  0.4171
  541TIP3    H123182   4.856   6.009   1.257 -2.5980 -0.5891  0.7959
  541TIP3    H223183   4.795   6.141   1.215 -0.1531  0.3394 -0.0095
  542TIP3   OH223184   4.682   6.591   2.268 -0.7573 -0.3482  0.0244
  542TIP3    H123185   4.700   6.548   2.184 -0.7912  0.9240 -0.6537
  542TIP3    H223186   4.769   6.600   2.308 -0.6157 -0.0090 -0.3519
  543TIP3   OH223187   0.728   3.424   0.503  0.0510 -0.5612 -0.2781
  543TIP3    H123188   0.757   3.334   0.493  0.2708 -0.5288  0.0571
  543TIP3    H223189   0.634   3.417   0.519  0.2620 -0.8105  0.9517
  544TIP3   OH223190   6.786   1.698   0.073  0.2229  0.2048 -0.4659
  544TIP3    H123191   6.763   1.673  -0.016 -1.5568 -0.2900  0.0873
  544TIP3    H223192   6.835   1.780   0.063 -2.0862  1.5451 -1.8005
  545TIP3   OH223193   4.020   4.617   2.027  0.0144  0.2086  0.1891
  545TIP3    H123194   3.930   4.586   2.038 -0.0293 -0.4078 -1.6371
  545TIP3    H223195   4.012   4.712   2.022 -0.7846  0.0845 -1.6834
  546TIP3   OH223196   1.552   2.725   7.833  0.3655  0.3860  0.0498
  546TIP3    H123197   1.607   2.768   7.898  0.0519  0.5820  0.1926
  546TIP3    H223198   1.488   2.792   7.808 -0.9393 -0.3732  1.2253
  547TIP3   OH223199   5.636   5.365   0.965 -0.5663  0.1374  0.3531
  547TIP3    H123200   5.629   5.330   0.876 -0.3927 -1.7729  1.0242
  547TIP3    H223201   5.714   5.421   0.963 -1.0792  0.8389 -0.8929
  548TIP3   OH223202   3.458   6.576   1.957  0.6589  0.0179  0.2444
  548TIP3    H123203   3.533   6.517   1.955  0.8671  0.2909 -1.2348
  548TIP3    H223204   3.402   6.546   1.885  0.9640  1.8384 -0.8060
  549TIP3   OH223205   3.366   3.838   2.679  0.0697 -1.1012 -0.7832
  549TIP3    H123206   3.409   3.913   2.640  0.2732 -0.5058  0.5281
  549TIP3    H223207   3.421   3.814   2.754 -1.9516 -0.1191  1.1361
  550TIP3   OH223208   3.703   0.053   0.993  0.3371 -0.4980  0.5991
  550TIP3    H123209   3.724  -0.031   1.034  0.3965  0.0756  1.7995
  550TIP3    H223210   3.722   0.118   1.061 -2.7884  0.2721  0.8881
  551TIP3   OH223211   3.160   5.800   1.163 -0.4403  0.5523  0.4725
  551TIP3    H123212   3.218   5.729   1.134  0.2851  1.4648 -0.3642
  551TIP3    H223213   3.107   5.760   1.232  0.2184 -0.6973  0.2943
  552TIP3   OH223214   0.929   1.419   8.233  0.2437 -0.6996  0.4045
  552TIP3    H123215   0.920   1.328   8.204 -0.5942 -1.3310  2.4687
  552TIP3    H223216   1.008   1.419   8.286 -0.5683 -0.6037  1.6508
  553TIP3   OH223217   1.632   2.397   2.203 -0.1819 -0.3796  0.1750
  553TIP3    H123218   1.668   2.313   2.174 -0.4714 -0.6849  0.6781
  553TIP3    H223219   1.563   2.373   2.265  0.6690  0.2633  1.4020
  554TIP3   OH223220   5.073   6.198   1.984  0.0987  0.7337  0.4404
  554TIP3    H123221   5.159   6.157   1.991 -0.6829 -0.7285  2.9922
  554TIP3    H223222   5.086   6.287   2.017  0.6264  0.5373  0.7718
  555TIP3   OH223223   5.844   2.983   1.380  0.4741 -0.6700  0.0033
  555TIP3    H123224   5.890   3.007   1.300  1.4955 -2.1844  0.1061
  555TIP3    H223225   5.794   2.904   1.356 -1.2964  0.3262  0.1829
  556TIP3   OH223226   2.072   6.490   3.312  0.0596  0.0720  0.8837
  556TIP3    H123227   2.154   6.469   3.357  1.5294  2.8854 -0.2622
  556TIP3    H223228   2.099   6.523   3.227 -2.2313  1.6687  0.6979
  557TIP3   OH223229   3.690   4.068   0.650  0.5333  0.0455  0.8591
  557TIP3    H123230   3.709   3.993   0.707 -0.0227 -1.2640 -0.6046
  557TIP3    H223231   3.628   4.121   0.700 -2.3825 -2.6198  0.4147
  558TIP3   OH223232   3.723   3.463   1.146 -0.1803  0.1329 -0.1722
  558TIP3    H123233   3.701   3.412   1.068  1.6168 -0.4634 -0.3513
  558TIP3    H223234   3.792   3.522   1.117 -1.7841  2.3086  0.1994
  559TIP3   OH223235   0.378   4.425   3.070  0.0920 -0.5323 -0.8414
  559TIP3    H123236   0.300   4.475   3.093  1.5568  1.9389 -0.8380
  559TIP3    H223237   0.381   4.354   3.134 -0.9891  0.6251  0.5652
  560TIP3   OH223238   3.040   1.751   2.786  0.5335  0.1713  0.2567
  560TIP3    H123239   2.966   1.770   2.729  0.7498 -0.1634 -0.1454
  560TIP3    H223240   3.063   1.660   2.766  1.6381  0.5485 -0.3159
  561TIP3   OH223241   3.389   1.797   7.985 -0.4402 -0.5146 -0.0095
  561TIP3    H123242   3.333   1.786   8.061 -2.5601  0.7495 -1.2734
  561TIP3    H223243   3.372   1.719   7.931  3.1205 -2.8394  1.8593
  562TIP3   OH223244   2.416   4.523   1.323 -0.1065  0.1301 -0.0725
  562TIP3    H123245   2.326   4.499   1.301  0.4756 -0.9390 -1.4996
  562TIP3    H223246   2.442   4.583   1.253  0.5202 -0.1460 -0.0831
  563TIP3   OH223247   4.166   6.626   8.204 -0.5366 -0.1871  0.6935
  563TIP3    H123248   4.245   6.573   8.196  1.0596  2.3750 -2.1529
  563TIP3    H223249   4.180   6.679   8.282  0.4848  0.0733  0.3476
  564TIP3   OH223250   1.838   5.447   0.593  0.6279 -0.3620 -0.0735
  564TIP3    H123251   1.797   5.364   0.569 -0.4135  0.3553 -0.8509
  564TIP3    H223252   1.769   5.512   0.582  1.0387  0.4560  1.7783
  565TIP3   OH223253   4.242   3.311   7.944 -0.4799  0.0976 -0.0126
  565TIP3    H123254   4.151   3.336   7.932 -0.3392  0.4781 -0.2896
  565TIP3    H223255   4.290   3.364   7.881 -0.2086 -1.0710 -0.8220
  566TIP3   OH223256   0.828   2.901   0.922  0.1215 -0.1824  0.2579
  566TIP3    H123257   0.891   2.969   0.897  1.5453 -1.5870 -0.1058
  566TIP3    H223258   0.827   2.841   0.848 -1.8747 -0.0696  0.1526
  567TIP3   OH223259   5.259   2.565   1.443 -0.1200 -0.7336 -0.0711
  567TIP3    H123260   5.223   2.617   1.372 -0.2875 -2.0101 -0.9607
  567TIP3    H223261   5.267   2.477   1.407  1.5935 -1.0177  0.8923
  568TIP3   OH223262   2.197   4.099   1.541  0.5438  0.0172 -0.2700
  568TIP3    H123263   2.160   4.166   1.599 -1.5018 -1.3399  0.1117
  568TIP3    H223264   2.145   4.105   1.461  0.0549 -1.3232 -0.0837
  569TIP3   OH223265   0.700   5.413   2.959  0.2436  0.3853  0.0909
  569TIP3    H123266   0.608   5.437   2.975 -0.0239 -0.7631  0.3347
  569TIP3    H223267   0.726   5.363   3.036  1.0258  0.5368 -0.0650
  570TIP3   OH223268   6.758   5.856   7.351 -0.1835  0.0040 -0.4332
  570TIP3    H123269   6.740   5.783   7.410 -0.3664 -0.0610 -0.5703
  570TIP3    H223270   6.841   5.891   7.382  0.0248 -0.4104 -0.5135
  571TIP3   OH223271   2.992   0.815   1.909  0.6723  0.2313  0.2233
  571TIP3    H123272   2.962   0.736   1.955  0.5934  0.4311  0.5133
  571TIP3    H223273   3.083   0.826   1.935  0.7513  0.1074  0.0038
  572TIP3   OH223274   4.450   4.956   0.208  0.3997 -1.0430 -0.3295
  572TIP3    H123275   4.480   5.015   0.138 -0.5524 -0.7619 -0.5158
  572TIP3    H223276   4.495   4.874   0.191  0.2762 -0.9381 -1.2111
  573TIP3   OH223277   1.304   0.752   3.311 -0.0047  0.3059  0.3299
  573TIP3    H123278   1.354   0.813   3.258  0.6580  0.0005  0.5944
  573TIP3    H223279   1.216   0.789   3.315  0.7330  2.0664  1.7682
  574TIP3   OH223280   4.730   2.474   2.333  0.7247  0.0026 -0.0442
  574TIP3    H123281   4.688   2.413   2.272 -0.4023  1.0021 -0.3064
  574TIP3    H223282   4.823   2.471   2.310  0.4712 -0.4820 -1.0698
  575TIP3   OH223283   6.922   4.051   3.120 -0.6410 -0.5173  0.0386
  575TIP3    H123284   6.991   4.115   3.104 -0.3506 -1.2177 -1.6572
  575TIP3    H223285   6.844   4.103   3.138 -0.4839  0.3541 -1.6298
  576TIP3   OH223286   2.842   5.304   2.227  0.1130 -0.0551  0.4852
  576TIP3    H123287   2.886   5.232   2.181 -1.0272  0.8259 -2.2115
  576TIP3    H223288   2.868   5.382   2.178 -0.5298  1.0785  1.9085
  577TIP3   OH223289   3.406   4.353   7.863 -0.4623  0.2218 -0.3862
  577TIP3    H123290   3.369   4.281   7.914 -1.0179  1.0672  0.4540
  577TIP3    H223291   3.447   4.311   7.788 -1.2186 -0.9267 -0.1881
  578TIP3   OH223292   1.893   0.569   0.782 -0.1708 -0.0408  0.1155
  578TIP3    H123293   1.973   0.527   0.751 -0.4981 -1.0662  0.5821
  578TIP3    H223294   1.828   0.549   0.715 -0.1992  0.1939  0.0731
  579TIP3   OH223295   4.453   0.683   2.233 -0.1869 -0.7189 -0.3957
  579TIP3    H123296   4.451   0.651   2.323 -1.1518  0.3730 -0.0008
  579TIP3    H223297   4.541   0.660   2.202  1.1445  1.0939  1.6678
  580TIP3   OH223298   2.564   3.550   8.387 -0.5664 -0.0245 -0.2449
  580TIP3    H123299   2.492   3.513   8.438 -0.4635  0.3196  0.1583
  580TIP3    H223300   2.607   3.611   8.447  0.3721 -0.5972 -0.3260
  581TIP3   OH223301   4.167   6.068   1.796 -0.2151  0.3493 -0.3879
  581TIP3    H123302   4.100   6.134   1.813 -0.3991  0.3545 -1.0867
  581TIP3    H223303   4.139   5.992   1.847  0.0669  0.8508  0.5138
  582TIP3   OH223304   2.232   4.144   7.878  0.3804 -0.2205  0.4741
  582TIP3    H123305   2.204   4.161   7.968 -1.8270 -0.6553 -0.0702
  582TIP3    H223306   2.281   4.062   7.884  0.2951 -0.2237  1.2764
  583TIP3   OH223307   3.246   3.472   2.304 -0.1734 -0.5747 -0.4093
  583TIP3    H123308   3.246   3.509   2.392 -2.9263 -3.1265  0.8169
  583TIP3    H223309   3.193   3.533   2.252  0.9081  0.5826 -0.2271
  584TIP3   OH223310   5.828   5.798   0.221  0.1446 -0.2018 -0.6853
  584TIP3    H123311   5.890   5.853   0.269 -1.2988  1.5622 -0.7591
  584TIP3    H223312   5.830   5.832   0.131 -0.2133 -0.7785 -0.9190
  585TIP3   OH223313   4.991   1.394   8.211  0.3691  0.3905 -0.2330
  585TIP3    H123314   4.953   1.307   8.211  3.1956 -0.9521  0.3202
  585TIP3    H223315   4.916   1.453   8.212 -1.6444 -1.9970 -0.9377
  586TIP3   OH223316   6.039   2.026   2.635 -0.0028  0.2772 -0.3420
  586TIP3    H123317   6.104   1.957   2.625  1.0059  0.9901  0.9404
  586TIP3    H223318   6.089   2.108   2.634 -0.8195  0.8330  0.8569
  587TIP3   OH223319   0.490   4.693   1.942  0.8606  0.5327  0.2711
  587TIP3    H123320   0.403   4.675   1.905  0.4490  1.1907  0.8843
  587TIP3    H223321   0.539   4.731   1.869  0.4131  0.7813  0.0914
  588TIP3   OH223322   0.909   0.226   1.596 -0.0258 -0.5285 -0.1671
  588TIP3    H123323   0.957   0.298   1.637  0.3326 -1.7864  1.7626
  588TIP3    H223324   0.821   0.230   1.634  0.0640 -1.2271  0.1302
  589TIP3   OH223325   5.705   6.468   8.219 -0.2752  0.4562 -0.1207
  589TIP3    H123326   5.759   6.429   8.288  0.3650 -1.2655 -1.5044
  589TIP3    H223327   5.616   6.466   8.253  0.3946  3.6159  2.3427
  590TIP3   OH223328   5.564   2.691   2.396 -0.1623 -0.2639  0.1832
  590TIP3    H123329   5.565   2.731   2.483  4.4033 -0.6326  0.5679
  590TIP3    H223330   5.610   2.754   2.340 -1.6277 -0.7257 -1.6421
  591TIP3   OH223331   5.674   5.288   8.369  0.3007 -0.1631 -0.1383
  591TIP3    H123332   5.611   5.225   8.403 -0.0567  1.1072  1.6811
  591TIP3    H223333   5.760   5.250   8.391  0.0901 -0.0042  0.9623
  592TIP3   OH223334   3.041   6.156   8.030  0.1507 -0.0393 -0.2828
  592TIP3    H123335   3.006   6.137   7.943  0.2305 -0.1312 -0.2956
  592TIP3    H223336   3.135   6.166   8.016  0.0051  1.3749 -0.4497
  593TIP3   OH223337   1.536   5.866   0.350  0.4767  0.5547  0.6060
  593TIP3    H123338   1.478   5.823   0.286 -0.3632  1.7790  0.5119
  593TIP3    H223339   1.617   5.815   0.346 -0.3721 -0.8530  0.3113
  594TIP3   OH223340   4.247   0.278   7.740  0.0282 -0.5308 -0.2303
  594TIP3    H123341   4.159   0.307   7.765 -0.9660 -1.8438 -1.9641
  594TIP3    H223342   4.296   0.359   7.726 -1.2003  0.2443 -0.2186
  595TIP3   OH223343   6.678   2.029   0.078  0.3499 -0.4545 -0.4148
  595TIP3    H123344   6.753   2.030   0.018 -0.1490 -1.1460 -1.0739
  595TIP3    H223345   6.715   2.000   0.162  0.6663 -1.8683 -1.0026
  596TIP3   OH223346   5.894   2.309   2.719  0.3088  0.0586  0.4173
  596TIP3    H123347   5.803   2.330   2.699  0.2852 -1.5795 -1.4234
  596TIP3    H223348   5.945   2.357   2.654  0.6814 -0.1768  0.5296
  597TIP3   OH223349   4.722   3.261   2.613  0.1210  0.6145  0.4338
  597TIP3    H123350   4.627   3.253   2.624  0.2632  0.8865  2.1376
  597TIP3    H223351   4.739   3.222   2.527 -1.5169  0.4952  0.1196
  598TIP3   OH223352   1.719   3.337   0.891  0.1658 -0.0774 -0.8103
  598TIP3    H123353   1.728   3.258   0.943  0.4868 -0.4215 -1.3843
  598TIP3    H223354   1.717   3.307   0.801  1.9512  0.6915 -1.1339
  599TIP3   OH223355   5.213   1.060   7.393 -0.4015 -0.1943 -0.1026
  599TIP3    H123356   5.293   1.057   7.446 -1.6987  1.4233  2.1305
  599TIP3    H223357   5.238   1.105   7.313  0.6980  1.3919  1.0819
  600TIP3   OH223358   4.300   0.649   3.612 -0.3316 -0.7017  0.2701
  600TIP3    H123359   4.357   0.573   3.627  0.0324 -1.0985 -2.5486
  600TIP3    H223360   4.360   0.718   3.586 -0.8757 -0.0771  0.6396
  601TIP3   OH223361   5.157   6.199   2.597  0.1736 -0.1236  0.1383
  601TIP3    H123362   5.102   6.126   2.568 -0.2095 -1.4134  3.6449
  601TIP3    H223363   5.095   6.260   2.637  0.8853  0.1818  0.7914
  602TIP3   OH223364   1.162   0.697   2.136 -0.3489  0.3206  0.1204
  602TIP3    H123365   1.172   0.639   2.061  0.7624  0.5312  0.0926
  602TIP3    H223366   1.172   0.785   2.099 -2.0149  0.5583  0.1571
  603TIP3   OH223367   1.417   4.051   0.509  0.3715 -0.3631  0.9204
  603TIP3    H123368   1.337   4.016   0.468  1.3391 -0.0375 -1.4005
  603TIP3    H223369   1.468   3.973   0.529  0.8050 -0.5038 -0.5724
  604TIP3   OH223370   3.392   2.710   1.904 -0.2875  1.0625 -0.4811
  604TIP3    H123371   3.394   2.750   1.817  0.1074 -0.1493 -1.0552
  604TIP3    H223372   3.346   2.628   1.891 -0.3638  0.9492  0.4939
  605TIP3   OH223373   0.064   4.057   2.843  0.0235  0.2469  0.2025
  605TIP3    H123374   0.136   4.069   2.781  1.5077 -1.2051  1.5463
  605TIP3    H223375   0.067   4.134   2.899 -0.1490  0.6810 -0.3747
  606TIP3   OH223376   3.657   6.265   2.263 -0.1112  0.1553  0.2432
  606TIP3    H123377   3.658   6.311   2.347 -0.9213  1.1560 -0.2610
  606TIP3    H223378   3.577   6.297   2.220 -0.3746 -1.2867 -0.3975
  607TIP3   OH223379   6.428   1.641   0.709 -0.3064 -0.6684  0.3872
  607TIP3    H123380   6.391   1.724   0.739 -0.8913 -1.3120  1.5052
  607TIP3    H223381   6.484   1.612   0.781 -1.1782 -1.9000  0.6018
  608TIP3   OH223382   2.724   3.503   0.973 -0.1241 -0.0755 -0.6936
  608TIP3    H123383   2.819   3.487   0.971 -0.1633 -0.9095  1.8023
  608TIP3    H223384   2.686   3.420   0.945 -0.1450  0.1640 -1.3967
  609TIP3   OH223385   3.036   2.230   0.482  0.1895  0.3463 -0.6776
  609TIP3    H123386   3.090   2.246   0.560  1.4874 -1.2094 -1.2211
  609TIP3    H223387   2.972   2.301   0.483 -0.0009  0.2306  1.9490
  610TIP3   OH223388   4.006   0.174   1.522  0.3814 -0.0273 -0.0522
  610TIP3    H123389   3.978   0.213   1.606 -0.8964  0.6955 -0.7739
  610TIP3    H223390   3.924   0.158   1.475  1.1065  0.2667 -1.4663
  611TIP3   OH223391   4.986   6.742   1.396 -0.2962  0.3607 -0.0590
  611TIP3    H123392   5.026   6.827   1.413 -1.9434  1.1681  0.0322
  611TIP3    H223393   4.920   6.732   1.465 -2.5816  0.6880 -2.0782
  612TIP3   OH223394   5.687   6.442   2.963  0.4891  0.7008  0.1460
  612TIP3    H123395   5.676   6.529   2.925  1.3746  0.5820 -0.4008
  612TIP3    H223396   5.704   6.385   2.889 -0.3549  0.0029  0.4777
  613TIP3   OH223397   3.511   3.399   7.430 -0.2887  0.2062 -0.2800
  613TIP3    H123398   3.482   3.308   7.430  0.6329 -0.0974 -0.2810
  613TIP3    H223399   3.587   3.400   7.489  1.2085  0.4490 -2.1107
  614TIP3   OH223400   6.732   5.402   1.812  0.1136 -0.8014 -0.0378
  614TIP3    H123401   6.753   5.316   1.776  1.2251 -0.6090  0.1239
  614TIP3    H223402   6.666   5.438   1.753  1.2638 -0.8579 -1.3825
  615TIP3   OH223403   1.916   5.117   1.761  0.0887  0.1864  0.1087
  615TIP3    H123404   1.849   5.072   1.709 -1.5107  2.3524  0.1750
  615TIP3    H223405   1.898   5.089   1.851 -0.2483  0.1664  0.0376
  616TIP3   OH223406   2.062   3.593   1.398  0.3908 -0.2008 -0.5224
  616TIP3    H123407   2.002   3.663   1.371  0.8084  0.3668  0.0067
  616TIP3    H223408   2.068   3.536   1.322 -0.2803  0.1155 -0.8190
  617TIP3   OH223409   6.538   5.967   7.224 -0.1586  0.8441  0.1670
  617TIP3    H123410   6.471   5.995   7.286  1.8143  3.8594  1.1507
  617TIP3    H223411   6.607   5.929   7.278 -1.0377 -2.5887 -0.8554
  618TIP3   OH223412   1.361   2.842   7.103  0.1176  0.4803 -0.0036
  618TIP3    H123413   1.355   2.787   7.181 -0.3610  0.8921  0.2590
  618TIP3    H223414   1.296   2.805   7.043  0.4456  0.1989 -0.1947
  619TIP3   OH223415   5.273   1.917   0.268  0.0901  0.3728  0.1092
  619TIP3    H123416   5.182   1.908   0.239  0.1270  0.3034  0.0137
  619TIP3    H223417   5.319   1.846   0.223  0.1813  0.3769  0.1969
  620TIP3   OH223418   1.760   0.082   2.253 -0.4693 -0.2173 -0.4169
  620TIP3    H123419   1.844   0.101   2.293 -1.9524  0.1195  2.8457
  620TIP3    H223420   1.769  -0.007   2.218  0.4491 -1.3152  2.3744
  621TIP3   OH223421   6.240   1.757   0.445  0.0384 -0.0887 -0.2908
  621TIP3    H123422   6.290   1.695   0.498 -0.9872 -0.2548  0.5112
  621TIP3    H223423   6.302   1.786   0.378  1.8489  1.1636  1.7618
  622TIP3   OH223424   6.524   2.051   7.764  0.1995  0.1146  0.3552
  622TIP3    H123425   6.570   2.118   7.714  3.2871 -0.8565  1.6928
  622TIP3    H223426   6.514   1.978   7.703 -0.0771  0.5238 -0.1007
  623TIP3   OH223427   5.962   6.337   0.487  0.1426  0.4932  0.7241
  623TIP3    H123428   5.900   6.384   0.541 -0.4128  0.4666  0.1241
  623TIP3    H223429   6.042   6.331   0.540 -0.9258 -1.0695  2.2388
  624TIP3   OH223430   2.556   0.958   0.961  0.3880 -0.4573 -0.0992
  624TIP3    H123431   2.537   1.047   0.931 -0.4492 -0.1853  1.1320
  624TIP3    H223432   2.482   0.936   1.019  1.0039 -1.6343  0.2844
  625TIP3   OH223433   1.486   5.678   2.156  0.5617  0.6653  0.0187
  625TIP3    H123434   1.504   5.715   2.242  1.1594  0.1866  0.1107
  625TIP3    H223435   1.562   5.702   2.103 -0.1584  1.6374 -0.6134
  626TIP3   OH223436   0.430   5.027   7.910  0.5586 -0.4923  0.2658
  626TIP3    H123437   0.482   5.073   7.844 -0.5876  1.8907  0.9384
  626TIP3    H223438   0.485   5.028   7.989  0.6820 -0.6488  0.1843
  627TIP3   OH223439   5.972   3.574   0.734 -0.0065 -0.5903  0.3768
  627TIP3    H123440   5.984   3.663   0.766  4.3355 -0.8792  0.1551
  627TIP3    H223441   6.001   3.577   0.642  0.5151 -2.2472  0.4469
  628TIP3   OH223442   3.129   0.361   2.347 -0.3621  0.0827 -0.0368
  628TIP3    H123443   3.191   0.429   2.374 -0.0991 -0.3828  0.5551
  628TIP3    H223444   3.176   0.311   2.280  0.2448 -0.7818  0.9943
  629TIP3   OH223445   0.233   3.895   7.255 -0.0980 -0.1195  0.3608
  629TIP3    H123446   0.321   3.898   7.291  0.0224 -0.2053  0.0756
  629TIP3    H223447   0.234   3.957   7.183  0.2706 -1.4615 -0.8284
  630TIP3   OH223448   2.299   5.170   0.817 -1.1007 -0.4035 -0.4946
  630TIP3    H123449   2.282   5.263   0.809 -0.0612 -0.0130  1.2971
  630TIP3    H223450   2.388   5.159   0.784  0.0330 -0.1449  2.2018
  631TIP3   OH223451   3.924   5.872   8.212 -0.1089  0.5264  0.1470
  631TIP3    H123452   3.887   5.941   8.268  0.2182 -0.2999  1.4228
  631TIP3    H223453   3.855   5.852   8.149 -0.5806  1.3080  0.4093
  632TIP3   OH223454   6.467   3.769   2.641  0.6081 -0.3433 -0.2256
  632TIP3    H123455   6.527   3.763   2.567  0.4574  1.4828 -0.5380
  632TIP3    H223456   6.447   3.863   2.648 -2.0914 -0.8472 -0.0666
  633TIP3   OH223457   1.072   0.028   2.518 -0.4715  0.2637  0.4480
  633TIP3    H123458   1.153  -0.023   2.524 -1.0921 -0.7730  0.3381
  633TIP3    H223459   1.029   0.016   2.603 -1.7549 -1.4191 -0.3650
  634TIP3   OH223460   0.191   0.469   0.878  0.0230 -0.2457 -0.1230
  634TIP3    H123461   0.108   0.421   0.867  0.4907 -1.1054 -0.0284
  634TIP3    H223462   0.247   0.433   0.809  0.2090  0.5993 -0.4212
  635TIP3   OH223463   4.602   6.134   0.519 -0.5262 -0.4064 -0.1414
  635TIP3    H123464   4.648   6.058   0.483  1.8367  1.2708 -0.9318
  635TIP3    H223465   4.658   6.167   0.589 -0.7247  1.4208 -0.7625
  636TIP3   OH223466   1.105   6.253   0.072  0.0230 -0.5070  0.1658
  636TIP3    H123467   1.144   6.188   0.130  0.2003 -0.7747 -0.2433
  636TIP3    H223468   1.103   6.334   0.123  0.8269 -0.5668  0.2996
  637TIP3   OH223469   6.023   0.060   8.250 -0.3266  0.4227 -0.2788
  637TIP3    H123470   5.954  -0.006   8.244  0.0209  0.1756 -1.8975
  637TIP3    H223471   6.024   0.085   8.343 -2.1467 -0.0209 -0.1103
  638TIP3   OH223472   1.124   2.661   0.039  0.0641 -0.3290  0.3254
  638TIP3    H123473   1.086   2.580   0.006 -0.9643 -0.0840  0.8706
  638TIP3    H223474   1.102   2.662   0.132 -0.2659  0.7438  0.2539
  639TIP3   OH223475   5.477   0.786   0.167 -0.4668  0.3888  0.1380
  639TIP3    H123476   5.507   0.749   0.084  0.2529 -0.5337  0.7913
  639TIP3    H223477   5.435   0.869   0.143 -1.4250 -0.4674 -1.2841
  640TIP3   OH223478   3.377   3.694   7.199  0.0325  0.2812 -0.3713
  640TIP3    H123479   3.393   3.664   7.288  0.4562 -0.2239 -0.6138
  640TIP3    H223480   3.361   3.614   7.149  0.0918  0.5384 -0.8072
  641TIP3   OH223481   1.334   4.775   2.449  0.1372  0.1357 -0.2238
  641TIP3    H123482   1.428   4.795   2.455  0.1375 -0.1912  1.6011
  641TIP3    H223483   1.331   4.680   2.434  0.0912  0.3055 -1.3396
  642TIP3   OH223484   3.150   4.310   2.434 -0.0385  0.6937  0.7951
  642TIP3    H123485   3.094   4.360   2.494  1.5489  1.7882  1.4125
  642TIP3    H223486   3.179   4.374   2.370 -0.7538 -0.2224 -0.5010
  643TIP3   OH223487   0.826   5.625   2.230  0.0743 -0.3055  0.2680
  643TIP3    H123488   0.789   5.626   2.318  0.3799 -1.6825  0.4406
  643TIP3    H223489   0.868   5.539   2.223  0.4333 -0.0441 -1.0653
  644TIP3   OH223490   3.047   3.709   1.127 -0.0616 -0.1449  0.1552
  644TIP3    H123491   3.047   3.613   1.119  1.2986 -0.1021 -0.7570
  644TIP3    H223492   3.087   3.739   1.046 -0.7896  1.2343  0.2817
  645TIP3   OH223493   3.926   5.685   7.953  0.5355  0.2846  0.0111
  645TIP3    H123494   3.845   5.729   7.928  0.2967  0.0045  0.2883
  645TIP3    H223495   3.906   5.644   8.037  0.4804 -1.0588 -0.6270
  646TIP3   OH223496   2.007   5.813   7.132  0.2119 -0.3561  0.7049
  646TIP3    H123497   2.102   5.810   7.122  0.0364 -0.2135 -1.4045
  646TIP3    H223498   1.987   5.739   7.189  1.4370 -1.4956 -0.2679
  647TIP3   OH223499   0.821   0.691   0.648  0.0231  0.0414 -0.0155
  647TIP3    H123500   0.884   0.622   0.624  0.2461  0.4991 -0.7820
  647TIP3    H223501   0.776   0.656   0.725  1.4001 -0.1793  0.7218
  648TIP3   OH223502   3.992   6.473   2.346  0.0975 -0.2407 -0.2134
  648TIP3    H123503   3.973   6.408   2.279 -1.3958  0.5902 -0.6552
  648TIP3    H223504   4.037   6.425   2.415  0.6183 -1.3525 -1.2995
  649TIP3   OH223505   0.498   4.213   7.885  0.1656 -0.0601  0.3240
  649TIP3    H123506   0.459   4.137   7.929  0.8780 -0.2372  0.6619
  649TIP3    H223507   0.523   4.180   7.799 -1.1679  0.2688 -0.2098
  650TIP3   OH223508   6.715   2.030   3.150  0.3369 -0.1685 -0.2637
  650TIP3    H123509   6.631   2.008   3.189  0.1686  0.7381 -0.0952
  650TIP3    H223510   6.712   2.125   3.138  1.4971 -0.0686  0.1334
  651TIP3   OH223511   5.348   3.899   8.084 -0.0001 -0.5028 -0.0251
  651TIP3    H123512   5.344   3.806   8.109 -0.8071 -0.4164  0.1927
  651TIP3    H223513   5.274   3.939   8.129 -1.4067 -0.2917 -2.4154
  652TIP3   OH223514   2.563   6.342   2.945  0.3468  0.3235 -0.2668
  652TIP3    H123515   2.519   6.383   3.020 -0.5825 -1.6536  0.3167
  652TIP3    H223516   2.547   6.402   2.873 -0.8162  1.0863  0.5804
  653TIP3   OH223517   1.713   6.553   1.492 -0.4060  0.6577 -0.0886
  653TIP3    H123518   1.664   6.616   1.439  0.5117  0.0190 -1.7981
  653TIP3    H223519   1.804   6.584   1.488 -0.1647 -0.0027  0.1967
  654TIP3   OH223520   3.892   3.640   0.505 -0.3541  0.0881 -0.1787
  654TIP3    H123521   3.878   3.546   0.494  0.6899  0.0082 -0.8747
  654TIP3    H223522   3.837   3.681   0.438  0.7878 -0.1268 -1.2780
  655TIP3   OH223523   6.849   4.518   2.993  0.4628  0.2290  0.1712
  655TIP3    H123524   6.917   4.584   3.003  0.6035  0.1596 -0.3035
  655TIP3    H223525   6.817   4.529   2.904 -2.1130  2.1266  1.2108
  656TIP3   OH223526   4.531   1.168   7.525 -0.1607 -0.2389  0.5430
  656TIP3    H123527   4.605   1.152   7.585  0.4250  0.0600 -0.0907
  656TIP3    H223528   4.554   1.248   7.479 -0.4483 -0.6407 -0.3214
  657TIP3   OH223529   4.291   6.872   2.224 -0.1770 -0.0284  0.1189
  657TIP3    H123530   4.261   6.781   2.222  0.6587 -0.3281  0.7620
  657TIP3    H223531   4.224   6.919   2.274 -1.4303  0.0424 -1.5321
  658TIP3   OH223532   1.082   5.133   7.869  0.3601 -0.3235 -0.3031
  658TIP3    H123533   1.007   5.104   7.818  1.5062  1.0713 -2.9671
  658TIP3    H223534   1.091   5.067   7.939 -3.0917 -0.6617 -0.0419
  659TIP3   OH223535   4.384   6.123   1.523 -0.1790 -0.6715 -0.4403
  659TIP3    H123536   4.323   6.183   1.566  2.1816  1.7212 -0.2073
  659TIP3    H223537   4.373   6.142   1.429  1.5178  1.2825 -0.3192
  660TIP3   OH223538   6.435   5.595   1.020 -0.0149 -0.0295  0.6641
  660TIP3    H123539   6.515   5.588   0.969 -0.3459  0.3456  0.0759
  660TIP3    H223540   6.391   5.673   0.985 -0.7449 -0.3617  0.8157
  661TIP3   OH223541   1.708   3.613   0.872  0.7972 -0.3584 -0.2470
  661TIP3    H123542   1.698   3.518   0.867 -0.0851 -0.4072  1.5556
  661TIP3    H223543   1.753   3.628   0.955  1.2113  0.8070 -0.6574
  662TIP3   OH223544   4.243   3.859   7.656  0.0748 -0.1896 -0.3557
  662TIP3    H123545   4.222   3.834   7.566 -0.4948 -0.9246 -0.0289
  662TIP3    H223546   4.223   3.781   7.708  1.5978 -0.2136  0.2628
  663TIP3   OH223547   4.196   0.262   1.815 -0.1880  0.3472  0.2805
  663TIP3    H123548   4.228   0.182   1.772 -0.1570  1.0861 -1.1360
  663TIP3    H223549   4.101   0.260   1.803 -0.1805  0.5561  0.1812
  664TIP3   OH223550   0.190   5.554   0.261  0.5204  0.2229  0.0004
  664TIP3    H123551   0.151   5.585   0.343  0.4976 -0.2960  0.1944
  664TIP3    H223552   0.231   5.631   0.223 -0.6467  0.7598 -0.1836
  665TIP3   OH223553   0.876   0.413   1.026 -0.4305 -0.5050  0.5697
  665TIP3    H123554   0.924   0.332   1.035 -0.4063 -0.6704 -0.8240
  665TIP3    H223555   0.936   0.472   0.980 -1.1235 -0.3401 -0.1521
  666TIP3   OH223556   3.871   5.204   7.527 -0.0228  0.4704 -0.0291
  666TIP3    H123557   3.807   5.261   7.484 -1.5798 -0.2259  1.2405
  666TIP3    H223558   3.853   5.117   7.491  0.9289  0.4171 -0.4068
  667TIP3   OH223559   4.655   2.571   0.798  0.1766  0.5020  0.3856
  667TIP3    H123560   4.565   2.578   0.830 -0.2789 -0.0233 -0.7271
  667TIP3    H223561   4.679   2.480   0.813 -0.2799  0.0710 -1.2995
  668TIP3   OH223562   0.355   5.667   2.335 -0.2403 -0.3206  1.0837
  668TIP3    H123563   0.406   5.725   2.392  2.2499 -1.3013  0.0122
  668TIP3    H223564   0.296   5.725   2.288  1.1642  1.1798  1.0711
  669TIP3   OH223565   4.141   0.193   1.043 -0.0962 -0.7811 -0.2701
  669TIP3    H123566   4.110   0.103   1.049  1.3364 -1.3274 -0.6690
  669TIP3    H223567   4.171   0.214   1.132 -1.4535 -0.2893  0.0900
  670TIP3   OH223568   5.728   3.198   3.334  0.0221  0.7007 -0.6221
  670TIP3    H123569   5.808   3.230   3.378 -0.5574  1.2093  0.0864
  670TIP3    H223570   5.749   3.108   3.311  0.9296  0.9291 -0.7527
  671TIP3   OH223571   6.388   6.145   3.185  0.1663 -0.0793  0.4621
  671TIP3    H123572   6.455   6.083   3.154  1.6481  1.2371  0.8597
  671TIP3    H223573   6.342   6.098   3.254  0.6134 -1.0666  0.1138
  672TIP3   OH223574   6.640   1.640   8.223 -0.2328  0.0434  0.3665
  672TIP3    H123575   6.668   1.564   8.172 -2.5540  0.9857 -2.5645
  672TIP3    H223576   6.554   1.616   8.257 -0.2085  0.7339  0.9538
  673TIP3   OH223577   3.744   5.709   0.837  0.4115 -0.1332 -0.1891
  673TIP3    H123578   3.831   5.697   0.874  1.2819  1.2312 -1.6545
  673TIP3    H223579   3.760   5.730   0.745 -1.3357  2.0699 -0.0791
  674TIP3   OH223580   1.094   1.111   2.370 -0.6056 -0.2190 -0.2004
  674TIP3    H123581   1.023   1.129   2.308 -2.6505 -1.1050  1.7206
  674TIP3    H223582   1.061   1.143   2.454  1.4538 -0.3340  0.7200
  675TIP3   OH223583   1.595   5.569   7.967 -0.4776 -0.0723  0.5012
  675TIP3    H123584   1.573   5.476   7.970 -0.4944 -0.0776  0.2366
  675TIP3    H223585   1.607   5.594   8.059 -0.4435 -0.3419  0.5712
  676TIP3   OH223586   3.421   0.599   2.436 -0.1886 -0.2180  0.0097
  676TIP3    H123587   3.363   0.548   2.491 -0.4942 -0.5032 -0.5782
  676TIP3    H223588   3.475   0.648   2.498 -1.5284  0.6041  0.5659
  677TIP3   OH223589   4.337   6.768   1.022 -0.1666 -0.1786 -0.4776
  677TIP3    H123590   4.360   6.731   0.937  2.1628 -1.8586  0.7715
  677TIP3    H223591   4.416   6.812   1.052 -1.4425  1.8042  0.1894
  678TIP3   OH223592   0.009   3.213   3.170  0.3292 -0.1731  0.0145
  678TIP3    H123593   0.075   3.281   3.185 -0.7871  0.8716  0.3551
  678TIP3    H223594  -0.068   3.260   3.139  0.2998 -1.5692 -2.2583
  679TIP3   OH223595   5.928   6.530   7.451  0.4998 -0.6271  0.0343
  679TIP3    H123596   5.852   6.531   7.393 -0.3366  0.7028  1.0948
  679TIP3    H223597   5.923   6.613   7.499  2.8189 -0.3205 -0.1186
  680TIP3   OH223598   5.581   6.239   7.775  0.1527  0.4058 -0.2039
  680TIP3    H123599   5.653   6.260   7.716 -1.6321  0.8596 -2.3708
  680TIP3    H223600   5.560   6.148   7.756  0.4928  0.0962  0.8404
  681TIP3   OH223601   6.707   0.364   7.501  0.1449  0.0541  0.4468
  681TIP3    H123602   6.639   0.361   7.433  0.0265 -1.6821  0.5997
  681TIP3    H223603   6.660   0.384   7.582 -0.0604 -0.2807  0.4099
  682TIP3   OH223604   5.759   6.411   0.704  0.8440  0.2429  0.5122
  682TIP3    H123605   5.681   6.459   0.675  1.2680  0.2925 -0.6194
  682TIP3    H223606   5.735   6.375   0.789 -0.2700  0.5920  0.3675
  683TIP3   OH223607   2.565   3.695   0.394 -0.2251 -0.2560  0.2200
  683TIP3    H123608   2.620   3.620   0.419  0.3993  0.2088  0.2623
  683TIP3    H223609   2.487   3.655   0.355  0.9734 -0.9134 -1.6435
  684TIP3   OH223610   4.494   6.903   8.386  0.9015 -0.1563 -0.1547
  684TIP3    H123611   4.480   6.813   8.414  1.1673  0.0625  0.7407
  684TIP3    H223612   4.434   6.916   8.313 -0.4877 -0.5055  0.8860
  685TIP3   OH223613   2.998   0.036   7.045 -0.3765 -0.1712  0.2782
  685TIP3    H123614   2.913   0.069   7.015 -1.1121 -0.2620  2.1448
  685TIP3    H223615   3.002  -0.054   7.011 -0.5092  0.2031 -0.7595
  686TIP3   OH223616   2.242   2.353   2.648 -0.3481  0.4121  0.0243
  686TIP3    H123617   2.262   2.357   2.742  3.7095 -0.6300 -0.5762
  686TIP3    H223618   2.206   2.266   2.635 -1.0175  0.5934  0.6022
  687TIP3   OH223619   2.500   0.511   1.061  0.1247 -0.2267 -0.4818
  687TIP3    H123620   2.498   0.541   1.152  1.6106 -1.8211  0.1241
  687TIP3    H223621   2.549   0.579   1.015 -0.9876  0.8004 -0.2039
  688TIP3   OH223622   4.608   3.174   2.936  0.2148  0.8950  0.1095
  688TIP3    H123623   4.623   3.263   2.967 -1.0259  1.6525 -1.3470
  688TIP3    H223624   4.549   3.184   2.861  0.6790 -1.0872 -0.5816
  689TIP3   OH223625   3.353   2.996   2.047  0.4308  0.0914 -0.2940
  689TIP3    H123626   3.363   3.091   2.048  0.3208  0.1123  1.6416
  689TIP3    H223627   3.441   2.963   2.025  1.1567  0.6129  1.6371
  690TIP3   OH223628   1.311   3.583   1.607  0.2407  0.0600  0.3483
  690TIP3    H123629   1.353   3.497   1.609  2.1332  0.9233 -0.1088
  690TIP3    H223630   1.354   3.632   1.678  0.0630  1.0062 -0.1874
  691TIP3   OH223631   2.692   1.980   8.187  0.0601 -0.1314 -0.4903
  691TIP3    H123632   2.718   1.912   8.125  2.8329 -1.0133  1.4348
  691TIP3    H223633   2.673   1.933   8.268  1.1977  1.2860  0.6426
  692TIP3   OH223634   6.079   1.534   8.357  0.0569  0.2870  0.3673
  692TIP3    H123635   6.072   1.489   8.272 -0.4991  1.9152 -0.4961
  692TIP3    H223636   5.999   1.587   8.362 -0.1488 -0.1372  2.1473
  693TIP3   OH223637   2.443   6.006   2.429  0.1080  0.6766 -0.5856
  693TIP3    H123638   2.465   6.045   2.514 -0.5838  0.2612 -0.2149
  693TIP3    H223639   2.517   6.030   2.372  2.2253 -1.7582  0.9371
  694TIP3   OH223640   3.842   1.030   0.191  0.5222 -0.5237  0.0500
  694TIP3    H123641   3.803   1.003   0.108  2.2309  1.5486 -1.5707
  694TIP3    H223642   3.769   1.032   0.253 -0.9695 -1.3618 -1.5915
  695TIP3   OH223643   1.480   4.245   7.657 -0.0802 -0.3324  0.1201
  695TIP3    H123644   1.482   4.149   7.665 -1.5439 -0.4701 -0.7979
  695TIP3    H223645   1.572   4.271   7.659  0.3985 -1.8447 -0.4997
  696TIP3   OH223646   5.697   3.323   1.886 -0.2392 -0.0359 -0.1979
  696TIP3    H123647   5.605   3.334   1.909  0.0570  0.5480  0.7509
  696TIP3    H223648   5.701   3.346   1.793 -1.4410 -2.3327 -0.9101
  697TIP3   OH223649   3.626   6.295   7.882  0.0454 -0.4620  0.4561
  697TIP3    H123650   3.545   6.264   7.840  0.0346 -1.3816  1.1171
  697TIP3    H223651   3.696   6.263   7.825 -0.0473  0.9042 -0.4811
  698TIP3   OH223652   0.743   5.829   0.270 -0.4727  0.1195 -0.0673
  698TIP3    H123653   0.809   5.786   0.216 -0.7805 -2.2790  1.2791
  698TIP3    H223654   0.785   5.839   0.355 -0.6524  2.0068 -0.1676
  699TIP3   OH223655   2.573   2.310   0.763 -0.3140  0.0737  0.0878
  699TIP3    H123656   2.603   2.220   0.748 -0.4890 -0.3651  2.1364
  699TIP3    H223657   2.497   2.319   0.705 -2.0617 -2.1305  1.8659
  700TIP3   OH223658   2.156   0.522   7.513 -0.3674  0.1033  0.8562
  700TIP3    H123659   2.234   0.466   7.510  0.1019  0.7911 -1.2061
  700TIP3    H223660   2.185   0.605   7.474 -1.9006  0.6874  0.8990
  701TIP3   OH223661   4.762   5.024   2.323  0.5199  0.3937  0.2054
  701TIP3    H123662   4.842   4.971   2.326  0.9235  1.0297  1.2157
  701TIP3    H223663   4.693   4.962   2.299  0.8924 -0.7114  1.8316
  702TIP3   OH223664   3.391   0.002   1.583  0.2964 -0.3717 -0.3401
  702TIP3    H123665   3.372  -0.058   1.655 -0.2549 -1.7768 -1.5870
  702TIP3    H223666   3.310   0.053   1.573  0.2878 -0.3400 -0.1118
  703TIP3   OH223667   4.720   5.090   7.999 -0.0502 -0.0049 -0.2559
  703TIP3    H123668   4.695   5.044   7.919 -1.2211 -0.7805  0.5157
  703TIP3    H223669   4.795   5.042   8.033 -2.2093 -2.4868  1.3878
  704TIP3   OH223670   2.033   6.519   0.822  0.0932  0.3413 -0.3677
  704TIP3    H123671   1.973   6.502   0.895  2.1515 -0.7189  1.1887
  704TIP3    H223672   2.070   6.605   0.842  0.4142  0.1979 -0.3529
  705TIP3   OH223673   5.290   2.533   7.440  0.5003 -0.0647 -0.4948
  705TIP3    H123674   5.207   2.548   7.485  0.8428  0.1207  0.0753
  705TIP3    H223675   5.332   2.463   7.489 -0.0467 -1.3421 -1.7573
  706TIP3   OH223676   4.485   4.035   0.708  0.2086  0.1790 -0.2643
  706TIP3    H123677   4.474   3.953   0.757  1.1836 -0.2672 -0.7617
  706TIP3    H223678   4.441   4.101   0.761 -0.0275 -0.5601  0.4724
  707TIP3   OH223679   5.344   5.306   2.440 -0.3157 -0.0906 -0.8954
  707TIP3    H123680   5.309   5.392   2.463  0.0213  0.0277 -0.8282
  707TIP3    H223681   5.394   5.321   2.360  0.6001 -0.0293 -0.3175
  708TIP3   OH223682   1.942   6.870   8.323  0.0953  0.1729 -0.2857
  708TIP3    H123683   2.000   6.930   8.276 -0.1515 -0.2372 -1.1254
  708TIP3    H223684   2.001   6.816   8.376  0.4111  0.3252 -0.4805
  709TIP3   OH223685   0.734   2.005   6.981  0.4164 -0.2328 -0.2441
  709TIP3    H123686   0.708   2.065   6.911  1.8124  0.8866  0.1579
  709TIP3    H223687   0.782   2.060   7.043 -1.7366 -0.9303  2.2033
  710TIP3   OH223688   1.100   0.647   8.064  0.2553 -0.3126 -0.4975
  710TIP3    H123689   1.056   0.728   8.037  2.8332  1.4324  0.1871
  710TIP3    H223690   1.037   0.578   8.042 -1.3678  1.6785 -2.7473
  711TIP3   OH223691   1.644   1.065   1.345  0.3189 -0.4950 -0.4219
  711TIP3    H123692   1.706   1.102   1.282  0.4782  0.0194  0.0290
  711TIP3    H223693   1.669   1.102   1.429 -1.3044  0.6784 -0.3974
  712TIP3   OH223694   6.672   6.392   2.585 -0.2486  0.1929 -0.0050
  712TIP3    H123695   6.694   6.321   2.525  0.1306  0.6569 -0.4192
  712TIP3    H223696   6.725   6.373   2.663 -1.5818 -1.0354  0.6517
  713TIP3   OH223697   1.939   2.729   1.345  0.6334 -0.3267 -0.9109
  713TIP3    H123698   1.882   2.711   1.270 -0.4435 -0.8599  0.0030
  713TIP3    H223699   1.899   2.680   1.417  0.6302  1.5544  0.4429
  714TIP3   OH223700   0.496   6.847   7.925 -0.1877 -0.3676 -0.7931
  714TIP3    H123701   0.546   6.912   7.875 -0.0918 -0.8911 -1.3902
  714TIP3    H223702   0.438   6.806   7.860 -0.0414 -1.0738 -0.4910
  715TIP3   OH223703   6.004   1.014   7.236  0.2978 -0.4890 -0.2226
  715TIP3    H123704   6.097   1.020   7.255  0.3416 -1.3056 -0.1233
  715TIP3    H223705   5.990   1.070   7.160  0.4924  1.2507  0.9659
  716TIP3   OH223706   3.563   2.044   7.270  0.3101  0.2180  0.1746
  716TIP3    H123707   3.553   1.963   7.220 -0.5763 -0.3216  1.1847
  716TIP3    H223708   3.658   2.058   7.274  0.4220  0.2776 -1.6101
  717TIP3   OH223709   4.053   5.126   0.839 -0.4254 -0.1297  0.3373
  717TIP3    H123710   4.139   5.098   0.808 -0.6841 -0.3689 -0.1651
  717TIP3    H223711   4.039   5.211   0.797 -1.3469 -1.0408 -1.2951
  718TIP3   OH223712   3.595   0.762   1.671 -0.4916  0.0157 -0.4218
  718TIP3    H123713   3.566   0.709   1.597  0.6540 -0.1909 -0.7329
  718TIP3    H223714   3.515   0.805   1.702 -0.6846  1.8222 -3.1333
  719TIP3   OH223715   4.433   6.631   8.400 -0.3514  0.0721  0.1165
  719TIP3    H123716   4.483   6.566   8.450  0.5519  1.0451  0.5162
  719TIP3    H223717   4.354   6.646   8.453 -0.6496 -0.8016 -0.0626
  720TIP3   OH223718   6.188   4.878   0.519  0.0593  0.0427 -0.1480
  720TIP3    H123719   6.115   4.819   0.500 -0.6987  1.6196 -2.5698
  720TIP3    H223720   6.260   4.845   0.465 -0.1688  0.8573 -0.9893
  721TIP3   OH223721   0.658   1.891   2.145  0.3520  1.0972  0.0846
  721TIP3    H123722   0.752   1.892   2.130  0.1067  2.1905 -1.7097
  721TIP3    H223723   0.633   1.799   2.140  1.1827  0.8966 -0.4804
  722TIP3   OH223724   5.319   1.216   0.552  0.3764  0.2896  0.6532
  722TIP3    H123725   5.340   1.226   0.460 -0.5008  2.9580  0.6709
  722TIP3    H223726   5.403   1.223   0.598  0.7866 -0.8459  0.1244
  723TIP3   OH223727   3.617   5.950   7.360  0.5558 -0.1841 -0.4274
  723TIP3    H123728   3.699   5.972   7.317 -0.1990  1.9262 -0.9085
  723TIP3    H223729   3.549   5.987   7.304 -0.7490 -1.8173 -0.0162
  724TIP3   OH223730   5.656   6.777   7.697 -0.0217  0.6212 -0.0683
  724TIP3    H123731   5.598   6.845   7.663  0.3264  1.0834  0.2447
  724TIP3    H223732   5.729   6.774   7.635 -0.0686  0.4838 -0.1179
  725TIP3   OH223733   0.223   4.373   2.804  0.1559  0.0055 -0.5128
  725TIP3    H123734   0.149   4.424   2.770  1.9436  2.3710 -1.1423
  725TIP3    H223735   0.184   4.314   2.868 -2.1235  2.0061  0.0970
  726TIP3   OH223736   3.415   5.602   1.137 -0.5845  0.3255  0.9475
  726TIP3    H123737   3.350   5.539   1.170  0.8574 -0.9104  1.5705
  726TIP3    H223738   3.446   5.647   1.216  0.1282  0.0820  0.8099
  727TIP3   OH223739   2.159   6.935   1.522  0.3497  0.0077  0.1141
  727TIP3    H123740   2.102   7.005   1.488  0.1458 -0.2633 -0.1072
  727TIP3    H223741   2.230   6.929   1.458  0.1473 -0.2673 -0.0905
  728TIP3   OH223742   4.885   1.718   2.008 -0.6360 -0.0919  0.8622
  728TIP3    H123743   4.967   1.669   2.009 -0.1400  0.6175 -1.0646
  728TIP3    H223744   4.831   1.673   1.942 -0.8498  0.8881  0.3556
  729TIP3   OH223745   4.312   2.344   0.921 -0.3396 -0.4619  0.1444
  729TIP3    H123746   4.246   2.336   0.989  0.7071 -1.1689  1.1103
  729TIP3    H223747   4.267   2.320   0.840 -1.3193 -0.6549  0.7356
  730TIP3   OH223748   3.598   2.872   1.559  0.0970  0.2637 -0.0331
  730TIP3    H123749   3.676   2.828   1.525  1.1573  1.5948  0.5911
  730TIP3    H223750   3.527   2.808   1.547  1.4643 -1.3979  0.3647
  731TIP3   OH223751   4.898   4.921   1.983  0.2183  0.1771 -0.0957
  731TIP3    H123752   4.990   4.948   1.995  1.0140 -1.1125 -2.5567
  731TIP3    H223753   4.894   4.834   2.021 -0.7683  1.2233  2.4013
  732TIP3   OH223754   0.154   1.762   1.071  0.0270 -0.0172 -0.3019
  732TIP3    H123755   0.206   1.729   1.144  1.8673  3.5589  0.1957
  732TIP3    H223756   0.087   1.816   1.112 -0.1284  0.4922 -1.1995
  733TIP3   OH223757   5.948   5.214   0.885 -0.2312  0.3041 -0.0472
  733TIP3    H123758   6.025   5.158   0.872  0.5866  1.7457 -1.8089
  733TIP3    H223759   5.951   5.277   0.813 -2.5000  1.0705  0.4421
  734TIP3   OH223760   5.261   4.736   8.139  0.3078  0.1975  0.7365
  734TIP3    H123761   5.221   4.659   8.179  0.7099 -1.2000 -1.3771
  734TIP3    H223762   5.354   4.729   8.162 -0.0766  1.8374  3.1615
  735TIP3   OH223763   5.835   1.645   8.328 -0.2257 -0.1494  0.8748
  735TIP3    H123764   5.809   1.680   8.243 -0.6016 -2.4200 -0.0314
  735TIP3    H223765   5.798   1.556   8.329  0.5694 -0.5071  3.0245
  736TIP3   OH223766   0.275   2.003   1.663 -0.4255 -0.1924  0.2686
  736TIP3    H123767   0.205   2.037   1.608  0.3529  1.4475  0.2428
  736TIP3    H223768   0.234   1.987   1.748 -1.4304 -1.9098 -0.4729
  737TIP3   OH223769   3.899   0.591   7.612  0.1933  0.0683 -0.3034
  737TIP3    H123770   3.860   0.535   7.545 -0.3541  0.6183 -0.4494
  737TIP3    H223771   3.993   0.580   7.601  0.1959 -2.9261  1.3805
  738TIP3   OH223772   1.278   3.075   7.469 -0.3748 -0.4080  0.3363
  738TIP3    H123773   1.187   3.087   7.442 -0.5853 -0.7290  0.8810
  738TIP3    H223774   1.328   3.075   7.387 -0.4117  3.2573  0.1576
  739TIP3   OH223775   5.158   2.116   1.983  0.3015  0.5294  0.2740
  739TIP3    H123776   5.155   2.174   1.907 -1.9982  1.6457  1.1188
  739TIP3    H223777   5.234   2.145   2.033  0.0026  1.9154 -0.0348
  740TIP3   OH223778   0.925   4.240   0.191  0.0564  0.0483  0.0661
  740TIP3    H123779   0.985   4.248   0.266  0.5475 -1.1928 -0.1747
  740TIP3    H223780   0.839   4.224   0.231  0.6885 -3.0974  0.4204
  741TIP3   OH223781   4.881   6.278   0.882  0.8330  0.0550  0.5263
  741TIP3    H123782   4.873   6.270   0.787 -1.0972 -2.2094  0.8007
  741TIP3    H223783   4.812   6.340   0.907  0.1456 -0.7284  0.5987
  742TIP3   OH223784   2.703   2.056   7.723 -0.2567  0.5209  0.0292
  742TIP3    H123785   2.720   1.962   7.729 -1.8334  0.2145  0.0662
  742TIP3    H223786   2.723   2.078   7.632  0.2613  0.1891  0.0592
  743TIP3   OH223787   0.557   0.890   1.492  0.5427  0.2274  0.2449
  743TIP3    H123788   0.532   0.799   1.474  0.1277  0.4601 -0.4033
  743TIP3    H223789   0.474   0.937   1.499  0.6671  0.2380  2.5274
  744TIP3   OH223790   1.338   2.162   0.984 -0.1733  0.3236 -0.3473
  744TIP3    H123791   1.243   2.160   0.977 -0.2997  0.6557  1.0307
  744TIP3    H223792   1.363   2.246   0.945 -0.7976  1.8992  2.3583
  745TIP3   OH223793   1.101   5.654   7.683 -0.4337 -0.1864  0.2092
  745TIP3    H123794   1.155   5.585   7.722  0.0057  0.2449  0.3771
  745TIP3    H223795   1.032   5.669   7.746  0.4948  0.7826  1.0324
  746TIP3   OH223796   1.513   4.813   1.866  0.1961 -0.0402 -0.4891
  746TIP3    H123797   1.536   4.904   1.885  1.8468 -0.6175  0.4615
  746TIP3    H223798   1.449   4.790   1.934  2.2114 -0.5147  1.3612
  747TIP3   OH223799   6.766   5.212   0.440 -0.5221 -0.0501  0.4669
  747TIP3    H123800   6.718   5.249   0.366  3.0141  4.2159 -0.1046
  747TIP3    H223801   6.724   5.250   0.517 -1.7435 -1.3624  0.5056
  748TIP3   OH223802   0.864   2.052   8.227  0.5907  0.6824 -0.0337
  748TIP3    H123803   0.906   2.108   8.293  1.9410  0.6516 -0.8364
  748TIP3    H223804   0.771   2.055   8.249  1.0867 -0.1077  2.4531
  749TIP3   OH223805   2.702   6.438   8.028  0.2572 -0.4448  0.0534
  749TIP3    H123806   2.708   6.532   8.008  0.8328  0.0510  2.2728
  749TIP3    H223807   2.681   6.397   7.944 -0.3964  1.7018 -0.9153
  750TIP3   OH223808   3.926   1.575   0.653 -0.0852  0.3464  0.3435
  750TIP3    H123809   4.014   1.558   0.619 -0.0488  0.3556  0.4329
  750TIP3    H223810   3.888   1.635   0.590 -0.2161 -0.0678  0.0199
  751TIP3   OH223811   2.066   0.137   7.949 -0.1310 -0.2943  0.0684
  751TIP3    H123812   2.027   0.188   7.879 -0.7894 -1.5399 -0.5059
  751TIP3    H223813   2.108   0.063   7.905 -1.7148 -1.8428  1.0230
  752TIP3   OH223814   5.807   6.749   1.124  0.6999 -0.4957 -0.0695
  752TIP3    H123815   5.730   6.762   1.069  0.2751 -1.7988  0.1618
  752TIP3    H223816   5.771   6.722   1.209  1.3899 -0.0940  0.3624
  753TIP3   OH223817   6.501   4.745   7.537  0.4657 -0.3221  0.5345
  753TIP3    H123818   6.591   4.742   7.502 -0.0405  0.9417 -1.0045
  753TIP3    H223819   6.445   4.735   7.460 -0.7210 -0.0618  1.3355
  754TIP3   OH223820   1.810   0.481   2.440  0.2398 -0.4503 -0.6134
  754TIP3    H123821   1.824   0.432   2.522 -0.2575 -0.7072 -0.6748
  754TIP3    H223822   1.889   0.465   2.389  1.9459  2.1206  0.9767
  755TIP3   OH223823   1.573   5.305   1.301 -0.1820  0.2052  0.1766
  755TIP3    H123824   1.528   5.226   1.270 -0.2071  0.4414 -0.4022
  755TIP3    H223825   1.503   5.368   1.315 -0.1589  0.1336  0.6178
  756TIP3   OH223826   2.900   6.505   1.539 -0.3617  0.1496  0.9379
  756TIP3    H123827   2.900   6.568   1.611  1.2481  1.9134 -0.5000
  756TIP3    H223828   2.872   6.556   1.462  3.9064  0.1155 -0.9263
  757TIP3   OH223829   4.103   3.807   1.747  0.4461  0.1131 -0.4637
  757TIP3    H123830   4.176   3.860   1.779 -0.5786  0.8378  0.7461
  757TIP3    H223831   4.051   3.868   1.695 -0.5856  0.2482  0.7009
  758TIP3   OH223832   0.379   6.547   0.018  0.1807 -0.0789 -0.3530
  758TIP3    H123833   0.328   6.622   0.048 -0.5551 -0.2044 -1.2478
  758TIP3    H223834   0.446   6.535   0.086 -1.0743 -0.0202  0.9516
  759TIP3   OH223835   1.610   2.806   7.389 -0.3045  0.0381  0.1662
  759TIP3    H123836   1.668   2.825   7.315 -1.7353  0.9599 -0.7592
  759TIP3    H223837   1.533   2.765   7.350 -1.3533  1.1029  1.0265
  760TIP3   OH223838   2.996   0.748   1.458  0.0147  0.0589  0.7356
  760TIP3    H123839   3.066   0.698   1.416  0.3699 -0.3862  1.8096
  760TIP3    H223840   2.924   0.685   1.465 -0.2614  0.3149  0.2513
  761TIP3   OH223841   6.037   0.355   8.196 -0.2601  0.2288  0.1761
  761TIP3    H123842   6.030   0.371   8.102  1.3582 -1.1458 -0.2323
  761TIP3    H223843   6.032   0.260   8.204  1.3165  0.2082  1.2865
  762TIP3   OH223844   1.360   6.033   2.189  0.4571  0.2130 -0.2198
  762TIP3    H123845   1.303   6.110   2.187 -1.6454 -1.1618  1.5478
  762TIP3    H223846   1.448   6.070   2.194 -0.4381  2.5175  0.3027
  763TIP3   OH223847   0.342   5.764   1.440  0.0900  0.8045 -0.4151
  763TIP3    H123848   0.432   5.797   1.433  0.5436 -0.5303 -1.1981
  763TIP3    H223849   0.289   5.843   1.453  1.2592  1.7060 -0.8860
  764TIP3   OH223850   1.342   6.183   8.285  0.0546 -0.2062 -0.5912
  764TIP3    H123851   1.249   6.205   8.281  0.1597  0.1400 -2.8636
  764TIP3    H223852   1.385   6.262   8.316 -0.2505  0.3850 -1.6161
  765TIP3   OH223853   0.458   1.470   0.190 -0.4670  0.2409 -0.5194
  765TIP3    H123854   0.535   1.500   0.240 -0.5836  1.2191 -0.9065
  765TIP3    H223855   0.487   1.390   0.148 -0.1648 -0.2641  0.6154
  766TIP3   OH223856   1.873   1.185   1.866  0.2631 -0.1644  0.0482
  766TIP3    H123857   1.785   1.221   1.874 -0.3544 -1.3058 -1.2233
  766TIP3    H223858   1.884   1.133   1.946 -0.5462 -0.6594 -0.1466
  767TIP3   OH223859   4.888   0.175   2.594 -0.1353  0.7015  0.2642
  767TIP3    H123860   4.896   0.112   2.665 -0.2904  0.9243  0.4818
  767TIP3    H223861   4.862   0.257   2.637  0.3693  0.9944  0.0220
  768TIP3   OH223862   3.119   4.942   7.855  0.2638 -0.2910 -0.0717
  768TIP3    H123863   3.152   4.883   7.923  1.2075  1.6645  1.2813
  768TIP3    H223864   3.195   4.996   7.832 -0.4658  0.1593 -1.5314
  769TIP3   OH223865   1.216   0.244   0.136 -0.0849  0.2698 -0.7098
  769TIP3    H123866   1.220   0.192   0.056 -0.6748 -1.6666  0.4621
  769TIP3    H223867   1.138   0.211   0.182  0.0708  1.5402  0.5383
  770TIP3   OH223868   6.787   5.047   1.176  0.2282 -0.1930  0.0002
  770TIP3    H123869   6.825   5.135   1.182 -1.7057  0.5776  2.7691
  770TIP3    H223870   6.805   5.007   1.260  0.8542 -2.4145 -1.1348
  771TIP3   OH223871   5.233   4.366   1.418  0.4322 -0.2084  1.0161
  771TIP3    H123872   5.147   4.333   1.446  0.2720 -1.6677 -0.9553
  771TIP3    H223873   5.212   4.444   1.366  0.4533  0.4119  1.9218
  772TIP3   OH223874   2.826   1.267   7.728  0.4332  0.4796  0.5350
  772TIP3    H123875   2.914   1.230   7.723  0.2197 -0.1280  1.2227
  772TIP3    H223876   2.778   1.208   7.786  0.0984  1.8729  1.7226
  773TIP3   OH223877   3.664   5.668   7.382  0.0315  0.0526  0.3960
  773TIP3    H123878   3.637   5.757   7.407 -1.6316 -0.6337  1.1505
  773TIP3    H223879   3.585   5.615   7.392  1.1966 -1.6903  0.7838
  774TIP3   OH223880   5.926   5.436   2.909 -0.2982 -0.4332  0.3417
  774TIP3    H123881   5.955   5.374   2.976 -0.7836  1.5566  2.5321
  774TIP3    H223882   5.837   5.408   2.887  0.5879 -2.3655 -1.1903
  775TIP3   OH223883   2.351   1.024   1.421  0.2444  0.4629 -0.1359
  775TIP3    H123884   2.356   1.120   1.423  0.1551  0.4611  0.2173
  775TIP3    H223885   2.429   0.995   1.468 -0.0639  0.3708  0.3271
  776TIP3   OH223886   1.112   2.978   1.500  0.5928 -0.4467  0.0325
  776TIP3    H123887   1.177   2.914   1.528 -1.6972 -2.5689  0.8529
  776TIP3    H223888   1.040   2.926   1.465 -0.5138  1.8074 -1.2659
  777TIP3   OH223889   1.255   6.723   0.250 -0.0961  0.0378  0.5094
  777TIP3    H123890   1.296   6.791   0.196  0.0061 -0.8452 -0.5804
  777TIP3    H223891   1.232   6.767   0.331 -0.0709  1.3835 -0.1823
  778TIP3   OH223892   1.681   2.344   1.181  0.2697  0.2140  0.5235
  778TIP3    H123893   1.658   2.435   1.162  1.6017  0.5848  0.5767
  778TIP3    H223894   1.612   2.314   1.240 -1.7082  0.3156 -1.5644
  779TIP3   OH223895   6.596   1.315   7.907  0.5095 -0.0706 -0.1173
  779TIP3    H123896   6.638   1.313   7.993  0.3278  0.7888  0.0056
  779TIP3    H223897   6.594   1.224   7.878  1.2552 -0.2728  0.4560
  780TIP3   OH223898   6.673   1.959   2.731 -0.0387  0.1340 -0.1809
  780TIP3    H123899   6.683   2.010   2.650 -1.5283  0.8494  0.0427
  780TIP3    H223900   6.581   1.972   2.756  0.3041 -0.3465  1.4437
  781TIP3   OH223901   5.481   2.439   7.208  0.0812 -0.0069  0.0978
  781TIP3    H123902   5.389   2.423   7.189  0.6979 -0.1029 -3.5850
  781TIP3    H223903   5.522   2.353   7.207  0.4662  0.1724  0.0798
  782TIP3   OH223904   3.578   3.359   2.629  0.6230 -0.2980 -0.6259
  782TIP3    H123905   3.566   3.272   2.590 -0.2532 -0.5821  0.2504
  782TIP3    H223906   3.589   3.343   2.722  0.2302  0.5509 -0.4248
  783TIP3   OH223907   4.170   1.589   8.165  0.0361 -0.2929 -0.0044
  783TIP3    H123908   4.253   1.554   8.135  0.4481  0.9446 -0.3927
  783TIP3    H223909   4.152   1.663   8.106 -0.1040  0.9883  1.5549
  784TIP3   OH223910   4.479   3.492   0.705 -0.2572  0.2351 -0.2795
  784TIP3    H123911   4.407   3.430   0.707  1.0633 -1.4236 -1.3293
  784TIP3    H223912   4.477   3.529   0.617 -0.1994  0.6511 -0.1092
  785TIP3   OH223913   4.835   5.679   2.302  0.0525 -0.0505 -0.1396
  785TIP3    H123914   4.908   5.639   2.350 -0.8176 -1.4537  0.0517
  785TIP3    H223915   4.763   5.618   2.312 -1.1255  1.2296 -0.4835
  786TIP3   OH223916   2.070   4.866   1.835  1.0446 -0.6739  0.1693
  786TIP3    H123917   2.020   4.832   1.761  0.5415 -1.0600  0.6752
  786TIP3    H223918   2.124   4.936   1.798  0.7873 -0.8494 -0.5521
  787TIP3   OH223919   0.221   4.689   1.383  0.0620 -0.0565 -0.1527
  787TIP3    H123920   0.158   4.738   1.331  0.1671 -0.8968 -1.1198
  787TIP3    H223921   0.192   4.598   1.376  0.4151 -0.2571  0.7957
  788TIP3   OH223922   5.633   2.397   7.829 -0.1989  0.5428  0.4994
  788TIP3    H123923   5.597   2.309   7.816  0.4968  0.3699 -0.3145
  788TIP3    H223924   5.706   2.403   7.767  1.0623  0.9540  1.9675
  789TIP3   OH223925   5.966   3.025   2.494  0.4904 -0.5859  0.4188
  789TIP3    H123926   6.014   3.095   2.538 -0.2311  0.3356 -0.2309
  789TIP3    H223927   5.889   3.010   2.549 -1.5038  1.9713 -1.4103
  790TIP3   OH223928   3.006   3.874   2.332 -0.4214 -1.4736  0.0668
  790TIP3    H123929   3.076   3.905   2.389  1.0111  0.3749 -2.4844
  790TIP3    H223930   2.938   3.941   2.337 -0.4904 -1.5312 -0.0603
  791TIP3   OH223931   4.505   1.500   2.903  0.4125  0.4501 -0.3692
  791TIP3    H123932   4.471   1.589   2.909 -0.7374  0.2896 -3.3273
  791TIP3    H223933   4.429   1.444   2.915  0.6680 -0.0737 -1.1564
  792TIP3   OH223934   6.641   5.594   1.225 -0.1432 -0.3846  0.6409
  792TIP3    H123935   6.633   5.689   1.236  1.4172 -0.1049 -0.2200
  792TIP3    H223936   6.564   5.570   1.173 -0.3375  0.4929  0.4955
  793TIP3   OH223937   2.956   4.410   1.841 -0.6557  0.5202 -0.2521
  793TIP3    H123938   3.030   4.400   1.902 -0.9631  2.9087  0.6203
  793TIP3    H223939   2.957   4.329   1.789  0.2586 -1.1756  2.2113
  794TIP3   OH223940   3.703   2.991   1.136  0.5428 -0.0228 -0.1454
  794TIP3    H123941   3.623   3.000   1.188  0.1281 -1.1225 -0.5730
  794TIP3    H223942   3.685   2.918   1.077  1.4101  0.5068 -1.0920
  795TIP3   OH223943   4.582   6.749   8.130  0.4078 -0.3065  0.0678
  795TIP3    H123944   4.498   6.793   8.116  1.9789  2.4895 -1.3748
  795TIP3    H223945   4.596   6.698   8.050  0.1617 -0.7393  0.2912
  796TIP3   OH223946   5.973   0.446   7.941  0.3559 -0.1824  0.1288
  796TIP3    H123947   5.960   0.541   7.943 -0.1773 -0.2400 -0.2265
  796TIP3    H223948   5.983   0.426   7.848 -0.0454 -0.5374  0.1593
  797TIP3   OH223949   6.508   4.681   0.517  0.3573  0.5493 -0.4106
  797TIP3    H123950   6.504   4.728   0.434 -1.0334  1.3380  0.0649
  797TIP3    H223951   6.416   4.662   0.538  0.7970 -1.2959  0.0394
  798TIP3   OH223952   6.152   1.479   0.456 -0.1588  0.2575  0.6226
  798TIP3    H123953   6.079   1.446   0.509 -1.7691  0.5184 -1.3170
  798TIP3    H223954   6.118   1.558   0.414  1.4082  0.6532  0.0173
  799TIP3   OH223955   6.307   6.605   1.151 -0.1256 -0.7817 -0.3206
  799TIP3    H123956   6.293   6.682   1.206 -1.4189 -1.0816 -0.1952
  799TIP3    H223957   6.229   6.552   1.164  0.6133 -1.9824 -0.6404
  800TIP3   OH223958   4.708   6.853   7.284  0.1741 -0.1480 -0.2171
  800TIP3    H123959   4.694   6.864   7.190  0.9526 -0.4239 -0.3753
  800TIP3    H223960   4.733   6.941   7.315 -0.4923  0.0376 -0.1801
  801TIP3   OH223961   3.967   3.339   7.914  0.4528 -0.6688 -0.2051
  801TIP3    H123962   3.873   3.341   7.894  0.0947  0.8154  1.3436
  801TIP3    H223963   3.999   3.260   7.870 -1.3957 -0.9085 -1.2496
  802TIP3   OH223964   1.755   4.469   0.846 -0.6906 -0.2175  0.0422
  802TIP3    H123965   1.695   4.461   0.921 -1.8919  0.1511 -0.8562
  802TIP3    H223966   1.705   4.517   0.780  1.0520  1.2761 -0.2767
  803TIP3   OH223967   3.509   4.444   7.285  0.1597  0.3798 -0.1537
  803TIP3    H123968   3.560   4.411   7.211 -0.3771 -0.8528 -0.0093
  803TIP3    H223969   3.441   4.499   7.247  1.3205  1.7038 -0.3791
  804TIP3   OH223970   3.850   2.760   1.436 -0.1058  0.2436  0.6057
  804TIP3    H123971   3.902   2.750   1.357 -1.5462  0.0985 -0.3690
  804TIP3    H223972   3.890   2.834   1.482 -0.1359  1.3416 -1.0358
  805TIP3   OH223973   5.148   2.572   1.732  0.0891  0.1580 -0.6745
  805TIP3    H123974   5.054   2.557   1.735  0.0792  0.3104  0.1442
  805TIP3    H223975   5.167   2.593   1.641 -0.7872  0.8759 -0.7034
  806TIP3   OH223976   0.603   3.503   1.670  0.3342  0.4876 -0.4600
  806TIP3    H123977   0.599   3.588   1.625 -0.1688  0.6144 -0.1862
  806TIP3    H223978   0.523   3.501   1.723 -0.2224 -0.6309 -1.3079
  807TIP3   OH223979   6.615   5.840   8.363  0.5265  0.0726  0.0034
  807TIP3    H123980   6.575   5.922   8.393 -0.6866 -0.3790 -0.3370
  807TIP3    H223981   6.624   5.851   8.268  0.7499 -0.0387  0.0096
  808TIP3   OH223982   5.522   2.883   8.332 -0.0221 -0.2294 -0.6416
  808TIP3    H123983   5.574   2.928   8.398 -2.3891 -0.1714  1.3080
  808TIP3    H223984   5.539   2.790   8.346 -0.4981 -0.2158  0.0631
  809TIP3   OH223985   6.265   0.030   0.958  0.0559  0.6001  0.6648
  809TIP3    H123986   6.264   0.037   0.863  1.0491  1.9496  0.7290
  809TIP3    H223987   6.202  -0.040   0.978  0.2340 -0.0628 -0.9902
  810TIP3   OH223988   6.655   5.859   1.006 -0.3208 -0.1786 -0.4107
  810TIP3    H123989   6.748   5.848   0.985 -0.6179  0.3342 -2.1033
  810TIP3    H223990   6.655   5.893   1.096  1.1420  0.2248 -0.5410
  811TIP3   OH223991   2.189   5.880   1.290 -0.2074  0.2398 -0.2108
  811TIP3    H123992   2.194   5.929   1.371 -1.8621 -0.1758  0.1877
  811TIP3    H223993   2.263   5.911   1.238 -1.3960  3.5434 -0.1901
  812TIP3   OH223994   0.466   4.234   0.668  0.4549 -0.0821 -0.8206
  812TIP3    H123995   0.512   4.191   0.741  0.0667  0.6637 -0.1226
  812TIP3    H223996   0.462   4.167   0.600  1.2969 -0.6208 -0.3524
  813TIP3   OH223997   1.546   0.497   1.083  0.1149 -0.7854  0.1860
  813TIP3    H123998   1.509   0.522   0.998  0.1586 -2.0603 -0.2329
  813TIP3    H223999   1.481   0.527   1.147  0.0046  0.0453 -0.3032
  814TIP3   OH224000   0.964   0.919   1.211  0.0627 -0.3068 -0.7869
  814TIP3    H124001   0.899   0.857   1.178  1.9938 -2.0966 -1.4697
  814TIP3    H224002   0.998   0.962   1.132  0.1380  0.1502 -0.5051
  815TIP3   OH224003   2.288   0.744   7.436 -0.0676  0.5338  0.5455
  815TIP3    H124004   2.380   0.745   7.462  0.2158 -2.1886 -0.1368
  815TIP3    H224005   2.271   0.834   7.407  3.1922  0.4836 -2.0203
  816TIP3   OH224006   5.364   5.395   8.110 -0.1855  0.4519 -0.2589
  816TIP3    H124007   5.440   5.409   8.053 -0.6753  1.0253 -0.7895
  816TIP3    H224008   5.303   5.344   8.056  0.7075 -2.0056  0.9297
  817TIP3   OH224009   0.046   3.698   1.451  0.0472  0.0228  0.0148
  817TIP3    H124010   0.030   3.689   1.357 -0.4463 -0.6492  0.1564
  817TIP3    H224011   0.126   3.648   1.467  0.1784  0.2079 -0.0600
  818TIP3   OH224012   4.425   3.737   1.931  0.1335  0.5316  0.6123
  818TIP3    H124013   4.386   3.815   1.893  0.1030 -0.0614 -0.6112
  818TIP3    H224014   4.356   3.672   1.929  0.8086 -0.1857 -0.4861
  819TIP3   OH224015   2.610   4.063   0.839  0.0141 -0.3031 -0.2252
  819TIP3    H124016   2.670   4.135   0.822  1.4789 -1.9623 -2.7725
  819TIP3    H224017   2.666   3.985   0.839 -1.9297 -1.7998 -1.5420
  820TIP3   OH224018   6.090   3.515   0.483  0.4057  0.2801  0.2497
  820TIP3    H124019   6.030   3.463   0.430 -1.4499  2.2940  0.2317
  820TIP3    H224020   6.166   3.459   0.496  0.0824 -1.0385 -2.8303
  821TIP3   OH224021   6.385   1.393   0.339  0.9689  0.0095 -0.0311
  821TIP3    H124022   6.324   1.426   0.405  0.0487 -0.3867 -0.6582
  821TIP3    H224023   6.343   1.413   0.255  0.9755 -1.5834 -0.4535
  822TIP3   OH224024   1.166   4.841   1.016 -0.0878 -0.1971  0.2640
  822TIP3    H124025   1.167   4.866   0.924  2.6948 -0.7332  0.0591
  822TIP3    H224026   1.192   4.921   1.062 -1.0159 -0.0608  0.5803
  823TIP3   OH224027   2.410   1.954   0.554  0.3761  0.0530  0.0281
  823TIP3    H124028   2.358   2.033   0.535 -1.7038 -1.4274 -0.8979
  823TIP3    H224029   2.474   1.982   0.619 -0.3596  2.4720 -0.1907
  824TIP3   OH224030   4.798   5.261   7.446 -0.7631  0.5872 -0.0318
  824TIP3    H124031   4.846   5.287   7.525  0.7666  2.4416 -1.4774
  824TIP3    H224032   4.797   5.340   7.392 -1.7254 -0.6415 -1.9073
  825TIP3   OH224033   3.923   1.399   1.644 -0.2847 -0.3963  0.3604
  825TIP3    H124034   3.929   1.379   1.737  0.3281  1.1828  0.6923
  825TIP3    H224035   3.985   1.339   1.603  0.8682  0.1812  1.2033
  826TIP3   OH224036   2.368   6.765   1.386 -0.2049 -0.2481 -0.3704
  826TIP3    H124037   2.450   6.806   1.414 -0.1017 -0.0873 -0.9014
  826TIP3    H224038   2.336   6.721   1.465  1.5650 -2.3236 -0.7113
  827TIP3   OH224039   0.755   5.392   0.034  0.3995  0.2958  0.1569
  827TIP3    H124040   0.774   5.434  -0.049 -1.5430  1.1005  0.0592
  827TIP3    H224041   0.823   5.423   0.094  0.2405  1.9031 -0.4594
  828TIP3   OH224042   4.200   3.095   1.559  0.2704  0.3662  0.0858
  828TIP3    H124043   4.189   3.091   1.654  0.9522 -0.7366  0.1330
  828TIP3    H224044   4.124   3.048   1.524  1.2547 -1.3607  0.1859
  829TIP3   OH224045   2.356   3.424   8.145 -0.2011  0.3488  0.6624
  829TIP3    H124046   2.266   3.393   8.131  0.6775 -2.4821  0.5968
  829TIP3    H224047   2.399   3.351   8.190  2.5664  0.7505 -1.0823
  830TIP3   OH224048   4.763   3.571   7.447  0.0994  0.1945  0.3847
  830TIP3    H124049   4.718   3.546   7.528  0.0575  1.6152  0.8170
  830TIP3    H224050   4.841   3.618   7.475  1.7744 -1.9605 -0.3742
  831TIP3   OH224051   0.160   2.649   1.690 -0.2389  0.0047  0.1888
  831TIP3    H124052   0.232   2.587   1.697 -2.7372 -2.9694  2.0845
  831TIP3    H224053   0.182   2.720   1.750  0.3337 -1.7376  2.1136
  832TIP3   OH224054   0.575   5.461   8.113 -0.6006  0.5164 -0.5713
  832TIP3    H124055   0.546   5.415   8.035 -0.6692 -0.3248 -0.0539
  832TIP3    H224056   0.498   5.465   8.169  0.0304 -0.9641  0.4418
  833TIP3   OH224057   4.058   2.079   2.481 -0.5002 -0.2235 -0.0658
  833TIP3    H124058   3.998   2.069   2.555  0.1193  0.2859  0.5306
  833TIP3    H224059   4.098   1.993   2.471 -0.1015 -0.1366  0.6469
  834TIP3   OH224060   3.154   1.147   2.654  0.2836  0.1958  0.1814
  834TIP3    H124061   3.128   1.199   2.578 -0.2925 -3.5268 -2.4546
  834TIP3    H224062   3.228   1.195   2.692 -1.4648  3.8999 -0.5798
  835TIP3   OH224063   5.024   1.129   7.601 -0.0343 -0.0960 -0.1713
  835TIP3    H124064   5.080   1.175   7.664 -1.7212  1.8500  0.0117
  835TIP3    H224065   5.080   1.117   7.524  0.7093  1.6296  0.0600
  836TIP3   OH224066   3.270   3.906   1.961 -0.0425  0.0471  0.2606
  836TIP3    H124067   3.249   3.949   1.879 -0.5862  0.3081  0.5322
  836TIP3    H224068   3.268   3.812   1.940 -0.2131  0.1109 -0.0124
  837TIP3   OH224069   3.933   2.199   2.243  0.7489 -0.2151  0.4612
  837TIP3    H124070   4.007   2.233   2.193  0.5068 -0.3762 -0.0118
  837TIP3    H224071   3.969   2.177   2.329  1.1208  0.2687  0.4266
  838TIP3   OH224072   1.321   0.525   0.887 -0.3439  0.2831  0.0085
  838TIP3    H124073   1.286   0.605   0.925 -2.7057 -1.0101  0.7392
  838TIP3    H224074   1.288   0.455   0.943  0.8552 -1.2946 -1.1570
  839TIP3   OH224075   3.294   2.403   7.512  0.4368 -0.9326  0.1628
  839TIP3    H124076   3.331   2.338   7.452  1.1156  0.2388 -0.7430
  839TIP3    H224077   3.237   2.457   7.457 -0.5009 -1.0501  1.0006
  840TIP3   OH224078   5.266   3.085   2.733 -0.2404  0.1456  0.0004
  840TIP3    H124079   5.276   3.164   2.786  0.8927  1.1479 -1.6080
  840TIP3    H224080   5.312   3.017   2.782 -2.3264  0.0910  2.0480
  841TIP3   OH224081   1.090   1.393   7.641  0.0875 -0.1507  0.1584
  841TIP3    H124082   1.051   1.426   7.560  0.1671 -1.3614 -0.3920
  841TIP3    H224083   1.030   1.423   7.710 -0.8689 -0.4764 -0.5024
  842TIP3   OH224084   0.594   3.926   2.666  0.2343  0.3659  0.6089
  842TIP3    H124085   0.508   3.893   2.691 -0.3821  0.3666 -1.3175
  842TIP3    H224086   0.654   3.855   2.686 -0.3248  0.0583  1.2337
  843TIP3   OH224087   4.141   5.291   7.519 -0.1374  0.2261 -0.1255
  843TIP3    H124088   4.069   5.251   7.568  0.4564  0.0088  0.5804
  843TIP3    H224089   4.209   5.224   7.517  0.2710  0.6421 -0.2883
  844TIP3   OH224090   1.213   0.899   0.617 -0.0679 -0.0627 -0.3235
  844TIP3    H124091   1.122   0.903   0.588 -0.2842 -0.2915  0.3105
  844TIP3    H224092   1.260   0.859   0.543 -0.8533 -2.0638  0.1929
  845TIP3   OH224093   4.273   0.443   6.846 -0.1836  0.2106 -0.7572
  845TIP3    H124094   4.228   0.510   6.795  1.2399  1.2700 -0.6882
  845TIP3    H224095   4.239   0.360   6.813  0.7060  0.8375 -3.5191
  846TIP3   OH224096   1.746   1.130   7.748 -0.0491 -0.0241  0.2900
  846TIP3    H124097   1.742   1.063   7.680  0.0299 -1.8506  1.9859
  846TIP3    H224098   1.710   1.087   7.826  0.3536  1.8003  1.5436
  847TIP3   OH224099   1.499   1.144   0.345  0.0211  0.5672  0.1327
  847TIP3    H124100   1.450   1.196   0.281 -0.3069  0.5026  0.3232
  847TIP3    H224101   1.553   1.085   0.293 -1.1243 -0.3097 -0.0989
  848TIP3   OH224102   0.090   5.854   7.278 -0.7229  0.2417  0.2169
  848TIP3    H124103   0.159   5.857   7.344  0.1587  1.4462 -0.7231
  848TIP3    H224104   0.128   5.806   7.205 -1.5395 -0.7030  0.3903
  849TIP3   OH224105   1.779   4.158   1.928 -0.7797  1.3152 -0.0451
  849TIP3    H124106   1.803   4.209   2.005 -0.9807  0.5493  0.5362
  849TIP3    H224107   1.832   4.079   1.935 -0.9642  1.1443 -0.5833
  850TIP3   OH224108   4.703   2.262   3.323 -0.0493  0.4901  0.2742
  850TIP3    H124109   4.628   2.294   3.273  0.1769  2.5149  1.1115
  850TIP3    H224110   4.681   2.279   3.414  1.9117  2.5154  0.4871
  851TIP3   OH224111   4.841   3.565   2.498  0.3626 -0.1816 -0.7971
  851TIP3    H124112   4.900   3.514   2.553  0.0644 -0.6204 -0.8820
  851TIP3    H224113   4.806   3.502   2.435 -0.3994  0.0195 -0.5829
  852TIP3   OH224114   6.896   4.453   2.046 -0.1970  0.4595 -0.2967
  852TIP3    H124115   6.921   4.528   1.992  1.6263  0.2069  0.1424
  852TIP3    H224116   6.875   4.492   2.131 -0.1353  0.5555 -0.3245
  853TIP3   OH224117   1.041   5.918   8.284 -0.7145 -0.0895 -0.1402
  853TIP3    H124118   0.972   5.936   8.348  0.0678  0.5273  0.5475
  853TIP3    H224119   1.121   5.913   8.336 -0.3433 -1.6601 -0.8254
  854TIP3   OH224120   2.453   2.660   0.007 -0.6421 -0.0133  0.1320
  854TIP3    H124121   2.486   2.572   0.026  0.3801  0.5405  1.0916
  854TIP3    H224122   2.369   2.664   0.053 -0.4678 -0.3342  0.4885
  855TIP3   OH224123   2.268   3.113   3.611 -0.3312 -0.1965  0.6055
  855TIP3    H124124   2.186   3.114   3.562 -0.8300 -0.9574  1.3963
  855TIP3    H224125   2.310   3.030   3.586  0.6002  0.5439 -0.4036
  856TIP3   OH224126   5.797   6.083   7.018 -0.0164 -0.4702  0.0186
  856TIP3    H124127   5.743   6.049   7.088  0.8904  0.4437  1.2113
  856TIP3    H224128   5.823   6.170   7.048  0.2682  0.0150 -1.5288
  857TIP3   OH224129   3.298   3.097   2.323  0.1189  0.2987 -0.8469
  857TIP3    H124130   3.334   3.174   2.279 -0.7101  0.2771 -1.5849
  857TIP3    H224131   3.279   3.035   2.253 -1.0256  0.1816 -0.4475
  858TIP3   OH224132   2.880   4.735   2.750 -0.0435  0.2565  0.4027
  858TIP3    H124133   2.850   4.791   2.679  1.1526 -0.7434 -0.9509
  858TIP3    H224134   2.939   4.672   2.708 -1.5595 -2.2343  1.7611
  859TIP3   OH224135   3.365   0.557   0.160  0.0083 -0.4629  0.2938
  859TIP3    H124136   3.392   0.481   0.108  1.6328  0.5078 -0.3317
  859TIP3    H224137   3.365   0.630   0.098  0.8068  0.4931  1.3765
  860TIP3   OH224138   2.145   3.857   2.698  0.9989  0.1645 -0.2739
  860TIP3    H124139   2.081   3.847   2.768  2.2126 -0.9038  0.7313
  860TIP3    H224140   2.129   3.783   2.640  1.2478 -0.0259 -0.0966
  861TIP3   OH224141   0.775   2.550   0.262  0.1029  0.0732  0.4064
  861TIP3    H124142   0.783   2.520   0.352 -0.7822  1.8813  1.1274
  861TIP3    H224143   0.801   2.475   0.209 -0.3894 -1.3703  2.1377
  862TIP3   OH224144   3.931   3.504   7.151  0.4960 -0.4918 -0.4116
  862TIP3    H124145   3.947   3.481   7.059  0.5103 -0.1426 -0.4976
  862TIP3    H224146   3.838   3.527   7.154  0.5799 -0.1477 -0.4155
  863TIP3   OH224147   3.792   3.026   2.931 -0.0583  0.3035 -0.3536
  863TIP3    H124148   3.781   2.964   3.003  0.4126 -0.3672 -0.8443
  863TIP3    H224149   3.785   3.112   2.972  0.8552 -0.0582  0.6068
  864TIP3   OH224150   6.155   5.543   3.067 -0.5366  0.2190 -0.1420
  864TIP3    H124151   6.109   5.459   3.066 -2.5026  1.2342  0.0775
  864TIP3    H224152   6.191   5.550   3.155 -0.4026 -0.3520 -0.1473
  865TIP3   OH224153   3.681   0.804   1.253  0.2199 -0.3607  0.1655
  865TIP3    H124154   3.673   0.745   1.178  1.6835  0.4153 -0.6407
  865TIP3    H224155   3.775   0.812   1.267  0.0447  1.5939  0.4035
  866TIP3   OH224156   0.768   1.632   8.354  0.4864  0.5857  0.2297
  866TIP3    H124157   0.795   1.546   8.322  2.1317  1.8750 -2.1372
  866TIP3    H224158   0.805   1.638   8.442  2.3999 -0.2677 -0.4681
  867TIP3   OH224159   1.213   3.349   0.592  0.2748  0.0429 -0.6304
  867TIP3    H124160   1.135   3.395   0.623 -0.2018 -0.2642 -1.3464
  867TIP3    H224161   1.180   3.263   0.564  0.6464  0.3516 -2.1205
  868TIP3   OH224162   5.526   3.699   1.531  0.1689 -0.6536  0.0165
  868TIP3    H124163   5.514   3.788   1.498 -1.5374 -1.4760 -1.8141
  868TIP3    H224164   5.620   3.688   1.538  0.3976  1.4350  0.7592
  869TIP3   OH224165   0.181   1.496   7.702  0.2401 -0.3750 -0.1038
  869TIP3    H124166   0.090   1.496   7.733  0.2343 -2.4157 -0.0093
  869TIP3    H224167   0.174   1.497   7.607  0.1952  1.6820 -0.1226
  870TIP3   OH224168   3.543   2.265   1.159 -0.2219  0.3464  0.0404
  870TIP3    H124169   3.499   2.298   1.081 -1.3774  0.0681  0.5501
  870TIP3    H224170   3.544   2.170   1.148  0.1026  0.3392  0.1146
  871TIP3   OH224171   6.883   4.967   7.202  0.1478  0.4767  0.4706
  871TIP3    H124172   6.865   4.947   7.110  0.1429 -0.3340  0.6373
  871TIP3    H224173   6.823   5.039   7.223 -1.0308 -0.4173  0.2867
  872TIP3   OH224174   1.492   3.873   3.212 -0.2789 -0.1526 -0.0519
  872TIP3    H124175   1.539   3.813   3.154  0.0067  0.5740 -0.6057
  872TIP3    H224176   1.453   3.818   3.279 -0.9774 -1.0719 -1.1829
  873TIP3   OH224177   4.115   4.807   2.241  0.3848  0.5393  0.1965
  873TIP3    H124178   4.143   4.768   2.324  0.3346 -0.0483 -0.0561
  873TIP3    H224179   4.143   4.745   2.174 -0.5401  0.4714 -0.1470
  874TIP3   OH224180   6.655   6.364   1.671  0.0732  0.3808 -0.5295
  874TIP3    H124181   6.741   6.402   1.688 -0.0675  0.7209 -0.5567
  874TIP3    H224182   6.643   6.298   1.739 -0.3151  1.4458  0.4629
  875TIP3   OH224183   2.864   5.834   7.532 -0.1295  0.5003  0.1377
  875TIP3    H124184   2.885   5.905   7.593  0.2911 -0.0044  0.5896
  875TIP3    H224185   2.927   5.765   7.553  1.3698  1.0370 -2.1611
  876TIP3   OH224186   4.355   5.630   0.976  0.4099 -0.1147 -0.1082
  876TIP3    H124187   4.310   5.670   1.051  0.7858 -0.6804  0.4356
  876TIP3    H224188   4.431   5.587   1.015 -0.5551 -2.3013 -0.4814
  877TIP3   OH224189   3.703   0.085   3.105  0.1916 -0.0441 -0.3079
  877TIP3    H124190   3.765   0.135   3.158  1.1115 -0.0959 -1.2932
  877TIP3    H224191   3.666   0.021   3.166  1.9359 -0.7478  0.0948
  878TIP3   OH224192   1.889   6.001   1.624  0.1056 -0.1912  0.0855
  878TIP3    H124193   1.862   5.994   1.715 -0.4459  0.4508 -0.0235
  878TIP3    H224194   1.953   6.072   1.623 -0.4796  0.3426 -0.1482
  879TIP3   OH224195   5.644   3.344   3.116  0.3625 -0.3053  0.4015
  879TIP3    H124196   5.724   3.334   3.066 -0.9349 -0.0235 -1.8509
  879TIP3    H224197   5.655   3.285   3.191  1.7644 -1.9488 -1.0151
  880TIP3   OH224198   4.939   5.431   2.474 -0.1230 -0.0333 -0.4862
  880TIP3    H124199   4.966   5.377   2.548 -0.8485  1.8948  1.2760
  880TIP3    H224200   4.890   5.371   2.417  0.0704 -1.4742  0.8001
  881TIP3   OH224201   3.570   1.373   2.311 -0.1262  0.1213  0.2218
  881TIP3    H124202   3.476   1.386   2.297  0.0248  0.0310 -0.9593
  881TIP3    H224203   3.600   1.456   2.347 -0.3443  0.8092 -1.1129
  882TIP3   OH224204   6.450   3.900   1.872  0.2207  0.1277  0.2967
  882TIP3    H124205   6.391   3.967   1.906 -1.6695 -0.6118 -1.3311
  882TIP3    H224206   6.459   3.837   1.943 -1.9810 -0.3580  0.1975
  883TIP3   OH224207   2.459   6.281   7.160 -0.6077 -0.5376  0.1396
  883TIP3    H124208   2.385   6.337   7.185 -0.2281 -0.0058  0.0871
  883TIP3    H224209   2.418   6.199   7.133 -1.3365  0.4220 -1.8638
  884TIP3   OH224210   6.031   3.834   0.830 -0.4910  0.4072 -0.0400
  884TIP3    H124211   6.001   3.825   0.920  0.1250 -0.5171  0.0857
  884TIP3    H224212   6.127   3.838   0.836 -0.3073 -1.6785 -0.7630
  885TIP3   OH224213   2.776   6.418   0.300 -0.2150 -0.2589  0.1235
  885TIP3    H124214   2.697   6.414   0.245 -0.0999 -0.0893 -0.0546
  885TIP3    H224215   2.830   6.345   0.270  0.9736  1.2653 -1.7290
  886TIP3   OH224216   4.716   1.294   2.852  0.8331  0.0683 -0.2362
  886TIP3    H124217   4.708   1.244   2.933 -0.0629 -0.0062 -0.3581
  886TIP3    H224218   4.654   1.367   2.863  0.3955 -0.1736 -1.0135
  887TIP3   OH224219   5.363   2.901   0.682 -0.3639 -0.0552 -0.1484
  887TIP3    H124220   5.303   2.950   0.738 -0.7642  1.3949 -1.7687
  887TIP3    H224221   5.308   2.835   0.639 -0.9952  1.5483 -1.9612
  888TIP3   OH224222   6.614   3.419   1.785 -0.3135  0.3369 -0.4048
  888TIP3    H124223   6.630   3.440   1.693  1.1975 -1.6848 -0.6814
  888TIP3    H224224   6.637   3.499   1.832 -0.0097  1.0455 -1.7070
  889TIP3   OH224225   4.094   6.894   0.482  0.3791 -0.0207 -0.4427
  889TIP3    H124226   4.168   6.954   0.492 -0.3618  0.8632 -0.1060
  889TIP3    H224227   4.056   6.918   0.397 -0.4358  0.6073  0.0788
  890TIP3   OH224228   6.712   4.952   2.067 -0.1140  0.0231  0.3432
  890TIP3    H124229   6.682   4.869   2.030 -0.9472 -0.2854  1.6668
  890TIP3    H224230   6.633   5.006   2.072 -0.0980 -0.0765  1.9939
  891TIP3   OH224231   3.105   6.818   8.238  0.6174 -0.5671  0.0291
  891TIP3    H124232   3.104   6.735   8.191  1.6190  0.2435 -1.4823
  891TIP3    H224233   3.047   6.804   8.313  0.4386 -2.4783 -0.4299
  892TIP3   OH224234   5.984   5.210   2.262 -0.4762 -0.4142  0.1737
  892TIP3    H124235   5.989   5.175   2.351 -2.1806 -0.4899  0.2681
  892TIP3    H224236   6.004   5.303   2.272  1.6978 -0.8423  0.2622
  893TIP3   OH224237   5.982   4.527   0.867  0.0295  0.0881 -0.5506
  893TIP3    H124238   5.938   4.548   0.785 -3.5336  0.5224  1.2612
  893TIP3    H224239   5.939   4.446   0.897  0.6056  0.4099  1.2627
  894TIP3   OH224240   6.223   3.127   0.783  0.0769 -0.1098  0.2877
  894TIP3    H124241   6.197   3.053   0.728  0.7859 -1.1715  1.3389
  894TIP3    H224242   6.212   3.095   0.873  0.3727  1.0771  0.7682
  895TIP3   OH224243   2.369   6.099   7.737  0.0796 -0.0829 -0.1349
  895TIP3    H124244   2.440   6.108   7.673 -1.0117 -1.6152 -1.6506
  895TIP3    H224245   2.339   6.188   7.752  1.5758  0.4808 -0.3339
  896TIP3   OH224246   5.725   5.394   2.050  0.0170  0.0355 -0.1038
  896TIP3    H124247   5.726   5.299   2.038  1.2442 -0.2174  1.6726
  896TIP3    H224248   5.815   5.422   2.033  0.1088  0.5997  1.1751
  897TIP3   OH224249   0.190   1.688   3.166 -0.1293 -0.2298 -0.3051
  897TIP3    H124250   0.183   1.599   3.131  0.7248 -0.3313 -0.2435
  897TIP3    H224251   0.111   1.732   3.137  0.1135 -0.5927 -1.5495
  898TIP3   OH224252   0.792   2.790   8.210  0.3871 -0.2689  0.5453
  898TIP3    H124253   0.807   2.791   8.305  2.4216 -0.7455  0.2677
  898TIP3    H224254   0.817   2.877   8.181  0.8760 -0.4886  0.3025
  899TIP3   OH224255   3.659   0.678   3.102  0.6553 -0.0768  0.1795
  899TIP3    H124256   3.575   0.633   3.114  0.0935  0.3494 -1.7304
  899TIP3    H224257   3.642   0.767   3.132  0.2957  0.1002 -0.5231
  900TIP3   OH224258   2.248   6.190   8.187  0.0420  0.0514 -0.9086
  900TIP3    H124259   2.337   6.154   8.189 -0.1368 -0.4989 -2.1446
  900TIP3    H224260   2.191   6.114   8.188 -0.3948  0.3740 -1.0839
  901TIP3   OH224261   4.220   4.466   0.691  0.0336 -0.0225  0.2133
  901TIP3    H124262   4.231   4.380   0.734  1.3180  0.3340  0.6570
  901TIP3    H224263   4.168   4.517   0.753 -0.7443 -0.4718 -0.0548
  902TIP3   OH224264   2.713   3.221   0.951  0.1294 -0.2866  0.0788
  902TIP3    H124265   2.759   3.149   0.995  1.0650  0.7351  0.8457
  902TIP3    H224266   2.727   3.205   0.858  0.8833 -0.7368  0.2610
  903TIP3   OH224267   0.003   3.019   1.372  0.1956  0.3336  0.3982
  903TIP3    H124268  -0.001   2.954   1.442 -2.2514 -0.1986 -0.1369
  903TIP3    H224269  -0.045   3.094   1.406 -0.6412  0.2353 -0.5080
  904TIP3   OH224270   2.133   2.202   1.853  0.0757  0.1000 -0.6611
  904TIP3    H124271   2.228   2.209   1.866  0.1785 -0.9034 -0.7494
  904TIP3    H224272   2.118   2.240   1.766  0.4236  0.1078 -0.7219
  905TIP3   OH224273   5.518   0.582   0.727 -0.4070  0.1410 -0.4405
  905TIP3    H124274   5.590   0.520   0.712 -1.6264 -1.2819 -0.6066
  905TIP3    H224275   5.448   0.529   0.764 -1.2957  1.5595 -0.0150
  906TIP3   OH224276   6.778   2.231   1.265  0.0513  0.3170 -0.4875
  906TIP3    H124277   6.784   2.230   1.361 -2.0164 -3.2187 -0.2028
  906TIP3    H224278   6.705   2.290   1.246 -0.8092 -0.4414  0.3310
  907TIP3   OH224279   3.212   5.945   2.645 -0.0039 -0.1089 -0.3391
  907TIP3    H124280   3.244   6.011   2.706 -0.3477  1.2484 -1.5666
  907TIP3    H224281   3.286   5.930   2.586  0.5741 -1.9340  0.7520
  908TIP3   OH224282   5.482   1.243   3.425  0.1429 -0.0889  0.3744
  908TIP3    H124283   5.490   1.307   3.354  1.0706  0.2613  0.7898
  908TIP3    H224284   5.495   1.158   3.382  1.3602  0.1595  0.2123
  909TIP3   OH224285   3.915   0.553   1.031 -0.0463 -0.3261  0.2279
  909TIP3    H124286   3.957   0.530   1.115  0.2664  1.0760  0.4774
  909TIP3    H224287   3.925   0.474   0.978  2.1653 -0.3653  0.5853
  910TIP3   OH224288   2.648   0.594   0.200  0.6372 -0.2123 -0.7736
  910TIP3    H124289   2.718   0.636   0.250 -0.0656  2.1595 -1.6350
  910TIP3    H224290   2.571   0.598   0.257  0.4045  0.3467 -1.1128
  911TIP3   OH224291   5.616   5.612   2.729 -0.1537  0.7362 -0.0486
  911TIP3    H124292   5.581   5.535   2.772  0.3691 -0.0924 -1.0492
  911TIP3    H224293   5.589   5.603   2.638  1.1324  0.9675 -0.4796
  912TIP3   OH224294   1.333   2.877   1.637 -0.5869 -0.2704  0.8795
  912TIP3    H124295   1.343   2.792   1.680  0.7665 -0.2925  0.5676
  912TIP3    H224296   1.329   2.941   1.708  0.0340 -0.4515  1.0798
  913TIP3   OH224297   3.935   5.385   1.732 -0.4208 -0.5428 -0.2206
  913TIP3    H124298   4.012   5.343   1.768  0.5543 -0.1784 -1.7918
  913TIP3    H224299   3.869   5.378   1.801  1.7007  1.2827  2.1294
  914TIP3   OH224300   5.077   2.090   7.864  0.2041 -0.2086  0.4148
  914TIP3    H124301   5.170   2.072   7.876  0.1965  0.4501  1.5407
  914TIP3    H224302   5.075   2.169   7.810  0.2853 -0.3342  0.2239
  915TIP3   OH224303   6.020   2.266   0.574  0.0348 -0.7932  0.4795
  915TIP3    H124304   6.044   2.183   0.615  0.6578 -0.3067  1.1246
  915TIP3    H224305   5.944   2.297   0.624  1.3936  0.2862  1.9828
  916TIP3   OH224306   4.767   5.712   7.604  0.1058  0.0676 -0.8432
  916TIP3    H124307   4.847   5.662   7.616 -0.3694 -0.8496 -1.3816
  916TIP3    H224308   4.737   5.732   7.693 -1.0099 -2.7735 -0.4823
  917TIP3   OH224309   0.024   4.157   8.052 -0.1778 -0.0198  0.5742
  917TIP3    H124310  -0.030   4.233   8.074 -0.1431  0.4244 -0.8144
  917TIP3    H224311   0.102   4.193   8.012 -1.3959 -0.8018 -2.8298
  918TIP3   OH224312   0.829   3.332   1.074 -0.0011 -0.4854 -0.1850
  918TIP3    H124313   0.921   3.329   1.048  0.2334 -1.5286  0.6497
  918TIP3    H224314   0.832   3.347   1.169 -0.7378  0.6107 -0.3147
  919TIP3   OH224315   2.735   4.129   1.911  0.3339  0.1475  0.3657
  919TIP3    H124316   2.830   4.138   1.909  0.7942 -3.0784  0.7557
  919TIP3    H224317   2.710   4.155   2.000  0.7292  1.5233  0.0972
  920TIP3   OH224318   2.458   4.613   1.061  0.3848 -0.1326  0.5559
  920TIP3    H124319   2.424   4.660   0.985 -1.1138  1.1693  1.9600
  920TIP3    H224320   2.428   4.523   1.050  0.0075  0.0945 -0.3066
  921TIP3   OH224321   4.236   0.285   8.150 -0.4157 -0.0521 -0.0943
  921TIP3    H124322   4.303   0.239   8.200  0.0787 -1.1394 -1.6989
  921TIP3    H224323   4.248   0.378   8.173 -0.0933 -0.4774  1.6065
  922TIP3   OH224324   1.320   5.069   1.672 -0.2786  0.3629 -0.1018
  922TIP3    H124325   1.233   5.064   1.711  0.3613  1.3412  1.5648
  922TIP3    H224326   1.370   5.127   1.730  1.8765 -1.1912 -0.2680
  923TIP3   OH224327   6.646   6.283   7.806  0.0315 -0.4423  0.3088
  923TIP3    H124328   6.737   6.275   7.835  0.8186  0.1409 -1.8659
  923TIP3    H224329   6.630   6.204   7.756  1.2751  1.7850 -4.0657
  924TIP3   OH224330   3.758   0.446   7.395 -0.1304 -0.1802  0.1574
  924TIP3    H124331   3.804   0.495   7.327 -0.2688  1.7892  1.3791
  924TIP3    H224332   3.668   0.438   7.362  0.0966 -0.3697 -0.4271
  925TIP3   OH224333   4.521   2.026   7.956  0.6363  0.5682 -0.2341
  925TIP3    H124334   4.471   2.043   7.876  0.6488  2.8792  0.1689
  925TIP3    H224335   4.610   2.010   7.925  0.2399 -0.7452 -0.7796
  926TIP3   OH224336   1.749   6.299   8.100 -0.4996 -0.5462 -0.1887
  926TIP3    H124337   1.797   6.266   8.176 -0.6663  2.0081  1.1428
  926TIP3    H224338   1.816   6.305   8.031  0.2385 -0.5580  0.5086
  927TIP3   OH224339   5.260   6.597   2.858 -0.5149  0.0432 -0.3763
  927TIP3    H124340   5.308   6.553   2.788  0.8058 -1.0429  1.1427
  927TIP3    H224341   5.184   6.636   2.814  0.0717 -0.8824 -2.3337
  928TIP3   OH224342   4.647   4.081   0.496  0.3028 -0.4473  0.6172
  928TIP3    H124343   4.600   4.051   0.574  0.7982 -2.1878  0.2822
  928TIP3    H224344   4.735   4.045   0.506  0.7111  0.2913 -0.1998
  929TIP3   OH224345   2.173   1.070   1.705  0.4880 -0.7003  0.0059
  929TIP3    H124346   2.097   1.050   1.650 -1.2975 -0.6567  2.3012
  929TIP3    H224347   2.160   1.162   1.729  2.5583  0.0140 -1.3925
  930TIP3   OH224348   0.505   4.086   1.734 -0.0915  0.3838  0.6657
  930TIP3    H124349   0.579   4.122   1.684  0.0939  0.9329  1.3152
  930TIP3    H224350   0.465   4.163   1.775 -3.8253  0.8728 -3.1337
  931TIP3   OH224351   5.956   5.285   7.818 -0.0902  0.2093 -0.5856
  931TIP3    H124352   6.039   5.290   7.771 -0.0375  0.6047 -0.4501
  931TIP3    H224353   5.957   5.198   7.858  0.1037  0.0807 -0.8680
  932TIP3   OH224354   5.504   1.809   1.227 -0.0337 -0.2591  0.0539
  932TIP3    H124355   5.569   1.879   1.226 -1.1212  0.8628  1.9833
  932TIP3    H224356   5.421   1.854   1.210 -0.6108 -1.2928  0.0500
  933TIP3   OH224357   5.368   5.042   8.204 -0.2290  0.6794 -0.5991
  933TIP3    H124358   5.384   5.079   8.118 -0.6834 -0.1381 -1.0425
  933TIP3    H224359   5.319   4.961   8.188  0.8667 -0.2085  0.3200
  934TIP3   OH224360   0.511   6.532   7.912 -0.3916 -0.4955 -0.0165
  934TIP3    H124361   0.466   6.554   7.994 -1.4415  0.3655 -0.7949
  934TIP3    H224362   0.463   6.456   7.878  0.0780 -0.8872  0.1820
  935TIP3   OH224363   2.119   0.572   0.171  0.3956  0.2106  0.2072
  935TIP3    H124364   2.194   0.515   0.188  2.3790  1.1162 -4.1424
  935TIP3    H224365   2.157   0.659   0.157 -2.1077  1.8375  2.5062
  936TIP3   OH224366   2.640   3.951   0.423  0.5029  0.3167  0.5320
  936TIP3    H124367   2.632   3.935   0.517  2.9965  0.0705  0.7946
  936TIP3    H224368   2.620   3.867   0.382 -1.6187  0.6922  0.7309
  937TIP3   OH224369   2.785   1.028   6.893  0.0790  0.4572  0.1585
  937TIP3    H124370   2.710   0.989   6.848  0.7835 -0.4916 -0.2217
  937TIP3    H224371   2.754   1.043   6.982 -0.4605 -0.2807  0.1081
  938TIP3   OH224372   0.284   5.369   3.466 -0.0638 -0.2966  0.7407
  938TIP3    H124373   0.195   5.358   3.500 -0.8548  2.6879 -0.0760
  938TIP3    H224374   0.272   5.374   3.371  0.7840  1.3636  0.6954
  939TIP3   OH224375   0.317   5.428   7.926 -0.4628 -0.0073 -0.0894
  939TIP3    H124376   0.258   5.404   7.854 -0.8683 -0.2396  0.3159
  939TIP3    H224377   0.402   5.441   7.883 -1.2427  2.6310 -1.0630
  940TIP3   OH224378   3.137   6.329   7.205  0.2186 -0.2005  0.0035
  940TIP3    H124379   3.205   6.278   7.160  0.6034  0.0533  0.2818
  940TIP3    H224380   3.158   6.420   7.185 -0.5947 -0.1554 -0.6723
  941TIP3   OH224381   0.247   2.126   1.986 -0.0266 -0.5522 -0.3451
  941TIP3    H124382   0.247   2.126   2.082  0.8157  1.2843 -0.2853
  941TIP3    H224383   0.289   2.044   1.961  0.2528 -0.7948  0.8811
  942TIP3   OH224384   1.549   1.673   1.153 -0.1282  0.0074 -0.4055
  942TIP3    H124385   1.526   1.762   1.128 -2.4898 -0.2497  0.6459
  942TIP3    H224386   1.625   1.683   1.210 -0.4307  1.3541 -0.1991
  943TIP3   OH224387   4.561   4.200   0.128 -0.3285  0.0368  0.4077
  943TIP3    H124388   4.624   4.137   0.161  0.8760  0.3876 -1.1060
  943TIP3    H224389   4.508   4.224   0.204  0.3515 -1.4244  1.3802
  944TIP3   OH224390   3.561   3.055   1.748 -0.1273 -0.4057 -0.7802
  944TIP3    H124391   3.585   3.139   1.708 -3.7051  0.1587 -2.1300
  944TIP3    H224392   3.574   2.991   1.678 -1.1277 -0.2903 -1.0946
  945TIP3   OH224393   0.038   5.888   0.193  0.3983  0.6648 -0.2721
  945TIP3    H124394  -0.031   5.839   0.239  0.3832  0.8392 -0.1101
  945TIP3    H224395   0.007   5.978   0.193  1.1762  0.9552  0.8543
  946TIP3   OH224396   5.426   0.496   3.405  0.3820 -0.3910  0.3151
  946TIP3    H124397   5.389   0.467   3.488  2.9481  2.0687  2.5182
  946TIP3    H224398   5.480   0.423   3.376 -1.4301 -1.7212  0.1045
  947TIP3   OH224399   2.760   1.136   2.540  0.2949  0.7231  0.2980
  947TIP3    H124400   2.679   1.084   2.543 -0.2354  1.5435  0.4614
  947TIP3    H224401   2.809   1.107   2.617  0.0760  0.3478  0.3015
  948TIP3   OH224402   6.762   2.584   1.026 -0.0656 -0.3086  0.5349
  948TIP3    H124403   6.721   2.544   0.950  2.3108  1.3295 -1.7633
  948TIP3    H224404   6.856   2.583   1.007  0.5701  0.8675  3.1031
  949TIP3   OH224405   5.334   0.451   0.875  0.0618 -0.5467  0.2479
  949TIP3    H124406   5.316   0.367   0.916  2.3940 -1.5768 -0.6144
  949TIP3    H224407   5.353   0.510   0.947 -0.3472 -1.1129  0.8229
  950TIP3   OH224408   0.732   5.175   2.266 -0.4268  0.1539 -0.5094
  950TIP3    H124409   0.666   5.212   2.207 -0.9221  0.1219  0.0063
  950TIP3    H224410   0.739   5.083   2.239 -1.5928 -0.1949  0.2709
  951TIP3   OH224411   6.351   4.073   1.017 -0.3188 -0.1126  0.4352
  951TIP3    H124412   6.433   4.116   0.994 -0.6915  0.5767  0.3926
  951TIP3    H224413   6.373   4.021   1.095  0.1321  0.1264  0.4725
  952TIP3   OH224414   3.653   1.866   0.286  0.2779  0.3410  0.1358
  952TIP3    H124415   3.606   1.788   0.256  0.1580 -0.3250  1.9298
  952TIP3    H224416   3.646   1.928   0.214  1.4429 -1.7286 -1.8854
  953TIP3   OH224417   2.968   5.211   3.001  0.1179 -0.0279 -0.1941
  953TIP3    H124418   3.002   5.295   2.971 -1.1114  1.3876  2.1815
  953TIP3    H224419   2.879   5.208   2.967  0.2845 -0.5996 -0.6078
  954TIP3   OH224420   4.888   1.529   7.807  0.0612  0.2193  0.2437
  954TIP3    H124421   4.856   1.526   7.717  1.3303 -0.7248 -0.2106
  954TIP3    H224422   4.950   1.602   7.808  1.4819 -0.9421 -0.1859
  955TIP3   OH224423   4.067   5.777   2.228 -0.0081  0.2513  0.3685
  955TIP3    H124424   4.017   5.800   2.307  0.0765 -0.9686  0.8058
  955TIP3    H224425   4.135   5.717   2.259 -0.2318 -0.5841 -0.6790
  956TIP3   OH224426   3.968   0.813   1.313 -0.3685  0.1372 -0.6243
  956TIP3    H124427   3.973   0.793   1.406 -1.3106  0.5166 -0.4850
  956TIP3    H224428   4.056   0.843   1.290 -0.0189 -0.3546  0.0389
  957TIP3   OH224429   1.874   6.534   1.063 -0.0771  0.2847 -0.2837
  957TIP3    H124430   1.902   6.517   1.153 -1.2362  0.4275  0.1203
  957TIP3    H224431   1.782   6.505   1.060 -0.6914  2.1286 -0.8517
  958TIP3   OH224432   0.479   1.774   7.251 -0.1679  0.3959  0.5208
  958TIP3    H124433   0.506   1.684   7.234  1.5431  1.0071 -0.2970
  958TIP3    H224434   0.495   1.820   7.168 -0.4970  1.5482  1.0768
  959TIP3   OH224435   3.223   1.922   2.889 -0.1177  0.2742 -0.4726
  959TIP3    H124436   3.153   1.863   2.863 -0.8280  0.8593  0.0818
  959TIP3    H224437   3.200   2.006   2.849  0.2068  0.4994 -0.1936
  960TIP3   OH224438   0.407   2.611   0.059  0.1437 -0.1493 -0.1049
  960TIP3    H124439   0.425   2.588   0.150  0.3422 -1.1208 -0.3708
  960TIP3    H224440   0.463   2.553   0.008 -1.0446 -0.6734 -0.8705
  961TIP3   OH224441   6.473   6.020   7.666 -0.2221  0.0219 -0.2316
  961TIP3    H124442   6.569   6.024   7.656 -0.1209 -0.2521  0.5422
  961TIP3    H224443   6.439   6.039   7.579  0.5070  1.5046 -0.2253
  962TIP3   OH224444   2.733   6.639   7.708  0.0246  0.3340  0.1516
  962TIP3    H124445   2.765   6.702   7.643  1.1696 -0.3350  0.0435
  962TIP3    H224446   2.674   6.582   7.660  0.4224  0.1975 -0.1836
  963TIP3   OH224447   3.072   3.159   1.151  0.1521  0.7185 -0.0221
  963TIP3    H124448   3.154   3.115   1.175  1.1018  2.1281 -0.5309
  963TIP3    H224449   3.008   3.088   1.143  1.3044 -0.4150  0.4269
  964TIP3   OH224450   4.543   2.487   2.035 -0.4157  0.3450  0.1527
  964TIP3    H124451   4.574   2.454   1.951 -2.5281 -0.2921 -0.4326
  964TIP3    H224452   4.609   2.551   2.062  1.9688 -1.7129 -0.4319
  965TIP3   OH224453   2.277   3.588   7.100 -0.1393 -0.8669  0.3082
  965TIP3    H124454   2.313   3.531   7.167  0.9183 -1.1349 -0.4526
  965TIP3    H224455   2.189   3.555   7.084  0.8639 -3.1048 -0.9821
  966TIP3   OH224456   0.628   4.531   8.208 -0.0303 -0.3990  0.4976
  966TIP3    H124457   0.640   4.473   8.133 -1.8220  0.7431 -0.7839
  966TIP3    H224458   0.609   4.617   8.168  0.5360  0.6039  2.2909
  967TIP3   OH224459   4.257   6.318   2.871  0.2053 -0.1440 -0.0741
  967TIP3    H124460   4.169   6.356   2.866 -1.0184 -2.7841 -0.4218
  967TIP3    H224461   4.270   6.276   2.786  1.9352  0.3946 -0.1110
  968TIP3   OH224462   4.036   4.046   7.564 -0.5132  0.5282  0.0148
  968TIP3    H124463   4.100   4.028   7.633  0.7296  2.6068 -0.5143
  968TIP3    H224464   4.085   4.036   7.483 -1.0553  1.4464 -0.4392
  969TIP3   OH224465   4.400   2.933   8.097  0.8693  0.0010  0.6528
  969TIP3    H124466   4.348   2.855   8.081  1.3157 -0.0927 -0.4486
  969TIP3    H224467   4.336   3.004   8.104  0.5875 -0.0936 -0.7722
  970TIP3   OH224468   1.868   4.724   2.490  1.3821  0.1215 -0.3728
  970TIP3    H124469   1.923   4.786   2.442  2.5243 -0.0154  0.6945
  970TIP3    H224470   1.927   4.685   2.555  0.1032 -0.2960  0.5847
  971TIP3   OH224471   4.387   0.722   0.928  0.8572  0.2782  0.1244
  971TIP3    H124472   4.433   0.781   0.989  1.0557 -2.1652  2.5794
  971TIP3    H224473   4.294   0.736   0.946  0.8781  0.5755 -0.0120
  972TIP3   OH224474   0.236   4.069   0.783  0.7355  0.2768  0.1674
  972TIP3    H124475   0.155   4.110   0.753  0.7048 -1.0836 -1.8152
  972TIP3    H224476   0.298   4.082   0.712  2.5424  1.8244  1.8938
  973TIP3   OH224477   2.226   5.199   2.447  0.3072 -0.1316  0.0645
  973TIP3    H124478   2.240   5.131   2.512  2.2970 -1.0176 -1.1973
  973TIP3    H224479   2.291   5.266   2.467 -0.7454  0.8142  0.4722
  974TIP3   OH224480   6.899   5.648   2.199 -0.5844  0.1818  0.0537
  974TIP3    H124481   6.824   5.592   2.181 -0.1151 -0.1761 -0.8096
  974TIP3    H224482   6.969   5.588   2.225 -0.7251  0.5502  1.3740
  975TIP3   OH224483   2.405   1.461   7.013  0.1815 -0.1627  0.3254
  975TIP3    H124484   2.405   1.450   7.108 -0.2251  2.2510  0.6874
  975TIP3    H224485   2.494   1.439   6.986  1.5575  2.8275  1.8911
  976TIP3   OH224486   1.865   6.873   1.660  0.5002 -0.1810  0.1739
  976TIP3    H124487   1.869   6.827   1.744  1.0525  0.1452  0.3332
  976TIP3    H224488   1.940   6.933   1.662 -1.1109  1.9572  0.6853
  977TIP3   OH224489   0.634   6.711   8.126  0.6865  0.0022 -0.4933
  977TIP3    H124490   0.599   6.754   8.048  0.2191  0.4285 -0.0591
  977TIP3    H224491   0.572   6.640   8.144  0.2604  0.4992  0.0368
  978TIP3   OH224492   3.706   5.807   2.118  0.2585 -0.2419  0.2889
  978TIP3    H124493   3.673   5.876   2.059 -2.4297 -0.9108  0.8470
  978TIP3    H224494   3.731   5.736   2.059 -1.9696 -0.7276 -0.1875
  979TIP3   OH224495   1.425   0.324   8.380 -0.5210 -0.0164 -0.1302
  979TIP3    H124496   1.380   0.385   8.321 -3.1942  0.7667  2.4873
  979TIP3    H224497   1.375   0.243   8.373  0.4128 -0.5909 -0.3966
  980TIP3   OH224498   6.877   6.401   2.006  0.1536 -0.0310  0.8437
  980TIP3    H124499   6.875   6.483   1.957  1.2164 -0.3284  0.2670
  980TIP3    H224500   6.788   6.391   2.040 -0.7749 -0.0948 -1.4619
  981TIP3   OH224501   3.440   3.749   1.362  0.1388  0.1985 -0.5481
  981TIP3    H124502   3.356   3.795   1.356 -0.1424 -0.2058  0.1988
  981TIP3    H224503   3.483   3.788   1.438  0.4625  0.1375 -0.6988
  982TIP3   OH224504   2.662   1.825   8.430 -0.2195 -0.1338  0.0296
  982TIP3    H124505   2.740   1.839   8.484 -1.8340  0.1201  2.4653
  982TIP3    H224506   2.625   1.743   8.463 -2.7117  1.3664  1.3273
  983TIP3   OH224507   2.398   1.948   7.827 -0.4508 -0.4346 -0.3016
  983TIP3    H124508   2.448   1.992   7.758 -0.5491 -0.3086 -0.2938
  983TIP3    H224509   2.313   1.930   7.787 -0.4345 -0.5530 -0.2816
  984TIP3   OH224510   2.539   4.838   0.285 -0.5630 -0.3546 -0.3477
  984TIP3    H124511   2.561   4.926   0.252  0.6725 -0.7421 -0.6053
  984TIP3    H224512   2.544   4.782   0.208  0.1852 -0.9100  0.0989
  985TIP3   OH224513   5.796   3.060   1.807 -0.8101  0.0050 -0.6871
  985TIP3    H124514   5.757   3.136   1.852 -0.8082  0.1724 -0.9673
  985TIP3    H224515   5.817   2.999   1.878 -1.2097  0.0837 -0.4980
  986TIP3   OH224516   2.982   2.339   0.161  0.6495 -0.3266  0.4966
  986TIP3    H124517   2.975   2.417   0.216 -0.0871  0.1295 -0.2273
  986TIP3    H224518   2.892   2.322   0.132  1.1022 -0.2126 -1.0401
  987TIP3   OH224519   0.416   3.128   1.208 -0.1967 -0.1422  0.4103
  987TIP3    H124520   0.363   3.136   1.287  0.7632  0.5894  1.0037
  987TIP3    H224521   0.459   3.213   1.199  1.6370 -0.9937  0.5399
  988TIP3   OH224522   6.508   6.937   7.011  0.3808  0.3701 -0.4992
  988TIP3    H124523   6.543   6.856   7.049  0.3227  0.4447 -0.2879
  988TIP3    H224524   6.453   6.974   7.080 -0.0669  0.2872 -0.8061
  989TIP3   OH224525   5.302   2.275   7.571 -0.3451 -0.1678 -0.4248
  989TIP3    H124526   5.290   2.195   7.521  0.1305 -2.6904  3.0571
  989TIP3    H224527   5.224   2.281   7.625 -0.0679  1.3654 -0.1685
  990TIP3   OH224528   4.008   4.260   7.312  0.7162  0.6790 -0.2871
  990TIP3    H124529   3.951   4.242   7.238  0.9476 -2.8397  0.2293
  990TIP3    H224530   4.082   4.200   7.302  0.6790 -0.0731  2.8048
  991TIP3   OH224531   5.624   1.529   1.541 -0.2210  0.1980 -0.2828
  991TIP3    H124532   5.621   1.528   1.445 -0.7771  0.9764 -0.2869
  991TIP3    H224533   5.562   1.598   1.566 -1.5344 -1.2695  0.7059
  992TIP3   OH224534   6.360   3.600   0.141 -0.0828 -0.4022  0.0817
  992TIP3    H124535   6.390   3.583   0.230 -0.9844  0.1402  0.5112
  992TIP3    H224536   6.408   3.538   0.086  2.4810  1.0259  0.5749
  993TIP3   OH224537   3.829   1.042   1.500 -0.8236  0.1477 -0.0865
  993TIP3    H124538   3.836   1.091   1.418 -0.1099  0.2425  0.0321
  993TIP3    H224539   3.910   0.993   1.507  0.1753  1.8881  1.6817
  994TIP3   OH224540   6.931   6.746   8.332 -0.5310  0.1372 -0.3294
  994TIP3    H124541   6.974   6.698   8.261  0.6227 -1.4053  1.3080
  994TIP3    H224542   6.853   6.694   8.352  0.4166 -0.8638  1.0580
  995TIP3   OH224543   5.801   6.791   8.354 -0.7497 -0.2824  0.3024
  995TIP3    H124544   5.745   6.824   8.424 -1.2834 -1.6035  0.5159
  995TIP3    H224545   5.855   6.724   8.396 -0.5770 -0.5942 -0.4041
  996TIP3   OH224546   2.222   1.383   0.946 -0.0830  0.1981  0.5471
  996TIP3    H124547   2.136   1.422   0.934  0.3327  0.8242 -0.6266
  996TIP3    H224548   2.205   1.290   0.964 -0.9783 -0.0496 -1.3195
  997TIP3   OH224549   4.692   0.702   2.065 -0.1475 -0.0691  0.1913
  997TIP3    H124550   4.769   0.656   2.031 -1.8461 -1.3958 -2.1712
  997TIP3    H224551   4.702   0.792   2.035  0.3999 -0.2949 -0.3221
  998TIP3   OH224552   0.495   2.539   8.040 -0.1789 -0.1977 -0.3210
  998TIP3    H124553   0.439   2.487   8.097  1.0560 -0.3211  0.8356
  998TIP3    H224554   0.580   2.495   8.044  0.7116  1.4924  0.1327
  999TIP3   OH224555   4.341   1.771   7.224 -0.0009  0.0298  0.1589
  999TIP3    H124556   4.339   1.690   7.174  1.8884 -0.4235  0.7347
  999TIP3    H224557   4.292   1.833   7.171  0.5499 -0.8605 -1.4791
 1000TIP3   OH224558   6.822   1.142   0.998  0.0415  0.3920 -0.1559
 1000TIP3    H124559   6.760   1.190   0.944  0.2483 -0.1631 -0.9040
 1000TIP3    H224560   6.908   1.172   0.969  0.1850 -0.5948 -0.8267
 1001TIP3   OH224561   3.710   6.413   1.054  0.1027 -0.4883  0.4197
 1001TIP3    H124562   3.658   6.492   1.040 -0.1789 -0.7699 -0.1766
 1001TIP3    H224563   3.793   6.430   1.010  0.2087 -0.3496  0.6757
 1002TIP3   OH224564   4.728   5.781   0.789 -0.2155 -0.2696  0.2706
 1002TIP3    H124565   4.653   5.738   0.749 -0.4022  1.0743 -0.8936
 1002TIP3    H224566   4.696   5.867   0.815  0.5834 -0.1749  1.0037
 1003TIP3   OH224567   6.064   1.380   8.100 -0.7872 -0.2168  1.1650
 1003TIP3    H124568   6.144   1.327   8.101  0.2259  1.2535  1.0308
 1003TIP3    H224569   6.024   1.362   8.015 -1.6607 -2.4268  1.9694
 1004TIP3   OH224570   5.648   4.406   1.133 -0.6831  0.2043 -0.1248
 1004TIP3    H124571   5.728   4.365   1.099 -1.1965 -0.4833 -0.5420
 1004TIP3    H224572   5.587   4.403   1.059 -1.2658  0.2390  0.3478
 1005TIP3   OH224573   4.926   1.215   0.828  0.3566 -0.1470 -0.2376
 1005TIP3    H124574   4.832   1.232   0.837  0.7365  1.7970  0.4748
 1005TIP3    H224575   4.944   1.228   0.735  0.1510  0.8120 -0.1485
 1006TIP3   OH224576   4.773   2.316   0.921 -0.2751  0.5826 -0.3787
 1006TIP3    H124577   4.793   2.250   0.855 -0.5050  0.4775 -0.3444
 1006TIP3    H224578   4.758   2.265   1.001  2.7856  0.8265  0.4855
 1007TIP3   OH224579   3.866   2.981   7.839 -0.0305 -0.4675  0.7869
 1007TIP3    H124580   3.960   2.964   7.828 -0.1189 -0.8399  0.6141
 1007TIP3    H224581   3.824   2.897   7.823 -0.4161 -0.2426  0.6079
 1008TIP3   OH224582   0.802   0.844   2.100 -0.2090  0.3517 -0.3250
 1008TIP3    H124583   0.812   0.754   2.070 -2.1321  0.8351 -2.7037
 1008TIP3    H224584   0.885   0.886   2.078 -0.4700 -0.0894 -2.2754
 1009TIP3   OH224585   4.931   5.180   0.502  0.0812 -1.1496 -0.1777
 1009TIP3    H124586   4.997   5.237   0.463 -0.0467  0.4276  1.7677
 1009TIP3    H224587   4.982   5.118   0.554  0.0947 -0.6374  0.4293
 1010TIP3   OH224588   5.742   2.080   1.583  0.4115  0.8242  0.4771
 1010TIP3    H124589   5.818   2.022   1.577 -1.2663 -1.7487  2.1319
 1010TIP3    H224590   5.716   2.096   1.493  1.3303 -0.4781 -0.0423
 1011TIP3   OH224591   4.350   4.993   8.257 -0.3534 -0.1191 -0.4064
 1011TIP3    H124592   4.355   5.087   8.274  0.1063 -0.1029 -0.6337
 1011TIP3    H224593   4.285   4.985   8.187  0.2680  0.1070 -1.0142
 1012TIP3   OH224594   4.976   2.130   3.026  0.1747 -0.2073  0.0870
 1012TIP3    H124595   4.976   2.154   2.933 -0.1585 -0.1383  0.1026
 1012TIP3    H224596   5.000   2.037   3.027  0.6142 -0.1003 -0.0348
 1013TIP3   OH224597   0.625   5.890   2.342  0.0267  0.2002 -0.3960
 1013TIP3    H124598   0.601   5.852   2.426 -1.5493 -0.7204 -1.2188
 1013TIP3    H224599   0.706   5.845   2.317 -0.0028 -0.1923  0.2003
 1014TIP3   OH224600   4.510   5.819   0.329 -0.1844  0.6215  0.2038
 1014TIP3    H124601   4.541   5.878   0.261 -0.5002 -0.3142 -0.7730
 1014TIP3    H224602   4.452   5.758   0.284 -0.3480 -0.0670  1.2981
 1015TIP3   OH224603   4.152   0.828   8.161 -0.0914  0.4793 -0.1278
 1015TIP3    H124604   4.243   0.853   8.149  0.0417 -0.1200 -0.4218
 1015TIP3    H224605   4.102   0.908   8.143  0.2770  0.3634 -1.8564
 1016TIP3   OH224606   0.762   4.151   1.047  0.1587  0.5712  0.0887
 1016TIP3    H124607   0.759   4.211   0.972  0.5641 -1.6269 -1.7799
 1016TIP3    H224608   0.789   4.207   1.120  1.6902  2.4777 -1.7784
 1017TIP3   OH224609   3.532   1.809   2.021  0.2798  0.6984 -0.0994
 1017TIP3    H124610   3.484   1.886   2.051  0.3787  0.0530  1.8798
 1017TIP3    H224611   3.464   1.742   2.009  0.4116  0.4691  0.3879
 1018TIP3   OH224612   5.973   6.300   0.968  0.4350 -0.4182 -0.0138
 1018TIP3    H124613   5.909   6.236   0.936 -0.9896  1.1238 -0.3626
 1018TIP3    H224614   6.031   6.314   0.893  0.3498 -0.8179 -0.1576
 1019TIP3   OH224615   5.212   4.172   7.740  0.1009 -0.3008 -0.4504
 1019TIP3    H124616   5.178   4.259   7.719  1.1849  0.1320 -0.4596
 1019TIP3    H224617   5.197   4.120   7.661 -1.1061 -0.3075 -0.2327
 1020TIP3   OH224618   4.668   5.871   6.973  0.6414 -0.7363  0.0510
 1020TIP3    H124619   4.760   5.852   6.993  0.6769  0.2652  0.9097
 1020TIP3    H224620   4.643   5.803   6.911  1.5894 -1.7834  0.7825
 1021TIP3   OH224621   4.227   4.526   7.147  0.4068  0.0337 -0.7607
 1021TIP3    H124622   4.316   4.537   7.113  0.4481 -0.7731 -0.9351
 1021TIP3    H224623   4.184   4.470   7.082 -0.1785  0.2748 -0.5871
 1022TIP3   OH224624   3.629   5.285   2.327 -0.1536 -0.1003  0.6722
 1022TIP3    H124625   3.618   5.308   2.419  1.8101  4.2213  0.0506
 1022TIP3    H224626   3.675   5.359   2.289  3.7701 -3.7878 -2.8036
 1023TIP3   OH224627   0.494   0.343   1.529  0.1982 -0.3865  0.1101
 1023TIP3    H124628   0.525   0.287   1.601 -0.9170  2.0835  2.6774
 1023TIP3    H224629   0.399   0.334   1.532  0.1504 -2.0322 -2.7340
 1024TIP3   OH224630   1.870   3.027   0.422 -0.0295 -0.7241 -0.4649
 1024TIP3    H124631   1.829   2.943   0.446  0.0653 -0.2471  1.5757
 1024TIP3    H224632   1.927   3.047   0.496 -0.0706  1.1669 -0.9039
 1025TIP3   OH224633   5.864   2.775   8.363  0.4056  0.0740 -0.2214
 1025TIP3    H124634   5.844   2.783   8.456 -1.0348 -1.7743 -0.3230
 1025TIP3    H224635   5.866   2.681   8.346  0.1408  0.3703 -2.1491
 1026TIP3   OH224636   2.928   3.448   2.088  0.5420 -0.6815 -0.1401
 1026TIP3    H124637   2.984   3.493   2.151 -1.1565 -0.1858  1.0819
 1026TIP3    H224638   2.880   3.519   2.044 -1.2317 -1.1457  0.9156
 1027TIP3   OH224639   6.195   6.694   7.750  0.3705  0.0597  0.2150
 1027TIP3    H124640   6.227   6.637   7.820  1.6185  0.0233 -0.3524
 1027TIP3    H224641   6.100   6.680   7.749  0.3389 -0.0237  1.8039
 1028TIP3   OH224642   5.132   0.023   1.513  0.1607 -0.3806 -0.1672
 1028TIP3    H124643   5.148   0.117   1.524 -1.0427  0.1330 -2.2338
 1028TIP3    H224644   5.209  -0.009   1.466  0.5626 -0.4355  0.5201
 1029TIP3   OH224645   5.010   5.780   7.769 -0.1740  0.5462  0.3206
 1029TIP3    H124646   5.088   5.829   7.794  0.0137  1.2063 -1.3826
 1029TIP3    H224647   5.043   5.699   7.731 -0.4238 -0.1966  1.6517
 1030TIP3   OH224648   4.782   0.307   8.398 -0.5808 -0.5333  0.1741
 1030TIP3    H124649   4.782   0.396   8.364 -0.1379 -0.8554 -0.6927
 1030TIP3    H224650   4.814   0.316   8.488  0.8656  0.0195 -0.3732
 1031TIP3   OH224651   5.855   1.415   3.317 -0.2461 -0.1468 -0.1930
 1031TIP3    H124652   5.930   1.401   3.375 -0.5284  1.8329  0.7442
 1031TIP3    H224653   5.800   1.478   3.364 -0.8723  0.9585 -2.2757
 1032TIP3   OH224654   3.458   2.269   8.393 -0.8770 -0.3547 -0.3129
 1032TIP3    H124655   3.389   2.335   8.387 -0.9990  0.0777  3.4457
 1032TIP3    H224656   3.413   2.191   8.427  0.4150 -0.0267  2.3263
 1033TIP3   OH224657   3.807   3.571   1.371  0.4042  0.2194  0.1799
 1033TIP3    H124658   3.860   3.494   1.390  0.9636  0.6014  0.1945
 1033TIP3    H224659   3.764   3.551   1.288  0.6882 -0.0361  0.0912
 1034TIP3   OH224660   4.218   5.796   0.490  0.3259  0.2852 -0.1302
 1034TIP3    H124661   4.203   5.825   0.400 -0.4458  1.4475  0.3561
 1034TIP3    H224662   4.265   5.868   0.531 -0.9508  0.5793  0.8842
 1035TIP3   OH224663   1.879   4.340   8.391  0.2210 -0.1097 -0.1718
 1035TIP3    H124664   1.913   4.344   8.480  2.0967 -0.9044 -0.7969
 1035TIP3    H224665   1.810   4.406   8.388  0.8690  0.6882  1.5554
 1036TIP3   OH224666   0.395   6.504   8.167  0.0255  0.0065  0.1594
 1036TIP3    H124667   0.325   6.522   8.229  0.1036  2.3428 -0.3071
 1036TIP3    H224668   0.460   6.454   8.216 -1.2002 -0.7219  1.0736
 1037TIP3   OH224669   5.259   0.955   2.420  0.7481  0.6575  0.2943
 1037TIP3    H124670   5.179   0.908   2.397 -0.2202  2.3697 -0.0694
 1037TIP3    H224671   5.314   0.947   2.342  0.7151 -0.0888  0.3424
 1038TIP3   OH224672   3.547   4.089   1.194 -0.1357  0.1969  0.2774
 1038TIP3    H124673   3.585   4.016   1.243 -2.4428 -1.5474 -0.3477
 1038TIP3    H224674   3.603   4.098   1.117  1.2155  0.3594  1.2239
 1039TIP3   OH224675   2.073   6.310   0.293 -0.4271 -0.3921 -0.2859
 1039TIP3    H124676   2.162   6.341   0.273 -0.8436  1.9460  1.0668
 1039TIP3    H224677   2.080   6.272   0.380 -0.7450 -0.1537 -0.1526
 1040TIP3   OH224678   1.669   0.271   1.846  0.1382  0.4290  0.6248
 1040TIP3    H124679   1.640   0.181   1.866 -1.9850  0.5417 -1.4495
 1040TIP3    H224680   1.603   0.304   1.785  2.9307  2.0590 -1.7690
 1041TIP3   OH224681   1.508   1.388   1.130 -0.2848 -0.0124  0.3149
 1041TIP3    H124682   1.416   1.373   1.109 -0.2446  0.1265  0.0419
 1041TIP3    H224683   1.514   1.482   1.144 -0.1566 -0.0025  0.1948
 1042TIP3   OH224684   6.473   2.944   1.170  0.6413  0.4132 -0.1734
 1042TIP3    H124685   6.459   3.004   1.242  0.2486 -0.7485  0.7439
 1042TIP3    H224686   6.555   2.899   1.191  0.5241  0.0621 -0.4508
 1043TIP3   OH224687   3.552   2.069   0.454  0.1040 -0.0587 -0.3016
 1043TIP3    H124688   3.584   1.981   0.435 -0.6147 -0.3956 -0.0042
 1043TIP3    H224689   3.630   2.117   0.483  0.0645 -1.4479  2.5546
 1044TIP3   OH224690   4.612   0.045   1.358  0.2907 -0.7129 -0.1743
 1044TIP3    H124691   4.616  -0.027   1.296  0.1960 -1.0458  0.2018
 1044TIP3    H224692   4.691   0.035   1.412  0.8163  0.0684 -0.7774
 1045TIP3   OH224693   2.462   1.839   7.399 -0.0109  0.0948 -0.0688
 1045TIP3    H124694   2.374   1.807   7.381 -0.9063  2.4179 -0.1540
 1045TIP3    H224695   2.512   1.760   7.420 -2.1502 -1.2667  0.2635
 1046TIP3   OH224696   6.673   0.006   2.339 -0.0822 -0.6380 -0.3819
 1046TIP3    H124697   6.708   0.055   2.265 -1.5160  0.7709 -0.1575
 1046TIP3    H224698   6.750  -0.016   2.391  0.5825  1.9281 -0.1639
 1047TIP3   OH224699   3.907   6.037   2.171 -0.4665 -0.6141 -0.1981
 1047TIP3    H124700   3.917   5.992   2.254 -0.2983  1.2817  0.8526
 1047TIP3    H224701   3.850   5.979   2.119 -1.7509 -1.1603  1.7328
 1048TIP3   OH224702   2.690   3.584   1.674  0.3403  0.2289 -0.5705
 1048TIP3    H124703   2.637   3.600   1.596 -0.3769 -0.0037 -0.1391
 1048TIP3    H224704   2.661   3.499   1.706  2.1114 -0.6943 -1.2270
 1049TIP3   OH224705   3.309   4.071   7.833 -0.2769  0.1746  0.3783
 1049TIP3    H124706   3.213   4.072   7.836 -0.2912  0.1318  0.0310
 1049TIP3    H224707   3.330   3.992   7.782 -0.0782  0.5391 -0.1094
 1050TIP3   OH224708   1.525   1.350   2.182 -0.2738 -0.4751  0.0734
 1050TIP3    H124709   1.569   1.335   2.266 -0.3164 -1.0575 -0.0050
 1050TIP3    H224710   1.591   1.394   2.128  0.3546 -1.6967 -0.1718
 1051TIP3   OH224711   4.889   5.383   1.763  0.2566 -0.6963 -0.0651
 1051TIP3    H124712   4.972   5.335   1.765  0.4796 -0.3684 -0.9223
 1051TIP3    H224713   4.886   5.431   1.846  0.7566 -0.9785  0.1180
 1052TIP3   OH224714   2.611   2.853   2.640 -0.2375 -0.0628  0.4086
 1052TIP3    H124715   2.670   2.923   2.667 -0.5814 -0.2925  1.8868
 1052TIP3    H224716   2.644   2.775   2.684  0.3139 -0.9281 -1.4513
 1053TIP3   OH224717   6.208   5.008   2.790  0.3960 -0.1818 -0.4619
 1053TIP3    H124718   6.135   4.954   2.820  0.3269 -0.1515 -0.5780
 1053TIP3    H224719   6.172   5.062   2.721  0.6284 -0.4438 -0.7906
 1054TIP3   OH224720   2.524   4.564   1.883 -0.2143 -0.0308 -1.1507
 1054TIP3    H124721   2.607   4.568   1.834  0.8929  1.1301  0.6955
 1054TIP3    H224722   2.481   4.646   1.863  0.6512  0.8497  0.4107
 1055TIP3   OH224723   1.976   5.474   2.039 -0.0305 -0.4187  0.2960
 1055TIP3    H124724   1.984   5.406   2.106 -0.2816 -0.4354  0.3095
 1055TIP3    H224725   2.067   5.493   2.014  0.0423 -0.7275  0.3205
 1056TIP3   OH224726   3.401   0.258   7.847  0.0788  0.2250 -0.3952
 1056TIP3    H124727   3.422   0.190   7.911  1.1057 -0.0060 -0.9603
 1056TIP3    H224728   3.321   0.299   7.881 -0.1032 -0.7274  0.3648
 1057TIP3   OH224729   6.536   5.950   2.373 -0.0350 -0.2089  0.1299
 1057TIP3    H124730   6.467   5.956   2.440  0.4262 -2.8707  0.9538
 1057TIP3    H224731   6.490   5.964   2.291 -0.8030  2.0819  0.8569
 1058TIP3   OH224732   2.660   5.482   0.965 -0.1294  0.2109  0.2566
 1058TIP3    H124733   2.735   5.424   0.949  1.0472  1.4298  1.1039
 1058TIP3    H224734   2.627   5.504   0.878  0.7923  0.0128 -0.1541
 1059TIP3   OH224735   3.254   0.929   7.925 -0.8931  0.2744 -0.0260
 1059TIP3    H124736   3.252   1.009   7.872  2.1502  0.4648 -0.0388
 1059TIP3    H224737   3.296   0.865   7.868 -2.4867 -1.1516  0.3173
 1060TIP3   OH224738   3.843   6.203   7.752 -0.2754  0.2600  0.1233
 1060TIP3    H124739   3.885   6.289   7.742  0.9637 -0.4099 -0.7763
 1060TIP3    H224740   3.847   6.165   7.664 -2.7618  0.1270  0.0164
 1061TIP3   OH224741   3.141   5.663   1.995 -0.6593 -0.2053  0.1591
 1061TIP3    H124742   3.191   5.619   1.926 -0.2451 -2.9542  2.0439
 1061TIP3    H224743   3.196   5.737   2.020  0.5120 -0.7697 -0.6107
 1062TIP3   OH224744   5.168   6.131   7.282  0.5893 -0.6491 -0.1164
 1062TIP3    H124745   5.156   6.197   7.213  1.7117 -0.9976 -0.6585
 1062TIP3    H224746   5.244   6.080   7.255  0.3909 -1.4976  0.8393
 1063TIP3   OH224747   6.932   0.500   1.412  0.4261 -0.0228 -0.3900
 1063TIP3    H124748   6.838   0.520   1.417  0.4834  0.2327 -0.3096
 1063TIP3    H224749   6.965   0.517   1.500  0.6774  0.5675 -0.5922
 1064TIP3   OH224750   3.640   1.686   2.242 -0.5995 -0.1185 -0.3564
 1064TIP3    H124751   3.730   1.718   2.240  0.1179 -1.9542  0.1573
 1064TIP3    H224752   3.617   1.674   2.150 -0.7335  1.3435 -0.5402
 1065TIP3   OH224753   1.007   4.500   1.323 -0.1257  0.1707 -0.2468
 1065TIP3    H124754   1.101   4.490   1.336 -0.1845  0.7607  0.7489
 1065TIP3    H224755   0.998   4.576   1.266 -0.0020  0.1600 -0.2813
 1066TIP3   OH224756   6.920   1.904   2.832  0.3129 -0.1727 -0.5665
 1066TIP3    H124757   6.828   1.919   2.811  0.7518  1.2834 -1.5692
 1066TIP3    H224758   6.967   1.975   2.788  1.7798 -0.0217  1.1224
 1067TIP3   OH224759   2.244   5.754   7.770 -0.0986 -0.2960  0.5967
 1067TIP3    H124760   2.272   5.667   7.797 -0.0840  0.3171  2.7290
 1067TIP3    H224761   2.149   5.750   7.768 -0.1222 -0.2041  1.3279
 1068TIP3   OH224762   4.171   5.785   7.844 -0.3640  0.4834 -0.0345
 1068TIP3    H124763   4.124   5.840   7.780  0.9933 -0.1400 -1.6416
 1068TIP3    H224764   4.102   5.735   7.888 -1.3438  0.8798 -1.0707
 1069TIP3   OH224765   6.707   3.109   0.598  0.4486 -0.2752  0.3648
 1069TIP3    H124766   6.794   3.071   0.598  0.4149 -0.3521  0.4158
 1069TIP3    H224767   6.664   3.070   0.522  0.3364 -0.5186  0.5509
 1070TIP3   OH224768   4.318   1.144   0.052  0.6294  0.1243 -0.2201
 1070TIP3    H124769   4.273   1.177  -0.026 -0.7186 -1.1416 -0.0205
 1070TIP3    H224770   4.346   1.056   0.028  1.2118  0.1507  0.3565
 1071TIP3   OH224771   3.023   6.645   7.267  0.1958  0.3455 -1.1572
 1071TIP3    H124772   3.055   6.644   7.176 -1.5180  0.4397 -1.7970
 1071TIP3    H224773   2.935   6.608   7.262  1.3902 -3.3914  1.0591
 1072TIP3   OH224774   6.122   6.644   1.911  0.1716  0.1796  0.8390
 1072TIP3    H124775   6.111   6.724   1.962  0.5282  0.6753  0.1509
 1072TIP3    H224776   6.199   6.601   1.950 -0.1853  0.0171  1.3872
 1073TIP3   OH224777   6.054   3.265   1.946 -0.3621  0.0182 -0.0511
 1073TIP3    H124778   6.002   3.196   1.988  1.1035 -1.1816 -0.1196
 1073TIP3    H224779   6.129   3.219   1.908  1.3074  1.7619  0.9195
 1074TIP3   OH224780   3.359   1.369   0.793 -0.7980  0.3164  0.1809
 1074TIP3    H124781   3.360   1.359   0.698  0.3904 -0.0967  0.2123
 1074TIP3    H224782   3.279   1.325   0.822  0.4330 -2.4695 -0.3755
 1075TIP3   OH224783   3.831   4.737   7.860 -0.1481  0.0549  0.0518
 1075TIP3    H124784   3.779   4.704   7.787  0.1634  0.4038 -0.3284
 1075TIP3    H224785   3.863   4.822   7.831  0.5053 -0.0830  0.3447
 1076TIP3   OH224786   5.588   0.144   0.175  0.3204  0.8598 -0.1329
 1076TIP3    H124787   5.626   0.075   0.121  0.7197 -0.1942  1.4317
 1076TIP3    H224788   5.508   0.170   0.129  1.0058  0.5162 -1.5752
 1077TIP3   OH224789   2.234   1.638   0.886  0.1216 -0.6225 -0.3055
 1077TIP3    H124790   2.241   1.686   0.969 -0.6194  0.0236 -0.5966
 1077TIP3    H224791   2.253   1.547   0.909  0.8650 -0.3041  0.3936
 1078TIP3   OH224792   0.867   2.851   2.984  0.3209  0.7050 -0.1023
 1078TIP3    H124793   0.892   2.840   3.076  1.0462  0.1163 -0.3530
 1078TIP3    H224794   0.861   2.945   2.972  0.6178  0.8034  0.4512
 1079TIP3   OH224795   1.802   6.559   1.932  0.3867  0.3013  0.1835
 1079TIP3    H124796   1.826   6.633   1.987  0.8344 -0.8102  1.5392
 1079TIP3    H224797   1.832   6.582   1.844 -0.5045  2.1927  0.3367
 1080TIP3   OH224798   2.040   3.350   2.427  0.3587 -0.0241 -0.3646
 1080TIP3    H124799   2.104   3.377   2.493 -0.2308  0.1613  0.1460
 1080TIP3    H224800   1.973   3.417   2.431 -1.4836 -1.8048  1.3952
 1081TIP3   OH224801   1.345   1.180   2.054  0.2728  0.1455  0.1210
 1081TIP3    H124802   1.429   1.181   2.006 -0.3469 -2.2133 -1.1717
 1081TIP3    H224803   1.369   1.201   2.144  2.5598 -2.0696  0.1402
 1082TIP3   OH224804   2.300   1.415   1.999  0.1190  0.3734 -0.3581
 1082TIP3    H124805   2.245   1.376   1.931  1.5583 -0.6200 -0.9977
 1082TIP3    H224806   2.238   1.456   2.060 -1.3650 -1.3486 -0.6438
 1083TIP3   OH224807   3.361   6.528   7.823 -0.1113  0.2503 -0.6735
 1083TIP3    H124808   3.363   6.503   7.915  0.4915  0.4945 -0.6201
 1083TIP3    H224809   3.415   6.462   7.779  0.2734  0.6020 -0.7353
 1084TIP3   OH224810   1.570   6.586   0.094  0.0093 -0.0567 -0.7137
 1084TIP3    H124811   1.634   6.588   0.022  1.3190 -0.1816  0.4029
 1084TIP3    H224812   1.581   6.671   0.137 -1.1423  0.2310 -0.9456
 1085TIP3   OH224813   0.883   2.202   2.233  0.1822 -0.8330 -0.1688
 1085TIP3    H124814   0.925   2.120   2.257  2.9615  0.7727  0.9052
 1085TIP3    H224815   0.950   2.250   2.184 -1.9239  0.1824 -2.3104
 1086TIP3   OH224816   2.440   3.233   8.318  0.3820 -0.1792  0.0770
 1086TIP3    H124817   2.393   3.151   8.331 -0.0748  0.2580  1.2743
 1086TIP3    H224818   2.516   3.227   8.376  1.9622 -0.9363 -1.9347
 1087TIP3   OH224819   5.637   1.842   8.220  0.0056  0.1141 -0.1107
 1087TIP3    H124820   5.714   1.898   8.237 -0.7743  0.8871  1.0964
 1087TIP3    H224821   5.588   1.845   8.302 -1.4486 -0.1548 -0.9401
 1088TIP3   OH224822   1.987   3.353   0.685  0.4832  0.1505 -0.2990
 1088TIP3    H124823   1.894   3.366   0.670  0.4367 -0.1818 -0.3071
 1088TIP3    H224824   2.015   3.430   0.735  0.1920  0.2128 -0.2351
 1089TIP3   OH224825   4.893   6.358   0.157 -0.3998  0.0992  0.1778
 1089TIP3    H124826   4.873   6.360   0.063 -0.9289  0.1392  0.2860
 1089TIP3    H224827   4.985   6.383   0.163  0.1509 -1.6653 -0.4715
 1090TIP3   OH224828   1.194   6.414   0.594  0.2986 -0.6540  0.0611
 1090TIP3    H124829   1.151   6.495   0.566 -2.6878 -1.5074  1.6466
 1090TIP3    H224830   1.147   6.345   0.547 -0.0670 -1.6612  1.8138
 1091TIP3   OH224831   6.331   2.723   2.637 -0.0232 -0.1487 -0.7478
 1091TIP3    H124832   6.275   2.673   2.697 -0.6085 -0.0945 -1.2331
 1091TIP3    H224833   6.418   2.719   2.676 -0.7031  1.4691  1.1538
 1092TIP3   OH224834   5.639   0.580   7.027  1.0521  0.1797 -0.5185
 1092TIP3    H124835   5.590   0.514   6.979  1.0173 -0.8372  0.8873
 1092TIP3    H224836   5.589   0.595   7.107  1.5415  1.2393 -0.3906
 1093TIP3   OH224837   6.792   6.714   2.092  0.1848 -0.8888 -0.5011
 1093TIP3    H124838   6.866   6.684   2.039  0.3732 -0.1895 -0.6425
 1093TIP3    H224839   6.823   6.794   2.134  0.0090 -1.4026  0.6244
 1094TIP3   OH224840   1.096   5.934   7.989 -0.5345  0.4579 -0.4435
 1094TIP3    H124841   1.036   5.946   8.063 -0.9768  2.2599 -1.0250
 1094TIP3    H224842   1.183   5.945   8.027 -0.6910  0.0880  0.0279
 1095TIP3   OH224843   1.408   4.641   0.001  0.5560  0.7981 -0.1801
 1095TIP3    H124844   1.327   4.683   0.030  0.7773  0.7023  0.5952
 1095TIP3    H224845   1.403   4.552   0.037  1.0159  0.7972 -0.1137
 1096TIP3   OH224846   4.436   5.142   7.811 -0.0169 -0.2644 -0.2201
 1096TIP3    H124847   4.390   5.169   7.890  1.2065 -0.0964  0.4705
 1096TIP3    H224848   4.470   5.054   7.833  2.1395  0.6289  0.3008
 1097TIP3   OH224849   3.481   0.031   1.292  0.0904  0.5735  0.3941
 1097TIP3    H124850   3.445  -0.031   1.229  0.1414 -0.5202  1.3904
 1097TIP3    H224851   3.437   0.010   1.374  0.9812  1.0626  1.0243
 1098TIP3   OH224852   5.950   6.611   7.792  0.0649  0.3378 -0.5347
 1098TIP3    H124853   5.901   6.567   7.862  1.2034  2.0850  1.4905
 1098TIP3    H224854   5.882   6.648   7.735 -0.8906 -1.7021 -0.8278
 1099TIP3   OH224855   3.898   3.103   1.964  0.0137 -0.9051 -0.1812
 1099TIP3    H124856   3.915   3.009   1.966  0.3512 -0.8348  0.8365
 1099TIP3    H224857   3.803   3.110   1.972  0.0925 -1.1394  1.2068
 1100TIP3   OH224858   0.560   3.893   8.194  0.1292 -0.3573  0.2202
 1100TIP3    H124859   0.649   3.923   8.174 -0.2187 -0.7435 -2.1163
 1100TIP3    H224860   0.557   3.891   8.290  1.8878  1.8234  0.4002
 1101TIP3   OH224861   5.504   5.871   0.589 -0.2470  0.1225  0.5941
 1101TIP3    H124862   5.459   5.828   0.516  1.6890 -1.0135 -0.0061
 1101TIP3    H224863   5.523   5.800   0.651  3.9702 -0.3729 -0.9014
 1102TIP3   OH224864   0.523   2.672   0.318 -0.0202  0.0348 -0.1149
 1102TIP3    H124865   0.587   2.603   0.305  0.4806  0.3979  0.3973
 1102TIP3    H224866   0.481   2.652   0.402 -0.7259 -0.3112 -0.5383
 1103TIP3   OH224867   0.222   4.858   2.646  0.0304 -0.4578 -0.4838
 1103TIP3    H124868   0.190   4.936   2.691 -0.0239 -0.9944  0.4298
 1103TIP3    H224869   0.272   4.811   2.713  2.1412 -0.0001 -1.6526
 1104TIP3   OH224870   4.781   1.439   0.043 -0.0444  0.5269  0.0439
 1104TIP3    H124871   4.764   1.359   0.093 -1.1074  1.2688  0.9414
 1104TIP3    H224872   4.876   1.448   0.043  0.1126 -0.8893 -0.3532
 1105TIP3   OH224873   6.683   4.116   7.632  0.2801 -0.3699  0.0764
 1105TIP3    H124874   6.679   4.150   7.721  2.2198  1.3178 -0.4089
 1105TIP3    H224875   6.595   4.129   7.596  0.3535  2.1455  0.6660
 1106TIP3   OH224876   0.105   6.608   8.099 -0.1484  0.0563 -0.5434
 1106TIP3    H124877   0.132   6.518   8.116 -0.7506 -0.0381 -0.0432
 1106TIP3    H224878   0.031   6.600   8.040 -0.9626  0.1524  0.4418
 1107TIP3   OH224879   4.158   5.284   1.846  0.3819 -0.0663 -0.0917
 1107TIP3    H124880   4.149   5.193   1.872  0.1816 -0.2657 -0.8349
 1107TIP3    H224881   4.248   5.308   1.870  0.4418 -0.4659  0.0789
 1108TIP3   OH224882   4.350   5.991   0.600 -0.5670  0.3719  0.7779
 1108TIP3    H124883   4.367   5.951   0.686  0.5149  2.5725  1.6804
 1108TIP3    H224884   4.434   6.030   0.575 -1.1211  0.6228 -0.8330
 1109TIP3   OH224885   1.705   2.130   0.297 -0.3604  0.2658  0.6434
 1109TIP3    H124886   1.747   2.048   0.323  0.9654  0.3077 -1.2033
 1109TIP3    H224887   1.741   2.150   0.211 -0.7889  2.7016  0.9495
 1110TIP3   OH224888   6.527   6.431   8.283  0.2375  0.0458  0.0062
 1110TIP3    H124889   6.530   6.455   8.376  2.3795 -0.1673  0.0336
 1110TIP3    H224890   6.556   6.340   8.280  0.5680  0.1697 -0.8989
 1111TIP3   OH224891   1.123   4.897   0.754 -0.4315 -0.4551 -0.3583
 1111TIP3    H124892   1.086   4.979   0.722  1.6989 -0.0628 -2.0401
 1111TIP3    H224893   1.218   4.912   0.754 -0.0563 -2.5296  0.4746
 1112TIP3   OH224894   3.640   2.891   8.428  0.3443 -0.3938  0.3802
 1112TIP3    H124895   3.687   2.940   8.496  0.5873  0.7122 -0.5664
 1112TIP3    H224896   3.549   2.892   8.457  0.1576  1.5648 -0.1317
 1113TIP3   OH224897   4.517   6.631   1.922 -1.0930  0.1777 -0.0752
 1113TIP3    H124898   4.507   6.680   1.840 -1.1204 -0.6744 -0.5943
 1113TIP3    H224899   4.610   6.634   1.942 -0.9606 -0.3454 -0.6064
 1114TIP3   OH224900   5.269   1.884   1.492 -0.5123 -0.6487 -0.0088
 1114TIP3    H124901   5.267   1.878   1.397 -0.0966 -0.5747 -0.0242
 1114TIP3    H224902   5.321   1.962   1.510  0.3483 -1.2756  0.2905
 1115TIP3   OH224903   1.004   1.360   2.062  0.4781  0.5768 -0.2556
 1115TIP3    H124904   0.949   1.340   1.987  0.2275  0.3442 -0.0125
 1115TIP3    H224905   0.951   1.335   2.138  0.6239  1.0596  0.0103
 1116TIP3   OH224906   4.440   2.901   0.649 -0.8394  0.0948 -0.3090
 1116TIP3    H124907   4.468   2.989   0.625  0.4383  0.1692  1.2523
 1116TIP3    H224908   4.472   2.890   0.739 -0.0184 -2.3721 -0.8481
 1117TIP3   OH224909   0.997   3.119   0.836 -0.2793 -0.4851  0.4647
 1117TIP3    H124910   1.053   3.055   0.792  2.2254  0.7407  1.6842
 1117TIP3    H224911   0.972   3.180   0.766  1.8886  0.2476  0.2541
 1118TIP3   OH224912   2.474   6.375   6.774 -0.0449  0.1339 -0.2325
 1118TIP3    H124913   2.501   6.390   6.865 -1.3425 -0.9733  0.3624
 1118TIP3    H224914   2.549   6.328   6.736  0.4521  0.4659  0.3023
 1119TIP3   OH224915   5.573   1.862   0.523  0.6103  0.1589 -0.1518
 1119TIP3    H124916   5.646   1.841   0.464  0.9440 -0.1883  0.3752
 1119TIP3    H224917   5.496   1.857   0.467  0.9261 -0.1117 -0.5762
 1120TIP3   OH224918   5.965   0.402   0.455  0.2395  0.6357  0.1550
 1120TIP3    H124919   6.019   0.451   0.394 -0.6497  0.9265 -0.4169
 1120TIP3    H224920   5.906   0.352   0.399  0.1566  0.0444  0.7615
 1121TIP3   OH224921   3.210   0.553   1.394  0.3910 -0.0075 -0.1615
 1121TIP3    H124922   3.258   0.482   1.350  0.8472 -0.1708  0.5898
 1121TIP3    H224923   3.278   0.619   1.412  0.3628 -0.2711  0.9794
 1122TIP3   OH224924   2.651   2.066   0.679  0.3984  0.2151 -0.2039
 1122TIP3    H124925   2.713   2.010   0.632  1.5544  0.8786  0.4685
 1122TIP3    H224926   2.690   2.077   0.766  0.1917  1.9946 -0.3011
 1123TIP3   OH224927   4.734   2.905   2.930 -0.1951 -0.3647  0.4825
 1123TIP3    H124928   4.708   2.997   2.941 -0.1373 -0.0110 -1.8138
 1123TIP3    H224929   4.754   2.875   3.019 -2.1530  1.2356  1.5700
 1124TIP3   OH224930   4.946   0.136   1.178 -0.0081  0.2059  0.2366
 1124TIP3    H124931   4.865   0.160   1.132  0.1600 -0.3500 -0.3735
 1124TIP3    H224932   4.945   0.040   1.178  0.1305  0.2020  1.1705
 1125TIP3   OH224933   2.384   6.701   2.144 -0.4422 -0.0790 -0.1103
 1125TIP3    H124934   2.300   6.686   2.186 -0.1083 -1.2538  0.1683
 1125TIP3    H224935   2.431   6.758   2.205 -0.3549 -0.9262  0.6424
 1126TIP3   OH224936   2.019   4.027   0.039  0.8658  0.0075 -0.2793
 1126TIP3    H124937   1.976   4.102   0.080  0.0874 -1.7196  2.3059
 1126TIP3    H224938   1.947   3.977  -0.001  0.9920 -0.6851  0.3263
 1127TIP3   OH224939   4.359   1.643   2.594  0.9185 -0.3143  0.2371
 1127TIP3    H124940   4.309   1.571   2.632 -0.6238  0.7832  0.4272
 1127TIP3    H224941   4.445   1.639   2.636 -0.0993 -0.2891  2.4542
 1128TIP3   OH224942   4.095   2.894   2.164 -0.1075 -0.3020  0.3310
 1128TIP3    H124943   4.000   2.890   2.151 -0.0163  1.1787 -1.2508
 1128TIP3    H224944   4.132   2.885   2.076  1.2419 -1.0849  0.9467
 1129TIP3   OH224945   0.162   0.118   1.433 -0.2498 -0.4022  1.0045
 1129TIP3    H124946   0.218   0.178   1.483  0.8726  0.7741 -1.5117
 1129TIP3    H224947   0.073   0.144   1.456  0.2016  2.1083  0.2275
 1130TIP3   OH224948   2.256   2.266   7.372 -0.1625  0.1378  0.3087
 1130TIP3    H124949   2.248   2.349   7.326  0.3475 -0.4447 -0.8774
 1130TIP3    H224950   2.235   2.200   7.306 -1.1894 -0.6625  1.3961
 1131TIP3   OH224951   0.806   1.049   1.742 -0.4033 -0.5703 -0.4663
 1131TIP3    H124952   0.819   0.955   1.725  3.2893 -0.1627 -0.7701
 1131TIP3    H224953   0.722   1.069   1.702 -0.2997 -3.3382 -2.3773
 1132TIP3   OH224954   5.645   5.897   7.517 -0.5580  0.1049  0.8350
 1132TIP3    H124955   5.740   5.890   7.528 -0.7156 -0.2568  2.0676
 1132TIP3    H224956   5.634   5.917   7.424  0.7299  0.3072  0.6977
 1133TIP3   OH224957   4.763   6.099   2.700  0.2693  0.6678  0.0166
 1133TIP3    H124958   4.686   6.146   2.667  0.1559 -0.9998 -2.2445
 1133TIP3    H224959   4.829   6.109   2.632  1.0275 -0.5101  0.5513
 1134TIP3   OH224960   6.943   2.839   7.846 -0.0485 -0.0952  0.3257
 1134TIP3    H124961   6.881   2.818   7.916 -2.3014  1.9271 -0.9177
 1134TIP3    H224962   6.918   2.782   7.773 -0.3841  0.6349 -0.1385
 1135TIP3   OH224963   2.164   3.556   1.676 -0.2687  0.4819 -0.0908
 1135TIP3    H124964   2.127   3.554   1.588 -1.4575 -1.1287  0.3996
 1135TIP3    H224965   2.166   3.648   1.699 -3.5512  0.7157 -0.3679
 1136TIP3   OH224966   0.436   0.115   2.529 -0.3570  0.2493 -0.0301
 1136TIP3    H124967   0.466   0.154   2.610 -1.4171 -0.1167  0.5636
 1136TIP3    H224968   0.351   0.156   2.512  0.3627  1.1877 -1.5999
 1137TIP3   OH224969   6.065   0.330   1.922  0.0411 -0.0358  0.6040
 1137TIP3    H124970   6.148   0.297   1.890 -0.8827 -0.9331 -1.0299
 1137TIP3    H224971   6.068   0.424   1.903  0.1504 -0.2920 -0.8027
 1138TIP3   OH224972   6.167   5.647   2.348  0.5848 -0.0153 -0.1399
 1138TIP3    H124973   6.197   5.556   2.352 -1.2028 -0.6563 -0.1567
 1138TIP3    H224974   6.215   5.685   2.275  1.8351 -0.7467  0.2620
 1139TIP3   OH224975   0.446   0.899   0.195  0.1227 -0.1655  0.3810
 1139TIP3    H124976   0.420   0.858   0.278 -0.3525  1.1445  0.9097
 1139TIP3    H224977   0.402   0.984   0.196  3.5869  1.8036  0.8480
 1140TIP3   OH224978   5.191   3.624   2.380 -0.6234  0.3879 -0.1284
 1140TIP3    H124979   5.134   3.695   2.409  0.4876  1.0116  0.5811
 1140TIP3    H224980   5.227   3.587   2.461 -1.1344 -0.9670 -0.4847
 1141TIP3   OH224981   1.074   6.784   8.107 -0.1497 -0.5251  0.5411
 1141TIP3    H124982   1.097   6.741   8.025 -2.6967 -0.0370 -0.5426
 1141TIP3    H224983   1.111   6.872   8.099 -1.6287  0.0323 -0.8428
 1142TIP3   OH224984   0.991   2.370   0.797  0.5028 -0.8561 -0.0128
 1142TIP3    H124985   1.033   2.288   0.771  0.5891 -0.4929 -1.0401
 1142TIP3    H224986   1.056   2.414   0.851  0.9440 -0.8879 -0.5156
 1143TIP3   OH224987   5.239   3.128   0.553  0.4574  0.1239 -0.1709
 1143TIP3    H124988   5.159   3.105   0.507  1.2684  0.2029 -1.7008
 1143TIP3    H224989   5.289   3.046   0.557 -0.0179 -0.1069  1.4858
 1144TIP3   OH224990   3.604   1.372   1.226 -0.1983 -0.5273 -0.6812
 1144TIP3    H124991   3.657   1.357   1.148  0.4301 -0.8477 -0.2081
 1144TIP3    H224992   3.622   1.296   1.282  0.4944  0.3879  0.3818
 1145TIP3   OH224993   6.402   1.501   7.984  0.6515  0.2200  0.3834
 1145TIP3    H124994   6.457   1.423   7.990  0.2766 -0.1197 -0.3676
 1145TIP3    H224995   6.375   1.505   7.891  1.0006  1.4740  0.3109
 1146TIP3   OH224996   5.765   0.871   2.391  0.2623  0.2412 -0.3104
 1146TIP3    H124997   5.761   0.776   2.392 -0.3556  0.2159 -1.9167
 1146TIP3    H224998   5.676   0.899   2.409  0.2197  0.4923 -0.9054
 1147TIP3   OH224999   5.678   3.530   0.869 -0.0912  0.1405 -0.0813
 1147TIP3    H125000   5.695   3.501   0.780 -0.7001 -0.2836 -0.0633
 1147TIP3    H225001   5.614   3.468   0.903 -1.0071  1.1623  0.1367
 1148TIP3   OH225002   2.423   3.780   7.449  0.1601  0.5067  0.2145
 1148TIP3    H125003   2.413   3.685   7.457 -0.7994  0.6486  0.9879
 1148TIP3    H225004   2.361   3.804   7.380  1.0640  0.4762 -0.6225
 1149TIP3   OH225005   4.128   3.595   7.544  0.0642  0.1068  0.4612
 1149TIP3    H125006   4.044   3.622   7.580  1.5551  1.4610  3.1701
 1149TIP3    H225007   4.153   3.667   7.485 -0.4607 -0.1072 -0.0321
 1150TIP3   OH225008   1.208   4.216   2.244 -0.1587 -0.0764 -0.0877
 1150TIP3    H125009   1.249   4.177   2.167 -0.1394  2.6246 -1.5707
 1150TIP3    H225010   1.125   4.252   2.212 -0.8348 -0.1324  1.4927
 1151TIP3   OH225011   1.752   3.697   1.811 -0.2014 -0.3700 -1.3111
 1151TIP3    H125012   1.795   3.617   1.844  0.2931  0.6465  0.6942
 1151TIP3    H225013   1.789   3.710   1.724  3.3253  0.1293  0.0779
 1152TIP3   OH225014   1.320   2.606   2.332  0.5006  0.7079  0.1025
 1152TIP3    H125015   1.343   2.675   2.271  0.5890  1.6925  1.2199
 1152TIP3    H225016   1.388   2.539   2.319  0.5638  0.9426 -0.7965
 1153TIP3   OH225017   0.545   4.208   2.527  0.2040 -0.0074 -0.0057
 1153TIP3    H125018   0.519   4.203   2.435  0.2163  0.9720 -0.0700
 1153TIP3    H225019   0.540   4.117   2.558 -2.9878  0.0426 -0.0905
 1154TIP3   OH225020   5.774   0.694   0.817  0.3281  0.4601 -0.0515
 1154TIP3    H125021   5.704   0.673   0.879 -0.3078  1.2179 -0.4935
 1154TIP3    H225022   5.795   0.610   0.775  0.4053  0.0383  0.8054
 1155TIP3   OH225023   1.314   1.904   0.228 -0.2568  0.3784  0.1750
 1155TIP3    H125024   1.398   1.897   0.274 -0.3475  0.9347  0.4331
 1155TIP3    H225025   1.251   1.925   0.297 -0.6675 -0.3311  0.0291
 1156TIP3   OH225026   2.106   3.102   7.355  0.0250  0.2825 -0.2795
 1156TIP3    H125027   2.192   3.123   7.321  0.5498  0.2481  0.9638
 1156TIP3    H225028   2.076   3.028   7.302 -0.5565  2.1592 -2.6976
 1157TIP3   OH225029   4.281   6.437   0.939 -0.0648  0.2712  0.3552
 1157TIP3    H125030   4.349   6.470   0.998 -0.1721  0.2297  0.5033
 1157TIP3    H225031   4.266   6.508   0.877  0.5234  0.0686 -0.0389
 1158TIP3   OH225032   2.949   0.861   8.286 -0.3809 -0.4467 -0.1418
 1158TIP3    H125033   3.010   0.844   8.214 -0.5549 -1.0750 -0.1511
 1158TIP3    H225034   2.993   0.826   8.363  0.0837  0.7918  0.1879
 1159TIP3   OH225035   3.052   1.281   2.379  0.1403  0.4519 -0.0571
 1159TIP3    H125036   3.057   1.191   2.348 -0.4155 -0.3391  1.9855
 1159TIP3    H225037   2.968   1.313   2.345  0.5233  0.3629 -1.1317
 1160TIP3   OH225038   5.898   5.067   3.030  0.5581 -0.2281  0.4860
 1160TIP3    H125039   5.962   5.010   3.072  0.2696 -0.6874  0.3015
 1160TIP3    H225040   5.824   5.010   3.008 -0.1018  0.3701  1.0777
 1161TIP3   OH225041   0.074   4.295   3.047 -0.1625 -0.4197 -0.1364
 1161TIP3    H125042  -0.008   4.343   3.044 -0.1590 -0.3991  0.0935
 1161TIP3    H225043   0.129   4.343   3.109  0.4983  0.3074 -1.2536
 1162TIP3   OH225044   6.168   2.869   1.693  0.9940  0.1225  0.1282
 1162TIP3    H125045   6.153   2.809   1.620  3.2454  1.0028 -1.1890
 1162TIP3    H225046   6.093   2.858   1.751 -2.6905  1.7241 -3.8404
 1163TIP3   OH225047   0.091   4.753   7.734 -0.3191  0.2157  0.3301
 1163TIP3    H125048   0.064   4.703   7.812 -0.3906 -0.2493  0.0083
 1163TIP3    H225049   0.065   4.699   7.660  1.1152 -0.0652 -0.0097
 1164TIP3   OH225050   3.920   1.936   0.082 -0.3070  0.2438  0.4956
 1164TIP3    H125051   3.833   1.962   0.051 -0.2691  0.7515  0.8161
 1164TIP3    H225052   3.950   1.873   0.016 -0.1811  1.3984 -0.5999
 1165TIP3   OH225053   5.682   5.136   2.327 -0.1829  0.0833 -0.1530
 1165TIP3    H125054   5.621   5.111   2.257  2.6940 -0.2937 -2.7664
 1165TIP3    H225055   5.669   5.230   2.336  0.3945  0.4519 -2.4128
 1166TIP3   OH225056   0.900   1.063   3.110 -0.5932 -0.7266 -0.5507
 1166TIP3    H125057   0.883   1.021   3.026 -1.8940 -0.8041 -0.2686
 1166TIP3    H225058   0.994   1.085   3.108 -0.4183 -1.5164 -1.6493
 1167TIP3   OH225059   2.960   5.070   0.010 -0.1014 -1.2223 -0.3349
 1167TIP3    H125060   3.008   5.028  -0.061 -1.9845 -0.6349 -2.0525
 1167TIP3    H225061   2.942   5.000   0.072  1.8387 -1.6865 -0.2478
 1168TIP3   OH225062   0.504   0.689   1.073  0.1121 -0.7759 -0.7707
 1168TIP3    H125063   0.546   0.764   1.032 -0.0227 -1.4169 -2.1175
 1168TIP3    H225064   0.410   0.703   1.061 -0.1451  0.4002  1.7950
 1169TIP3   OH225065   2.629   6.076   3.351  0.8109 -0.4060  0.1301
 1169TIP3    H125066   2.685   6.141   3.308  0.8074 -0.5457 -0.0869
 1169TIP3    H225067   2.667   5.992   3.327  1.7082 -0.4496  1.6478
 1170TIP3   OH225068   4.435   5.850   7.152  0.2218  0.0916 -0.1730
 1170TIP3    H125069   4.359   5.794   7.167  0.0158  0.0768 -1.1737
 1170TIP3    H225070   4.504   5.813   7.207 -0.7129  0.5935  1.3753
 1171TIP3   OH225071   6.172   3.046   8.277  0.3954  0.5760  0.0496
 1171TIP3    H125072   6.168   2.978   8.345  0.0870 -0.4944 -0.9971
 1171TIP3    H225073   6.082   3.052   8.244 -0.2856  3.5868  2.0159
 1172TIP3   OH225074   0.698   0.463   2.364 -0.2718 -0.6385 -0.1350
 1172TIP3    H125075   0.658   0.377   2.369 -0.5643 -0.5488 -0.7741
 1172TIP3    H225076   0.627   0.524   2.382 -0.1737 -0.5130 -0.1675
 1173TIP3   OH225077   6.744   3.803   2.169 -0.1774 -0.5102  0.3434
 1173TIP3    H125078   6.806   3.875   2.154  2.3809 -2.4897  0.8829
 1173TIP3    H225079   6.674   3.843   2.221  1.7263  1.3478  1.6535
 1174TIP3   OH225080   3.631   4.206   7.729  0.3941  0.4169  0.0878
 1174TIP3    H125081   3.703   4.257   7.766  0.1045  0.4564  0.6147
 1174TIP3    H225082   3.615   4.246   7.644  2.4618 -0.9908 -1.0452
 1175TIP3   OH225083   2.864   6.792   6.860  0.5491 -0.2822  0.1069
 1175TIP3    H125084   2.791   6.758   6.807 -1.0822 -0.1008  2.1323
 1175TIP3    H225085   2.843   6.884   6.874  1.2069 -0.2178  0.7011
 1176TIP3   OH225086   6.062   6.125   7.374 -0.9662  0.2707 -1.2200
 1176TIP3    H125087   5.967   6.129   7.359 -1.0346  1.9393 -0.6346
 1176TIP3    H225088   6.088   6.217   7.385  0.5419 -0.2196 -0.3355
 1177TIP3   OH225089   5.744   3.553   8.361 -0.2071  0.5820  0.1715
 1177TIP3    H125090   5.708   3.625   8.309 -0.9952 -0.6097 -0.9952
 1177TIP3    H225091   5.785   3.596   8.437  0.3752  2.3232 -1.0664
 1178TIP3   OH225092   6.525   0.793   0.081  0.3808 -0.3624  0.1769
 1178TIP3    H125093   6.494   0.873   0.123  1.2016  0.8911 -1.5158
 1178TIP3    H225094   6.585   0.755   0.145  1.4157  1.3552  0.2861
 1179TIP3   OH225095   3.923   5.931   2.424  0.5969 -0.0151 -0.2932
 1179TIP3    H125096   3.943   5.991   2.495 -0.8431  0.4326 -0.2495
 1179TIP3    H225097   3.835   5.899   2.442  1.3548 -2.2942 -0.2234
 1180TIP3   OH225098   6.782   4.271   0.422 -0.1913  0.3549  0.3763
 1180TIP3    H125099   6.749   4.197   0.473 -0.2464 -0.5003 -0.8535
 1180TIP3    H225100   6.858   4.236   0.376 -0.7195  0.8249 -0.8769
 1181TIP3   OH225101   6.719   4.660   1.705 -0.4357  0.3249  0.1622
 1181TIP3    H125102   6.746   4.568   1.694 -0.2379  0.4847 -0.7305
 1181TIP3    H225103   6.789   4.710   1.663 -1.4661  0.8049 -1.0312
 1182TIP3   OH225104   1.905   3.758   0.600  0.3852  0.2252  0.4080
 1182TIP3    H125105   1.999   3.761   0.584  0.5615 -0.9968  1.0984
 1182TIP3    H225106   1.897   3.727   0.690 -0.6674  1.8914  0.9342
 1183TIP3   OH225107   2.624   6.722   0.877  0.3483 -0.3257 -0.4909
 1183TIP3    H125108   2.646   6.797   0.822 -1.0548 -0.6278 -1.5181
 1183TIP3    H225109   2.533   6.702   0.856  0.3493 -1.6366  0.5785
 1184TIP3   OH225110   5.979   1.934   1.780  0.0437 -0.0472 -0.4094
 1184TIP3    H125111   6.048   1.871   1.801 -0.3058 -0.5011 -0.6060
 1184TIP3    H225112   5.969   1.929   1.685 -2.2331 -2.1270 -0.1459
 1185TIP3   OH225113   1.258   5.709   0.894  0.3563  0.2393  0.3600
 1185TIP3    H125114   1.180   5.668   0.855 -0.0154  0.7529  0.5475
 1185TIP3    H225115   1.261   5.796   0.854  1.5770 -0.2276 -0.6158
 1186TIP3   OH225116   0.775   3.172   7.745 -0.0320 -0.0433  1.2724
 1186TIP3    H125117   0.801   3.210   7.829  0.7742  0.2854  0.8823
 1186TIP3    H225118   0.852   3.123   7.715 -0.6185 -0.9213  1.1502
 1187TIP3   OH225119   4.654   3.285   8.250  0.0304 -0.2013 -0.2990
 1187TIP3    H125120   4.603   3.366   8.250  0.6305  0.1785 -0.0824
 1187TIP3    H225121   4.614   3.232   8.180  0.1556  0.6096 -0.9907
 1188TIP3   OH225122   6.811   4.497   0.745 -0.2707 -0.7470 -0.5635
 1188TIP3    H125123   6.741   4.475   0.806  0.4800  1.6742  1.3331
 1188TIP3    H225124   6.781   4.576   0.702  1.3529  0.5151  0.5117
 1189TIP3   OH225125   0.113   2.508   2.604  0.6585  0.2183 -0.1030
 1189TIP3    H125126   0.047   2.442   2.624  0.9154 -1.0416 -2.8685
 1189TIP3    H225127   0.078   2.589   2.639 -1.3415 -0.8021  0.3807
 1190TIP3   OH225128   1.264   3.566   0.893 -0.0949  0.3418 -0.4729
 1190TIP3    H125129   1.198   3.634   0.879  0.2158  0.6884 -0.2714
 1190TIP3    H225130   1.306   3.589   0.975 -0.9038 -0.8658  0.3191
 1191TIP3   OH225131   1.416   2.383   0.829 -0.7262 -0.5239  0.6761
 1191TIP3    H125132   1.505   2.352   0.813 -0.5799  0.5121 -0.7729
 1191TIP3    H225133   1.424   2.479   0.830 -1.7650 -0.4261  0.8661
 1192TIP3   OH225134   4.952   2.121   2.346  0.4423  0.1146 -0.3397
 1192TIP3    H125135   4.931   2.072   2.426 -0.2437 -0.5095 -0.8889
 1192TIP3    H225136   4.920   2.066   2.275  1.9323  0.2176 -1.1141
 1193TIP3   OH225137   2.868   2.136   3.253 -0.0405 -0.1971  0.0275
 1193TIP3    H125138   2.836   2.046   3.248 -1.0074  0.1808 -0.8925
 1193TIP3    H225139   2.959   2.131   3.225 -0.6474 -0.6049 -1.9728
 1194TIP3   OH225140   0.346   1.391   1.740 -0.0342 -0.0356 -0.1564
 1194TIP3    H125141   0.327   1.483   1.759 -0.2920 -0.7610  4.0973
 1194TIP3    H225142   0.259   1.350   1.738  0.1333 -0.3596 -1.1476
 1195TIP3   OH225143   5.856   5.781   7.144 -0.2673  0.2524 -0.4507
 1195TIP3    H125144   5.779   5.829   7.173 -0.0746  0.0045  0.4757
 1195TIP3    H225145   5.824   5.694   7.121 -0.3514  0.3244 -0.6093
 1196TIP3   OH225146   6.630   5.568   0.823  0.6490  0.3671  0.8680
 1196TIP3    H125147   6.672   5.654   0.815  1.2619 -0.0112 -0.3140
 1196TIP3    H225148   6.571   5.564   0.748  0.5107 -0.1748  1.0037
 1197TIP3   OH225149   2.158   3.600   2.968  0.4424 -0.3506  0.0716
 1197TIP3    H125150   2.135   3.691   2.985  0.3243 -0.3720  0.0257
 1197TIP3    H225151   2.240   3.604   2.919  0.7352 -0.2855  0.5617
 1198TIP3   OH225152   4.373   3.097   0.991 -0.0082  0.3994  0.3179
 1198TIP3    H125153   4.432   3.050   0.932 -1.0851  0.7089 -1.0368
 1198TIP3    H225154   4.320   3.153   0.934 -0.3275  1.5620  1.6764
 1199TIP3   OH225155   1.039   2.293   1.528 -0.5812 -0.3118  0.4537
 1199TIP3    H125156   0.982   2.228   1.486  0.2408 -0.7823  0.0457
 1199TIP3    H225157   1.114   2.299   1.470 -0.5801  0.9111  0.5637
 1200TIP3   OH225158   6.210   4.401   2.255 -0.0587 -0.0708  0.0317
 1200TIP3    H125159   6.142   4.439   2.200 -0.1092  1.1278  0.8732
 1200TIP3    H225160   6.286   4.393   2.198 -1.2996 -3.0646 -1.4267
 1201TIP3   OH225161   0.220   0.453   2.705 -0.1222 -0.1519  0.2448
 1201TIP3    H125162   0.208   0.451   2.800 -1.1541  1.5826  0.1961
 1201TIP3    H225163   0.310   0.484   2.693 -0.1385  0.0572  0.6546
 1202TIP3   OH225164   4.108   2.300   8.308  0.0890 -0.1031 -0.3023
 1202TIP3    H125165   4.119   2.337   8.221 -1.1034 -1.7468 -1.2039
 1202TIP3    H225166   4.184   2.244   8.321 -0.7487 -1.4935 -1.1966
 1203TIP3   OH225167   3.331   0.272   1.730 -0.2145  0.0789  0.2255
 1203TIP3    H125168   3.276   0.271   1.652 -0.3740  1.8018  0.2659
 1203TIP3    H225169   3.315   0.188   1.773 -1.2881 -0.2556 -0.7901
 1204TIP3   OH225170   1.973   6.858   0.837  0.2921 -0.1210 -0.3170
 1204TIP3    H125171   1.952   6.907   0.917 -1.6401 -1.4076  0.0554
 1204TIP3    H225172   1.900   6.795   0.828  1.3096 -1.1256 -2.1901
 1205TIP3   OH225173   2.886   4.579   8.107 -0.2591  0.4674 -0.4583
 1205TIP3    H125174   2.879   4.655   8.050 -0.0722  1.8088  1.2093
 1205TIP3    H225175   2.807   4.528   8.091 -1.5313  2.2081 -0.0017
 1206TIP3   OH225176   0.444   3.152   0.676 -0.8441 -0.7553 -0.1109
 1206TIP3    H125177   0.412   3.238   0.650 -1.1202  0.1683  2.8146
 1206TIP3    H225178   0.467   3.163   0.769  2.0678 -3.0351 -0.4271
 1207TIP3   OH225179   4.392   1.612   1.657 -0.7266 -0.1124  0.6919
 1207TIP3    H125180   4.437   1.528   1.666  0.3664  0.4565  0.7789
 1207TIP3    H225181   4.305   1.597   1.694 -0.0685 -0.8305  2.0628
 1208TIP3   OH225182   1.284   5.190   2.917 -0.1024 -0.1426  0.0479
 1208TIP3    H125183   1.270   5.285   2.911 -0.4556 -0.3037 -2.8148
 1208TIP3    H225184   1.198   5.155   2.941  0.1542  0.2368  1.6735
 1209TIP3   OH225185   0.628   6.150   2.784  0.1289 -0.4575  0.5511
 1209TIP3    H125186   0.686   6.084   2.746  0.1132  0.0851 -0.4371
 1209TIP3    H225187   0.685   6.226   2.797 -0.0339 -0.4002  0.9467
 1210TIP3   OH225188   0.292   1.923   8.184 -0.0105 -0.2961  0.8273
 1210TIP3    H125189   0.378   1.883   8.171  0.3172  1.0670 -1.9578
 1210TIP3    H225190   0.288   1.941   8.278  3.2235  0.5997  0.9160
 1211TIP3   OH225191   6.711   0.454   2.460 -0.3075  0.3324  0.5794
 1211TIP3    H125192   6.667   0.431   2.542 -0.2681  0.3177  0.5966
 1211TIP3    H225193   6.719   0.371   2.413  0.1256  0.2588  0.7829
 1212TIP3   OH225194   1.767   0.325   8.094 -0.1957 -0.0664  0.2233
 1212TIP3    H125195   1.719   0.244   8.108  1.5719 -1.1768  0.1441
 1212TIP3    H225196   1.749   0.378   8.172  0.2674 -1.3972  1.2670
 1213TIP3   OH225197   3.579   2.850   0.425  0.5434  0.2037 -0.5851
 1213TIP3    H125198   3.670   2.873   0.444  0.3472  1.9159 -1.5360
 1213TIP3    H225199   3.582   2.758   0.400  1.5946 -0.5890  2.0712
 1214TIP3   OH225200   3.671   4.759   1.171  0.4423 -0.1417  0.2570
 1214TIP3    H125201   3.585   4.719   1.182  0.5635 -0.7463 -0.8531
 1214TIP3    H225202   3.733   4.687   1.187  0.7857  0.3926  1.5195
 1215TIP3   OH225203   2.020   1.874   2.493 -0.2671  0.5288  0.8422
 1215TIP3    H125204   1.928   1.877   2.518 -0.5892  0.6945 -0.3115
 1215TIP3    H225205   2.058   1.808   2.552 -1.6037 -1.1754 -0.0943
 1216TIP3   OH225206   1.828   2.016   6.970 -0.4983  0.6383  0.4094
 1216TIP3    H125207   1.857   2.106   6.957  1.5097 -0.0489 -0.2422
 1216TIP3    H225208   1.893   1.978   7.030 -0.6630 -0.6623 -0.1925
 1217TIP3   OH225209   0.753   4.353   0.846 -0.3408  0.2167 -0.1132
 1217TIP3    H125210   0.771   4.405   0.768 -1.7016  1.4637  0.3471
 1217TIP3    H225211   0.682   4.400   0.890  0.4302 -0.4161  1.9172
 1218TIP3   OH225212   4.616   4.337   7.568  0.2640 -0.3950  0.4157
 1218TIP3    H125213   4.584   4.251   7.541  0.0212  0.0744 -0.8822
 1218TIP3    H225214   4.699   4.347   7.519  0.1370  0.2236  0.3200
 1219TIP3   OH225215   3.400   4.581   7.995  0.0803 -0.1147 -0.2101
 1219TIP3    H125216   3.491   4.609   7.996 -0.1123  0.5269  0.1587
 1219TIP3    H225217   3.402   4.492   7.960  0.9193 -0.3590  0.4355
 1220TIP3   OH225218   3.659   1.585   2.556 -0.3412 -0.4180  0.4698
 1220TIP3    H125219   3.736   1.588   2.499  0.5122  0.0249  1.6072
 1220TIP3    H225220   3.645   1.676   2.582 -0.3094 -0.6825  1.4659
 1221TIP3   OH225221   0.823   0.174   2.516  0.3296 -0.3967 -0.4812
 1221TIP3    H125222   0.836   0.080   2.504  0.2960 -0.2839 -1.4865
 1221TIP3    H225223   0.746   0.181   2.573  0.7676 -0.9797  0.1930
 1222TIP3   OH225224   5.443   3.136   1.510 -0.0309  0.0036  0.4887
 1222TIP3    H125225   5.485   3.051   1.524  0.9827  0.4201  0.1208
 1222TIP3    H225226   5.364   3.133   1.564 -1.0498 -1.8955 -0.9459
 1223TIP3   OH225227   0.923   6.242   1.335  0.3894 -0.3738 -0.5387
 1223TIP3    H125228   0.940   6.333   1.311  0.4604 -0.7061 -1.8462
 1223TIP3    H225229   1.010   6.202   1.340  0.3592 -0.3772  0.0456
 1224TIP3   OH225230   6.367   5.961   8.119 -0.4514  0.0337  0.1867
 1224TIP3    H125231   6.442   6.019   8.135 -0.7964  0.8393 -1.0014
 1224TIP3    H225232   6.330   5.991   8.036 -1.6063 -0.8801  0.3391
 1225TIP3   OH225233   3.673   2.301   3.441 -0.0425  0.1197  0.1962
 1225TIP3    H125234   3.761   2.294   3.405 -0.7552  0.9430 -1.7965
 1225TIP3    H225235   3.627   2.362   3.383 -2.1380 -0.8217  0.7652
 1226TIP3   OH225236   4.801   4.178   8.254  0.0269 -0.0029  0.2304
 1226TIP3    H125237   4.846   4.220   8.327  1.6803 -1.0803 -0.1119
 1226TIP3    H225238   4.819   4.235   8.179  1.6295 -0.8379 -0.0782
 1227TIP3   OH225239   2.213   1.359   7.670 -0.3212 -0.2213 -0.5905
 1227TIP3    H125240   2.251   1.291   7.725 -0.0000 -2.3453 -3.2398
 1227TIP3    H225241   2.288   1.402   7.629 -0.5994  0.0285 -0.8411
 1228TIP3   OH225242   6.886   3.182   0.256 -0.0261 -0.0437 -0.0694
 1228TIP3    H125243   6.874   3.090   0.279  0.0278  0.2987  1.4833
 1228TIP3    H225244   6.949   3.181   0.184 -1.0725 -1.2736 -1.0223
 1229TIP3   OH225245   6.175   1.418   2.252  0.5169 -0.1078 -0.2703
 1229TIP3    H125246   6.101   1.456   2.300  0.1398 -1.6672  0.4570
 1229TIP3    H225247   6.245   1.482   2.263 -0.5878  1.2116 -0.6246
 1230TIP3   OH225248   6.037   4.871   3.175  0.0295  0.2558 -0.1053
 1230TIP3    H125249   6.054   4.800   3.238 -3.1367 -1.5180 -1.0397
 1230TIP3    H225250   6.082   4.844   3.095 -0.4048 -0.2578 -0.1812
 1231TIP3   OH225251   1.096   6.235   8.212  0.1440  0.2651 -0.5762
 1231TIP3    H125252   1.089   6.140   8.197  1.2217  0.1736 -0.6118
 1231TIP3    H225253   1.087   6.244   8.307  0.7934  0.0315 -0.4846
 1232TIP3   OH225254   0.371   4.537   0.193 -0.2392  0.3524  0.0565
 1232TIP3    H125255   0.418   4.477   0.135 -2.0378 -2.9313  1.6912
 1232TIP3    H225256   0.439   4.580   0.244  1.1809  0.3296 -1.7104
 1233TIP3   OH225257   6.498   6.090   0.050  0.1582  0.3426 -0.0198
 1233TIP3    H125258   6.427   6.102  -0.012  0.0499 -0.2880 -0.0258
 1233TIP3    H225259   6.460   6.111   0.135  0.2177  0.8833 -0.1222
 1234TIP3   OH225260   5.421   1.284   1.519 -0.1713  0.1911 -0.4220
 1234TIP3    H125261   5.478   1.361   1.515 -0.7845  0.8638  2.1540
 1234TIP3    H225262   5.412   1.265   1.612 -3.3315 -0.4592 -0.7329
 1235TIP3   OH225263   3.491   6.807   2.311  0.4369  0.4441 -0.4863
 1235TIP3    H125264   3.573   6.756   2.306  0.5046  0.6057 -1.1942
 1235TIP3    H225265   3.444   6.782   2.232 -0.0422  0.6310 -0.2582
 1236TIP3   OH225266   0.294   2.633   1.367 -0.2213 -0.4468 -0.3466
 1236TIP3    H125267   0.366   2.678   1.410  0.0261  0.5820 -1.7567
 1236TIP3    H225268   0.219   2.647   1.425  0.1393  0.7214 -0.1332
 1237TIP3   OH225269   6.923   4.126   0.783  0.1416  0.1975  0.1399
 1237TIP3    H125270   6.939   4.219   0.798  0.8928  0.0355  0.3850
 1237TIP3    H225271   6.841   4.124   0.734  0.2995  1.0042 -0.1770
 1238TIP3   OH225272   6.402   4.894   0.817 -0.0172  0.0918 -0.1630
 1238TIP3    H125273   6.389   4.925   0.728 -0.0024  0.3575 -0.0727
 1238TIP3    H225274   6.426   4.802   0.807 -0.5735 -0.0285 -0.4017
 1239TIP3   OH225275   4.567   1.921   1.365 -0.5306  0.2382  0.0260
 1239TIP3    H125276   4.649   1.900   1.321  0.3574  2.5385  0.4381
 1239TIP3    H225277   4.547   1.843   1.416  2.5634  0.2869  1.5651
 1240TIP3   OH225278   2.489   4.905   0.851 -0.2188  0.1330  0.3011
 1240TIP3    H125279   2.409   4.947   0.818  1.3348  1.1770 -2.4862
 1240TIP3    H225280   2.526   4.970   0.911 -0.4935  0.4625  0.1208
 1241TIP3   OH225281   6.385   6.285   2.207  0.1918 -0.5562 -0.2826
 1241TIP3    H125282   6.349   6.198   2.191 -1.2997  0.2776 -1.8847
 1241TIP3    H225283   6.312   6.345   2.193  1.3155  1.0109  0.1468
 1242TIP3   OH225284   2.889   4.131   0.632  0.1351  0.3390  0.0616
 1242TIP3    H125285   2.911   4.106   0.543 -1.4714  2.4582 -1.0141
 1242TIP3    H225286   2.970   4.170   0.667  1.0297 -1.2858 -0.1109
 1243TIP3   OH225287   0.460   1.062   7.279  0.8608 -0.0622 -0.2149
 1243TIP3    H125288   0.540   1.010   7.279  0.7514 -0.2732  1.0872
 1243TIP3    H225289   0.422   1.047   7.366  0.5939  1.8406  0.0434
 1244TIP3   OH225290   2.545   4.472   7.455 -0.4672 -0.7089 -0.4347
 1244TIP3    H125291   2.639   4.458   7.444 -0.6216 -0.7723 -1.8798
 1244TIP3    H225292   2.537   4.517   7.539  0.9196  0.0022 -0.6595
 1245TIP3   OH225293   0.804   0.544   8.286 -0.2090  0.4706  0.2401
 1245TIP3    H125294   0.730   0.519   8.341  0.6937 -1.3625  0.7103
 1245TIP3    H225295   0.778   0.518   8.198 -0.6008  1.0128  0.1824
 1246TIP3   OH225296   6.164   6.516   0.570 -0.3576 -0.2460 -0.4917
 1246TIP3    H125297   6.209   6.530   0.487 -0.9672  0.4036 -0.7205
 1246TIP3    H225298   6.192   6.589   0.625  0.5793 -1.0362  0.1315
 1247TIP3   OH225299   0.629   4.146   7.204 -0.4259  0.4152  0.0384
 1247TIP3    H125300   0.587   4.232   7.205  1.1250  1.2014  1.2361
 1247TIP3    H225301   0.719   4.163   7.228 -0.2514 -1.6544  1.0459
 1248TIP3   OH225302   5.109   4.595   0.063 -0.6687 -0.4116  0.5914
 1248TIP3    H125303   5.134   4.575   0.154  2.2531 -1.0106 -0.2374
 1248TIP3    H225304   5.106   4.690   0.059  1.5655 -0.2855  0.8259
 1249TIP3   OH225305   6.161   5.342   2.713  0.1392 -0.2786 -0.0101
 1249TIP3    H125306   6.242   5.319   2.668  0.6903  0.3092  0.6530
 1249TIP3    H225307   6.188   5.404   2.781 -0.6570 -1.1059  1.1156
 1250TIP3   OH225308   5.306   4.082   1.660 -0.3750 -0.3087 -0.0694
 1250TIP3    H125309   5.232   4.133   1.694  1.5800  2.1932  0.7638
 1250TIP3    H225310   5.342   4.038   1.737  0.8347  1.0691  0.2150
 1251TIP3   OH225311   6.070   3.333   3.191 -0.0245 -0.0959  0.6073
 1251TIP3    H125312   6.023   3.300   3.114 -1.0169  0.6265  0.8834
 1251TIP3    H225313   6.029   3.288   3.265 -0.2284  0.4804  0.8475
 1252TIP3   OH225314   2.437   5.684   1.751 -0.2429 -0.1587 -0.3858
 1252TIP3    H125315   2.379   5.737   1.697 -0.4416 -0.4033 -0.4106
 1252TIP3    H225316   2.485   5.630   1.689  0.8941  0.8975 -0.4713
 1253TIP3   OH225317   3.846   0.507   0.456  0.6939  0.0759  0.0785
 1253TIP3    H125318   3.780   0.548   0.400 -0.8343 -1.5576  0.5827
 1253TIP3    H225319   3.802   0.497   0.541  1.2017 -1.8953  0.1658
 1254TIP3   OH225320   2.672   1.750   6.754 -0.5643  0.2942  0.0293
 1254TIP3    H125321   2.679   1.818   6.688 -0.0036  0.4777  0.2722
 1254TIP3    H225322   2.591   1.769   6.801  0.1854  1.5005  0.8774
 1255TIP3   OH225323   5.979   1.502   1.715 -0.0529  0.2289 -0.4270
 1255TIP3    H125324   5.972   1.525   1.808  1.4339  1.1229 -0.5010
 1255TIP3    H225325   6.001   1.409   1.716  1.0938  0.4820  0.1944
 1256TIP3   OH225326   4.289   2.851   1.049 -0.1627 -0.1887 -0.5504
 1256TIP3    H125327   4.351   2.924   1.051 -0.9570  0.5280 -1.1384
 1256TIP3    H225328   4.230   2.867   1.123  1.3279 -1.8043  1.0879
 1257TIP3   OH225329   4.392   2.116   7.714  0.1432 -0.4535 -0.4061
 1257TIP3    H125330   4.372   2.124   7.621  2.1242 -0.0117 -0.8525
 1257TIP3    H225331   4.462   2.180   7.728 -0.7044  0.0993  1.5916
 1258TIP3   OH225332   5.839   6.004   2.818 -0.4808 -0.0793  0.2300
 1258TIP3    H125333   5.923   6.042   2.793 -0.4335  0.0060  0.5225
 1258TIP3    H225334   5.843   5.996   2.913  0.5154 -3.1909  0.0131
 1259TIP3   OH225335   5.208   1.112   0.799  0.0542 -0.1249 -0.0501
 1259TIP3    H125336   5.146   1.040   0.787  0.4607 -0.9483  2.2996
 1259TIP3    H225337   5.279   1.093   0.737 -0.7281 -0.6879 -0.7972
 1260TIP3   OH225338   0.395   4.246   0.290 -0.2779  0.0814 -0.1228
 1260TIP3    H125339   0.340   4.324   0.297 -1.5289 -0.9097  4.7526
 1260TIP3    H225340   0.335   4.176   0.266 -0.8239 -0.5022  2.5628
 1261TIP3   OH225341   6.610   4.047   2.261  0.5935 -0.1152  0.5762
 1261TIP3    H125342   6.633   4.077   2.173  3.2788  0.1116  1.2676
 1261TIP3    H225343   6.617   4.125   2.316 -1.9715 -0.0487  0.9239
 1262TIP3   OH225344   4.112   3.934   0.534 -0.1503 -0.3286 -0.2893
 1262TIP3    H125345   4.029   3.969   0.502 -0.5449 -0.4878  0.5239
 1262TIP3    H225346   4.097   3.920   0.628  1.5887  2.0724  0.4575
 1263TIP3   OH225347   0.996   3.620   7.916 -0.4187 -0.0599 -0.4307
 1263TIP3    H125348   0.964   3.673   7.843 -1.8378 -1.2965 -0.7705
 1263TIP3    H225349   1.073   3.666   7.948 -0.3096  0.9974 -2.1177
 1264TIP3   OH225350   6.261   1.138   2.648  0.2016 -0.3938  0.1336
 1264TIP3    H125351   6.301   1.197   2.585  0.5846  0.8354  1.4898
 1264TIP3    H225352   6.326   1.128   2.717  0.2520 -2.6146 -0.1323
 1265TIP3   OH225353   4.880   3.389   1.819 -0.4947  0.1973  0.3839
 1265TIP3    H125354   4.910   3.373   1.908 -1.7896 -3.6449  0.3174
 1265TIP3    H225355   4.960   3.386   1.766  0.0290  0.0296  1.1693
 1266TIP3   OH225356   0.911   2.456   2.843 -0.0345  0.1032 -0.2480
 1266TIP3    H125357   0.831   2.433   2.890 -0.5095 -0.1823 -1.1868
 1266TIP3    H225358   0.978   2.401   2.883  0.1243  1.6696  1.8501
 1267TIP3   OH225359   4.443   3.118   7.659  0.3208 -0.1693 -0.4684
 1267TIP3    H125360   4.520   3.158   7.618  0.1698 -0.7488 -1.3531
 1267TIP3    H225361   4.473   3.030   7.684 -0.1403 -0.5312 -1.1485
 1268TIP3   OH225362   5.417   3.976   7.836  0.5523 -0.6200 -0.0638
 1268TIP3    H125363   5.410   3.937   7.923  0.6119 -0.1432  0.1635
 1268TIP3    H225364   5.348   4.043   7.835  0.0467 -1.1431 -0.6705
 1269TIP3   OH225365   6.508   5.331   1.990  0.4097  0.0220 -0.1654
 1269TIP3    H125366   6.514   5.364   1.900  2.2041 -0.7083 -0.3576
 1269TIP3    H225367   6.476   5.242   1.980 -2.1498  0.8103  0.1873
 1270TIP3   OH225368   4.219   3.467   0.606  0.1797 -0.1032  0.5364
 1270TIP3    H125369   4.135   3.422   0.614 -0.0141  0.3717  1.3038
 1270TIP3    H225370   4.259   3.429   0.528 -1.7766  1.3372 -1.2669
 1271TIP3   OH225371   3.634   5.808   2.500 -0.4416 -0.7289 -0.1518
 1271TIP3    H125372   3.564   5.871   2.517 -1.4346 -0.4971 -4.0645
 1271TIP3    H225373   3.596   5.723   2.521 -0.5754 -0.3627  1.1540
 1272TIP3   OH225374   1.032   4.439   7.158  0.0347  0.0235 -0.5255
 1272TIP3    H125375   1.053   4.370   7.221 -1.5245 -1.5827 -1.6600
 1272TIP3    H225376   1.116   4.481   7.140  0.8158 -0.7223  1.1671
 1273TIP3   OH225377   6.803   2.051   8.185  0.0859 -0.1981 -0.1908
 1273TIP3    H125378   6.782   2.091   8.100 -0.2318  1.5414  0.6547
 1273TIP3    H225379   6.750   2.100   8.248 -0.3887 -2.0753  0.9392
 1274TIP3   OH225380   1.092   1.544   0.305 -0.5128 -0.1733  0.3335
 1274TIP3    H125381   1.116   1.451   0.305 -0.0932 -0.0707  1.0643
 1274TIP3    H225382   1.176   1.590   0.304 -0.7237  0.2085 -0.2701
 1275TIP3   OH225383   0.232   1.252   8.049 -0.1809  0.2815  0.4231
 1275TIP3    H125384   0.203   1.208   8.129  0.6479  0.4549  0.8358
 1275TIP3    H225385   0.255   1.340   8.078 -1.7594  1.0045 -0.3795
 1276TIP3   OH225386   0.847   2.117   0.596  0.5524  0.0007 -0.2647
 1276TIP3    H125387   0.769   2.097   0.647  0.3591  1.2947 -0.0156
 1276TIP3    H225388   0.917   2.068   0.638 -0.0929 -1.0896 -0.4263
 1277TIP3   OH225389   1.978   0.548   6.913 -1.0215 -0.0326 -0.3697
 1277TIP3    H125390   1.963   0.505   6.998 -0.1132 -0.5658 -0.4607
 1277TIP3    H225391   2.034   0.486   6.866 -1.7934  0.1083 -1.4920
 1278TIP3   OH225392   0.124   0.894   2.558 -0.4120  0.0753 -0.7102
 1278TIP3    H125393   0.206   0.871   2.601 -1.3808 -2.2494  0.0472
 1278TIP3    H225394   0.147   0.966   2.499  1.9561  0.0804  0.1086
 1279TIP3   OH225395   6.583   6.546   7.890 -0.2712  0.5904 -0.2148
 1279TIP3    H125396   6.604   6.453   7.887 -2.2124  0.0095  1.7065
 1279TIP3    H225397   6.637   6.581   7.960  1.2955  1.2221 -1.6705
 1280TIP3   OH225398   1.994   3.086   0.692 -0.4280 -0.2379 -0.2500
 1280TIP3    H125399   2.088   3.066   0.696 -0.3839 -0.9875 -3.1234
 1280TIP3    H225400   1.990   3.182   0.687  0.4393 -0.2735 -2.9941
 1281TIP3   OH225401   0.999   5.602   0.816 -0.1061  0.2930 -0.2080
 1281TIP3    H125402   0.940   5.670   0.849 -0.4624 -0.5001  0.8271
 1281TIP3    H225403   0.943   5.540   0.771  0.2785  0.9033 -1.5793
 1282TIP3   OH225404   0.843   6.493   0.214 -0.7274  0.0518  0.4826
 1282TIP3    H125405   0.787   6.453   0.280 -0.4896  0.8509  1.1858
 1282TIP3    H225406   0.932   6.484   0.250 -0.1819 -2.3786 -1.1989
 1283TIP3   OH225407   2.135   1.135   0.978  0.2346  0.2414 -0.4067
 1283TIP3    H125408   2.192   1.081   1.032  1.0865  2.5978  1.2194
 1283TIP3    H225409   2.051   1.090   0.978  0.9793 -1.2221  0.5791
 1284TIP3   OH225410   0.282   2.717   0.855  0.5966  0.5190 -0.1430
 1284TIP3    H125411   0.300   2.738   0.763  1.4045 -0.0730 -0.1245
 1284TIP3    H225412   0.295   2.800   0.901 -1.3924  1.2289 -0.7468
 1285TIP3   OH225413   2.294   3.691   0.832 -0.3028 -0.3906 -0.0280
 1285TIP3    H125414   2.363   3.625   0.824  0.3895  0.3508 -0.2993
 1285TIP3    H225415   2.293   3.714   0.925 -0.1977 -0.4192 -0.0193
 1286TIP3   OH225416   1.824   0.339   2.684 -0.3537 -0.1311 -0.8605
 1286TIP3    H125417   1.826   0.277   2.757 -0.8446  0.5794 -0.2330
 1286TIP3    H225418   1.877   0.413   2.714 -0.4258  0.0983 -1.2958
 1287TIP3   OH225419   6.121   2.726   1.414 -0.2050 -0.1881  0.3471
 1287TIP3    H125420   6.051   2.670   1.448 -0.3520 -0.9949 -1.1878
 1287TIP3    H225421   6.133   2.696   1.324  0.8527  1.1815  0.0104
 1288TIP3   OH225422   3.904   0.650   8.263 -0.0384  0.2915 -0.1100
 1288TIP3    H125423   3.873   0.662   8.352  0.6134  0.3479  0.1155
 1288TIP3    H225424   3.955   0.728   8.244  1.3358 -0.5110  0.1286
 1289TIP3   OH225425   2.952   6.005   7.761 -0.7720 -0.4802  0.1346
 1289TIP3    H125426   2.936   5.946   7.834  1.9174  0.1288  1.3133
 1289TIP3    H225427   3.023   5.963   7.711  0.8625  1.4389  0.7314
 1290TIP3   OH225428   3.798   1.779   0.520  0.4666  0.4685 -0.1151
 1290TIP3    H125429   3.856   1.841   0.564 -0.8602  1.3479  0.4418
 1290TIP3    H225430   3.756   1.830   0.451 -0.6504  0.2165  0.3540
 1291TIP3   OH225431   1.131   1.852   7.983  0.8895 -0.4504 -0.2039
 1291TIP3    H125432   1.179   1.934   7.990 -0.3223  0.3448 -0.8115
 1291TIP3    H225433   1.113   1.841   7.890  0.0391 -0.8014 -0.0113
 1292TIP3   OH225434   0.728   1.208   7.229 -0.6860 -0.1858  0.0324
 1292TIP3    H125435   0.788   1.134   7.230 -1.9767 -1.3181 -1.5467
 1292TIP3    H225436   0.751   1.258   7.307 -0.0207 -2.4563  1.3879
 1293TIP3   OH225437   6.145   3.251   1.371 -0.1373 -0.1083  0.0675
 1293TIP3    H125438   6.113   3.332   1.331  0.5341  0.0173 -0.2445
 1293TIP3    H225439   6.139   3.266   1.465 -2.6172 -0.7530  0.0795
 1294TIP3   OH225440   1.610   3.490   1.505  0.2626  0.0414  0.1564
 1294TIP3    H125441   1.698   3.453   1.512  0.4268  0.1751 -1.0159
 1294TIP3    H225442   1.616   3.575   1.548  0.1772 -0.7604  1.8468
 1295TIP3   OH225443   2.766   1.558   1.895  0.1446 -0.0364 -0.6952
 1295TIP3    H125444   2.821   1.620   1.848  1.8323 -0.6046  0.4290
 1295TIP3    H225445   2.734   1.498   1.828  2.7611 -1.0299 -1.2041
 1296TIP3   OH225446   2.142   3.892   8.248  0.4895 -0.4139 -0.2203
 1296TIP3    H125447   2.118   3.920   8.337 -0.6614 -0.4980 -0.4844
 1296TIP3    H225448   2.215   3.831   8.261 -1.1508 -2.2848  0.9086
 1297TIP3   OH225449   3.761   6.318   0.785  0.3960  0.4634 -0.1833
 1297TIP3    H125450   3.715   6.235   0.771 -0.0907  0.2526  2.1898
 1297TIP3    H225451   3.692   6.384   0.778  0.4847  0.5203 -0.5173
 1298TIP3   OH225452   1.582   4.612   3.151 -0.4462 -0.2342  0.6627
 1298TIP3    H125453   1.635   4.544   3.109 -1.4976 -0.7565  0.1462
 1298TIP3    H225454   1.644   4.683   3.168  0.3575 -0.7005 -0.1883
 1299TIP3   OH225455   0.214   2.879   1.796 -0.3845 -0.4178 -0.2283
 1299TIP3    H125456   0.203   2.891   1.890  0.9343  0.0387 -0.1086
 1299TIP3    H225457   0.261   2.958   1.768 -1.9558  0.1216 -1.5215
 1300TIP3   OH225458   1.290   2.754   3.331  0.2718  0.0770  0.0751
 1300TIP3    H125459   1.376   2.735   3.295  0.5597 -0.1509  0.8652
 1300TIP3    H225460   1.248   2.668   3.340 -0.2296  0.2170 -0.7321
 1301TIP3   OH225461   4.145   4.220   1.017 -0.2801  0.3678  0.5478
 1301TIP3    H125462   4.189   4.298   1.050 -0.1979  0.4778  0.1919
 1301TIP3    H225463   4.208   4.149   1.031 -0.1357  0.4608  0.3848
 1302TIP3   OH225464   0.842   0.726   2.471 -0.0608 -0.9940  0.3500
 1302TIP3    H125465   0.934   0.750   2.463 -0.1391 -1.3191 -2.8222
 1302TIP3    H225466   0.803   0.800   2.518  1.4583  0.2106 -0.1662
 1303TIP3   OH225467   6.315   0.139   8.184  0.4927 -0.5967 -0.2737
 1303TIP3    H125468   6.222   0.118   8.195  0.2234 -0.1113 -1.4656
 1303TIP3    H225469   6.346   0.158   8.273 -0.8186  0.3493  0.0085
 1304TIP3   OH225470   2.912   2.107   7.885 -0.0965  0.2436 -0.3027
 1304TIP3    H125471   2.824   2.097   7.848 -0.0336 -0.9468 -0.1783
 1304TIP3    H225472   2.901   2.169   7.957 -1.2360 -1.2949  0.9342
 1305TIP3   OH225473   1.070   6.458   0.976  0.6028 -0.7449  0.1321
 1305TIP3    H125474   1.078   6.363   0.976  0.8193 -0.7410  1.1769
 1305TIP3    H225475   1.128   6.487   1.047  0.1235  0.1267  0.1880
 1306TIP3   OH225476   1.725   1.365   8.190  0.3941 -0.3017 -0.5781
 1306TIP3    H125477   1.643   1.332   8.155 -0.9170  1.9184  0.1754
 1306TIP3    H225478   1.699   1.437   8.248  2.8966  0.8070 -0.7093
 1307TIP3   OH225479   3.800   1.647   7.780  0.1682  0.0559  0.1459
 1307TIP3    H125480   3.715   1.691   7.782  0.2443  0.1836  0.6998
 1307TIP3    H225481   3.826   1.640   7.872 -0.0699 -1.5922  0.1201
 1308TIP3   OH225482   3.609   2.447   1.336 -0.2867  0.0634  0.6786
 1308TIP3    H125483   3.577   2.386   1.268  0.7108  0.2145  0.0534
 1308TIP3    H225484   3.698   2.418   1.354  0.5830  1.8967 -0.3515
 1309TIP3   OH225485   1.692   6.069   0.633 -0.2282  0.1784 -0.3576
 1309TIP3    H125486   1.721   6.159   0.648 -0.9412  0.2435  0.6675
 1309TIP3    H225487   1.605   6.078   0.594 -0.1726 -0.0601 -0.5363
 1310TIP3   OH225488   1.618   3.057   3.294 -0.1372 -0.1490 -0.7005
 1310TIP3    H125489   1.613   2.985   3.231 -0.6458  0.7320 -1.7057
 1310TIP3    H225490   1.694   3.036   3.349 -1.8642 -2.8641  0.8602
 1311TIP3   OH225491   2.782   5.554   3.053  0.6418 -0.9470 -0.6311
 1311TIP3    H125492   2.798   5.591   3.140 -1.2928  2.2270 -1.4496
 1311TIP3    H225493   2.703   5.501   3.063 -0.1479  0.2071 -0.5904
 1312TIP3   OH225494   5.536   6.705   2.928  0.0751 -0.2929 -0.5325
 1312TIP3    H125495   5.487   6.783   2.903  0.0592 -0.3979 -0.8400
 1312TIP3    H225496   5.468   6.640   2.948  0.0717 -0.6575 -1.6496
 1313TIP3   OH225497   3.541   5.679   0.409 -0.0263 -0.5159  0.5119
 1313TIP3    H125498   3.518   5.763   0.370 -1.7215 -1.1188  0.1467
 1313TIP3    H225499   3.551   5.620   0.334  0.8746 -0.7179  0.7800
 1314TIP3   OH225500   2.677   4.426   8.080 -0.5197 -0.3333 -0.2694
 1314TIP3    H125501   2.633   4.361   8.025  0.4995 -0.4827 -0.9492
 1314TIP3    H225502   2.631   4.423   8.163 -3.5812  1.4922 -1.7458
 1315TIP3   OH225503   1.677   2.810   1.293 -0.9165  0.3115 -0.4110
 1315TIP3    H125504   1.587   2.811   1.260 -0.4468 -3.9668 -2.5547
 1315TIP3    H225505   1.678   2.740   1.357  0.7542  0.8337  0.1800
 1316TIP3   OH225506   2.252   0.820   0.119 -1.1403 -0.2556 -0.1645
 1316TIP3    H125507   2.326   0.866   0.160 -0.8743 -1.0968  0.3153
 1316TIP3    H225508   2.267   0.830   0.025 -0.4029 -0.4410 -0.0727
 1317TIP3   OH225509   4.162   4.992   0.383  0.1753 -0.0312 -0.4065
 1317TIP3    H125510   4.207   4.908   0.392 -1.0852 -0.4861  4.3423
 1317TIP3    H225511   4.232   5.056   0.376  1.1840 -1.2672 -2.6224
 1318TIP3   OH225512   3.696   2.233   8.155 -0.4672  0.5396 -0.5205
 1318TIP3    H125513   3.618   2.189   8.188 -0.2723  1.0579  0.6621
 1318TIP3    H225514   3.676   2.326   8.162  0.4402  0.6872  0.2737
 1319TIP3   OH225515   5.997   1.036   8.192  0.3550 -0.3331 -0.0216
 1319TIP3    H125516   5.932   1.059   8.126  0.0659 -2.0349 -0.3773
 1319TIP3    H225517   6.080   1.068   8.157 -0.2300  1.6862  0.3445
 1320TIP3   OH225518   4.686   4.053   0.948  0.0386 -0.4932 -0.0683
 1320TIP3    H125519   4.650   4.034   0.861  0.3877 -1.7925  0.0584
 1320TIP3    H225520   4.617   4.028   1.009 -0.9601  2.1660  0.0227
 1321TIP3   OH225521   3.121   0.758   0.063 -0.1893  0.4058  0.8301
 1321TIP3    H125522   3.171   0.837   0.084  2.3425 -1.2110  1.3406
 1321TIP3    H225523   3.068   0.742   0.142 -0.1070  1.1393  1.0427
 1322TIP3   OH225524   5.662   0.128   1.656  0.1341  1.2525 -0.2184
 1322TIP3    H125525   5.721   0.194   1.692  1.1422 -0.0343  0.5796
 1322TIP3    H225526   5.693   0.113   1.567  0.7845  0.8554  0.0719
 1323TIP3   OH225527   0.892   3.070   2.668  0.6876 -0.2267  0.0591
 1323TIP3    H125528   0.867   3.072   2.761  1.2861 -1.8761  0.2945
 1323TIP3    H225529   0.978   3.029   2.668  0.7977 -0.0165 -1.2193
 1324TIP3   OH225530   3.237   2.805   2.271  0.2250 -0.4670 -0.3584
 1324TIP3    H125531   3.318   2.787   2.320  0.0220 -3.3351 -0.8757
 1324TIP3    H225532   3.176   2.737   2.301 -1.3923  0.4799 -1.3592
 1325TIP3   OH225533   6.677   2.190   7.937  0.3340 -0.3213  0.0249
 1325TIP3    H125534   6.597   2.145   7.908 -1.2672  2.0057  0.4575
 1325TIP3    H225535   6.745   2.161   7.877 -1.0152 -1.8095 -0.8541
 1326TIP3   OH225536   0.902   6.054   0.095  0.4654 -0.2307  0.5045
 1326TIP3    H125537   0.953   6.132   0.074 -0.5526  0.5618  0.8860
 1326TIP3    H225538   0.961   6.001   0.149  0.5861  1.1317  1.8057
 1327TIP3   OH225539   0.668   4.992   1.900 -0.0238  0.0498  0.7034
 1327TIP3    H125540   0.595   5.006   1.960 -0.8940  0.9666 -0.5246
 1327TIP3    H225541   0.628   4.964   1.818  1.0462 -0.0690  0.1933
 1328TIP3   OH225542   0.217   0.243   1.047 -0.5059  0.0712 -0.8140
 1328TIP3    H125543   0.247   0.328   1.015  0.4437 -0.9756 -2.9061
 1328TIP3    H225544   0.255   0.180   0.987 -0.5663 -1.9310  1.1269
 1329TIP3   OH225545   0.744   2.874   7.834 -0.4394  0.5347 -0.0602
 1329TIP3    H125546   0.676   2.855   7.899  0.1150 -1.3374  0.0258
 1329TIP3    H225547   0.826   2.871   7.883 -0.1954  1.7699 -0.3628
 1330TIP3   OH225548   4.015   6.427   0.655  0.3831  0.0294  0.3605
 1330TIP3    H125549   4.014   6.493   0.586 -0.7092 -1.3752 -1.0503
 1330TIP3    H225550   3.924   6.417   0.681  0.7730  0.4598  1.9663
 1331TIP3   OH225551   2.633   0.986   0.525 -0.0671 -0.7563  0.3402
 1331TIP3    H125552   2.692   1.051   0.487  1.3930 -0.9263  2.1705
 1331TIP3    H225553   2.567   1.037   0.571  0.0844 -0.5592  0.3375
 1332TIP3   OH225554   5.553   2.551   0.254 -0.5718 -0.5586  0.2998
 1332TIP3    H125555   5.603   2.470   0.245 -0.0148 -0.2406  0.4936
 1332TIP3    H225556   5.546   2.564   0.349 -2.1508 -1.2862  0.3063
 1333TIP3   OH225557   3.645   0.735   1.925  0.2271  0.2175 -0.4056
 1333TIP3    H125558   3.550   0.720   1.928  0.1411  0.5406 -1.1080
 1333TIP3    H225559   3.665   0.740   1.831  0.7994  1.0149 -0.2542
 1334TIP3   OH225560   0.671   4.384   8.000  0.0529 -0.0174  0.1620
 1334TIP3    H125561   0.665   4.440   7.922  0.0523 -1.2564 -0.7506
 1334TIP3    H225562   0.624   4.304   7.976  1.2260 -0.9725  0.9263
 1335TIP3   OH225563   0.762   3.739   2.766 -0.3173  0.2222  0.0141
 1335TIP3    H125564   0.835   3.781   2.812  0.9608 -2.2685  0.4781
 1335TIP3    H225565   0.694   3.730   2.833 -1.1190  2.5572 -0.4194
 1336TIP3   OH225566   6.405   0.094   2.028 -0.1829 -0.1427 -0.1848
 1336TIP3    H125567   6.396   0.060   2.118 -0.7358 -0.4849 -0.3614
 1336TIP3    H225568   6.408   0.015   1.974  1.3728  0.0148 -0.3860
 1337TIP3   OH225569   1.132   2.333   1.138  0.0548 -0.5096  0.1187
 1337TIP3    H125570   1.175   2.371   1.061 -0.2192  0.5830  0.5012
 1337TIP3    H225571   1.161   2.241   1.137 -1.2556 -0.9828 -2.2282
 1338TIP3   OH225572   2.069   1.777   2.249 -0.0067  0.0126  0.1034
 1338TIP3    H125573   2.067   1.859   2.200  1.1814  0.1836  0.2991
 1338TIP3    H225574   2.051   1.803   2.340  2.3276  0.3973  0.5229
 1339TIP3   OH225575   6.169   2.193   1.932  0.4590  0.2501 -0.5583
 1339TIP3    H125576   6.188   2.249   2.007 -1.3228 -0.4113  0.4590
 1339TIP3    H225577   6.086   2.227   1.897  0.6165 -0.2373 -1.4422
 1340TIP3   OH225578   0.979   4.961   2.477 -0.4261  0.3949 -0.0608
 1340TIP3    H125579   0.896   4.922   2.447 -0.2786  1.0045 -1.3570
 1340TIP3    H225580   1.045   4.924   2.417  0.0178  1.0050  0.0475
 1341TIP3   OH225581   2.471   2.161   0.007  0.1492  1.0085 -0.3189
 1341TIP3    H125582   2.565   2.178   0.013  0.2586  0.0791  0.9724
 1341TIP3    H225583   2.446   2.195  -0.079  2.0258 -0.4315 -1.5044
 1342TIP3   OH225584   1.318   0.602   7.048 -0.2197 -0.1271  0.6856
 1342TIP3    H125585   1.252   0.601   7.118 -1.5201  0.6423 -0.4838
 1342TIP3    H225586   1.281   0.659   6.981  2.2924  1.5346  0.5807
 1343TIP3   OH225587   3.330   5.901   1.694  0.2498 -0.0557  0.3842
 1343TIP3    H125588   3.417   5.892   1.656 -0.1285 -0.2663 -0.4585
 1343TIP3    H225589   3.317   5.996   1.701  0.0283  0.0201 -0.7658
 1344TIP3   OH225590   6.448   5.376   8.426 -0.1064  0.0630 -0.0721
 1344TIP3    H125591   6.503   5.346   8.353  0.6435 -0.3470  0.6530
 1344TIP3    H225592   6.451   5.471   8.421  2.0057  0.0974  0.9111
 1345TIP3   OH225593   0.509   1.754   0.974 -0.2042 -0.2597 -0.3766
 1345TIP3    H125594   0.571   1.686   1.001  0.4846  0.0044 -1.2147
 1345TIP3    H225595   0.484   1.729   0.885  1.7700  1.6985 -1.5735
 1346TIP3   OH225596   0.766   3.174   0.612 -0.4232 -0.2294 -0.3670
 1346TIP3    H125597   0.709   3.209   0.681 -0.4034 -2.0122  0.6262
 1346TIP3    H225598   0.712   3.107   0.569 -0.6990  1.3396 -2.6403
 1347TIP3   OH225599   2.933   2.965   1.651  0.5929  0.8355 -0.1931
 1347TIP3    H125600   2.921   3.022   1.575 -1.6059  0.7495  0.0235
 1347TIP3    H225601   2.878   2.889   1.633 -0.8972  1.3221  1.9188
 1348TIP3   OH225602   5.754   2.813   1.954  0.0203 -0.2958  0.1247
 1348TIP3    H125603   5.686   2.749   1.935  0.2697 -0.2816 -0.8619
 1348TIP3    H225604   5.836   2.763   1.950  0.3738  0.3623 -2.3390
 1349TIP3   OH225605   6.624   3.521   0.674  0.2549 -0.2104  0.5029
 1349TIP3    H125606   6.645   3.471   0.752  0.0092 -1.1753 -0.0323
 1349TIP3    H225607   6.659   3.469   0.601 -0.3409  0.1996 -0.0944
 1350TIP3   OH225608   1.371   2.355   0.323 -0.3458 -0.3102 -0.7631
 1350TIP3    H125609   1.457   2.397   0.317 -0.3761 -0.3283 -1.3618
 1350TIP3    H225610   1.386   2.277   0.376 -0.3101  0.4967  0.4739
 1351TIP3   OH225611   3.681   5.609   8.184 -0.0257  0.1612  0.1031
 1351TIP3    H125612   3.639   5.539   8.132 -1.4017  1.8465 -1.1711
 1351TIP3    H225613   3.616   5.632   8.250  0.2282  0.5644  0.2117
 1352TIP3   OH225614   5.924   2.503   2.238 -0.8784  0.3585 -0.2387
 1352TIP3    H125615   5.911   2.572   2.302 -0.4282  0.0615  0.1813
 1352TIP3    H225616   5.922   2.422   2.288 -1.8829  0.0209 -0.7955
 1353TIP3   OH225617   0.669   0.109   1.200 -0.5542  0.3883  0.3666
 1353TIP3    H125618   0.721   0.121   1.121  1.1093  0.9680  1.4943
 1353TIP3    H225619   0.584   0.148   1.179 -0.1196  0.6106 -1.0857
 1354TIP3   OH225620   3.360   3.733   0.223  0.1232 -0.2933 -0.1758
 1354TIP3    H125621   3.359   3.765   0.313  0.5006  0.3860 -0.3950
 1354TIP3    H225622   3.453   3.720   0.204  0.0087 -0.9449 -0.2953
 1355TIP3   OH225623   1.850   3.412   0.206  1.0893 -0.1598 -0.2512
 1355TIP3    H125624   1.768   3.364   0.193  0.0271  1.5121 -0.1517
 1355TIP3    H225625   1.830   3.474   0.276  3.2471 -1.3703  1.5571
 1356TIP3   OH225626   6.178   5.393   2.042  0.5293 -0.1612  0.7220
 1356TIP3    H125627   6.111   5.350   1.989  1.4205  0.4750 -0.9895
 1356TIP3    H225628   6.254   5.335   2.036  1.7662  1.5242 -1.6683
 1357TIP3   OH225629   4.171   6.341   0.371  0.6779 -0.0810  0.0529
 1357TIP3    H125630   4.216   6.262   0.340  1.4656  0.6608 -0.7472
 1357TIP3    H225631   4.160   6.328   0.465  0.9773 -1.0520 -0.0418
 1358TIP3   OH225632   6.348   4.889   7.722  0.0547  0.2397 -0.0844
 1358TIP3    H125633   6.374   4.804   7.686 -1.1239  0.5457 -1.7429
 1358TIP3    H225634   6.274   4.869   7.780  1.1039 -0.0792  1.2163
 1359TIP3   OH225635   4.208   3.674   7.910 -0.0611  0.2055 -0.1136
 1359TIP3    H125636   4.113   3.670   7.910 -0.1819  2.0421  0.9457
 1359TIP3    H225637   4.234   3.620   7.985 -0.0001 -3.0050 -2.2471
 1360TIP3   OH225638   4.631   2.107   2.527 -0.5233  0.2978 -0.4087
 1360TIP3    H125639   4.665   2.024   2.560 -2.7320 -0.7638 -0.5800
 1360TIP3    H225640   4.695   2.136   2.462 -0.4953 -2.1708 -1.6118
 1361TIP3   OH225641   4.226   5.311   0.509  0.5154 -0.0401  0.0746
 1361TIP3    H125642   4.308   5.284   0.467  0.1266 -1.6602  0.2614
 1361TIP3    H225643   4.159   5.296   0.443  0.2782  0.5172  0.1886
 1362TIP3   OH225644   5.152   4.026   2.492  0.0471  0.6404 -0.2675
 1362TIP3    H125645   5.078   4.084   2.509 -0.4550  0.0481 -0.3702
 1362TIP3    H225646   5.112   3.941   2.473  0.7335  0.4373 -0.8686
 1363TIP3   OH225647   2.595   3.626   0.761  0.3990  0.0469  0.0772
 1363TIP3    H125648   2.671   3.652   0.709  0.4817  1.7788  0.9823
 1363TIP3    H225649   2.632   3.598   0.845  0.1761 -1.4087 -0.2912
 1364TIP3   OH225650   5.985   0.726   7.985 -0.3357 -0.3665 -0.4787
 1364TIP3    H125651   5.899   0.733   8.027 -0.7924 -1.2240 -1.2529
 1364TIP3    H225652   6.007   0.816   7.961  0.1623  0.2439  1.9760
 1365TIP3   OH225653   3.864   4.082   2.319  0.6613  0.3618 -0.8334
 1365TIP3    H125654   3.772   4.067   2.295  1.4600 -1.3707 -3.2083
 1365TIP3    H225655   3.888   4.005   2.370  1.2655 -0.1624 -1.8667
 1366TIP3   OH225656   2.512   2.499   7.997 -0.3015  0.2686 -0.6580
 1366TIP3    H125657   2.506   2.482   7.904 -0.0672 -0.2558 -0.5829
 1366TIP3    H225658   2.572   2.573   8.004  1.0592 -0.7727 -0.8405
 1367TIP3   OH225659   2.343   4.452   7.937 -0.3391 -0.3896  0.4211
 1367TIP3    H125660   2.420   4.452   7.881 -0.6197 -0.4723  0.0311
 1367TIP3    H225661   2.274   4.412   7.884 -0.0251 -2.7343  1.6539
 1368TIP3   OH225662   2.614   6.115   0.270  0.3261  0.0052  0.1213
 1368TIP3    H125663   2.676   6.104   0.198  0.5831 -0.0517  0.3551
 1368TIP3    H225664   2.583   6.205   0.261  1.1673  0.3491  0.5859
 1369TIP3   OH225665   3.894   3.400   0.189  0.5732  0.3237 -0.4012
 1369TIP3    H125666   3.871   3.398   0.282  0.1311 -0.7119 -0.5223
 1369TIP3    H225667   3.814   3.375   0.144  0.6867  1.1493 -1.0998
 1370TIP3   OH225668   5.859   3.134   8.232  0.4380 -0.1327  0.1970
 1370TIP3    H125669   5.817   3.068   8.287 -2.1921  0.5322 -0.8605
 1370TIP3    H225670   5.828   3.115   8.143  1.7277  0.9667 -0.5358
 1371TIP3   OH225671   4.420   0.317   7.472  0.3484  0.9173  0.7764
 1371TIP3    H125672   4.451   0.342   7.559 -0.2084  0.5371  1.0910
 1371TIP3    H225673   4.465   0.377   7.413  1.8184  0.2422  1.1904
 1372TIP3   OH225674   4.682   5.753   1.133  0.2518 -0.3760  0.2087
 1372TIP3    H125675   4.665   5.760   1.227 -0.1147  1.3485  0.0524
 1372TIP3    H225676   4.641   5.832   1.096  0.6571 -0.8726 -1.3549
 1373TIP3   OH225677   5.517   6.106   8.367 -0.4307 -0.1107  0.1733
 1373TIP3    H125678   5.503   6.012   8.374  1.7982 -0.4314  1.2726
 1373TIP3    H225679   5.429   6.143   8.355 -1.1789 -2.4303 -2.4479
 1374TIP3   OH225680   2.194   5.439   3.213 -0.1923  0.4386 -0.4025
 1374TIP3    H125681   2.154   5.513   3.258  1.4279  1.6834 -0.8977
 1374TIP3    H225682   2.141   5.363   3.238 -2.2776  1.8359 -0.3675
 1375TIP3   OH225683   1.817   1.746   1.182 -0.5937 -0.0292 -0.4665
 1375TIP3    H125684   1.856   1.752   1.095 -0.4434 -0.0246 -0.3983
 1375TIP3    H225685   1.887   1.771   1.242 -0.7616  0.1796 -0.3570
 1376TIP3   OH225686   4.474   6.367   0.373 -0.0210  0.1191  0.1570
 1376TIP3    H125687   4.526   6.300   0.417  0.6722 -0.6791 -1.7707
 1376TIP3    H225688   4.398   6.321   0.339  0.2343  0.3813 -0.8013
 1377TIP3   OH225689   0.660   4.609   7.817 -0.5154 -0.2210  0.1420
 1377TIP3    H125690   0.580   4.660   7.806 -0.5841 -0.5420 -1.0413
 1377TIP3    H225691   0.730   4.668   7.789 -0.4840 -0.3916 -0.1461
 1378TIP3   OH225692   5.161   6.778   0.058 -0.4007 -0.0857 -0.2136
 1378TIP3    H125693   5.106   6.700   0.070 -1.3590  0.3700 -1.3808
 1378TIP3    H225694   5.184   6.805   0.147  0.4590 -2.0272  0.2042
 1379TIP3   OH225695   0.549   2.232   8.312  0.4327 -0.3547  0.4067
 1379TIP3    H125696   0.455   2.248   8.323  0.4386 -1.0837  1.6780
 1379TIP3    H225697   0.560   2.139   8.329  1.2579 -0.4869 -0.7546
 1380TIP3   OH225698   6.288   1.945   1.995 -0.0685  0.4597  0.2363
 1380TIP3    H125699   6.257   2.033   1.977 -1.3328  0.1743  0.8746
 1380TIP3    H225700   6.244   1.890   1.930  1.3251  0.3746 -0.6702
 1381TIP3   OH225701   6.415   3.598   1.631 -0.6936  0.2123  0.6874
 1381TIP3    H125702   6.410   3.530   1.563  0.8584  0.6500  0.1025
 1381TIP3    H225703   6.406   3.550   1.713 -2.0418 -0.3963  0.2104
 1382TIP3   OH225704   4.682   3.787   8.408  0.1595  0.1333  0.0318
 1382TIP3    H125705   4.627   3.709   8.416 -1.0117  0.9614  0.3054
 1382TIP3    H225706   4.769   3.753   8.387 -0.5925 -1.1783 -1.0959
 1383TIP3   OH225707   1.037   5.930   1.830  0.2190  0.3970  0.1350
 1383TIP3    H125708   1.014   5.872   1.902  0.0564  1.6223  1.0923
 1383TIP3    H225709   1.031   5.875   1.752 -1.5597 -0.4647  0.8352
 1384TIP3   OH225710   4.127   5.041   1.977 -0.0316  0.0162  0.1665
 1384TIP3    H125711   4.059   4.977   1.956  0.1136  0.2297 -0.9933
 1384TIP3    H225712   4.195   4.989   2.020 -0.5093 -0.3604  0.4809
 1385TIP3   OH225713   2.704   0.205   2.431 -0.2714 -0.3189 -0.2047
 1385TIP3    H125714   2.750   0.122   2.444 -0.8209 -0.3707  1.6322
 1385TIP3    H225715   2.636   0.206   2.498  0.4479  2.1322  0.5832
 1386TIP3   OH225716   3.018   6.632   2.559  0.1876 -0.0331 -0.5642
 1386TIP3    H125717   2.931   6.611   2.591 -0.6384 -0.1766 -2.7313
 1386TIP3    H225718   3.008   6.718   2.517  2.1273  2.0812  2.8286
 1387TIP3   OH225719   6.566   6.836   2.652  0.9008 -0.2092 -0.6315
 1387TIP3    H125720   6.501   6.791   2.705 -0.6919  1.8532 -0.7167
 1387TIP3    H225721   6.587   6.915   2.702  1.9617  0.0668 -1.4744
 1388TIP3   OH225722   5.204   4.239   2.278  0.1360  0.1625 -0.2951
 1388TIP3    H125723   5.208   4.326   2.319 -0.0802 -0.1498  0.4199
 1388TIP3    H225724   5.158   4.185   2.343  1.6454 -0.8693 -0.0167
 1389TIP3   OH225725   0.237   4.077   1.932 -0.4335  0.2519  0.0175
 1389TIP3    H125726   0.246   4.019   2.008  0.4451 -0.2029 -0.4126
 1389TIP3    H225727   0.270   4.162   1.962 -1.4363  0.4702  0.5576
 1390TIP3   OH225728   5.462   3.464   0.187 -0.2116 -0.0480 -0.5249
 1390TIP3    H125729   5.432   3.528   0.123 -0.8721  0.2562  0.0770
 1390TIP3    H225730   5.502   3.517   0.256 -0.9842 -0.2654  0.0934
 1391TIP3   OH225731   5.141   4.197   8.019  0.2184  0.3462  0.2783
 1391TIP3    H125732   5.058   4.245   8.023 -0.8629 -1.5201  2.7253
 1391TIP3    H225733   5.146   4.165   7.929 -0.6173  2.2447 -0.5010
 1392TIP3   OH225734   4.513   0.310   6.831 -0.2839  0.1148  0.3694
 1392TIP3    H125735   4.433   0.363   6.830 -0.6376 -0.3892 -1.1142
 1392TIP3    H225736   4.509   0.259   6.749  0.5874 -1.3678  1.2044
 1393TIP3   OH225737   4.873   3.293   3.114  0.1076  0.4058  0.4606
 1393TIP3    H125738   4.797   3.350   3.122  0.6939  1.0793  1.4988
 1393TIP3    H225739   4.854   3.219   3.173 -0.2146  0.0254 -0.1166
 1394TIP3   OH225740   6.588   0.826   1.903 -0.1807  0.4110 -0.0920
 1394TIP3    H125741   6.526   0.753   1.914 -0.2085  0.4419 -0.0453
 1394TIP3    H225742   6.541   0.903   1.933  0.2544  0.2763  0.9884
 1395TIP3   OH225743   3.285   1.514   3.248  0.6567  0.6943  0.1472
 1395TIP3    H125744   3.366   1.464   3.255 -1.0983 -2.3168  0.5556
 1395TIP3    H225745   3.290   1.557   3.163  2.1648 -0.4333 -0.3696
 1396TIP3   OH225746   1.852   2.661   0.139  0.2545  0.1894 -0.0353
 1396TIP3    H125747   1.912   2.725   0.099 -0.1672  1.0258  0.6322
 1396TIP3    H225748   1.768   2.707   0.144  0.3967  0.3205  2.2324
 1397TIP3   OH225749   5.191   6.059   8.319  0.0127 -0.1549 -0.7504
 1397TIP3    H125750   5.184   6.005   8.240  2.1991 -0.0413 -1.0986
 1397TIP3    H225751   5.202   6.148   8.285 -0.3442  0.0633 -0.2847
 1398TIP3   OH225752   3.086   1.344   0.151  0.0070  0.1365  0.0174
 1398TIP3    H125753   3.040   1.371   0.072  0.6472 -0.4762 -0.5780
 1398TIP3    H225754   3.114   1.426   0.192 -0.0029  0.4428 -0.5820
 1399TIP3   OH225755   2.679   6.889   2.668  0.2617 -0.2749 -0.4341
 1399TIP3    H125756   2.660   6.970   2.717  0.0679 -0.5113 -0.1104
 1399TIP3    H225757   2.760   6.856   2.707  0.2606 -0.3154 -0.4668
 1400TIP3   OH225758   0.730   6.357   7.990 -0.0831 -0.1912  0.2433
 1400TIP3    H125759   0.644   6.397   7.998  0.0423 -0.2794  3.2152
 1400TIP3    H225760   0.790   6.431   7.980 -0.3865 -0.0619 -0.6612
 1401TIP3   OH225761   2.088   5.631   8.286  0.1913 -0.1755 -0.7009
 1401TIP3    H125762   2.105   5.667   8.199  0.2711 -0.9627 -1.0112
 1401TIP3    H225763   1.994   5.610   8.285  0.2246 -0.3279 -0.6520
 1402TIP3   OH225764   2.847   4.551   2.394 -0.1114 -0.2413 -0.4105
 1402TIP3    H125765   2.817   4.484   2.332 -2.4217 -2.1298  2.4447
 1402TIP3    H225766   2.789   4.625   2.379 -1.4249 -1.1166  0.1763
 1403TIP3   OH225767   1.273   5.873   0.029 -0.0446  0.1211 -0.4506
 1403TIP3    H125768   1.264   5.789   0.074  0.5365  0.7375  0.8888
 1403TIP3    H225769   1.367   5.879   0.010  0.3727  1.5409  1.7470
 1404TIP3   OH225770   5.605   5.628   1.666 -0.0234 -0.4937 -0.8112
 1404TIP3    H125771   5.570   5.620   1.577  0.5392 -0.7450 -1.0104
 1404TIP3    H225772   5.659   5.707   1.664 -1.4326  0.5443 -0.2070
 1405TIP3   OH225773   1.478   3.177   8.210 -0.2204 -0.0680 -0.1761
 1405TIP3    H125774   1.468   3.265   8.176  0.4740  0.3108  0.5560
 1405TIP3    H225775   1.389   3.147   8.229 -0.5127  0.1793 -1.1449
 1406TIP3   OH225776   2.574   5.207   8.399  0.4799  0.4169 -0.7541
 1406TIP3    H125777   2.501   5.261   8.368 -0.4474 -0.2516  0.1902
 1406TIP3    H225778   2.569   5.128   8.346  0.8045  0.5438 -0.9817
 1407TIP3   OH225779   4.402   4.407   1.555  0.0970  0.4782 -0.3045
 1407TIP3    H125780   4.426   4.342   1.489 -1.0363  0.2475 -0.5060
 1407TIP3    H225781   4.307   4.397   1.566  0.4825 -0.8859  2.8436
 1408TIP3   OH225782   5.585   5.086   0.471 -0.2248 -0.2406 -0.4232
 1408TIP3    H125783   5.650   5.028   0.432  0.5021  0.5713 -0.4447
 1408TIP3    H225784   5.620   5.107   0.557 -0.9888 -0.6454 -0.0002
 1409TIP3   OH225785   3.969   2.630   0.453  0.7476 -0.4159  0.7478
 1409TIP3    H125786   3.878   2.627   0.424  0.4826 -1.5536  1.6453
 1409TIP3    H225787   3.969   2.588   0.539  2.0082  0.2154  1.0930
 1410TIP3   OH225788   6.428   3.139   1.392 -0.2511 -0.2391  0.0765
 1410TIP3    H125789   6.422   3.175   1.481  0.0826  1.3733 -0.5198
 1410TIP3    H225790   6.338   3.118   1.369 -0.4279 -0.0305  0.5551
 1411TIP3   OH225791   1.684   1.576   1.455  0.0170 -0.0020  0.3537
 1411TIP3    H125792   1.689   1.672   1.456  0.5968 -0.0135  2.0274
 1411TIP3    H225793   1.630   1.555   1.531 -1.2003 -0.9806 -0.7510
 1412TIP3   OH225794   0.089   4.407   0.008  0.2358 -0.2378 -0.8058
 1412TIP3    H125795   0.145   4.359  -0.053  0.4020 -1.9758  0.6146
 1412TIP3    H225796   0.147   4.427   0.082 -0.7577 -1.3462  0.3223
 1413TIP3   OH225797   1.311   1.457   1.725 -0.2431  0.3360  0.2945
 1413TIP3    H125798   1.260   1.415   1.793  0.6078  0.8797  1.2901
 1413TIP3    H225799   1.394   1.480   1.767 -0.3152  2.1609 -0.4530
 1414TIP3   OH225800   3.983   3.338   0.681 -1.0186 -0.0466  0.5999
 1414TIP3    H125801   3.923   3.343   0.755 -2.2595  0.6283 -0.4153
 1414TIP3    H225802   3.927   3.342   0.604  0.2612 -0.4562 -0.3929
 1415TIP3   OH225803   6.122   2.827   0.307  0.6888 -0.1639 -0.9012
 1415TIP3    H125804   6.072   2.891   0.256 -0.9706  0.4566  1.3477
 1415TIP3    H225805   6.097   2.742   0.270 -2.5448  0.0659  0.4073
 1416TIP3   OH225806   2.072   4.382   2.645 -0.5457  0.1546  0.6129
 1416TIP3    H125807   2.089   4.389   2.739  1.7327 -0.7559  0.3401
 1416TIP3    H225808   2.144   4.431   2.604 -0.3317 -1.1736 -0.6903
 1417TIP3   OH225809   0.827   6.088   8.038  0.1270 -0.0870 -0.2934
 1417TIP3    H125810   0.793   6.057   7.954 -1.9320  0.1747  0.3703
 1417TIP3    H225811   0.807   6.182   8.037  1.7633  0.2751 -0.2485
 1418TIP3   OH225812   0.922   0.358   0.134  0.1332 -0.3010 -0.1083
 1418TIP3    H125813   0.937   0.354   0.039  0.5967  0.9280 -0.1053
 1418TIP3    H225814   0.842   0.308   0.147 -0.4979  0.3360 -1.2936
 1419TIP3   OH225815   5.430   1.868   1.994  0.6316  0.0113 -0.4121
 1419TIP3    H125816   5.369   1.856   1.921 -0.2745 -1.6637  0.5471
 1419TIP3    H225817   5.515   1.882   1.952  0.4436 -2.5208 -1.8602
 1420TIP3   OH225818   0.669   0.580   8.046 -0.1262  0.9853 -0.1328
 1420TIP3    H125819   0.645   0.491   8.023  2.6880 -0.1214  0.7666
 1420TIP3    H225820   0.587   0.629   8.043 -1.6012 -1.3981 -1.5575
 1421TIP3   OH225821   0.559   0.238   2.314 -0.1491 -0.4299 -0.3131
 1421TIP3    H125822   0.642   0.192   2.304 -0.7402 -1.2980 -1.4970
 1421TIP3    H225823   0.510   0.186   2.377  0.3631  0.3645  0.7841
 1422TIP3   OH225824   5.724   2.958   0.528  0.1769 -0.2353  0.3491
 1422TIP3    H125825   5.709   2.881   0.473 -0.6488 -0.6686  1.1509
 1422TIP3    H225826   5.755   2.922   0.612  1.7028  0.4275  0.1009
 1423TIP3   OH225827   6.745   3.448   8.330 -0.1360  0.0182 -0.1472
 1423TIP3    H125828   6.656   3.411   8.336  0.7689 -2.3548 -0.1740
 1423TIP3    H225829   6.748   3.487   8.243 -1.0343 -0.2853 -0.3320
 1424TIP3   OH225830   1.830   2.389   0.882  0.1769  0.0531 -0.0686
 1424TIP3    H125831   1.888   2.392   0.958  0.0359  0.0183  0.0413
 1424TIP3    H225832   1.886   2.363   0.809 -0.0313 -1.7201  0.3538
 1425TIP3   OH225833   5.044   3.689   7.483  0.1845  0.2060  0.1339
 1425TIP3    H125834   5.076   3.609   7.440 -0.6148  0.5329 -1.1403
 1425TIP3    H225835   5.090   3.760   7.438  0.4310  0.5084  0.8473
 1426TIP3   OH225836   3.466   2.386   6.961  0.1218 -0.0091 -0.1293
 1426TIP3    H125837   3.549   2.352   6.994  0.2830  1.2609  0.8889
 1426TIP3    H225838   3.409   2.310   6.956  1.4140 -0.9534 -1.1107
 1427TIP3   OH225839   4.210   0.195   0.790 -0.8889 -0.0936 -0.1598
 1427TIP3    H125840   4.196   0.196   0.884  0.5411 -1.3437  0.1097
 1427TIP3    H225841   4.127   0.163   0.754 -0.7419 -1.8092  0.8883
 1428TIP3   OH225842   1.220   3.958   0.317 -0.2772 -0.3330  0.0010
 1428TIP3    H125843   1.229   4.030   0.255  0.2090 -1.4922 -1.3345
 1428TIP3    H225844   1.128   3.930   0.307 -0.0979 -0.7696 -0.5284
 1429TIP3   OH225845   0.716   2.357   1.710  0.0623 -1.0067 -0.6064
 1429TIP3    H125846   0.768   2.307   1.772 -1.9755 -1.9866  0.3994
 1429TIP3    H225847   0.781   2.398   1.652  2.0152 -0.4961  1.7810
 1430TIP3   OH225848   4.170   3.061   8.097 -0.4981  0.2116  0.1356
 1430TIP3    H125849   4.090   3.041   8.146 -0.1572  3.3095  2.2530
 1430TIP3    H225850   4.159   3.152   8.070  1.8692  0.3950 -0.4506
 1431TIP3   OH225851   2.751   4.338   3.666  0.8430  0.7979  0.1871
 1431TIP3    H125852   2.841   4.328   3.635  0.9545  1.2307  0.3616
 1431TIP3    H225853   2.729   4.429   3.647  0.5068  0.7448  0.3165
 1432TIP3   OH225854   6.818   3.703   7.717 -0.1751  0.2990 -0.0067
 1432TIP3    H125855   6.769   3.748   7.786 -0.3095 -0.8770  0.6990
 1432TIP3    H225856   6.831   3.614   7.751  2.0202  0.4191 -0.3761
 1433TIP3   OH225857   4.069   2.485   2.299  0.3067  0.9503 -0.0070
 1433TIP3    H125858   4.105   2.574   2.291  2.8260  0.0803  0.6252
 1433TIP3    H225859   3.981   2.491   2.262  0.3751  3.7149  0.0802
 1434TIP3   OH225860   5.327   4.417   8.042 -0.4382 -0.3529 -0.1425
 1434TIP3    H125861   5.316   4.429   8.136 -0.6368 -0.0435 -0.2028
 1434TIP3    H225862   5.250   4.366   8.015 -1.6413  1.5382 -0.5107
 1435TIP3   OH225863   5.114   2.343   0.476 -0.4098  0.3972 -0.2564
 1435TIP3    H125864   5.050   2.288   0.522  0.1751 -1.5710 -1.6397
 1435TIP3    H225865   5.065   2.421   0.451 -1.9203 -0.4604 -0.1157
 1436TIP3   OH225866   3.462   1.712   7.406  0.5378  0.7335 -0.3005
 1436TIP3    H125867   3.501   1.774   7.468  2.0549 -0.9436  0.5374
 1436TIP3    H225868   3.537   1.665   7.370 -0.5836 -1.6119  0.2421
 1437TIP3   OH225869   6.365   0.733   2.173 -0.4715  0.1529  0.3529
 1437TIP3    H125870   6.396   0.656   2.220  2.6050  1.4480  0.7434
 1437TIP3    H225871   6.293   0.702   2.118 -0.4797 -2.5756  1.7782
 1438TIP3   OH225872   3.898   6.915   1.301 -0.4910 -0.0400 -0.5461
 1438TIP3    H125873   3.848   6.860   1.240  0.9961  1.5952 -3.5001
 1438TIP3    H225874   3.989   6.900   1.276  0.3329 -0.2349  2.2667
 1439TIP3   OH225875   3.580   5.002   1.254  0.6447 -0.4774  0.4678
 1439TIP3    H125876   3.626   4.922   1.231  1.1221 -0.0677 -0.0540
 1439TIP3    H225877   3.638   5.047   1.315  0.5014 -0.4021  0.5500
 1440TIP3   OH225878   6.183   5.863   0.020  0.4355  0.3330  0.5707
 1440TIP3    H125879   6.183   5.956   0.000  0.2108  0.5465  1.5318
 1440TIP3    H225880   6.172   5.820  -0.065  0.0190  1.1871  0.1863
 1441TIP3   OH225881   1.402   0.160   0.521  0.1175 -0.5850 -0.4049
 1441TIP3    H125882   1.352   0.226   0.569 -1.0017 -1.4062 -0.3858
 1441TIP3    H225883   1.481   0.146   0.574  0.3145  0.6299 -0.3534
 1442TIP3   OH225884   0.519   4.398   0.004  0.0419  0.5181  0.5461
 1442TIP3    H125885   0.564   4.445  -0.066  1.1624  0.1783  1.0206
 1442TIP3    H225886   0.537   4.305  -0.014 -0.8264  0.3504  0.5080
 1443TIP3   OH225887   6.693   6.052   2.662 -0.2164  0.1458 -0.4885
 1443TIP3    H125888   6.737   6.025   2.581  0.2382  1.8521 -0.8474
 1443TIP3    H225889   6.759   6.041   2.730  0.3622  1.4233 -0.8184
 1444TIP3   OH225890   6.352   2.323   7.840 -0.0657 -0.4010 -0.5950
 1444TIP3    H125891   6.378   2.400   7.891 -0.2894  0.1168 -1.2413
 1444TIP3    H225892   6.369   2.249   7.897 -1.0863  0.2132  0.5600
 1445TIP3   OH225893   3.525   6.193   2.704  0.2598  0.0780 -0.3149
 1445TIP3    H125894   3.554   6.103   2.719  0.3452  0.1302 -0.1735
 1445TIP3    H225895   3.444   6.200   2.754 -1.0291 -0.6474 -2.1466
 1446TIP3   OH225896   5.077   2.318   7.710  0.1113  0.2677  0.0298
 1446TIP3    H125897   5.095   2.403   7.749  0.6997  1.1701 -2.0668
 1446TIP3    H225898   4.989   2.326   7.673 -0.2430 -0.4015  0.7051
 1447TIP3   OH225899   1.216   3.111   1.922 -0.2725  0.0544  1.2243
 1447TIP3    H125900   1.303   3.110   1.961  0.5962 -0.5729 -0.5808
 1447TIP3    H225901   1.174   3.189   1.957  1.4294  0.9847  1.3056
 1448TIP3   OH225902   6.349   5.923   1.156 -0.4395  0.8546 -0.1026
 1448TIP3    H125903   6.430   5.966   1.129 -0.3980  1.1641  0.4984
 1448TIP3    H225904   6.305   5.988   1.211  0.1923 -0.2688  1.8516
 1449TIP3   OH225905   5.226   5.834   8.132  0.7192  0.0531 -0.5499
 1449TIP3    H125906   5.305   5.867   8.088  0.6519 -0.9952 -1.4693
 1449TIP3    H225907   5.257   5.758   8.182  0.7381  1.0460  1.0302
 1450TIP3   OH225908   0.913   2.808   0.480  0.0281 -0.0346 -0.1727
 1450TIP3    H125909   0.855   2.835   0.409 -0.6687 -1.7845 -0.3210
 1450TIP3    H225910   0.854   2.793   0.555  0.4331 -0.6760  0.0226
 1451TIP3   OH225911   0.325   0.655   8.169  0.3576 -0.5590 -0.1342
 1451TIP3    H125912   0.371   0.688   8.246 -1.6761 -0.5974  1.1688
 1451TIP3    H225913   0.272   0.582   8.202 -0.7474 -0.4317 -1.5250
 1452TIP3   OH225914   3.660   6.312   6.872 -0.1960 -0.0446 -0.1212
 1452TIP3    H125915   3.571   6.279   6.859  0.2370 -1.7485  0.9073
 1452TIP3    H225916   3.710   6.275   6.798  0.1458 -1.2220  0.6631
 1453TIP3   OH225917   1.328   6.758   0.969  0.3151 -0.2124  0.4693
 1453TIP3    H125918   1.255   6.754   0.907  0.6319  1.4831 -0.0782
 1453TIP3    H225919   1.351   6.667   0.985  0.5711 -0.7245 -2.3543
 1454TIP3   OH225920   4.417   2.346   2.224  0.0203 -0.5248  0.1396
 1454TIP3    H125921   4.438   2.396   2.145 -0.0178  1.5603  1.3648
 1454TIP3    H225922   4.484   2.277   2.227 -0.8185 -1.5903 -2.3996
 1455TIP3   OH225923   6.438   2.239   0.298  0.3295 -0.2141 -0.3984
 1455TIP3    H125924   6.517   2.185   0.291 -0.2259 -1.4070  1.5665
 1455TIP3    H225925   6.432   2.258   0.392 -1.7095 -0.1605 -0.5090
 1456TIP3   OH225926   3.633   6.818   1.518 -0.0170 -0.3679  0.2215
 1456TIP3    H125927   3.720   6.856   1.512  0.1670 -0.5061  1.5383
 1456TIP3    H225928   3.577   6.890   1.546  0.1094 -0.7553  1.5446
 1457TIP3   OH225929   5.802   2.757   0.214 -0.3763  0.6272  0.5550
 1457TIP3    H125930   5.869   2.694   0.240 -0.7707 -0.0715 -0.0689
 1457TIP3    H225931   5.719   2.712   0.229 -0.6771  1.1228  0.4163
 1458TIP3   OH225932   2.300   3.717   7.711  0.0919 -0.0199  0.6134
 1458TIP3    H125933   2.327   3.643   7.657 -0.4497 -0.8597  1.4648
 1458TIP3    H225934   2.363   3.786   7.690  0.5404 -0.6734 -0.2776
 1459TIP3   OH225935   1.530   1.227   2.451 -0.5068 -0.4276 -0.2699
 1459TIP3    H125936   1.588   1.151   2.449  0.1508 -0.0337  1.4945
 1459TIP3    H225937   1.443   1.190   2.462 -0.3360 -0.9554 -0.6194
 1460TIP3   OH225938   2.112   2.332   8.366 -0.5390  0.0123  0.9098
 1460TIP3    H125939   2.123   2.286   8.449 -1.8089 -1.5217  0.2817
 1460TIP3    H225940   2.117   2.263   8.299 -1.3696  0.9446 -0.1596
 1461TIP3   OH225941   4.929   6.817   1.144 -0.0495 -0.1695 -0.2282
 1461TIP3    H125942   4.836   6.802   1.126 -0.1781  0.7565 -0.3626
 1461TIP3    H225943   4.945   6.773   1.228 -0.4718 -0.8012 -0.4695
 1462TIP3   OH225944   5.519   3.005   2.122 -0.1298 -0.2887 -0.1033
 1462TIP3    H125945   5.445   3.004   2.062 -0.1587  1.4916 -0.1389
 1462TIP3    H225946   5.590   2.964   2.073 -0.6949 -0.7124 -0.5864
 1463TIP3   OH225947   1.152   6.449   1.469  0.0149  0.4422  0.2212
 1463TIP3    H125948   1.166   6.372   1.525 -0.1198 -0.6089 -1.1473
 1463TIP3    H225949   1.215   6.513   1.502  2.4264 -1.3350 -0.5721
 1464TIP3   OH225950   6.835   2.779   8.097  0.2012 -0.3922 -0.4045
 1464TIP3    H125951   6.856   2.863   8.137  0.4216 -0.4312 -0.4312
 1464TIP3    H225952   6.904   2.720   8.129 -1.1236 -1.0973  1.2880
 1465TIP3   OH225953   1.079   5.813   0.608 -0.0174  0.3850 -0.4832
 1465TIP3    H125954   1.170   5.782   0.604 -0.3728 -0.8137  0.0907
 1465TIP3    H225955   1.073   5.858   0.692  0.7663  3.0227 -1.7500
 1466TIP3   OH225956   2.328   2.442   0.198  0.2862 -0.0103 -0.1718
 1466TIP3    H125957   2.379   2.365   0.177  0.7087 -0.0122  0.7955
 1466TIP3    H225958   2.388   2.499   0.246 -0.3390  0.4197  0.1220
 1467TIP3   OH225959   4.185   6.792   8.429  0.0464 -0.5826 -0.0609
 1467TIP3    H125960   4.100   6.832   8.408  0.4905 -0.4755 -1.7904
 1467TIP3    H225961   4.209   6.829   8.513 -0.3770  1.4700 -0.8028
 1468TIP3   OH225962   2.723   1.741   8.006  0.3820  0.2815  0.0020
 1468TIP3    H125963   2.722   1.651   8.038  0.2677  0.9066  1.8751
 1468TIP3    H225964   2.734   1.733   7.911 -0.5967 -1.7276  0.0124
 1469TIP3   OH225965   1.888   6.920   0.223  0.0840 -0.0830 -0.2102
 1469TIP3    H125966   1.921   6.994   0.173  0.1909 -0.3609 -0.5555
 1469TIP3    H225967   1.810   6.891   0.176 -1.3913  1.3179  1.2593
 1470TIP3   OH225968   1.305   1.732   1.296  0.3273 -0.1248 -0.6074
 1470TIP3    H125969   1.302   1.675   1.373 -1.5080 -0.3979 -0.8536
 1470TIP3    H225970   1.357   1.683   1.232  1.5996 -0.0295  0.3147
 1471TIP3   OH225971   1.967   5.555   1.509 -1.0578 -0.2315  0.2771
 1471TIP3    H125972   1.883   5.568   1.465 -0.4299  0.6168 -0.7324
 1471TIP3    H225973   1.944   5.521   1.595 -2.4531  0.3011  0.1432
 1472TIP3   OH225974   6.415   3.584   0.419 -0.2435  0.7726 -0.1940
 1472TIP3    H125975   6.470   3.659   0.442  1.5431 -0.3121 -0.7790
 1472TIP3    H225976   6.411   3.532   0.499 -0.9784  1.1504  0.0297
 1473TIP3   OH225977   1.701   6.189   1.506  0.2713  0.0519 -0.4589
 1473TIP3    H125978   1.750   6.269   1.490  0.8306  0.1814  1.6001
 1473TIP3    H225979   1.762   6.133   1.555 -0.4717 -1.2092 -0.9159
 1474TIP3   OH225980   2.312   2.529   0.778 -0.0325  0.1502  0.3676
 1474TIP3    H125981   2.297   2.578   0.860  2.1287 -0.7081  1.3451
 1474TIP3    H225982   2.400   2.556   0.751  0.1603 -1.2742 -0.4577
 1475TIP3   OH225983   5.559   6.443   2.353 -0.2133  0.0670 -0.3859
 1475TIP3    H125984   5.611   6.517   2.322 -0.4465  0.3574 -0.0928
 1475TIP3    H225985   5.579   6.372   2.292  2.6594 -0.7006  1.2185
 1476TIP3   OH225986   3.562   0.127   2.229 -0.5722 -0.3038  1.0134
 1476TIP3    H125987   3.656   0.121   2.213 -0.3993  1.1263  1.3843
 1476TIP3    H225988   3.537   0.039   2.257  0.0688 -1.5477 -1.9450
 1477TIP3   OH225989   2.872   3.664   1.346  0.0125  0.3751 -0.1490
 1477TIP3    H125990   2.928   3.652   1.269  0.0686 -1.0445  0.0778
 1477TIP3    H225991   2.788   3.625   1.320 -0.4989  1.4079 -0.0671
 1478TIP3   OH225992   3.895   3.980   1.662 -0.4033  0.0526 -0.0328
 1478TIP3    H125993   3.845   3.966   1.581 -0.4201  1.5432 -0.3095
 1478TIP3    H225994   3.830   3.970   1.732 -0.9286  1.0962 -0.3451
 1479TIP3   OH225995   1.283   5.081   1.107  0.0167  0.2224 -0.4325
 1479TIP3    H125996   1.341   5.153   1.081  0.2612  0.8593  1.7442
 1479TIP3    H225997   1.316   5.052   1.192 -1.2815 -1.1753 -0.3620
 1480TIP3   OH225998   4.872   4.626   2.618 -0.1415  0.1468 -0.1788
 1480TIP3    H125999   4.779   4.629   2.595 -0.3575  1.4807  0.7748
 1480TIP3    H226000   4.873   4.629   2.713  0.8935  0.9673 -0.1968
 1481TIP3   OH226001   0.080   3.943   0.521  0.4861  0.0031 -0.5841
 1481TIP3    H126002  -0.002   3.961   0.566  1.5076  0.2869  1.2563
 1481TIP3    H226003   0.108   4.028   0.487  0.6017  0.1400 -0.1563
 1482TIP3   OH226004   5.297   2.251   8.354 -0.5624 -0.6604 -0.3495
 1482TIP3    H126005   5.244   2.269   8.432 -0.2610  3.5939 -0.8801
 1482TIP3    H226006   5.232   2.231   8.286 -1.3254  1.0186 -0.1769
 1483TIP3   OH226007   5.880   6.147   7.790  0.2981  0.4053  0.5570
 1483TIP3    H126008   5.838   6.227   7.757  0.3073  0.3777  0.4778
 1483TIP3    H226009   5.939   6.178   7.858 -0.8727  0.3155  1.6498
 1484TIP3   OH226010   5.718   4.003   2.474  0.1463  0.1570 -0.9495
 1484TIP3    H126011   5.647   3.947   2.506 -0.3633  1.6789  0.7573
 1484TIP3    H226012   5.716   4.080   2.531  2.2643  0.9072 -1.7724
 1485TIP3   OH226013   6.943   0.202   1.152  0.6510  0.1926 -0.0629
 1485TIP3    H126014   6.956   0.254   1.231  1.3104  0.4471 -0.3320
 1485TIP3    H226015   7.017   0.225   1.096 -0.2021  0.5682 -1.0621
 1486TIP3   OH226016   2.490   6.058   1.980  0.2724 -0.6899  0.2127
 1486TIP3    H126017   2.545   6.003   1.925 -0.2164 -3.8886  2.6213
 1486TIP3    H226018   2.546   6.086   2.052 -0.1813 -0.3500  0.4461
 1487TIP3   OH226019   1.438   6.195   0.943 -0.3415  0.0385 -0.3556
 1487TIP3    H126020   1.460   6.197   1.036 -1.2495 -0.2909 -0.1161
 1487TIP3    H226021   1.500   6.254   0.901 -1.3876  2.0619  0.7843
 1488TIP3   OH226022   4.988   1.295   7.941  0.0130  0.5300  0.2386
 1488TIP3    H126023   4.962   1.358   7.874 -0.8157  0.7737  0.7703
 1488TIP3    H226024   5.001   1.348   8.020 -0.9089  0.0233  0.7474
 1489TIP3   OH226025   1.711   2.599   2.946 -0.2676  0.8112  0.5464
 1489TIP3    H126026   1.690   2.676   2.893  0.4162  0.1298 -0.7709
 1489TIP3    H226027   1.798   2.617   2.980  0.6743 -0.1099 -1.2536
 1490TIP3   OH226028   3.346   6.931   8.411 -0.2485 -0.1394  0.7694
 1490TIP3    H126029   3.322   6.997   8.477  0.9208  1.3840 -0.2496
 1490TIP3    H226030   3.317   6.848   8.448 -0.2280  0.7409  2.9102
 1491TIP3   OH226031   1.039   6.551   2.783  0.0611 -0.6092 -0.3870
 1491TIP3    H126032   1.117   6.523   2.830 -0.2803 -0.8176  0.0551
 1491TIP3    H226033   0.967   6.503   2.824 -0.3264 -0.2700 -0.6599
 1492TIP3   OH226034   0.395   4.766   2.424  0.3803 -0.0716 -1.0776
 1492TIP3    H126035   0.309   4.807   2.419 -0.1254 -1.0332 -0.5030
 1492TIP3    H226036   0.399   4.710   2.346 -0.5548 -1.9227  0.1218
 1493TIP3   OH226037   3.185   4.377   2.014 -0.5411 -0.6235  0.3037
 1493TIP3    H126038   3.180   4.472   2.005 -0.7997 -0.6678 -0.0363
 1493TIP3    H226039   3.185   4.362   2.109  0.8142 -0.2272  0.3942
 1494TIP3   OH226040   0.359   1.883   2.077  0.4464  0.0407  0.3850
 1494TIP3    H126041   0.383   1.820   2.009  0.9658  0.5473  0.0887
 1494TIP3    H226042   0.443   1.912   2.114  0.1704 -0.2722  1.2918
 1495TIP3   OH226043   1.157   2.154   7.629 -0.2310  0.3055  0.3176
 1495TIP3    H126044   1.236   2.198   7.659 -0.2921  0.7480 -0.1493
 1495TIP3    H226045   1.094   2.168   7.700 -0.1161  0.6030  0.3644
 1496TIP3   OH226046   6.585   5.328   1.282  0.2562 -0.0819  0.1669
 1496TIP3    H126047   6.646   5.278   1.337  0.6021  0.8526  0.6605
 1496TIP3    H226048   6.625   5.415   1.274 -0.6728  0.3437 -0.0764
 1497TIP3   OH226049   1.913   0.653   0.315 -0.0547  0.1441 -0.0270
 1497TIP3    H126050   1.996   0.624   0.277  0.5647 -0.2185  1.5010
 1497TIP3    H226051   1.847   0.635   0.248  1.0498  0.0939 -1.1273
 1498TIP3   OH226052   0.726   4.234   1.687 -0.2955 -0.1197 -0.2300
 1498TIP3    H126053   0.727   4.282   1.770  0.5151  1.2246 -0.9735
 1498TIP3    H226054   0.725   4.303   1.620 -1.5033 -1.1756 -1.3411
 1499TIP3   OH226055   1.943   2.224   2.191 -0.3111 -0.3542  0.1357
 1499TIP3    H126056   1.934   2.236   2.286  0.6429 -1.7531  0.4361
 1499TIP3    H226057   1.965   2.311   2.157 -3.1838  0.7623  0.8201
 1500TIP3   OH226058   4.627   5.105   7.319 -0.3830 -0.5837 -0.0813
 1500TIP3    H126059   4.690   5.163   7.361 -2.1432  1.5199 -0.1732
 1500TIP3    H226060   4.617   5.139   7.230 -0.0561 -2.2323 -0.7942
 1501TIP3   OH226061   5.641   2.312   2.613  0.1231 -0.5856  0.0815
 1501TIP3    H126062   5.599   2.396   2.631  1.0887  0.0888 -0.7199
 1501TIP3    H226063   5.571   2.260   2.572 -0.8673 -0.6817  1.8039
 1502TIP3   OH226064   0.111   6.291   3.223  0.3403 -0.5324 -0.4745
 1502TIP3    H126065   0.050   6.248   3.282 -1.0583  0.9938 -0.7438
 1502TIP3    H226066   0.112   6.237   3.145 -2.9204  0.8112 -1.5942
 1503TIP3   OH226067   2.169   5.855   7.515 -0.0715 -0.1020  0.1573
 1503TIP3    H126068   2.224   5.843   7.592 -0.2305 -1.9530  0.0243
 1503TIP3    H226069   2.081   5.866   7.550 -0.1063 -0.6814  0.2611
 1504TIP3   OH226070   5.539   5.347   7.611 -0.1108  0.1355 -0.7194
 1504TIP3    H126071   5.490   5.341   7.529 -2.4021  1.5347  0.4403
 1504TIP3    H226072   5.555   5.441   7.623 -0.2201  0.0067  0.6324
 1505TIP3   OH226073   0.405   1.350   7.708 -0.1661  0.1505 -0.3785
 1505TIP3    H126074   0.332   1.411   7.722 -0.5605 -0.1709 -0.9626
 1505TIP3    H226075   0.367   1.263   7.725 -0.1825 -0.0944 -1.5960
 1506TIP3   OH226076   6.934   5.226   8.357 -0.2656  0.2393 -0.1693
 1506TIP3    H126077   6.943   5.262   8.445 -0.2937 -0.1658 -0.0027
 1506TIP3    H226078   6.845   5.251   8.331 -0.6153 -0.4740  0.2982
 1507TIP3   OH226079   4.153   0.711   7.646  0.1126  0.3719  0.2138
 1507TIP3    H126080   4.206   0.725   7.725  1.5680 -0.4069 -0.5761
 1507TIP3    H226081   4.210   0.740   7.575 -0.6187 -0.2974 -0.6540
 1508TIP3   OH226082   1.415   2.779   2.924 -0.4139  0.1960  0.4964
 1508TIP3    H126083   1.427   2.731   3.006 -0.7472 -0.6021  0.0902
 1508TIP3    H226084   1.377   2.863   2.950  0.1987  0.2478  1.2223
 1509TIP3   OH226085   1.395   1.211   1.659  0.3545  0.0097 -0.2396
 1509TIP3    H126086   1.363   1.298   1.685 -0.3293 -0.3682  0.2137
 1509TIP3    H226087   1.424   1.223   1.569  1.0532  0.9101  0.0865
 1510TIP3   OH226088   5.735   3.945   0.772 -0.1170  0.1515 -0.6601
 1510TIP3    H126089   5.768   4.028   0.803  0.4184 -0.0323 -0.7251
 1510TIP3    H226090   5.748   3.884   0.845 -0.9063  0.2128 -0.4531
 1511TIP3   OH226091   4.312   0.662   2.961 -0.2112  0.0681 -0.5401
 1511TIP3    H126092   4.223   0.628   2.957 -0.0661 -0.2040 -1.8673
 1511TIP3    H226093   4.338   0.650   3.053 -1.1624 -0.8103 -0.3643
 1512TIP3   OH226094   6.165   1.733   1.866 -0.1806  0.6326  0.7842
 1512TIP3    H126095   6.213   1.738   1.783 -0.9713  0.4643  0.3126
 1512TIP3    H226096   6.186   1.645   1.900 -1.6774 -0.2225 -0.3808
 1513TIP3   OH226097   1.209   2.719   2.550  0.1334 -0.3379 -0.4625
 1513TIP3    H126098   1.260   2.677   2.481 -0.0650 -1.6356  0.1414
 1513TIP3    H226099   1.127   2.744   2.508  0.5763  0.2186 -1.0255
 1514TIP3   OH226100   5.823   1.211   1.802  0.8129  0.7431 -0.1489
 1514TIP3    H126101   5.837   1.223   1.896 -0.8184 -0.0005  0.2219
 1514TIP3    H226102   5.791   1.121   1.795 -0.6561  1.3144 -1.2176
 1515TIP3   OH226103   4.651   1.531   2.591  0.6582  0.1302 -0.8277
 1515TIP3    H126104   4.714   1.503   2.524  0.9732 -1.6347  0.1220
 1515TIP3    H226105   4.638   1.452   2.645 -0.5530  1.1359  0.4126
 1516TIP3   OH226106   5.385   1.019   1.243  0.2962  0.7367  0.2805
 1516TIP3    H126107   5.363   0.991   1.332 -1.4094  0.5368 -0.1698
 1516TIP3    H226108   5.471   0.981   1.226 -0.0734 -0.6062  1.2521
 1517TIP3   OH226109   6.684   5.239   2.649  0.1146  0.4104  0.2615
 1517TIP3    H126110   6.632   5.158   2.649  0.6125  0.0827 -0.1666
 1517TIP3    H226111   6.749   5.226   2.580 -0.7460  1.8097 -0.8558
 1518TIP3   OH226112   3.241   0.554   1.102  0.6018 -0.3858  0.3588
 1518TIP3    H126113   3.202   0.493   1.164 -0.0767  0.2048  0.5268
 1518TIP3    H226114   3.250   0.636   1.151  0.2414  0.0276 -0.2546
 1519TIP3   OH226115   3.306   5.970   0.957  0.4735  0.3322  0.0019
 1519TIP3    H126116   3.237   5.921   0.913  0.9658 -0.8498  0.5007
 1519TIP3    H226117   3.379   5.909   0.963  1.8555  1.7761 -1.1603
 1520TIP3   OH226118   6.908   3.622   1.193  0.1096 -0.1701 -0.0970
 1520TIP3    H126119   6.886   3.687   1.126  0.1206  0.1388  0.1970
 1520TIP3    H226120   6.839   3.556   1.186  0.3957 -0.4118 -0.7626
 1521TIP3   OH226121   0.683   1.529   0.634  0.4797  0.2327 -0.4571
 1521TIP3    H126122   0.757   1.552   0.690  0.5994 -1.2869  0.0671
 1521TIP3    H226123   0.648   1.449   0.674 -0.4743  0.0615 -1.6047
 1522TIP3   OH226124   2.269   3.051   0.537  0.1030  0.5028  0.0922
 1522TIP3    H126125   2.311   2.998   0.605 -3.3529  1.3616  3.2705
 1522TIP3    H226126   2.312   3.136   0.542  0.2947  0.3685  0.8383
 1523TIP3   OH226127   1.373   1.829   7.459 -0.0783  0.1201 -0.5004
 1523TIP3    H126128   1.451   1.777   7.440  0.5442  0.7614  0.2213
 1523TIP3    H226129   1.302   1.765   7.464  0.1876 -0.3716 -2.1757
 1524TIP3   OH226130   2.210   6.194   1.346  0.0798 -0.2486  0.1561
 1524TIP3    H126131   2.137   6.197   1.285  1.5491  0.4445 -1.6813
 1524TIP3    H226132   2.284   6.228   1.296  1.3435  0.5060  2.4120
 1525TIP3   OH226133   4.381   6.321   0.677 -0.4413 -0.6452 -0.4865
 1525TIP3    H126134   4.434   6.401   0.684  0.0688 -0.8162 -2.0756
 1525TIP3    H226135   4.445   6.250   0.679 -0.5506 -0.8468 -2.5895
 1526TIP3   OH226136   1.812   2.919   2.383 -0.5387 -0.1809 -0.1651
 1526TIP3    H126137   1.834   2.864   2.308  0.9915 -0.4332  0.4239
 1526TIP3    H226138   1.895   2.959   2.408 -1.0556  0.0515  1.2657
 1527TIP3   OH226139   3.939   1.627   0.942 -0.4011 -0.3223  0.0795
 1527TIP3    H126140   3.860   1.646   0.993  0.0914  2.4559 -0.0392
 1527TIP3    H226141   3.908   1.627   0.851 -0.1272  2.4045 -0.1064
 1528TIP3   OH226142   5.810   2.504   8.356 -0.0518  0.1538  0.2528
 1528TIP3    H126143   5.799   2.434   8.291 -1.3672  0.1939  0.4209
 1528TIP3    H226144   5.905   2.506   8.372  0.1108 -0.9666 -0.4354
 1529TIP3   OH226145   5.486   3.372   0.967 -0.2663  0.0245  0.1009
 1529TIP3    H126146   5.460   3.298   0.912 -0.4689  0.5806 -0.5779
 1529TIP3    H226147   5.406   3.424   0.976 -0.3685 -0.3348  1.3900
 1530TIP3   OH226148   4.841   5.042   8.410  0.2958  0.4736  0.3779
 1530TIP3    H126149   4.869   5.121   8.362  0.3220  0.4474  0.3493
 1530TIP3    H226150   4.765   5.070   8.461  0.4102  0.5629  0.5018
 1531TIP3   OH226151   5.110   1.484   2.468  0.4741  0.0506  0.3964
 1531TIP3    H126152   5.134   1.398   2.501  1.2546 -0.2322 -0.8734
 1531TIP3    H226153   5.188   1.538   2.483  0.8592 -0.0948 -0.9857
 1532TIP3   OH226154   4.912   0.214   6.797 -0.2366  0.5693 -1.0161
 1532TIP3    H126155   4.878   0.303   6.803  1.8300  1.3194  0.5844
 1532TIP3    H226156   4.961   0.201   6.878 -0.6782 -2.1416 -1.0832
 1533TIP3   OH226157   6.325   3.502   1.882 -0.0074 -0.3167 -0.5390
 1533TIP3    H126158   6.338   3.425   1.939 -0.6420  0.2192  0.3564
 1533TIP3    H226159   6.353   3.576   1.936 -0.2876  0.1703 -1.0612
 1534TIP3   OH226160   4.044   0.837   0.285 -0.1545 -0.3372  0.0424
 1534TIP3    H126161   3.963   0.842   0.336 -0.1118 -0.2176  0.0975
 1534TIP3    H226162   4.073   0.928   0.275 -0.1410 -0.3617 -0.1600
 1535TIP3   OH226163   3.379   6.432   8.097  0.6341 -0.2365 -0.4015
 1535TIP3    H126164   3.304   6.399   8.146  1.6061 -0.3305  1.0857
 1535TIP3    H226165   3.452   6.375   8.123  1.2460 -0.1694 -1.8340
 1536TIP3   OH226166   3.423   1.168   2.501 -0.1699  0.6188  0.2968
 1536TIP3    H126167   3.386   1.222   2.430 -0.2001 -0.0331 -0.1986
 1536TIP3    H226168   3.493   1.222   2.538  0.4519  0.6149 -0.8322
 1537TIP3   OH226169   6.375   6.910   2.326 -1.0487  0.1326  0.3816
 1537TIP3    H126170   6.334   6.939   2.407 -0.3940  1.2458  0.3376
 1537TIP3    H226171   6.466   6.941   2.333 -0.0577 -2.5694  0.6520
 1538TIP3   OH226172   1.985   1.155   7.848  0.0956 -0.1527 -0.4508
 1538TIP3    H126173   1.905   1.133   7.799  0.6347 -0.1082 -1.3733
 1538TIP3    H226174   2.053   1.101   7.807  0.5981  0.0446  0.1211
 1539TIP3   OH226175   2.812   1.114   1.476 -0.0512  0.1836 -0.2177
 1539TIP3    H126176   2.893   1.095   1.429  0.4708 -1.0901  1.1194
 1539TIP3    H226177   2.832   1.192   1.528 -0.5919  1.5209 -1.9047
 1540TIP3   OH226178   5.350   3.346   8.225 -0.3510 -0.6900  0.3927
 1540TIP3    H126179   5.381   3.316   8.140  2.4013 -0.4049  1.1819
 1540TIP3    H226180   5.311   3.269   8.265  0.2299 -1.3702 -0.3252
 1541TIP3   OH226181   3.694   2.405   0.915  0.3985  0.2355 -0.0113
 1541TIP3    H126182   3.754   2.336   0.887  2.8543  2.0111  0.6015
 1541TIP3    H226183   3.733   2.441   0.994 -2.4887  0.3097  1.5208
 1542TIP3   OH226184   5.591   6.193   1.855  0.1809 -0.0121  0.2257
 1542TIP3    H126185   5.609   6.267   1.798 -0.1119 -0.6593 -0.7150
 1542TIP3    H226186   5.675   6.149   1.865 -0.3484 -1.9097 -2.5909
 1543TIP3   OH226187   3.796   4.283   7.989  0.6332  0.8773  0.6101
 1543TIP3    H126188   3.862   4.318   8.050  0.6661  0.6682  0.6949
 1543TIP3    H226189   3.839   4.284   7.904  0.8934  0.3580  0.7297
 1544TIP3   OH226190   5.284   2.318   2.660  0.5334  0.0231  0.2664
 1544TIP3    H126191   5.334   2.253   2.610 -3.0155 -0.7989 -2.6275
 1544TIP3    H226192   5.313   2.402   2.625 -0.1601 -0.4530 -1.6082
 1545TIP3   OH226193   3.201   0.909   7.321  0.0459 -0.2549  0.0421
 1545TIP3    H126194   3.279   0.876   7.275  0.1703  0.2247 -0.0938
 1545TIP3    H226195   3.218   0.888   7.413 -0.2830 -1.3771 -0.1323
 1546TIP3   OH226196   0.164   3.470   7.841  0.4243 -0.8563  0.3799
 1546TIP3    H126197   0.078   3.439   7.814 -0.0212  2.8621 -3.5167
 1546TIP3    H226198   0.224   3.433   7.776  1.1462 -0.3471  0.7399
 1547TIP3   OH226199   3.100   4.246   0.340 -0.5200  0.0151  0.3598
 1547TIP3    H126200   3.130   4.335   0.319  0.5093 -0.5084 -0.4795
 1547TIP3    H226201   3.055   4.217   0.261  0.6849 -0.8376 -0.0434
 1548TIP3   OH226202   4.108   1.238   2.184  0.2115 -0.1957 -0.0532
 1548TIP3    H126203   4.075   1.195   2.105  1.1509  0.2139 -0.6840
 1548TIP3    H226204   4.029   1.259   2.235 -0.3888 -0.6224 -0.7931
 1549TIP3   OH226205   1.613   2.202   7.880  0.3874 -0.0023 -0.4536
 1549TIP3    H126206   1.618   2.287   7.836 -0.8365 -0.4580 -1.5441
 1549TIP3    H226207   1.533   2.162   7.846  0.3169 -1.1078  0.9356
 1550TIP3   OH226208   5.172   2.353   0.160 -0.5208  0.7904  0.2748
 1550TIP3    H126209   5.217   2.344   0.244 -0.8134  1.0219  0.4601
 1550TIP3    H226210   5.095   2.297   0.169  0.9612 -1.6318 -0.9494
 1551TIP3   OH226211   2.670   5.144   2.377  0.0719  0.8419  0.5308
 1551TIP3    H126212   2.721   5.198   2.317  0.3721  0.7825  0.7322
 1551TIP3    H226213   2.680   5.186   2.462  2.7813 -1.1322  1.3283
 1552TIP3   OH226214   5.461   6.650   2.487 -0.2319 -0.3120 -0.2875
 1552TIP3    H126215   5.495   6.581   2.431 -0.3299 -0.7955  0.2376
 1552TIP3    H226216   5.368   6.628   2.497 -0.3665  0.1563 -0.4945
 1553TIP3   OH226217   1.090   3.103   0.558 -0.1508 -0.1787  0.3877
 1553TIP3    H126218   1.072   3.012   0.581  2.7634 -0.7933  0.6008
 1553TIP3    H226219   1.029   3.122   0.486 -0.5060 -2.4410  0.0258
 1554TIP3   OH226220   1.724   5.502   1.166 -0.1209  0.1923  0.5446
 1554TIP3    H126221   1.796   5.448   1.135  0.7617  1.2217  0.7523
 1554TIP3    H226222   1.672   5.444   1.221  0.9467 -0.3704  0.9779
 1555TIP3   OH226223   1.472   3.922   1.632 -0.0278  0.1649 -0.3394
 1555TIP3    H126224   1.477   3.847   1.693 -1.4987  1.1302  1.0483
 1555TIP3    H226225   1.379   3.945   1.630  0.3274  1.6368 -1.1577
 1556TIP3   OH226226   4.041   2.588   1.959  0.1429  0.1873  0.2526
 1556TIP3    H126227   4.042   2.559   1.868  0.0296  1.9558 -0.3497
 1556TIP3    H226228   4.128   2.563   1.993  0.6830  0.6635 -0.7363
 1557TIP3   OH226229   3.234   4.810   8.073 -0.2313 -0.0064 -0.1488
 1557TIP3    H126230   3.284   4.729   8.061 -0.6452 -0.2369 -0.3727
 1557TIP3    H226231   3.298   4.875   8.100  0.3265 -0.1069 -1.1714
 1558TIP3   OH226232   2.328   2.017   1.261  0.0903  0.0927 -0.5571
 1558TIP3    H126233   2.369   1.979   1.339  1.2374  0.4197 -0.9760
 1558TIP3    H226234   2.243   2.047   1.291  0.1588 -0.5772  0.3611
 1559TIP3   OH226235   4.847   6.876   8.184 -0.2867 -0.5777 -0.1745
 1559TIP3    H126236   4.756   6.848   8.192 -0.8347  1.3012  0.6183
 1559TIP3    H226237   4.895   6.796   8.162 -2.2435 -1.4261 -1.5446
 1560TIP3   OH226238   5.480   5.807   8.397  0.2755 -0.4672 -0.5220
 1560TIP3    H126239   5.538   5.852   8.459 -0.4478 -0.2923  0.0476
 1560TIP3    H226240   5.533   5.737   8.361  0.4336 -1.2013  1.0400
 1561TIP3   OH226241   5.607   0.819   7.541 -0.2188  0.4516 -0.4413
 1561TIP3    H126242   5.561   0.882   7.597 -0.7128 -0.2479 -0.0538
 1561TIP3    H226243   5.604   0.858   7.454  0.4587  1.4978 -0.0176
 1562TIP3   OH226244   2.200   6.184   2.387 -0.2287  0.0783 -0.2507
 1562TIP3    H126245   2.160   6.109   2.343  0.3680 -1.4958  1.6945
 1562TIP3    H226246   2.245   6.232   2.318 -2.4003 -0.1298 -1.8966
 1563TIP3   OH226247   3.991   6.266   0.921 -0.4038 -0.0356  0.4452
 1563TIP3    H126248   3.966   6.197   0.982 -1.5001  0.3709  0.4856
 1563TIP3    H226249   3.910   6.286   0.874 -0.0890  1.1596  0.3760
 1564TIP3   OH226250   2.819   5.987   0.087  0.3194 -0.3555  0.1502
 1564TIP3    H126251   2.875   5.972   0.011  0.3929 -1.1398  0.3520
 1564TIP3    H226252   2.760   5.911   0.089 -1.4981  0.9529 -0.6916
 1565TIP3   OH226253   5.395   0.546   0.371 -0.0124  0.1104 -0.0079
 1565TIP3    H126254   5.488   0.523   0.374 -0.0793 -0.1877 -0.2127
 1565TIP3    H226255   5.383   0.605   0.445  0.5180  0.8059 -0.4538
 1566TIP3   OH226256   3.109   2.623   2.017 -0.4282  0.1721  0.3987
 1566TIP3    H126257   3.142   2.542   2.054 -1.0901 -0.3415 -0.0993
 1566TIP3    H226258   3.024   2.637   2.060  0.1754  1.2019  1.2973
 1567TIP3   OH226259   1.182   4.621   7.452  0.2426  0.7177  0.3100
 1567TIP3    H126260   1.114   4.687   7.458  0.9145  1.2984  2.0331
 1567TIP3    H226261   1.258   4.660   7.496  1.2164 -0.4936 -0.2320
 1568TIP3   OH226262   4.417   2.981   7.325  0.3400 -0.1286  0.2808
 1568TIP3    H126263   4.341   3.030   7.354  0.4957  1.2573 -1.4990
 1568TIP3    H226264   4.475   3.047   7.286  0.4289 -1.6509 -2.4703
 1569TIP3   OH226265   6.321   1.354   2.477  0.4516 -0.2635 -0.6104
 1569TIP3    H126266   6.394   1.337   2.417  0.1170  0.6169 -1.2910
 1569TIP3    H226267   6.243   1.350   2.422  0.1157  0.3355 -0.1927
 1570TIP3   OH226268   5.001   4.410   0.982  0.1441  0.1312 -0.0293
 1570TIP3    H126269   4.906   4.394   0.981 -0.3114  2.3941 -2.1336
 1570TIP3    H226270   5.015   4.476   0.915  3.5026 -1.3282 -0.9710
 1571TIP3   OH226271   4.449   5.548   1.789 -0.2053  0.6886 -0.0093
 1571TIP3    H126272   4.453   5.454   1.802  1.5782  0.9668  1.8878
 1571TIP3    H226273   4.361   5.564   1.756 -0.4434 -1.6470 -0.6651
 1572TIP3   OH226274   3.414   2.466   1.538 -0.2289 -0.0221 -0.1068
 1572TIP3    H126275   3.480   2.410   1.498  1.6221  1.1342  1.1982
 1572TIP3    H226276   3.410   2.543   1.481 -0.7972 -0.2846 -0.4285
 1573TIP3   OH226277   3.559   4.308   8.118 -0.3120  0.3679  0.5359
 1573TIP3    H126278   3.632   4.309   8.056 -0.1861 -0.8204  0.6425
 1573TIP3    H226279   3.541   4.215   8.132 -1.6094  0.6392  0.7987
 1574TIP3   OH226280   1.965   1.659   8.337 -0.7404  0.2543  0.2640
 1574TIP3    H126281   2.020   1.608   8.396  0.2408  1.1158  0.1209
 1574TIP3    H226282   2.012   1.657   8.254 -3.1672 -2.8696 -1.2733
 1575TIP3   OH226283   1.007   4.268   0.470  0.7169  0.3562  0.7510
 1575TIP3    H126284   1.074   4.273   0.538  1.0332  0.3377  0.4443
 1575TIP3    H226285   0.929   4.237   0.515  1.0641 -0.1483  1.0121
 1576TIP3   OH226286   3.745   3.702   2.262  0.3168  0.3006 -0.8456
 1576TIP3    H126287   3.718   3.772   2.322 -0.1294 -1.0550  0.6043
 1576TIP3    H226288   3.699   3.722   2.180 -0.8921  0.9677 -0.0442
 1577TIP3   OH226289   1.783   6.502   8.364 -0.0712  0.2744 -0.6850
 1577TIP3    H126290   1.827   6.521   8.447 -1.1697 -0.5093  0.1055
 1577TIP3    H226291   1.788   6.406   8.355 -3.5111 -0.1655  0.6001
 1578TIP3   OH226292   4.904   4.410   0.385 -0.3221 -0.2567 -0.3261
 1578TIP3    H126293   4.842   4.415   0.458 -0.3021 -0.7983 -0.2727
 1578TIP3    H226294   4.925   4.502   0.366 -1.3559 -0.0485 -0.5247
 1579TIP3   OH226295   2.083   0.095   1.226 -0.4595 -0.2306 -0.7046
 1579TIP3    H126296   2.067   0.175   1.276 -1.9701 -1.5239  1.0198
 1579TIP3    H226297   2.086   0.124   1.135  1.3665  2.0771 -0.0093
 1580TIP3   OH226298   4.543   2.719   2.367  0.0398 -0.0079  0.0509
 1580TIP3    H126299   4.498   2.766   2.437  2.2636  2.2128  0.1179
 1580TIP3    H226300   4.563   2.633   2.405  0.7389  0.9545  2.0039
 1581TIP3   OH226301   0.029   1.138   7.830 -0.2414  0.2785  0.0287
 1581TIP3    H126302   0.067   1.192   7.899 -0.5527 -0.7035  0.9981
 1581TIP3    H226303   0.100   1.125   7.767 -0.2647  2.0842 -0.4081
 1582TIP3   OH226304   0.500   0.632   1.399  0.1762  0.8036  0.2013
 1582TIP3    H126305   0.567   0.570   1.430  0.7203  1.1093 -0.3424
 1582TIP3    H226306   0.438   0.578   1.351  0.1052  0.5360  0.5879
 1583TIP3   OH226307   2.483   3.973   2.370  0.5272 -0.2770 -0.2787
 1583TIP3    H126308   2.425   4.029   2.318 -0.5605 -0.7547  0.3699
 1583TIP3    H226309   2.551   3.945   2.309 -0.3007 -0.2180 -1.2486
 1584TIP3   OH226310   2.971   2.858   0.132  0.0849  0.5230 -0.2568
 1584TIP3    H126311   2.948   2.896   0.217 -0.2921  0.2464 -0.2294
 1584TIP3    H226312   2.940   2.922   0.068 -0.1079  0.4905 -0.1975
 1585TIP3   OH226313   2.570   4.181   7.388 -0.4256  0.5313  0.1976
 1585TIP3    H126314   2.483   4.149   7.365  0.0844 -0.8943  0.1447
 1585TIP3    H226315   2.563   4.277   7.382 -3.3852  0.9925  4.9787
 1586TIP3   OH226316   4.519   4.367   8.326 -0.4617  0.3039 -0.6167
 1586TIP3    H126317   4.574   4.381   8.403  0.5580 -2.6166 -0.7050
 1586TIP3    H226318   4.575   4.393   8.252  0.8068 -2.2229 -0.6712
 1587TIP3   OH226319   0.864   5.850   0.998 -0.2059 -0.1257 -0.5974
 1587TIP3    H126320   0.829   5.795   1.068  0.2606 -2.0501 -1.7888
 1587TIP3    H226321   0.787   5.892   0.960 -0.5300  0.4129  0.6214
 1588TIP3   OH226322   0.111   0.386   3.245  0.2025  0.7719  0.0600
 1588TIP3    H126323   0.141   0.439   3.171  0.8917 -0.7449 -0.7934
 1588TIP3    H226324   0.017   0.378   3.233  0.4563 -0.4683 -1.3874
 1589TIP3   OH226325   3.280   1.936   7.592  0.2514  0.0319 -0.3964
 1589TIP3    H126326   3.366   1.967   7.562 -0.0533  0.7715 -0.5215
 1589TIP3    H226327   3.220   2.006   7.567 -0.4407 -0.6360 -0.6062
 1590TIP3   OH226328   0.574   4.044   0.836 -0.2903 -0.4343  0.2097
 1590TIP3    H126329   0.501   4.009   0.889 -0.4617 -2.6004 -1.3278
 1590TIP3    H226330   0.645   4.055   0.899 -1.1533 -0.8075  1.2934
 1591TIP3   OH226331   1.221   0.489   7.293 -0.1639 -0.1304 -0.0807
 1591TIP3    H126332   1.197   0.398   7.276 -0.2696  0.3058 -2.6805
 1591TIP3    H226333   1.142   0.528   7.331  0.1027 -1.2265  1.7149
 1592TIP3   OH226334   1.417   6.265   1.520  0.2551 -0.6277 -0.1935
 1592TIP3    H126335   1.413   6.321   1.598 -1.2157  0.5391 -1.0583
 1592TIP3    H226336   1.502   6.222   1.527  1.3995  1.5609  0.6549
 1593TIP3   OH226337   2.119   4.954   2.586 -0.2312  0.2589  0.6481
 1593TIP3    H126338   2.047   5.014   2.610 -0.2268  0.6784 -0.3572
 1593TIP3    H226339   2.095   4.921   2.500  0.6945  0.2457  0.3867
 1594TIP3   OH226340   5.323   3.097   8.373  0.2122 -0.4901  0.1213
 1594TIP3    H126341   5.398   3.037   8.383  1.0111  0.1588 -1.4659
 1594TIP3    H226342   5.264   3.051   8.313  0.0988 -0.3447  0.1221
 1595TIP3   OH226343   3.108   0.144   8.178  0.1764 -0.0326 -0.1373
 1595TIP3    H126344   3.040   0.088   8.142  0.0054  0.8472 -1.2363
 1595TIP3    H226345   3.065   0.194   8.248 -0.1662  0.1256 -0.4613
 1596TIP3   OH226346   6.756   5.811   0.530 -0.2390 -0.7608  0.4421
 1596TIP3    H126347   6.726   5.778   0.446 -1.4509 -2.8256  1.5858
 1596TIP3    H226348   6.794   5.897   0.511  1.0867 -1.8619 -2.4381
 1597TIP3   OH226349   0.667   1.128   1.375 -0.1400  0.0081  0.4753
 1597TIP3    H126350   0.683   1.047   1.423  1.5138 -0.5443 -0.8784
 1597TIP3    H226351   0.586   1.164   1.413 -0.4159 -1.7952  1.7080
 1598TIP3   OH226352   6.495   3.081   2.452  0.4801  0.3771  0.2288
 1598TIP3    H126353   6.415   3.134   2.457 -0.7810 -1.4466  0.5805
 1598TIP3    H226354   6.515   3.077   2.359 -0.1256  0.4858  0.0870
 1599TIP3   OH226355   6.499   1.301   7.223  0.0531 -0.3419  0.2573
 1599TIP3    H126356   6.412   1.310   7.261  0.5172 -0.7519  1.4817
 1599TIP3    H226357   6.558   1.338   7.289  0.9181 -1.3190  0.0657
 1600TIP3   OH226358   4.446   0.133   2.909 -0.5701 -0.0149 -0.0389
 1600TIP3    H126359   4.472   0.138   3.001  1.4273 -1.3746 -0.4821
 1600TIP3    H226360   4.384   0.060   2.905 -0.2582 -0.2886  0.1333
 1601TIP3   OH226361   2.381   0.387   0.836 -0.7371 -0.2885 -0.2758
 1601TIP3    H126362   2.317   0.366   0.905 -0.8190  1.2489  0.1504
 1601TIP3    H226363   2.454   0.427   0.883 -1.3850  2.0948 -1.1461
 1602TIP3   OH226364   4.541   0.949   1.341  0.0805 -0.2195  0.6724
 1602TIP3    H126365   4.609   0.881   1.343 -2.0855 -2.5863 -0.0026
 1602TIP3    H226366   4.514   0.959   1.432  1.4109  0.8766  0.9694
 1603TIP3   OH226367   5.208   5.652   0.582 -0.5291 -0.0273 -0.4554
 1603TIP3    H126368   5.120   5.687   0.567 -0.6379  0.2781  0.7520
 1603TIP3    H226369   5.204   5.615   0.670  1.1629  2.1251  0.6327
 1604TIP3   OH226370   5.110   0.017   0.413 -0.6826  0.1075 -0.0667
 1604TIP3    H126371   5.179   0.001   0.348 -0.4880 -1.9285  0.5528
 1604TIP3    H226372   5.102  -0.067   0.459 -1.5634  1.1741  1.8112
 1605TIP3   OH226373   0.587   2.003   1.651 -0.1580  0.2452  0.1460
 1605TIP3    H126374   0.604   2.006   1.745  0.3738 -0.3256  0.0735
 1605TIP3    H226375   0.491   2.001   1.645 -0.2575  1.9487  0.6032
 1606TIP3   OH226376   4.416   1.085   0.733  0.6194  0.1265  0.1871
 1606TIP3    H126377   4.326   1.076   0.702  0.6164  1.3298 -0.2100
 1606TIP3    H226378   4.417   1.169   0.779  1.7243  0.5339 -0.5339
 1607TIP3   OH226379   6.406   0.528   1.190  0.5113 -0.3435  0.1296
 1607TIP3    H126380   6.338   0.468   1.219  1.3295 -1.4117 -0.0822
 1607TIP3    H226381   6.359   0.601   1.150 -0.5464 -0.1030  1.7517
 1608TIP3   OH226382   0.048   3.435   1.721 -0.0082  0.1926 -0.5411
 1608TIP3    H126383   0.007   3.515   1.752 -3.1591 -1.6367  0.5273
 1608TIP3    H226384   0.095   3.400   1.797 -0.4442 -0.0109 -0.3619
 1609TIP3   OH226385   4.250   1.868   1.442  0.0643  0.3379 -0.0085
 1609TIP3    H126386   4.292   1.948   1.412 -0.9408  0.6343 -0.6657
 1609TIP3    H226387   4.156   1.886   1.437 -0.1690 -0.1086  1.9612
 1610TIP3   OH226388   6.602   1.192   8.182  0.1686 -0.1493 -0.6800
 1610TIP3    H126389   6.691   1.230   8.184 -0.2066  0.9928  3.5069
 1610TIP3    H226390   6.613   1.104   8.216 -0.3117  0.1342  0.2369
 1611TIP3   OH226391   3.931   2.791   0.876  0.8455 -0.0061  0.2547
 1611TIP3    H126392   3.875   2.722   0.841  0.7935 -0.3215  0.9480
 1611TIP3    H226393   4.020   2.761   0.858  0.8198 -0.1922  0.4348
 1612TIP3   OH226394   6.198   1.630   1.587 -0.6322 -0.3384 -0.1581
 1612TIP3    H126395   6.129   1.609   1.650 -0.3447 -0.6922  0.0413
 1612TIP3    H226396   6.221   1.545   1.548 -0.0949 -0.2681  0.0011
 1613TIP3   OH226397   6.200   2.638   0.718 -0.1893  0.3252  0.5910
 1613TIP3    H126398   6.187   2.592   0.635 -0.6430  0.6541  0.4756
 1613TIP3    H226399   6.292   2.666   0.715 -0.5195  1.3745 -0.3465
 1614TIP3   OH226400   0.884   4.194   8.285  0.2120 -0.4468 -0.0257
 1614TIP3    H126401   0.836   4.267   8.326  2.9477  2.7637 -1.9681
 1614TIP3    H226402   0.975   4.225   8.282  1.1946 -3.1384 -2.7993
 1615TIP3   OH226403   3.782   6.100   1.479 -0.2185  0.6070 -0.1027
 1615TIP3    H126404   3.778   6.132   1.389 -0.2480 -3.1599 -1.6344
 1615TIP3    H226405   3.875   6.100   1.501  0.0971 -0.9799 -1.2645
 1616TIP3   OH226406   6.864   2.419   0.710 -0.3082  0.0076  0.7198
 1616TIP3    H126407   6.849   2.326   0.727  0.4738 -0.8680 -2.5910
 1616TIP3    H226408   6.783   2.449   0.669  0.8104 -0.4140 -2.0237
 1617TIP3   OH226409   2.342   6.866   8.192 -0.2540 -0.3718  0.3434
 1617TIP3    H126410   2.407   6.808   8.151  0.9265  1.7330 -0.9445
 1617TIP3    H226411   2.391   6.914   8.258 -0.9162  0.0487  0.5381
 1618TIP3   OH226412   2.736   1.569   0.068  0.5684  0.5113 -0.6080
 1618TIP3    H126413   2.657   1.515   0.069  0.5239  0.5784 -0.5426
 1618TIP3    H226414   2.752   1.591   0.160 -0.6951  2.4991 -0.8063
 1619TIP3   OH226415   5.164   3.391   1.693  0.7205  0.1232  0.1126
 1619TIP3    H126416   5.214   3.402   1.612  0.8172  1.4471  0.3255
 1619TIP3    H226417   5.230   3.370   1.759  1.0748  2.0081  0.4232
 1620TIP3   OH226418   0.106   3.565   0.269  0.1750  0.0679 -0.1477
 1620TIP3    H126419   0.019   3.592   0.240  0.5540  0.0792 -1.3133
 1620TIP3    H226420   0.112   3.473   0.243  0.2345 -0.1510  0.6113
 1621TIP3   OH226421   0.677   0.533   0.878 -0.0594  0.2071 -0.3252
 1621TIP3    H126422   0.731   0.485   0.941  1.2506  0.8022 -0.9535
 1621TIP3    H226423   0.613   0.580   0.932  1.2408  0.9651  0.6099
 1622TIP3   OH226424   5.186   1.758   0.548 -0.1208 -0.0780  0.0769
 1622TIP3    H126425   5.199   1.688   0.612  0.9425  0.0862  0.0581
 1622TIP3    H226426   5.219   1.837   0.592 -0.2774  0.2140 -0.3200
 1623TIP3   OH226427   6.758   6.707   8.031 -0.4783 -0.4244 -0.4780
 1623TIP3    H126428   6.713   6.751   8.103  2.4783  0.4063  1.0614
 1623TIP3    H226429   6.761   6.773   7.961 -0.5973 -0.0471 -0.1345
 1624TIP3   OH226430   1.495   0.164   7.699 -0.4409  0.2300 -0.0325
 1624TIP3    H126431   1.497   0.181   7.605 -1.6107 -0.7067 -0.2537
 1624TIP3    H226432   1.502   0.251   7.739 -0.6864  0.7068 -0.9879
 1625TIP3   OH226433   3.908   5.031   0.079 -0.0741  0.4639  0.0736
 1625TIP3    H126434   3.854   5.022   0.157 -0.5430 -1.8829 -0.4569
 1625TIP3    H226435   3.893   5.122   0.051 -2.2411  0.4691  1.0197
 1626TIP3   OH226436   1.219   4.392   0.082 -0.5831  0.0694 -0.2155
 1626TIP3    H126437   1.250   4.318   0.134  0.4033  0.3628 -0.3634
 1626TIP3    H226438   1.135   4.416   0.121 -1.3807 -1.7176 -0.7616
 1627TIP3   OH226439   0.359   6.885   1.306 -0.1950 -0.0746  0.0468
 1627TIP3    H126440   0.271   6.922   1.312 -0.3933  0.0718 -2.6902
 1627TIP3    H226441   0.417   6.961   1.295  0.0911 -0.2594  0.2506
 1628TIP3   OH226442   0.558   3.044   7.197 -0.2271 -0.0490  0.1532
 1628TIP3    H126443   0.650   3.053   7.221 -0.3547 -0.9710  1.0457
 1628TIP3    H226444   0.514   3.115   7.243 -0.2042 -0.6783  1.1598
 1629TIP3   OH226445   2.737   5.033   1.563  0.3236  0.4690  0.2693
 1629TIP3    H126446   2.687   5.070   1.490 -0.9566  2.1729  1.9297
 1629TIP3    H226447   2.696   4.949   1.581  1.0571 -0.2923 -1.3003
 1630TIP3   OH226448   5.933   1.133   0.224  0.2715 -0.6253  0.5011
 1630TIP3    H126449   6.021   1.107   0.250  0.1193 -2.8661 -0.9173
 1630TIP3    H226450   5.880   1.120   0.302  0.9966 -0.2574  1.0684
 1631TIP3   OH226451   5.903   0.212   0.819 -0.1565  0.0366 -0.2250
 1631TIP3    H126452   5.936   0.188   0.733 -0.3093 -1.3596  0.0907
 1631TIP3    H226453   5.958   0.164   0.880  0.7969  1.9939  0.5461
 1632TIP3   OH226454   4.900   3.110   1.167  0.5692  0.0442 -0.2180
 1632TIP3    H126455   4.968   3.084   1.105  0.5033  0.7499 -0.5936
 1632TIP3    H226456   4.885   3.032   1.221  2.3964  0.1780  0.5401
 1633TIP3   OH226457   1.584   0.577   8.061  0.4223 -0.3519  0.1564
 1633TIP3    H126458   1.645   0.634   8.013 -0.6360  1.0780  0.4565
 1633TIP3    H226459   1.622   0.571   8.149  1.9651 -2.3662 -0.5712
 1634TIP3   OH226460   2.703   3.911   7.658 -0.2141  0.3127 -0.3979
 1634TIP3    H126461   2.738   3.824   7.637  0.3461  0.8715 -1.8909
 1634TIP3    H226462   2.769   3.972   7.624 -0.9891  1.3353 -0.1103
 1635TIP3   OH226463   2.478   2.709   2.005  0.1262  0.7639  0.5148
 1635TIP3    H126464   2.550   2.769   1.986 -0.8677  1.5560 -0.8620
 1635TIP3    H226465   2.515   2.622   1.990  0.2828  1.2200 -2.2337
 1636TIP3   OH226466   5.009   2.799   1.801  0.2887 -0.3690  0.1798
 1636TIP3    H126467   5.021   2.871   1.863  0.7805  0.4316 -0.8172
 1636TIP3    H226468   5.090   2.749   1.806  0.3970 -0.2067  0.0788
 1637TIP3   OH226469   0.025   0.237   8.418 -0.1909 -0.0294 -0.4831
 1637TIP3    H126470   0.096   0.174   8.411 -1.1933 -1.0627 -1.8123
 1637TIP3    H226471  -0.015   0.219   8.504  0.1510 -0.5161 -0.4248
 1638TIP3   OH226472   0.056   2.142   2.694 -0.0750 -0.2564 -0.7984
 1638TIP3    H126473  -0.004   2.213   2.717  0.5437 -0.8139  3.3354
 1638TIP3    H226474   0.142   2.184   2.691  0.1145 -0.5224  0.2830
 1639TIP3   OH226475   0.193   0.619   2.472 -0.0980 -0.0445 -0.5452
 1639TIP3    H126476   0.145   0.701   2.459 -0.6934 -0.2267  0.3543
 1639TIP3    H226477   0.161   0.587   2.557 -0.3322 -1.5158 -1.1630
 1640TIP3   OH226478   4.071   4.736   7.488 -0.8079  0.0351 -0.1025
 1640TIP3    H126479   4.136   4.713   7.555 -0.3125 -0.7900 -0.8393
 1640TIP3    H226480   4.024   4.654   7.472 -0.7087  0.1447 -0.9851
 1641TIP3   OH226481   2.969   5.810   3.108  0.1776  0.4843  0.3066
 1641TIP3    H126482   2.951   5.758   3.030  0.1682  0.1424  0.5335
 1641TIP3    H226483   3.050   5.857   3.087  1.1522 -0.9133  0.7136
 1642TIP3   OH226484   0.996   0.775   3.259  0.0700  0.0535  0.5477
 1642TIP3    H126485   0.960   0.804   3.175 -1.4851  2.4363  1.9541
 1642TIP3    H226486   0.944   0.698   3.282  0.5098 -0.6221 -0.6318
 1643TIP3   OH226487   0.901   1.235   0.596  0.9334 -0.1363 -0.1403
 1643TIP3    H126488   0.934   1.322   0.573  1.4609 -0.0066  0.9985
 1643TIP3    H226489   0.901   1.186   0.514  0.5291  0.9689 -0.8086
 1644TIP3   OH226490   6.269   0.690   8.043 -0.0689  0.1011 -0.4683
 1644TIP3    H126491   6.183   0.690   8.084  1.0035 -0.0051  1.9189
 1644TIP3    H226492   6.298   0.781   8.049  0.4214 -0.0663 -0.2802
 1645TIP3   OH226493   3.548   4.787   7.444  0.3494  0.4410 -0.4143
 1645TIP3    H126494   3.560   4.872   7.401  0.3322 -0.2929 -1.9245
 1645TIP3    H226495   3.488   4.740   7.387  1.0710 -0.9329 -0.0717
 1646TIP3   OH226496   5.444   5.987   8.052 -0.6568  0.2906  0.6550
 1646TIP3    H126497   5.451   6.080   8.072 -1.1639  0.1326  1.6181
 1646TIP3    H226498   5.512   5.971   7.986 -1.0266  1.4784 -0.0468
 1647TIP3   OH226499   1.563   5.002   0.896 -0.6121  0.6390  0.4586
 1647TIP3    H126500   1.553   4.977   0.804 -2.7285 -0.6575  0.9624
 1647TIP3    H226501   1.537   4.924   0.944  1.4582  0.9443  2.2051
 1648TIP3   OH226502   2.819   5.814   1.016 -0.6722 -0.2047  0.8875
 1648TIP3    H126503   2.810   5.836   1.109 -0.8559  1.5349  0.4925
 1648TIP3    H226504   2.833   5.719   1.015 -0.9958 -0.3065  2.6619
 1649TIP3   OH226505   5.837   5.813   1.616  0.3869 -0.2889  0.0273
 1649TIP3    H126506   5.856   5.821   1.522 -2.8641  0.0540 -0.7223
 1649TIP3    H226507   5.803   5.899   1.641 -0.0426 -0.7792  1.1827
 1650TIP3   OH226508   0.938   5.237   3.049  0.0524 -0.2576  0.3260
 1650TIP3    H126509   0.888   5.258   3.127 -1.6576 -0.0558 -0.7775
 1650TIP3    H226510   0.943   5.319   3.000  3.1270  0.2366  1.2076
 1651TIP3   OH226511   3.775   5.116   1.430  0.2200  0.0182  0.2540
 1651TIP3    H126512   3.861   5.159   1.428  0.1223  0.4505  2.5165
 1651TIP3    H226513   3.794   5.025   1.452  0.1375 -0.0614 -0.0011
 1652TIP3   OH226514   5.841   5.695   8.162  0.6328 -0.0618  0.0505
 1652TIP3    H126515   5.870   5.624   8.105  0.0892 -1.6635  1.6592
 1652TIP3    H226516   5.888   5.773   8.131  1.0763 -1.0666 -1.9074
 1653TIP3   OH226517   6.486   2.452   0.032  0.0354 -0.5793  0.0675
 1653TIP3    H126518   6.528   2.538   0.034 -1.1153  0.0864 -1.7949
 1653TIP3    H226519   6.431   2.451   0.110 -1.4926  1.2755 -0.8778
 1654TIP3   OH226520   5.592   0.056   1.082 -0.1618 -0.0077  0.4644
 1654TIP3    H126521   5.509   0.017   1.110 -1.0006  1.3231 -0.0941
 1654TIP3    H226522   5.608   0.018   0.995 -0.0037 -0.5179  0.7130
 1655TIP3   OH226523   1.053   0.452   7.719  0.0158  0.0281 -0.7874
 1655TIP3    H126524   1.035   0.483   7.631  0.4336 -0.9343 -1.2293
 1655TIP3    H226525   1.143   0.480   7.737 -0.6044  1.6170 -0.0254
 1656TIP3   OH226526   2.332   1.343   8.268 -0.0056  0.3376 -0.2988
 1656TIP3    H126527   2.331   1.249   8.252 -2.2237  0.4605 -1.3361
 1656TIP3    H226528   2.367   1.380   8.186  0.0833  0.4483 -0.2099
 1657TIP3   OH226529   6.593   3.474   6.942  0.0072  0.3186 -0.0785
 1657TIP3    H126530   6.617   3.522   7.021 -0.7689  0.2500  0.2142
 1657TIP3    H226531   6.676   3.458   6.896  0.7566 -1.4743  1.7472
 1658TIP3   OH226532   3.124   0.819   0.470 -0.0328 -0.1274 -0.0606
 1658TIP3    H126533   3.187   0.779   0.529 -0.5877 -0.9100  0.0116
 1658TIP3    H226534   3.049   0.840   0.526  0.6922  2.1842  0.1768
 1659TIP3   OH226535   0.820   1.967   2.574 -0.1870 -0.1734  0.1290
 1659TIP3    H126536   0.735   1.934   2.603  0.0644 -1.3421 -0.3886
 1659TIP3    H226537   0.846   2.029   2.641 -1.0405 -0.4703  0.7515
 1660TIP3   OH226538   3.493   1.995   1.749 -0.0023  0.3888  0.5791
 1660TIP3    H126539   3.503   2.048   1.670 -0.0483  1.2988  1.1707
 1660TIP3    H226540   3.551   2.035   1.813  0.6289 -0.8169  0.7872
 1661TIP3   OH226541   6.800   1.697   1.211  0.7932  0.0742 -0.0380
 1661TIP3    H126542   6.844   1.747   1.280  0.1759  0.3158  0.1936
 1661TIP3    H226543   6.757   1.764   1.157 -0.4574 -0.2104  0.5593
 1662TIP3   OH226544   6.261   0.123   3.036 -0.1304  0.6347 -0.2466
 1662TIP3    H126545   6.203   0.079   2.973 -1.1340  1.5531 -0.0140
 1662TIP3    H226546   6.202   0.181   3.085  0.7251  0.3441  1.1727
 1663TIP3   OH226547   4.775   3.678   0.450  0.1221 -0.2934 -0.1718
 1663TIP3    H126548   4.864   3.641   0.450 -0.3445 -1.4812 -0.5107
 1663TIP3    H226549   4.738   3.649   0.367 -0.1984  1.1900 -0.5582
 1664TIP3   OH226550   2.325   1.366   3.026  0.6405  0.3084 -0.0760
 1664TIP3    H126551   2.280   1.347   3.108 -0.6332 -0.4302 -0.9051
 1664TIP3    H226552   2.387   1.436   3.048  0.3393  0.1109  1.5018
 1665TIP3   OH226553   3.564   5.142   0.391 -0.0324  0.1816  0.2613
 1665TIP3    H126554   3.550   5.108   0.479  0.7808 -2.6372 -0.6029
 1665TIP3    H226555   3.495   5.101   0.338  1.1841 -0.4621 -0.8959
 1666TIP3   OH226556   1.597   5.571   0.539  0.1392  0.3285 -0.2336
 1666TIP3    H126557   1.524   5.529   0.493  0.3730  0.5607 -0.8346
 1666TIP3    H226558   1.578   5.665   0.534 -2.2770  0.3583  4.2379
 1667TIP3   OH226559   1.298   5.212   3.370 -0.0911 -0.1624 -0.2040
 1667TIP3    H126560   1.363   5.143   3.357 -1.0550 -1.5477  1.8451
 1667TIP3    H226561   1.290   5.253   3.284  1.7216 -1.5039 -1.0920
 1668TIP3   OH226562   3.356   3.549   8.132 -0.1753 -0.7984 -0.1465
 1668TIP3    H126563   3.269   3.589   8.139  0.0202 -0.2240 -0.8331
 1668TIP3    H226564   3.412   3.606   8.185 -0.0758 -0.7080 -0.3465
 1669TIP3   OH226565   6.606   6.867   8.276 -0.0921  0.2317  0.4198
 1669TIP3    H126566   6.524   6.822   8.298 -0.2527  0.7148  0.8282
 1669TIP3    H226567   6.643   6.892   8.361 -0.5224  1.7729  0.1858
 1670TIP3   OH226568   3.009   4.260   0.091 -0.2373 -0.4947  0.0694
 1670TIP3    H126569   3.101   4.250   0.067 -0.2376 -0.2880 -0.0193
 1670TIP3    H226570   2.969   4.305   0.017 -0.6530 -1.5847 -0.3882
 1671TIP3   OH226571   2.186   0.299   8.395  0.5376 -0.2339 -0.0094
 1671TIP3    H126572   2.109   0.247   8.373 -0.0521  0.0844  1.2378
 1671TIP3    H226573   2.187   0.301   8.490  0.7882  1.6799 -0.0205
 1672TIP3   OH226574   3.568   4.327   0.084  0.6457  0.0285  0.2826
 1672TIP3    H126575   3.546   4.374   0.004  1.9942  0.3851  0.1001
 1672TIP3    H226576   3.599   4.394   0.144  0.4794 -0.3504  0.8030
 1673TIP3   OH226577   2.896   6.834   2.807 -0.2511  0.1420 -0.1966
 1673TIP3    H126578   2.961   6.904   2.812  0.5071 -0.2299 -2.9536
 1673TIP3    H226579   2.944   6.754   2.828 -0.2308  0.0556 -0.5670
 1674TIP3   OH226580   6.632   3.891   0.240 -0.1714  0.3391 -0.0784
 1674TIP3    H126581   6.627   3.849   0.154 -1.6141 -0.6742  0.4600
 1674TIP3    H226582   6.541   3.912   0.261 -0.2161 -1.7514  2.2972
 1675TIP3   OH226583   4.211   1.240   1.875  0.0033  0.3628 -0.2486
 1675TIP3    H126584   4.245   1.325   1.848  0.5827  0.5846  1.0941
 1675TIP3    H226585   4.117   1.254   1.884 -0.0211  0.6239 -0.8382
 1676TIP3   OH226586   0.722   3.510   2.252 -0.1753 -0.5075  0.1701
 1676TIP3    H126587   0.810   3.548   2.246 -0.5716  0.5578  0.8044
 1676TIP3    H226588   0.704   3.476   2.165  1.3437 -1.8590  0.3233
 1677TIP3   OH226589   3.934   4.269   7.752 -0.4250  0.3569 -0.0074
 1677TIP3    H126590   3.958   4.200   7.814 -2.0924  0.6035  0.9599
 1677TIP3    H226591   4.017   4.294   7.712  0.7238  0.1033  2.0475
 1678TIP3   OH226592   3.650   0.618   0.293 -0.2636  0.7140  0.1227
 1678TIP3    H126593   3.621   0.587   0.208  0.8588 -0.8536  0.2695
 1678TIP3    H226594   3.576   0.601   0.351  0.3181 -1.9660  0.2215
 1679TIP3   OH226595   5.338   4.857   0.019 -0.2497  0.3849  0.3830
 1679TIP3    H126596   5.334   4.949  -0.007  0.2289  0.1901 -0.4060
 1679TIP3    H226597   5.252   4.839   0.057 -0.9423  0.7008 -0.9918
 1680TIP3   OH226598   1.280   1.212   0.837  0.1617  0.3086 -0.4973
 1680TIP3    H126599   1.295   1.232   0.744  1.1082  0.8406 -0.2383
 1680TIP3    H226600   1.186   1.229   0.849  0.1915  1.0605 -1.1678
 1681TIP3   OH226601   0.031   0.508   0.592  0.8927  0.4604 -0.4077
 1681TIP3    H126602   0.094   0.436   0.589  1.8931  1.3404 -1.9837
 1681TIP3    H226603   0.081   0.582   0.626  0.0565  0.5841  0.5697
 1682TIP3   OH226604   2.017   1.279   7.111  0.6291  0.3442  0.0701
 1682TIP3    H126605   2.104   1.241   7.123 -0.1897 -1.9006 -0.6261
 1682TIP3    H226606   1.999   1.272   7.018  0.9417  3.8695 -0.4025
 1683TIP3   OH226607   0.186   3.398   3.136  0.1368  0.1687 -0.2539
 1683TIP3    H126608   0.182   3.461   3.065 -0.0698 -0.1871 -0.5587
 1683TIP3    H226609   0.224   3.319   3.098  0.8077  0.2494  0.2334
 1684TIP3   OH226610   5.498   5.033   1.264  0.2953 -0.3232  0.5655
 1684TIP3    H126611   5.440   5.029   1.187  0.5813  0.2936  0.3124
 1684TIP3    H226612   5.442   5.006   1.337 -0.3226  0.2517  0.3245
 1685TIP3   OH226613   1.411   3.705   2.322  0.4680 -0.3927 -0.2163
 1685TIP3    H126614   1.467   3.761   2.268  1.0428 -0.7880 -0.0379
 1685TIP3    H226615   1.326   3.750   2.323  0.7227  0.1101 -0.6532
 1686TIP3   OH226616   1.858   2.659   7.265  0.5572 -0.2914 -0.3115
 1686TIP3    H126617   1.880   2.736   7.317 -0.5851 -0.3256  0.2465
 1686TIP3    H226618   1.827   2.595   7.328  0.1683 -0.7196 -0.9255
 1687TIP3   OH226619   4.606   0.337   2.269  0.8484  0.3805 -0.1334
 1687TIP3    H126620   4.522   0.361   2.307  0.9467 -0.5435  0.6967
 1687TIP3    H226621   4.607   0.380   2.184 -0.2207  0.8557  0.0816
 1688TIP3   OH226622   4.716   5.590   1.655 -0.2556 -0.5804 -0.1972
 1688TIP3    H126623   4.764   5.513   1.624  0.0577  0.2742 -1.9941
 1688TIP3    H226624   4.631   5.557   1.683  0.3811 -1.7503  0.4176
 1689TIP3   OH226625   2.309   0.968   0.661  0.1975  0.1482  0.0241
 1689TIP3    H126626   2.337   0.930   0.745 -1.9296 -0.2160  0.6106
 1689TIP3    H226627   2.228   0.923   0.640  0.5289  0.4531 -2.1240
 1690TIP3   OH226628   4.582   2.270   8.095 -0.1348  0.1923 -0.8236
 1690TIP3    H126629   4.564   2.250   8.187  1.3737 -1.2605 -0.8168
 1690TIP3    H226630   4.583   2.185   8.051  0.9822  0.7035 -1.8410
 1691TIP3   OH226631   5.673   0.492   0.403  0.0898 -1.0199  0.6510
 1691TIP3    H126632   5.697   0.565   0.460 -2.8119  1.4591 -0.9869
 1691TIP3    H226633   5.722   0.508   0.322 -1.0263 -0.4724  0.0678
 1692TIP3   OH226634   0.599   3.691   1.973  0.2743  0.1159 -0.0116
 1692TIP3    H126635   0.688   3.660   1.992  0.4819  1.7513  2.0301
 1692TIP3    H226636   0.611   3.782   1.946 -0.6841 -0.1479 -1.4543
 1693TIP3   OH226637   6.833   6.042   7.932  0.1286 -0.1200  0.2198
 1693TIP3    H126638   6.807   5.973   7.870  1.7144 -0.2632 -0.3339
 1693TIP3    H226639   6.908   6.085   7.890  1.4178 -0.3653  2.1246
 1694TIP3   OH226640   1.448   0.634   7.410  0.1073 -0.2602  0.0082
 1694TIP3    H126641   1.432   0.728   7.407 -0.5874 -0.4044 -1.2941
 1694TIP3    H226642   1.361   0.595   7.408  0.3205 -0.9397  1.8509
 1695TIP3   OH226643   3.115   5.414   0.898 -0.6754 -0.4029  0.6794
 1695TIP3    H126644   3.153   5.462   0.971  0.9070  0.8160 -0.8687
 1695TIP3    H226645   3.168   5.334   0.891  0.0430  0.1126  0.0730
 1696TIP3   OH226646   5.165   3.166   2.278  0.0900  0.0066 -0.0861
 1696TIP3    H126647   5.234   3.153   2.212 -0.4659 -1.5606 -0.4034
 1696TIP3    H226648   5.085   3.135   2.235 -0.2185 -1.4917  1.4546
 1697TIP3   OH226649   3.108   3.146   2.004 -0.1468 -0.4995  0.1031
 1697TIP3    H126650   3.045   3.162   2.075 -0.4018 -0.6713 -0.0804
 1697TIP3    H226651   3.061   3.171   1.925  0.6411  1.1026  0.0997
 1698TIP3   OH226652   0.506   3.379   1.395 -0.1302 -0.6252 -0.3442
 1698TIP3    H126653   0.556   3.437   1.338  0.4687 -0.0838  0.6891
 1698TIP3    H226654   0.563   3.303   1.408 -0.6252 -1.1377 -1.1459
 1699TIP3   OH226655   4.775   1.621   1.758  0.1493 -0.3631 -0.3620
 1699TIP3    H126656   4.708   1.675   1.717  0.7097  1.6197  1.1823
 1699TIP3    H226657   4.754   1.531   1.730 -2.7514  0.2400 -0.4462
 1700TIP3   OH226658   5.682   2.163   0.922 -0.1023 -0.1757 -0.6633
 1700TIP3    H126659   5.712   2.253   0.908 -0.8518  0.1592 -0.2110
 1700TIP3    H226660   5.590   2.173   0.949  0.5461 -0.8754  2.0705
 1701TIP3   OH226661   0.348   6.805   2.491 -0.0220  0.0615 -0.0809
 1701TIP3    H126662   0.364   6.897   2.468 -0.7590 -0.3940 -2.6751
 1701TIP3    H226663   0.410   6.788   2.563  0.8083  2.2988 -0.1661
 1702TIP3   OH226664   5.895   5.041   7.332 -0.1900  0.7149 -0.9398
 1702TIP3    H126665   5.907   5.131   7.361 -0.4626  0.5909 -0.4323
 1702TIP3    H226666   5.975   4.996   7.361  0.0524  0.8361 -1.3977
 1703TIP3   OH226667   6.636   4.559   7.299 -0.2021  0.1006  0.0000
 1703TIP3    H126668   6.701   4.492   7.277  0.9099  1.0302  0.3624
 1703TIP3    H226669   6.578   4.516   7.361  0.7737 -0.3981  0.5941
 1704TIP3   OH226670   2.969   0.677   0.298  0.2277  0.1243  0.0712
 1704TIP3    H126671   3.040   0.719   0.347  0.2470  0.8475 -0.5646
 1704TIP3    H226672   2.889   0.700   0.346  0.4515 -1.3078  1.2209
 1705TIP3   OH226673   6.492   0.879   0.696  0.1350 -0.0017  0.0141
 1705TIP3    H126674   6.565   0.891   0.635 -0.3676 -2.6701 -1.2628
 1705TIP3    H226675   6.533   0.858   0.780  0.8572 -0.4182 -0.4299
 1706TIP3   OH226676   0.076   0.026   0.224 -0.2885 -0.2610 -0.3749
 1706TIP3    H126677   0.126  -0.056   0.229  3.7070  1.9550  0.3801
 1706TIP3    H226678   0.056   0.047   0.315  2.8146  1.6254  0.0528
 1707TIP3   OH226679   5.255   3.208   1.129  0.1743 -0.5259 -0.0162
 1707TIP3    H126680   5.333   3.179   1.082  0.0407 -1.4480  0.3027
 1707TIP3    H226681   5.182   3.178   1.075  0.0264 -1.2980  0.5923
 1708TIP3   OH226682   1.633   6.323   1.989 -0.4740  0.2637 -0.3483
 1708TIP3    H126683   1.660   6.413   1.971 -0.7579  0.7583  1.4658
 1708TIP3    H226684   1.546   6.332   2.029 -1.3449 -0.9713 -1.8669
 1709TIP3   OH226685   3.174   0.554   2.900  0.8341  0.0683 -0.0098
 1709TIP3    H126686   3.084   0.558   2.931  0.9367  2.5951  0.1587
 1709TIP3    H226687   3.227   0.543   2.979  0.7075 -1.6961 -0.1335
 1710TIP3   OH226688   6.670   4.688   1.979 -0.2922  0.1158  0.1981
 1710TIP3    H126689   6.682   4.667   1.886 -1.8722  1.9606 -0.5029
 1710TIP3    H226690   6.576   4.674   1.993 -0.2217  0.7223  1.2858
 1711TIP3   OH226691   1.233   4.315   3.178 -0.0006 -0.1111  0.5319
 1711TIP3    H126692   1.172   4.270   3.237 -1.3986 -0.6616 -1.2066
 1711TIP3    H226693   1.179   4.383   3.137 -0.0450 -1.7425 -2.3642
 1712TIP3   OH226694   4.497   4.745   2.405  0.0640  0.0485 -0.0423
 1712TIP3    H126695   4.514   4.722   2.496  0.1956 -1.4880 -0.4299
 1712TIP3    H226696   4.479   4.839   2.407 -1.2323 -0.1835  1.7465
 1713TIP3   OH226697   6.307   2.344   7.564 -0.0946 -0.2180 -0.0407
 1713TIP3    H126698   6.346   2.263   7.530  0.2014  0.1640 -0.6255
 1713TIP3    H226699   6.317   2.337   7.659  0.8566 -0.4090 -0.1456
 1714TIP3   OH226700   0.779   5.518   1.732  0.0974 -0.2780 -0.5845
 1714TIP3    H126701   0.736   5.454   1.789  0.7991  0.4043  0.7379
 1714TIP3    H226702   0.718   5.592   1.728  0.4663  0.0615  0.0494
 1715TIP3   OH226703   3.444   3.372   2.180  0.3079 -0.4108  0.0136
 1715TIP3    H126704   3.518   3.356   2.239 -0.5335 -1.8620  0.7286
 1715TIP3    H226705   3.387   3.431   2.229  0.5280 -0.0613 -0.1476
 1716TIP3   OH226706   4.646   5.909   0.080  0.7725  0.7989  0.4072
 1716TIP3    H126707   4.618   5.878  -0.006 -0.5678  1.7433  0.4751
 1716TIP3    H226708   4.741   5.901   0.078  0.7116  0.0253 -0.8477
 1717TIP3   OH226709   2.519   1.734   1.066  0.1206 -0.7247  0.1435
 1717TIP3    H126710   2.526   1.666   0.998 -1.7997 -0.3354 -0.5024
 1717TIP3    H226711   2.460   1.800   1.028  0.2218  0.2463  1.6070
 1718TIP3   OH226712   3.239   5.212   1.031  0.0652  0.1617  0.2133
 1718TIP3    H126713   3.230   5.151   0.958 -1.3470  0.9664 -0.3119
 1718TIP3    H226714   3.286   5.162   1.098  0.3172 -0.9784 -0.7761
 1719TIP3   OH226715   5.703   4.024   2.186  0.1754 -0.1744  0.2507
 1719TIP3    H126716   5.684   3.931   2.172 -0.2576 -0.0409 -0.0337
 1719TIP3    H226717   5.721   4.030   2.280 -2.0581 -0.1529  0.7357
 1720TIP3   OH226718   1.606   0.597   0.802 -0.3241  0.2820  0.1094
 1720TIP3    H126719   1.520   0.556   0.803  0.1677 -0.7988  1.3283
 1720TIP3    H226720   1.643   0.575   0.717 -0.3043 -1.3682  0.5197
 1721TIP3   OH226721   2.121   0.196   2.577  0.2202 -0.2626  0.8173
 1721TIP3    H126722   2.124   0.225   2.668  0.3315 -2.1261  1.4417
 1721TIP3    H226723   2.153   0.106   2.579 -2.8365 -1.5221 -0.5885
 1722TIP3   OH226724   2.450   3.090   1.283 -0.0020 -0.3386  0.5573
 1722TIP3    H126725   2.512   3.037   1.335 -1.1944 -1.3885  0.9663
 1722TIP3    H226726   2.473   3.180   1.305  1.9479 -0.6435  0.0167
 1723TIP3   OH226727   6.463   1.254   2.241  0.3955 -0.5811 -0.5198
 1723TIP3    H126728   6.417   1.314   2.182 -1.2689 -0.4353  0.8572
 1723TIP3    H226729   6.485   1.179   2.186  3.6666  1.6729 -2.6240
 1724TIP3   OH226730   5.594   2.790   0.799  0.0475 -0.0680 -0.5137
 1724TIP3    H126731   5.663   2.849   0.828 -1.6604  1.5605  0.4246
 1724TIP3    H226732   5.519   2.846   0.783 -1.5177 -1.9301 -0.1070
 1725TIP3   OH226733   5.500   4.881   0.244  0.0615 -0.0872  0.3446
 1725TIP3    H126734   5.455   4.857   0.325 -0.4415 -0.4271 -0.0259
 1725TIP3    H226735   5.450   4.836   0.175 -1.0956  2.2180 -0.4293
 1726TIP3   OH226736   5.715   6.142   0.896 -0.8266  0.1348 -0.7053
 1726TIP3    H126737   5.768   6.118   0.820  0.0740  0.4608 -0.1889
 1726TIP3    H226738   5.626   6.114   0.873 -0.4603 -0.2917 -1.6379
 1727TIP3   OH226739   6.806   1.545   1.673 -0.1611  0.3918  0.5624
 1727TIP3    H126740   6.792   1.456   1.640  0.2977  0.9858 -1.3561
 1727TIP3    H226741   6.861   1.534   1.751 -1.1190 -1.0616  1.0678
 1728TIP3   OH226742   2.264   6.854   1.003  0.0004 -0.0667 -0.4725
 1728TIP3    H126743   2.305   6.932   1.040  1.5057 -1.7435  1.6102
 1728TIP3    H226744   2.179   6.848   1.046  0.9958 -0.9918  1.5007
 1729TIP3   OH226745   1.800   0.562   7.308  0.0268  0.1475 -0.4516
 1729TIP3    H126746   1.833   0.568   7.398  1.5556 -0.1873 -0.9509
 1729TIP3    H226747   1.875   0.530   7.258 -1.1868 -1.0064 -1.6276
 1730TIP3   OH226748   1.515   5.473   7.067  0.4384 -0.5216 -0.1428
 1730TIP3    H126749   1.592   5.528   7.082  0.7095 -1.0063  0.2684
 1730TIP3    H226750   1.443   5.521   7.107  0.4255  0.1855 -0.9782
 1731TIP3   OH226751   0.208   6.252   1.930 -0.5226 -0.2473  0.4858
 1731TIP3    H126752   0.119   6.275   1.955 -1.1555  0.2034 -1.9219
 1731TIP3    H226753   0.199   6.170   1.882 -0.1362  1.1611 -2.2090
 1732TIP3   OH226754   1.483   3.713   1.794  0.1732 -0.0587 -0.0601
 1732TIP3    H126755   1.570   3.679   1.814 -0.8372 -1.4145  2.4051
 1732TIP3    H226756   1.432   3.700   1.874 -2.0315  1.6702 -1.0584
 1733TIP3   OH226757   2.955   1.931   2.168  0.0442 -0.2455 -0.4145
 1733TIP3    H126758   3.025   1.991   2.142 -0.8646  0.3518 -1.5868
 1733TIP3    H226759   2.901   1.983   2.228 -0.8168  0.1831 -1.5330
 1734TIP3   OH226760   2.751   4.591   1.752 -0.2353  0.0252  0.7802
 1734TIP3    H126761   2.750   4.574   1.658  0.5849  3.9193 -0.1038
 1734TIP3    H226762   2.814   4.527   1.787  0.1961 -0.8735 -1.4682
 1735TIP3   OH226763   2.615   6.132   8.369  0.6521  0.4189  0.3533
 1735TIP3    H126764   2.560   6.197   8.325  0.3383 -0.0813 -0.0005
 1735TIP3    H226765   2.702   6.144   8.331  0.4911  0.3174 -0.0522
 1736TIP3   OH226766   3.791   4.636   1.848  0.2048  0.1820  0.6055
 1736TIP3    H126767   3.706   4.636   1.892 -0.8495  0.6176 -1.2912
 1736TIP3    H226768   3.835   4.557   1.879 -1.3008 -0.5626  0.9206
 1737TIP3   OH226769   1.117   6.477   0.247 -0.1895 -0.3493  0.1742
 1737TIP3    H126770   1.183   6.516   0.189 -0.7664  0.6437  0.1686
 1737TIP3    H226771   1.133   6.517   0.332 -0.1258 -0.8930  0.4208
 1738TIP3   OH226772   2.942   6.476   0.539 -0.5216  0.0218 -0.4017
 1738TIP3    H126773   2.864   6.468   0.484 -0.9723  0.2653  0.1953
 1738TIP3    H226774   3.005   6.417   0.499 -0.7487  0.3899 -1.3458
 1739TIP3   OH226775   4.642   0.694   1.316 -0.2073 -0.0801 -0.6097
 1739TIP3    H126776   4.589   0.625   1.276  0.7104 -1.0144 -0.2411
 1739TIP3    H226777   4.692   0.650   1.384  0.8316  0.8371 -0.7513
 1740TIP3   OH226778   0.921   1.417   7.837 -0.6810  0.1262 -0.1247
 1740TIP3    H126779   0.966   1.357   7.896 -0.4204 -1.8152 -2.1798
 1740TIP3    H226780   0.830   1.388   7.836 -0.5669 -0.2476 -1.0859
 1741TIP3   OH226781   2.138   1.836   0.714 -0.0164 -0.4980 -0.2794
 1741TIP3    H126782   2.188   1.917   0.723 -0.1117 -0.5759  1.1566
 1741TIP3    H226783   2.186   1.773   0.768 -1.7349 -0.5271  1.2772
 1742TIP3   OH226784   3.976   5.163   2.806  0.2708  0.1281 -0.1074
 1742TIP3    H126785   3.893   5.122   2.833 -0.1456  0.6445 -0.5791
 1742TIP3    H226786   4.041   5.127   2.867 -0.1085 -1.0761 -0.3926
 1743TIP3   OH226787   3.356   3.634   7.482  0.5368 -0.1052  0.2224
 1743TIP3    H126788   3.262   3.617   7.475  0.5999  0.1762 -1.9193
 1743TIP3    H226789   3.397   3.548   7.482  0.3121 -0.2213  0.9722
 1744TIP3   OH226790   4.935   0.891   2.048  0.4030 -0.1088 -0.0844
 1744TIP3    H126791   5.011   0.841   2.078  0.0990 -0.7953 -0.4423
 1744TIP3    H226792   4.950   0.979   2.082  0.2307 -0.7721  1.8257
 1745TIP3   OH226793   5.798   4.588   8.305 -0.1200  0.3040 -0.2006
 1745TIP3    H126794   5.767   4.659   8.361 -0.9477 -0.9968  1.0805
 1745TIP3    H226795   5.855   4.537   8.363  0.6239  0.0216 -1.1592
 1746TIP3   OH226796   5.377   4.790   7.615 -0.3735 -0.3037  0.3477
 1746TIP3    H126797   5.334   4.735   7.681 -0.3789 -0.1345  0.4873
 1746TIP3    H226798   5.311   4.803   7.547 -0.0741 -1.2237 -0.1270
 1747TIP3   OH226799   2.393   2.469   1.378  0.3579  0.3215 -0.0711
 1747TIP3    H126800   2.298   2.466   1.375  0.1664  2.7891  1.4884
 1747TIP3    H226801   2.415   2.494   1.468  2.6557 -2.9879  0.4795
 1748TIP3   OH226802   1.536   4.316   0.479 -0.0981 -0.1803 -0.2069
 1748TIP3    H126803   1.601   4.280   0.540  1.2182  0.7032 -1.0410
 1748TIP3    H226804   1.516   4.243   0.420  2.8532  0.3952 -2.1357
 1749TIP3   OH226805   0.199   5.390   0.578  0.3562  0.5974 -0.0866
 1749TIP3    H126806   0.204   5.436   0.662 -0.3397  0.8354 -0.1752
 1749TIP3    H226807   0.269   5.429   0.526  0.3692  0.9047  0.1560
 1750TIP3   OH226808   1.283   0.960   1.100  0.0472 -0.2833 -0.0113
 1750TIP3    H126809   1.349   0.975   1.033 -0.5342  0.4179 -0.4275
 1750TIP3    H226810   1.200   0.986   1.060 -0.5837 -1.6797  0.3036
 1751TIP3   OH226811   5.235   6.582   8.204 -0.5218  0.4897  0.6421
 1751TIP3    H126812   5.323   6.606   8.173  0.3753 -1.1836  1.7798
 1751TIP3    H226813   5.214   6.502   8.155 -1.5002  0.9525  0.2778
 1752TIP3   OH226814   4.033   0.526   2.594 -0.9832 -0.0166  0.7705
 1752TIP3    H126815   3.980   0.603   2.571 -1.7571 -0.8167 -0.2323
 1752TIP3    H226816   4.120   0.562   2.613 -0.4228  0.8686 -2.7442
 1753TIP3   OH226817   6.635   5.281   0.211 -0.2021 -0.6667  0.7408
 1753TIP3    H126818   6.718   5.318   0.181  0.5963 -2.0540  1.1582
 1753TIP3    H226819   6.578   5.285   0.134  0.4817 -0.3668  0.2348
 1754TIP3   OH226820   2.060   1.155   8.335 -0.0790 -0.3739  0.0629
 1754TIP3    H126821   2.009   1.125   8.411 -0.4706 -0.5385 -0.2586
 1754TIP3    H226822   2.144   1.110   8.344  1.5678  2.8370  2.7376
 1755TIP3   OH226823   5.002   3.614   1.667 -0.4253 -0.0034  0.3106
 1755TIP3    H126824   5.065   3.545   1.646 -0.2640  0.4933 -0.9352
 1755TIP3    H226825   5.032   3.649   1.751  0.2374 -0.5957  0.3302
 1756TIP3   OH226826   3.764   2.743   2.481  0.2819  0.2137  0.1019
 1756TIP3    H126827   3.773   2.686   2.557  1.4535 -0.7249 -0.7070
 1756TIP3    H226828   3.815   2.821   2.503 -2.3763  1.6240  1.7474
 1757TIP3   OH226829   4.484   6.842   3.135  0.4019 -0.0674 -0.2097
 1757TIP3    H126830   4.475   6.930   3.172  0.8315  0.7643 -1.9690
 1757TIP3    H226831   4.574   6.838   3.104 -0.1637 -0.3891 -1.9090
 1758TIP3   OH226832   3.804   1.655   1.344 -0.2045 -0.4117 -0.3702
 1758TIP3    H126833   3.717   1.644   1.384  0.4953 -1.4174  0.9332
 1758TIP3    H226834   3.832   1.567   1.322  0.9040 -0.2055  0.1353
 1759TIP3   OH226835   6.408   0.968   2.831 -0.0989  0.6184 -0.4375
 1759TIP3    H126836   6.374   0.883   2.804 -0.1070  0.8084 -1.0219
 1759TIP3    H226837   6.372   0.981   2.919 -0.5988  0.3015 -0.5944
 1760TIP3   OH226838   0.686   5.842   8.129  0.0446  0.3944 -0.7249
 1760TIP3    H126839   0.708   5.933   8.109 -0.4994  0.7570  0.2657
 1760TIP3    H226840   0.683   5.838   8.225 -0.5775 -0.5072 -0.7676
 1761TIP3   OH226841   2.401   6.335   1.201 -0.1301  0.5392  0.2833
 1761TIP3    H126842   2.453   6.289   1.135 -2.6868 -0.8148 -0.9652
 1761TIP3    H226843   2.390   6.423   1.165  2.6894  1.4839  1.4662
 1762TIP3   OH226844   3.468   0.075   0.369 -0.3685 -0.4474  0.2955
 1762TIP3    H126845   3.378   0.044   0.367  0.0278 -1.6412 -0.2985
 1762TIP3    H226846   3.462   0.168   0.389 -1.7710 -0.3167 -0.6584
 1763TIP3   OH226847   2.935   2.729   2.600  0.0227  0.2373 -0.0765
 1763TIP3    H126848   2.992   2.653   2.597  0.9083  0.9121 -1.0029
 1763TIP3    H226849   2.862   2.702   2.657 -0.0890 -1.5628 -0.9914
 1764TIP3   OH226850   4.750   5.012   0.347  0.0973 -0.7531  0.0281
 1764TIP3    H126851   4.825   5.058   0.385  0.2152 -0.4323 -0.5660
 1764TIP3    H226852   4.735   5.057   0.264  1.5406 -3.0516 -1.6184
 1765TIP3   OH226853   3.414   2.565   8.110 -0.4755  0.5139  0.3814
 1765TIP3    H126854   3.393   2.517   8.190 -1.1916 -2.8640 -1.6321
 1765TIP3    H226855   3.509   2.557   8.102 -0.4133  0.7771  0.8139
 1766TIP3   OH226856   2.912   3.076   8.387  0.0763 -0.2061  0.0642
 1766TIP3    H126857   2.957   3.024   8.321  1.6035 -1.4233  1.9521
 1766TIP3    H226858   2.982   3.120   8.434 -0.9593  0.5284  0.9629
 1767TIP3   OH226859   2.661   0.697   0.912 -0.2802 -0.5739  0.6375
 1767TIP3    H126860   2.756   0.708   0.922 -0.3132 -0.0322  0.3692
 1767TIP3    H226861   2.625   0.784   0.929 -0.5140 -0.0770 -1.9543
 1768TIP3   OH226862   5.219   0.178   1.141 -0.5338 -0.0411  0.2483
 1768TIP3    H126863   5.224   0.161   1.047 -0.7750 -1.7543  0.5111
 1768TIP3    H226864   5.127   0.199   1.157 -0.2021  1.8288 -0.1070
 1769TIP3   OH226865   0.510   3.746   1.550  0.6612  0.1980  0.3791
 1769TIP3    H126866   0.478   3.802   1.621 -0.1169  0.0071  0.1899
 1769TIP3    H226867   0.452   3.765   1.476  0.5574 -0.6476  0.2315
 1770TIP3   OH226868   4.869   5.089   3.109  0.0353 -0.0511  0.1704
 1770TIP3    H126869   4.948   5.143   3.106 -0.4349  0.9152  2.6340
 1770TIP3    H226870   4.796   5.152   3.107 -0.6362 -0.8154 -0.2856
 1771TIP3   OH226871   3.463   1.187   1.694  0.3413 -0.6779 -0.0687
 1771TIP3    H126872   3.513   1.232   1.763 -1.1670 -0.1772  0.7514
 1771TIP3    H226873   3.516   1.199   1.615  0.2413  2.2614  0.1732
 1772TIP3   OH226874   6.791   3.522   2.553 -0.9048 -0.4762  0.1254
 1772TIP3    H126875   6.791   3.481   2.466 -2.9504  0.6132 -0.4484
 1772TIP3    H226876   6.788   3.448   2.614 -0.5812 -1.2380 -0.7527
 1773TIP3   OH226877   1.067   3.961   2.594  0.0886  0.1782  0.2839
 1773TIP3    H126878   0.972   3.976   2.588  0.1165 -0.0865 -1.8343
 1773TIP3    H226879   1.105   4.048   2.599 -0.1982  0.4433 -1.4875
 1774TIP3   OH226880   0.247   0.270   6.961  0.2033  0.2504 -0.4462
 1774TIP3    H126881   0.227   0.303   6.873  0.4256 -1.2416 -1.0922
 1774TIP3    H226882   0.252   0.348   7.016 -0.4659  1.1695 -1.6558
 1775TIP3   OH226883   4.536   1.566   1.956  0.4807 -0.1450 -0.8017
 1775TIP3    H126884   4.583   1.587   2.037 -1.0557 -1.5744  0.5509
 1775TIP3    H226885   4.568   1.479   1.931 -0.3395 -0.5001 -0.6720
 1776TIP3   OH226886   5.585   6.895   0.563 -0.1388  0.2049 -0.0136
 1776TIP3    H126887   5.550   6.810   0.538 -1.0012  0.2189  1.0923
 1776TIP3    H226888   5.613   6.883   0.654 -0.1626  1.0674  0.1101
 1777TIP3   OH226889   3.410   3.648   0.591 -0.2515  0.1030 -0.2527
 1777TIP3    H126890   3.438   3.635   0.682  1.4973 -0.8435 -0.8774
 1777TIP3    H226891   3.316   3.632   0.593 -0.7579  2.6170  1.8202
 1778TIP3   OH226892   3.308   2.785   1.654 -0.5914 -0.7419 -0.5812
 1778TIP3    H126893   3.242   2.827   1.709  0.3466 -0.2955  0.2243
 1778TIP3    H226894   3.273   2.795   1.565 -0.1783  2.3109 -0.5234
 1779TIP3   OH226895   6.140   4.995   1.712 -0.4487 -0.0456  1.0135
 1779TIP3    H126896   6.171   4.930   1.776  1.5811  1.0263  1.1800
 1779TIP3    H226897   6.140   5.078   1.760 -2.1257  0.2562  0.5353
 1780TIP3   OH226898   6.008   3.481   1.123 -0.3653  0.1161 -0.5614
 1780TIP3    H126899   5.967   3.431   1.053  0.8131 -0.6648 -0.7118
 1780TIP3    H226900   5.980   3.437   1.203 -0.0379 -0.2559 -0.6503
 1781TIP3   OH226901   5.938   0.322   7.395  0.4180 -0.1852 -0.5069
 1781TIP3    H126902   5.882   0.246   7.382  1.9541 -1.5711  0.7029
 1781TIP3    H226903   5.925   0.374   7.315  0.0219 -2.1521 -1.8048
 1782TIP3   OH226904   3.997   0.905   3.367 -0.0556  0.4839  0.2535
 1782TIP3    H126905   4.002   0.899   3.462 -2.7944  0.3875  0.4697
 1782TIP3    H226906   3.966   0.994   3.351 -4.0838 -0.8256 -0.1756
 1783TIP3   OH226907   2.843   5.841   1.313  0.2098 -0.1415 -0.1591
 1783TIP3    H126908   2.826   5.928   1.277 -1.9818 -0.5957 -0.3366
 1783TIP3    H226909   2.818   5.848   1.405  1.5359 -0.1985  0.2286
 1784TIP3   OH226910   2.058   3.534   7.356  0.3619  0.0539  0.2074
 1784TIP3    H126911   2.027   3.584   7.281 -1.5737 -1.0637  0.2053
 1784TIP3    H226912   2.134   3.486   7.322  0.5226  0.8034 -0.5479
 1785TIP3   OH226913   5.326   4.149   1.119  0.0084 -0.2999  0.3424
 1785TIP3    H126914   5.388   4.101   1.064  0.0116  2.0160 -1.8440
 1785TIP3    H226915   5.244   4.147   1.071 -0.0422  1.6107  0.2678
 1786TIP3   OH226916   0.530   3.962   7.386 -0.3777  0.0328 -0.8291
 1786TIP3    H126917   0.547   4.021   7.460  1.1432 -0.3378 -0.8468
 1786TIP3    H226918   0.549   4.015   7.309  0.8825 -0.4174 -0.8480
 1787TIP3   OH226919   4.474   2.096   7.212  0.1343  0.3039 -0.3586
 1787TIP3    H126920   4.504   2.172   7.262  0.2371 -0.8643  1.4562
 1787TIP3    H226921   4.553   2.062   7.170  0.1185  1.0735 -1.0358
 1788TIP3   OH226922   1.543   6.069   3.117 -0.4032 -0.1124  0.1666
 1788TIP3    H126923   1.483   6.016   3.170 -0.2269 -0.3263  0.1563
 1788TIP3    H226924   1.630   6.036   3.139 -0.1104  1.5364  1.6936
 1789TIP3   OH226925   1.088   5.914   0.860 -0.2654 -0.2678  0.0824
 1789TIP3    H126926   1.118   5.982   0.921 -0.1938 -0.0171 -0.2284
 1789TIP3    H226927   1.020   5.867   0.908 -1.7341  1.2820 -0.3828
 1790TIP3   OH226928   4.660   5.458   2.242 -0.2803  0.2494  0.7865
 1790TIP3    H126929   4.575   5.478   2.204 -0.0056  1.5610  0.8177
 1790TIP3    H226930   4.641   5.403   2.318 -0.9385 -1.1397 -0.3262
 1791TIP3   OH226931   6.750   6.351   1.392  0.4519  0.1057  0.4372
 1791TIP3    H126932   6.708   6.418   1.339  0.7593  1.4757  1.8758
 1791TIP3    H226933   6.682   6.321   1.452  0.5011 -0.4213  0.2402
 1792TIP3   OH226934   0.300   4.467   1.024 -0.3368 -0.1295  0.3083
 1792TIP3    H126935   0.307   4.428   1.111 -0.3761  2.0139  1.3308
 1792TIP3    H226936   0.222   4.522   1.028 -0.3161  0.0453 -1.0784
 1793TIP3   OH226937   5.629   4.163   3.081  0.3844  0.0309 -0.0947
 1793TIP3    H126938   5.688   4.091   3.102  1.1840  0.9906  1.0263
 1793TIP3    H226939   5.631   4.220   3.157 -1.6680  0.3353 -0.1969
 1794TIP3   OH226940   5.087   6.391   2.175 -0.4048 -0.2051 -0.5805
 1794TIP3    H126941   5.125   6.371   2.260 -0.1266  2.3517 -0.0115
 1794TIP3    H226942   5.000   6.352   2.178  0.4024 -2.0400 -0.0254
 1795TIP3   OH226943   1.895   6.045   1.890 -0.3338  0.3008 -0.6646
 1795TIP3    H126944   1.890   6.134   1.922  1.9096  0.6600 -1.1310
 1795TIP3    H226945   1.850   5.992   1.956  0.0589  1.5487  0.6339
 1796TIP3   OH226946   1.824   5.096   0.388 -0.4141  0.3980  0.4382
 1796TIP3    H126947   1.809   5.031   0.457 -0.2753 -0.0659  0.0384
 1796TIP3    H226948   1.736   5.126   0.364 -0.4480  0.7737  1.0116
 1797TIP3   OH226949   6.202   4.440   0.400 -0.3845 -0.1543 -0.0921
 1797TIP3    H126950   6.248   4.490   0.468 -0.0093  0.6215 -0.9136
 1797TIP3    H226951   6.145   4.380   0.450 -0.6637  0.8989  0.9064
 1798TIP3   OH226952   3.447   0.059   8.035  0.4868  0.3780 -0.2168
 1798TIP3    H126953   3.525   0.114   8.040  0.6139  0.7444 -3.6484
 1798TIP3    H226954   3.474  -0.016   7.981 -0.3964 -1.8887  2.2343
 1799TIP3   OH226955   4.899   5.760   7.097  0.4317  0.7860  0.3783
 1799TIP3    H126956   4.873   5.709   7.174  1.9350  2.7779  2.3344
 1799TIP3    H226957   4.905   5.696   7.027 -0.8305 -1.1618  1.9296
 1800TIP3   OH226958   0.949   5.342   2.247  0.1328  0.5902 -0.1327
 1800TIP3    H126959   0.861   5.305   2.257  0.3879  0.1157  0.4213
 1800TIP3    H226960   0.958   5.358   2.153 -0.2208 -0.1688 -0.3053
 1801TIP3   OH226961   1.721   1.020   2.487  0.6688  0.0593  0.3667
 1801TIP3    H126962   1.645   0.968   2.462  0.6514  0.7391 -1.1184
 1801TIP3    H226963   1.792   0.956   2.496  0.6715 -0.2830 -1.5568
 1802TIP3   OH226964   1.500   4.554   0.609 -0.0237  0.3434  0.0998
 1802TIP3    H126965   1.522   4.620   0.543  1.4474  0.7019  0.9007
 1802TIP3    H226966   1.506   4.471   0.562  0.2076  0.6402 -0.4125
 1803TIP3   OH226967   0.478   5.292   0.066  0.4004  0.1970 -0.5642
 1803TIP3    H126968   0.547   5.353   0.042  0.4552 -0.1207 -1.2331
 1803TIP3    H226969   0.413   5.299  -0.004  0.4211 -0.5169 -0.6643
 1804TIP3   OH226970   1.541   3.454   8.065 -0.2763  0.0527  0.1594
 1804TIP3    H126971   1.617   3.404   8.093  0.6443  0.8443 -0.8809
 1804TIP3    H226972   1.529   3.432   7.973 -2.3313 -1.3211  0.6693
 1805TIP3   OH226973   1.551   2.764   3.167  0.3953  0.1734 -0.5614
 1805TIP3    H126974   1.590   2.812   3.094  1.1874 -0.9415 -0.9011
 1805TIP3    H226975   1.618   2.764   3.235  0.3221 -0.2735 -0.4853
 1806TIP3   OH226976   2.944   0.339   0.530 -0.0522 -0.0050  0.0234
 1806TIP3    H126977   2.912   0.385   0.608 -2.4868 -1.6065  0.0547
 1806TIP3    H226978   2.992   0.264   0.565 -1.3491 -0.8570  0.0228
 1807TIP3   OH226979   1.667   5.061   7.157 -0.2605 -0.4179 -0.3963
 1807TIP3    H126980   1.598   5.126   7.140 -0.9277 -0.6942  1.1147
 1807TIP3    H226981   1.624   4.992   7.206  0.4777 -1.9833 -1.8386
 1808TIP3   OH226982   4.872   6.136   8.137  0.1734 -0.1955  0.3506
 1808TIP3    H126983   4.943   6.097   8.085 -0.5555 -0.8296 -0.1876
 1808TIP3    H226984   4.795   6.129   8.081 -0.2910  0.6428  0.8611
 1809TIP3   OH226985   1.125   1.271   7.309  0.5415  0.0618 -0.3538
 1809TIP3    H126986   1.215   1.251   7.336 -0.1652 -0.7225  1.5540
 1809TIP3    H226987   1.108   1.357   7.347  0.1141 -0.3102  0.3279
 1810TIP3   OH226988   1.131   4.284   8.262 -0.2439 -0.2452 -0.3731
 1810TIP3    H126989   1.167   4.300   8.349  0.1113 -1.1121 -0.3440
 1810TIP3    H226990   1.163   4.356   8.209  1.8995 -1.1781 -0.4384
 1811TIP3   OH226991   0.660   5.284   0.381 -0.3241 -0.1364 -0.0058
 1811TIP3    H126992   0.599   5.211   0.392 -0.4014  0.2256  2.3319
 1811TIP3    H226993   0.603   5.360   0.363 -0.4002 -0.1833  0.0357
 1812TIP3   OH226994   3.160   6.481   1.270  0.0253  0.0650  0.4497
 1812TIP3    H126995   3.068   6.472   1.244 -0.2314  1.3318  0.8751
 1812TIP3    H226996   3.209   6.462   1.190 -0.7224  2.3630 -0.6542
 1813TIP3   OH226997   2.054   4.658   2.689 -0.9601 -0.0608 -0.2030
 1813TIP3    H126998   2.057   4.584   2.749  0.6008 -1.8866 -2.3757
 1813TIP3    H226999   2.145   4.683   2.676 -1.3293  0.9749 -0.9991
 1814TIP3   OH227000   1.993   6.640   1.775 -0.5393 -0.2341  0.2739
 1814TIP3    H127001   2.039   6.668   1.854  0.6234 -1.6296  0.1358
 1814TIP3    H227002   2.040   6.684   1.703 -1.3062  0.6670  0.3023
 1815TIP3   OH227003   2.165   0.353   0.992  0.1191 -0.0757 -1.1720
 1815TIP3    H127004   2.073   0.335   0.970  0.4259  0.0926 -2.6807
 1815TIP3    H227005   2.162   0.431   1.047 -0.6160  0.1886 -1.5795
 1816TIP3   OH227006   6.936   2.315   2.405 -0.9147 -0.2784  0.4364
 1816TIP3    H127007   6.872   2.246   2.422 -2.0933  0.6754  0.0579
 1816TIP3    H227008   6.889   2.396   2.425 -0.6049  0.5917 -2.0373
 1817TIP3   OH227009   0.982   5.575   3.479  0.2162 -0.1233  0.6782
 1817TIP3    H127010   0.918   5.507   3.501 -0.5458 -0.2012 -1.5847
 1817TIP3    H227011   0.958   5.649   3.535 -0.6719 -0.7754  1.1957
 1818TIP3   OH227012   6.565   3.731   0.910  0.4276 -0.5814  0.2796
 1818TIP3    H127013   6.521   3.673   0.973  1.2441 -1.3869  0.1311
 1818TIP3    H227014   6.616   3.671   0.855  0.8504  0.2444 -0.2318
 1819TIP3   OH227015   1.993   5.292   0.880 -0.2863  0.2409 -0.3648
 1819TIP3    H127016   1.916   5.344   0.903 -0.4614  0.0793 -0.5796
 1819TIP3    H227017   2.013   5.318   0.790  0.0960  0.5066 -0.2075
 1820TIP3   OH227018   0.792   1.683   0.886  0.0114  0.3248  0.2300
 1820TIP3    H127019   0.752   1.763   0.920  0.3242  0.7238 -0.3303
 1820TIP3    H227020   0.853   1.655   0.954  1.0073  1.4005 -0.1979
 1821TIP3   OH227021   4.429   1.486   2.298  0.4700  0.5320  0.2147
 1821TIP3    H127022   4.477   1.553   2.346 -1.9272  0.8435  2.3813
 1821TIP3    H227023   4.347   1.476   2.346  0.0343 -2.8184 -0.9667
 1822TIP3   OH227024   5.216   4.200   0.008  0.0839 -0.0244 -0.0984
 1822TIP3    H127025   5.137   4.196   0.062  0.1904 -1.3477 -0.0127
 1822TIP3    H227026   5.205   4.280  -0.044 -1.5875 -0.4550 -0.4765
 1823TIP3   OH227027   2.497   2.027   7.178 -0.3049 -0.4757  0.3907
 1823TIP3    H127028   2.494   1.956   7.243 -0.3204  0.2975  1.2697
 1823TIP3    H227029   2.406   2.056   7.170 -0.2378 -0.2627  0.3876
 1824TIP3   OH227030   3.066   1.133   1.346 -0.2237 -0.2407 -0.1515
 1824TIP3    H127031   3.126   1.186   1.293 -0.3227 -1.1292 -1.2041
 1824TIP3    H227032   3.117   1.107   1.422 -0.3718  1.8620  0.7244
 1825TIP3   OH227033   0.233   5.944   0.495 -0.0874  0.1269 -0.1839
 1825TIP3    H127034   0.294   5.976   0.428  0.3631  1.0885  0.6574
 1825TIP3    H227035   0.154   5.997   0.482 -0.2456 -0.1529 -0.3770
 1826TIP3   OH227036   2.848   5.065   7.883  0.3707  0.0622 -0.0552
 1826TIP3    H127037   2.911   5.058   7.812  0.6153 -0.6416  0.2190
 1826TIP3    H227038   2.779   5.123   7.850  1.7905  1.9202  0.1150
 1827TIP3   OH227039   4.848   3.713   0.980  0.1565  0.1642  0.1666
 1827TIP3    H127040   4.882   3.801   0.990  1.4955 -0.3009 -0.1543
 1827TIP3    H227041   4.807   3.713   0.893  1.5111  0.0572 -0.4913
 1828TIP3   OH227042   2.029   5.465   7.824 -0.0642  0.3160 -0.2248
 1828TIP3    H127043   2.014   5.539   7.883  0.2760 -0.5119  0.9553
 1828TIP3    H227044   1.942   5.440   7.794 -0.2938  0.5080  0.2632
 1829TIP3   OH227045   0.537   5.699   0.119 -0.4987  0.6202  0.3959
 1829TIP3    H127046   0.558   5.749   0.039 -0.5430 -0.5787 -0.3956
 1829TIP3    H227047   0.601   5.729   0.183  0.5816  0.4688 -0.5780
 1830TIP3   OH227048   2.140   5.543   0.179  0.3092  0.0336 -0.0087
 1830TIP3    H127049   2.055   5.577   0.207 -0.0659 -0.5485 -0.4353
 1830TIP3    H227050   2.181   5.512   0.260  0.3259  0.7517  0.2696
 1831TIP3   OH227051   5.749   0.258   2.651 -0.1751 -0.3515 -0.0160
 1831TIP3    H127052   5.729   0.305   2.731  0.1094  0.3128 -0.3218
 1831TIP3    H227053   5.757   0.166   2.677 -1.3901 -0.3241  0.4738
 1832TIP3   OH227054   1.781   6.861   0.464 -0.2557  0.1505  0.4710
 1832TIP3    H127055   1.741   6.943   0.493  0.6104  0.5797  0.4865
 1832TIP3    H227056   1.803   6.876   0.372  0.2644  0.0809  0.5811
 1833TIP3   OH227057   4.396   1.663   0.390 -0.4787 -0.5233  0.2094
 1833TIP3    H127058   4.459   1.597   0.418 -1.7261 -1.6631  0.4556
 1833TIP3    H227059   4.397   1.728   0.460  0.6580 -0.3362  0.0393
 1834TIP3   OH227060   3.943   4.536   8.014  0.2266  0.0943  0.3896
 1834TIP3    H127061   3.974   4.458   7.969 -0.8884 -0.1093 -0.0744
 1834TIP3    H227062   3.895   4.585   7.946  2.2274  1.9997  0.2354
 1835TIP3   OH227063   0.920   5.366   0.277  0.3737  0.2959 -0.5052
 1835TIP3    H127064   0.910   5.418   0.357 -0.1359 -1.4801  0.6543
 1835TIP3    H227065   0.837   5.318   0.269  0.3763  0.5115 -2.1726
 1836TIP3   OH227066   5.076   5.223   8.365 -0.4677 -0.1132 -0.3945
 1836TIP3    H127067   5.076   5.175   8.282  0.2666  1.0445 -1.0843
 1836TIP3    H227068   5.076   5.315   8.340  2.1024  0.3007  0.8456
 1837TIP3   OH227069   5.306   4.866   1.792  0.2890  0.0365  0.7797
 1837TIP3    H127070   5.231   4.909   1.834 -0.2542 -1.4943  1.4570
 1837TIP3    H227071   5.363   4.841   1.865  1.1939  0.6877  0.3059
 1838TIP3   OH227072   1.785   1.884   0.045  0.2707  0.1932 -0.4815
 1838TIP3    H127073   1.818   1.806  -0.001 -0.8154 -0.4765 -0.1776
 1838TIP3    H227074   1.855   1.907   0.105 -0.7214 -2.8811  2.1732
 1839TIP3   OH227075   5.608   6.805   1.484  0.1856  0.6696 -0.0687
 1839TIP3    H127076   5.679   6.841   1.430 -0.7238  0.8652 -1.1897
 1839TIP3    H227077   5.625   6.839   1.571  0.9139  1.5322 -0.5219
 1840TIP3   OH227078   4.877   6.067   8.410 -0.7514  0.2197 -0.4674
 1840TIP3    H127079   4.971   6.058   8.395 -0.5353  0.3814  0.6807
 1840TIP3    H227080   4.846   6.119   8.336  0.1819  0.7351 -0.5128
 1841TIP3   OH227081   2.693   6.514   3.219  0.3828  0.6206  1.0627
 1841TIP3    H127082   2.600   6.503   3.199  0.6565  1.1313 -0.6750
 1841TIP3    H227083   2.723   6.581   3.158  2.4393 -1.3349 -0.2702
 1842TIP3   OH227084   4.050   3.242   8.413  1.0309  0.4776  0.1492
 1842TIP3    H127085   3.998   3.279   8.484  0.3680  0.3857 -0.2782
 1842TIP3    H227086   4.044   3.307   8.342 -0.3830 -0.5228 -0.7123
 1843TIP3   OH227087   0.121   5.514   8.087 -0.3133  0.0717  0.0114
 1843TIP3    H127088   0.196   5.465   8.053  0.5652 -0.4200  2.4715
 1843TIP3    H227089   0.125   5.599   8.043  0.4265 -0.6805 -1.4368
 1844TIP3   OH227090   3.148   2.577   0.119  0.6539  0.1671 -0.6471
 1844TIP3    H127091   3.119   2.513   0.184 -0.1227  0.0505 -1.0860
 1844TIP3    H227092   3.082   2.646   0.124  0.6421  0.2001 -1.2310
 1845TIP3   OH227093   1.958   1.762   7.551 -1.1222 -0.1034 -0.3492
 1845TIP3    H127094   1.985   1.850   7.525  1.2479 -1.0681 -1.4525
 1845TIP3    H227095   1.878   1.746   7.502  0.2855  0.1936 -2.9244
 1846TIP3   OH227096   6.635   0.394   2.721  0.0430 -0.7515 -0.5881
 1846TIP3    H127097   6.559   0.405   2.778 -0.5287  1.1346 -1.6456
 1846TIP3    H227098   6.710   0.401   2.780 -0.5236  1.6190 -0.0610
 1847TIP3   OH227099   1.653   2.132   2.399  0.6846  0.4026  0.0513
 1847TIP3    H127100   1.740   2.142   2.437  0.3235  0.1309  0.9729
 1847TIP3    H227101   1.599   2.101   2.471  0.0440 -0.4263 -0.7572
 1848TIP3   OH227102   5.863   0.791   1.078  0.5645  0.0546  0.4680
 1848TIP3    H127103   5.813   0.768   1.000 -1.5317 -0.9133  1.9841
 1848TIP3    H227104   5.887   0.707   1.118 -0.0034  0.4857  1.7910
 1849TIP3   OH227105   1.067   3.300   8.213 -0.2428 -0.2972 -0.0820
 1849TIP3    H127106   1.107   3.337   8.134  0.0475 -1.4131 -0.4792
 1849TIP3    H227107   1.132   3.236   8.244  0.3209  1.1537  1.9153
 1850TIP3   OH227108   0.538   3.144   0.140 -0.1240 -0.1237  0.4068
 1850TIP3    H127109   0.460   3.098   0.110  0.0170 -0.8043  1.0791
 1850TIP3    H227110   0.609   3.108   0.086  0.0740 -1.1053  1.2902
 1851TIP3   OH227111   1.169   2.643   7.005 -0.5058  0.0048 -0.3577
 1851TIP3    H127112   1.081   2.605   7.004 -0.8647  0.7544  0.5046
 1851TIP3    H227113   1.220   2.585   7.060 -1.0278  0.6794  0.8827
 1852TIP3   OH227114   6.724   5.492   7.800 -0.5299  0.5615  0.6993
 1852TIP3    H127115   6.735   5.502   7.706 -0.8495 -1.0064  0.4585
 1852TIP3    H227116   6.721   5.397   7.814 -1.4246  0.7610  2.1651
 1853TIP3   OH227117   0.666   2.285   2.372  0.3725  0.1445  0.7178
 1853TIP3    H127118   0.591   2.226   2.371 -0.1596  0.7519 -1.5614
 1853TIP3    H227119   0.732   2.242   2.317  0.3069  1.2305 -0.2528
 1854TIP3   OH227120   1.897   5.719   2.560  0.3451  0.6762 -0.2341
 1854TIP3    H127121   1.853   5.798   2.530  0.1275  1.1842  1.3507
 1854TIP3    H227122   1.868   5.707   2.651  0.7553 -0.9468 -0.2766
 1855TIP3   OH227123   1.037   5.433   3.242  0.0722 -0.0988 -0.5247
 1855TIP3    H127124   1.028   5.499   3.311 -1.4809 -1.0718  0.2697
 1855TIP3    H227125   1.060   5.352   3.289  0.4839 -0.4511 -1.3167
 1856TIP3   OH227126   1.758   4.600   1.671  0.3152 -0.0811 -0.6525
 1856TIP3    H127127   1.768   4.581   1.764  0.5546  2.5920 -0.0349
 1856TIP3    H227128   1.676   4.650   1.665  2.4179  3.6846 -1.0496
 1857TIP3   OH227129   5.114   4.447   2.439 -0.1499 -0.3575 -0.3310
 1857TIP3    H127130   5.165   4.488   2.508 -0.2110  0.3866 -0.7180
 1857TIP3    H227131   5.072   4.372   2.481 -1.3950  0.9285  0.8374
 1858TIP3   OH227132   2.614   4.232   7.896 -0.5276 -0.4445 -0.7050
 1858TIP3    H127133   2.527   4.222   7.934 -0.3688  0.6579 -0.0083
 1858TIP3    H227134   2.599   4.277   7.813 -0.6928 -1.0090 -0.9831
 1859TIP3   OH227135   0.070   0.071   0.617 -0.6791 -0.4316 -0.0975
 1859TIP3    H127136  -0.003   0.035   0.567 -1.8252  1.4824  0.0780
 1859TIP3    H227137   0.146   0.023   0.587 -1.6369 -0.7490 -2.1926
 1860TIP3   OH227138   2.236   6.613   8.020 -0.3392  0.2118  0.0388
 1860TIP3    H127139   2.222   6.550   7.950 -1.1419  0.8483 -0.3960
 1860TIP3    H227140   2.155   6.611   8.071 -1.0514  2.0169 -0.9262
 1861TIP3   OH227141   0.610   0.056   7.743  0.1061 -0.4408 -0.6100
 1861TIP3    H127142   0.695   0.038   7.703  1.1761 -1.7786  2.0218
 1861TIP3    H227143   0.608   0.151   7.752  3.4124 -0.4792  3.1403
 1862TIP3   OH227144   5.055   1.660   0.329 -0.1607  0.1148  0.4163
 1862TIP3    H127145   5.129   1.682   0.386  0.8013 -0.9743 -0.3833
 1862TIP3    H227146   5.083   1.582   0.281 -1.1173  0.7426 -1.2504
 1863TIP3   OH227147   3.718   1.083   7.879  0.1499  0.3943 -0.3102
 1863TIP3    H127148   3.713   1.172   7.845  0.3681  0.1826 -0.9219
 1863TIP3    H227149   3.706   1.092   7.973 -1.3002  0.9157 -0.5297
 1864TIP3   OH227150   3.345   5.345   1.731 -0.4093  0.2769  0.1313
 1864TIP3    H127151   3.260   5.339   1.687 -1.0596  1.4691  1.1614
 1864TIP3    H227152   3.353   5.263   1.779 -0.4515 -0.3188 -0.8564
 1865TIP3   OH227153   6.731   4.283   2.416 -0.4069  0.1092  0.5998
 1865TIP3    H127154   6.785   4.258   2.492 -0.1108  0.6180  0.5607
 1865TIP3    H227155   6.764   4.369   2.391 -0.6877  0.0613  0.0567
 1866TIP3   OH227156   1.996   4.369   0.187  0.7890 -0.2260 -0.6369
 1866TIP3    H127157   2.076   4.417   0.208 -0.6323  1.2818  1.6937
 1866TIP3    H227158   1.925   4.427   0.215 -1.1003 -2.2360 -1.0359
 1867TIP3   OH227159   1.051   0.492   1.684  0.3514 -0.1599  0.3232
 1867TIP3    H127160   0.993   0.567   1.675 -0.4264 -0.8358 -0.4172
 1867TIP3    H227161   1.134   0.521   1.647 -0.4159 -0.1856 -1.4793
 1868TIP3   OH227162   1.518   1.739   2.345 -0.6367  0.1663  0.3247
 1868TIP3    H127163   1.445   1.759   2.286 -0.5414 -1.6365 -0.4689
 1868TIP3    H227164   1.494   1.656   2.385  0.3619  0.2436  1.1213
 1869TIP3   OH227165   5.061   3.840   0.734 -0.3773 -0.5012 -0.1946
 1869TIP3    H127166   5.037   3.878   0.819  1.4520  1.0988 -0.3169
 1869TIP3    H227167   5.129   3.776   0.755  0.4711  0.2890 -0.4658
 1870TIP3   OH227168   0.968   1.606   1.105 -0.4057 -0.5081  0.1991
 1870TIP3    H127169   0.974   1.513   1.126  0.3991 -0.2333  1.2886
 1870TIP3    H227170   0.957   1.650   1.190 -1.4726  0.3485 -0.3580
 1871TIP3   OH227171   4.460   4.649   1.236 -0.6874  0.4159  0.3553
 1871TIP3    H127172   4.466   4.648   1.331  0.0049  1.9014  0.3520
 1871TIP3    H227173   4.542   4.689   1.207 -0.7012 -0.4102 -0.8952
 1872TIP3   OH227174   1.638   0.196   0.018 -0.1792  0.0648  0.0393
 1872TIP3    H127175   1.618   0.183   0.111 -0.0847 -1.3097 -0.1034
 1872TIP3    H227176   1.571   0.258  -0.013 -0.6675 -0.0371  0.8570
 1873TIP3   OH227177   0.583   6.241   7.765  0.2981 -0.2898  0.3496
 1873TIP3    H127178   0.644   6.225   7.693  0.6951 -0.2837  0.6782
 1873TIP3    H227179   0.639   6.261   7.840 -0.1180  0.1061  0.5638
 1874TIP3   OH227180   4.542   6.651   1.398 -0.5630 -0.0495 -0.3401
 1874TIP3    H127181   4.446   6.649   1.396 -0.7753  2.9180  1.1077
 1874TIP3    H227182   4.566   6.703   1.321 -0.1751  0.1474 -0.0861
 1875TIP3   OH227183   6.915   3.708   1.796  0.4371  0.4872 -0.0948
 1875TIP3    H127184   6.897   3.795   1.760 -0.9530  0.5253  0.6154
 1875TIP3    H227185   6.829   3.676   1.824  1.0592 -0.7631  0.4483
 1876TIP3   OH227186   1.824   5.677   7.842 -0.2662  0.4585  0.1758
 1876TIP3    H127187   1.749   5.655   7.898 -1.3877 -0.2515 -1.5559
 1876TIP3    H227188   1.821   5.614   7.771  0.4965  1.9973 -1.2772
 1877TIP3   OH227189   0.003   0.849   8.314  0.7710  0.2213  0.8555
 1877TIP3    H127190  -0.074   0.901   8.336  0.8741  0.3229  0.9783
 1877TIP3    H227191   0.062   0.911   8.271 -0.4501 -0.4823 -2.1046
 1878TIP3   OH227192   2.674   5.295   2.001 -0.2224 -0.2076 -0.3113
 1878TIP3    H127193   2.733   5.251   2.062 -1.2531 -1.7045 -0.3544
 1878TIP3    H227194   2.651   5.228   1.937 -2.8439 -0.0115  0.3357
 1879TIP3   OH227195   6.762   5.577   0.048  0.6553  0.4878  0.5412
 1879TIP3    H127196   6.733   5.662   0.015  0.8026 -0.0399 -1.0611
 1879TIP3    H227197   6.857   5.581   0.043  0.6427 -0.1167 -0.5621
 1880TIP3   OH227198   0.608   4.708   2.597 -0.0795  0.8213  0.1600
 1880TIP3    H127199   0.678   4.740   2.541 -1.2618 -1.2275 -2.7361
 1880TIP3    H227200   0.527   4.730   2.550 -1.3608  1.5289  2.5241
 1881TIP3   OH227201   2.900   1.879   0.111 -0.5428 -0.0201 -0.1994
 1881TIP3    H127202   2.953   1.844   0.040 -0.8594  1.7051 -1.3505
 1881TIP3    H227203   2.965   1.909   0.176 -0.1602  0.4781 -0.8039
 1882TIP3   OH227204   5.555   0.721   1.941  0.3348 -0.1213 -0.0326
 1882TIP3    H127205   5.636   0.765   1.967  0.0329  0.8119 -0.6027
 1882TIP3    H227206   5.488   0.790   1.948 -0.1282 -0.4595 -1.0647
 1883TIP3   OH227207   2.694   4.571   0.921 -0.0779  0.0495 -0.0757
 1883TIP3    H127208   2.730   4.489   0.955 -0.7491  0.1369  0.8982
 1883TIP3    H227209   2.620   4.591   0.979 -0.9440  0.4961 -1.2786
 1884TIP3   OH227210   3.825   6.775   1.075  0.7449 -0.4488 -0.1280
 1884TIP3    H127211   3.908   6.821   1.061  1.2823 -1.9812 -2.4988
 1884TIP3    H227212   3.823   6.707   1.008 -2.0967 -0.9789  0.3490
 1885TIP3   OH227213   5.759   3.369   7.947  0.3274 -0.0234  0.0911
 1885TIP3    H127214   5.778   3.462   7.938 -1.1870  0.4025  0.9115
 1885TIP3    H227215   5.735   3.340   7.859  1.3477  0.2140 -0.2761
 1886TIP3   OH227216   2.113   4.865   7.752 -0.4099  0.1009 -0.0633
 1886TIP3    H127217   2.180   4.891   7.689  0.2495 -1.0219  0.1552
 1886TIP3    H227218   2.034   4.853   7.700 -0.3603  1.0557 -0.3788
 1887TIP3   OH227219   0.195   4.158   1.418  0.8233  0.0179 -0.0445
 1887TIP3    H127220   0.156   4.088   1.469 -0.6096  1.3298  0.7518
 1887TIP3    H227221   0.222   4.223   1.483  0.5414  0.9514 -0.8338
 1888TIP3   OH227222   6.935   2.165   2.990 -0.4461 -0.2220  0.5765
 1888TIP3    H127223   6.855   2.215   2.969 -0.6158 -1.2360 -1.4728
 1888TIP3    H227224   6.902   2.085   3.031 -0.6753 -1.3273 -1.6194
 1889TIP3   OH227225   5.649   1.263   7.825  0.1172  0.3677 -0.0335
 1889TIP3    H127226   5.654   1.353   7.856 -2.3891  0.5159  0.0995
 1889TIP3    H227227   5.569   1.259   7.774  2.2179 -0.8254 -3.5562
 1890TIP3   OH227228   1.302   6.166   2.698 -0.1310  0.7210 -0.0586
 1890TIP3    H127229   1.270   6.230   2.761 -1.4233 -0.8830  0.9950
 1890TIP3    H227230   1.397   6.168   2.707 -0.0105  3.3823 -1.0298
 1891TIP3   OH227231   5.578   0.907   7.285 -0.3348  0.0657  0.5942
 1891TIP3    H127232   5.630   0.941   7.212  0.1888  0.2448  1.0429
 1891TIP3    H227233   5.570   0.813   7.268 -0.8129  0.2177 -0.0543
 1892TIP3   OH227234   3.272   5.175   0.476 -0.0464 -0.2206 -0.0848
 1892TIP3    H127235   3.272   5.080   0.487 -0.6097 -0.0847  1.3077
 1892TIP3    H227236   3.185   5.203   0.503 -0.2833  0.6034 -1.6005
 1893TIP3   OH227237   0.212   2.289   0.529  0.3261 -0.4529 -0.0261
 1893TIP3    H127238   0.307   2.292   0.516  0.4069 -1.0650  0.4237
 1893TIP3    H227239   0.201   2.282   0.623 -0.1120 -2.5041 -0.1960
 1894TIP3   OH227240   0.602   1.840   2.672 -0.1499  0.0572 -0.4725
 1894TIP3    H127241   0.549   1.805   2.601 -1.8643 -1.0517  1.2519
 1894TIP3    H227242   0.540   1.859   2.742  1.4455  1.2008  0.7190
 1895TIP3   OH227243   6.223   6.137   8.415 -0.2340 -0.5182 -0.1524
 1895TIP3    H127244   6.220   6.188   8.496  2.1846 -0.5633  0.0470
 1895TIP3    H227245   6.147   6.167   8.365 -0.2749  1.4874  1.0101
 1896TIP3   OH227246   2.848   5.509   2.778  0.6390  0.3209  0.3588
 1896TIP3    H127247   2.944   5.506   2.774  0.6753  0.2356  1.2027
 1896TIP3    H227248   2.828   5.535   2.868 -0.1290  0.8359  0.0469
 1897TIP3   OH227249   2.094   1.178   0.716 -0.4729 -0.2173  0.3436
 1897TIP3    H127250   2.150   1.104   0.693 -1.1449 -0.4896 -0.4318
 1897TIP3    H227251   2.104   1.186   0.811 -1.0883 -1.8875  0.5849
 1898TIP3   OH227252   0.642   3.451   0.807  0.0866  0.1421  0.4314
 1898TIP3    H127253   0.628   3.371   0.857 -0.1797 -0.9204 -1.2429
 1898TIP3    H227254   0.579   3.446   0.735 -0.1564  2.0279  0.4481
 1899TIP3   OH227255   5.943   1.517   7.604  0.5232  0.0564  0.5696
 1899TIP3    H127256   5.875   1.563   7.554 -1.0927 -0.2499  2.3498
 1899TIP3    H227257   6.024   1.533   7.556 -0.8278  0.2495 -1.7856
 1900TIP3   OH227258   6.753   0.155   2.071  0.2663  0.3818 -0.0267
 1900TIP3    H127259   6.721   0.119   1.988  0.7842 -0.4509  0.1183
 1900TIP3    H227260   6.701   0.234   2.085 -0.0698  0.3409 -0.9696
 1901TIP3   OH227261   5.686   6.333   1.593 -0.3537 -0.0387 -0.1624
 1901TIP3    H127262   5.632   6.404   1.557  0.5659  0.5592 -0.3960
 1901TIP3    H227263   5.756   6.378   1.639 -1.1582 -0.7959  1.8946
 1902TIP3   OH227264   1.217   3.891   2.308 -0.2884 -0.3598  0.2477
 1902TIP3    H127265   1.123   3.885   2.323 -0.2728 -2.5514 -0.2714
 1902TIP3    H227266   1.228   3.974   2.261 -1.8750  0.1428  0.6934
 1903TIP3   OH227267   3.486   2.307   0.640  0.3067  0.4193 -0.1834
 1903TIP3    H127268   3.550   2.269   0.700 -0.7646  0.5857  1.1063
 1903TIP3    H227269   3.515   2.280   0.553  1.5187 -0.3944  0.4549
 1904TIP3   OH227270   3.246   6.223   7.490  1.5533 -0.2630  0.0777
 1904TIP3    H127271   3.203   6.162   7.430  2.8971 -1.2120  0.0296
 1904TIP3    H227272   3.235   6.309   7.449 -1.4502 -0.2161  0.7510
 1905TIP3   OH227273   0.607   0.886   0.555  0.1968 -0.5204  0.2550
 1905TIP3    H127274   0.686   0.832   0.549  0.2446 -0.3059 -1.4575
 1905TIP3    H227275   0.537   0.829   0.523 -0.1530 -0.3356  0.6848
 1906TIP3   OH227276   0.490   2.740   1.130  0.3959 -0.4719 -1.0145
 1906TIP3    H127277   0.432   2.705   1.198  1.6794 -0.0718  0.3331
 1906TIP3    H227278   0.449   2.822   1.104  2.4861  2.2667  3.2462
 1907TIP3   OH227279   4.727   1.682   2.942  0.0141  0.3802 -0.1099
 1907TIP3    H127280   4.653   1.645   2.894  0.9371  0.1022 -1.3457
 1907TIP3    H227281   4.727   1.635   3.025  0.4085 -1.5549 -1.1574
 1908TIP3   OH227282   4.395   3.281   1.964  0.2146 -0.5534 -0.0164
 1908TIP3    H127283   4.464   3.233   1.918 -0.4241 -1.0835 -0.4480
 1908TIP3    H227284   4.314   3.246   1.927 -0.2816  1.5747 -1.0762
 1909TIP3   OH227285   3.893   3.188   0.951 -0.2550 -0.2985  0.3241
 1909TIP3    H127286   3.855   3.152   1.031 -0.4869 -0.9422 -0.0721
 1909TIP3    H227287   3.939   3.267   0.980 -1.1355  0.0042  0.9503
 1910TIP3   OH227288   6.664   4.313   7.862 -0.0938 -0.1097  0.0306
 1910TIP3    H127289   6.620   4.298   7.945  1.9029  0.2133  1.2145
 1910TIP3    H227290   6.731   4.379   7.882 -0.0140  0.4988 -1.9955
 1911TIP3   OH227291   3.108   4.084   8.124 -0.0090  0.0293  0.5549
 1911TIP3    H127292   3.120   4.175   8.096  0.7704 -0.4888 -0.9363
 1911TIP3    H227293   3.020   4.062   8.096  0.1416  0.0520  0.0458
 1912TIP3   OH227294   1.267   4.879   2.020 -0.2107  0.2796  0.4688
 1912TIP3    H127295   1.229   4.880   2.108 -0.1316  0.7058  0.4988
 1912TIP3    H227296   1.298   4.968   2.006 -0.3917  0.2612 -0.0670
 1913TIP3   OH227297   6.427   5.193   7.523  0.3231 -0.7110  0.1925
 1913TIP3    H127298   6.441   5.131   7.451  1.7625 -2.6801  2.0770
 1913TIP3    H227299   6.509   5.241   7.529  0.9728 -1.9329  1.7161
 1914TIP3   OH227300   0.215   1.855   2.644  0.8691 -0.3609  0.4195
 1914TIP3    H127301   0.136   1.907   2.655  0.7753 -0.5922  0.8480
 1914TIP3    H227302   0.285   1.909   2.682  0.8218 -0.4173  0.5851
 1915TIP3   OH227303   4.056   3.445   1.461  0.4563 -0.7310 -0.1605
 1915TIP3    H127304   4.131   3.386   1.471  1.9312  1.1693  0.4802
 1915TIP3    H227305   4.089   3.518   1.409  0.2356  1.9367  3.0852
 1916TIP3   OH227306   6.178   0.505   0.289  0.2603 -0.6082  0.2304
 1916TIP3    H127307   6.185   0.479   0.197  1.3014 -0.0799  0.1425
 1916TIP3    H227308   6.258   0.553   0.306  0.1500 -0.8353  1.4729
 1917TIP3   OH227309   2.013   4.119   1.298  0.0318  0.1015 -0.3415
 1917TIP3    H127310   2.040   4.165   1.218  0.2449 -0.3620 -0.5354
 1917TIP3    H227311   1.918   4.135   1.304  0.4594  2.8456  1.0400
 1918TIP3   OH227312   3.684   6.410   1.968  0.0060 -0.0095  0.4206
 1918TIP3    H127313   3.741   6.486   1.983 -0.8508  1.2431 -2.1273
 1918TIP3    H227314   3.702   6.384   1.878 -1.5737 -1.2646  0.4266
 1919TIP3   OH227315   6.702   5.484   2.109 -0.1968 -0.0657  0.2005
 1919TIP3    H127316   6.608   5.470   2.113 -0.0105 -1.3498  0.5440
 1919TIP3    H227317   6.725   5.468   2.018 -0.3901  0.8577 -0.0162
 1920TIP3   OH227318   6.335   1.270   8.147  0.0862  0.0223 -0.2606
 1920TIP3    H127319   6.424   1.250   8.175  1.1084  1.6631 -2.0495
 1920TIP3    H227320   6.325   1.364   8.163 -1.6239 -0.2452  0.5561
 1921TIP3   OH227321   5.160   2.135   8.142 -0.3661 -0.2430 -0.2166
 1921TIP3    H127322   5.113   2.169   8.066  0.8690  1.0927 -0.4106
 1921TIP3    H227323   5.250   2.127   8.114  0.1976  0.6506  1.2066
 1922TIP3   OH227324   6.565   6.921   3.261  0.5303 -0.2398 -0.1165
 1922TIP3    H127325   6.499   6.925   3.330  1.7276  0.6933  1.0261
 1922TIP3    H227326   6.590   6.829   3.257  1.0440 -0.1739  1.2955
 1923TIP3   OH227327   0.593   0.888   1.937  0.3161  0.5880 -0.0889
 1923TIP3    H127328   0.651   0.890   2.013  1.6469  2.3719 -1.1015
 1923TIP3    H227329   0.600   0.975   1.898 -1.5757  0.2371 -1.3667
 1924TIP3   OH227330   0.230   4.931   8.355  0.4408  0.1000  0.0210
 1924TIP3    H127331   0.194   4.941   8.443 -0.2263 -0.8428 -0.1209
 1924TIP3    H227332   0.251   5.020   8.326  0.6675  0.4141  1.1286
 1925TIP3   OH227333   4.623   3.464   2.070  0.0309  0.8822  0.0261
 1925TIP3    H127334   4.711   3.427   2.074 -0.7092 -0.9621  0.2321
 1925TIP3    H227335   4.636   3.558   2.079  1.8023  0.4928  2.3395
 1926TIP3   OH227336   2.224   6.092   0.124  0.6072 -0.4431  0.7810
 1926TIP3    H127337   2.229   6.185   0.101 -0.1791 -0.2792  1.2239
 1926TIP3    H227338   2.141   6.084   0.171  1.1312 -1.1895  1.6106
 1927TIP3   OH227339   6.953   0.646   1.657  0.4315  0.5203 -0.6171
 1927TIP3    H127340   6.860   0.669   1.650 -0.3675 -2.2507 -0.4235
 1927TIP3    H227341   6.977   0.671   1.746 -1.5737 -2.9151  1.0954
 1928TIP3   OH227342   1.891   5.775   2.180  0.3211  0.1257  0.1084
 1928TIP3    H127343   1.972   5.725   2.178  0.6607  0.4439  2.3737
 1928TIP3    H227344   1.915   5.857   2.223 -0.9596  0.7449 -0.3057
 1929TIP3   OH227345   2.964   1.006   0.924  0.0538  1.0148  0.9556
 1929TIP3    H127346   3.037   0.998   0.986 -0.8048  2.3293  2.1608
 1929TIP3    H227347   2.889   1.032   0.977 -1.3670 -0.4316 -0.2474
 1930TIP3   OH227348   5.298   3.870   2.194 -0.1765 -0.5819  0.2925
 1930TIP3    H127349   5.306   3.878   2.289  1.8045 -0.2100  0.1356
 1930TIP3    H227350   5.350   3.792   2.172 -1.1892 -1.0795 -0.4426
 1931TIP3   OH227351   0.128   3.578   0.550 -0.8495 -0.1958 -0.4134
 1931TIP3    H127352   0.056   3.613   0.497 -0.4513  1.8202  0.2747
 1931TIP3    H227353   0.104   3.602   0.640 -0.0474 -0.8612 -0.0164
 1932TIP3   OH227354   3.790   3.445   1.898  1.0677  0.6442  0.0884
 1932TIP3    H127355   3.837   3.437   1.980  0.2371  2.0629  0.7427
 1932TIP3    H227356   3.848   3.495   1.841  2.5632 -2.1430 -0.9995
 1933TIP3   OH227357   6.232   3.372   1.664 -0.0502  0.1211  0.3800
 1933TIP3    H127358   6.235   3.409   1.752 -2.5468 -1.1035  1.0780
 1933TIP3    H227359   6.295   3.300   1.666 -0.3291 -0.1193  1.3225
 1934TIP3   OH227360   3.131   4.647   2.019  0.1486  0.8224  0.6362
 1934TIP3    H127361   3.185   4.720   1.989  0.2248  0.4698 -0.1104
 1934TIP3    H227362   3.047   4.660   1.975  0.3048  0.2228  0.1502
 1935TIP3   OH227363   5.985   4.678   0.529 -0.2239 -0.4341 -0.0247
 1935TIP3    H127364   5.960   4.644   0.442 -0.6053  0.5494 -0.3098
 1935TIP3    H227365   5.920   4.640   0.588 -0.7762 -0.0530 -0.3734
 1936TIP3   OH227366   4.930   2.524   1.020  0.1728  0.4140 -0.2983
 1936TIP3    H127367   4.897   2.438   0.994  0.2582  0.4961 -0.6850
 1936TIP3    H227368   4.932   2.574   0.939 -3.5564  2.0683  0.4168
 1937TIP3   OH227369   5.300   5.164   0.342 -0.2672  0.7276 -0.1544
 1937TIP3    H127370   5.218   5.198   0.305  0.2783  2.7886  0.3978
 1937TIP3    H227371   5.299   5.194   0.433 -0.1626 -1.6317  0.6921
 1938TIP3   OH227372   1.206   1.922   8.273 -0.0534 -0.2956 -0.3091
 1938TIP3    H127373   1.258   1.857   8.225  1.3005  0.6721 -0.2175
 1938TIP3    H227374   1.117   1.888   8.270  0.6509 -2.3477  0.0369
 1939TIP3   OH227375   2.617   6.672   7.956  0.0613  0.5986 -0.1169
 1939TIP3    H127376   2.662   6.746   7.997 -0.4733  0.8402  0.0405
 1939TIP3    H227377   2.659   6.664   7.870  0.9954  0.2640  0.3601
 1940TIP3   OH227378   2.193   3.202   1.370  0.6105  0.7090 -0.1351
 1940TIP3    H127379   2.161   3.158   1.448 -0.2881  1.0873 -0.2829
 1940TIP3    H227380   2.267   3.149   1.340 -0.5525 -0.7894 -0.4118
 1941TIP3   OH227381   4.111   1.780   7.973 -0.3702 -0.7582 -0.4713
 1941TIP3    H127382   4.143   1.867   7.995 -1.3917 -0.1596 -1.2386
 1941TIP3    H227383   4.129   1.771   7.879 -1.7191 -0.6824 -0.7718
 1942TIP3   OH227384   4.178   5.655   1.722 -0.0716  0.5540 -0.3429
 1942TIP3    H127385   4.155   5.716   1.792  0.8810  1.6287 -0.9317
 1942TIP3    H227386   4.220   5.710   1.656 -0.3605 -0.5431 -1.4723
 1943TIP3   OH227387   6.445   5.156   3.267 -0.7734  0.0023 -0.3079
 1943TIP3    H127388   6.459   5.101   3.190  1.2191 -0.0836  0.0609
 1943TIP3    H227389   6.350   5.158   3.278 -1.1545  0.2661 -2.9278
 1944TIP3   OH227390   6.943   5.071   1.974 -0.9059 -0.0693 -0.4229
 1944TIP3    H127391   6.869   5.020   2.006 -0.6503 -1.3849 -1.8063
 1944TIP3    H227392   6.945   5.148   2.030 -3.2623 -0.0340 -0.2994
 1945TIP3   OH227393   6.701   6.165   2.369 -0.1284 -0.0607 -0.1041
 1945TIP3    H127394   6.626   6.113   2.395 -0.2703  1.1665  2.2241
 1945TIP3    H227395   6.768   6.101   2.344 -1.3488 -1.2133 -0.4984
 1946TIP3   OH227396   2.847   5.596   0.637 -0.1004  0.5389 -0.6334
 1946TIP3    H127397   2.761   5.606   0.679  0.8081  2.8333  0.8168
 1946TIP3    H227398   2.836   5.639   0.551  0.2636  3.4108  0.6405
 1947TIP3   OH227399   1.345   1.520   8.395  0.1235  0.0774 -0.2931
 1947TIP3    H127400   1.317   1.596   8.446 -3.4039 -0.1633 -1.6187
 1947TIP3    H227401   1.359   1.555   8.307  0.1390 -0.5376 -0.5371
 1948TIP3   OH227402   3.934   5.092   0.522  0.4210 -0.1546  0.3467
 1948TIP3    H127403   4.028   5.073   0.524  1.1404  2.7859 -0.7596
 1948TIP3    H227404   3.909   5.077   0.431 -0.0260 -0.1358  0.4638
 1949TIP3   OH227405   6.083   2.527   8.416  0.2947  0.2732  0.4679
 1949TIP3    H127406   6.119   2.472   8.485  0.2080  0.5833  0.7633
 1949TIP3    H227407   6.122   2.494   8.336 -0.8524 -1.1677  0.4591
 1950TIP3   OH227408   3.283   2.143   8.153  0.0473 -0.0133 -0.1029
 1950TIP3    H127409   3.255   2.205   8.220  0.7778  0.7679 -0.4996
 1950TIP3    H227410   3.270   2.190   8.070  0.6523 -0.3657 -0.4028
 1951TIP3   OH227411   0.048   4.838   1.244 -0.2801 -0.4994  0.0487
 1951TIP3    H127412   0.100   4.917   1.238  0.5583 -1.0889 -0.7725
 1951TIP3    H227413  -0.025   4.861   1.302  1.5351 -0.0392  2.2548
 1952TIP3   OH227414   2.446   6.293   1.520 -0.4134  0.1027  0.6928
 1952TIP3    H127415   2.376   6.270   1.458  0.2754  2.6945 -1.1792
 1952TIP3    H227416   2.497   6.212   1.530 -1.1312 -0.6498 -1.3498
 1953TIP3   OH227417   5.123   4.008   7.459 -0.5695 -0.7493  0.5344
 1953TIP3    H127418   5.089   4.075   7.399  0.3231  0.2832  1.1243
 1953TIP3    H227419   5.193   3.965   7.410 -1.5121 -1.6511 -0.0441
 1954TIP3   OH227420   2.879   4.707   3.023 -0.4683  0.1462 -0.6567
 1954TIP3    H127421   2.820   4.767   3.069  1.2785  2.0829 -0.7449
 1954TIP3    H227422   2.862   4.723   2.930  0.1364  0.6982 -0.6822
 1955TIP3   OH227423   3.835   5.167   2.079  0.1242  0.0856 -0.4210
 1955TIP3    H127424   3.897   5.111   2.032 -0.0105  0.4265 -1.0199
 1955TIP3    H227425   3.786   5.211   2.009 -0.1362  0.5394  0.0460
 1956TIP3   OH227426   3.132   6.823   2.335 -0.0228  0.2083 -0.9050
 1956TIP3    H127427   3.134   6.886   2.263  2.1685 -0.6523 -1.6701
 1956TIP3    H227428   3.184   6.863   2.404 -0.3280  0.0953 -0.6051
 1957TIP3   OH227429   5.172   2.613   1.176 -0.8962  0.2228  0.0112
 1957TIP3    H127430   5.095   2.599   1.121 -1.5979  2.3483  0.3568
 1957TIP3    H227431   5.211   2.694   1.142  1.8290 -1.3170 -0.8154
 1958TIP3   OH227432   6.540   6.487   1.268  0.0685 -0.1705  0.8291
 1958TIP3    H127433   6.459   6.521   1.230  0.6996 -1.5578 -2.0681
 1958TIP3    H227434   6.524   6.483   1.362 -2.4722  1.4363  0.5503
 1959TIP3   OH227435   0.039   1.801   7.686  0.1658 -0.3590  0.7111
 1959TIP3    H127436   0.097   1.841   7.751  0.2613 -0.0435  0.4340
 1959TIP3    H227437   0.052   1.707   7.697 -0.0405 -0.3188  1.3513
 1960TIP3   OH227438   1.231   4.053   0.947  0.0586 -0.3611  0.5598
 1960TIP3    H127439   1.309   4.036   0.896 -0.7055 -1.4535 -0.2851
 1960TIP3    H227440   1.260   4.049   1.038  0.8360 -1.5559  0.2745
 1961TIP3   OH227441   4.917   2.703   2.545  0.5421  0.2030 -0.2215
 1961TIP3    H127442   5.005   2.673   2.524  0.5152  0.9199 -1.4673
 1961TIP3    H227443   4.863   2.675   2.471 -0.4369 -0.7924  0.8099
 1962TIP3   OH227444   4.231   2.598   2.807 -0.3418 -0.4152  0.1375
 1962TIP3    H127445   4.184   2.514   2.808 -0.2810 -0.4502 -0.1157
 1962TIP3    H227446   4.313   2.580   2.852 -1.0134 -0.0993  1.5596
 1963TIP3   OH227447   6.346   5.186   7.937  0.0705 -0.0076  0.3429
 1963TIP3    H127448   6.336   5.092   7.953  1.9140 -0.1287  1.0011
 1963TIP3    H227449   6.286   5.227   7.999  0.7766 -0.7251  1.5515
 1964TIP3   OH227450   5.286   6.842   1.786 -0.2012 -0.0581  0.1282
 1964TIP3    H127451   5.359   6.854   1.848 -0.4868  0.7995  0.3129
 1964TIP3    H227452   5.293   6.917   1.726  0.9187 -1.6119 -1.7817
 1965TIP3   OH227453   2.424   3.389   1.310 -0.7339 -0.0239 -0.1692
 1965TIP3    H127454   2.425   3.369   1.404 -0.0657  1.7523  0.2510
 1965TIP3    H227455   2.332   3.393   1.286 -0.9372  0.4418  0.6581
 1966TIP3   OH227456   3.206   4.914   1.716  0.4030 -0.0621 -0.3431
 1966TIP3    H127457   3.208   4.837   1.659 -0.5551 -0.7858  0.5654
 1966TIP3    H227458   3.113   4.935   1.726  0.5084 -0.1978  1.2338
 1967TIP3   OH227459   0.955   3.445   0.692 -0.0227  0.2940  0.8611
 1967TIP3    H127460   0.908   3.484   0.766 -0.7610  0.8408  0.1323
 1967TIP3    H227461   0.886   3.423   0.629  0.6622  0.8267 -0.1139
 1968TIP3   OH227462   3.179   4.805   0.751  0.3317  0.5636  0.1685
 1968TIP3    H127463   3.174   4.736   0.685  3.6656 -1.1241  1.4118
 1968TIP3    H227464   3.108   4.786   0.812  0.2947 -0.9208 -0.3036
 1969TIP3   OH227465   4.970   3.811   0.162  0.0578  0.1161  0.6664
 1969TIP3    H127466   4.958   3.719   0.188  0.1617  0.3230  1.4791
 1969TIP3    H227467   4.954   3.811   0.068  2.1524 -1.1230  0.2451
 1970TIP3   OH227468   1.545   5.719   7.270 -0.3558 -0.6672 -0.3097
 1970TIP3    H127469   1.582   5.722   7.182 -0.0650 -1.8067 -0.2528
 1970TIP3    H227470   1.617   5.691   7.326 -0.1998  1.2506  0.5216
 1971TIP3   OH227471   0.895   4.306   3.001 -0.0331  0.2395  0.7710
 1971TIP3    H127472   0.915   4.313   3.095 -0.6259 -0.1483  0.9273
 1971TIP3    H227473   0.900   4.396   2.969 -1.3646  0.5966  1.4903
 1972TIP3   OH227474   3.609   2.460   3.217 -0.4195  0.2903 -0.1119
 1972TIP3    H127475   3.545   2.499   3.157 -0.2805  0.1646 -0.3448
 1972TIP3    H227476   3.694   2.493   3.186 -0.3239  0.0124 -0.1509
 1973TIP3   OH227477   6.911   5.999   3.259  0.1060 -0.2409  0.0166
 1973TIP3    H127478   6.833   5.949   3.284 -0.6244  0.5462 -0.6473
 1973TIP3    H227479   6.900   6.084   3.302 -0.6201  0.7337 -1.9735
 1974TIP3   OH227480   0.473   0.589   2.467 -0.0794  0.5289  0.3438
 1974TIP3    H127481   0.377   0.596   2.461  0.0187  1.0227 -1.0165
 1974TIP3    H227482   0.490   0.569   2.559 -1.6532 -2.4961  0.1017
 1975TIP3   OH227483   1.475   6.609   1.677 -0.1653  0.5016 -0.0653
 1975TIP3    H127484   1.449   6.683   1.623  2.1827  2.4454  1.2405
 1975TIP3    H227485   1.537   6.560   1.623 -1.0048 -0.0098 -0.5893
 1976TIP3   OH227486   4.795   4.782   0.084  0.0434  0.0378 -0.0307
 1976TIP3    H127487   4.809   4.849   0.017 -0.5437 -0.7784 -0.9993
 1976TIP3    H227488   4.701   4.765   0.081  0.3366 -1.6631 -0.6411
 1977TIP3   OH227489   2.211   0.872   2.197 -0.0118 -0.6577  0.7665
 1977TIP3    H127490   2.203   0.802   2.261 -0.7330  1.1082  2.7107
 1977TIP3    H227491   2.291   0.919   2.221 -0.9335  0.7639  1.2232
 1978TIP3   OH227492   5.656   1.604   1.854  0.2513 -0.1554 -0.5780
 1978TIP3    H127493   5.735   1.655   1.871 -0.0443 -0.2560  1.1975
 1978TIP3    H227494   5.678   1.553   1.776  2.0384 -0.3613  0.0089
 1979TIP3   OH227495   5.805   1.267   0.024  0.2343  0.9028  0.1811
 1979TIP3    H127496   5.872   1.234   0.084  1.2071  1.0260 -0.8079
 1979TIP3    H227497   5.727   1.218   0.047  1.3635 -1.3733 -0.5124
 1980TIP3   OH227498   4.479   6.217   7.500  0.3591  0.5576  0.2022
 1980TIP3    H127499   4.451   6.262   7.420 -1.2590  1.2151  1.0918
 1980TIP3    H227500   4.487   6.125   7.474 -0.3670  0.7222 -0.6715
 1981TIP3   OH227501   5.805   5.068   1.563  0.0878  0.4473  0.3360
 1981TIP3    H127502   5.875   5.004   1.550  0.0913 -0.0848  2.4896
 1981TIP3    H227503   5.845   5.152   1.543  0.7470 -0.0349 -0.4057
 1982TIP3   OH227504   5.386   4.931   0.644 -0.2029  0.2927  0.5113
 1982TIP3    H127505   5.434   5.009   0.615 -2.5870  1.7483  0.2508
 1982TIP3    H227506   5.411   4.920   0.736  1.5903  0.1766  0.0593
 1983TIP3   OH227507   5.972   0.416   7.665 -0.5358  0.4977 -0.8419
 1983TIP3    H127508   5.957   0.409   7.571 -1.6440  0.7943 -0.7074
 1983TIP3    H227509   6.060   0.383   7.678 -0.7892 -0.6489 -1.8339
 1984TIP3   OH227510   2.677   4.329   2.299 -0.4028  0.1580 -0.0916
 1984TIP3    H127511   2.618   4.308   2.372 -0.3961  0.3950 -0.0179
 1984TIP3    H227512   2.621   4.331   2.222 -0.4847  0.3524 -0.0264
 1985TIP3   OH227513   3.163   3.838   1.324 -0.0759  0.0381 -0.4263
 1985TIP3    H127514   3.106   3.851   1.400  0.2241 -1.0653  0.0161
 1985TIP3    H227515   3.109   3.791   1.261  0.3085 -1.0093 -0.0068
 1986TIP3   OH227516   2.384   0.367   7.504  0.5946  0.0317 -0.2837
 1986TIP3    H127517   2.456   0.348   7.444 -0.7688 -1.3331 -1.5619
 1986TIP3    H227518   2.328   0.290   7.500 -0.4792  0.6624  1.3967
 1987TIP3   OH227519   2.560   6.575   2.780 -0.2977  0.8282 -0.9015
 1987TIP3    H127520   2.479   6.534   2.749  0.3929 -0.1062 -1.5376
 1987TIP3    H227521   2.605   6.604   2.701  2.1168 -2.7568 -1.1160
 1988TIP3   OH227522   1.789   1.101   8.172  0.3572  0.1088  0.2208
 1988TIP3    H127523   1.755   1.186   8.202 -0.5460 -0.0685 -0.2524
 1988TIP3    H227524   1.777   1.044   8.247  0.0776  0.1756  0.2298
 1989TIP3   OH227525   4.485   6.116   0.004  0.7934 -0.1771 -0.3875
 1989TIP3    H127526   4.554   6.053   0.023  0.2765 -0.8751 -0.7846
 1989TIP3    H227527   4.462   6.101  -0.088 -1.7962 -1.9107  0.4201
 1990TIP3   OH227528   1.193   4.480   1.664 -0.6231 -0.0898  0.4587
 1990TIP3    H127529   1.107   4.516   1.686  0.0596  1.4637  0.6822
 1990TIP3    H227530   1.193   4.475   1.569 -0.2434  1.8411  0.3264
 1991TIP3   OH227531   5.486   1.130   7.457  0.0265 -0.2547 -0.2258
 1991TIP3    H127532   5.497   1.053   7.401 -1.2985  0.6486 -1.8359
 1991TIP3    H227533   5.529   1.201   7.408 -0.0797  0.3245  0.5060
 1992TIP3   OH227534   6.133   5.805   1.563 -0.1591 -0.8972 -0.1281
 1992TIP3    H127535   6.190   5.794   1.487 -0.3491  2.3908 -0.8969
 1992TIP3    H227536   6.045   5.806   1.526 -0.1821  4.1204 -0.7010
 1993TIP3   OH227537   2.181   2.700   1.555 -0.5492  0.1652 -0.8673
 1993TIP3    H127538   2.142   2.612   1.560 -1.2318  0.5288  0.7313
 1993TIP3    H227539   2.108   2.760   1.570  0.4334  0.8871  1.5139
 1994TIP3   OH227540   3.919   6.303   2.140  0.3716 -0.3798 -0.0425
 1994TIP3    H127541   3.928   6.209   2.123  1.4862 -0.3375  0.2650
 1994TIP3    H227542   3.826   6.314   2.161  0.5508 -1.7533  1.7552
 1995TIP3   OH227543   3.235   1.658   7.014  0.1661 -0.1173 -0.0380
 1995TIP3    H127544   3.172   1.587   7.027  0.9427 -0.6919  0.7606
 1995TIP3    H227545   3.252   1.658   6.920 -0.8935 -0.0614 -0.2387
 1996TIP3   OH227546   2.991   5.109   1.481  0.3052  0.4805 -0.1250
 1996TIP3    H127547   2.993   5.131   1.388  0.0884 -0.6527 -0.4062
 1996TIP3    H227548   2.901   5.079   1.496 -0.0797  1.9432  0.7734
 1997TIP3   OH227549   2.496   2.597   0.384  0.0938  0.5873 -0.4389
 1997TIP3    H127550   2.544   2.645   0.316  0.3970 -1.7557 -1.9943
 1997TIP3    H227551   2.555   2.595   0.459  0.5648  1.5624 -0.7761
 1998TIP3   OH227552   3.809   2.284   1.412  0.4383 -0.2455  0.8108
 1998TIP3    H127553   3.792   2.252   1.501 -1.3075 -1.0521  0.2459
 1998TIP3    H227554   3.793   2.207   1.357  0.7196  0.4495 -0.2526
 1999TIP3   OH227555   3.283   3.210   1.741  0.5693 -0.1500  0.1712
 1999TIP3    H127556   3.356   3.149   1.735 -0.4174 -1.3661  0.0826
 1999TIP3    H227557   3.299   3.258   1.823  1.3817 -0.4966  0.2288
 2000TIP3   OH227558   3.369   4.254   0.535 -0.2275 -0.4537  0.4444
 2000TIP3    H127559   3.280   4.289   0.535  0.4134  1.3912  2.4644
 2000TIP3    H227560   3.358   4.160   0.546 -1.9167 -0.2197  1.0757
 2001TIP3   OH227561   0.598   1.690   1.706 -0.0534  0.4131 -0.2410
 2001TIP3    H127562   0.641   1.765   1.666  0.0959  1.0556  1.0699
 2001TIP3    H227563   0.658   1.617   1.692  1.1829  1.1529  0.9594
 2002TIP3   OH227564   0.897   3.466   3.224 -0.4861 -0.1444 -0.0021
 2002TIP3    H127565   0.883   3.472   3.130 -0.7126 -0.1728  0.0296
 2002TIP3    H227566   0.930   3.553   3.248 -2.0942  0.4520  0.1678
 2003TIP3   OH227567   3.787   5.369   0.335 -0.0822 -0.1136 -0.2031
 2003TIP3    H127568   3.715   5.426   0.309  0.0667 -0.2550 -0.9442
 2003TIP3    H227569   3.747   5.283   0.349  0.0722 -0.4291 -1.5548
 2004TIP3   OH227570   0.537   1.322   1.928  0.4006  0.2717  0.2699
 2004TIP3    H127571   0.469   1.265   1.962 -0.6949  0.0702 -2.0720
 2004TIP3    H227572   0.493   1.379   1.865  2.4436 -0.3185 -1.8655
 2005TIP3   OH227573   1.944   2.091   0.117 -0.2883 -0.3528  0.0997
 2005TIP3    H127574   1.952   2.184   0.138 -0.5020  0.3351 -2.6078
 2005TIP3    H227575   2.020   2.051   0.159 -0.8496  0.7851  2.3538
 2006TIP3   OH227576   4.440   0.833   3.399 -0.6575  0.6975  0.1422
 2006TIP3    H127577   4.505   0.899   3.375 -1.1370  1.0242 -0.2597
 2006TIP3    H227578   4.489   0.750   3.398  0.2097  1.1485  1.6918
 2007TIP3   OH227579   3.498   0.528   7.164 -0.2109 -0.3717 -0.2899
 2007TIP3    H127580   3.463   0.529   7.075  0.4823 -1.0082 -0.5792
 2007TIP3    H227581   3.448   0.459   7.208 -0.1093 -0.4991 -0.3743
 2008TIP3   OH227582   6.188   1.027   2.053  0.4634 -0.0907  0.4220
 2008TIP3    H127583   6.151   1.106   2.015  1.6301  0.4697  0.4251
 2008TIP3    H227584   6.158   0.956   1.996  2.1605  0.7284 -1.5683
 2009TIP3   OH227585   1.601   1.809   1.708 -0.0843 -0.2483 -0.5000
 2009TIP3    H127586   1.607   1.905   1.707 -0.5729 -0.2011  0.2864
 2009TIP3    H227587   1.509   1.790   1.693 -0.5519 -0.4798  2.1116
 2010TIP3   OH227588   6.940   5.427   1.226  0.3736  0.2936  0.4451
 2010TIP3    H127589   7.024   5.424   1.272  0.2604  1.5301  0.7631
 2010TIP3    H227590   6.895   5.504   1.262 -0.2740  0.5170 -0.7782
 2011TIP3   OH227591   4.433   0.850   8.131  0.2124 -0.5773  0.4828
 2011TIP3    H127592   4.489   0.776   8.107 -0.5515 -0.5359 -1.6753
 2011TIP3    H227593   4.490   0.911   8.177  2.0793 -0.4013 -1.8706
 2012TIP3   OH227594   5.088   0.900   7.756  0.0788  0.9222 -0.1777
 2012TIP3    H127595   5.107   0.952   7.834  2.4009  0.6977 -0.5322
 2012TIP3    H227596   5.032   0.956   7.703 -1.0471  1.3075  1.3648
 2013TIP3   OH227597   4.901   6.494   1.763 -0.7676  0.1647 -0.8706
 2013TIP3    H127598   4.986   6.537   1.759 -1.1444  1.0940  0.2894
 2013TIP3    H227599   4.855   6.523   1.685 -0.1250 -0.1164 -1.3563
 2014TIP3   OH227600   3.886   2.626   7.636  0.2016  0.2357  0.0982
 2014TIP3    H127601   3.871   2.703   7.580 -0.7160  0.3378  0.4663
 2014TIP3    H227602   3.893   2.553   7.574  0.6522  0.5538 -0.2326
 2015TIP3   OH227603   6.496   5.045   7.302  0.0650  0.2875 -0.3302
 2015TIP3    H127604   6.566   5.103   7.272  1.9459 -2.0253 -0.7063
 2015TIP3    H227605   6.516   4.960   7.261 -1.6274 -1.0586  1.4621
 2016TIP3   OH227606   4.518   1.751   3.217 -0.7915  0.6755 -0.8799
 2016TIP3    H127607   4.592   1.690   3.219 -0.2874  1.2857 -0.5115
 2016TIP3    H227608   4.495   1.764   3.309  0.1293  2.2382 -0.8335
 2017TIP3   OH227609   3.738   5.243   7.790 -0.0394 -0.3642 -0.6288
 2017TIP3    H127610   3.701   5.306   7.729 -1.9376 -1.5598 -0.7854
 2017TIP3    H227611   3.833   5.252   7.779 -0.2271  2.4703 -0.5737
 2018TIP3   OH227612   0.264   1.651   1.782 -0.1750 -0.5249  0.2472
 2018TIP3    H127613   0.264   1.728   1.726 -1.0824 -0.1662  0.7270
 2018TIP3    H227614   0.174   1.619   1.780 -0.3193 -0.3022  1.7546
 2019TIP3   OH227615   4.960   3.732   6.920 -0.1639  0.1237 -0.3745
 2019TIP3    H127616   5.035   3.777   6.959  1.2607 -0.0948 -2.6702
 2019TIP3    H227617   4.975   3.639   6.938  1.1402 -0.0986 -2.3093
 2020TIP3   OH227618   1.737   1.459   2.067  0.1862 -0.9888 -0.3442
 2020TIP3    H127619   1.749   1.526   2.134  0.7283 -2.5243  1.1900
 2020TIP3    H227620   1.811   1.399   2.080  2.5249  0.4911 -4.7690
 2021TIP3   OH227621   3.022   2.979   2.593 -0.1417  0.4453  0.2637
 2021TIP3    H127622   2.991   2.891   2.572 -1.5755 -0.2576  4.4493
 2021TIP3    H227623   3.117   2.973   2.587 -0.2615 -0.6688 -1.6177
 2022TIP3   OH227624   5.884   0.457   2.154 -0.0976  0.3232  0.3277
 2022TIP3    H127625   5.821   0.445   2.083 -0.8510  0.7383  0.9041
 2022TIP3    H227626   5.955   0.507   2.115 -1.3672  2.2136  0.2835
 2023TIP3   OH227627   2.555   1.498   1.404 -0.0680  0.0554 -0.4715
 2023TIP3    H127628   2.586   1.441   1.334  0.9166  1.8084 -1.5619
 2023TIP3    H227629   2.579   1.586   1.374 -0.8659  0.9731  1.4551
 2024TIP3   OH227630   0.667   1.488   8.072  0.2991  0.2469 -0.1897
 2024TIP3    H127631   0.761   1.506   8.075  0.3307  0.2675 -1.0658
 2024TIP3    H227632   0.638   1.529   7.991 -0.2242 -0.8733 -0.5854
 2025TIP3   OH227633   2.157   2.143   0.486  0.0586  1.0416 -0.0075
 2025TIP3    H127634   2.084   2.199   0.460  0.7310  1.8144 -0.2927
 2025TIP3    H227635   2.163   2.077   0.417  0.5138  1.8316 -0.7480
 2026TIP3   OH227636   6.098   6.163   2.520  0.1472  0.0052 -0.4223
 2026TIP3    H127637   6.162   6.227   2.487 -0.1987 -0.0157 -1.1584
 2026TIP3    H227638   6.088   6.185   2.613 -1.3272  2.2327 -1.0323
 2027TIP3   OH227639   6.374   6.892   1.801  0.1980  0.0612 -0.2419
 2027TIP3    H127640   6.426   6.815   1.823  0.1599 -0.3088 -1.3989
 2027TIP3    H227641   6.416   6.929   1.724  0.4849  1.4837  0.5659
 2028TIP3   OH227642   1.285   0.422   0.625  0.0855  0.1563 -0.1337
 2028TIP3    H127643   1.301   0.445   0.716  0.8567  0.7909 -0.4113
 2028TIP3    H227644   1.190   0.421   0.616 -0.0229 -0.9743  0.9318
 2029TIP3   OH227645   4.279   4.068   2.242 -0.2011 -0.2964  0.5929
 2029TIP3    H127646   4.235   4.148   2.271  0.7437  0.8212 -0.8654
 2029TIP3    H227647   4.228   3.997   2.279 -2.6449  0.9385 -0.1802
 2030TIP3   OH227648   6.781   4.350   0.043 -0.9227  0.2788 -0.8332
 2030TIP3    H127649   6.787   4.263   0.081 -0.3759  0.9909  0.7839
 2030TIP3    H227650   6.872   4.375   0.024 -1.1583  0.0747 -2.3356
 2031TIP3   OH227651   2.860   6.642   1.327 -0.4464 -0.1605  0.5825
 2031TIP3    H127652   2.906   6.726   1.329 -0.8623  0.1068 -0.3973
 2031TIP3    H227653   2.771   6.664   1.299 -0.0513 -1.1102 -1.6214
 2032TIP3   OH227654   1.313   5.397   3.155  0.1795 -0.2817 -0.3716
 2032TIP3    H127655   1.310   5.385   3.060 -0.1054  2.3601 -0.7578
 2032TIP3    H227656   1.239   5.455   3.175  1.9320  1.6195  1.0291
 2033TIP3   OH227657   3.320   6.651   8.417 -0.0626 -0.2514 -0.2200
 2033TIP3    H127658   3.403   6.642   8.369 -0.0384 -0.2343 -0.1810
 2033TIP3    H227659   3.277   6.566   8.406 -0.2893 -0.0760 -0.7086
 2034TIP3   OH227660   0.536   3.690   7.963 -0.2116 -0.4326  0.4135
 2034TIP3    H127661   0.528   3.767   7.907 -0.2136 -0.3698  0.5000
 2034TIP3    H227662   0.582   3.721   8.040  0.5818 -0.7167  0.0658
 2035TIP3   OH227663   1.258   6.396   2.429 -0.6413 -0.3050 -0.0651
 2035TIP3    H127664   1.223   6.307   2.422 -0.0469 -0.4746 -1.0489
 2035TIP3    H227665   1.180   6.451   2.438 -1.0246 -0.8971  0.3203
 2036TIP3   OH227666   5.977   5.953   1.034  0.0297 -0.0002  0.4138
 2036TIP3    H127667   6.062   5.998   1.031  0.3307 -0.6032 -0.2039
 2036TIP3    H227668   5.961   5.925   0.944 -0.2992 -0.8652  0.7319
 2037TIP3   OH227669   6.603   2.974   0.356 -0.0579  0.4476  0.8269
 2037TIP3    H127670   6.604   2.909   0.286  0.1814 -0.0562  1.2930
 2037TIP3    H227671   6.519   2.962   0.400 -0.2466  0.8231  0.5743
 2038TIP3   OH227672   1.828   4.933   0.597  0.3018  0.0079  0.2160
 2038TIP3    H127673   1.898   4.874   0.623 -0.4353 -1.7559 -1.5158
 2038TIP3    H227674   1.822   4.997   0.668  3.0666 -0.2609  0.7943
 2039TIP3   OH227675   5.920   4.214   2.189 -0.6829 -0.4780  0.4406
 2039TIP3    H127676   5.853   4.147   2.179 -0.9511 -0.3732  1.4112
 2039TIP3    H227677   5.925   4.228   2.284  0.4115 -0.1851  0.3507
 2040TIP3   OH227678   4.508   3.106   3.263  0.0685  0.4265 -0.0272
 2040TIP3    H127679   4.603   3.106   3.252  0.1630 -2.1805  0.0440
 2040TIP3    H227680   4.486   3.013   3.275 -2.5762  0.8689 -0.8645
 2041TIP3   OH227681   2.254   1.169   8.023 -0.0879 -0.2894  0.3199
 2041TIP3    H127682   2.316   1.236   8.051 -0.5032  0.2124  0.0656
 2041TIP3    H227683   2.306   1.106   7.974 -0.0193  0.9690 -1.3092
 2042TIP3   OH227684   5.549   3.663   0.345 -0.0291 -0.1588 -0.4290
 2042TIP3    H127685   5.605   3.705   0.411  0.6379 -0.0312 -1.0601
 2042TIP3    H227686   5.518   3.736   0.291 -0.1185 -0.3207 -0.5950
 2043TIP3   OH227687   4.093   3.297   3.006  0.1468 -0.1677  0.0742
 2043TIP3    H127688   4.072   3.333   3.092 -1.6115  1.7040 -1.0473
 2043TIP3    H227689   4.014   3.312   2.954  1.6624  0.0979 -2.2905
 2044TIP3   OH227690   1.393   2.546   2.059 -0.1598 -0.6825  0.5187
 2044TIP3    H127691   1.392   2.641   2.067 -0.0389 -0.4954 -1.3395
 2044TIP3    H227692   1.486   2.523   2.056 -0.1913 -0.7684  0.1337
 2045TIP3   OH227693   3.636   5.457   0.992  0.5134  0.2904 -0.6109
 2045TIP3    H127694   3.601   5.469   1.080  0.1361  0.6483 -0.8045
 2045TIP3    H227695   3.666   5.545   0.966  2.6364 -0.2162 -0.0021
 2046TIP3   OH227696   6.802   2.831   0.088  0.3713 -0.3101  0.1357
 2046TIP3    H127697   6.716   2.812   0.127 -0.3253  1.8502 -0.1811
 2046TIP3    H227698   6.842   2.745   0.076 -1.8618 -1.4332  0.0172
 2047TIP3   OH227699   2.533   3.057   2.901  0.1280 -0.0974 -0.9148
 2047TIP3    H127700   2.606   3.040   2.841 -0.2626  0.1632 -1.4679
 2047TIP3    H227701   2.457   3.017   2.859 -0.2629  0.5959 -0.8754
 2048TIP3   OH227702   1.241   0.379   1.377 -0.1289  0.1199  0.1311
 2048TIP3    H127703   1.192   0.460   1.361 -0.6824 -0.1183  0.5815
 2048TIP3    H227704   1.326   0.408   1.411  0.2974  0.5584 -1.2455
 2049TIP3   OH227705   0.318   3.652   7.446  0.2163 -0.3295 -0.2594
 2049TIP3    H127706   0.235   3.693   7.472 -0.0250  0.6909 -2.4208
 2049TIP3    H227707   0.294   3.564   7.420 -0.0373 -0.3071 -0.1082
 2050TIP3   OH227708   2.923   1.082   2.777 -0.1774 -0.6291 -0.3013
 2050TIP3    H127709   3.007   1.113   2.743 -1.7977  2.5175 -1.9395
 2050TIP3    H227710   2.909   1.135   2.856 -1.9059  1.3001 -1.7817
 2051TIP3   OH227711   2.200   5.736   1.543 -0.2749  0.0411  0.1155
 2051TIP3    H127712   2.220   5.668   1.478 -1.6007  0.7979 -1.1412
 2051TIP3    H227713   2.107   5.724   1.562 -0.1801  0.6018  0.9813
 2052TIP3   OH227714   3.126   6.003   0.340 -0.0581 -0.1063  0.1621
 2052TIP3    H127715   3.162   5.982   0.426 -0.7423  2.4155  1.1452
 2052TIP3    H227716   3.032   6.004   0.353 -0.2129 -0.4639 -0.8443
 2053TIP3   OH227717   4.882   0.928   0.168  0.2806  0.1566  0.1377
 2053TIP3    H127718   4.947   0.923   0.238  0.0845 -2.8121  0.2286
 2053TIP3    H227719   4.808   0.975   0.207  2.2259  3.7131  0.0082
 2054TIP3   OH227720   2.393   3.742   8.243  0.8120  0.8890  0.7023
 2054TIP3    H127721   2.330   3.682   8.284  0.6750  1.5695  1.5083
 2054TIP3    H227722   2.473   3.690   8.234 -0.2336 -0.5187 -1.7677
 2055TIP3   OH227723   3.469   3.796   7.976 -0.5159  0.0043  0.1002
 2055TIP3    H127724   3.532   3.728   7.951  1.6097  0.3281  3.7538
 2055TIP3    H227725   3.388   3.771   7.932  1.2035 -2.5869 -1.9057
 2056TIP3   OH227726   5.573   1.419   0.838  0.2822 -0.1962 -0.0343
 2056TIP3    H127727   5.655   1.450   0.879  0.9694 -2.3782  0.3710
 2056TIP3    H227728   5.514   1.404   0.912 -0.4907  1.2756 -0.3197
 2057TIP3   OH227729   0.507   6.226   0.944  0.0231  0.1978  0.5042
 2057TIP3    H127730   0.433   6.181   0.985  1.2605 -2.7000 -0.1874
 2057TIP3    H227731   0.496   6.208   0.850  1.7760 -0.6204  0.4231
 2058TIP3   OH227732   4.264   0.250   7.251  0.9521 -1.3891 -0.0464
 2058TIP3    H127733   4.331   0.276   7.314 -0.2029  0.7159  0.4143
 2058TIP3    H227734   4.220   0.176   7.293  1.1952 -1.0061  0.9195
 2059TIP3   OH227735   4.330   3.577   0.270  0.4783 -0.3648 -0.4367
 2059TIP3    H127736   4.307   3.489   0.299 -0.8546 -0.1693 -0.8481
 2059TIP3    H227737   4.255   3.631   0.294  0.0965  0.1448 -2.5762
 2060TIP3   OH227738   4.583   3.339   0.382 -0.0753 -0.0176 -0.0547
 2060TIP3    H127739   4.560   3.429   0.405 -0.8543  0.0990 -1.2404
 2060TIP3    H227740   4.641   3.347   0.307  1.2409 -0.4620  0.8750
 2061TIP3   OH227741   4.026   5.545   0.967 -0.2309 -0.2364  0.1843
 2061TIP3    H127742   4.065   5.470   1.012 -0.1541 -0.1440  0.2732
 2061TIP3    H227743   3.956   5.575   1.024 -2.7598 -2.4939 -1.5009
 2062TIP3   OH227744   5.410   1.642   8.265 -0.1543 -0.1220  0.0808
 2062TIP3    H127745   5.400   1.670   8.356 -0.9961 -0.2760  0.0485
 2062TIP3    H227746   5.504   1.646   8.248  0.2821 -2.2137  1.6432
 2063TIP3   OH227747   1.708   5.817   1.990  0.6091  0.8945  0.2521
 2063TIP3    H127748   1.741   5.767   1.914 -0.9722 -1.6041  1.0910
 2063TIP3    H227749   1.761   5.786   2.063  1.3024  2.3973  0.4166
 2064TIP3   OH227750   1.130   3.348   2.038 -0.2766 -0.0912  0.1394
 2064TIP3    H127751   1.075   3.426   2.029  0.8692  0.7299  0.0889
 2064TIP3    H227752   1.136   3.333   2.132 -0.3819 -0.0406  0.1545
 2065TIP3   OH227753   6.018   5.605   0.142  0.0282  0.2095  0.0749
 2065TIP3    H127754   5.929   5.633   0.164  0.2285 -0.2928  1.7235
 2065TIP3    H227755   6.069   5.686   0.140 -0.2075  0.3718  0.5223
 2066TIP3   OH227756   6.405   4.069   1.479 -0.1328  0.1702  0.0773
 2066TIP3    H127757   6.426   3.996   1.420  0.5151 -0.4066  0.9993
 2066TIP3    H227758   6.341   4.033   1.540 -0.1661  0.5152  0.2489
 2067TIP3   OH227759   4.373   1.072   2.113  0.2687  0.0040 -0.0393
 2067TIP3    H127760   4.337   1.145   2.063  0.2257 -0.8223 -1.2559
 2067TIP3    H227761   4.306   1.004   2.108  0.6633 -0.4235  0.3547
 2068TIP3   OH227762   2.441   5.357   1.895  0.3392  0.2067  0.7957
 2068TIP3    H127763   2.527   5.366   1.937 -0.1415  1.2808  1.5672
 2068TIP3    H227764   2.386   5.316   1.961  0.3063 -0.7310  0.2081
 2069TIP3   OH227765   3.615   4.425   1.192 -0.1913 -0.0403  0.6199
 2069TIP3    H127766   3.704   4.391   1.195 -0.3010 -0.3444  0.5625
 2069TIP3    H227767   3.584   4.403   1.103 -0.3402  0.0153  0.6574
 2070TIP3   OH227768   0.811   3.968   7.926 -0.3463  0.3421  0.0187
 2070TIP3    H127769   0.828   3.876   7.946  1.5066  0.9313  1.5104
 2070TIP3    H227770   0.813   3.972   7.830 -2.0843 -1.4007 -0.1382
 2071TIP3   OH227771   4.623   4.515   2.014  0.3658  0.0059 -0.6828
 2071TIP3    H127772   4.536   4.550   1.994 -0.3886 -1.3650  0.0453
 2071TIP3    H227773   4.674   4.528   1.934 -1.6340 -2.5936 -2.4963
 2072TIP3   OH227774   4.607   6.273   1.572  0.3311  0.6090 -0.1138
 2072TIP3    H127775   4.541   6.333   1.604 -0.4933 -0.6545  0.6233
 2072TIP3    H227776   4.560   6.192   1.552  0.8535  1.0642 -4.0434
 2073TIP3   OH227777   4.875   5.824   2.024  0.4069  0.7256  0.2706
 2073TIP3    H127778   4.860   5.780   1.941  1.4687 -0.9383  0.9079
 2073TIP3    H227779   4.970   5.836   2.028  0.5252 -0.3532  1.7329
 2074TIP3   OH227780   2.815   5.344   0.007  0.3580  0.0005  0.2419
 2074TIP3    H127781   2.744   5.286   0.033  0.4453 -0.1311  0.1945
 2074TIP3    H227782   2.894   5.290   0.016  0.4031 -0.0101 -0.1656
 2075TIP3   OH227783   6.210   2.373   0.187  0.2219  0.3485  0.2943
 2075TIP3    H127784   6.275   2.311   0.220  0.6573  0.3690 -0.4921
 2075TIP3    H227785   6.127   2.343   0.223  0.2359 -1.3860 -0.9555
 2076TIP3   OH227786   0.976   1.271   0.866  0.0891 -0.1051 -0.5306
 2076TIP3    H127787   0.921   1.323   0.925 -0.8003 -1.1451 -0.4320
 2076TIP3    H227788   0.942   1.290   0.779 -1.6837 -2.1217 -0.3568
 2077TIP3   OH227789   3.971   3.558   1.739  0.2683 -0.1909  0.6346
 2077TIP3    H127790   3.979   3.541   1.645 -2.5604  0.1019  0.2573
 2077TIP3    H227791   3.987   3.651   1.748  0.5728 -0.2239  0.4593
 2078TIP3   OH227792   6.536   6.571   1.530 -0.4270 -0.7120 -0.3069
 2078TIP3    H127793   6.510   6.649   1.578 -1.4685 -0.3811 -1.3598
 2078TIP3    H227794   6.590   6.522   1.591 -0.1677  0.5890  0.5383
 2079TIP3   OH227795   4.805   6.332   7.223  0.1303 -0.1414  0.2961
 2079TIP3    H127796   4.893   6.359   7.197  0.4093 -0.8908  0.4307
 2079TIP3    H227797   4.748   6.403   7.192  0.9285  1.1021  1.5242
 2080TIP3   OH227798   0.927   1.081   0.367 -0.6407 -0.0123  0.3899
 2080TIP3    H127799   0.987   1.009   0.384  1.1591  1.2819 -0.2018
 2080TIP3    H227800   0.843   1.038   0.350  0.4168 -1.9894 -0.2224
 2081TIP3   OH227801   5.128   5.208   0.805  0.1296 -0.2002 -0.7379
 2081TIP3    H127802   5.204   5.195   0.861  0.6795  0.2484 -1.3687
 2081TIP3    H227803   5.060   5.151   0.842  0.9559 -1.0639 -0.5295
 2082TIP3   OH227804   5.184   2.417   0.884  0.1959  0.9057  1.0742
 2082TIP3    H127805   5.229   2.431   0.801  1.0422  0.4128  1.4299
 2082TIP3    H227806   5.097   2.453   0.871 -0.5021 -1.2567 -0.8212
 2083TIP3   OH227807   2.778   0.080   1.989  0.4634  0.7762 -0.1454
 2083TIP3    H127808   2.846   0.013   1.996  0.5209  0.5111 -2.3886
 2083TIP3    H227809   2.734   0.080   2.074  1.3809 -1.0860  0.3736
 2084TIP3   OH227810   6.438   4.644   0.021  0.0505  0.0920  0.4811
 2084TIP3    H127811   6.429   4.628  -0.073 -0.9151 -2.0460  0.8684
 2084TIP3    H227812   6.526   4.611   0.041  0.8947  1.9878  0.1222
 2085TIP3   OH227813   3.018   0.678   7.878 -0.0694 -0.0890 -0.1013
 2085TIP3    H127814   3.001   0.585   7.895 -2.4854  0.4370  0.7180
 2085TIP3    H227815   3.059   0.710   7.957  0.1953 -0.3102 -0.1457
 2086TIP3   OH227816   3.416   3.883   0.432 -0.2223 -0.0581  0.0597
 2086TIP3    H127817   3.494   3.932   0.405 -0.5412  1.0066  1.0027
 2086TIP3    H227818   3.451   3.807   0.479  0.2560 -0.0980 -0.3466
 2087TIP3   OH227819   5.817   5.579   6.610  0.1365 -0.1561  0.1789
 2087TIP3    H127820   5.874   5.646   6.573 -2.0924  2.2643  0.8157
 2087TIP3    H227821   5.856   5.560   6.695  0.0584  1.4588  0.6194
 2088TIP3   OH227822   3.813   6.799   0.600 -0.6457  0.2737 -0.7039
 2088TIP3    H127823   3.890   6.821   0.548  0.2289  1.6784  1.0850
 2088TIP3    H227824   3.776   6.722   0.557  1.6683 -0.3620 -1.6844
 2089TIP3   OH227825   2.474   4.651   2.155 -0.5266 -0.3854  0.1459
 2089TIP3    H127826   2.484   4.602   2.073  2.2260 -1.7413  1.1643
 2089TIP3    H227827   2.407   4.602   2.203  1.1955 -2.5254  0.5619
 2090TIP3   OH227828   6.483   1.817   1.265  0.5980 -0.3738  0.0081
 2090TIP3    H127829   6.487   1.756   1.338 -1.1371 -0.5330  0.0186
 2090TIP3    H227830   6.414   1.879   1.289 -0.2198 -0.6083 -1.5892
 2091TIP3   OH227831   2.119   2.942   1.124  0.3808  0.0803  0.0113
 2091TIP3    H127832   2.172   2.865   1.143  0.1745 -0.2958 -0.9186
 2091TIP3    H227833   2.180   3.003   1.082  0.4377  0.2591  0.3476
 2092TIP3   OH227834   0.374   4.073   8.092  0.3418 -0.2547  0.1128
 2092TIP3    H127835   0.333   4.109   8.170  1.0892  2.0039 -0.4627
 2092TIP3    H227836   0.449   4.023   8.125 -0.2558 -0.6345  0.9105
 2093TIP3   OH227837   2.374   0.142   2.314  0.2254 -0.0236 -0.5669
 2093TIP3    H127838   2.435   0.183   2.253  1.2852 -0.2652  0.3007
 2093TIP3    H227839   2.357   0.210   2.380 -0.1526 -0.0854 -0.5975
 2094TIP3   OH227840   6.412   0.048   0.436 -0.7574  0.0515  0.3183
 2094TIP3    H127841   6.384   0.067   0.346 -2.2473  2.0802  1.1435
 2094TIP3    H227842   6.482   0.110   0.453 -0.1394 -0.6599  0.4246
 2095TIP3   OH227843   2.732   6.642   2.976 -0.5146  0.1459 -0.1090
 2095TIP3    H127844   2.679   6.608   2.904  0.8041 -0.1329 -0.9921
 2095TIP3    H227845   2.729   6.737   2.965 -1.0333  0.1451  0.0027
 2096TIP3   OH227846   6.684   2.779   1.220 -0.7961  0.2483 -0.3024
 2096TIP3    H127847   6.698   2.706   1.159  1.5820 -0.2557  0.7374
 2096TIP3    H227848   6.658   2.737   1.302 -1.8264  0.7669 -0.3524
 2097TIP3   OH227849   2.461   6.310   7.442  0.5249 -0.0543 -0.6936
 2097TIP3    H127850   2.484   6.343   7.356 -1.9743  0.2117 -1.3300
 2097TIP3    H227851   2.439   6.218   7.428 -3.3385  0.7773 -1.1734
 2098TIP3   OH227852   0.633   0.648   0.200 -0.0700 -0.2105  0.2104
 2098TIP3    H127853   0.599   0.562   0.225 -2.2430  1.0154  1.7781
 2098TIP3    H227854   0.563   0.710   0.222  1.2624  1.9643 -1.1907
 2099TIP3   OH227855   2.375   5.695   0.072 -0.0924  0.2076  0.1386
 2099TIP3    H127856   2.401   5.781   0.037 -0.3757  0.1061 -0.3417
 2099TIP3    H227857   2.406   5.695   0.162  2.8593 -0.4437 -0.7619
 2100TIP3   OH227858   3.104   5.632   8.204 -0.6467 -0.3311 -0.5482
 2100TIP3    H127859   3.164   5.622   8.277 -0.8340 -1.2340 -0.5081
 2100TIP3    H227860   3.017   5.637   8.244 -0.5675  1.8960 -0.5414
 2101TIP3   OH227861   1.285   1.491   2.111  0.6482 -0.1098 -0.7976
 2101TIP3    H127862   1.235   1.440   2.174  0.1621  0.9065 -0.3393
 2101TIP3    H227863   1.368   1.509   2.154 -0.7546  3.1324  0.8891
 2102TIP3   OH227864   2.117   3.112   1.628  0.1964 -0.0753  0.4551
 2102TIP3    H127865   2.175   3.055   1.679  0.0659  0.3204  1.0585
 2102TIP3    H227866   2.029   3.094   1.662  0.2849  1.3909  1.5542
 2103TIP3   OH227867   4.844   5.248   0.975 -0.0007 -0.4389  0.3650
 2103TIP3    H127868   4.866   5.341   0.980  1.9668 -0.8345  0.1009
 2103TIP3    H227869   4.812   5.226   1.062 -1.0705  0.6037  0.2515
 2104TIP3   OH227870   0.655   6.485   1.978 -0.3065 -0.0867 -0.6300
 2104TIP3    H127871   0.592   6.430   2.025 -0.9258  0.6206 -0.6190
 2104TIP3    H227872   0.740   6.457   2.012 -0.6095 -1.0618 -0.6553
 2105TIP3   OH227873   3.220   2.585   0.798  0.1105 -0.3106  0.2998
 2105TIP3    H127874   3.239   2.602   0.890  0.1289 -1.3661  0.5003
 2105TIP3    H227875   3.155   2.652   0.774  1.4640  1.1459  0.5530
 2106TIP3   OH227876   1.464   3.040   0.742  0.8989  0.1557 -0.1842
 2106TIP3    H127877   1.431   3.128   0.757 -0.0766 -0.1220 -0.5928
 2106TIP3    H227878   1.499   3.012   0.827  0.1491  0.5065  0.2523
 2107TIP3   OH227879   0.271   3.034   2.289  0.6558 -0.5536  0.5262
 2107TIP3    H127880   0.237   2.989   2.212  2.0206 -2.0002  0.7291
 2107TIP3    H227881   0.196   3.038   2.349 -0.4338  0.6173 -0.8125
 2108TIP3   OH227882   5.329   5.616   8.263  0.1969  0.2587 -0.2957
 2108TIP3    H127883   5.361   5.549   8.203  1.2406  1.6163 -1.3210
 2108TIP3    H227884   5.379   5.602   8.344  0.3965 -0.1952 -0.4929
 2109TIP3   OH227885   2.167   5.927   8.274 -0.4562 -0.4612 -0.3172
 2109TIP3    H127886   2.089   5.950   8.324 -0.2792  1.8923 -0.9769
 2109TIP3    H227887   2.240   5.945   8.333 -0.3559 -1.0411 -0.2606
 2110TIP3   OH227888   2.824   6.393   1.892 -0.4180 -0.0302 -0.1886
 2110TIP3    H127889   2.837   6.300   1.879  0.5122 -0.2427  1.9116
 2110TIP3    H227890   2.729   6.403   1.901 -0.5409 -0.7131 -0.6642
 2111TIP3   OH227891   3.433   5.012   8.201 -0.3468 -0.4226  0.1244
 2111TIP3    H127892   3.443   4.988   8.294 -0.7135 -0.5679  0.1267
 2111TIP3    H227893   3.498   4.957   8.156  1.5626  1.3660  0.5352
 2112TIP3   OH227894   5.357   1.658   1.600 -0.0648 -0.2362 -0.6807
 2112TIP3    H127895   5.327   1.744   1.571  0.8499  0.7788  1.1292
 2112TIP3    H227896   5.370   1.607   1.520 -0.1767  1.4714 -1.8219
 2113TIP3   OH227897   1.878   5.517   2.370  0.1704  0.4345 -0.2319
 2113TIP3    H127898   1.903   5.589   2.427  1.1099  0.5481 -0.7736
 2113TIP3    H227899   1.917   5.539   2.285  0.1141 -0.5052 -0.5079
 2114TIP3   OH227900   5.045   0.833   8.384 -0.2027  0.2324 -0.2269
 2114TIP3    H127901   5.024   0.847   8.476 -2.0805  1.2125 -0.7510
 2114TIP3    H227902   5.067   0.740   8.378 -0.2107  0.1224  1.1676
 2115TIP3   OH227903   6.118   2.460   2.548  0.0169  0.3663 -0.0376
 2115TIP3    H127904   6.150   2.497   2.631  0.4135 -1.3782  0.6249
 2115TIP3    H227905   6.169   2.380   2.537  1.0047  1.2592 -2.7377
 2116TIP3   OH227906   3.602   1.741   1.741  0.3922 -0.0883  0.1247
 2116TIP3    H127907   3.552   1.820   1.758  1.0404  0.1680  0.9083
 2116TIP3    H227908   3.675   1.745   1.803  1.3797 -0.4453 -0.9721
 2117TIP3   OH227909   3.014   6.830   0.082  0.0441  0.8966 -0.2016
 2117TIP3    H127910   2.997   6.742   0.115  2.8868 -0.9900 -3.1348
 2117TIP3    H227911   3.078   6.867   0.144  0.2800  0.1339  0.0161
 2118TIP3   OH227912   5.645   3.530   2.369 -0.2849  0.2602 -0.6121
 2118TIP3    H127913   5.731   3.533   2.411  0.1718  0.6334 -1.5396
 2118TIP3    H227914   5.583   3.546   2.440  0.5135  1.9127 -0.2423
 2119TIP3   OH227915   6.914   5.821   0.918  0.2035  0.7455  0.0879
 2119TIP3    H127916   6.919   5.906   0.873  0.7885  1.0293  0.6720
 2119TIP3    H227917   6.940   5.757   0.852  2.9162  1.3289  0.4793
 2120TIP3   OH227918   5.300   1.662   0.795  0.6601 -0.0255  0.4466
 2120TIP3    H127919   5.250   1.712   0.859 -1.3881 -1.6391  0.2148
 2120TIP3    H227920   5.272   1.571   0.808  1.8031 -0.6771 -1.2929
 2121TIP3   OH227921   2.519   6.355   0.186 -0.2358 -0.6090  0.3554
 2121TIP3    H127922   2.454   6.389   0.247 -0.5766 -1.0681  0.2561
 2121TIP3    H227923   2.499   6.396   0.102 -0.0857 -0.3713  0.4341
 2122TIP3   OH227924   1.990   6.659   7.550 -0.9868 -0.4208  0.0561
 2122TIP3    H127925   2.045   6.628   7.623 -0.8104 -0.8479 -0.2562
 2122TIP3    H227926   2.042   6.640   7.472 -1.1709  0.0488 -0.1818
 2123TIP3   OH227927   4.511   4.408   2.327  0.0708 -0.6928 -0.4577
 2123TIP3    H127928   4.464   4.402   2.410  0.6034  0.8193 -0.0196
 2123TIP3    H227929   4.604   4.400   2.351  0.2010 -0.7338 -0.9627
 2124TIP3   OH227930   5.986   4.085   7.330 -0.1123  0.1806 -0.0101
 2124TIP3    H127931   6.047   4.045   7.392 -1.7536 -2.1971  0.2057
 2124TIP3    H227932   5.951   4.161   7.377  0.7629  0.0626  0.8723
 2125TIP3   OH227933   3.739   4.711   0.856 -0.0901  0.3846  0.1586
 2125TIP3    H127934   3.796   4.775   0.814 -0.0234 -0.2623 -0.7663
 2125TIP3    H227935   3.727   4.744   0.945  2.9013 -0.1528  0.8689
 2126TIP3   OH227936   4.937   3.664   2.129 -0.9069 -0.0004  0.7460
 2126TIP3    H127937   4.882   3.733   2.093  1.0769  1.0903 -0.3590
 2126TIP3    H227938   4.984   3.706   2.201  2.0705  0.6701 -1.3790
 2127TIP3   OH227939   1.918   1.279   2.233 -0.0237 -0.0464 -0.0984
 2127TIP3    H127940   1.926   1.199   2.181  1.0876  1.1550 -1.8899
 2127TIP3    H227941   2.002   1.285   2.279  1.1116  1.4810 -2.1928
 2128TIP3   OH227942   4.362   5.353   0.198 -0.1067  0.1522 -0.8176
 2128TIP3    H127943   4.364   5.435   0.248  0.0451 -0.5414  0.3673
 2128TIP3    H227944   4.269   5.328   0.198 -0.1464  0.2982 -1.1348
 2129TIP3   OH227945   5.670   0.836   8.029  0.0295 -0.4595  0.1616
 2129TIP3    H127946   5.621   0.792   7.960  0.9987 -1.5126  0.1133
 2129TIP3    H227947   5.671   0.774   8.102  1.0665 -0.3663  0.2491
 2130TIP3   OH227948   6.125   3.921   7.495 -0.7404  0.3386 -0.3756
 2130TIP3    H127949   6.152   3.840   7.539 -0.3624 -0.1957 -1.5558
 2130TIP3    H227950   6.075   3.968   7.562 -1.7919 -1.3027  0.0669
 2131TIP3   OH227951   3.307   6.329   2.479  0.5372  0.4305 -0.0704
 2131TIP3    H127952   3.277   6.274   2.407  0.6304  0.9414 -0.5020
 2131TIP3    H227953   3.263   6.293   2.556 -1.0316  1.0075 -0.6507
 2132TIP3   OH227954   2.572   6.541   1.442 -0.6998  0.7731 -0.3741
 2132TIP3    H127955   2.514   6.469   1.466 -0.4749 -0.0536 -2.1935
 2132TIP3    H227956   2.590   6.528   1.349 -1.2556  3.5998 -0.9755
 2133TIP3   OH227957   3.670   4.631   7.637  0.1355 -0.5709  0.3156
 2133TIP3    H127958   3.636   4.545   7.615 -0.3983 -0.3452  0.2378
 2133TIP3    H227959   3.636   4.688   7.568 -0.6970 -0.0397  1.1399
 2134TIP3   OH227960   4.135   5.052   1.304  0.2509 -0.1606  0.0999
 2134TIP3    H127961   4.078   4.978   1.324  0.6734 -0.8683 -1.2027
 2134TIP3    H227962   4.092   5.128   1.343 -1.5335 -0.6782 -0.7861
 2135TIP3   OH227963   0.331   2.291   7.176  0.5063 -0.2689  0.2429
 2135TIP3    H127964   0.392   2.343   7.228 -0.0278  2.2309 -1.4335
 2135TIP3    H227965   0.245   2.329   7.194  0.1179 -0.3860 -1.2258
 2136TIP3   OH227966   4.446   3.006   2.538 -0.6770 -0.8304  0.3014
 2136TIP3    H127967   4.379   2.939   2.551 -0.1035 -1.0922  2.2137
 2136TIP3    H227968   4.421   3.077   2.598 -1.2938  0.7493 -1.7067
 2137TIP3   OH227969   5.624   0.555   1.019  0.5911 -0.0510  0.5036
 2137TIP3    H127970   5.535   0.568   1.054  0.1405  2.0810 -1.2185
 2137TIP3    H227971   5.645   0.464   1.042 -1.7366 -0.4107  1.5865
 2138TIP3   OH227972   3.715   0.082   6.723  0.2091 -0.0926  0.8004
 2138TIP3    H127973   3.629   0.045   6.700 -0.9627  2.8453 -0.0009
 2138TIP3    H227974   3.767   0.073   6.643  0.9169 -2.3401  1.4383
 2139TIP3   OH227975   4.771   4.469   8.287 -0.3088 -0.5550 -0.2331
 2139TIP3    H127976   4.740   4.463   8.377  1.7145  0.3821  0.5850
 2139TIP3    H227977   4.787   4.562   8.273 -0.5238 -0.7006 -1.5495
 2140TIP3   OH227978   1.017   0.469   0.617  0.6115  0.4570 -0.0773
 2140TIP3    H127979   1.030   0.402   0.684 -1.3919  1.9047  1.9128
 2140TIP3    H227980   0.979   0.422   0.543  0.0516 -0.7429  0.9386
 2141TIP3   OH227981   4.931   4.212   0.066 -0.2423  0.2385  0.0071
 2141TIP3    H127982   4.916   4.118   0.081  0.5158  0.2266  0.7537
 2141TIP3    H227983   4.910   4.253   0.150 -0.9434  0.7924 -0.4262
 2142TIP3   OH227984   4.203   6.359   2.482  0.4220  0.3777  0.1050
 2142TIP3    H127985   4.230   6.305   2.557  0.1287  0.1817  0.0696
 2142TIP3    H227986   4.279   6.414   2.464  1.8309 -1.9419 -1.6377
 2143TIP3   OH227987   2.563   5.497   0.698 -0.2226  0.2616 -0.2849
 2143TIP3    H127988   2.531   5.421   0.650 -2.7149  1.3920 -0.5170
 2143TIP3    H227989   2.564   5.568   0.635  1.3960  0.6501  0.1127
 2144TIP3   OH227990   5.658   2.608   1.162 -0.6390 -0.6515 -0.3897
 2144TIP3    H127991   5.577   2.557   1.162 -0.0405 -1.7275  1.5384
 2144TIP3    H227992   5.701   2.584   1.080 -0.1331 -3.8085  0.6529
 2145TIP3   OH227993   4.408   4.202   7.273 -0.1383  0.3097 -0.0324
 2145TIP3    H127994   4.391   4.110   7.289  1.0258  0.0219 -0.3762
 2145TIP3    H227995   4.495   4.218   7.309 -0.9033  1.6413  1.3405
 2146TIP3   OH227996   1.118   2.054   0.437  0.2376  0.1958  0.7734
 2146TIP3    H127997   1.069   1.972   0.445  0.6694 -0.2408 -0.6966
 2146TIP3    H227998   1.051   2.122   0.429 -0.1741 -0.3522 -0.8671
 2147TIP3   OH227999   2.339   4.069   0.955  0.1782 -0.2901 -0.0576
 2147TIP3    H128000   2.425   4.065   0.912 -0.0020 -0.0470 -0.4440
 2147TIP3    H228001   2.340   4.154   1.000 -0.6487  0.6860 -1.7716
 2148TIP3   OH228002   6.314   0.058   1.415  0.0998  0.2962  0.1851
 2148TIP3    H128003   6.249   0.092   1.477  0.5781 -1.1114  1.5247
 2148TIP3    H228004   6.301   0.111   1.336 -1.3523  1.3470  1.0617
 2149TIP3   OH228005   3.505   6.730   7.420 -0.1936  0.0264 -0.0921
 2149TIP3    H128006   3.513   6.674   7.343 -0.6325 -0.8488  0.4871
 2149TIP3    H228007   3.416   6.765   7.415 -0.5306 -0.7330  0.4783
 2150TIP3   OH228008   5.057   3.133   0.951  0.9244  0.3819  0.0566
 2150TIP3    H128009   5.104   3.073   0.894  0.3686  1.8178 -2.0040
 2150TIP3    H228010   5.016   3.196   0.892 -0.9318  1.0828  1.9476
 2151TIP3   OH228011   1.308   3.144   1.449  0.1493 -0.6215 -0.2416
 2151TIP3    H128012   1.228   3.099   1.476 -0.2058 -0.3944 -0.8895
 2151TIP3    H228013   1.342   3.183   1.529  0.0089 -1.3315  0.1734
 2152TIP3   OH228014   6.834   4.847   2.411  0.0498  0.1658  0.6349
 2152TIP3    H128015   6.929   4.853   2.398  0.0790 -2.0739 -0.5393
 2152TIP3    H228016   6.825   4.809   2.499  0.1718  1.4214  1.2174
 2153TIP3   OH228017   4.492   3.197   8.048 -0.1993 -0.0908  0.1677
 2153TIP3    H128018   4.517   3.121   7.995 -1.3388 -0.2733 -0.1236
 2153TIP3    H228019   4.398   3.208   8.032 -0.4748  0.1245  1.8010
 2154TIP3   OH228020   4.052   0.784   1.589 -0.7146 -0.0612  0.0614
 2154TIP3    H128021   4.087   0.871   1.606 -2.2147  0.2804  1.6382
 2154TIP3    H228022   4.130   0.729   1.578  0.3050  1.1001  1.1078
 2155TIP3   OH228023   3.378   6.730   0.338  0.0981 -0.6704 -0.0326
 2155TIP3    H128024   3.448   6.795   0.338 -0.3309 -0.1874 -0.8987
 2155TIP3    H228025   3.418   6.651   0.302  0.7245 -1.0312  1.3805
 2156TIP3   OH228026   3.472   0.914   0.989 -0.2474  0.0858  0.3673
 2156TIP3    H128027   3.514   0.990   1.028  0.3795 -0.3280  0.5156
 2156TIP3    H228028   3.523   0.895   0.910  1.2797 -1.7508  1.6963
 2157TIP3   OH228029   0.128   1.274   1.470  0.3221 -0.0290 -0.3013
 2157TIP3    H128030   0.091   1.192   1.436 -0.7155 -1.4977  3.8088
 2157TIP3    H228031   0.059   1.339   1.458  0.4327 -0.1687 -1.8903
 2158TIP3   OH228032   3.252   2.318   7.905  0.5023 -0.0854  0.7752
 2158TIP3    H128033   3.193   2.305   7.831 -0.2861  1.4188  1.1097
 2158TIP3    H228034   3.203   2.373   7.966  1.6854 -0.0712  1.7550
 2159TIP3   OH228035   2.146   0.993   3.167  0.2141 -0.1243 -0.2237
 2159TIP3    H128036   2.229   1.026   3.134 -0.2663  0.7391 -0.6140
 2159TIP3    H228037   2.157   0.898   3.171  0.8913 -0.0939 -1.1767
 2160TIP3   OH228038   2.075   2.390   3.190  0.2912  0.1111  0.3145
 2160TIP3    H128039   2.081   2.308   3.140  2.1928  0.2481  0.2527
 2160TIP3    H228040   1.981   2.410   3.192 -0.2814 -2.2723  0.6773
 2161TIP3   OH228041   4.764   0.564   7.642  0.2338 -0.2043 -0.4528
 2161TIP3    H128042   4.764   0.659   7.629 -1.0324  0.0462  1.1318
 2161TIP3    H228043   4.856   0.538   7.628  0.9457  1.5012  0.7529
 2162TIP3   OH228044   1.731   5.911   8.197  0.1380 -0.4275  0.1601
 2162TIP3    H128045   1.718   5.817   8.190  0.8836 -0.5943  0.8610
 2162TIP3    H228046   1.696   5.934   8.283  1.4212 -0.3499  0.6843
 2163TIP3   OH228047   3.199   5.377   8.105 -0.3346  0.2413 -0.3032
 2163TIP3    H128048   3.119   5.335   8.072 -1.7417  1.3266  1.5831
 2163TIP3    H228049   3.171   5.465   8.129  1.4749  0.6732  0.3019
 2164TIP3   OH228050   3.018   5.129   0.624  0.4722 -0.2515  0.3547
 2164TIP3    H128051   2.937   5.105   0.669  0.5906  1.8331  1.8032
 2164TIP3    H228052   3.087   5.111   0.687  0.8136  1.0520  0.3767
 2165TIP3   OH228053   2.619   5.391   1.222  0.4553  0.7912  0.0240
 2165TIP3    H128054   2.645   5.427   1.138 -0.7740  0.4243 -0.5287
 2165TIP3    H228055   2.525   5.375   1.214  0.5676 -0.5190  0.9871
 2166TIP3   OH228056   6.551   4.639   7.847 -0.2473  0.0975 -0.2284
 2166TIP3    H128057   6.637   4.661   7.811  0.6663 -1.8656  0.6121
 2166TIP3    H228058   6.557   4.545   7.866 -2.6731 -0.1377 -0.3808
 2167TIP3   OH228059   5.279   6.910   8.263 -0.2458 -0.9190  0.3341
 2167TIP3    H128060   5.204   6.962   8.233 -0.4576 -1.1083  0.5310
 2167TIP3    H228061   5.246   6.861   8.339 -0.1317 -1.5491 -0.0136
 2168TIP3   OH228062   6.860   3.388   7.830  0.1365 -0.8095  0.0421
 2168TIP3    H128063   6.784   3.330   7.824  0.0090 -1.0517  2.6867
 2168TIP3    H228064   6.850   3.432   7.915  0.7725  2.3756 -1.3963
 2169TIP3   OH228065   3.083   3.522   0.363  0.5732 -0.1141 -0.3431
 2169TIP3    H128066   3.037   3.581   0.302 -0.6827  0.3280  0.9606
 2169TIP3    H228067   3.039   3.438   0.351 -0.4337  0.2338  0.6786
 2170TIP3   OH228068   6.228   3.795   1.708 -0.1907 -0.4389 -0.4510
 2170TIP3    H128069   6.290   3.824   1.775  0.7860  0.1021 -1.5624
 2170TIP3    H228070   6.262   3.710   1.679 -0.4587 -0.5472 -0.4480
 2171TIP3   OH228071   2.154   0.724   3.209  0.1040 -0.8497 -0.5555
 2171TIP3    H128072   2.087   0.698   3.147 -1.0886 -0.5117  0.5539
 2171TIP3    H228073   2.214   0.648   3.213 -0.8830 -1.6538 -0.6621
 2172TIP3   OH228074   3.316   2.400   2.069  0.0453  0.2677  0.0736
 2172TIP3    H128075   3.260   2.324   2.081 -0.7506  0.9876  1.1482
 2172TIP3    H228076   3.337   2.400   1.975 -2.1190  0.2013 -0.4716
 2173TIP3   OH228077   6.427   3.190   0.954 -0.6757  0.0122 -0.1496
 2173TIP3    H128078   6.383   3.173   1.037 -0.3309 -0.7374 -0.1093
 2173TIP3    H228079   6.356   3.199   0.890 -0.9131 -0.3932  0.0536
 2174TIP3   OH228080   5.141   3.103   1.582  0.0034 -0.3566 -0.4063
 2174TIP3    H128081   5.047   3.087   1.590 -0.1793  0.8105 -0.1263
 2174TIP3    H228082   5.160   3.171   1.646  0.9229 -0.1068 -0.9210
 2175TIP3   OH228083   6.309   2.250   8.369  0.2791  0.6769 -0.1343
 2175TIP3    H128084   6.242   2.307   8.332 -0.9961  0.5293  1.7827
 2175TIP3    H228085   6.359   2.308   8.428  1.6564  0.7031 -1.2696
 2176TIP3   OH228086   3.285   4.193   1.818  0.1128 -0.4104 -0.1369
 2176TIP3    H128087   3.269   4.229   1.906 -0.5592  1.5848 -1.0145
 2176TIP3    H228088   3.340   4.259   1.775  1.4639 -1.9464 -0.8397
 2177TIP3   OH228089   2.537   0.051   7.488  0.2049  0.2060  0.0451
 2177TIP3    H128090   2.616  -0.003   7.499  0.0587 -0.3594 -1.3769
 2177TIP3    H228091   2.558   0.108   7.414  0.7685  2.9856  2.1683
 2178TIP3   OH228092   2.375   6.625   1.131 -0.1681 -0.0560  0.3863
 2178TIP3    H128093   2.323   6.681   1.073 -0.4301  0.7074  1.3358
 2178TIP3    H228094   2.389   6.678   1.209  1.5705 -0.4536  0.3902
 2179TIP3   OH228095   2.832   4.829   2.519 -0.4551 -0.0320  0.2753
 2179TIP3    H128096   2.871   4.917   2.521 -1.6713  0.5385  0.0226
 2179TIP3    H228097   2.760   4.837   2.457 -0.4936 -1.2636  0.1449
 2180TIP3   OH228098   1.179   0.309   2.577  0.1339  0.6108  0.1801
 2180TIP3    H128099   1.185   0.289   2.671 -0.5338  0.1198  0.1182
 2180TIP3    H228100   1.150   0.228   2.537 -1.3859  1.3301 -0.2279
 2181TIP3   OH228101   3.667   2.723   2.011 -0.0210  0.1809 -1.1044
 2181TIP3    H128102   3.694   2.648   2.064 -0.4970 -0.1185 -1.2810
 2181TIP3    H228103   3.618   2.685   1.938 -0.9891  0.7135 -0.7497
 2182TIP3   OH228104   5.143   1.088   1.754 -0.2040 -0.0348  0.1541
 2182TIP3    H128105   5.167   1.179   1.774 -1.0139  0.0116  0.9732
 2182TIP3    H228106   5.049   1.084   1.769 -0.4529 -0.6336 -1.3976
 2183TIP3   OH228107   5.906   4.605   1.941 -0.2016 -0.5271 -0.2999
 2183TIP3    H128108   5.870   4.638   2.023  0.0768  0.5075 -0.5820
 2183TIP3    H228109   5.881   4.512   1.940 -1.3337 -0.2549  0.3363
 2184TIP3   OH228110   1.731   6.728   0.834  0.5343  0.0635 -0.1089
 2184TIP3    H128111   1.722   6.669   0.759 -1.5192  0.6893 -0.4054
 2184TIP3    H228112   1.651   6.716   0.884  2.3623 -1.2425  2.7416
 2185TIP3   OH228113   2.612   0.411   0.552 -0.1809 -0.6610 -0.2828
 2185TIP3    H128114   2.695   0.426   0.597 -0.0646  3.0643 -1.3964
 2185TIP3    H228115   2.549   0.466   0.599 -1.1706 -0.5442 -1.6797
 2186TIP3   OH228116   4.149   1.380   0.927 -0.3433  0.2690 -0.0124
 2186TIP3    H128117   4.117   1.293   0.901 -1.0611  0.8446 -1.0922
 2186TIP3    H228118   4.083   1.441   0.894  0.5219  1.2870  0.0937
 2187TIP3   OH228119   5.872   3.237   7.444  0.4692  0.3772  0.1303
 2187TIP3    H128120   5.932   3.169   7.412  3.3734  2.9868 -0.4847
 2187TIP3    H228121   5.818   3.258   7.368  0.5201 -0.2804 -0.0938
 2188TIP3   OH228122   0.636   3.177   0.882  0.0522  0.2785 -0.0637
 2188TIP3    H128123   0.713   3.209   0.929 -0.0057  2.5846 -1.3982
 2188TIP3    H228124   0.643   3.081   0.888  1.8284  0.4479  1.6894
 2189TIP3   OH228125   5.947   1.926   1.467 -0.0556  0.2573  0.7423
 2189TIP3    H128126   5.915   1.836   1.468  1.0037 -0.1207  1.0712
 2189TIP3    H228127   5.972   1.942   1.376 -1.7784  0.7933  0.3226
 2190TIP3   OH228128   6.401   6.720   0.489 -0.7456  1.1147 -0.4616
 2190TIP3    H128129   6.378   6.706   0.580 -2.3707 -1.2119 -1.1262
 2190TIP3    H228130   6.398   6.814   0.477  1.4516  1.6608  2.3040
 2191TIP3   OH228131   5.604   5.603   2.466  0.5463  0.3850 -0.5626
 2191TIP3    H128132   5.670   5.669   2.489 -0.2618  1.1789 -0.4772
 2191TIP3    H228133   5.533   5.653   2.426 -0.5308 -0.2954  0.4450
 2192TIP3   OH228134   4.784   3.554   0.210 -0.4907  0.2882 -0.2299
 2192TIP3    H128135   4.848   3.528   0.144 -1.1222  1.0750 -1.1933
 2192TIP3    H228136   4.699   3.536   0.169 -0.9062 -0.6274  0.9757
 2193TIP3   OH228137   3.541   6.045   8.057 -0.1602 -0.1583  0.1322
 2193TIP3    H128138   3.609   6.109   8.076 -0.3330  0.5977 -1.5864
 2193TIP3    H228139   3.562   5.969   8.112  1.6974  0.2864  0.0767
 2194TIP3   OH228140   6.703   0.401   7.963 -0.2826  0.1559  0.5674
 2194TIP3    H128141   6.676   0.310   7.975 -1.3085  0.4956  0.8796
 2194TIP3    H228142   6.799   0.397   7.957 -0.3231 -0.9419  0.5422
 2195TIP3   OH228143   5.644   3.451   1.226 -0.0984  0.0740 -0.1562
 2195TIP3    H128144   5.591   3.432   1.149 -1.6368  1.5169  0.4780
 2195TIP3    H228145   5.614   3.538   1.255  4.1016  2.0132 -0.9380
 2196TIP3   OH228146   0.970   4.549   2.395 -0.6098 -0.1833 -0.6519
 2196TIP3    H128147   0.974   4.562   2.490  1.7246 -1.0314 -0.5544
 2196TIP3    H228148   0.929   4.463   2.384  0.2021 -0.6229 -0.3250
 2197TIP3   OH228149   3.942   4.384   0.489 -0.1057 -0.3283 -0.2858
 2197TIP3    H128150   4.021   4.432   0.511 -0.7182  0.1345  1.0238
 2197TIP3    H228151   3.946   4.372   0.394  2.9302 -2.8373 -0.0152
 2198TIP3   OH228152   1.978   6.068   0.807  0.2568 -0.6145  0.3773
 2198TIP3    H128153   2.002   6.025   0.889 -1.8867  0.2895  1.5736
 2198TIP3    H228154   1.884   6.051   0.799  0.1563  0.5049 -1.1896
 2199TIP3   OH228155   4.990   0.639   2.194  0.3542 -0.6913 -0.7598
 2199TIP3    H128156   5.080   0.635   2.227 -0.1937 -1.0993  0.8001
 2199TIP3    H228157   4.961   0.548   2.192 -0.8134 -0.4081  1.1873
 2200TIP3   OH228158   5.687   4.167   7.681  0.1935  0.0320  0.4550
 2200TIP3    H128159   5.676   4.204   7.769  2.3465  1.9453  0.0186
 2200TIP3    H228160   5.761   4.216   7.644 -1.1523 -0.1231 -2.7299
 2201TIP3   OH228161   5.154   0.321   1.503 -0.1724 -0.7450 -0.0213
 2201TIP3    H128162   5.140   0.392   1.566  1.2090 -2.3057  2.1818
 2201TIP3    H228163   5.070   0.313   1.457 -1.9380 -0.7966  2.9761
 2202TIP3   OH228164   2.364   0.904   1.793 -0.4161 -0.1144 -0.3771
 2202TIP3    H128165   2.301   0.976   1.785  0.3730  0.5935 -0.3433
 2202TIP3    H228166   2.450   0.947   1.795  0.1990 -1.1538 -2.1462
 2203TIP3   OH228167   2.587   4.276   1.106  0.5875 -0.2346  0.3551
 2203TIP3    H128168   2.516   4.329   1.070  1.2369  1.0007  0.8097
 2203TIP3    H228169   2.635   4.245   1.029  0.0397 -0.4044  0.0737
 2204TIP3   OH228170   3.845   6.513   6.918  0.6212 -0.3234  0.1449
 2204TIP3    H128171   3.795   6.443   6.876 -0.9553  0.4109  0.7025
 2204TIP3    H228172   3.844   6.585   6.855  1.3082 -0.4386  0.0039
 2205TIP3   OH228173   1.928   2.485   2.561  0.3926  0.1361 -0.0151
 2205TIP3    H128174   1.841   2.520   2.539 -0.0159 -1.3438 -0.9443
 2205TIP3    H228175   1.961   2.543   2.629 -1.3141  0.7767  0.3207
 2206TIP3   OH228176   6.209   6.622   2.497 -0.3178  0.2363  0.1962
 2206TIP3    H128177   6.299   6.593   2.515 -0.6216 -1.0093 -0.1530
 2206TIP3    H228178   6.170   6.633   2.584  0.0239  0.2674  0.3493
 2207TIP3   OH228179   6.902   5.328   2.839 -0.2480  0.5366 -0.3604
 2207TIP3    H128180   6.835   5.271   2.877  0.8106 -0.8039 -0.4477
 2207TIP3    H228181   6.883   5.329   2.745  1.6001 -2.3783 -0.8818
 2208TIP3   OH228182   3.117   1.810   2.427  0.4183  0.0826 -0.1666
 2208TIP3    H128183   3.196   1.766   2.457  0.6673  0.1115 -0.7699
 2208TIP3    H228184   3.046   1.752   2.453  0.6436 -0.0174  0.2401
 2209TIP3   OH228185   5.143   3.349   1.355  0.0598  0.3206 -0.2816
 2209TIP3    H128186   5.223   3.394   1.383  0.1744  0.1214 -0.2949
 2209TIP3    H228187   5.169   3.297   1.280 -0.0759  0.2261 -0.2635
 2210TIP3   OH228188   0.763   0.547   7.779  0.1431 -0.1246 -0.1942
 2210TIP3    H128189   0.846   0.552   7.731 -0.0664  0.4026 -0.5113
 2210TIP3    H228190   0.786   0.569   7.869  0.0744  1.8369 -0.6099
 2211TIP3   OH228191   4.119   5.834   1.956 -0.1431 -0.0965 -0.4704
 2211TIP3    H128192   4.046   5.772   1.949  0.3829 -0.8212  0.1833
 2211TIP3    H228193   4.139   5.835   2.050  0.1274  0.7552 -0.5358
 2212TIP3   OH228194   0.817   0.503   2.118  0.0439  0.7498  0.2129
 2212TIP3    H128195   0.771   0.509   2.202  0.1118 -1.6308  0.4704
 2212TIP3    H228196   0.907   0.482   2.142  0.0810  0.1280 -0.4544
 2213TIP3   OH228197   4.800   6.581   1.524  0.6812 -0.5031  0.2417
 2213TIP3    H128198   4.718   6.618   1.491  0.2167  1.2440  3.0327
 2213TIP3    H228199   4.795   6.488   1.503 -1.4819 -0.2452 -0.6419
 2214TIP3   OH228200   4.336   6.143   0.251 -0.1255 -0.8118 -0.0330
 2214TIP3    H128201   4.388   6.139   0.171  0.7819 -1.5775  0.5547
 2214TIP3    H228202   4.293   6.058   0.256 -1.0128 -0.3843 -0.2252
 2215TIP3   OH228203   5.042   6.487   0.459 -0.4337  0.2140 -0.2082
 2215TIP3    H128204   5.099   6.557   0.489 -0.4694 -0.3102  1.1391
 2215TIP3    H228205   5.097   6.433   0.403  0.0886  0.3180  0.1986
 2216TIP3   OH228206   6.782   1.329   2.219  0.0166 -0.2811 -0.2528
 2216TIP3    H128207   6.714   1.287   2.270 -2.6072  0.4074 -2.9175
 2216TIP3    H228208   6.840   1.258   2.192 -0.3325 -1.0761  1.0588
 2217TIP3   OH228209   6.628   0.156   0.772 -0.5032  0.2278  0.4478
 2217TIP3    H128210   6.639   0.186   0.862 -0.2960  4.3023 -0.7367
 2217TIP3    H228211   6.538   0.181   0.749 -0.2451  0.1216 -0.7233
 2218TIP3   OH228212   3.637   5.918   2.761  0.1575  0.4317 -0.0465
 2218TIP3    H128213   3.720   5.920   2.807  0.7005  2.5528 -0.9776
 2218TIP3    H228214   3.659   5.885   2.673 -0.1762  0.0562  0.0070
 2219TIP3   OH228215   4.946   1.463   3.389 -0.1372  0.0341  0.5882
 2219TIP3    H128216   5.016   1.417   3.343  0.0251  1.8018 -1.0570
 2219TIP3    H228217   4.983   1.484   3.475  0.0269 -2.1676  1.1133
 2220TIP3   OH228218   0.120   2.475   7.175 -0.4953 -0.2442 -0.3360
 2220TIP3    H128219   0.055   2.545   7.189 -1.1933 -0.6760 -1.3128
 2220TIP3    H228220   0.178   2.510   7.108 -2.1929 -1.4226 -2.5415
 2221TIP3   OH228221   0.951   5.675   3.097  0.2478  0.4810  0.4961
 2221TIP3    H128222   0.936   5.596   3.149 -1.3675 -0.9049 -1.8683
 2221TIP3    H228223   1.019   5.651   3.034  1.1881  1.6704  1.0169
 2222TIP3   OH228224   3.159   5.804   2.244  0.3307 -0.3434  0.4940
 2222TIP3    H128225   3.241   5.757   2.259 -0.0423 -1.1949 -0.0218
 2222TIP3    H228226   3.122   5.815   2.331  0.4264 -1.0301  0.6318
 2223TIP3   OH228227   4.934   3.160   7.452  0.4907  0.3123 -0.2583
 2223TIP3    H128228   4.883   3.209   7.516 -0.9139 -1.6180  0.1716
 2223TIP3    H228229   4.922   3.207   7.370  1.0807  1.9636  0.5633
 2224TIP3   OH228230   0.448   4.307   1.860  0.4469 -0.2071  0.1460
 2224TIP3    H128231   0.530   4.338   1.898  0.4468  1.5615 -1.1515
 2224TIP3    H228232   0.380   4.342   1.917  0.5502 -0.0685  0.1853
 2225TIP3   OH228233   3.851   4.060   8.241  0.2562 -0.3600 -0.7028
 2225TIP3    H128234   3.813   4.028   8.159 -3.0765  0.6856  0.3087
 2225TIP3    H228235   3.833   3.991   8.304 -0.0381  0.1976 -0.1719
 2226TIP3   OH228236   3.440   0.827   7.156  0.0041 -0.1901  0.1755
 2226TIP3    H128237   3.437   0.731   7.164  2.0021 -0.3171  0.0621
 2226TIP3    H228238   3.445   0.842   7.061  0.0973 -0.0042  0.2101
 2227TIP3   OH228239   0.373   3.627   0.457 -0.4681 -0.4239 -0.1465
 2227TIP3    H128240   0.283   3.604   0.479  0.2259 -2.7776  0.4947
 2227TIP3    H228241   0.408   3.666   0.538 -0.7632  0.0630 -0.2499
 2228TIP3   OH228242   6.714   3.223   1.490  0.1617  0.2972 -0.6219
 2228TIP3    H128243   6.685   3.132   1.487 -0.4453  0.4964 -1.0638
 2228TIP3    H228244   6.785   3.224   1.554 -0.6559 -0.2477  0.3028
 2229TIP3   OH228245   3.935   2.953   8.217  0.6167  0.7753 -0.4396
 2229TIP3    H128246   3.875   3.021   8.247 -0.3435 -0.4704  0.6051
 2229TIP3    H228247   3.883   2.873   8.220  2.3792 -0.3897  0.7296
 2230TIP3   OH228248   2.913   1.835   0.496  0.4796  0.5106  0.0641
 2230TIP3    H128249   2.906   1.870   0.407 -0.8091 -0.0073 -0.0673
 2230TIP3    H228250   3.007   1.824   0.511  0.8325  2.4412 -0.4935
 2231TIP3   OH228251   1.374   4.968   3.193 -0.2058 -0.0161  0.9919
 2231TIP3    H128252   1.457   4.935   3.160 -0.7940  0.2025 -0.8543
 2231TIP3    H228253   1.347   4.905   3.260  1.7907  0.3438  2.1972
 2232TIP3   OH228254   2.915   5.840   2.105  0.5358 -0.4233  0.0414
 2232TIP3    H128255   3.001   5.807   2.133  1.1201  0.9473 -0.0409
 2232TIP3    H228256   2.854   5.804   2.169  0.9015 -2.7873 -0.8404
 2233TIP3   OH228257   0.564   4.455   1.303 -0.7080 -0.0600  0.3393
 2233TIP3    H128258   0.602   4.543   1.312 -0.7593 -0.1019  1.0136
 2233TIP3    H228259   0.639   4.398   1.284 -0.8302  0.3093 -1.4549
 2234TIP3   OH228260   1.790   4.635   2.931 -0.2647  0.1877 -0.9051
 2234TIP3    H128261   1.784   4.704   2.865  2.0199  0.6099 -0.7710
 2234TIP3    H228262   1.817   4.680   3.011 -1.9965 -0.4530  0.0882
 2235TIP3   OH228263   5.533   0.021   7.523  0.2770 -0.5668  0.8908
 2235TIP3    H128264   5.466   0.048   7.460  0.4272 -1.3348  0.3970
 2235TIP3    H228265   5.605   0.083   7.510 -0.3911  0.3731  1.5445
 2236TIP3   OH228266   3.968   4.479   7.448 -0.0678 -0.4206 -0.1945
 2236TIP3    H128267   3.907   4.440   7.510 -0.7634  0.9355 -0.0113
 2236TIP3    H228268   3.992   4.406   7.390 -0.3740 -1.4058  0.8722
 2237TIP3   OH228269   6.876   0.208   2.896 -0.4179 -0.1728  0.0069
 2237TIP3    H128270   6.852   0.300   2.908  0.0972  0.1675 -1.3798
 2237TIP3    H228271   6.868   0.169   2.983 -0.6378  1.1842  0.6122
 2238TIP3   OH228272   5.165   5.795   2.070  0.1255 -0.8738  0.0105
 2238TIP3    H128273   5.217   5.874   2.055 -0.6037 -0.3669  0.0507
 2238TIP3    H228274   5.168   5.783   2.165  0.0419 -0.7524  0.0292
 2239TIP3   OH228275   5.091   0.033   7.370 -0.5676  1.2277 -0.2036
 2239TIP3    H128276   5.088   0.128   7.382  0.7611  1.2058  0.5445
 2239TIP3    H228277   5.145   0.021   7.293 -1.5714  1.0920 -0.8988
 2240TIP3   OH228278   0.239   6.526   7.784 -0.2250  0.3580  0.4709
 2240TIP3    H128279   0.157   6.544   7.738 -0.1276  0.3068  0.2762
 2240TIP3    H228280   0.251   6.432   7.776 -0.1886  0.3544  0.5693
 2241TIP3   OH228281   0.148   2.669   0.318  0.4083 -0.2527 -0.2276
 2241TIP3    H128282   0.081   2.616   0.362 -0.2116  0.5548 -0.1893
 2241TIP3    H228283   0.180   2.729   0.385 -1.3182  1.7408 -1.0768
 2242TIP3   OH228284   1.640   3.933   2.820  0.0720 -0.1299 -0.4144
 2242TIP3    H128285   1.657   3.886   2.739  0.4481 -0.6566 -0.0406
 2242TIP3    H228286   1.646   3.866   2.888  3.1141  0.7849  0.3987
 2243TIP3   OH228287   2.362   0.162   1.096  0.1850  0.0877 -0.5331
 2243TIP3    H128288   2.304   0.233   1.071 -0.3384 -0.1027  0.0941
 2243TIP3    H228289   2.359   0.161   1.192 -0.3601 -1.1969 -0.5374
 2244TIP3   OH228290   4.536   3.527   8.216  0.7647  0.1055  0.0273
 2244TIP3    H128291   4.443   3.530   8.194  0.5994 -1.6562  0.3285
 2244TIP3    H228292   4.576   3.594   8.161 -0.7435  1.2968  0.3070
 2245TIP3   OH228293   4.264   2.147   0.176 -0.4948  0.5528  0.0112
 2245TIP3    H128294   4.297   2.127   0.088  1.1250 -1.0263  0.9380
 2245TIP3    H228295   4.189   2.089   0.187 -0.7147  0.7684 -0.3216
 2246TIP3   OH228296   4.081   1.110   0.958 -0.0782 -0.1704  0.0654
 2246TIP3    H128297   3.988   1.101   0.979  0.2091  0.6301  1.9558
 2246TIP3    H228298   4.106   1.027   0.919 -0.8945 -1.6448  2.4799
 2247TIP3   OH228299   3.497   6.184   0.170 -0.7461  0.3167 -0.2387
 2247TIP3    H128300   3.527   6.146   0.087 -2.5772 -0.7870 -0.4351
 2247TIP3    H228301   3.440   6.256   0.144 -0.0746  0.9842  0.1039
 2248TIP3   OH228302   2.788   3.034   2.725 -0.2115 -0.5818  0.2096
 2248TIP3    H128303   2.771   3.127   2.710 -2.4261 -0.7915  1.1018
 2248TIP3    H228304   2.877   3.020   2.692  0.1375  1.8211 -0.0086
 2249TIP3   OH228305   0.037   4.754   1.634  0.0409 -0.6402  0.0761
 2249TIP3    H128306   0.121   4.707   1.630 -0.4452 -1.5358  0.0181
 2249TIP3    H228307   0.038   4.797   1.720  0.8463 -0.0663 -0.2077
 2250TIP3   OH228308   2.403   3.640   2.859  0.4754  0.0889 -0.0000
 2250TIP3    H128309   2.466   3.673   2.923  2.1117 -1.4580 -0.7169
 2250TIP3    H228310   2.380   3.716   2.806 -0.8697  1.4021  2.2942
 2251TIP3   OH228311   1.899   4.501   2.257 -0.2139 -0.6622 -0.2983
 2251TIP3    H128312   1.856   4.587   2.262  1.1353  0.0961 -0.9896
 2251TIP3    H228313   1.887   4.463   2.344  0.4395  0.8862  0.5130
 2252TIP3   OH228314   6.777   4.332   6.946  0.4486  0.4061  0.1030
 2252TIP3    H128315   6.696   4.300   6.906  1.4887 -2.2983 -0.0974
 2252TIP3    H228316   6.753   4.349   7.037 -0.4634  0.0258 -0.0534
 2253TIP3   OH228317   0.226   2.685   7.692  0.3148 -0.0388 -0.4480
 2253TIP3    H128318   0.209   2.591   7.683  1.4206 -0.1962 -1.1188
 2253TIP3    H228319   0.139   2.724   7.702 -0.1154 -1.2003  0.6427
 2254TIP3   OH228320   2.340   1.942   0.987  0.1560 -0.1140 -0.3114
 2254TIP3    H128321   2.280   1.999   0.938 -1.3452  0.3676  1.9355
 2254TIP3    H228322   2.354   1.989   1.070  2.8690 -0.7190 -0.3480
 2255TIP3   OH228323   5.364   6.432   2.659 -0.3978  0.0767  0.1157
 2255TIP3    H128324   5.455   6.404   2.664  0.3703  2.3712  0.1985
 2255TIP3    H228325   5.317   6.372   2.717  0.9927 -1.3172 -0.1436
 2256TIP3   OH228326   2.237   4.275   2.351  0.5244 -0.7268  0.1766
 2256TIP3    H128327   2.156   4.234   2.384 -0.3825 -0.5333 -1.6966
 2256TIP3    H228328   2.266   4.218   2.280  0.8610  0.3095 -0.5476
 2257TIP3   OH228329   0.019   2.514   8.015  0.0610  0.2798 -0.4107
 2257TIP3    H128330  -0.053   2.474   8.063 -1.0796  1.4374 -1.0922
 2257TIP3    H228331   0.076   2.551   8.083  0.7654 -1.8027  0.1921
 2258TIP3   OH228332   5.484   5.851   1.502  0.6331 -0.1929 -0.7069
 2258TIP3    H128333   5.508   5.792   1.430  2.0992  0.8402 -1.1230
 2258TIP3    H228334   5.514   5.937   1.473 -0.9706  0.6940  0.1128
 2259TIP3   OH228335   3.133   1.206   0.778  0.5695  0.2937 -0.1724
 2259TIP3    H128336   3.164   1.149   0.708  2.6531  0.5940  0.4355
 2259TIP3    H228337   3.087   1.148   0.838  5.1049 -1.5683  1.9802
 2260TIP3   OH228338   4.810   2.265   1.375 -0.4845  0.4212  0.1037
 2260TIP3    H128339   4.798   2.315   1.294  0.2756  0.5361  0.0556
 2260TIP3    H228340   4.868   2.194   1.350 -2.3967 -1.1596 -0.0901
 2261TIP3   OH228341   3.618   0.813   8.122 -0.1442  0.4621  0.1009
 2261TIP3    H128342   3.708   0.839   8.141 -0.5886  2.6775 -0.5666
 2261TIP3    H228343   3.612   0.816   8.026 -1.1231  1.1725  0.1649
 2262TIP3   OH228344   6.707   4.619   0.118 -0.3514 -0.2129 -0.1140
 2262TIP3    H128345   6.791   4.654   0.089  0.1286  0.1579  1.6035
 2262TIP3    H228346   6.715   4.524   0.106  0.7974 -0.3034  1.1333
 2263TIP3   OH228347   4.375   1.365   0.773 -0.0747 -0.1936 -0.0793
 2263TIP3    H128348   4.356   1.439   0.716  0.4539  0.6920  0.8546
 2263TIP3    H228349   4.312   1.374   0.845  1.2961  0.5564  1.0831
 2264TIP3   OH228350   5.395   6.110   2.502 -0.2860 -0.2975  0.8696
 2264TIP3    H128351   5.459   6.172   2.536  1.4988 -0.6646 -1.5512
 2264TIP3    H228352   5.310   6.149   2.522  0.6158  0.2795  4.0589
 2265TIP3   OH228353   0.497   5.395   2.707 -0.7854 -0.7088 -0.4167
 2265TIP3    H128354   0.444   5.322   2.739 -2.0278  0.0826 -0.5977
 2265TIP3    H228355   0.441   5.472   2.720  0.7626  0.3166  0.4456
 2266TIP3   OH228356   4.730   5.634   0.369 -0.1760  0.2878  0.0400
 2266TIP3    H128357   4.640   5.659   0.393 -2.1634 -5.1304 -0.4139
 2266TIP3    H228358   4.732   5.644   0.273 -1.3599 -1.8846 -0.2849
 2267TIP3   OH228359   1.700   4.749   7.846 -0.0378  0.3916 -0.8470
 2267TIP3    H128360   1.768   4.692   7.809 -1.2275 -0.5308 -1.6831
 2267TIP3    H228361   1.618   4.716   7.808 -1.0023  1.2242  0.4415
 2268TIP3   OH228362   6.702   2.117   2.483 -0.0460  0.1964 -0.3219
 2268TIP3    H128363   6.619   2.154   2.513 -0.5701 -1.1609  0.0002
 2268TIP3    H228364   6.692   2.111   2.387 -0.2965  0.1237 -0.2940
 2269TIP3   OH228365   2.465   6.895   6.849  0.2781 -0.3603 -0.5637
 2269TIP3    H128366   2.517   6.970   6.819 -0.9690  0.8418  0.1702
 2269TIP3    H228367   2.411   6.871   6.774 -0.0611  0.1496 -0.4852
 2270TIP3   OH228368   1.893   1.449   1.334  0.1232 -0.2288 -0.2197
 2270TIP3    H128369   1.819   1.506   1.354 -0.1108 -0.2910 -0.8937
 2270TIP3    H228370   1.854   1.363   1.321  0.6469 -0.9286  2.4137
 2271TIP3   OH228371   2.978   5.797   2.804  0.0713 -0.1052  0.2266
 2271TIP3    H128372   2.986   5.774   2.711 -0.1493 -0.2028  0.2293
 2271TIP3    H228373   3.054   5.852   2.822  0.3182 -0.3978  0.0823
 2272TIP3   OH228374   3.464   4.555   1.837  0.2968  0.0269  0.3281
 2272TIP3    H128375   3.416   4.512   1.766 -0.0143  0.1347  0.4766
 2272TIP3    H228376   3.473   4.487   1.904  2.4620 -0.7628 -0.6708
 2273TIP3   OH228377   2.662   4.750   0.708 -0.0299  0.2518  0.5732
 2273TIP3    H128378   2.599   4.805   0.756  0.9537  1.7420  0.2135
 2273TIP3    H228379   2.685   4.681   0.770 -1.0469  0.4191  1.1640
 2274TIP3   OH228380   1.724   0.472   0.594  0.2318  0.2133  0.6555
 2274TIP3    H128381   1.794   0.443   0.535  1.5040  2.4415  0.9619
 2274TIP3    H228382   1.649   0.486   0.536  0.3932 -1.0013  0.1272
 2275TIP3   OH228383   2.477   2.316   8.215 -0.2983 -0.1153 -0.2928
 2275TIP3    H128384   2.480   2.399   8.166 -1.9986  0.1975  0.0717
 2275TIP3    H228385   2.467   2.249   8.148  0.2101  0.0464 -0.5368
 2276TIP3   OH228386   4.889   6.538   7.644 -0.4834 -0.2100 -0.0402
 2276TIP3    H128387   4.894   6.585   7.561 -0.5914  0.2567  0.2162
 2276TIP3    H228388   4.889   6.445   7.619  0.6246 -0.1005 -0.5003
 2277TIP3   OH228389   1.716   4.736   2.156 -0.6717 -0.1223  0.3125
 2277TIP3    H128390   1.714   4.829   2.175  0.9474  0.0844 -0.3831
 2277TIP3    H228391   1.629   4.716   2.121 -1.4984  0.8182  1.7445
 2278TIP3   OH228392   1.051   6.638   0.476  0.2233  0.7120  0.5606
 2278TIP3    H128393   0.958   6.633   0.495  0.4105  0.1867  1.4134
 2278TIP3    H228394   1.068   6.731   0.462 -0.2758  0.9100  1.2225
 2279TIP3   OH228395   4.331   6.221   1.178 -0.3161 -0.2222  0.1553
 2279TIP3    H128396   4.245   6.258   1.196 -0.2227  0.8242 -1.3784
 2279TIP3    H228397   4.392   6.293   1.195  0.2669 -0.9519  1.2215
 2280TIP3   OH228398   0.271   3.515   1.419  0.2160 -0.3765  0.3075
 2280TIP3    H128399   0.310   3.598   1.389  1.0574 -1.1763 -0.8996
 2280TIP3    H228400   0.345   3.460   1.443 -0.1076 -1.7815 -1.6380
 2281TIP3   OH228401   4.683   0.253   7.665  0.0757 -0.7066 -0.6214
 2281TIP3    H128402   4.722   0.331   7.625 -0.3989  0.0102  0.2725
 2281TIP3    H228403   4.693   0.267   7.759 -3.0309 -0.0847 -0.2893
 2282TIP3   OH228404   0.410   2.506   1.772 -0.3299  0.7371  0.3194
 2282TIP3    H128405   0.496   2.545   1.757 -0.2483 -0.1460 -1.9892
 2282TIP3    H228406   0.428   2.421   1.811 -0.2028  0.9017  0.6191
 2283TIP3   OH228407   6.010   0.120   2.258  0.0961 -0.0894 -0.0320
 2283TIP3    H128408   6.070   0.190   2.283  0.3147  1.8047 -4.7593
 2283TIP3    H228409   5.925   0.150   2.289  0.5648  0.9877  0.2699
 2284TIP3   OH228410   4.200   4.202   7.044  0.2001  0.0133 -0.0102
 2284TIP3    H128411   4.269   4.190   7.109  1.7063  0.8109 -1.3763
 2284TIP3    H228412   4.212   4.129   6.983 -0.6524 -0.2616  0.1478
 2285TIP3   OH228413   1.539   5.548   3.294  0.0976  0.1094 -0.2720
 2285TIP3    H128414   1.444   5.550   3.281 -0.2639  0.3596  2.0215
 2285TIP3    H228415   1.569   5.473   3.243 -0.5972  2.4907 -4.7164
 2286TIP3   OH228416   3.565   4.597   0.630  0.0022 -0.7965  0.1414
 2286TIP3    H128417   3.535   4.660   0.695 -0.5611  2.0813 -2.6809
 2286TIP3    H228418   3.656   4.578   0.654 -0.4449 -0.5155  2.1842
 2287TIP3   OH228419   1.885   2.070   1.878  0.4302  0.3595  0.1658
 2287TIP3    H128420   1.976   2.099   1.888  0.5745 -0.0916  0.1798
 2287TIP3    H228421   1.888   1.976   1.898 -0.2420  0.5691  1.3591
 2288TIP3   OH228422   2.996   6.547   7.861  0.4804 -0.3184 -0.3125
 2288TIP3    H128423   2.925   6.550   7.797  1.0589  1.3697 -0.9386
 2288TIP3    H228424   3.020   6.455   7.866  0.6454 -0.4882 -2.8353
 2289TIP3   OH228425   0.103   6.753   1.428 -0.2140  0.2684 -0.4748
 2289TIP3    H128426   0.079   6.662   1.415  0.7020 -0.1848  0.8016
 2289TIP3    H228427   0.092   6.794   1.342 -0.2127 -1.1372 -1.1641
 2290TIP3   OH228428   6.081   1.874   1.192  0.2109  0.5454 -0.3647
 2290TIP3    H128429   6.155   1.908   1.243  0.7219  1.7849 -1.8447
 2290TIP3    H228430   6.113   1.792   1.155  0.1875  0.1562  0.4441
 2291TIP3   OH228431   2.259   6.173   2.119 -0.1109 -0.6273 -0.1631
 2291TIP3    H128432   2.246   6.258   2.077 -0.9312 -0.6962 -0.0611
 2291TIP3    H228433   2.341   6.141   2.081 -1.3969 -1.2211 -2.6913
 2292TIP3   OH228434   0.872   1.336   0.139  0.0603 -0.0223 -0.2335
 2292TIP3    H128435   0.869   1.307   0.231 -0.6135  1.2487  0.1594
 2292TIP3    H228436   0.885   1.430   0.144  0.0963  0.0483 -1.4614
 2293TIP3   OH228437   1.022   1.475   0.599 -0.2767  0.4451 -0.0978
 2293TIP3    H128438   1.037   1.495   0.507 -0.4874 -1.2099 -0.5250
 2293TIP3    H228439   1.059   1.549   0.646  1.7630  0.3682 -1.4434
 2294TIP3   OH228440   0.319   6.281   7.703 -0.2429  0.0113  0.5434
 2294TIP3    H128441   0.300   6.236   7.621 -0.7857  1.7018 -0.3003
 2294TIP3    H228442   0.414   6.279   7.711 -0.1965 -0.2446 -0.0808
 2295TIP3   OH228443   5.560   0.664   1.519 -0.0709  0.1367 -0.5336
 2295TIP3    H128444   5.595   0.631   1.436  1.6240  2.3925 -0.8123
 2295TIP3    H228445   5.628   0.722   1.552 -1.1620  0.1010  1.9535
 2296TIP3   OH228446   5.834   0.450   3.081  0.2163 -0.6411 -0.0033
 2296TIP3    H128447   5.858   0.535   3.042  0.6388 -1.3079 -1.2700
 2296TIP3    H228448   5.916   0.416   3.116  0.7887 -1.9484 -2.4039
 2297TIP3   OH228449   3.195   6.877   7.306 -0.1156  0.1977  0.1242
 2297TIP3    H128450   3.218   6.855   7.215 -1.3145 -1.7858  0.2209
 2297TIP3    H228451   3.164   6.794   7.342  0.2027  0.9857  2.3279
 2298TIP3   OH228452   0.246   6.686   0.764 -0.0708  0.0922  0.4841
 2298TIP3    H128453   0.163   6.643   0.742  0.9198 -1.7366  0.1696
 2298TIP3    H228454   0.302   6.615   0.797  1.1786  1.3988  1.2768
 2299TIP3   OH228455   1.453   4.276   3.040  0.1526  0.6468  0.1410
 2299TIP3    H128456   1.379   4.304   3.093  0.3662  1.2436  0.1263
 2299TIP3    H228457   1.529   4.319   3.078  1.1924 -2.9268  2.6286
 2300TIP3   OH228458   6.900   1.559   7.830 -0.1481 -0.1517  0.5415
 2300TIP3    H128459   6.811   1.589   7.814 -0.5692 -1.0006  1.2001
 2300TIP3    H228460   6.904   1.544   7.925 -0.0922 -2.4073  0.2524
 2301TIP3   OH228461   6.215   5.394   2.371 -0.6283  0.2156  0.1204
 2301TIP3    H128462   6.211   5.364   2.461 -0.8811 -1.6893 -0.4870
 2301TIP3    H228463   6.287   5.344   2.332  1.7061  3.3458  0.0439
 2302TIP3   OH228464   4.085   5.478   7.292  0.2050  0.3231  0.4394
 2302TIP3    H128465   4.111   5.423   7.218  0.3477  0.2929  0.5123
 2302TIP3    H228466   4.082   5.418   7.367 -1.3942  0.0430  0.1757
 2303TIP3   OH228467   4.227   2.568   0.445  0.0977 -0.0926 -0.2638
 2303TIP3    H128468   4.140   2.605   0.434  0.6462  0.9106 -1.6936
 2303TIP3    H228469   4.249   2.532   0.359  1.6095  0.9046 -0.3396
 2304TIP3   OH228470   5.723   6.447   1.087  0.5497  0.0321 -0.1071
 2304TIP3    H128471   5.701   6.527   1.041  2.3901  0.0519 -1.0463
 2304TIP3    H228472   5.731   6.473   1.179  1.9605  1.1385 -0.5160
 2305TIP3   OH228473   2.405   5.954   8.423  0.6453  0.4344 -0.2051
 2305TIP3    H128474   2.485   6.005   8.416  0.1880  1.1112 -0.6849
 2305TIP3    H228475   2.360   5.991   8.499  0.9603 -0.2001  0.2951
 2306TIP3   OH228476   6.384   2.113   3.082 -0.3916  0.8818  0.1194
 2306TIP3    H128477   6.382   2.070   2.996  0.2815 -0.0519  0.5594
 2306TIP3    H228478   6.418   2.046   3.141 -0.2737  1.7172  1.0059
 2307TIP3   OH228479   1.882   3.411   1.599  0.2622  0.2572 -0.1218
 2307TIP3    H128480   1.966   3.398   1.644  0.1079 -1.1343 -0.1992
 2307TIP3    H228481   1.907   3.438   1.511  0.5904  1.4433  0.3178
 2308TIP3   OH228482   4.838   3.623   7.825  0.3002 -0.1236 -0.2964
 2308TIP3    H128483   4.908   3.631   7.890 -0.7310 -0.1881  0.8515
 2308TIP3    H228484   4.847   3.701   7.771 -0.0942  1.0310  1.2271
 2309TIP3   OH228485   2.166   0.729   2.452  0.3577  0.2167 -0.0010
 2309TIP3    H128486   2.187   0.776   2.533 -1.2849 -0.4698  0.8838
 2309TIP3    H228487   2.148   0.639   2.481 -0.2228 -0.0453 -1.1312
 2310TIP3   OH228488   3.684   3.380   7.876 -0.6587  0.0019  0.0834
 2310TIP3    H128489   3.660   3.342   7.792  1.1448 -2.0559  0.3906
 2310TIP3    H228490   3.660   3.312   7.940 -2.4941  1.7298  1.3358
 2311TIP3   OH228491   3.060   2.000   0.312  0.3363  0.2491  0.3477
 2311TIP3    H128492   3.038   2.057   0.385 -0.1228 -2.4263  2.4824
 2311TIP3    H228493   3.151   1.973   0.329  0.0723 -0.7654  0.2446
 2312TIP3   OH228494   1.584   6.514   2.824 -0.6581 -0.2174  0.0815
 2312TIP3    H128495   1.565   6.448   2.891 -1.0568  0.1948  0.3816
 2312TIP3    H228496   1.679   6.507   2.810 -0.7195 -0.9631 -0.0131
 2313TIP3   OH228497   1.758   0.751   2.072  0.1717  0.2328  0.2519
 2313TIP3    H128498   1.760   0.658   2.051 -0.5718  0.3440 -0.3569
 2313TIP3    H228499   1.714   0.756   2.157 -1.2740  0.1274 -0.4542
 2314TIP3   OH228500   1.702   0.537   8.308  0.9752  0.0752  0.2979
 2314TIP3    H128501   1.794   0.560   8.321  0.5230  1.7265  0.8413
 2314TIP3    H228502   1.662   0.550   8.394  0.4099 -1.7103  0.3537
 2315TIP3   OH228503   2.426   5.070   2.262  0.5905 -0.8446  0.2660
 2315TIP3    H128504   2.375   5.142   2.299  0.4165 -1.6017  1.5559
 2315TIP3    H228505   2.511   5.077   2.305  1.4757  0.1503 -1.5552
 2316TIP3   OH228506   6.924   4.056   2.111 -0.2044 -0.4865  0.5937
 2316TIP3    H128507   6.991   4.047   2.043 -0.1917  2.7056  0.0178
 2316TIP3    H228508   6.974   4.052   2.193  0.2237 -1.1629  0.3169
 2317TIP3   OH228509   5.301   0.230   2.379  0.2861 -0.2600  0.1644
 2317TIP3    H128510   5.282   0.149   2.332 -0.2309  0.1223 -0.3023
 2317TIP3    H228511   5.217   0.276   2.381  0.8272  0.7935 -0.6016
 2318TIP3   OH228512   3.048   5.939   0.853 -0.5221  0.5772 -0.0194
 2318TIP3    H128513   2.989   5.868   0.880  0.4653  0.1886  1.2138
 2318TIP3    H228514   3.059   5.992   0.932 -0.1222  1.2943 -0.5472
 2319TIP3   OH228515   0.584   5.323   0.714 -0.0642 -0.8502 -0.3667
 2319TIP3    H128516   0.570   5.246   0.770  2.0334 -2.2017 -1.5507
 2319TIP3    H228517   0.532   5.306   0.636  0.5292 -1.1752 -0.6988
 2320TIP3   OH228518   4.853   5.532   2.833 -0.2558  0.2522 -0.5724
 2320TIP3    H128519   4.800   5.499   2.760 -0.8439 -0.1840  0.0433
 2320TIP3    H228520   4.940   5.494   2.818  0.3561  2.1511 -2.4090
 2321TIP3   OH228521   4.952   3.877   1.543 -0.1409  0.0917  0.0471
 2321TIP3    H128522   4.970   3.782   1.540  0.4999  0.2010  0.2370
 2321TIP3    H228523   4.914   3.891   1.629  0.0966  0.0570  0.1603
 2322TIP3   OH228524   0.678   5.514   1.389  0.2462 -0.0241  0.6997
 2322TIP3    H128525   0.743   5.550   1.449  0.5496  1.1322 -0.2886
 2322TIP3    H228526   0.594   5.531   1.432  0.5289 -0.4705  1.4404
 2323TIP3   OH228527   1.939   5.994   8.410  0.4213 -0.1243  0.3901
 2323TIP3    H128528   1.860   5.964   8.364  1.1398 -0.4438 -0.6860
 2323TIP3    H228529   1.946   5.935   8.485  1.4529 -2.3880 -1.3398
 2324TIP3   OH228530   2.080   5.531   0.636  0.2849 -0.0713  0.7233
 2324TIP3    H128531   1.991   5.496   0.632  0.6742 -0.9484 -2.4792
 2324TIP3    H228532   2.069   5.624   0.618 -0.0338  0.0209  1.3415
 2325TIP3   OH228533   1.367   0.727   7.951 -0.1083  0.6957 -0.3822
 2325TIP3    H128534   1.280   0.687   7.951  0.0415  0.1224  2.7050
 2325TIP3    H228535   1.425   0.661   7.989  1.8764  0.8685 -2.8188
 2326TIP3   OH228536   2.366   3.907   8.041 -0.3046  0.1569  0.6264
 2326TIP3    H128537   2.396   3.832   8.092  0.7353  0.0409 -0.1390
 2326TIP3    H228538   2.430   3.916   7.971 -1.0026  1.1118  0.0891
 2327TIP3   OH228539   0.219   2.362   7.497  0.2367 -0.3223  0.4536
 2327TIP3    H128540   0.203   2.335   7.588 -0.1902  0.2062  0.5375
 2327TIP3    H228541   0.134   2.388   7.464  0.7381  1.7476  0.6525
 2328TIP3   OH228542   5.640   5.523   8.079  0.0156 -0.1965  0.7537
 2328TIP3    H128543   5.688   5.598   8.114  2.2244 -0.7986 -0.7562
 2328TIP3    H228544   5.615   5.472   8.156  2.1275  0.0201  1.6710
 2329TIP3   OH228545   3.833   3.978   1.979 -0.1890  0.4430  0.1316
 2329TIP3    H128546   3.897   3.985   1.908  1.5251 -0.0856  1.5471
 2329TIP3    H228547   3.848   4.057   2.032 -0.1858 -0.0326  0.8612
 2330TIP3   OH228548   3.551   1.974   1.283 -0.4714 -0.2317  0.6689
 2330TIP3    H128549   3.533   1.941   1.195  1.0995 -1.6738  0.8378
 2330TIP3    H228550   3.550   1.896   1.338 -2.1906  0.7313  2.1101
 2331TIP3   OH228551   2.556   5.560   7.505  0.0795  0.1201  0.7114
 2331TIP3    H128552   2.512   5.486   7.547 -0.4083  0.0735  0.1322
 2331TIP3    H228553   2.636   5.522   7.470 -0.7924 -0.4571 -0.7429
 2332TIP3   OH228554   1.765   5.690   7.459 -0.5747 -0.4012  0.5621
 2332TIP3    H128555   1.831   5.683   7.390 -0.4322  0.7989  0.5525
 2332TIP3    H228556   1.792   5.626   7.525 -1.3018 -2.3187 -0.9388
 2333TIP3   OH228557   3.828   6.455   1.678 -0.3894 -0.0612  0.4248
 2333TIP3    H128558   3.754   6.417   1.631  0.2966 -0.7296 -0.1588
 2333TIP3    H228559   3.857   6.527   1.622  0.5371 -0.9670 -0.3028
 2334TIP3   OH228560   3.523   5.531   1.873  0.4042  0.1063  0.0735
 2334TIP3    H128561   3.504   5.516   1.965  0.5646  2.1829  0.4976
 2334TIP3    H228562   3.438   5.526   1.830  0.3966 -1.3968  0.2315
 2335TIP3   OH228563   6.404   5.779   0.305 -0.3510  0.2516 -0.2870
 2335TIP3    H128564   6.457   5.786   0.384  1.0075  1.8222 -1.2781
 2335TIP3    H228565   6.446   5.708   0.255 -1.3941 -0.9521  0.4867
 2336TIP3   OH228566   5.163   3.336   3.116  0.1763 -0.1460 -0.7071
 2336TIP3    H128567   5.072   3.345   3.144  0.4842 -0.3296  0.3876
 2336TIP3    H228568   5.214   3.375   3.187  1.0433 -1.8129 -0.3737
 2337TIP3   OH228569   4.972   2.193   0.219 -0.5067 -0.7574  0.2300
 2337TIP3    H128570   4.912   2.124   0.192 -0.4692 -0.9870  0.7248
 2337TIP3    H228571   4.950   2.210   0.310  1.5775 -2.3604  1.1196
 2338TIP3   OH228572   2.098   5.044   8.015 -0.0021  0.0668 -0.2963
 2338TIP3    H128573   2.130   4.975   8.074  0.9707 -0.7768 -1.7633
 2338TIP3    H228574   2.079   4.998   7.933  1.3336  1.6342 -1.5414
 2339TIP3   OH228575   6.072   1.335   7.003 -0.6069  0.3659  0.4127
 2339TIP3    H128576   6.149   1.279   6.997 -0.1925  0.9189  0.4411
 2339TIP3    H228577   6.105   1.418   7.039 -1.1300  0.7615  0.0110
 2340TIP3   OH228578   4.409   3.968   2.641  0.6134  0.4959 -0.0272
 2340TIP3    H128579   4.356   4.046   2.623 -0.5699 -0.3355 -0.2951
 2340TIP3    H228580   4.449   3.946   2.557 -2.3997 -1.5449 -1.1352
 2341TIP3   OH228581   6.768   5.674   1.860  0.0882  0.6570 -0.2466
 2341TIP3    H128582   6.834   5.686   1.792  0.8769 -0.1296  0.3637
 2341TIP3    H228583   6.743   5.582   1.853  0.7806  0.3514  1.0429
 2342TIP3   OH228584   1.211   4.601   0.570 -0.8871  0.4717 -0.2042
 2342TIP3    H128585   1.304   4.590   0.589 -0.2786  2.2916 -1.8461
 2342TIP3    H228586   1.168   4.594   0.656  0.8169  0.3485  0.6783
 2343TIP3   OH228587   2.116   6.737   0.240  0.3544  0.4734 -0.5273
 2343TIP3    H128588   2.124   6.723   0.335 -0.1534 -1.4472 -0.7208
 2343TIP3    H228589   2.046   6.801   0.232  1.9234  2.4045  0.4429
 2344TIP3   OH228590   4.331   2.149   8.326 -0.5391  0.2221  0.4911
 2344TIP3    H128591   4.423   2.154   8.353  0.0407  3.8279 -1.4842
 2344TIP3    H228592   4.325   2.069   8.275  1.1218 -0.7801  1.7582
 2345TIP3   OH228593   5.548   5.009   3.120 -0.6784 -0.8154  0.1738
 2345TIP3    H128594   5.471   5.007   3.176 -0.8300 -2.0046 -0.0485
 2345TIP3    H228595   5.578   5.100   3.123 -2.0038 -0.3649  0.3670
 2346TIP3   OH228596   1.046   4.828   7.672  0.8566  0.6588  0.2456
 2346TIP3    H128597   1.002   4.805   7.590  0.5073  1.4011  0.2156
 2346TIP3    H228598   1.098   4.906   7.651  1.0231  0.6592  0.6472
 2347TIP3   OH228599   4.797   0.166   3.216  0.2856  0.5160 -0.3446
 2347TIP3    H128600   4.886   0.151   3.248 -0.2383 -2.0781  0.1390
 2347TIP3    H228601   4.777   0.256   3.240  2.1158  0.5576  1.1887
 2348TIP3   OH228602   2.099   2.441   1.276  0.1053  0.1987  0.2019
 2348TIP3    H128603   2.155   2.381   1.227  1.3338 -0.1848  1.9862
 2348TIP3    H228604   2.141   2.527   1.265 -0.2314  0.3090 -0.2725
 2349TIP3   OH228605   2.402   6.518   0.005 -0.4071 -0.0217 -0.2229
 2349TIP3    H128606   2.446   6.529  -0.080  0.0549 -0.6737 -0.0747
 2349TIP3    H228607   2.383   6.607   0.034  1.2118  0.3052 -0.0861
 2350TIP3   OH228608   2.039   0.466   2.290  0.3560  0.3929  0.0566
 2350TIP3    H128609   2.049   0.501   2.201  1.8005  0.0552  0.0684
 2350TIP3    H228610   2.107   0.509   2.341  0.1847 -0.1661  0.7770
 2351TIP3   OH228611   5.968   6.813   2.231 -0.1874  0.1787 -0.5261
 2351TIP3    H128612   6.049   6.782   2.192 -0.0169 -1.3610  0.9590
 2351TIP3    H228613   5.967   6.907   2.213  1.5935  0.1139 -1.1297
 2352TIP3   OH228614   2.243   4.735   7.958  0.4349  0.2285 -0.0629
 2352TIP3    H128615   2.192   4.768   7.884  0.2043 -0.3890 -0.1841
 2352TIP3    H228616   2.257   4.642   7.937  0.5034  0.0916  0.5880
 2353TIP3   OH228617   0.888   6.166   2.601 -0.8549  0.2472  0.2145
 2353TIP3    H128618   0.981   6.174   2.623 -0.3370 -1.2476 -1.2066
 2353TIP3    H228619   0.865   6.076   2.625 -1.2394 -0.2174 -1.7056
 2354TIP3   OH228620   4.167   2.053   1.133  0.4334 -0.3693  0.0601
 2354TIP3    H128621   4.257   2.018   1.138  0.2968 -0.8526 -0.7809
 2354TIP3    H228622   4.177   2.147   1.150  0.8065 -0.7772  2.4145
 2355TIP3   OH228623   1.247   2.053   1.294 -0.8355  0.4958 -0.2479
 2355TIP3    H128624   1.269   2.084   1.382  1.8874  2.2234 -1.3765
 2355TIP3    H228625   1.287   1.966   1.289 -1.8239 -0.0176  0.4846
 2356TIP3   OH228626   3.027   6.376   2.373 -0.6379 -0.2904 -0.3779
 2356TIP3    H128627   3.005   6.366   2.465 -0.3279  2.5510  0.0989
 2356TIP3    H228628   2.945   6.406   2.332 -0.2493  0.6040 -0.5419
 2357TIP3   OH228629   1.263   6.365   2.932  0.8924 -0.2463 -0.1760
 2357TIP3    H128630   1.357   6.366   2.951  0.6957  0.0287  0.8415
 2357TIP3    H228631   1.228   6.295   2.986  0.0707  1.6256  1.8987
 2358TIP3   OH228632   2.272   5.353   7.888  0.0412  0.2504 -0.1008
 2358TIP3    H128633   2.182   5.374   7.864  0.0757  1.6242  0.8083
 2358TIP3    H228634   2.265   5.314   7.975  0.4299  2.4000  0.9643
 2359TIP3   OH228635   5.766   1.059   1.415  0.0140  0.5407  0.1402
 2359TIP3    H128636   5.762   1.144   1.458 -1.6340  1.2056 -1.2089
 2359TIP3    H228637   5.703   1.005   1.463 -0.6249  0.8018 -0.3737
 2360TIP3   OH228638   0.207   0.626   1.866  0.1684 -0.8911  0.1355
 2360TIP3    H128639   0.158   0.582   1.935 -0.6954  0.3698  0.3669
 2360TIP3    H228640   0.299   0.603   1.882 -0.1906 -2.0300  0.6338
 2361TIP3   OH228641   5.868   0.615   1.315  0.0063 -0.2504  0.4880
 2361TIP3    H128642   5.932   0.547   1.333  1.2474  0.4478 -1.0313
 2361TIP3    H228643   5.785   0.568   1.308  0.8010 -1.6048 -0.3619
 2362TIP3   OH228644   4.860   0.105   1.890  0.7685  0.2206 -0.1775
 2362TIP3    H128645   4.792   0.062   1.942  1.5563 -1.0507 -0.1750
 2362TIP3    H228646   4.906   0.034   1.847  1.5075  1.1306 -0.9271
 2363TIP3   OH228647   6.744   3.335   0.428  0.1041  0.2685 -0.3200
 2363TIP3    H128648   6.792   3.295   0.356 -1.5870 -2.0319 -0.2697
 2363TIP3    H228649   6.725   3.263   0.488 -2.9619  1.1066 -0.1126
 2364TIP3   OH228650   5.573   4.995   1.637 -0.1629 -0.0254 -0.4004
 2364TIP3    H128651   5.663   5.013   1.610  0.8646 -0.3172  2.5252
 2364TIP3    H228652   5.570   4.901   1.652 -0.9604 -0.0127 -0.4175
 2365TIP3   OH228653   2.111   0.874   7.803  0.8052 -0.7074 -0.1441
 2365TIP3    H128654   2.104   0.798   7.861 -0.2428  0.5386  1.4677
 2365TIP3    H228655   2.198   0.868   7.765  1.5178 -1.6251  1.5406
 2366TIP3   OH228656   0.485   1.448   1.497  0.1315  0.2405  0.2422
 2366TIP3    H128657   0.449   1.363   1.522  1.4731  0.0192  1.5570
 2366TIP3    H228658   0.554   1.465   1.562  1.2420  1.3993 -1.1668
 2367TIP3   OH228659   5.785   1.751   7.460  0.1260 -0.6239 -0.3864
 2367TIP3    H128660   5.692   1.772   7.448  0.2992 -0.9870 -3.1307
 2367TIP3    H228661   5.832   1.823   7.417  0.9985 -1.6764 -1.2648
 2368TIP3   OH228662   1.243   2.064   7.398 -0.1022 -0.4849 -0.1378
 2368TIP3    H128663   1.212   2.108   7.477  0.6459 -2.1278  1.1297
 2368TIP3    H228664   1.277   1.980   7.429  1.1797 -0.7397 -2.0765
 2369TIP3   OH228665   5.130   1.534   1.974 -0.2737 -0.4541  0.0855
 2369TIP3    H128666   5.160   1.536   2.064 -0.7726 -1.4219  0.2850
 2369TIP3    H228667   5.202   1.495   1.925 -0.1625 -0.3056  0.1321
 2370TIP3   OH228668   0.431   3.317   2.118  0.2825 -0.2223 -0.0529
 2370TIP3    H128669   0.466   3.257   2.185  1.5023 -0.2935 -0.7270
 2370TIP3    H228670   0.452   3.404   2.150  0.3786 -0.2366 -0.0765
 2371TIP3   OH228671   0.881   4.252   1.290  0.0714 -0.3518 -0.0991
 2371TIP3    H128672   0.851   4.242   1.380 -0.3486 -0.0736 -0.2077
 2371TIP3    H228673   0.931   4.334   1.290 -1.4955  0.6362 -0.5219
 2372TIP3   OH228674   5.890   4.544   1.405  0.4158  0.1814 -0.4554
 2372TIP3    H128675   5.854   4.565   1.491 -0.0967  2.6376 -1.1889
 2372TIP3    H228676   5.819   4.501   1.359  0.5069 -0.6240  0.1401
 2373TIP3   OH228677   4.299   6.585   2.124  0.4068  0.3999  0.4928
 2373TIP3    H128678   4.377   6.613   2.076 -0.4836  1.4076 -0.4162
 2373TIP3    H228679   4.329   6.576   2.215  1.2524  2.3243  0.4645
 2374TIP3   OH228680   0.044   6.645   1.936  0.0031  0.4098 -0.2578
 2374TIP3    H128681   0.061   6.714   1.872 -0.0763  1.4155  0.7888
 2374TIP3    H228682   0.128   6.601   1.946 -0.2492 -0.5623 -1.9294
 2375TIP3   OH228683   0.225   3.338   1.919 -0.6394  0.2077  0.3776
 2375TIP3    H128684   0.259   3.423   1.890  0.0549 -0.6312 -1.4704
 2375TIP3    H228685   0.284   3.312   1.990 -0.3926  0.9399  0.4542
 2376TIP3   OH228686   6.121   2.815   8.399 -0.0231  0.1219  0.2072
 2376TIP3    H128687   6.027   2.833   8.410  0.0094 -0.1009  0.8628
 2376TIP3    H228688   6.127   2.719   8.402  0.1719  0.1143 -0.3180
 2377TIP3   OH228689   5.621   0.413   1.670  0.6343  0.5611  0.3852
 2377TIP3    H128690   5.706   0.370   1.664 -0.0837 -0.9219  0.4279
 2377TIP3    H228691   5.604   0.445   1.581  0.5705 -0.4810  0.0106
 2378TIP3   OH228692   0.572   5.491   7.343 -0.0064 -0.0008  0.5484
 2378TIP3    H128693   0.577   5.587   7.341  0.4242 -0.0322 -0.8869
 2378TIP3    H228694   0.515   5.472   7.417 -0.6167  1.3908  0.4707
 2379TIP3   OH228695   4.577   1.227   0.206  0.1207  0.8093 -0.5099
 2379TIP3    H128696   4.523   1.154   0.177  0.9975  0.8043 -2.2220
 2379TIP3    H228697   4.656   1.186   0.242 -0.2206  0.8772  0.3472
 2380TIP3   OH228698   0.904   6.604   1.473  0.5930 -0.2825  0.2679
 2380TIP3    H128699   0.865   6.524   1.508  3.2520 -2.1731 -0.7038
 2380TIP3    H228700   0.905   6.590   1.378 -0.3502  1.6915 -0.0828
 2381TIP3   OH228701   0.030   5.108   8.101  0.0536  0.3058 -0.1465
 2381TIP3    H128702   0.099   5.043   8.093 -1.2418 -1.2123  0.5257
 2381TIP3    H228703   0.023   5.125   8.195  0.0875  1.0932 -0.2802
 2382TIP3   OH228704   2.370   6.727   0.775  0.1861  0.1465 -0.0417
 2382TIP3    H128705   2.357   6.632   0.772 -0.4449  0.2353 -0.2719
 2382TIP3    H228706   2.288   6.761   0.811 -0.1214  0.7139 -1.2388
 2383TIP3   OH228707   6.063   0.694   0.840  0.2356  0.8094  0.7228
 2383TIP3    H128708   6.051   0.642   0.920  2.6088 -1.9447 -0.5209
 2383TIP3    H228709   5.974   0.714   0.811 -0.7845 -1.4634  2.0255
 2384TIP3   OH228710   2.086   4.474   0.740 -0.4148 -0.2690 -0.0761
 2384TIP3    H128711   2.102   4.408   0.672  1.8534 -1.2055  1.2363
 2384TIP3    H228712   2.048   4.424   0.813  0.3358  0.0528  0.5470
 2385TIP3   OH228713   1.294   0.922   8.158  0.0855 -0.3371 -0.1901
 2385TIP3    H128714   1.248   0.999   8.123  1.4540  0.2636 -0.7282
 2385TIP3    H228715   1.312   0.869   8.081 -0.3420 -0.9295  0.1120
 2386TIP3   OH228716   5.541   3.285   2.813 -0.0895 -0.0529  0.0350
 2386TIP3    H128717   5.597   3.362   2.808  0.6944 -0.6600 -0.9669
 2386TIP3    H228718   5.522   3.275   2.906  0.8357  0.6093  0.3064
 2387TIP3   OH228719   6.851   2.380   2.687  0.8277  1.2461  0.4473
 2387TIP3    H128720   6.815   2.416   2.607  0.3914  0.6599  0.3672
 2387TIP3    H228721   6.812   2.432   2.757  0.4154  1.1067  0.3234
 2388TIP3   OH228722   0.567   5.765   7.380 -0.6296  0.4975 -0.3189
 2388TIP3    H128723   0.654   5.802   7.391 -0.8327  1.0305 -0.5174
 2388TIP3    H228724   0.530   5.810   7.304 -1.5203  1.1074  0.4564
 2389TIP3   OH228725   4.353   1.424   1.119  0.3798  0.1322 -0.0453
 2389TIP3    H128726   4.287   1.451   1.056 -0.4059 -1.4725  0.0311
 2389TIP3    H228727   4.385   1.506   1.157 -1.1153  0.9894 -0.5404
 2390TIP3   OH228728   0.586   1.202   6.967  0.4381 -0.3212 -0.3014
 2390TIP3    H128729   0.643   1.262   6.919  1.2240 -0.1597  0.7915
 2390TIP3    H228730   0.641   1.126   6.986  0.3994 -0.0662  0.9625
 2391TIP3   OH228731   1.859   1.074   1.622  0.3584 -0.5255 -0.5473
 2391TIP3    H128732   1.859   1.085   1.717  2.5647 -0.9309 -0.4345
 2391TIP3    H228733   1.918   1.142   1.589 -0.4308 -0.3419 -1.6428
 2392TIP3   OH228734   6.931   5.697   7.656 -0.2891 -0.2367 -0.0195
 2392TIP3    H128735   6.864   5.642   7.617  0.4566 -0.3153 -1.2335
 2392TIP3    H228736   7.013   5.668   7.616  0.3724  0.3916  0.8377
 2393TIP3   OH228737   1.276   3.009   2.526 -0.0088 -0.0097  0.3762
 2393TIP3    H128738   1.275   2.929   2.474  2.2992 -0.1689  0.4702
 2393TIP3    H228739   1.216   2.992   2.599 -1.1657 -0.8101 -0.7183
 2394TIP3   OH228740   4.264   3.499   1.739 -0.3490  0.6634  0.9325
 2394TIP3    H128741   4.260   3.409   1.706  1.1314  0.9199 -0.0778
 2394TIP3    H228742   4.174   3.531   1.735 -0.6105 -0.1562 -0.5444
 2395TIP3   OH228743   6.581   4.401   7.606 -0.2180  0.0729 -0.0941
 2395TIP3    H128744   6.504   4.410   7.550 -1.0687 -2.2180  0.5772
 2395TIP3    H228745   6.616   4.314   7.586  0.9239  0.2058  1.1483
 2396TIP3   OH228746   6.459   2.734   0.739 -0.3199  0.5766 -1.1337
 2396TIP3    H128747   6.509   2.806   0.778 -1.0627  0.1217  0.7378
 2396TIP3    H228748   6.523   2.688   0.685  1.1613  0.3889  0.6840
 2397TIP3   OH228749   4.847   6.824   0.720 -0.6474 -0.2190  0.0227
 2397TIP3    H128750   4.818   6.804   0.631 -1.6745  0.0332  0.2838
 2397TIP3    H228751   4.783   6.888   0.752  0.4590  0.7079  0.4871
 2398TIP3   OH228752   5.442   5.579   1.427  0.0951 -0.4150 -0.9222
 2398TIP3    H128753   5.486   5.563   1.343  1.3495  1.6952 -0.7519
 2398TIP3    H228754   5.362   5.627   1.403  1.2655  1.6799 -0.9099
 2399TIP3   OH228755   3.168   0.710   2.517 -0.5624 -0.1068  0.0457
 2399TIP3    H128756   3.106   0.727   2.588  0.2191  0.2139  0.6614
 2399TIP3    H228757   3.190   0.617   2.526 -2.4227 -0.7417 -1.3820
 2400TIP3   OH228758   3.753   0.289   0.145  0.0141  0.0581  0.0985
 2400TIP3    H128759   3.841   0.325   0.157  1.1659 -1.1790 -3.3307
 2400TIP3    H228760   3.754   0.206   0.193  0.1758  0.7295  1.2834
 2401TIP3   OH228761   4.825   4.085   7.657 -0.0585 -0.3391 -0.2442
 2401TIP3    H128762   4.735   4.059   7.636  0.4800 -0.7272 -2.3240
 2401TIP3    H228763   4.862   4.113   7.573  2.6673 -2.9974 -0.1221
 2402TIP3   OH228764   0.225   4.229   2.534  0.2725 -0.2034  0.6497
 2402TIP3    H128765   0.249   4.322   2.523  0.3770 -0.3387 -0.4543
 2402TIP3    H228766   0.295   4.193   2.588  1.4262 -0.0862 -0.6877
 2403TIP3   OH228767   1.302   6.848   2.580 -0.3897 -0.0430  0.4738
 2403TIP3    H128768   1.290   6.908   2.654 -2.2544  0.1248  0.0795
 2403TIP3    H228769   1.360   6.780   2.614 -2.1734 -0.6570  2.5668
 2404TIP3   OH228770   0.218   4.383   1.976  0.0383 -0.2122 -0.0310
 2404TIP3    H128771   0.123   4.383   1.965  0.1477 -0.6126 -1.0616
 2404TIP3    H228772   0.231   4.413   2.066 -1.0115  1.0474 -0.2729
 2405TIP3   OH228773   0.318   5.671   8.275  0.5938  0.5978  0.7258
 2405TIP3    H128774   0.390   5.690   8.215 -0.1920 -0.7493 -0.7447
 2405TIP3    H228775   0.296   5.755   8.316  1.9194  1.3246 -0.0077
 2406TIP3   OH228776   2.417   1.067   3.056 -0.3790 -0.3334  0.5010
 2406TIP3    H128777   2.453   1.152   3.029 -2.7116  0.3746 -0.6377
 2406TIP3    H228778   2.494   1.016   3.082  1.1807  1.8270  0.4224
 2407TIP3   OH228779   0.609   1.947   8.327  0.5262 -0.1050  0.3403
 2407TIP3    H128780   0.578   1.887   8.259 -0.5266 -0.5547  1.1885
 2407TIP3    H228781   0.651   1.890   8.391 -0.9383 -0.0224  1.4098
 2408TIP3   OH228782   4.052   1.115   8.144 -0.5718 -0.2882 -0.4734
 2408TIP3    H128783   4.104   1.185   8.184 -0.3384 -0.6191 -0.1986
 2408TIP3    H228784   4.038   1.145   8.054 -3.7782  1.9772  0.6090
 2409TIP3   OH228785   5.518   6.289   8.032  0.3562  0.1989 -0.5120
 2409TIP3    H128786   5.525   6.284   7.937 -1.8722  2.3238 -0.8952
 2409TIP3    H228787   5.556   6.374   8.055 -2.2225  1.3235 -0.0222
 2410TIP3   OH228788   0.013   2.453   0.455  0.0459  0.2666  0.2008
 2410TIP3    H128789   0.087   2.398   0.481  0.3585  0.9621  0.8218
 2410TIP3    H228790  -0.047   2.449   0.530 -1.5911 -2.0015 -1.1087
 2411TIP3   OH228791   2.238   2.999   1.969  0.4598  0.4667 -0.3862
 2411TIP3    H128792   2.221   3.084   2.010 -0.2030 -0.2586  0.9200
 2411TIP3    H228793   2.318   2.967   2.011  1.3726  0.9075 -1.6979
 2412TIP3   OH228794   3.467   3.784   8.273 -0.0080 -0.4745  0.5395
 2412TIP3    H128795   3.409   3.842   8.322  1.5452  0.5538  1.2338
 2412TIP3    H228796   3.450   3.805   8.181 -1.3965 -0.8757  0.6908
 2413TIP3   OH228797   2.771   3.215   2.119 -0.0472 -0.2985  0.0700
 2413TIP3    H128798   2.790   3.176   2.033 -2.8935  0.8711 -1.1954
 2413TIP3    H228799   2.817   3.299   2.117 -0.7580  0.0847 -0.6681
 2414TIP3   OH228800   5.379   5.159   0.013 -0.1374 -0.2970  0.0531
 2414TIP3    H128801   5.317   5.231   0.030  0.0239 -0.1873  0.1774
 2414TIP3    H228802   5.363   5.136  -0.078  0.0564  0.1405 -0.0968
 2415TIP3   OH228803   2.458   0.648   1.755  0.1454  0.2178 -0.5576
 2415TIP3    H128804   2.493   0.639   1.844 -0.9247  0.0564 -0.1322
 2415TIP3    H228805   2.442   0.742   1.744 -1.4359  0.0640  0.1346
 2416TIP3   OH228806   5.796   6.347   7.603  0.4055 -0.7225  0.2017
 2416TIP3    H128807   5.861   6.408   7.568  0.7700 -1.1891  0.0635
 2416TIP3    H228808   5.751   6.312   7.526 -1.2495  0.9286  0.3562
 2417TIP3   OH228809   3.739   1.457   0.351 -0.2219 -0.1373  0.3062
 2417TIP3    H128810   3.780   1.537   0.319 -1.3331  0.2726 -0.1232
 2417TIP3    H228811   3.652   1.456   0.311 -0.4485 -1.2590  0.7741
 2418TIP3   OH228812   6.498   0.497   0.915  0.0154  0.0481 -0.6256
 2418TIP3    H128813   6.585   0.508   0.953 -0.0899 -1.1417 -0.0131
 2418TIP3    H228814   6.438   0.524   0.985 -0.1350  3.0889 -1.7782
 2419TIP3   OH228815   2.125   6.171   1.639 -0.7203 -0.0863 -0.0194
 2419TIP3    H128816   2.094   6.249   1.593  0.2585 -0.6249 -1.6613
 2419TIP3    H228817   2.208   6.149   1.596 -0.5616 -1.5543  0.9661
 2420TIP3   OH228818   5.105   0.483   1.708  0.0487  0.4901  0.4244
 2420TIP3    H128819   5.199   0.483   1.726  0.3159  1.2546 -0.8637
 2420TIP3    H228820   5.072   0.558   1.757  0.7103  2.3171 -1.7302
 2421TIP3   OH228821   2.142   4.453   7.703  0.3468 -0.8698  0.3677
 2421TIP3    H128822   2.121   4.359   7.711  0.1960 -0.9386 -0.7487
 2421TIP3    H228823   2.125   4.474   7.612  0.0544  0.3433  0.6802
 2422TIP3   OH228824   2.059   0.930   8.143 -0.1948 -0.5729  0.4177
 2422TIP3    H128825   2.139   0.884   8.119  0.2874 -0.5935  2.0120
 2422TIP3    H228826   2.025   0.882   8.218 -1.3364 -0.1362  0.1979
 2423TIP3   OH228827   5.456   3.428   7.610 -0.4873  0.2154 -0.3882
 2423TIP3    H128828   5.367   3.396   7.599 -1.4736  2.2306  1.0821
 2423TIP3    H228829   5.447   3.523   7.617  1.9108  0.5799 -1.2959
 2424TIP3   OH228830   6.918   4.249   2.628 -0.8220 -0.0566  0.0813
 2424TIP3    H128831   6.963   4.320   2.674 -1.1366  2.0933 -2.6505
 2424TIP3    H228832   6.987   4.186   2.608 -0.0149  0.7223  0.3608
 2425TIP3   OH228833   4.496   3.805   0.888 -0.1049  0.0705  0.0766
 2425TIP3    H128834   4.526   3.724   0.930 -0.8360 -0.1373  0.2168
 2425TIP3    H228835   4.471   3.862   0.961  3.1335  1.5966  0.1642
 2426TIP3   OH228836   2.185   4.940   0.902 -0.4644 -0.0764 -0.1462
 2426TIP3    H128837   2.213   5.020   0.858 -1.2637  1.8809  2.5988
 2426TIP3    H228838   2.171   4.967   0.993 -1.5058 -3.2022  0.7397
 2427TIP3   OH228839   1.613   1.491   0.277  0.0110  0.3310  0.2321
 2427TIP3    H128840   1.619   1.585   0.290 -0.8003  0.4133  0.0334
 2427TIP3    H228841   1.536   1.464   0.327  1.2048 -0.5057  1.7114
 2428TIP3   OH228842   1.278   1.226   2.589  0.4754  0.3182  1.0216
 2428TIP3    H128843   1.266   1.151   2.647 -1.5827 -0.7670 -0.6358
 2428TIP3    H228844   1.260   1.303   2.644  1.0292 -0.4812  2.3655
 2429TIP3   OH228845   6.537   6.598   2.144 -0.6004  0.3383 -0.3013
 2429TIP3    H128846   6.624   6.636   2.135 -0.4077  0.1104  0.5264
 2429TIP3    H228847   6.499   6.641   2.220 -1.3588  0.6956 -0.8691
 2430TIP3   OH228848   2.722   5.026   0.564 -0.0345 -0.2559  0.2196
 2430TIP3    H128849   2.691   5.026   0.474 -0.0899  0.6115  0.2314
 2430TIP3    H228850   2.788   4.956   0.566 -0.9715 -1.1853 -0.1394
 2431TIP3   OH228851   6.059   5.373   1.622  1.0326 -0.0901  0.5849
 2431TIP3    H128852   5.987   5.411   1.572 -0.0797 -0.5654  1.7574
 2431TIP3    H228853   6.116   5.333   1.557 -0.7993 -1.4206 -0.2704
 2432TIP3   OH228854   4.360   4.129   7.665  0.0003 -0.4392 -0.8426
 2432TIP3    H128855   4.437   4.120   7.609 -0.0215 -2.2283 -0.6570
 2432TIP3    H228856   4.332   4.039   7.682 -0.2818  0.0290  1.6389
 2433TIP3   OH228857   0.172   2.356   2.937  0.0781 -0.8567  0.4679
 2433TIP3    H128858   0.170   2.447   2.969 -1.6074  0.5235 -3.0233
 2433TIP3    H228859   0.099   2.314   2.981 -1.1989  0.5042 -0.2414
 2434TIP3   OH228860   0.394   6.700   0.313 -0.0738  0.4914 -0.1671
 2434TIP3    H128861   0.350   6.616   0.304  0.5470 -0.5092  4.1072
 2434TIP3    H228862   0.484   6.683   0.284 -0.5432  0.4780 -1.7270
 2435TIP3   OH228863   3.061   3.270   8.065 -0.1847 -0.1659  0.6040
 2435TIP3    H128864   2.996   3.206   8.091 -0.7052  0.3668  0.6400
 2435TIP3    H228865   3.047   3.344   8.125 -1.4998  1.1468 -1.2351
 2436TIP3   OH228866   4.222   2.972   1.822 -0.3037  0.5995 -0.1768
 2436TIP3    H128867   4.240   2.911   1.750 -0.6957  0.7166 -0.3808
 2436TIP3    H228868   4.301   2.970   1.876 -0.4094 -0.2819 -0.0362
 2437TIP3   OH228869   1.114   5.237   1.346  0.3320 -0.3459 -0.1490
 2437TIP3    H128870   1.086   5.172   1.411  0.8644 -1.2163 -0.7656
 2437TIP3    H228871   1.206   5.252   1.365 -0.1157  1.3424  0.8940
 2438TIP3   OH228872   0.911   0.096   1.854  0.1422 -0.7096  0.1755
 2438TIP3    H128873   1.002   0.125   1.859 -0.3990  1.3649 -0.8501
 2438TIP3    H228874   0.860   0.170   1.886 -1.3140 -0.5790 -2.2013
 2439TIP3   OH228875   6.788   0.382   3.194 -0.2102 -0.0519 -0.0699
 2439TIP3    H128876   6.724   0.431   3.247 -1.9188 -0.7082 -1.4302
 2439TIP3    H228877   6.745   0.299   3.175  1.0448 -0.5038 -1.0844
 2440TIP3   OH228878   3.250   1.341   6.668  0.7062  0.2210 -0.4882
 2440TIP3    H128879   3.204   1.404   6.722 -2.9323 -1.0314 -1.8356
 2440TIP3    H228880   3.300   1.288   6.730 -1.2139  0.4829  1.3940
 2441TIP3   OH228881   1.973   0.135   0.963  0.7772  0.1385  0.3321
 2441TIP3    H128882   1.878   0.130   0.966  0.7057 -0.2145 -1.5622
 2441TIP3    H228883   1.995   0.133   0.870  2.7501 -1.9923  0.7529
 2442TIP3   OH228884   3.508   1.661   0.579  0.1898 -0.3425 -0.3894
 2442TIP3    H128885   3.478   1.666   0.488 -1.5289 -2.1292  0.0161
 2442TIP3    H228886   3.604   1.661   0.572  0.1388  1.6504 -2.0197
 2443TIP3   OH228887   1.741   6.197   0.183  0.3774  0.0186  0.0145
 2443TIP3    H128888   1.828   6.173   0.215  0.3699  0.2061  0.1803
 2443TIP3    H228889   1.715   6.271   0.239 -0.1089 -0.3777  0.3222
 2444TIP3   OH228890   0.136   5.483   2.330  0.2900 -0.5937 -0.1681
 2444TIP3    H128891   0.203   5.436   2.280  1.7010  1.9023 -0.8076
 2444TIP3    H228892   0.186   5.546   2.383 -1.5279  1.3954 -0.6967
 2445TIP3   OH228893   3.338   4.566   0.809 -0.6686 -0.3622  0.4273
 2445TIP3    H128894   3.382   4.646   0.782  0.9399 -1.0539  0.9033
 2445TIP3    H228895   3.269   4.554   0.744 -0.6259  1.1284  0.0701
 2446TIP3   OH228896   0.764   2.116   0.337 -0.2362 -0.1900  0.2977
 2446TIP3    H128897   0.680   2.157   0.320  0.0253 -0.2287 -1.2717
 2446TIP3    H228898   0.775   2.120   0.432 -1.4030  0.9863  0.4027
 2447TIP3   OH228899   1.634   5.330   8.355  0.5085 -0.2861 -0.5950
 2447TIP3    H128900   1.645   5.281   8.274  0.8114  0.7402 -1.1910
 2447TIP3    H228901   1.559   5.387   8.339  0.3684 -0.2991 -0.0327
 2448TIP3   OH228902   5.682   0.063   2.853 -0.2556 -0.4313  0.5348
 2448TIP3    H128903   5.597   0.018   2.857 -0.4382 -0.0943  0.4567
 2448TIP3    H228904   5.663   0.152   2.883 -0.1316 -0.0551 -0.4740
 2449TIP3   OH228905   1.889   2.532   8.330 -0.0032  0.0940  0.1177
 2449TIP3    H128906   1.900   2.603   8.393 -0.2630 -0.5546  0.9048
 2449TIP3    H228907   1.969   2.479   8.340  0.6813  0.8245 -1.2028
 2450TIP3   OH228908   4.549   3.807   0.295 -0.0951 -0.0208 -0.5064
 2450TIP3    H128909   4.473   3.848   0.335 -0.7253  0.3325 -1.9867
 2450TIP3    H228910   4.583   3.874   0.235  0.6329 -0.6206 -0.7748
 2451TIP3   OH228911   2.364   5.760   3.072 -0.2153  0.6588  0.7035
 2451TIP3    H128912   2.300   5.823   3.106  0.3402  0.6699  1.7771
 2451TIP3    H228913   2.449   5.800   3.091  0.1583  1.5848 -2.4804
 2452TIP3   OH228914   1.879   5.872   1.216  0.4509  0.0450 -0.1292
 2452TIP3    H128915   1.948   5.823   1.260  0.2269  0.2933  0.5072
 2452TIP3    H228916   1.807   5.809   1.205  0.4908 -0.0058 -0.0974
 2453TIP3   OH228917   5.150   1.798   1.043  0.5923  0.2423 -0.3745
 2453TIP3    H128918   5.156   1.716   1.091  0.1103 -0.0306 -0.7665
 2453TIP3    H228919   5.182   1.864   1.104  1.4093 -0.2878 -0.2130
 2454TIP3   OH228920   4.139   6.158   0.615 -0.2582  0.6126 -0.2674
 2454TIP3    H128921   4.209   6.095   0.599 -1.4506 -1.1565  1.1081
 2454TIP3    H228922   4.059   6.110   0.596 -1.1638  3.1516 -3.6819
 2455TIP3   OH228923   5.235   3.523   2.087 -0.0930  0.3642 -0.3597
 2455TIP3    H128924   5.191   3.439   2.075 -0.5672  0.4032  0.9201
 2455TIP3    H228925   5.212   3.549   2.176  0.4476  1.6207 -0.5688
 2456TIP3   OH228926   4.776   5.982   1.676 -0.0087 -0.1985  0.4669
 2456TIP3    H128927   4.794   6.061   1.727 -0.3331 -0.1336  0.4880
 2456TIP3    H228928   4.836   5.988   1.601 -0.6855  0.5682 -0.0428
 2457TIP3   OH228929   1.907   5.586   0.312 -0.5047 -0.5800 -0.4572
 2457TIP3    H128930   1.867   5.537   0.384 -1.3787  0.5152 -0.1588
 2457TIP3    H228931   1.833   5.612   0.257 -0.7254  3.7647  1.4843
 2458TIP3   OH228932   0.661   1.599   7.453  0.1292  0.2633  0.2499
 2458TIP3    H128933   0.623   1.655   7.522  0.6372 -0.6245  1.2745
 2458TIP3    H228934   0.740   1.645   7.426 -0.9828  1.5340 -1.0729
 2459TIP3   OH228935   3.231   4.758   1.127  0.7153  0.3851  0.2589
 2459TIP3    H128936   3.163   4.825   1.135  0.0081 -0.1368 -1.0932
 2459TIP3    H228937   3.259   4.762   1.036  0.0359 -1.6910 -0.1031
 2460TIP3   OH228938   1.432   2.295   2.373  0.9741 -0.0968  0.0265
 2460TIP3    H128939   1.367   2.230   2.348  1.3326 -0.5377  0.2372
 2460TIP3    H228940   1.505   2.244   2.408  1.5630  0.3704 -0.5053
 2461TIP3   OH228941   2.780   4.277   0.909 -0.8592  0.0312 -0.3131
 2461TIP3    H128942   2.858   4.262   0.856 -2.1802  1.2205 -2.7825
 2461TIP3    H228943   2.810   4.330   0.982  0.9787 -1.3309  0.0024
 2462TIP3   OH228944   4.899   2.986   0.190 -0.3971 -0.1544 -0.3348
 2462TIP3    H128945   4.934   3.004   0.277  1.1483  1.6096 -1.2543
 2462TIP3    H228946   4.821   3.041   0.184 -1.8683 -2.0094  0.7054
 2463TIP3   OH228947   5.278   0.532   0.099 -0.0196 -0.2340 -0.3837
 2463TIP3    H128948   5.307   0.528   0.191 -2.5880  0.8539  0.5894
 2463TIP3    H228949   5.312   0.615   0.067  0.6954 -0.5107 -0.3583
 2464TIP3   OH228950   5.206   4.964   2.196  0.4525 -0.0029 -0.1591
 2464TIP3    H128951   5.169   5.044   2.234  1.1274  0.1548  0.1805
 2464TIP3    H228952   5.195   4.898   2.264  1.4384  0.2192  0.2220
 2465TIP3   OH228953   4.638   4.791   1.013 -0.1901  0.5724  0.5550
 2465TIP3    H128954   4.714   4.836   1.051  0.8230 -1.1350  0.6356
 2465TIP3    H228955   4.638   4.818   0.921  2.4093 -1.6652 -0.2532
 2466TIP3   OH228956   1.604   3.533   8.381 -0.0263  0.9913 -0.1268
 2466TIP3    H128957   1.522   3.534   8.331  0.0057 -2.4212 -0.4371
 2466TIP3    H228958   1.661   3.594   8.333 -1.2530  0.7471 -2.0174
 2467TIP3   OH228959   3.546   0.870   7.522 -0.2112  0.1631 -0.1447
 2467TIP3    H128960   3.452   0.855   7.527 -0.1563  0.0790  1.1334
 2467TIP3    H228961   3.579   0.799   7.467 -0.9615  0.5624 -1.1304
 2468TIP3   OH228962   1.005   1.091   2.789 -0.3662 -0.3979  0.0596
 2468TIP3    H128963   1.083   1.051   2.750 -0.7372 -1.9750  0.8774
 2468TIP3    H228964   0.942   1.020   2.797 -0.9606  0.2611  1.7933
 2469TIP3   OH228965   6.086   4.878   1.986 -0.2003  0.0062  0.5204
 2469TIP3    H128966   6.094   4.784   2.002 -0.9751 -0.0334  0.7154
 2469TIP3    H228967   6.004   4.902   2.028  0.3155  0.9006  1.0395
 2470TIP3   OH228968   0.262   0.669   1.574  0.3990  0.2992  0.3881
 2470TIP3    H128969   0.352   0.666   1.607  0.8792  1.9233 -0.6314
 2470TIP3    H228970   0.208   0.638   1.646  1.9181 -3.2864  0.1992
 2471TIP3   OH228971   3.329   3.590   1.714 -0.0291  0.0117  0.3213
 2471TIP3    H128972   3.417   3.591   1.751  0.0245 -2.1295  0.3705
 2471TIP3    H228973   3.277   3.540   1.777 -0.3917 -1.9618 -1.4224
 2472TIP3   OH228974   3.468   4.316   2.007 -0.4470 -0.5338  0.0746
 2472TIP3    H128975   3.509   4.373   2.072 -0.1785 -1.3503  0.6348
 2472TIP3    H228976   3.389   4.284   2.049 -0.8559 -0.2034 -0.4254
 2473TIP3   OH228977   3.484   4.814   1.889  0.1066  0.0431 -0.9717
 2473TIP3    H128978   3.468   4.722   1.870  2.2034 -0.8908  1.2266
 2473TIP3    H228979   3.554   4.840   1.828  1.5697 -0.7471  0.2963
 2474TIP3   OH228980   4.704   1.177   2.601  0.5242 -0.3179  0.3380
 2474TIP3    H128981   4.766   1.211   2.536 -0.7468  0.2619 -0.6269
 2474TIP3    H228982   4.725   1.225   2.681  2.7871 -1.7746  0.7009
 2475TIP3   OH228983   5.611   3.083   0.752 -0.0595  0.2880 -0.3579
 2475TIP3    H128984   5.625   3.060   0.660  0.5506 -0.5446 -0.0602
 2475TIP3    H228985   5.695   3.115   0.782  0.2665 -1.1905  0.4045
 2476TIP3   OH228986   3.410   4.648   0.419 -0.3577  0.2829  0.5685
 2476TIP3    H128987   3.473   4.671   0.351 -1.0468  3.1083  0.7506
 2476TIP3    H228988   3.465   4.623   0.494  0.4695  0.2863 -0.0184
 2477TIP3   OH228989   6.366   1.073   6.970  0.2907  0.4535 -0.1907
 2477TIP3    H128990   6.278   1.065   6.933 -0.2805  2.8089  0.4672
 2477TIP3    H228991   6.352   1.074   7.064  1.1564 -0.2606 -0.0486
 2478TIP3   OH228992   0.619   0.877   0.918  0.6021  0.4432  0.7668
 2478TIP3    H128993   0.693   0.927   0.884 -0.2733  0.9717 -0.4308
 2478TIP3    H228994   0.550   0.890   0.854  0.9828 -4.2117 -0.9691
 2479TIP3   OH228995   0.737   2.405   0.920  0.9151 -0.2511  0.6198
 2479TIP3    H128996   0.820   2.378   0.882  0.5740 -1.5702  0.7859
 2479TIP3    H228997   0.680   2.329   0.913  0.1325  0.1965  1.7117
 2480TIP3   OH228998   6.688   3.819   8.403  0.0567 -0.0878  0.0357
 2480TIP3    H128999   6.728   3.896   8.363  0.3909  0.1428  0.7788
 2480TIP3    H229000   6.625   3.787   8.338 -0.5418  1.1797 -0.0504
 2481TIP3   OH229001   2.425   5.589   2.180  1.0074  1.2460 -0.2176
 2481TIP3    H129002   2.417   5.532   2.257 -0.5193 -0.1243 -1.2985
 2481TIP3    H229003   2.408   5.677   2.214 -1.9753  0.4346  0.7216
 2482TIP3   OH229004   6.772   0.982   7.890 -0.2412 -0.6395 -0.3708
 2482TIP3    H129005   6.862   1.013   7.897 -0.3208 -0.7619  1.8234
 2482TIP3    H229006   6.765   0.914   7.958 -1.6425 -1.5225 -1.3515
 2483TIP3   OH229007   6.399   5.040   0.588  0.0986  0.1762 -0.7232
 2483TIP3    H129008   6.467   5.044   0.521 -0.2404 -1.6190 -1.2129
 2483TIP3    H229009   6.323   5.000   0.544 -0.5251  0.0623  0.4050
 2484TIP3   OH229010   1.659   1.755   0.298 -0.5152  0.4844 -0.4797
 2484TIP3    H129011   1.684   1.816   0.230 -0.2015 -0.4433 -1.2144
 2484TIP3    H229012   1.673   1.803   0.380  0.6334  1.0606 -0.9944
 2485TIP3   OH229013   5.271   5.824   7.810  0.0160 -0.8571 -0.4696
 2485TIP3    H129014   5.322   5.754   7.851 -1.5538  0.2391  3.8726
 2485TIP3    H229015   5.336   5.881   7.771  1.8777 -1.4382  1.5827
 2486TIP3   OH229016   4.080   1.465   0.109  0.1924  0.2661  0.0703
 2486TIP3    H129017   4.010   1.451   0.046 -1.8932  0.6403  2.1744
 2486TIP3    H229018   4.059   1.407   0.182  1.5335  1.0920  1.1761
 2487TIP3   OH229019   3.646   2.492   1.819 -0.3963  0.1866  0.3345
 2487TIP3    H129020   3.566   2.503   1.768  1.0326  0.1882 -2.0456
 2487TIP3    H229021   3.717   2.505   1.756  1.4963 -0.4903  2.2046
 2488TIP3   OH229022   4.211   1.511   7.797  0.3595  0.2408  0.3243
 2488TIP3    H129023   4.290   1.458   7.787  0.3995  0.2053  0.8352
 2488TIP3    H229024   4.243   1.600   7.815  0.3130 -0.1511  2.6642
 2489TIP3   OH229025   0.573   1.326   0.771  0.2661  0.1002  0.4544
 2489TIP3    H129026   0.531   1.244   0.748 -2.6742  1.3795  0.8563
 2489TIP3    H229027   0.553   1.339   0.864  1.9413  0.6257  0.7930
 2490TIP3   OH229028   2.824   4.703   1.199 -0.1479  0.0150  0.3780
 2490TIP3    H129029   2.732   4.723   1.212 -0.2336 -0.3693  0.3603
 2490TIP3    H229030   2.868   4.740   1.276 -0.2277  0.7889  0.0646
 2491TIP3   OH229031   4.682   0.267   7.953 -0.5021 -0.4387  0.5443
 2491TIP3    H129032   4.757   0.321   7.928 -0.6331 -0.9766 -1.0710
 2491TIP3    H229033   4.627   0.326   8.004 -0.1338  0.6541 -0.2763
 2492TIP3   OH229034   5.713   4.188   1.809  0.1271 -0.1374 -0.3776
 2492TIP3    H129035   5.738   4.096   1.804 -0.4797 -0.4107  1.1508
 2492TIP3    H229036   5.634   4.189   1.863  0.7304  1.3804  0.5496
 2493TIP3   OH229037   6.197   5.292   8.208  0.6712 -0.4753  0.3747
 2493TIP3    H129038   6.213   5.256   8.296 -2.4758 -1.1635  0.7680
 2493TIP3    H229039   6.104   5.314   8.207  1.5010  4.2541 -1.1576
 2494TIP3   OH229040   5.866   0.150   1.999  0.6736 -0.2195 -0.5844
 2494TIP3    H129041   5.922   0.214   1.955  0.3366  0.1533 -0.4746
 2494TIP3    H229042   5.925   0.102   2.057  1.0167 -0.3300 -1.0187
 2495TIP3   OH229043   5.285   2.755   0.328 -0.4431  0.2960 -0.4942
 2495TIP3    H129044   5.261   2.797   0.246 -1.0103 -1.1929 -1.1345
 2495TIP3    H229045   5.352   2.691   0.304  0.7123  1.0827  0.5097
 2496TIP3   OH229046   4.547   3.215   7.249 -0.0318 -0.4666  0.0111
 2496TIP3    H129047   4.524   3.235   7.158 -0.6380  0.3498  0.3292
 2496TIP3    H229048   4.509   3.286   7.300  1.2007 -0.3518  0.8185
 2497TIP3   OH229049   2.135   3.395   0.269  0.1530  0.3432  0.2087
 2497TIP3    H129050   2.045   3.364   0.258  0.3537 -0.4027  0.5875
 2497TIP3    H229051   2.133   3.447   0.349  0.0666  0.2900  0.2411
 2498TIP3   OH229052   4.746   0.367   7.292  0.5198 -0.1059 -0.2585
 2498TIP3    H129053   4.820   0.427   7.287  1.2460 -0.8513  1.0836
 2498TIP3    H229054   4.675   0.419   7.330  0.0131  0.8749 -2.3876
 2499TIP3   OH229055   3.527   5.991   8.398  0.1194 -0.0941  0.2479
 2499TIP3    H129056   3.438   6.011   8.370  0.0592  1.9985  1.7182
 2499TIP3    H229057   3.521   5.902   8.433 -1.8006  0.5759  1.8183
 2500TIP3   OH229058   5.228   1.269   2.085  0.1274 -0.1381  0.6523
 2500TIP3    H129059   5.306   1.266   2.030 -0.8524 -0.1625 -0.8079
 2500TIP3    H229060   5.219   1.362   2.109  0.1869 -0.0005  0.1641
 2501TIP3   OH229061   0.156   1.234   1.876  0.1808 -0.1936  0.2666
 2501TIP3    H129062   0.243   1.198   1.856  1.0535  1.3414  1.1209
 2501TIP3    H229063   0.139   1.205   1.966  0.9819  1.6100  1.0364
 2502TIP3   OH229064   0.797   2.895   1.201  0.0178  0.3465 -0.5924
 2502TIP3    H129065   0.812   2.894   1.106 -0.2298 -1.6094 -0.6580
 2502TIP3    H229066   0.715   2.846   1.212  0.2409  0.2272  0.6631
 2503TIP3   OH229067   3.537   6.545   7.251 -0.4723 -0.0898 -0.4107
 2503TIP3    H129068   3.562   6.460   7.287 -0.5772  0.5836  1.3957
 2503TIP3    H229069   3.615   6.575   7.204  1.6027  1.0240  3.3221
 2504TIP3   OH229070   2.607   4.048   1.450  0.0194 -0.4767 -0.2268
 2504TIP3    H129071   2.549   3.987   1.404 -0.8244 -1.3808  1.8894
 2504TIP3    H229072   2.550   4.095   1.510  0.6897  2.3564 -1.6161
 2505TIP3   OH229073   2.251   0.364   1.999  0.2014  0.3176  0.7487
 2505TIP3    H129074   2.156   0.351   1.992  0.3224 -0.3996  0.3453
 2505TIP3    H229075   2.281   0.371   1.908  0.6081 -0.0302  0.8538
 2506TIP3   OH229076   6.532   2.408   2.414  0.2888 -0.2023 -0.5537
 2506TIP3    H129077   6.513   2.335   2.473 -0.0387  0.8785  0.7310
 2506TIP3    H229078   6.544   2.367   2.329  0.1380 -1.7568  0.1317
 2507TIP3   OH229079   3.385   1.581   7.826  0.4269 -0.0229 -0.4142
 2507TIP3    H129080   3.347   1.615   7.745  1.9662  0.6983 -0.8827
 2507TIP3    H229081   3.371   1.486   7.821 -2.6246  0.3193  0.2183
 2508TIP3   OH229082   0.608   2.226   2.796  0.5173  0.6708 -0.0101
 2508TIP3    H129083   0.646   2.244   2.882 -2.1437  0.1125  1.3861
 2508TIP3    H229084   0.666   2.271   2.734  2.6009  0.9609  2.0201
 2509TIP3   OH229085   4.558   3.526   0.971 -0.1423 -0.7806 -0.7108
 2509TIP3    H129086   4.531   3.527   0.879 -1.8790  2.5975 -0.3610
 2509TIP3    H229087   4.475   3.529   1.020  0.7477 -0.0625  0.8432
 2510TIP3   OH229088   5.178   3.774   7.702  0.0202  0.5096 -0.5311
 2510TIP3    H129089   5.232   3.828   7.644  0.9234 -1.2177 -1.3788
 2510TIP3    H229090   5.113   3.735   7.643 -0.2400  0.1953 -0.0424
 2511TIP3   OH229091   6.603   0.670   7.972 -0.5717  0.3930  0.0908
 2511TIP3    H129092   6.635   0.593   7.925 -0.7721  0.2385  0.2033
 2511TIP3    H229093   6.548   0.716   7.909  1.9128  2.0722 -0.9740
 2512TIP3   OH229094   0.658   6.159   0.212  0.1277 -0.3749  0.6547
 2512TIP3    H129095   0.736   6.123   0.170 -0.3785 -0.7241 -0.0055
 2512TIP3    H229096   0.588   6.149   0.147 -0.0813  1.6632  0.4972
 2513TIP3   OH229097   5.824   1.328   1.504  0.1738 -0.2352  0.7151
 2513TIP3    H129098   5.867   1.292   1.582 -0.4388 -1.3897  0.5408
 2513TIP3    H229099   5.757   1.386   1.539 -0.4989 -1.2092  1.0859
 2514TIP3   OH229100   2.375   2.302   0.588  0.3083 -0.1610 -0.5350
 2514TIP3    H129101   2.432   2.297   0.511  0.6323 -0.0918 -0.3031
 2514TIP3    H229102   2.292   2.263   0.560 -0.6720  2.6648 -1.9059
 2515TIP3   OH229103   3.571   5.380   8.018 -0.0868  0.1991  0.0755
 2515TIP3    H129104   3.489   5.330   8.014 -1.2214  2.0072 -2.8176
 2515TIP3    H229105   3.620   5.353   7.941  0.3819  1.6672 -0.1803
 2516TIP3   OH229106   3.188   3.826   1.706  0.1978 -0.5955 -0.2170
 2516TIP3    H129107   3.234   3.743   1.697  0.9379 -0.0475 -1.7275
 2516TIP3    H229108   3.105   3.812   1.660 -0.2400 -0.8916  0.6418
 2517TIP3   OH229109   4.256   5.232   8.015 -0.0320 -0.1709 -0.0488
 2517TIP3    H129110   4.217   5.306   8.062 -0.3387 -0.2701 -0.1469
 2517TIP3    H229111   4.217   5.155   8.055  1.2367 -0.3372  0.9135
 2518TIP3   OH229112   3.241   5.078   0.778 -0.0909  0.6127 -0.5520
 2518TIP3    H129113   3.240   4.989   0.743 -1.1350  1.2390 -2.2388
 2518TIP3    H229114   3.302   5.126   0.721  0.8661  0.8955  0.6571
 2519TIP3   OH229115   4.528   1.368   1.644 -0.8231  0.0350 -0.4298
 2519TIP3    H129116   4.588   1.383   1.571 -0.6788  1.2356 -0.0937
 2519TIP3    H229117   4.583   1.335   1.714 -0.8608 -0.5504 -0.6745
 2520TIP3   OH229118   3.032   6.944   6.657 -0.7732 -0.5098  0.1510
 2520TIP3    H129119   3.029   6.859   6.613 -1.1229 -0.0136 -0.8095
 2520TIP3    H229120   2.942   6.977   6.651 -0.7526 -0.2877  0.9665
 2521TIP3   OH229121   5.058   0.134   8.225 -0.4187  0.1337 -0.2247
 2521TIP3    H129122   5.052   0.176   8.310  1.1276  0.6897 -0.3727
 2521TIP3    H229123   4.980   0.078   8.221  0.0228 -0.7136  1.9640
 2522TIP3   OH229124   0.046   3.345   8.351  0.4705 -0.2844 -0.1289
 2522TIP3    H129125   0.077   3.424   8.306 -0.8532 -0.5555 -1.5874
 2522TIP3    H229126  -0.049   3.347   8.341  0.3049 -1.3867  0.9981
 2523TIP3   OH229127   4.737   0.755   0.530 -0.6947  0.1059 -0.1226
 2523TIP3    H129128   4.814   0.799   0.567  0.3891 -0.4826 -1.5939
 2523TIP3    H229129   4.665   0.817   0.545 -0.2454  0.0855  2.5029
 2524TIP3   OH229130   3.004   2.350   7.775 -0.3875 -0.3120  0.2029
 2524TIP3    H129131   2.994   2.258   7.799  0.0211 -1.0668 -2.2154
 2524TIP3    H229132   2.917   2.377   7.746 -0.0466 -0.7169 -1.3354
 2525TIP3   OH229133   4.194   1.794   7.713  0.0773 -0.6679 -0.0079
 2525TIP3    H129134   4.156   1.881   7.700  0.3191 -0.5983 -0.2780
 2525TIP3    H229135   4.262   1.788   7.645  0.8815 -0.5953  0.7618
 2526TIP3   OH229136   1.481   2.489   1.575 -0.3661  0.3283  0.1444
 2526TIP3    H129137   1.457   2.459   1.488  0.5283 -0.7108  0.2462
 2526TIP3    H229138   1.448   2.422   1.634  3.2614 -1.6078  0.2552
 2527TIP3   OH229139   5.890   2.801   0.685  0.0405 -0.3072  0.6623
 2527TIP3    H129140   5.933   2.717   0.672  1.9850  0.5711  1.0195
 2527TIP3    H229141   5.876   2.808   0.779 -1.3497 -0.7675  0.5137
 2528TIP3   OH229142   0.010   1.490   1.896  0.0710 -0.6401  0.1950
 2528TIP3    H129143  -0.022   1.491   1.987  0.9041 -0.2700  0.4997
 2528TIP3    H229144   0.063   1.411   1.890  0.1648 -0.5689  0.0859
 2529TIP3   OH229145   1.386   5.625   0.254 -0.0869  0.3388  0.4338
 2529TIP3    H129146   1.370   5.595   0.165  0.8923  0.1539  0.3101
 2529TIP3    H229147   1.380   5.547   0.308  0.8765  0.1721  0.3173
 2530TIP3   OH229148   2.589   1.333   1.195 -0.7806 -0.3318 -0.1010
 2530TIP3    H129149   2.644   1.260   1.167 -1.0175 -0.3119 -0.6306
 2530TIP3    H229150   2.512   1.328   1.138 -2.2213 -1.4615  1.7771
 2531TIP3   OH229151   2.856   5.687   0.379 -0.7404  0.6257 -0.2549
 2531TIP3    H129152   2.811   5.696   0.295  1.2339  0.6615 -1.3571
 2531TIP3    H229153   2.877   5.777   0.404 -3.2127  0.8288  1.4360
 2532TIP3   OH229154   6.170   3.851   8.358  0.1254 -0.1918 -0.0410
 2532TIP3    H129155   6.150   3.892   8.274 -0.6354  1.8533  1.0641
 2532TIP3    H229156   6.177   3.758   8.338  1.7720  0.3726 -2.6873
 2533TIP3   OH229157   1.194   1.817   7.703  0.2243  0.0595  0.5356
 2533TIP3    H129158   1.151   1.779   7.626  0.2344  1.7411 -0.3477
 2533TIP3    H229159   1.286   1.792   7.694  0.2223  0.2266  0.0007
 2534TIP3   OH229160   0.980   3.006   8.361  0.1941  0.0552  0.0189
 2534TIP3    H129161   0.931   2.948   8.420 -0.4433  1.7009  1.1756
 2534TIP3    H229162   0.914   3.041   8.301  0.2328  0.9104  0.4546
 2535TIP3   OH229163   0.276   2.227   8.398 -0.1512  0.5018  0.6744
 2535TIP3    H129164   0.221   2.150   8.412  2.9890 -1.8728  0.9739
 2535TIP3    H229165   0.277   2.272   8.482 -2.2467  1.1305  0.4143
 2536TIP3   OH229166   6.011   6.332   1.799 -0.1194  0.1476 -0.0588
 2536TIP3    H129167   5.966   6.414   1.820 -2.6549 -1.9284  3.9790
 2536TIP3    H229168   6.100   6.345   1.832 -0.9208  0.8916  2.0019
 2537TIP3   OH229169   0.160   2.758   2.396 -0.3549 -0.2494  0.0917
 2537TIP3    H129170   0.149   2.838   2.448 -1.6489 -0.5846  0.3545
 2537TIP3    H229171   0.100   2.769   2.322  1.2727  0.1024 -1.2432
 2538TIP3   OH229172   4.797   5.637   8.271  0.3625 -0.0166  0.2222
 2538TIP3    H129173   4.863   5.672   8.211  0.4401 -0.0262  0.3018
 2538TIP3    H229174   4.794   5.543   8.253 -1.2070  0.2782 -1.3309
 2539TIP3   OH229175   6.161   5.312   0.613  0.0929  0.3540  0.6170
 2539TIP3    H129176   6.248   5.304   0.652  0.9632  0.8806 -1.1180
 2539TIP3    H229177   6.176   5.352   0.528 -1.8004 -0.0729  0.0244
 2540TIP3   OH229178   4.843   4.678   0.343 -0.3741 -0.2481 -0.3679
 2540TIP3    H129179   4.768   4.721   0.385 -0.4500 -0.0446 -0.7067
 2540TIP3    H229180   4.850   4.721   0.257  1.4946  1.3075  0.4823
 2541TIP3   OH229181   3.680   5.709   6.568  0.3288  0.1227  0.2791
 2541TIP3    H129182   3.644   5.762   6.639  0.5075 -1.6572  1.7466
 2541TIP3    H229183   3.774   5.729   6.570  0.3632 -0.0662  0.6795
 2542TIP3   OH229184   3.747   3.406   7.535  1.2003  0.1742  0.1180
 2542TIP3    H129185   3.809   3.345   7.575  2.1812  1.7823  1.1645
 2542TIP3    H229186   3.794   3.444   7.461  0.7578 -0.0030 -0.2601
 2543TIP3   OH229187   2.169   0.536   1.410 -0.0014 -0.2994  0.9326
 2543TIP3    H129188   2.134   0.524   1.322  1.5580  0.5889  0.1387
 2543TIP3    H229189   2.114   0.604   1.449 -2.0264 -2.1293  1.4844
 2544TIP3   OH229190   1.487   1.903   3.017  0.3768  0.4914 -0.1309
 2544TIP3    H129191   1.568   1.860   3.044 -0.2389 -0.1484  0.7395
 2544TIP3    H229192   1.427   1.890   3.090 -1.1981 -0.8928 -1.5793
 2545TIP3   OH229193   5.462   4.966   7.932  0.2578  0.0085  0.3210
 2545TIP3    H129194   5.530   5.031   7.914 -1.4550  1.5813 -0.8877
 2545TIP3    H229195   5.470   4.902   7.861  1.3655 -0.6232  0.9961
 2546TIP3   OH229196   5.757   0.016   2.526  1.0844  0.3278  0.1712
 2546TIP3    H129197   5.767   0.074   2.451 -0.4316 -0.5519 -0.7824
 2546TIP3    H229198   5.663   0.021   2.547  1.4914  0.6297  2.0860
 2547TIP3   OH229199   5.827   4.028   1.054  0.1906 -0.2524 -0.9075
 2547TIP3    H129200   5.857   4.011   1.143  0.7054 -0.1364 -1.0578
 2547TIP3    H229201   5.776   3.951   1.030 -1.8324  0.6270  0.2916
 2548TIP3   OH229202   4.551   5.846   1.606 -0.0932  0.1172  0.2979
 2548TIP3    H129203   4.619   5.904   1.640 -3.3259  3.5106  1.6710
 2548TIP3    H229204   4.574   5.760   1.641  2.0736  1.5978  2.9508
 2549TIP3   OH229205   3.329   5.084   7.697 -0.1224 -0.0428 -0.7161
 2549TIP3    H129206   3.423   5.071   7.679 -0.0125  0.1316 -0.2781
 2549TIP3    H229207   3.285   5.045   7.622  0.2730 -1.0069 -0.4747
 2550TIP3   OH229208   6.626   2.877   7.314 -0.1264 -0.1876  0.8393
 2550TIP3    H129209   6.710   2.873   7.359 -0.0366 -0.6426  0.6431
 2550TIP3    H229210   6.580   2.951   7.354  0.4764  0.2370  0.7553
 2551TIP3   OH229211   4.374   2.644   8.342 -0.2137 -0.0590  0.1654
 2551TIP3    H129212   4.283   2.643   8.373  0.2556 -0.0161  1.5967
 2551TIP3    H229213   4.417   2.574   8.391  0.8306  0.7735  0.4699
 2552TIP3   OH229214   1.237   2.416   1.376 -0.0338 -0.2672 -0.1262
 2552TIP3    H129215   1.239   2.503   1.415 -0.7935  0.4983 -1.7104
 2552TIP3    H229216   1.193   2.428   1.292  2.8583 -1.5103 -1.9978
 2553TIP3   OH229217   6.561   0.212   2.501 -0.1361  0.7173 -0.0760
 2553TIP3    H129218   6.595   0.186   2.587  1.5967  1.4962 -0.4669
 2553TIP3    H229219   6.602   0.150   2.440 -2.5327 -0.8062 -0.2751
 2554TIP3   OH229220   0.422   3.418   0.661 -0.0784 -0.0637 -0.4775
 2554TIP3    H129221   0.371   3.466   0.595 -0.6754 -0.1437 -0.0796
 2554TIP3    H229222   0.363   3.409   0.735  0.5586 -0.0774  0.0308
 2555TIP3   OH229223   6.621   4.224   0.994 -0.1029 -0.7830  0.2991
 2555TIP3    H129224   6.583   4.260   0.914 -2.8285 -1.7453  1.0543
 2555TIP3    H229225   6.577   4.271   1.065  2.8934  0.7031  1.3531
 2556TIP3   OH229226   6.487   6.917   7.485 -0.1568 -0.1818  0.1649
 2556TIP3    H129227   6.581   6.924   7.467 -0.1781 -0.5390 -0.0961
 2556TIP3    H229228   6.479   6.834   7.531 -0.1473  0.5565  1.5583
 2557TIP3   OH229229   4.007   5.911   7.655 -0.3753 -0.0792 -0.9949
 2557TIP3    H129230   3.936   5.941   7.713 -0.0203  1.1115 -1.1420
 2557TIP3    H229231   3.963   5.861   7.587 -1.5968  3.4128 -3.0215
 2558TIP3   OH229232   3.177   0.393   7.498 -0.9979  0.1631 -0.0465
 2558TIP3    H129233   3.190   0.298   7.505 -2.3091 -0.3255 -2.7162
 2558TIP3    H229234   3.264   0.430   7.511 -0.5714 -1.3265  1.7016
 2559TIP3   OH229235   6.217   2.965   1.373 -0.0946 -0.4368  0.0970
 2559TIP3    H129236   6.183   2.881   1.404 -0.1038 -0.3495  0.3269
 2559TIP3    H229237   6.145   3.027   1.387 -0.5358 -0.6236 -1.2233
 2560TIP3   OH229238   2.941   4.771   0.868 -0.1141 -0.6613  0.1762
 2560TIP3    H129239   2.869   4.711   0.886 -2.0092  0.4283 -2.8996
 2560TIP3    H229240   2.906   4.831   0.802  2.5200  2.1935  1.1228
 2561TIP3   OH229241   1.923   3.832   1.260  0.2670 -0.0123  0.0554
 2561TIP3    H129242   1.993   3.896   1.265  0.5379 -0.2856 -0.2211
 2561TIP3    H229243   1.846   3.882   1.236 -0.2594  0.7548  2.9413
 2562TIP3   OH229244   0.061   5.729   0.459  0.0879 -0.2266 -0.2187
 2562TIP3    H129245   0.084   5.822   0.460  2.0539 -0.6317  2.1810
 2562TIP3    H229246  -0.029   5.726   0.489  0.3233  0.8722  0.6585
 2563TIP3   OH229247   6.025   0.549   1.056  0.5278  0.0166 -0.4216
 2563TIP3    H129248   5.995   0.520   1.142 -1.1082 -3.0077 -1.8461
 2563TIP3    H229249   6.099   0.492   1.036  0.9060  0.7017 -1.0323
 2564TIP3   OH229250   6.583   4.013   8.012  0.2093 -0.0924 -0.3705
 2564TIP3    H129251   6.523   4.015   7.937  0.3934 -0.7251 -0.5443
 2564TIP3    H229252   6.544   4.073   8.075 -0.0296  0.3312 -0.9137
 2565TIP3   OH229253   2.545   4.947   2.607 -0.7189  0.1407  0.2963
 2565TIP3    H129254   2.621   4.968   2.660  0.6757 -0.7192 -1.2635
 2565TIP3    H229255   2.500   5.031   2.596  0.1954  0.7361  0.9417
 2566TIP3   OH229256   6.396   6.895   7.982  0.1518 -0.3056 -0.4941
 2566TIP3    H129257   6.304   6.868   7.980  0.4113 -1.2179 -2.4554
 2566TIP3    H229258   6.400   6.960   8.053 -1.9758 -0.3140 -0.2919
 2567TIP3   OH229259   0.784   2.502   0.549  0.4874  0.5074  0.1342
 2567TIP3    H129260   0.866   2.469   0.585 -0.0222 -0.1015  0.7712
 2567TIP3    H229261   0.719   2.437   0.574  0.1544 -0.2041 -2.3192
 2568TIP3   OH229262   0.565   5.409   7.840  0.1842 -0.6790  0.1664
 2568TIP3    H129263   0.562   5.372   7.751 -0.1818 -0.4888  0.0985
 2568TIP3    H229264   0.646   5.373   7.878 -0.2655 -1.7139  0.1787
 2569TIP3   OH229265   0.739   6.609   3.143  0.2223 -0.6043  0.1586
 2569TIP3    H129266   0.688   6.537   3.180  0.3687 -0.9163 -0.2469
 2569TIP3    H229267   0.717   6.609   3.050  0.2948 -0.1824  0.1392
 2570TIP3   OH229268   1.730   2.656   2.524 -0.5272 -0.2384  0.3157
 2570TIP3    H129269   1.741   2.740   2.479  1.0469 -0.0900  0.8878
 2570TIP3    H229270   1.747   2.677   2.616  0.1519 -1.2289  0.4250
 2571TIP3   OH229271   5.831   2.857   0.950  0.1573 -0.1556 -0.0363
 2571TIP3    H129272   5.826   2.809   1.032  1.0388 -0.6520 -0.2604
 2571TIP3    H229273   5.817   2.948   0.974  1.1429 -0.2062  0.7717
 2572TIP3   OH229274   3.666   0.533   7.910 -0.2684  0.0003  0.2505
 2572TIP3    H129275   3.659   0.448   7.868  1.3864 -0.2273  0.3967
 2572TIP3    H229276   3.681   0.514   8.003  0.7033  0.4146  0.1956
 2573TIP3   OH229277   1.268   6.718   7.097  0.4338  0.1852 -0.2584
 2573TIP3    H129278   1.250   6.637   7.146  0.7459 -0.3469 -1.0005
 2573TIP3    H229279   1.184   6.764   7.094  0.5351  0.5068  1.2546
 2574TIP3   OH229280   6.480   4.357   0.797 -0.0164 -0.0323  0.4094
 2574TIP3    H129281   6.538   4.379   0.724  0.2624  1.5668  1.0550
 2574TIP3    H229282   6.400   4.324   0.757  0.0035  1.1395 -0.6435
 2575TIP3   OH229283   0.537   2.264   0.317 -0.0101  0.0083 -0.1101
 2575TIP3    H129284   0.508   2.309   0.397 -0.3563 -0.6882  0.1623
 2575TIP3    H229285   0.457   2.251   0.267  0.1517  0.0850 -0.3911
 2576TIP3   OH229286   4.925   1.384   1.326  0.2592  0.2323  0.6975
 2576TIP3    H129287   4.961   1.296   1.333  0.4179  0.2458  0.0994
 2576TIP3    H229288   4.992   1.441   1.365  1.3033  0.3522 -1.1921
 2577TIP3   OH229289   3.696   0.009   0.240 -0.0577 -0.0284 -0.5430
 2577TIP3    H129290   3.713  -0.085   0.228  2.2179  0.1562  0.7177
 2577TIP3    H229291   3.610   0.012   0.282  0.2980 -1.6466  0.4163
 2578TIP3   OH229292   5.358   6.415   0.785  0.6670  0.0385  0.0836
 2578TIP3    H129293   5.391   6.330   0.756 -1.9196 -1.1191  0.2203
 2578TIP3    H229294   5.296   6.395   0.855  2.8992  2.4011  2.9628
 2579TIP3   OH229295   1.886   3.461   1.218  0.7986 -0.1340 -0.3923
 2579TIP3    H129296   1.874   3.384   1.274 -1.1452  0.4568  0.1034
 2579TIP3    H229297   1.798   3.482   1.187  1.1566  2.1960 -0.0700
 2580TIP3   OH229298   5.956   2.089   1.070  0.1429  0.4286  0.0119
 2580TIP3    H129299   6.016   2.106   0.998 -0.9934 -0.4218 -1.1782
 2580TIP3    H229300   5.981   2.003   1.103 -1.0705 -0.4310 -1.2129
 2581TIP3   OH229301   3.652   0.417   1.345  0.2389  0.3374 -0.2964
 2581TIP3    H129302   3.698   0.374   1.417  1.0689  2.0035  0.2135
 2581TIP3    H229303   3.701   0.391   1.267  0.4564  0.0041 -0.0516
 2582TIP3   OH229304   0.138   4.425   0.302 -0.0515  0.1019 -0.2781
 2582TIP3    H129305   0.076   4.471   0.359  0.5917 -0.1884  0.6858
 2582TIP3    H229306   0.196   4.494   0.270  0.1206  0.1536  0.1345
 2583TIP3   OH229307   0.795   6.627   1.200  0.1594 -0.0461  0.3006
 2583TIP3    H129308   0.700   6.630   1.207  0.0395  2.0447 -1.2408
 2583TIP3    H229309   0.813   6.556   1.139 -0.2313 -1.8303  2.1777
 2584TIP3   OH229310   4.065   0.097   3.034  0.2524  0.8276  0.2966
 2584TIP3    H129311   4.094   0.188   3.028  0.4081  0.6783 -2.0883
 2584TIP3    H229312   4.003   0.096   3.107  0.1397  2.8754  0.2728
 2585TIP3   OH229313   1.154   1.256   1.870  0.1290 -0.0819  0.2630
 2585TIP3    H129314   1.215   1.225   1.938 -1.7511 -2.0819  1.1395
 2585TIP3    H229315   1.110   1.331   1.910  0.9834  0.4921  0.1563
 2586TIP3   OH229316   1.569   6.593   2.269  0.3159  0.2340 -0.0146
 2586TIP3    H129317   1.526   6.557   2.192 -0.6786  3.5295 -1.1579
 2586TIP3    H229318   1.556   6.527   2.337 -0.6810 -1.8044 -2.0617
 2587TIP3   OH229319   4.732   3.628   7.157  0.0664  0.3238 -0.4413
 2587TIP3    H129320   4.819   3.617   7.119  0.3629  1.7783 -0.2699
 2587TIP3    H229321   4.728   3.562   7.226  1.3223  0.6527 -0.0054
 2588TIP3   OH229322   5.110   3.717   1.901 -0.7779  0.2681  0.4698
 2588TIP3    H129323   5.148   3.648   1.955 -0.3152  0.8725  0.9284
 2588TIP3    H229324   5.086   3.786   1.963  0.6094  1.3694 -0.1475
 2589TIP3   OH229325   0.739   1.479   1.632  0.2871 -0.0083 -0.0567
 2589TIP3    H129326   0.731   1.482   1.536  2.5577  1.9685 -0.2842
 2589TIP3    H229327   0.796   1.404   1.649 -0.1753 -0.4050 -0.2266
 2590TIP3   OH229328   4.761   0.455   6.803  0.0798 -0.2110  0.3302
 2590TIP3    H129329   4.710   0.384   6.764  0.5268 -0.0266 -0.6246
 2590TIP3    H229330   4.697   0.506   6.854 -0.7072  0.0314 -0.8520
 2591TIP3   OH229331   6.344   6.048   7.403 -0.3217 -0.3662 -0.5181
 2591TIP3    H129332   6.251   6.062   7.386 -0.5297 -0.7933  0.2523
 2591TIP3    H229333   6.382   6.136   7.400 -0.9991 -0.0092  0.6079
 2592TIP3   OH229334   4.113   6.102   8.364  0.0080 -0.3238 -0.0633
 2592TIP3    H129335   4.112   6.011   8.333 -1.1254 -0.2576 -0.2628
 2592TIP3    H229336   4.051   6.103   8.437 -1.0086  0.5486 -0.8872
 2593TIP3   OH229337   1.346   2.815   8.240  0.5317 -0.0589 -0.4687
 2593TIP3    H129338   1.418   2.779   8.188  0.8504 -0.0602 -0.0305
 2593TIP3    H229339   1.335   2.753   8.311  0.4337  0.2057 -0.2528
 2594TIP3   OH229340   1.537   4.988   1.528  0.2197 -0.1028 -0.1861
 2594TIP3    H129341   1.453   5.005   1.571  0.1486  0.4280 -0.5219
 2594TIP3    H229342   1.582   5.073   1.529  1.4262 -0.7113  1.3891
 2595TIP3   OH229343   1.726   0.055   1.369  0.3218  0.3618  0.0522
 2595TIP3    H129344   1.812   0.057   1.328  0.1836 -0.6891 -0.3134
 2595TIP3    H229345   1.676  -0.007   1.316 -0.0197 -0.6359  1.4889
 2596TIP3   OH229346   3.512   5.791   0.965 -0.0449 -0.3300 -0.0489
 2596TIP3    H129347   3.583   5.751   0.914 -0.7526 -0.8376 -0.6497
 2596TIP3    H229348   3.481   5.721   1.022  0.4072  0.0992  0.7436
 2597TIP3   OH229349   1.707   5.705   0.960 -0.5041  0.4634  0.5144
 2597TIP3    H129350   1.783   5.674   0.910 -0.1985 -0.0228  1.2532
 2597TIP3    H229351   1.715   5.661   1.045 -0.8125  1.5427  1.1199
 2598TIP3   OH229352   3.704   0.338   7.088 -0.0035  0.3114  0.6541
 2598TIP3    H129353   3.778   0.389   7.057  0.1006  0.6885  1.4828
 2598TIP3    H229354   3.631   0.401   7.090 -0.2426  0.0547  0.2756
 2599TIP3   OH229355   1.299   0.329   1.094  0.5310  0.1143  0.1651
 2599TIP3    H129356   1.216   0.286   1.079  0.6556 -0.5500  1.2595
 2599TIP3    H229357   1.304   0.340   1.189  2.1885 -0.9149  0.2371
 2600TIP3   OH229358   1.981   2.941   2.867  0.2311  0.8669 -0.1908
 2600TIP3    H129359   1.914   2.998   2.827  0.2753  1.5790  0.7106
 2600TIP3    H229360   2.061   2.993   2.863  0.2219  0.9814  0.8578
 2601TIP3   OH229361   5.197   1.394   0.850  0.0895  0.2234  0.5277
 2601TIP3    H129362   5.106   1.394   0.881  0.3130 -1.8529  1.3008
 2601TIP3    H229363   5.212   1.305   0.819  1.6905  0.7078 -0.2010
 2602TIP3   OH229364   6.680   0.356   1.524 -0.3599  0.0840 -0.2439
 2602TIP3    H129365   6.679   0.442   1.483 -0.8868  0.3031  0.2164
 2602TIP3    H229366   6.635   0.299   1.461 -2.1482  0.6393  0.4744
 2603TIP3   OH229367   0.525   4.644   0.389  0.5215  0.0042  0.2928
 2603TIP3    H129368   0.536   4.736   0.412 -0.2855 -0.0482  0.9651
 2603TIP3    H229369   0.486   4.605   0.468  0.1383 -0.7454 -0.2557
 2604TIP3   OH229370   1.032   0.167   7.589  0.2442 -0.1046  0.6536
 2604TIP3    H129371   1.114   0.140   7.547  0.3511  0.2157  0.6520
 2604TIP3    H229372   1.018   0.256   7.558 -1.5054 -1.0275 -1.5158
 2605TIP3   OH229373   0.533   4.706   7.070  0.0357  0.1318  0.0287
 2605TIP3    H129374   0.583   4.774   7.024 -0.0148 -1.4311 -2.5004
 2605TIP3    H229375   0.598   4.639   7.089 -0.3042 -0.0159  0.6938
 2606TIP3   OH229376   5.922   5.277   8.138  0.1900  0.6656 -0.3835
 2606TIP3    H129377   5.841   5.233   8.112  0.2766 -0.3514  0.9590
 2606TIP3    H229378   5.918   5.280   8.234  0.7191  2.5999 -0.3690
 2607TIP3   OH229379   0.675   6.082   1.289 -0.2313  0.0829  0.3313
 2607TIP3    H129380   0.758   6.100   1.333  0.3087  1.3499 -1.1062
 2607TIP3    H229381   0.646   6.168   1.257 -1.9473 -0.3864  0.5302
 2608TIP3   OH229382   6.445   2.154   1.144  0.1608 -0.7846  0.5407
 2608TIP3    H129383   6.380   2.134   1.211  1.0662 -2.4292  0.9883
 2608TIP3    H229384   6.487   2.235   1.173 -0.3818 -0.7434  1.2303
 2609TIP3   OH229385   0.867   3.419   2.958  0.1019 -0.6880  0.2301
 2609TIP3    H129386   0.801   3.357   2.929  0.4406 -0.0003 -2.2515
 2609TIP3    H229387   0.900   3.458   2.878  1.8130  0.7544  1.5471
 2610TIP3   OH229388   4.299   1.050   0.341  0.3460 -0.1380  0.1046
 2610TIP3    H129389   4.263   1.065   0.253  0.1652  1.0303  0.3676
 2610TIP3    H229390   4.271   1.125   0.392  3.5301  1.1528  0.2032
 2611TIP3   OH229391   4.195   3.235   0.814 -0.3738  0.1537  0.0312
 2611TIP3    H129392   4.262   3.209   0.751 -0.1483  1.0503 -0.1125
 2611TIP3    H229393   4.124   3.270   0.761 -0.9408 -0.7286  0.1876
 2612TIP3   OH229394   6.945   4.677   0.007 -0.1974 -0.0590  0.1207
 2612TIP3    H129395   6.999   4.597   0.001 -0.5439 -0.3550  0.7869
 2612TIP3    H229396   6.976   4.732  -0.064  0.3935 -0.5874 -0.0440
 2613TIP3   OH229397   4.140   0.696   7.210  0.2029  0.2564  0.4596
 2613TIP3    H129398   4.201   0.637   7.167  0.4600  1.4361 -0.8865
 2613TIP3    H229399   4.192   0.773   7.233 -0.0978 -0.0337  2.2703
 2614TIP3   OH229400   1.093   1.846   1.480  0.0363  0.1050 -0.2938
 2614TIP3    H129401   1.055   1.759   1.464  1.4410 -0.9418  1.6379
 2614TIP3    H229402   1.113   1.880   1.393  0.0903 -1.8240 -1.0751
 2615TIP3   OH229403   1.556   5.802   0.720 -0.4237  0.3293  0.0138
 2615TIP3    H129404   1.494   5.866   0.754  0.0765  0.4511  0.7289
 2615TIP3    H229405   1.566   5.738   0.790 -1.4922 -0.9792 -0.9774
 2616TIP3   OH229406   1.618   4.027   7.294  0.4185 -0.0209  0.4121
 2616TIP3    H129407   1.635   3.975   7.216  0.5928 -0.2311  0.5879
 2616TIP3    H229408   1.618   3.963   7.365  1.2497  0.2991  0.7148
 2617TIP3   OH229409   3.280   5.812   0.199 -0.0812  0.6036  0.4188
 2617TIP3    H129410   3.359   5.845   0.242  0.1808 -0.5482  0.8440
 2617TIP3    H229411   3.209   5.860   0.241  0.3398  1.2569  0.4128
 2618TIP3   OH229412   6.487   1.867   8.135  0.5768  0.0180  0.4279
 2618TIP3    H129413   6.405   1.818   8.137  0.6508 -0.1317 -0.1934
 2618TIP3    H229414   6.555   1.803   8.158  0.4167  0.3848  2.0601
 2619TIP3   OH229415   0.046   0.136   8.116 -0.4216 -0.9435 -0.6364
 2619TIP3    H129416  -0.026   0.135   8.180 -0.4214  1.2987 -0.5144
 2619TIP3    H229417   0.061   0.044   8.095  0.4912 -1.9735  3.6215
 2620TIP3   OH229418   2.102   1.649   2.667  0.5176 -0.5752  0.5697
 2620TIP3    H129419   2.163   1.642   2.740 -1.2689  0.2083  2.2054
 2620TIP3    H229420   2.078   1.558   2.648  1.0332 -0.7852  0.8882
 2621TIP3   OH229421   3.308   1.687   3.019 -0.3742 -0.0831  0.1227
 2621TIP3    H129422   3.323   1.656   2.929 -1.4525 -0.5136  0.0857
 2621TIP3    H229423   3.291   1.781   3.009 -0.0250 -0.0382 -0.0701
 2622TIP3   OH229424   2.444   5.547   3.346  0.5275  0.5434  0.1906
 2622TIP3    H129425   2.444   5.522   3.254  1.2470  0.4394  0.2143
 2622TIP3    H229426   2.351   5.561   3.367  0.2248 -0.7854 -0.1801
 2623TIP3   OH229427   4.300   0.963   7.489  0.0345  0.3324  0.0700
 2623TIP3    H129428   4.383   0.997   7.455  0.7520 -1.8609 -0.5440
 2623TIP3    H229429   4.248   0.947   7.411  0.5613 -1.9543  0.1293
 2624TIP3   OH229430   5.469   0.689   8.323 -0.2297  0.2021 -0.2107
 2624TIP3    H129431   5.467   0.614   8.263 -0.7446 -0.2230  0.3224
 2624TIP3    H229432   5.416   0.756   8.280  0.7769  0.5112 -1.0019
 2625TIP3   OH229433   6.163   1.153   2.292  0.5605  0.0946  0.0708
 2625TIP3    H129434   6.168   1.107   2.208 -2.3884  0.7318 -0.5497
 2625TIP3    H229435   6.166   1.246   2.269 -2.1558  0.3403  0.3629
 2626TIP3   OH229436   6.875   3.588   6.883  0.2352 -0.2394  0.1889
 2626TIP3    H129437   6.845   3.668   6.927 -0.9507 -0.4612 -0.1667
 2626TIP3    H229438   6.957   3.567   6.926  0.8620  1.4699 -0.0805
 2627TIP3   OH229439   3.512   1.831   7.093 -0.0531  0.2832 -0.2910
 2627TIP3    H129440   3.419   1.810   7.084  0.1527 -1.7482  1.5269
 2627TIP3    H229441   3.557   1.760   7.048  0.6233 -0.6343  1.7172
 2628TIP3   OH229442   5.446   1.284   2.551  0.1861  0.0277 -0.2001
 2628TIP3    H129443   5.533   1.245   2.543 -0.6930 -2.2953  0.7400
 2628TIP3    H229444   5.460   1.365   2.601  1.5465 -1.5215  2.0991
 2629TIP3   OH229445   6.742   3.852   1.420 -0.0042  0.0707  0.4059
 2629TIP3    H129446   6.737   3.919   1.352  0.2840 -1.0975 -0.8113
 2629TIP3    H229447   6.822   3.804   1.400 -0.2863 -0.7357  1.1501
 2630TIP3   OH229448   1.185   2.546   0.928  0.0016 -0.4137  0.1104
 2630TIP3    H129449   1.131   2.624   0.925  0.6613  0.4173  3.9410
 2630TIP3    H229450   1.274   2.578   0.914  0.1838 -0.5392  0.8902
 2631TIP3   OH229451   5.441   3.333   2.299  0.1459 -0.2388  0.5962
 2631TIP3    H129452   5.524   3.382   2.303 -0.4329  0.9525 -1.0760
 2631TIP3    H229453   5.407   3.337   2.389  0.8893  1.0814  0.8529
 2632TIP3   OH229454   3.239   0.004   1.013 -0.0405 -0.2135 -0.3326
 2632TIP3    H129455   3.150  -0.004   0.978  0.1347 -1.2091 -0.5839
 2632TIP3    H229456   3.227   0.041   1.100 -0.5851  1.0097 -0.9010
 2633TIP3   OH229457   2.133   2.912   2.259 -0.0208 -0.3141 -0.1082
 2633TIP3    H129458   2.190   2.863   2.318  2.3825  0.9471 -1.2177
 2633TIP3    H229459   2.109   2.990   2.308 -0.1317 -0.4735  0.0907
 2634TIP3   OH229460   6.614   6.824   6.533 -0.5254  0.4514  0.3642
 2634TIP3    H129461   6.526   6.788   6.538 -0.8950  0.8165 -2.1162
 2634TIP3    H229462   6.616   6.894   6.599 -1.7771 -0.1386  1.0434
 2635TIP3   OH229463   1.058   5.807   1.259 -0.2119 -0.4136  0.2556
 2635TIP3    H129464   1.135   5.757   1.231  0.9780  0.7048  1.4038
 2635TIP3    H229465   0.986   5.769   1.209  0.9092 -2.1637 -0.1214
 2636TIP3   OH229466   0.403   2.266   2.452  0.8479  0.0952  0.0696
 2636TIP3    H129467   0.459   2.189   2.438  0.1464 -0.3777 -0.1900
 2636TIP3    H229468   0.366   2.252   2.539  0.8449  0.2228  0.0884
 2637TIP3   OH229469   1.859   3.943   7.992  0.3221  0.1389  0.1077
 2637TIP3    H129470   1.929   3.881   8.013 -0.5495  0.1072  3.4219
 2637TIP3    H229471   1.855   4.002   8.067 -3.3994 -0.0917  0.3160
 2638TIP3   OH229472   2.676   0.654   7.790 -0.2946 -0.5626  0.0233
 2638TIP3    H129473   2.619   0.586   7.754  0.7211 -0.9006 -0.9981
 2638TIP3    H229474   2.735   0.677   7.718  0.2231  0.4830  0.7532
 2639TIP3   OH229475   1.722   6.886   8.174  0.1635 -0.9166  0.5746
 2639TIP3    H129476   1.808   6.895   8.215  1.3468 -0.4190 -1.8449
 2639TIP3    H229477   1.699   6.794   8.185  0.5812 -0.8818  1.9725
 2640TIP3   OH229478   2.616   6.048   7.609 -0.9516 -0.7813  0.6150
 2640TIP3    H129479   2.563   5.971   7.586 -0.7032 -0.5364 -0.9162
 2640TIP3    H229480   2.653   6.077   7.525 -0.1840  0.3777  1.3269
 2641TIP3   OH229481   1.756   0.374   1.281 -0.4411 -0.1935  0.1831
 2641TIP3    H129482   1.823   0.311   1.305  1.1489  1.0450 -0.7933
 2641TIP3    H229483   1.773   0.394   1.188 -1.6583  0.7548  0.1294
 2642TIP3   OH229484   1.695   6.610   0.552 -0.2848  0.1218 -0.0705
 2642TIP3    H129485   1.660   6.564   0.475 -2.4437  0.2374  0.7735
 2642TIP3    H229486   1.728   6.693   0.517 -2.3175  0.6938 -0.7998
 2643TIP3   OH229487   0.119   3.941   1.578 -0.4706  0.3347  0.1583
 2643TIP3    H129488   0.127   3.852   1.542 -0.7581  0.0242  0.8344
 2643TIP3    H229489   0.025   3.955   1.587 -0.4458  0.9512 -0.5209
 2644TIP3   OH229490   5.254   6.283   1.415  0.0031 -0.0063 -0.2219
 2644TIP3    H129491   5.210   6.356   1.460 -0.8666 -0.4316 -0.3605
 2644TIP3    H229492   5.240   6.301   1.322  1.8584  0.9089 -0.3610
 2645TIP3   OH229493   2.971   6.929   0.497 -0.0161 -0.6020 -0.2557
 2645TIP3    H129494   3.034   6.999   0.512 -0.1483 -0.6834  0.7633
 2645TIP3    H229495   3.016   6.866   0.440  0.1175  0.2749 -1.1505
 2646TIP3   OH229496   1.481   3.908   1.337 -0.3814  0.2130 -0.1419
 2646TIP3    H129497   1.391   3.917   1.306 -0.6407  0.1718  0.5794
 2646TIP3    H229498   1.474   3.907   1.433  0.4105  0.5152 -0.0653
 2647TIP3   OH229499   6.232   0.854   8.373 -0.4180 -0.2583 -1.0552
 2647TIP3    H129500   6.175   0.856   8.450  1.4409 -0.0175  0.3880
 2647TIP3    H229501   6.183   0.901   8.306 -1.2727  1.3772  0.6080
 2648TIP3   OH229502   0.992   0.072   0.394  0.4082  0.3074  0.3737
 2648TIP3    H129503   0.991   0.024   0.311  1.1845 -1.0875  1.1357
 2648TIP3    H229504   0.929   0.143   0.381 -0.1358 -0.3977 -1.1020
 2649TIP3   OH229505   5.331   2.759   7.824  0.1047 -0.3605 -0.6832
 2649TIP3    H129506   5.358   2.840   7.866  1.1682  0.6453 -3.1085
 2649TIP3    H229507   5.379   2.690   7.871 -0.5557  0.3937  1.1803
 2650TIP3   OH229508   6.860   4.918   1.468 -0.2244  0.6153 -0.2083
 2650TIP3    H129509   6.902   5.004   1.480  0.1449  0.6648 -1.6574
 2650TIP3    H229510   6.916   4.858   1.518 -0.6014  1.2228  0.9920
 2651TIP3   OH229511   3.455   3.237   7.765 -0.2381 -0.4213 -0.3495
 2651TIP3    H129512   3.415   3.317   7.799  0.1850 -0.1656 -0.4562
 2651TIP3    H229513   3.415   3.167   7.817  0.4219 -0.0334  0.7119
 2652TIP3   OH229514   3.676   5.812   7.903  0.5903  0.1887 -0.4096
 2652TIP3    H129515   3.672   5.829   7.809  2.6792 -0.2173 -0.6152
 2652TIP3    H229516   3.699   5.897   7.942 -0.9739  0.5219 -0.1664
 2653TIP3   OH229517   2.114   6.778   1.230  0.0781  0.0458  0.0532
 2653TIP3    H129518   2.096   6.871   1.245 -1.2374 -0.2975  0.7794
 2653TIP3    H229519   2.204   6.766   1.259 -0.3917  0.7009  1.9060
 2654TIP3   OH229520   0.726   4.636   2.101  0.3604  0.2836  0.0675
 2654TIP3    H129521   0.645   4.677   2.070  1.1531  1.5610 -0.3755
 2654TIP3    H229522   0.733   4.555   2.052 -0.1449  0.6508 -0.6226
 2655TIP3   OH229523   0.548   4.570   0.938 -0.0365 -0.2936 -0.5412
 2655TIP3    H129524   0.459   4.534   0.936 -0.0883 -0.2319  0.5343
 2655TIP3    H229525   0.544   4.643   0.999  0.4082  0.7033 -1.6513
 2656TIP3   OH229526   3.164   5.003   7.457  0.8914 -0.3130 -0.0231
 2656TIP3    H129527   3.179   4.913   7.487 -0.1019 -0.5182 -0.0905
 2656TIP3    H229528   3.171   4.997   7.362 -1.3754 -0.8063 -0.2076
 2657TIP3   OH229529   3.670   3.837   1.225 -0.1360  1.3091  0.0590
 2657TIP3    H129530   3.588   3.789   1.236  0.2428  0.3285 -1.0919
 2657TIP3    H229531   3.706   3.804   1.142  0.9521  2.4115  0.0634
 2658TIP3   OH229532   4.982   4.234   3.070  0.3906 -0.1752 -0.2359
 2658TIP3    H129533   4.920   4.163   3.054  0.4997 -0.4262  0.4322
 2658TIP3    H229534   5.009   4.262   2.983 -1.2629  0.4793 -0.5844
 2659TIP3   OH229535   2.741   1.772   2.067 -0.1548 -0.4244  0.5274
 2659TIP3    H129536   2.820   1.818   2.094  0.0169 -0.6715  0.4466
 2659TIP3    H229537   2.771   1.708   2.002 -0.2910 -1.0867  1.1010
 2660TIP3   OH229538   6.873   0.642   7.505  0.1558 -1.0534  0.2197
 2660TIP3    H129539   6.779   0.631   7.491  0.4103 -1.9451 -0.9441
 2660TIP3    H229540   6.886   0.622   7.597 -0.9695  0.4227  0.7390
 2661TIP3   OH229541   6.093   4.272   8.338 -0.0038 -0.0293  0.2713
 2661TIP3    H129542   5.999   4.274   8.355  0.2673  0.4690  1.8865
 2661TIP3    H229543   6.132   4.311   8.416  1.4560  1.5541 -1.1762
 2662TIP3   OH229544   3.784   3.376   0.431  0.0212  0.0798 -0.1357
 2662TIP3    H129545   3.702   3.425   0.428  0.9694  1.7388 -0.2416
 2662TIP3    H229546   3.758   3.285   0.442 -1.7807  0.8334  2.6208
 2663TIP3   OH229547   2.818   0.282   7.495 -0.2559 -0.1751 -0.3074
 2663TIP3    H129548   2.741   0.323   7.456  0.7358  1.0448 -1.0845
 2663TIP3    H229549   2.862   0.238   7.422  0.9456  1.0663 -0.3953
 2664TIP3   OH229550   6.782   5.208   1.441 -0.3578 -0.2047 -0.1958
 2664TIP3    H129551   6.759   5.193   1.533  1.9054  0.4709  0.5719
 2664TIP3    H229552   6.812   5.299   1.439  0.3431 -0.4460 -1.4286
 2665TIP3   OH229553   0.367   1.167   0.212 -0.2195  0.2151 -0.5441
 2665TIP3    H129554   0.453   1.191   0.178 -0.3066  2.6849  0.7467
 2665TIP3    H229555   0.305   1.200   0.147 -0.2288 -1.0766 -1.2081
 2666TIP3   OH229556   2.567   1.533   0.894  0.0862  0.0877  0.9793
 2666TIP3    H129557   2.655   1.568   0.879  0.2443  0.0253  1.7531
 2666TIP3    H229558   2.531   1.521   0.806  1.1078 -0.5465  0.6325
 2667TIP3   OH229559   6.198   5.650   1.780 -0.0148  0.6442  0.2678
 2667TIP3    H129560   6.279   5.600   1.774  0.5505  1.6345 -0.7113
 2667TIP3    H229561   6.195   5.701   1.700 -2.2342 -0.2619 -0.3186
 2668TIP3   OH229562   6.626   0.896   3.147 -0.1681 -0.5191  0.0882
 2668TIP3    H129563   6.660   0.851   3.225  0.7128 -0.6947 -0.3902
 2668TIP3    H229564   6.690   0.964   3.128 -0.4688 -0.3660 -0.3923
 2669TIP3   OH229565   2.877   0.313   2.236 -0.2322 -0.1373 -0.1617
 2669TIP3    H129566   2.827   0.266   2.302 -0.6450  0.2013 -0.2306
 2669TIP3    H229567   2.953   0.347   2.284  0.2775 -1.1941 -0.1965
 2670TIP3   OH229568   1.521   4.725   1.613 -0.0170  0.0915 -0.0198
 2670TIP3    H129569   1.532   4.739   1.707  1.6488 -0.3208 -0.1231
 2670TIP3    H229570   1.543   4.810   1.573  0.3404 -0.0359 -0.0950
 2671TIP3   OH229571   6.770   2.910   2.382 -0.9532  0.9263 -0.0337
 2671TIP3    H129572   6.782   2.878   2.472 -0.5063 -2.5847 -1.1967
 2671TIP3    H229573   6.675   2.917   2.373 -1.0765 -0.1581  0.2885
 2672TIP3   OH229574   5.337   0.016   2.172 -0.0723 -0.2231 -0.3911
 2672TIP3    H129575   5.404   0.007   2.240 -0.4832 -0.0169  0.0509
 2672TIP3    H229576   5.370  -0.036   2.099  1.0941  0.7634 -0.6022
 2673TIP3   OH229577   6.032   6.887   0.241  0.1581 -0.1300 -0.3140
 2673TIP3    H129578   6.022   6.797   0.211  1.8138 -0.3050 -0.4683
 2673TIP3    H229579   6.107   6.921   0.191 -0.8527  1.5706 -0.7652
 2674TIP3   OH229580   0.973   4.458   7.516  0.4204 -0.3630 -0.4862
 2674TIP3    H129581   1.042   4.509   7.474 -0.7326  1.8268  0.0967
 2674TIP3    H229582   0.981   4.479   7.609 -1.9674  1.2867 -0.5645
 2675TIP3   OH229583   3.036   1.222   8.285 -0.2178 -0.1355 -0.0959
 2675TIP3    H129584   3.092   1.152   8.320 -0.2927 -0.3905 -0.4793
 2675TIP3    H229585   3.076   1.302   8.318  1.3781 -0.1964 -1.6737
 2676TIP3   OH229586   3.264   3.157   7.265 -0.3147  0.0381  0.1079
 2676TIP3    H129587   3.297   3.157   7.355 -1.2334  1.8359  0.4943
 2676TIP3    H229588   3.309   3.084   7.223  1.0449 -0.1035  1.6979
 2677TIP3   OH229589   2.352   4.506   2.605 -0.1224  0.2778  0.4021
 2677TIP3    H129590   2.378   4.414   2.602  0.0017  0.3339 -2.2910
 2677TIP3    H229591   2.427   4.552   2.642  0.8526 -0.4318 -0.6401
 2678TIP3   OH229592   0.324   3.842   1.750 -0.5126  0.4044  0.0648
 2678TIP3    H129593   0.252   3.880   1.700 -0.5282  2.1242  1.2964
 2678TIP3    H229594   0.365   3.917   1.794  1.1891 -0.7014  0.4642
 2679TIP3   OH229595   3.416   6.724   1.011 -0.2111  0.3298 -0.4381
 2679TIP3    H129596   3.353   6.784   0.972 -0.2767  0.2757 -0.4166
 2679TIP3    H229597   3.382   6.706   1.099 -0.2831  0.1279 -0.5060
 2680TIP3   OH229598   1.735   6.558   7.080  0.6017  0.1506  0.1367
 2680TIP3    H129599   1.808   6.599   7.033  0.5078  0.1339 -0.0255
 2680TIP3    H229600   1.676   6.527   7.011  0.5161  0.0265  0.2644
 2681TIP3   OH229601   4.642   1.972   1.940  0.3657  0.1713 -1.1512
 2681TIP3    H129602   4.683   1.962   2.025  1.0096 -0.9407 -1.5761
 2681TIP3    H229603   4.714   1.988   1.879 -0.1618  2.0469 -1.3660
 2682TIP3   OH229604   2.275   0.044   3.021 -0.2575 -0.1713  0.2796
 2682TIP3    H129605   2.306   0.123   2.976  0.0781  0.4873  1.6242
 2682TIP3    H229606   2.189   0.027   2.982 -0.1424  0.5987 -0.3377
 2683TIP3   OH229607   2.913   6.401   1.179  0.1625 -0.8666 -0.3344
 2683TIP3    H129608   2.874   6.488   1.193  0.6871 -0.6189 -0.3835
 2683TIP3    H229609   2.838   6.341   1.180 -0.6321 -0.0968 -3.3459
 2684TIP3   OH229610   5.931   1.093   2.451  0.0737  0.3469  0.1648
 2684TIP3    H129611   6.010   1.093   2.398  0.2704  2.0078  0.3879
 2684TIP3    H229612   5.894   1.005   2.440  2.2487 -0.6816  0.5519
 2685TIP3   OH229613   6.233   6.371   1.407 -0.3239 -0.4269 -0.0103
 2685TIP3    H129614   6.291   6.332   1.472  0.9561 -0.1412 -0.9526
 2685TIP3    H229615   6.213   6.300   1.346  1.2480  0.0838 -1.1935
 2686TIP3   OH229616   0.120   3.057   0.921 -0.2330 -0.6913 -0.3333
 2686TIP3    H129617   0.069   3.004   0.982 -0.5241 -0.5990 -0.4938
 2686TIP3    H229618   0.081   3.040   0.835 -1.8913  1.5687 -0.1163
 2687TIP3   OH229619   5.892   2.018   0.437 -0.4918  0.0985  0.1070
 2687TIP3    H129620   5.919   1.929   0.460 -0.0072 -0.3164 -1.8764
 2687TIP3    H229621   5.871   2.059   0.521 -0.3807 -1.7610  1.1026
 2688TIP3   OH229622   1.918   2.771   3.080  0.5039 -0.7007 -0.4444
 2688TIP3    H129623   1.906   2.811   3.166 -0.5274 -2.5599  0.3400
 2688TIP3    H229624   1.943   2.843   3.023 -2.7119  1.3936  0.5208
 2689TIP3   OH229625   3.988   6.062   1.139 -0.4153  0.2859 -0.3822
 2689TIP3    H129626   4.080   6.036   1.135 -0.5517 -0.6250  1.4704
 2689TIP3    H229627   3.940   5.980   1.145 -1.1523  0.7987  1.2139
 2690TIP3   OH229628   5.040   0.378   8.133 -0.1879  0.7268  0.1277
 2690TIP3    H129629   4.982   0.373   8.057 -1.9528  0.9450  1.4164
 2690TIP3    H229630   5.059   0.287   8.155  0.4580  0.6616 -0.6305
 2691TIP3   OH229631   2.274   1.137   7.017 -0.0518  0.2789 -0.2548
 2691TIP3    H129632   2.345   1.201   7.026 -0.5444  0.8374 -0.3595
 2691TIP3    H229633   2.258   1.132   6.922  0.9122 -1.0249 -0.3903
 2692TIP3   OH229634   2.311   0.990   1.155 -0.3059  0.0728 -0.4804
 2692TIP3    H129635   2.321   1.028   1.243 -0.0197 -0.2383 -0.3780
 2692TIP3    H229636   2.281   0.900   1.171  0.1400 -0.1143 -0.6913
 2693TIP3   OH229637   3.217   0.220   1.481  0.0742 -0.7704 -0.1062
 2693TIP3    H129638   3.260   0.271   1.413 -1.1408 -1.3231 -1.3510
 2693TIP3    H229639   3.126   0.251   1.480 -0.1429 -1.3425  0.7304
 2694TIP3   OH229640   0.968   1.050   7.163 -0.4551 -0.3808 -0.0929
 2694TIP3    H129641   1.040   0.998   7.128 -0.1878  0.7085 -1.2501
 2694TIP3    H229642   1.010   1.113   7.222 -0.3467  0.6474 -1.2270
 2695TIP3   OH229643   4.819   6.322   2.136 -0.2218 -0.1726 -0.0826
 2695TIP3    H129644   4.767   6.346   2.060 -0.3549  0.5127  0.2242
 2695TIP3    H229645   4.757   6.321   2.209  0.0795  0.0547  0.1772
 2696TIP3   OH229646   2.663   3.871   2.186 -0.3599  0.1297 -0.8859
 2696TIP3    H129647   2.642   3.841   2.097  0.9308  1.3480 -1.6690
 2696TIP3    H229648   2.754   3.903   2.179  0.4094 -1.3653  1.3245
 2697TIP3   OH229649   6.490   0.538   0.639  0.1984  0.1795 -0.0384
 2697TIP3    H129650   6.495   0.512   0.730  0.2932  2.4877  0.6868
 2697TIP3    H229651   6.580   0.562   0.615 -0.3876  3.8593  0.7585
 2698TIP3   OH229652   3.876   1.077   2.226  0.6015 -0.4781 -0.5945
 2698TIP3    H129653   3.812   1.055   2.294  1.2849 -1.3401 -0.2077
 2698TIP3    H229654   3.842   1.038   2.146  0.6681 -0.9883 -0.3760
 2699TIP3   OH229655   6.307   5.126   7.055  0.4219  0.1112 -0.3178
 2699TIP3    H129656   6.320   5.124   7.150 -0.4198  1.9324 -0.1335
 2699TIP3    H229657   6.326   5.036   7.027 -1.5873 -1.1224  1.8710
 2700TIP3   OH229658   6.479   2.925   8.282  0.0354 -0.1937  0.1267
 2700TIP3    H129659   6.475   2.995   8.347 -0.4186 -0.5717  0.5169
 2700TIP3    H229660   6.436   2.962   8.205 -2.6565 -0.8939  1.1677
 2701TIP3   OH229661   4.033   6.085   2.623 -0.5294 -0.0412 -0.0581
 2701TIP3    H129662   4.016   6.052   2.711 -0.2165  0.0565  0.0406
 2701TIP3    H229663   4.118   6.130   2.630 -1.5470  1.9451  0.1231
 2702TIP3   OH229664   5.977   3.735   1.883  0.0942 -0.0561 -0.0507
 2702TIP3    H129665   6.050   3.767   1.829 -0.9463  0.8685 -0.9630
 2702TIP3    H229666   5.973   3.641   1.864  0.6833 -0.0060 -0.4491
 2703TIP3   OH229667   4.816   6.004   7.665 -0.3889 -0.4574 -0.4951
 2703TIP3    H129668   4.849   5.924   7.707  0.9794 -1.9259 -3.9428
 2703TIP3    H229669   4.890   6.035   7.613 -2.0797  0.8657 -2.2316
 2704TIP3   OH229670   5.110   4.762   1.035  0.1396 -0.3732  0.4314
 2704TIP3    H129671   5.168   4.835   1.017  0.5357 -0.0828  2.6154
 2704TIP3    H229672   5.030   4.802   1.070 -0.8255 -0.8544 -1.1081
 2705TIP3   OH229673   2.410   2.058   7.542 -0.3541 -0.4704 -0.1528
 2705TIP3    H129674   2.437   1.982   7.491  0.1424 -0.7606  0.5262
 2705TIP3    H229675   2.351   2.107   7.484 -0.1461 -1.0194 -0.8329
 2706TIP3   OH229676   3.702   4.185   0.981 -0.0334 -0.0658 -0.6725
 2706TIP3    H129677   3.635   4.207   0.917  0.3699 -2.0039 -1.8316
 2706TIP3    H229678   3.765   4.132   0.933 -0.2311 -2.4506  1.5256
 2707TIP3   OH229679   2.873   4.161   7.249  0.2686  0.5536 -0.4497
 2707TIP3    H129680   2.873   4.246   7.205 -0.4278  2.0323  2.1529
 2707TIP3    H229681   2.809   4.171   7.320  1.1651 -1.6796  0.7792
 2708TIP3   OH229682   4.952   1.871   8.015 -0.3395  0.3944 -0.4162
 2708TIP3    H129683   4.971   1.864   8.108 -1.4944 -0.5909 -0.2332
 2708TIP3    H229684   4.976   1.961   7.992  1.3550  0.2165  0.4810
 2709TIP3   OH229685   5.008   2.530   2.226  0.4494 -0.2738 -0.0050
 2709TIP3    H129686   4.983   2.616   2.194 -0.5254 -0.2908  0.6612
 2709TIP3    H229687   4.996   2.472   2.151 -1.6303 -0.2858  0.2934
 2710TIP3   OH229688   3.979   6.270   1.840 -0.6633 -0.8420  0.3573
 2710TIP3    H129689   3.960   6.343   1.781  1.7866 -1.3496 -1.2163
 2710TIP3    H229690   4.001   6.312   1.923 -0.5339  0.1540 -0.1649
 2711TIP3   OH229691   4.390   4.240   7.919 -0.0594 -0.1987 -0.9350
 2711TIP3    H129692   4.367   4.218   7.829 -1.2515  0.5217 -0.8265
 2711TIP3    H229693   4.469   4.189   7.937  0.1296 -0.4339 -2.3427
 2712TIP3   OH229694   5.741   5.383   1.685  0.4332  0.0368 -0.7797
 2712TIP3    H129695   5.684   5.455   1.708 -1.7844 -1.1316 -2.2527
 2712TIP3    H229696   5.714   5.358   1.597  1.7628 -1.9872 -0.6842
 2713TIP3   OH229697   6.189   4.965   8.071  0.2487  0.0076 -0.0825
 2713TIP3    H129698   6.119   4.900   8.074 -0.3937  0.7058  2.2554
 2713TIP3    H229699   6.145   5.049   8.086  1.5997  0.3827  2.2584
 2714TIP3   OH229700   4.444   6.076   1.840 -0.3821 -0.1085  0.7564
 2714TIP3    H129701   4.463   6.012   1.772  0.0594 -0.7695  1.4893
 2714TIP3    H229702   4.357   6.110   1.817 -0.7933 -1.2402  0.5610
 2715TIP3   OH229703   4.726   4.851   1.640  0.7073  0.1191  0.1129
 2715TIP3    H129704   4.760   4.840   1.729  1.0706 -2.1708 -0.2599
 2715TIP3    H229705   4.709   4.762   1.609 -2.4797  0.9628 -0.9871
 2716TIP3   OH229706   1.829   2.366   7.600  0.6387  0.3783 -0.5216
 2716TIP3    H129707   1.845   2.272   7.614 -0.1996 -0.0060 -1.9582
 2716TIP3    H229708   1.761   2.389   7.663 -0.4769 -0.4365 -1.3998
 2717TIP3   OH229709   1.789   3.219   1.778  0.3339  0.3693  0.0758
 2717TIP3    H129710   1.811   3.274   1.703  1.0787  0.9439  0.6933
 2717TIP3    H229711   1.736   3.148   1.742 -0.7241  1.5274 -0.7415
 2718TIP3   OH229712   1.540   0.124   8.154  0.5517 -0.2836 -0.5071
 2718TIP3    H129713   1.592   0.044   8.143  1.9542  0.9042 -3.6126
 2718TIP3    H229714   1.466   0.097   8.209  1.9380 -3.2222  0.1082
 2719TIP3   OH229715   1.423   2.677   0.841  0.4413  0.2065  0.2296
 2719TIP3    H129716   1.355   2.729   0.798  0.8666 -0.1242 -0.8603
 2719TIP3    H229717   1.487   2.741   0.872  1.1281  0.3473 -1.3939
 2720TIP3   OH229718   4.403   2.086   2.381  0.3073  0.1178 -0.0328
 2720TIP3    H129719   4.439   2.015   2.328 -1.2749 -1.3361  0.7578
 2720TIP3    H229720   4.453   2.083   2.462  0.5807  0.2388 -0.1964
 2721TIP3   OH229721   1.301   2.816   0.429 -0.0712  0.2798  0.9580
 2721TIP3    H129722   1.386   2.773   0.439  0.3884  1.3599  1.9693
 2721TIP3    H229723   1.244   2.749   0.391  0.8649 -0.9029  1.5735
 2722TIP3   OH229724   5.055   3.359   7.820  0.3571 -0.3042  0.3983
 2722TIP3    H129725   5.028   3.427   7.882  1.3794  0.5722 -0.0834
 2722TIP3    H229726   5.121   3.308   7.866 -0.7807 -1.3537  0.9508
 2723TIP3   OH229727   0.636   2.490   8.366  0.8602  0.4255  0.2650
 2723TIP3    H129728   0.648   2.396   8.377  1.7792  0.2881 -1.5735
 2723TIP3    H229729   0.685   2.512   8.287 -1.8150  1.9285 -1.1174
 2724TIP3   OH229730   1.132   6.144   2.466 -0.2735  0.2017 -0.7767
 2724TIP3    H129731   1.193   6.135   2.540 -1.9341 -0.9423  0.5307
 2724TIP3    H229732   1.128   6.056   2.428 -1.6831  0.0656 -0.3425
 2725TIP3   OH229733   3.900   3.655   1.044  0.0063  0.3766  0.2880
 2725TIP3    H129734   3.919   3.748   1.050 -0.2242  0.4555 -0.1520
 2725TIP3    H229735   3.945   3.626   0.964  0.4428  0.0139  0.6502
 2726TIP3   OH229736   4.790   1.096   8.149  0.2998 -0.6155  0.1352
 2726TIP3    H129737   4.850   1.116   8.221  0.3078  1.8372 -0.4650
 2726TIP3    H229738   4.703   1.113   8.185  0.2960  0.4880 -0.3431
 2727TIP3   OH229739   1.031   6.571   7.423  0.7185  0.7026 -0.1807
 2727TIP3    H129740   1.004   6.533   7.339  0.7065  1.7524 -0.6669
 2727TIP3    H229741   1.019   6.500   7.486  0.0172  0.1186 -0.9442
 2728TIP3   OH229742   6.302   4.774   2.260 -0.2455 -1.0771  0.2678
 2728TIP3    H129743   6.238   4.806   2.323 -0.2173  0.1305 -0.2807
 2728TIP3    H229744   6.385   4.774   2.307 -0.1332  0.3147  0.1181
 2729TIP3   OH229745   2.867   0.906   3.038  0.3765  0.3327  0.0656
 2729TIP3    H129746   2.808   0.963   2.988 -0.8307  0.4031  1.5139
 2729TIP3    H229747   2.939   0.963   3.064 -0.6959  1.1916  1.2865
 2730TIP3   OH229748   5.735   4.687   0.971  0.6582 -0.1178  0.0358
 2730TIP3    H129749   5.640   4.686   0.983  0.7997 -0.4889  1.2806
 2730TIP3    H229750   5.753   4.605   0.924  0.4651 -0.5464  0.7006
 2731TIP3   OH229751   1.534   3.114   2.601 -0.1921  0.3664  0.6280
 2731TIP3    H129752   1.458   3.097   2.545 -1.6050  1.1318  2.2154
 2731TIP3    H229753   1.580   3.185   2.557  2.2621 -2.9430 -2.7255
 2732TIP3   OH229754   0.047   5.843   8.033 -0.1231 -0.1923  0.3565
 2732TIP3    H129755   0.116   5.823   7.969 -0.9207 -1.3004 -0.1925
 2732TIP3    H229756  -0.030   5.796   8.001 -0.4683 -1.0602  2.2930
 2733TIP3   OH229757   3.093   3.804   2.624 -0.0214  0.1048  0.2372
 2733TIP3    H129758   3.083   3.709   2.614 -0.9975  0.3381 -1.4933
 2733TIP3    H229759   3.187   3.818   2.629  0.2100 -0.8612 -0.9118
 2734TIP3   OH229760   2.086   1.492   7.442  0.7229 -0.2794  0.2016
 2734TIP3    H129761   2.090   1.580   7.479 -0.4903  0.1221 -0.5687
 2734TIP3    H229762   2.124   1.435   7.509  1.7618  0.8509  0.6006
 2735TIP3   OH229763   2.122   0.462   0.710 -0.0848  0.3443  0.0548
 2735TIP3    H129764   2.174   0.502   0.641  0.5952  1.4612  1.1490
 2735TIP3    H229765   2.187   0.420   0.768 -0.1347  2.9027  2.1689
 2736TIP3   OH229766   5.700   5.141   0.775  0.0159  0.3799 -0.3158
 2736TIP3    H129767   5.787   5.156   0.813 -0.3313  1.1490  0.2044
 2736TIP3    H229768   5.691   5.210   0.709 -0.6570  1.0387  0.4467
 2737TIP3   OH229769   1.091   5.813   0.298  0.2051  0.1091 -0.0742
 2737TIP3    H129770   1.042   5.764   0.233 -2.6098  3.2966 -0.6254
 2737TIP3    H229771   1.070   5.771   0.381 -3.1523  0.8855 -0.3740
 2738TIP3   OH229772   0.979   0.136   7.848  0.4009 -0.1500 -0.0706
 2738TIP3    H129773   0.977   0.041   7.859 -1.3233 -0.4430 -2.1673
 2738TIP3    H229774   1.018   0.148   7.761  0.3148  1.0452  0.0471
 2739TIP3   OH229775   0.182   1.873   7.928  0.2989  0.1547  0.2787
 2739TIP3    H129776   0.226   1.788   7.936  0.4570  0.1721 -0.3110
 2739TIP3    H229777   0.221   1.926   7.997  0.4493 -0.1506  0.4337
 2740TIP3   OH229778   4.297   4.191   2.546  0.4497  0.5901  0.1606
 2740TIP3    H129779   4.269   4.282   2.557  0.1048  0.6108 -0.7471
 2740TIP3    H229780   4.216   4.141   2.539  0.6378  0.2156  0.5761
 2741TIP3   OH229781   0.014   0.921   0.382 -0.5306 -0.3062  0.2197
 2741TIP3    H129782   0.033   0.883   0.297  2.0570 -0.2684  0.6950
 2741TIP3    H229783  -0.021   1.008   0.362  0.8413  0.0402 -0.8330
 2742TIP3   OH229784   5.083   4.235   1.761 -0.2576  0.0481 -0.3070
 2742TIP3    H129785   5.108   4.288   1.837 -0.0636  0.0903 -0.4010
 2742TIP3    H229786   4.991   4.215   1.775  0.1276 -1.1860  0.7059
 2743TIP3   OH229787   0.195   4.291   7.864  0.3511  0.5836  0.0548
 2743TIP3    H129788   0.198   4.376   7.819  0.9571  1.2566  1.3373
 2743TIP3    H229789   0.245   4.303   7.944  1.7621 -1.4300 -0.4289
 2744TIP3   OH229790   1.168   4.732   0.167  0.4495 -0.3104  0.1588
 2744TIP3    H129791   1.205   4.810   0.208 -0.5474  0.9226 -1.2272
 2744TIP3    H229792   1.160   4.669   0.239  0.5665  1.1166  1.4623
 2745TIP3   OH229793   0.446   2.626   0.636 -0.6395  0.4329  0.7471
 2745TIP3    H129794   0.405   2.712   0.637 -3.8118 -0.9242  0.5353
 2745TIP3    H229795   0.493   2.620   0.719 -1.9438  1.6969  1.6109
 2746TIP3   OH229796   4.455   2.972   0.075  0.1092  0.1582 -0.5715
 2746TIP3    H129797   4.374   2.997   0.031  0.0761 -0.4155 -0.8531
 2746TIP3    H229798   4.438   2.988   0.168 -1.0414 -1.7182 -0.3902
 2747TIP3   OH229799   2.122   0.644   7.952  0.1258  0.5538 -0.8458
 2747TIP3    H129800   2.196   0.648   8.012  1.2775 -0.0771 -2.1737
 2747TIP3    H229801   2.124   0.555   7.918  0.0528  1.1547 -2.4856
 2748TIP3   OH229802   1.572   5.268   1.737  0.3879 -0.4005  0.3330
 2748TIP3    H129803   1.654   5.235   1.700 -1.1035 -1.6496 -2.0595
 2748TIP3    H229804   1.598   5.349   1.782  2.9393 -0.7988 -0.2601
 2749TIP3   OH229805   1.727   6.766   2.112  0.2654 -0.1618  1.0152
 2749TIP3    H129806   1.643   6.804   2.086  0.5397 -0.4545 -0.3534
 2749TIP3    H229807   1.706   6.715   2.191 -1.3742 -2.1512 -0.6088
 2750TIP3   OH229808   6.311   0.923   0.377  0.3989  0.1278  0.0433
 2750TIP3    H129809   6.339   0.994   0.320  0.0800 -0.3722 -0.7472
 2750TIP3    H229810   6.245   0.875   0.327 -0.1241 -0.1360  0.9484
 2751TIP3   OH229811   6.273   3.785   2.980  0.4442  0.2320  0.1407
 2751TIP3    H129812   6.241   3.869   3.014 -1.3759 -0.4720  0.2844
 2751TIP3    H229813   6.207   3.721   3.008 -0.3966 -0.6571 -3.3129
 2752TIP3   OH229814   4.922   6.646   7.111  0.0446  0.7279 -0.8200
 2752TIP3    H129815   4.876   6.730   7.103  0.6042  1.6451  3.2651
 2752TIP3    H229816   4.932   6.616   7.021  0.6006  5.4623 -2.6624
 2753TIP3   OH229817   2.677   4.185   0.123  0.3185  0.2673  0.0470
 2753TIP3    H129818   2.675   4.277   0.097 -0.3155  0.4932  0.8757
 2753TIP3    H229819   2.760   4.175   0.169 -0.2393  0.7909  1.2122
 2754TIP3   OH229820   4.806   6.870   6.998  0.1908  0.3932  0.8094
 2754TIP3    H129821   4.783   6.862   6.905 -1.1041 -1.2719  1.2341
 2754TIP3    H229822   4.818   6.964   7.011  0.4703  0.6499 -1.0561
 2755TIP3   OH229823   0.900   3.658   1.221 -0.2588 -0.1141 -0.1154
 2755TIP3    H129824   0.991   3.684   1.205 -0.0341 -0.6769  0.2200
 2755TIP3    H229825   0.865   3.640   1.134 -0.4854  1.4768 -0.3802
 2756TIP3   OH229826   4.125   3.238   1.223  0.1450 -0.3107 -0.2270
 2756TIP3    H129827   4.106   3.289   1.145  0.4397 -1.2587 -0.9338
 2756TIP3    H229828   4.039   3.217   1.260 -0.1399 -1.9840 -1.7104
 2757TIP3   OH229829   1.683   5.673   0.163 -0.0747  0.0283 -0.3143
 2757TIP3    H129830   1.587   5.667   0.159 -0.0191 -0.1261 -3.0936
 2757TIP3    H229831   1.705   5.747   0.106  1.4335  0.8615  1.2592
 2758TIP3   OH229832   4.193   0.431   0.678 -0.3065  0.2761  0.2783
 2758TIP3    H129833   4.133   0.483   0.731  0.6575  0.0495  1.6666
 2758TIP3    H229834   4.219   0.359   0.736 -0.1894 -0.7211 -0.9614
 2759TIP3   OH229835   0.589   4.411   2.240  0.0444 -0.8363 -0.5835
 2759TIP3    H129836   0.652   4.460   2.293  0.2625 -2.4501  0.7339
 2759TIP3    H229837   0.639   4.385   2.162  1.0088 -1.9329  0.3519
 2760TIP3   OH229838   3.296   6.157   7.932  0.1693 -0.6096 -0.1122
 2760TIP3    H129839   3.307   6.116   7.845 -0.1376 -3.4733  1.0847
 2760TIP3    H229840   3.366   6.118   7.985 -1.0970 -0.7354  1.5250
 2761TIP3   OH229841   1.537   0.255   2.743  0.0531 -0.2549  0.4809
 2761TIP3    H129842   1.607   0.238   2.806 -0.4085 -3.4249  0.2865
 2761TIP3    H229843   1.460   0.213   2.780 -0.3704 -1.7402 -1.8822
 2762TIP3   OH229844   5.965   5.558   2.085 -0.2953 -0.7669  0.1739
 2762TIP3    H129845   6.046   5.508   2.089 -0.8663 -1.6462  1.8216
 2762TIP3    H229846   5.934   5.560   2.175 -2.1674 -0.5620 -0.4272
 2763TIP3   OH229847   0.091   1.797   2.074 -0.1310  0.4124 -0.5106
 2763TIP3    H129848   0.064   1.706   2.087  1.4016 -0.5574 -3.1452
 2763TIP3    H229849   0.181   1.800   2.107  0.2063  0.6342 -1.4185
 2764TIP3   OH229850   6.198   2.908   7.046  0.1824  0.4808 -0.2459
 2764TIP3    H129851   6.287   2.888   7.075  0.0629  1.3568  0.7746
 2764TIP3    H229852   6.142   2.868   7.112 -0.2348 -0.7431 -1.2986
 2765TIP3   OH229853   1.535   2.446   3.139  0.1684  0.2243  0.4716
 2765TIP3    H129854   1.446   2.437   3.105  0.1769 -0.9504  0.7153
 2765TIP3    H229855   1.579   2.504   3.077 -0.9936  1.5129  0.8107
 2766TIP3   OH229856   1.330   5.356   1.649  0.7653 -0.1726  0.0937
 2766TIP3    H129857   1.410   5.318   1.685  0.3045 -1.2663 -0.0003
 2766TIP3    H229858   1.359   5.407   1.573  1.2883 -1.2643 -0.4573
 2767TIP3   OH229859   4.409   1.801   1.995  0.1104  0.0447  0.2210
 2767TIP3    H129860   4.424   1.707   1.987  1.4450  0.2489  0.1159
 2767TIP3    H229861   4.474   1.830   2.059 -0.1553  0.9361  0.0939
 2768TIP3   OH229862   4.925   2.089   1.039  0.7516  0.0886 -0.3526
 2768TIP3    H129863   4.970   2.046   1.112  0.9996 -1.7080 -1.4884
 2768TIP3    H229864   4.931   2.026   0.967 -2.3976  0.3543 -0.9696
 2769TIP3   OH229865   1.581   4.164   0.209  0.5121  0.0200  0.1487
 2769TIP3    H129866   1.523   4.214   0.150  0.0881 -0.9089 -0.2395
 2769TIP3    H229867   1.547   4.075   0.206 -0.3455  0.1919  2.8648
 2770TIP3   OH229868   5.409   3.846   0.187 -0.3618 -1.3235 -0.8609
 2770TIP3    H129869   5.324   3.868   0.225  0.8561  1.5449  0.5167
 2770TIP3    H229870   5.449   3.931   0.167  2.2341 -2.5656 -1.3453
 2771TIP3   OH229871   3.062   0.857   2.746  0.3870  0.0781  0.4863
 2771TIP3    H129872   3.106   0.812   2.819  1.0970 -1.4843 -0.8387
 2771TIP3    H229873   3.008   0.923   2.788  1.7434  0.0799  2.3636
 2772TIP3   OH229874   2.698   4.419   8.410  0.3897 -0.2581 -0.0861
 2772TIP3    H129875   2.613   4.396   8.373  1.4684  0.3237 -3.1748
 2772TIP3    H229876   2.681   4.499   8.460 -0.6851  0.6963 -1.8824
 2773TIP3   OH229877   2.537   6.421   6.494  0.0262 -0.2634  0.2770
 2773TIP3    H129878   2.616   6.367   6.497 -0.2725 -0.6665  1.5935
 2773TIP3    H229879   2.500   6.414   6.582 -1.2169  0.3087 -0.1796
 2774TIP3   OH229880   4.786   5.251   1.244 -0.0824 -0.2404 -0.4699
 2774TIP3    H129881   4.803   5.345   1.250 -1.5662 -0.0502  1.8457
 2774TIP3    H229882   4.870   5.210   1.267  0.1566  0.5428  0.0970
 2775TIP3   OH229883   3.154   4.470   6.781  0.7173  0.2416  0.3140
 2775TIP3    H129884   3.139   4.378   6.798 -1.4901  0.6429  0.8251
 2775TIP3    H229885   3.179   4.507   6.866 -2.7538  0.8362  1.2313
 2776TIP3   OH229886   6.447   2.104   0.597  0.4515 -0.5792  0.4955
 2776TIP3    H129887   6.510   2.092   0.668 -0.5196  0.4186  1.5773
 2776TIP3    H229888   6.418   2.195   0.605  0.8847 -0.1955 -1.7000
 2777TIP3   OH229889   0.391   1.191   1.490  0.0122  0.2200  0.6671
 2777TIP3    H129890   0.367   1.187   1.582 -0.2405 -0.0335  0.5919
 2777TIP3    H229891   0.311   1.219   1.446  0.6680  2.4156  0.7399
 2778TIP3   OH229892   1.587   4.981   7.961 -0.0260 -0.0261  0.2629
 2778TIP3    H129893   1.514   4.926   7.990 -0.1738 -0.9623 -1.7329
 2778TIP3    H229894   1.658   4.919   7.944  0.2855  0.5483 -0.5990
 2779TIP3   OH229895   5.554   6.259   2.143  0.4521 -0.8044 -0.3741
 2779TIP3    H129896   5.516   6.180   2.180 -0.8937  0.0607  0.1782
 2779TIP3    H229897   5.547   6.247   2.048  0.1425 -1.2823 -0.2946
 2780TIP3   OH229898   4.175   0.722   2.243  0.1215  0.6132  0.5755
 2780TIP3    H129899   4.267   0.711   2.220  0.1721  3.2820 -0.9426
 2780TIP3    H229900   4.127   0.681   2.171  0.0083 -1.6140  1.8195
 2781TIP3   OH229901   3.053   1.131   6.701  0.2834 -0.2113 -0.0505
 2781TIP3    H129902   3.045   1.078   6.622  0.7613 -0.6006  0.1512
 2781TIP3    H229903   3.111   1.203   6.675  0.3133 -0.2527 -0.1010
 2782TIP3   OH229904   2.843   3.893   8.216  0.4973  0.0944 -0.2615
 2782TIP3    H129905   2.840   3.853   8.129  0.9663  0.3016 -0.3793
 2782TIP3    H229906   2.754   3.926   8.230  0.3708 -0.1037 -0.5870
 2783TIP3   OH229907   6.216   0.611   7.770 -0.0000  0.5844  0.4573
 2783TIP3    H129908   6.247   0.522   7.750 -0.6485  0.3770  0.3625
 2783TIP3    H229909   6.167   0.600   7.851 -2.4770  0.3262 -0.9850
 2784TIP3   OH229910   4.558   5.758   2.223 -0.1075  0.3081  0.5096
 2784TIP3    H129911   4.531   5.736   2.312 -2.4644  1.2938  0.1000
 2784TIP3    H229912   4.506   5.700   2.166  0.5045  0.5047 -0.2811
 2785TIP3   OH229913   6.810   3.768   0.613  0.4013  0.3869 -0.3098
 2785TIP3    H129914   6.798   3.716   0.534  0.6558  0.3029 -0.2940
 2785TIP3    H229915   6.732   3.749   0.666 -0.9308  2.1945 -1.4949
 2786TIP3   OH229916   1.788   1.930   7.253  0.0293  0.0292  0.6563
 2786TIP3    H129917   1.879   1.943   7.227  0.2024  0.2388  1.3614
 2786TIP3    H229918   1.783   1.837   7.276  0.1064  0.0587  0.7906
 2787TIP3   OH229919   0.778   0.768   1.605  0.0862 -0.0935 -0.0218
 2787TIP3    H129920   0.714   0.817   1.554  0.3828 -0.0362 -0.3458
 2787TIP3    H229921   0.759   0.676   1.586 -0.5406 -0.1113  0.6729
 2788TIP3   OH229922   2.288   3.893   3.124  0.0138 -0.9687 -0.1889
 2788TIP3    H129923   2.305   3.905   3.031  1.3641 -1.3188 -0.0183
 2788TIP3    H229924   2.368   3.924   3.167 -0.5624 -0.8670  0.8515
 2789TIP3   OH229925   4.769   4.544   0.750 -0.6759 -0.2557  0.0667
 2789TIP3    H129926   4.737   4.495   0.826 -1.6128 -0.1382 -0.2329
 2789TIP3    H229927   4.754   4.485   0.676  1.0832 -0.7441  0.0581
 2790TIP3   OH229928   2.358   5.234   8.143 -0.2697 -0.1847  0.2377
 2790TIP3    H129929   2.408   5.169   8.093  0.6709  0.2418  0.5994
 2790TIP3    H229930   2.309   5.181   8.207  1.0538 -0.5320  1.0234
 2791TIP3   OH229931   2.301   4.206   1.215 -0.2091 -0.4663 -0.3161
 2791TIP3    H129932   2.384   4.239   1.249  0.4742 -1.2110 -1.1941
 2791TIP3    H229933   2.235   4.266   1.250  0.9627  1.9506 -1.9274
 2792TIP3   OH229934   4.254   0.571   8.247  0.3213  0.0783 -0.0529
 2792TIP3    H129935   4.333   0.608   8.286 -1.6511  1.8769  2.6146
 2792TIP3    H229936   4.182   0.614   8.294 -2.3620  0.6996 -4.2307
 2793TIP3   OH229937   3.833   4.738   0.454  0.2187 -0.3210 -0.0339
 2793TIP3    H129938   3.875   4.713   0.372 -0.1133 -1.6303  0.1615
 2793TIP3    H229939   3.906   4.758   0.513  0.4567  2.5781 -1.1422
 2794TIP3   OH229940   5.233   4.549   0.301  0.1112 -0.0770  0.1503
 2794TIP3    H129941   5.234   4.629   0.354 -1.6185  0.2553 -0.2535
 2794TIP3    H229942   5.231   4.478   0.364 -1.1248  0.2947  0.5602
 2795TIP3   OH229943   4.293   3.921   7.997 -0.0196  0.1807 -0.1179
 2795TIP3    H129944   4.261   3.839   7.960  0.1094  0.6605 -1.3753
 2795TIP3    H229945   4.381   3.931   7.960  0.4853  0.2562  1.0609
 2796TIP3   OH229946   2.820   4.773   8.332  0.2846 -0.4557 -0.1563
 2796TIP3    H129947   2.840   4.688   8.293  1.1488 -0.4204  0.1719
 2796TIP3    H229948   2.893   4.829   8.305 -0.4941  0.3127 -0.7313
 2797TIP3   OH229949   5.412   6.816   1.141 -0.2160  0.0271  0.4283
 2797TIP3    H129950   5.344   6.795   1.076 -0.6588 -1.1792  1.2420
 2797TIP3    H229951   5.437   6.731   1.177  0.0531  0.6639  1.7955
 2798TIP3   OH229952   6.894   5.287   2.167 -0.5735  0.1154 -0.0079
 2798TIP3    H129953   6.965   5.331   2.213  0.7388 -1.0911 -0.7938
 2798TIP3    H229954   6.835   5.358   2.140  0.3373  1.1473  0.6374
 2799TIP3   OH229955   3.428   3.069   0.347 -0.4523 -0.0368 -0.7156
 2799TIP3    H129956   3.487   2.996   0.363  1.2816  0.9233 -2.3388
 2799TIP3    H229957   3.456   3.138   0.407 -0.7786 -0.0138 -0.5852
 2800TIP3   OH229958   6.851   5.963   2.897  0.3971  0.1428  0.1387
 2800TIP3    H129959   6.805   5.899   2.951 -0.8363  0.4948 -0.4509
 2800TIP3    H229960   6.811   6.047   2.920  0.1351  0.3471 -0.9931
 2801TIP3   OH229961   2.623   6.237   7.858 -0.3595 -0.0481  0.2541
 2801TIP3    H129962   2.634   6.194   7.774 -2.0782 -0.0160 -0.0276
 2801TIP3    H229963   2.672   6.183   7.920 -2.1706 -2.2779 -0.1391
 2802TIP3   OH229964   2.139   3.963   0.299  0.2855  0.1269  0.0068
 2802TIP3    H129965   2.194   4.037   0.273  2.6463 -1.6823 -0.6006
 2802TIP3    H229966   2.079   3.951   0.225  1.4023  0.0976 -0.9311
 2803TIP3   OH229967   3.614   1.863   2.645  0.2704  0.3352  0.2702
 2803TIP3    H129968   3.559   1.893   2.717 -1.1362  0.3532 -0.7697
 2803TIP3    H229969   3.698   1.908   2.658 -0.2576  1.0355  1.3644
 2804TIP3   OH229970   3.071   6.200   0.944  0.1562  0.1323  0.2414
 2804TIP3    H129971   3.062   6.285   0.988  2.1281  0.6696 -0.2741
 2804TIP3    H229972   3.116   6.144   1.008 -0.1647 -0.1896  0.1884
 2805TIP3   OH229973   6.879   6.077   0.812  0.1194  0.1142 -0.0706
 2805TIP3    H129974   6.808   6.029   0.771  0.0096  1.5991 -1.7325
 2805TIP3    H229975   6.929   6.113   0.740  0.6604  1.7928  1.0704
 2806TIP3   OH229976   2.156   3.461   0.002 -0.0493 -0.3637 -0.0904
 2806TIP3    H129977   2.212   3.389  -0.027 -0.7751 -0.9721 -0.0140
 2806TIP3    H229978   2.136   3.441   0.093 -1.6584 -1.0095 -0.5549
 2807TIP3   OH229979   0.477   2.403   1.353  0.0452  0.3048  0.3747
 2807TIP3    H129980   0.412   2.469   1.378  0.1683  0.7033 -0.3361
 2807TIP3    H229981   0.468   2.334   1.419 -1.2224  0.2696  0.1856
 2808TIP3   OH229982   2.811   5.062   0.837 -0.3771  0.0599  0.4222
 2808TIP3    H129983   2.814   5.052   0.932  0.3269 -0.8390  0.3240
 2808TIP3    H229984   2.718   5.068   0.817 -0.4916  1.4580  1.2636
 2809TIP3   OH229985   1.773   3.897   0.004  0.2263  0.0707 -0.8197
 2809TIP3    H129986   1.782   3.849   0.086 -0.0135  0.1764 -0.7324
 2809TIP3    H229987   1.679   3.912  -0.006  0.3356  0.9458 -0.5970
 2810TIP3   OH229988   1.220   0.205   7.214 -0.2068  0.0543 -0.5571
 2810TIP3    H129989   1.300   0.253   7.192 -0.2059 -0.2191 -1.1678
 2810TIP3    H229990   1.184   0.179   7.130 -0.8679  0.0536 -0.2774
 2811TIP3   OH229991   5.463   1.206   0.318  0.0476 -0.0087  0.2645
 2811TIP3    H129992   5.541   1.260   0.323 -0.0796  0.2798 -0.7188
 2811TIP3    H229993   5.461   1.174   0.228 -0.6195 -0.5364  0.4581
 2812TIP3   OH229994   5.232   1.808   2.178 -0.6936  0.1489 -0.1143
 2812TIP3    H129995   5.289   1.827   2.103 -0.5475 -0.9514 -0.2972
 2812TIP3    H229996   5.237   1.886   2.232  0.2980  0.4189 -0.5654
 2813TIP3   OH229997   1.582   3.271   1.936 -0.4695 -0.0107  0.0482
 2813TIP3    H129998   1.586   3.356   1.979 -1.1976  0.3089 -0.4918
 2813TIP3    H229999   1.660   3.269   1.881  0.0871 -0.1241  0.8289
 2814TIP3   OH230000   2.170   6.738   1.962 -0.2722  0.3579  0.1113
 2814TIP3    H130001   2.147   6.816   2.013  0.9216  0.8276 -0.0300
 2814TIP3    H230002   2.265   6.738   1.961 -0.2412 -1.3889  0.5174
 2815TIP3   OH230003   4.608   2.073   0.920  0.3188  0.4872 -0.3440
 2815TIP3    H130004   4.532   2.030   0.880 -0.1454  0.5217  0.4759
 2815TIP3    H230005   4.664   2.096   0.846 -1.3493  2.1443 -1.1804
 2816TIP3   OH230006   0.527   2.040   2.356  0.5417  0.1673 -0.2360
 2816TIP3    H130007   0.563   2.009   2.273  2.5100 -1.8959  1.2819
 2816TIP3    H230008   0.515   1.961   2.408  1.7216  1.5490  2.3122
 2817TIP3   OH230009   2.212   5.449   0.417  0.0027 -0.1882  0.6832
 2817TIP3    H130010   2.149   5.381   0.443 -1.3332  0.8818  0.3932
 2817TIP3    H230011   2.224   5.502   0.495  1.1885 -0.8482  0.9616
 2818TIP3   OH230012   0.137   2.987   2.560  0.4851  0.1483  0.0966
 2818TIP3    H130013   0.082   3.064   2.570 -1.8050 -1.1964 -1.2589
 2818TIP3    H230014   0.205   2.997   2.627  1.3142  4.0870 -1.0953
 2819TIP3   OH230015   4.156   4.219   1.904 -0.2668  0.3151 -0.2337
 2819TIP3    H130016   4.082   4.237   1.963 -0.8703  0.7904 -1.1128
 2819TIP3    H230017   4.184   4.130   1.928 -1.6158 -0.1842 -0.3948
 2820TIP3   OH230018   6.336   6.544   7.296  0.7354  0.4743 -0.2653
 2820TIP3    H130019   6.404   6.611   7.285  3.1898 -2.0048 -1.3261
 2820TIP3    H230020   6.317   6.514   7.207  1.2650 -1.6244  0.2654
 2821TIP3   OH230021   6.062   6.760   0.979  0.1756  0.4302  0.3053
 2821TIP3    H130022   6.061   6.665   0.981  2.0769  0.3700 -0.0833
 2821TIP3    H230023   6.000   6.786   1.047 -0.8618 -1.0603 -0.0331
 2822TIP3   OH230024   0.856   0.902   2.894  0.1681  0.1002 -0.2393
 2822TIP3    H130025   0.768   0.868   2.910 -0.9777  0.7013 -4.2178
 2822TIP3    H230026   0.912   0.824   2.889 -0.6416 -0.4871 -0.2460
 2823TIP3   OH230027   0.686   5.846   7.010 -0.0199  0.7084 -0.1290
 2823TIP3    H130028   0.609   5.882   7.054 -0.1671 -0.1449  0.3389
 2823TIP3    H230029   0.664   5.754   6.996 -1.0162  1.3744 -4.2252
 2824TIP3   OH230030   5.534   4.618   7.362 -0.0395 -0.8281  0.5211
 2824TIP3    H130031   5.459   4.661   7.321  0.0263  0.0166  1.2387
 2824TIP3    H230032   5.600   4.687   7.370 -0.3853 -0.6905  2.8468
 2825TIP3   OH230033   5.586   5.554   8.367  0.0522  1.0609  0.3339
 2825TIP3    H130034   5.585   5.577   8.459 -0.9754 -0.4002  0.7388
 2825TIP3    H230035   5.627   5.467   8.365 -0.7617  0.6768 -0.4488
 2826TIP3   OH230036   1.829   4.208   7.254  0.1227  0.0305 -0.1599
 2826TIP3    H130037   1.763   4.139   7.248 -0.4353  0.4862  0.5391
 2826TIP3    H230038   1.847   4.216   7.348  0.4371  0.5982 -0.2641
 2827TIP3   OH230039   5.440   3.896   2.491  0.6766  0.0174  0.7831
 2827TIP3    H130040   5.434   3.805   2.521  0.6838  0.3123  1.7038
 2827TIP3    H230041   5.353   3.932   2.506  0.5660  0.0725  0.0726
 2828TIP3   OH230042   1.583   1.817   2.013  0.3946 -0.6055 -0.3653
 2828TIP3    H130043   1.626   1.857   2.088 -1.1590 -0.9024  0.7418
 2828TIP3    H230044   1.645   1.827   1.941  1.6931  0.1924  0.8184
 2829TIP3   OH230045   0.525   1.045   8.138  0.5702 -0.7331  0.1225
 2829TIP3    H130046   0.599   0.990   8.110  0.7797  0.6007 -2.1773
 2829TIP3    H230047   0.473   1.058   8.059 -0.6938  0.5268  1.1105
 2830TIP3   OH230048   1.279   1.182   0.546 -0.2840  0.3659  0.2410
 2830TIP3    H130049   1.274   1.088   0.564  0.1345  0.4284  0.7230
 2830TIP3    H230050   1.247   1.191   0.457  0.0449 -0.2844  0.0507
 2831TIP3   OH230051   0.833   0.275   1.316  0.4604  0.3386 -0.2430
 2831TIP3    H130052   0.765   0.214   1.287  1.3568 -0.4415 -0.7664
 2831TIP3    H230053   0.840   0.262   1.410  2.0606 -1.9440 -0.5802
 2832TIP3   OH230054   3.443   4.798   1.379  0.2149 -0.3082 -0.5000
 2832TIP3    H130055   3.351   4.824   1.381  0.4729  0.6805 -0.6360
 2832TIP3    H230056   3.488   4.873   1.340  1.1764 -0.4505  0.2871
 2833TIP3   OH230057   5.861   1.225   7.321  0.3013  0.4526  1.0713
 2833TIP3    H130058   5.954   1.245   7.326  0.5915 -0.6635  0.3891
 2833TIP3    H230059   5.856   1.130   7.318 -0.6636  0.4958 -2.1621
 2834TIP3   OH230060   0.005   1.448   0.612 -0.2992  1.1984 -0.7070
 2834TIP3    H130061   0.068   1.467   0.542  2.7296 -1.2979  1.0586
 2834TIP3    H230062   0.021   1.516   0.678 -0.2888  1.2352 -0.7473
 2835TIP3   OH230063   4.530   5.929   7.724 -0.3022 -0.1721  0.1724
 2835TIP3    H130064   4.609   5.969   7.688 -0.8593  3.5238  2.4742
 2835TIP3    H230065   4.460   5.956   7.664 -0.1565 -1.8475 -0.8231
 2836TIP3   OH230066   3.769   5.290   0.656  0.0788 -0.4381  0.2232
 2836TIP3    H130067   3.825   5.360   0.624 -0.0685  0.2065  1.3086
 2836TIP3    H230068   3.809   5.209   0.623  1.4376  0.0278  0.6492
 2837TIP3   OH230069   6.732   4.829   1.010  0.0614 -0.1880  0.0330
 2837TIP3    H130070   6.781   4.842   0.929 -2.5113 -1.0876 -1.8001
 2837TIP3    H230071   6.752   4.907   1.062  1.9241  0.3569 -1.3717
 2838TIP3   OH230072   1.346   0.243   1.717 -0.2976  0.2653  0.1626
 2838TIP3    H130073   1.407   0.201   1.656  1.2881  1.0863  1.1019
 2838TIP3    H230074   1.366   0.336   1.710 -1.3446  0.5345  0.6276
 2839TIP3   OH230075   2.038   5.727   1.864  0.7639 -0.0924 -0.0953
 2839TIP3    H130076   2.059   5.665   1.934 -0.2359 -1.9766 -1.3742
 2839TIP3    H230077   2.107   5.793   1.868  1.7799 -1.1863  1.4357
 2840TIP3   OH230078   5.711   1.176   2.615 -0.3933 -0.0019  0.0186
 2840TIP3    H130079   5.663   1.093   2.616 -1.4130  0.4905 -2.1795
 2840TIP3    H230080   5.800   1.151   2.591 -0.6397 -0.4866 -0.4184
 2841TIP3   OH230081   3.306   2.953   2.559 -0.6757 -0.2892  0.1324
 2841TIP3    H130082   3.364   2.883   2.590  0.9709  1.2838  0.7793
 2841TIP3    H230083   3.337   2.972   2.470  1.5047  2.1512  1.2960
 2842TIP3   OH230084   4.122   2.866   0.179 -0.3710  0.0308 -0.3141
 2842TIP3    H130085   4.162   2.922   0.112 -0.5812  1.0062  0.3402
 2842TIP3    H230086   4.034   2.903   0.191 -1.4662 -1.9589 -1.6094
 2843TIP3   OH230087   6.905   5.904   1.511 -0.5921 -0.7392 -0.2177
 2843TIP3    H130088   6.907   5.999   1.525  2.3242 -0.9888  2.2171
 2843TIP3    H230089   6.911   5.894   1.416  0.7514  1.5649 -0.4597
 2844TIP3   OH230090   3.241   0.569   1.688 -0.0500 -0.1914 -0.1802
 2844TIP3    H130091   3.234   0.630   1.615  1.4535  0.8568  0.5045
 2844TIP3    H230092   3.312   0.509   1.662  0.2435 -0.0369  0.2483
 2845TIP3   OH230093   0.801   3.412   2.001  0.1908 -0.4900 -0.6333
 2845TIP3    H130094   0.849   3.419   1.919  2.3278 -0.0374  0.5765
 2845TIP3    H230095   0.790   3.318   2.014 -1.0408 -0.5521 -1.8612
 2846TIP3   OH230096   2.426   1.081   2.723 -0.6974  0.1782  0.3523
 2846TIP3    H130097   2.478   1.032   2.659 -0.1166 -1.3789  1.9214
 2846TIP3    H230098   2.482   1.085   2.800 -1.2972  2.1978  0.7197
 2847TIP3   OH230099   3.902   0.905   7.259 -0.2599 -0.7071 -0.3175
 2847TIP3    H130100   3.872   0.814   7.263  1.4679 -1.3520 -1.2156
 2847TIP3    H230101   3.997   0.900   7.255 -0.1316  1.1252 -0.7928
 2848TIP3   OH230102   6.271   1.414   0.072 -0.8114  0.1986 -0.3166
 2848TIP3    H130103   6.352   1.438   0.028 -0.5895  1.5019  0.7472
 2848TIP3    H230104   6.201   1.448   0.016 -0.5822  0.4772 -0.4307
 2849TIP3   OH230105   3.657   1.030   7.148  0.0452  0.3074 -0.1298
 2849TIP3    H130106   3.581   0.972   7.148 -0.9452  1.5670 -1.0124
 2849TIP3    H230107   3.714   0.993   7.216 -0.0693 -2.2595 -1.2989
 2850TIP3   OH230108   2.044   1.015   3.418 -0.2067  0.1641  0.3255
 2850TIP3    H130109   1.999   0.939   3.455 -0.8470  0.7027  0.6801
 2850TIP3    H230110   2.068   0.988   3.329 -2.0928  0.1675 -0.2290
 2851TIP3   OH230111   1.042   5.695   1.996  0.0141  0.4540 -0.3253
 2851TIP3    H130112   1.109   5.708   2.063  0.3369  0.7338 -0.6931
 2851TIP3    H230113   0.961   5.725   2.036 -0.8237 -3.8414  1.7634
 2852TIP3   OH230114   1.808   1.395   0.525 -0.2426  0.4287  0.1429
 2852TIP3    H130115   1.806   1.449   0.445 -0.3134  0.5566  0.2307
 2852TIP3    H230116   1.891   1.416   0.567 -1.1526  2.0287  1.2436
 2853TIP3   OH230117   2.233   2.519   7.265  0.0180 -0.5024  0.1629
 2853TIP3    H130118   2.180   2.567   7.201 -1.1153  1.2214  2.2566
 2853TIP3    H230119   2.312   2.572   7.275  0.3195 -0.9168 -0.0298
 2854TIP3   OH230120   4.181   3.633   2.053  0.2376 -0.0268 -0.8878
 2854TIP3    H130121   4.127   3.621   2.132  0.2380  1.6771 -0.5850
 2854TIP3    H230122   4.168   3.553   2.003 -0.9146 -0.5432  0.1742
 2855TIP3   OH230123   2.936   2.473   1.462 -0.6148  0.4201  0.0112
 2855TIP3    H130124   2.981   2.473   1.547 -0.2710  0.9899 -0.1699
 2855TIP3    H230125   2.852   2.431   1.481 -0.0681 -0.5510  0.3770
 2856TIP3   OH230126   4.378   3.972   1.789 -0.0353 -0.3185 -0.1578
 2856TIP3    H130127   4.461   3.939   1.755  1.1258  2.0744  0.1399
 2856TIP3    H230128   4.356   4.046   1.733 -0.8267  0.4360  1.0816
 2857TIP3   OH230129   5.437   1.732   0.176 -0.2949 -0.1455 -0.0443
 2857TIP3    H130130   5.520   1.763   0.142 -1.3146 -0.4599 -3.1219
 2857TIP3    H230131   5.448   1.638   0.187 -0.0718 -0.0965  0.1516
 2858TIP3   OH230132   3.749   3.042   0.208 -0.1522  0.3110 -0.0484
 2858TIP3    H130133   3.835   3.074   0.235 -0.1920  1.1500 -0.8877
 2858TIP3    H230134   3.727   2.977   0.274  0.5378  1.0311  0.9201
 2859TIP3   OH230135   2.676   5.899   0.764  0.0749  0.9041 -0.0678
 2859TIP3    H130136   2.715   5.883   0.850  0.0587  1.1222 -0.0188
 2859TIP3    H230137   2.683   5.994   0.752 -0.4676  0.9492 -0.0415
 2860TIP3   OH230138   2.133   2.258   0.198  0.2259 -0.1202  0.3805
 2860TIP3    H130139   2.203   2.197   0.174 -0.1347 -0.5394  0.3857
 2860TIP3    H230140   2.177   2.342   0.210  0.6210 -0.2182 -0.3513
 2861TIP3   OH230141   0.594   4.004   0.245  0.3846  0.1086 -0.4785
 2861TIP3    H130142   0.606   4.099   0.244  0.5189  0.1240  0.7182
 2861TIP3    H230143   0.603   3.980   0.338 -0.5083 -0.9654 -0.6550
 2862TIP3   OH230144   5.167   0.216   2.078  0.0645 -0.0263 -0.2314
 2862TIP3    H130145   5.231   0.152   2.108  0.1635  0.5486  0.8217
 2862TIP3    H230146   5.219   0.291   2.049 -0.0183 -0.6395 -2.0597
 2863TIP3   OH230147   2.682   5.085   0.254 -0.4846  0.3797 -0.2119
 2863TIP3    H130148   2.764   5.037   0.241  0.6664  2.2001  0.0169
 2863TIP3    H230149   2.660   5.120   0.167 -1.7060 -1.0451 -0.5348
 2864TIP3   OH230150   4.968   6.558   6.871  0.3048 -0.3765 -0.4941
 2864TIP3    H130151   4.899   6.547   6.806 -0.3147 -1.9429  0.3665
 2864TIP3    H230152   5.047   6.522   6.829  0.3769  0.4812 -1.1059
 2865TIP3   OH230153   0.889   4.930   8.032 -0.5111 -0.4672  0.7427
 2865TIP3    H130154   0.870   4.854   8.088  0.2554 -0.8393  0.5009
 2865TIP3    H230155   0.939   4.989   8.088 -0.3014 -0.5518  0.6426
 2866TIP3   OH230156   1.018   2.445   2.553  0.0745  0.1245  0.6795
 2866TIP3    H130157   1.048   2.530   2.523 -0.5300 -0.8581 -3.2206
 2866TIP3    H230158   1.098   2.394   2.567  0.4543 -0.1264 -1.9960
 2867TIP3   OH230159   3.921   4.981   7.739  0.3109 -0.5004 -0.4307
 2867TIP3    H130160   3.883   4.987   7.651  1.5278 -1.2798 -1.0247
 2867TIP3    H230161   3.982   5.054   7.744 -0.5101  0.1793  0.1842
 2868TIP3   OH230162   4.682   1.315   1.861  0.3356  0.0493  0.4205
 2868TIP3    H130163   4.768   1.274   1.861  1.1594  1.6907  1.2531
 2868TIP3    H230164   4.644   1.290   1.945 -0.3556 -1.2665 -0.2352
 2869TIP3   OH230165   6.460   1.494   0.962  0.5968 -0.4061  0.3107
 2869TIP3    H130166   6.426   1.477   1.050 -0.0364 -1.2801 -0.0830
 2869TIP3    H230167   6.555   1.484   0.970  0.7526  1.4294  1.2930
 2870TIP3   OH230168   1.867   1.765   1.644  0.1049 -0.5709 -0.2473
 2870TIP3    H130169   1.864   1.831   1.575  1.4425 -0.6810 -0.4391
 2870TIP3    H230170   1.795   1.789   1.703 -0.3185  0.2148 -1.0509
 2871TIP3   OH230171   1.477   4.205   3.408 -0.1348  0.1993 -0.0127
 2871TIP3    H130172   1.406   4.144   3.390 -0.3424  0.4596 -0.0981
 2871TIP3    H230173   1.545   4.183   3.344  0.6807 -1.3325  1.3237
 2872TIP3   OH230174   0.205   5.399   1.375  0.6484  0.7361 -0.3634
 2872TIP3    H130175   0.256   5.414   1.454 -0.1900  2.3482 -0.1047
 2872TIP3    H230176   0.271   5.385   1.307  1.3886 -1.3934  0.6895
 2873TIP3   OH230177   0.282   3.355   7.635  0.1414 -0.2611 -0.7805
 2873TIP3    H130178   0.243   3.275   7.669 -1.7767  0.5106 -1.0327
 2873TIP3    H230179   0.278   3.346   7.540  0.1570  0.0250 -0.8088
 2874TIP3   OH230180   1.076   1.197   1.448  0.7397 -0.1387  0.2145
 2874TIP3    H130181   1.167   1.174   1.427  0.5051  0.7247 -2.0466
 2874TIP3    H230182   1.033   1.112   1.461  1.9168 -0.5467  1.7339
 2875TIP3   OH230183   4.137   0.669   0.053  0.3621 -0.0461 -0.0881
 2875TIP3    H130184   4.078   0.594   0.062  0.3183 -0.2430 -1.6984
 2875TIP3    H230185   4.105   0.732   0.117  0.4698 -1.4204  1.3933
 2876TIP3   OH230186   4.665   5.575   7.889 -0.1523 -0.6280  0.7082
 2876TIP3    H130187   4.627   5.511   7.948 -2.9414 -0.4391 -0.6998
 2876TIP3    H230188   4.668   5.531   7.804 -1.8764  0.9398 -0.2318
 2877TIP3   OH230189   3.162   0.352   8.005  0.9074 -0.3380 -0.3384
 2877TIP3    H130190   3.165   0.289   8.077  1.6250 -0.3806 -0.3993
 2877TIP3    H230191   3.069   0.371   7.994  0.7978 -0.1888  0.7304
 2878TIP3   OH230192   3.635   0.047   0.728  0.0144  0.4222 -0.4282
 2878TIP3    H130193   3.681   0.061   0.811  0.7340  3.2832 -1.1740
 2878TIP3    H230194   3.691  -0.014   0.679 -0.0484 -0.7151  0.8889
 2879TIP3   OH230195   4.246   0.628   0.483 -0.0743  0.0345 -0.2182
 2879TIP3    H130196   4.241   0.541   0.523 -1.6062 -0.1782 -0.7830
 2879TIP3    H230197   4.217   0.615   0.393  0.8989  0.9259 -0.6732
 2880TIP3   OH230198   4.977   2.258   2.132  0.0826 -0.7960 -0.1268
 2880TIP3    H130199   4.985   2.239   2.225 -0.4113  0.4085  0.1790
 2880TIP3    H230200   5.049   2.209   2.092 -0.6196 -2.5554  0.6799
 2881TIP3   OH230201   6.398   5.010   8.245  0.4718 -0.1344 -0.2631
 2881TIP3    H130202   6.471   4.956   8.217  0.0173 -1.2618  0.6361
 2881TIP3    H230203   6.323   4.977   8.196 -0.0905 -1.3240  1.2935
 2882TIP3   OH230204   5.887   4.316   0.305  0.4721 -0.2413 -0.1826
 2882TIP3    H130205   5.837   4.293   0.384  0.9002 -1.6215 -0.2900
 2882TIP3    H230206   5.978   4.299   0.329  0.8973  1.8190 -0.1388
 2883TIP3   OH230207   3.326   4.047   0.837  0.0667 -0.6564 -0.0975
 2883TIP3    H130208   3.387   4.089   0.898  0.0383 -0.3984 -0.2444
 2883TIP3    H230209   3.281   3.981   0.890  1.1436 -1.5032 -0.2180
 2884TIP3   OH230210   1.334   2.552   7.885  0.2477 -0.3995  0.6425
 2884TIP3    H130211   1.419   2.590   7.862  1.0693 -1.9590  0.9008
 2884TIP3    H230212   1.285   2.624   7.925  0.9404  0.8746 -0.7212
 2885TIP3   OH230213   6.419   3.479   2.721 -0.3439 -0.2166 -0.0792
 2885TIP3    H130214   6.461   3.435   2.794 -1.1770 -0.5405  0.2127
 2885TIP3    H230215   6.471   3.559   2.708 -1.4401  0.9828  2.2949
 2886TIP3   OH230216   1.204   4.918   3.639  0.1221  0.2458  0.1737
 2886TIP3    H130217   1.270   4.934   3.572 -0.6469  1.0070 -0.4229
 2886TIP3    H230218   1.217   4.826   3.663  1.3623  0.3699  0.0475
 2887TIP3   OH230219   6.030   4.099   7.695  0.8500  0.1286  0.2436
 2887TIP3    H130220   6.123   4.105   7.717  0.9714 -0.4358 -0.0845
 2887TIP3    H230221   5.985   4.136   7.770  1.3280  0.0055  0.5962
 2888TIP3   OH230222   6.423   6.384   7.685 -0.2909  0.1914 -0.7524
 2888TIP3    H130223   6.501   6.375   7.739 -0.6580  0.0726 -0.2357
 2888TIP3    H230224   6.452   6.435   7.609  0.1662  0.5728 -0.3256
 2889TIP3   OH230225   5.014   3.387   2.632 -0.0609  0.1497 -0.0685
 2889TIP3    H130226   4.998   3.308   2.683 -2.9175 -1.5111 -3.1365
 2889TIP3    H230227   5.109   3.393   2.626  0.3250 -1.1085  2.9201
 2890TIP3   OH230228   1.106   5.086   8.181  0.2738 -0.3276 -0.4486
 2890TIP3    H130229   1.090   5.129   8.265 -1.4777 -1.0128 -0.3856
 2890TIP3    H230230   1.163   5.146   8.134  0.5341  0.5065  0.8797
 2891TIP3   OH230231   3.860   5.050   8.022  0.5032  0.5682 -0.2600
 2891TIP3    H130232   3.766   5.050   8.002  0.2270  0.1205  0.9084
 2891TIP3    H230233   3.901   5.017   7.943 -0.3582  0.4947 -0.6914
 2892TIP3   OH230234   0.163   1.313   0.078  0.3484  0.3326 -0.1456
 2892TIP3    H130235   0.102   1.340   0.146 -1.3223  0.1628 -1.5303
 2892TIP3    H230236   0.165   1.387   0.017  0.9855  0.0492 -0.4785
 2893TIP3   OH230237   0.719   1.337   1.195  0.2351  0.0462 -0.3060
 2893TIP3    H130238   0.691   1.260   1.245  0.1016  1.1533  1.3943
 2893TIP3    H230239   0.653   1.347   1.127 -1.4299  0.4021  1.3116
 2894TIP3   OH230240   5.654   0.262   7.514  0.4774 -0.5209 -0.0603
 2894TIP3    H130241   5.733   0.211   7.497  0.4772  0.2430 -2.9445
 2894TIP3    H230242   5.683   0.353   7.514 -0.1620 -0.3032  0.6354
 2895TIP3   OH230243   6.460   5.053   2.001  0.0680  0.4630  0.0279
 2895TIP3    H130244   6.427   5.053   1.911  0.6959  2.9396 -0.2775
 2895TIP3    H230245   6.381   5.051   2.055 -0.3136 -1.2083 -0.5300
 2896TIP3   OH230246   2.965   4.273   7.807 -0.3129  0.5230 -0.1970
 2896TIP3    H130247   2.914   4.349   7.778 -0.8085  0.4733  0.5125
 2896TIP3    H230248   3.023   4.307   7.875  1.9414  0.9572 -2.1992
 2897TIP3   OH230249   5.853   0.671   7.153 -0.0241  1.0704 -1.1159
 2897TIP3    H130250   5.794   0.611   7.109  0.4010 -0.0656 -0.1971
 2897TIP3    H230251   5.798   0.745   7.178 -1.2197 -0.2271  0.2646
 2898TIP3   OH230252   0.011   3.989   7.858  0.4105 -0.2591  0.0199
 2898TIP3    H130253   0.010   4.052   7.930  1.2465 -0.0806 -0.1155
 2898TIP3    H230254   0.092   3.940   7.869  1.0880  0.4744 -1.3911
 2899TIP3   OH230255   6.828   5.319   8.093 -0.1463  0.1867  0.0614
 2899TIP3    H130256   6.853   5.230   8.066 -1.1246  0.0398 -0.3824
 2899TIP3    H230257   6.909   5.370   8.085  0.3756 -0.6129  0.1233
 2900TIP3   OH230258   0.412   5.099   3.574 -0.0938 -0.2928  0.0279
 2900TIP3    H130259   0.469   5.103   3.498 -0.4262  0.6484 -0.1889
 2900TIP3    H230260   0.334   5.148   3.548 -0.4108 -0.3665  0.8073
 2901TIP3   OH230261   6.820   4.391   1.738 -0.4506  0.0480  0.4792
 2901TIP3    H130262   6.875   4.317   1.764  1.8670  0.8122 -1.7975
 2901TIP3    H230263   6.807   4.379   1.643 -1.6441  1.5611  0.4176
 2902TIP3   OH230264   4.010   3.600   2.274  0.1518  0.4202  0.4048
 2902TIP3    H130265   3.918   3.619   2.254  0.0127 -1.0208 -0.4765
 2902TIP3    H230266   4.007   3.542   2.350  0.2461 -0.6480 -0.3890
 2903TIP3   OH230267   5.131   4.608   1.282  0.0667  0.3011 -0.0583
 2903TIP3    H130268   5.131   4.699   1.252 -1.9568 -0.0176 -1.2390
 2903TIP3    H230269   5.190   4.563   1.222  0.8718  0.7649  0.3681
 2904TIP3   OH230270   5.252   0.506   7.116  0.0196  0.1829  0.3522
 2904TIP3    H130271   5.333   0.534   7.072 -0.7187 -0.5884 -1.5697
 2904TIP3    H230272   5.248   0.561   7.195 -0.0954  3.8346 -1.9787
 2905TIP3   OH230273   1.570   4.743   8.214  0.2972  0.5036 -0.2188
 2905TIP3    H130274   1.491   4.757   8.162 -0.1182  1.6070  0.6692
 2905TIP3    H230275   1.538   4.713   8.299  0.8165  1.1097  0.2008
 2906TIP3   OH230276   5.211   6.806   7.779  0.0052  0.6893  0.2980
 2906TIP3    H130277   5.174   6.735   7.832  1.4475 -0.8908 -0.6778
 2906TIP3    H230278   5.141   6.831   7.720  0.1929 -1.9001 -1.1974
 2907TIP3   OH230279   1.262   0.526   8.253  0.0877  0.1632 -0.0830
 2907TIP3    H130280   1.285   0.607   8.299 -2.6884  1.0026 -0.0483
 2907TIP3    H230281   1.225   0.554   8.170  1.7161 -1.2462 -1.3881
 2908TIP3   OH230282   6.380   6.759   8.389  0.5890 -0.0312 -0.1746
 2908TIP3    H130283   6.322   6.729   8.320  1.0705 -0.9656 -0.2014
 2908TIP3    H230284   6.368   6.695   8.459  2.4121 -0.9263 -0.6268
 2909TIP3   OH230285   5.408   2.496   1.069 -0.0549  0.3865  0.4543
 2909TIP3    H130286   5.385   2.574   1.019 -0.3726 -0.0840 -0.1480
 2909TIP3    H230287   5.332   2.439   1.060  1.0630 -0.9489 -1.0619
 2910TIP3   OH230288   1.923   6.406   7.851  0.0753  0.5392 -0.2656
 2910TIP3    H130289   1.930   6.501   7.837 -0.9663  0.4566 -1.5923
 2910TIP3    H230290   1.985   6.387   7.921  1.2903  1.9970 -0.8908
 2911TIP3   OH230291   5.507   3.969   1.406 -0.2416  0.1434  1.1108
 2911TIP3    H130292   5.520   3.991   1.498 -1.1616 -0.4238  1.3931
 2911TIP3    H230293   5.553   4.037   1.357  1.4187 -0.2906  1.9983
 2912TIP3   OH230294   1.288   6.608   7.498  0.2316 -0.0091  0.7187
 2912TIP3    H130295   1.355   6.566   7.443 -0.9954 -0.6402 -0.3556
 2912TIP3    H230296   1.207   6.594   7.450 -0.3193  3.2358  0.5331
 2913TIP3   OH230297   2.384   6.891   7.903 -0.2895  0.7849  0.5019
 2913TIP3    H130298   2.360   6.893   7.995  0.0655  0.5707  0.6034
 2913TIP3    H230299   2.309   6.851   7.859 -0.2996  0.5254  0.7542
 2914TIP3   OH230300   4.567   0.030   7.634 -0.2925  0.3465  0.9113
 2914TIP3    H130301   4.636   0.013   7.698 -0.2002  4.1218  2.0053
 2914TIP3    H230302   4.570   0.124   7.618 -2.7847  0.1227 -1.8896
 2915TIP3   OH230303   3.226   6.693   7.618 -0.0882 -0.2782 -0.1547
 2915TIP3    H130304   3.273   6.631   7.675  0.1251  0.3802  0.3978
 2915TIP3    H230305   3.155   6.641   7.580  0.9413 -1.2485 -0.8467
 2916TIP3   OH230306   0.467   3.591   2.221  0.5090  0.4051 -0.3581
 2916TIP3    H130307   0.561   3.578   2.231  0.4735 -1.1631 -1.5904
 2916TIP3    H230308   0.458   3.667   2.164  1.1136 -0.2789 -1.4102
 2917TIP3   OH230309   2.453   1.820   8.067 -0.1880 -0.1055 -0.3680
 2917TIP3    H130310   2.548   1.821   8.069 -0.1440  2.3168 -0.8675
 2917TIP3    H230311   2.430   1.823   7.974 -0.8485 -2.8664 -0.3879
 2918TIP3   OH230312   4.814   4.714   8.079 -0.3457  0.7117  0.7149
 2918TIP3    H130313   4.730   4.761   8.085 -1.9652 -1.8496 -0.2541
 2918TIP3    H230314   4.796   4.641   8.019  2.0742 -0.9819  1.9052
 2919TIP3   OH230315   3.967   0.900   3.075 -0.0376 -0.3554 -0.2073
 2919TIP3    H130316   4.044   0.957   3.078 -0.6339  0.5102 -0.8084
 2919TIP3    H230317   3.946   0.882   3.166  1.1697 -1.0301 -0.0427
 2920TIP3   OH230318   0.438   5.894   7.165 -0.0579  0.1152 -0.6727
 2920TIP3    H130319   0.360   5.845   7.139 -0.5308 -0.8502  2.1976
 2920TIP3    H230320   0.406   5.981   7.187  0.0105  0.3113 -1.3364
 2921TIP3   OH230321   2.353   2.089   8.053 -0.1717 -0.3891 -0.1476
 2921TIP3    H130322   2.390   2.072   7.966  0.5640  1.1013 -0.1708
 2921TIP3    H230323   2.366   2.007   8.101 -0.4332 -1.1821 -1.3720
 2922TIP3   OH230324   4.993   5.046   1.608 -0.1476  0.4746 -0.2051
 2922TIP3    H130325   4.914   4.992   1.601 -0.0189 -0.0148  1.6104
 2922TIP3    H230326   5.023   5.033   1.698  0.0690  3.3529  0.2250
 2923TIP3   OH230327   0.470   5.672   1.047 -0.1045 -1.0974 -0.3490
 2923TIP3    H130328   0.546   5.662   1.104  0.2212  0.6367 -0.4241
 2923TIP3    H230329   0.500   5.643   0.961  0.2563 -1.0790 -0.2287
 2924TIP3   OH230330   4.872   3.393   1.243 -0.3847 -0.5625  0.8274
 2924TIP3    H130331   4.856   3.305   1.208  2.2756  0.0339 -2.3450
 2924TIP3    H230332   4.954   3.385   1.292  0.6462  0.3754 -0.6901
 2925TIP3   OH230333   2.482   5.406   2.392 -0.2918  0.2533  0.0303
 2925TIP3    H130334   2.573   5.377   2.397 -0.5251 -0.5200  0.0816
 2925TIP3    H230335   2.466   5.453   2.474 -0.6176 -1.7396  1.1867
 2926TIP3   OH230336   5.522   0.990   1.642 -0.0466 -0.4645 -0.0302
 2926TIP3    H130337   5.508   1.078   1.677  0.6179  0.1057 -1.1358
 2926TIP3    H230338   5.440   0.969   1.597 -0.3230 -0.5483  0.5058
 2927TIP3   OH230339   0.617   2.678   1.810  0.2872 -0.0705 -0.1320
 2927TIP3    H130340   0.655   2.722   1.734 -0.3515 -1.7490 -1.4723
 2927TIP3    H230341   0.679   2.695   1.881  0.3379  2.4797 -0.7030
 2928TIP3   OH230342   4.958   5.697   1.701  0.2878 -0.3969 -0.0972
 2928TIP3    H130343   4.936   5.790   1.702  1.6131 -0.0407 -0.7892
 2928TIP3    H230344   4.874   5.652   1.694 -0.5862  0.6186  2.5880
 2929TIP3   OH230345   1.006   6.813   7.807 -0.3679  0.5800 -0.7251
 2929TIP3    H130346   1.081   6.753   7.808  0.4548  1.5845 -0.7189
 2929TIP3    H230347   0.996   6.836   7.714 -0.2086  1.0020 -0.6395
 2930TIP3   OH230348   1.938   3.180   0.034  0.8938 -0.2555  0.3919
 2930TIP3    H130349   1.929   3.259   0.088  1.4313  1.6702 -2.1342
 2930TIP3    H230350   1.849   3.147   0.025  0.3034  1.3869 -0.2811
 2931TIP3   OH230351   2.765   5.835   3.283 -0.5436  0.0079  0.2843
 2931TIP3    H130352   2.767   5.749   3.325  0.6990  0.1785  0.6148
 2931TIP3    H230353   2.852   5.845   3.245 -0.6453  1.1635  0.3212
 2932TIP3   OH230354   3.956   6.872   7.719 -0.4801  0.7133  0.6824
 2932TIP3    H130355   4.012   6.944   7.688 -2.6677  1.9335 -0.6490
 2932TIP3    H230356   3.901   6.912   7.786 -1.3505  0.1503  0.3175
 2933TIP3   OH230357   2.045   2.839   0.281  0.2124  0.8184  0.0506
 2933TIP3    H130358   1.965   2.880   0.315 -0.1230 -0.3461  0.7351
 2933TIP3    H230359   2.030   2.745   0.292  1.6455  0.5704  0.1077
 2934TIP3   OH230360   5.767   5.509   7.111 -0.2780  0.1045  0.2286
 2934TIP3    H130361   5.699   5.503   7.178 -0.2143  0.0753  0.2907
 2934TIP3    H230362   5.816   5.427   7.119  0.6541  0.7240  1.1368
 2935TIP3   OH230363   5.013   1.724   1.723 -0.3724  0.9083  0.5618
 2935TIP3    H130364   5.071   1.648   1.722 -0.7683  0.4589 -2.9495
 2935TIP3    H230365   4.925   1.687   1.733 -0.4983  0.9520 -0.3079
 2936TIP3   OH230366   2.071   2.082   1.060 -0.5622 -0.6143 -0.4257
 2936TIP3    H130367   2.008   2.017   1.091 -0.9445 -0.4272 -0.7865
 2936TIP3    H230368   2.020   2.163   1.053 -0.6961 -0.8124 -2.2337
 2937TIP3   OH230369   6.894   2.712   7.616  0.3394 -0.0765  0.2184
 2937TIP3    H130370   6.930   2.624   7.622  1.7606  0.4178 -0.6203
 2937TIP3    H230371   6.913   2.740   7.526 -1.7748  0.3970 -0.1300
 2938TIP3   OH230372   0.779   3.700   0.783  0.2442  0.2375  0.6002
 2938TIP3    H130373   0.793   3.752   0.862  2.8560 -0.9430  1.0097
 2938TIP3    H230374   0.717   3.632   0.811 -0.2556  0.8757  1.0875
 2939TIP3   OH230375   4.080   1.796   8.348  0.1215 -0.4486  0.3495
 2939TIP3    H130376   4.071   1.715   8.297  0.8633 -1.5920  1.9598
 2939TIP3    H230377   4.168   1.791   8.385  0.8996  2.0055 -0.9745
 2940TIP3   OH230378   4.691   4.422   7.031 -0.1555  0.2040 -0.2458
 2940TIP3    H130379   4.728   4.340   6.999  0.1011  0.6303 -1.0834
 2940TIP3    H230380   4.687   4.411   7.126 -0.4722 -0.9129 -0.3713
 2941TIP3   OH230381   5.419   3.398   3.276 -0.5635 -0.2214  0.5271
 2941TIP3    H130382   5.451   3.409   3.365 -1.4560 -0.1879  0.8526
 2941TIP3    H230383   5.491   3.355   3.229 -0.8973 -2.3466  1.8235
 2942TIP3   OH230384   4.264   3.585   8.176  0.4887  0.0265 -0.2281
 2942TIP3    H130385   4.192   3.523   8.184 -0.0380  0.7376  0.7587
 2942TIP3    H230386   4.231   3.666   8.216  1.9881  0.2180  0.7230
 2943TIP3   OH230387   0.590   1.245   0.108 -0.4660  0.2537 -0.9449
 2943TIP3    H130388   0.682   1.260   0.130 -1.3107  2.7018  1.4381
 2943TIP3    H230389   0.586   1.259   0.013  1.3268  2.1569 -0.8171
 2944TIP3   OH230390   1.737   3.044   7.580 -0.0192 -0.2801 -0.6166
 2944TIP3    H130391   1.707   3.114   7.522  0.5336  0.7399  0.2937
 2944TIP3    H230392   1.800   2.994   7.527  0.8049  0.8906 -0.7664
 2945TIP3   OH230393   6.648   5.320   0.652  0.3871 -0.2338 -0.2845
 2945TIP3    H130394   6.659   5.398   0.707 -0.1739 -0.1938 -0.2215
 2945TIP3    H230395   6.654   5.247   0.713  0.2225 -0.2096 -0.2394
 2946TIP3   OH230396   1.891   4.820   1.603  0.0799 -0.8296 -0.6907
 2946TIP3    H130397   1.821   4.858   1.549  0.7491  0.3488 -0.7537
 2946TIP3    H230398   1.865   4.728   1.614 -1.4204 -0.4458 -0.8030
 2947TIP3   OH230399   3.793   6.040   8.353  0.2947 -0.0999 -0.1590
 2947TIP3    H130400   3.806   6.120   8.404 -0.3910  0.4730 -0.8617
 2947TIP3    H230401   3.702   6.016   8.368  0.0895  0.0617 -1.0702
 2948TIP3   OH230402   0.125   1.946   7.155  0.1547  0.4093 -0.0846
 2948TIP3    H130403   0.178   1.967   7.232  0.9603  1.3246 -0.8495
 2948TIP3    H230404   0.169   1.992   7.083 -0.7983 -0.1027 -1.0219
 2949TIP3   OH230405   4.148   0.861   0.916 -0.0141  0.3762 -0.3239
 2949TIP3    H130406   4.055   0.839   0.916  0.2519 -0.8101  0.1916
 2949TIP3    H230407   4.173   0.858   0.823 -0.3445  0.0212 -0.4062
 2950TIP3   OH230408   6.552   1.623   1.741  0.1598  0.5390 -0.1140
 2950TIP3    H130409   6.547   1.562   1.814  3.4421 -2.7611 -2.3002
 2950TIP3    H230410   6.642   1.656   1.743  0.2226  0.6539 -2.3731
 2951TIP3   OH230411   5.035   0.826   1.403 -0.4369  0.1951  0.4934
 2951TIP3    H130412   4.969   0.790   1.463  1.0675 -1.1294  1.4305
 2951TIP3    H230413   5.008   0.794   1.317 -1.1018 -0.2040  0.8335
 2952TIP3   OH230414   1.612   2.711   8.154  0.0638  1.0728  0.3923
 2952TIP3    H130415   1.595   2.639   8.094 -1.3561  0.3571  1.5686
 2952TIP3    H230416   1.694   2.750   8.124  1.0641 -1.2525 -0.0842
 2953TIP3   OH230417   1.377   5.971   0.832 -0.2530  0.6428 -0.2050
 2953TIP3    H130418   1.396   6.046   0.888 -1.4365  0.3208  0.6811
 2953TIP3    H230419   1.297   5.996   0.785  1.2136  1.2939 -2.5395
 2954TIP3   OH230420   5.636   4.800   7.612 -0.0006  0.5495 -0.0451
 2954TIP3    H130421   5.656   4.830   7.523  0.0482  2.4376  0.5545
 2954TIP3    H230422   5.540   4.802   7.616  0.0087  0.8773  0.0642
 2955TIP3   OH230423   6.806   5.135   2.370 -0.3399  0.0179 -0.2939
 2955TIP3    H130424   6.836   5.155   2.281 -1.6199 -0.7532 -0.9338
 2955TIP3    H230425   6.791   5.040   2.369 -2.9430  0.3560 -0.1132
 2956TIP3   OH230426   4.161   0.136   0.008 -0.6677 -0.1653 -0.2403
 2956TIP3    H130427   4.182   0.081  -0.068  0.2404 -0.6173  0.3062
 2956TIP3    H230428   4.215   0.099   0.078 -0.8123  0.8088  0.3926
 2957TIP3   OH230429   5.451   6.101   0.792 -0.2716  0.0513  0.2429
 2957TIP3    H130430   5.367   6.094   0.837 -1.1058 -0.6003 -1.3163
 2957TIP3    H230431   5.445   6.035   0.722  1.4054  0.2332 -0.0955
 2958TIP3   OH230432   4.730   3.091   7.902  0.1398 -0.4161  0.0911
 2958TIP3    H130433   4.781   3.087   7.982  0.3438 -2.0010 -0.0827
 2958TIP3    H230434   4.768   3.163   7.852  1.5364 -0.9112  0.4069
 2959TIP3   OH230435   1.429   5.127   7.412 -0.6369 -0.3629 -0.5478
 2959TIP3    H130436   1.421   5.161   7.323 -2.8185 -0.8314 -0.5853
 2959TIP3    H230437   1.453   5.035   7.400  0.1394 -0.1582 -0.6046
 2960TIP3   OH230438   5.435   4.497   1.569  0.1965 -0.2574  0.2111
 2960TIP3    H130439   5.493   4.510   1.494 -0.1497 -0.8110 -0.1641
 2960TIP3    H230440   5.353   4.466   1.530  0.1655 -0.9935  0.8454
 2961TIP3   OH230441   6.913   3.886   0.289 -0.4977 -0.2839  0.0497
 2961TIP3    H130442   6.818   3.876   0.297 -0.4312 -0.0025  1.3466
 2961TIP3    H230443   6.948   3.851   0.371  0.6433 -1.8602 -1.0418
 2962TIP3   OH230444   3.818   0.782   6.630 -0.4781 -0.2161 -0.0339
 2962TIP3    H130445   3.769   0.785   6.712  1.3359 -0.5898  1.1166
 2962TIP3    H230446   3.774   0.716   6.578 -1.1005 -0.6534  1.0148
 2963TIP3   OH230447   3.805   0.344   6.819  0.1494 -0.7636 -0.1990
 2963TIP3    H130448   3.799   0.402   6.743 -1.6009 -0.0039  0.4649
 2963TIP3    H230449   3.762   0.263   6.791  1.5017 -1.3318 -0.7199
 2964TIP3   OH230450   4.739   2.856   2.206  0.0557  0.1689  0.2567
 2964TIP3    H130451   4.740   2.798   2.130  0.4982  0.8917 -0.3093
 2964TIP3    H230452   4.681   2.813   2.269 -0.1042 -0.5745 -0.3843
 2965TIP3   OH230453   1.512   4.034   1.896 -0.3453 -0.0086 -0.1199
 2965TIP3    H130454   1.607   4.038   1.911 -0.3953 -0.0047  0.2094
 2965TIP3    H230455   1.503   4.008   1.804 -0.0244 -0.1651 -0.1093
 2966TIP3   OH230456   0.822   4.588   0.690  0.5707 -0.3007  0.1431
 2966TIP3    H130457   0.909   4.579   0.729  0.6361  0.0997  0.0959
 2966TIP3    H230458   0.837   4.576   0.596  0.5411 -0.4439  0.1564
 2967TIP3   OH230459   0.013   2.321   1.038 -0.1017 -0.1263  0.4517
 2967TIP3    H130460   0.040   2.412   1.046  1.1983 -0.5185  0.9028
 2967TIP3    H230461  -0.055   2.309   1.105 -2.1281  1.1078 -1.2696
 2968TIP3   OH230462   1.467   1.497   2.469 -0.4776  0.2923 -0.0867
 2968TIP3    H130463   1.438   1.511   2.559  1.5922  1.2256  0.4857
 2968TIP3    H230464   1.507   1.410   2.470 -1.3334 -0.1173 -0.3736
 2969TIP3   OH230465   4.082   6.882   1.062  0.2648 -0.0087 -0.1129
 2969TIP3    H130466   4.151   6.824   1.094 -1.1716 -1.8593 -0.1828
 2969TIP3    H230467   4.091   6.879   0.967 -0.6326 -1.2586 -0.1837
 2970TIP3   OH230468   4.647   1.136   3.056 -0.2321  0.0996  0.1538
 2970TIP3    H130469   4.610   1.200   3.117  0.6001  0.7877 -0.0429
 2970TIP3    H230470   4.634   1.052   3.099  0.8572  0.6127  1.5868
 2971TIP3   OH230471   5.562   2.819   2.642 -0.2268 -0.0783  0.4150
 2971TIP3    H130472   5.499   2.839   2.711  0.5178  0.3395  0.9877
 2971TIP3    H230473   5.600   2.903   2.619  0.3424 -0.3616  0.2998
 2972TIP3   OH230474   1.018   0.865   1.478  0.3362 -0.6471  0.3152
 2972TIP3    H130475   1.007   0.878   1.384  1.9933  0.9737  0.2930
 2972TIP3    H230476   0.933   0.833   1.508 -1.0016  1.0908 -1.3677
 2973TIP3   OH230477   1.709   5.967   0.898  0.1790  0.1341 -0.0872
 2973TIP3    H130478   1.706   5.872   0.914 -0.3308  0.2139  0.3221
 2973TIP3    H230479   1.699   5.975   0.804  2.4279 -0.3136 -0.4282
 2974TIP3   OH230480   3.982   4.029   0.110 -0.4418  0.2734 -0.3874
 2974TIP3    H130481   3.887   4.019   0.110 -0.3846 -0.3839  0.6148
 2974TIP3    H230482   4.001   4.079   0.030 -1.6974  1.1798 -0.1516
 2975TIP3   OH230483   6.052   0.014   1.669 -0.1792  0.2433 -0.0876
 2975TIP3    H130484   5.996   0.049   1.600  0.5214  1.1870 -0.1994
 2975TIP3    H230485   6.116   0.083   1.685  0.5862 -0.5724  0.4627
 2976TIP3   OH230486   0.553   1.721   0.468  0.2837  0.0853  0.1255
 2976TIP3    H130487   0.632   1.769   0.444  0.8984 -0.9196  0.1031
 2976TIP3    H230488   0.583   1.650   0.524 -0.2654 -1.6952 -1.6737
 2977TIP3   OH230489   2.048   2.023   7.501  0.0684  0.1478 -0.3581
 2977TIP3    H130490   2.135   2.022   7.463  0.6230  1.5254  0.7763
 2977TIP3    H230491   2.001   2.090   7.452 -0.1701 -0.1708 -0.5704
 2978TIP3   OH230492   3.651   1.319   1.894  0.0281  0.3346  0.6455
 2978TIP3    H130493   3.688   1.385   1.953  0.0509 -0.7816  1.9194
 2978TIP3    H230494   3.591   1.269   1.949 -0.3148 -0.4408 -0.4102
 2979TIP3   OH230495   4.312   0.499   7.124  0.0010 -0.5496 -0.3871
 2979TIP3    H130496   4.307   0.422   7.181  0.6948 -0.8036 -0.6588
 2979TIP3    H230497   4.336   0.464   7.039  3.1030  0.1923  0.0754
 2980TIP3   OH230498   4.589   3.559   7.667 -0.1942 -0.8009  0.2572
 2980TIP3    H130499   4.503   3.517   7.662 -0.3653 -0.3620 -0.6873
 2980TIP3    H230500   4.631   3.519   7.743 -0.9928 -1.4723  0.3561
 2981TIP3   OH230501   2.669   6.065   2.297  0.0099  0.3097 -0.3135
 2981TIP3    H130502   2.756   6.029   2.279 -0.5524 -1.0106 -0.5177
 2981TIP3    H230503   2.685   6.138   2.357  1.3945  1.0907 -1.5559
 2982TIP3   OH230504   5.545   1.113   0.026 -0.4330 -0.0370  0.7013
 2982TIP3    H130505   5.614   1.051   0.003 -1.8938 -1.5484  0.1820
 2982TIP3    H230506   5.505   1.137  -0.058 -0.2645  1.1809  0.9479
 2983TIP3   OH230507   3.808   1.175   1.258 -0.4239 -1.0194  0.2457
 2983TIP3    H130508   3.839   1.252   1.211  1.5754 -0.3681  2.3966
 2983TIP3    H230509   3.809   1.104   1.194  1.1682  0.0132 -0.9209
 2984TIP3   OH230510   3.312   4.393   1.204  0.4694 -0.2953 -0.1248
 2984TIP3    H130511   3.407   4.389   1.219  0.7409  0.6689 -1.3947
 2984TIP3    H230512   3.284   4.473   1.247  0.3024 -0.3779 -0.0798
 2985TIP3   OH230513   1.537   5.214   3.081 -1.0602  0.5307 -0.6980
 2985TIP3    H130514   1.575   5.132   3.049 -0.8742  1.3302 -2.6382
 2985TIP3    H230515   1.453   5.188   3.119 -0.5420 -0.6727 -0.3164
 2986TIP3   OH230516   6.406   5.310   2.596  0.4171  0.3250  1.0433
 2986TIP3    H130517   6.479   5.250   2.583  0.0876  0.1737 -0.2366
 2986TIP3    H230518   6.445   5.397   2.588  0.4450  0.2432  0.2114
 2987TIP3   OH230519   2.175   1.288   3.250  0.0845 -0.2143  0.1294
 2987TIP3    H130520   2.189   1.194   3.234  1.7578 -0.0545  0.4642
 2987TIP3    H230521   2.125   1.291   3.331 -0.7703 -0.8360 -0.3669
 2988TIP3   OH230522   3.234   5.578   0.043 -0.0135  0.0438  0.0305
 2988TIP3    H130523   3.145   5.554   0.071  0.5962 -0.2936  1.8076
 2988TIP3    H230524   3.259   5.649   0.103  0.5185  0.9195 -1.1800
 2989TIP3   OH230525   6.606   0.687   7.586 -0.3034  0.3737 -0.2721
 2989TIP3    H130526   6.592   0.595   7.606 -0.3745  0.5744  0.6137
 2989TIP3    H230527   6.580   0.695   7.494  1.8434 -0.9624 -1.0868
 2990TIP3   OH230528   2.093   1.648   1.885 -0.5508 -0.3285 -0.3840
 2990TIP3    H130529   2.088   1.577   1.820  2.5466 -1.0296 -0.0207
 2990TIP3    H230530   2.090   1.603   1.970 -0.0237  0.1047 -0.1301
 2991TIP3   OH230531   6.799   3.999   8.232 -0.0621 -0.0853  0.1662
 2991TIP3    H130532   6.876   4.030   8.183 -0.2871  0.1921 -0.0143
 2991TIP3    H230533   6.724   4.028   8.180 -0.2912 -0.2753  0.3891
 2992TIP3   OH230534   6.298   6.234   7.149  0.2729 -0.6858 -0.1295
 2992TIP3    H130535   6.378   6.253   7.196 -1.0372 -2.9589  3.4147
 2992TIP3    H230536   6.263   6.320   7.124  2.0924  0.5151  1.2538
 2993TIP3   OH230537   5.469   3.962   7.146  0.1056  0.6469  0.2317
 2993TIP3    H130538   5.435   3.873   7.152  0.9752  0.3827  1.7201
 2993TIP3    H230539   5.395   4.018   7.168 -0.3715  0.2908 -0.4445
 2994TIP3   OH230540   1.017   3.140   7.959  0.0582 -0.0583 -0.0311
 2994TIP3    H130541   1.013   3.110   7.868 -1.3509  1.4899 -0.5181
 2994TIP3    H230542   1.071   3.218   7.956 -1.3151  0.9288  0.1523
 2995TIP3   OH230543   2.466   5.294   0.257  0.8859 -0.5423 -0.9680
 2995TIP3    H130544   2.553   5.289   0.296  0.8073  0.0687 -0.7038
 2995TIP3    H230545   2.412   5.236   0.310  0.7006  0.5305  0.0750
 2996TIP3   OH230546   6.393   4.612   0.878 -0.3857 -0.2284  0.1557
 2996TIP3    H130547   6.333   4.602   0.952 -0.3780  0.2354  0.2302
 2996TIP3    H230548   6.434   4.526   0.869  0.8213  0.1326  1.7327
 2997TIP3   OH230549   1.839   0.771   6.810 -0.0132 -0.3463  0.2697
 2997TIP3    H130550   1.857   0.781   6.717  0.6796  2.1969  0.6073
 2997TIP3    H230551   1.878   0.687   6.833  1.1561 -0.3197 -1.4293
 2998TIP3   OH230552   0.671   3.160   1.403  0.3454 -0.1797 -0.1087
 2998TIP3    H130553   0.763   3.151   1.427  0.8282  1.8156 -0.9877
 2998TIP3    H230554   0.665   3.118   1.317  0.3407 -0.6791  0.1354
 2999TIP3   OH230555   3.059   6.016   1.713 -0.7360 -0.0546  0.2251
 2999TIP3    H130556   3.042   5.926   1.741 -2.8537  0.1893 -0.1588
 2999TIP3    H230557   2.977   6.045   1.674  0.3018  1.6323 -0.8178
 3000TIP3   OH230558   4.316   4.628   2.929 -0.3285 -0.4553  0.3450
 3000TIP3    H130559   4.384   4.560   2.928  0.8572  0.6481 -2.2206
 3000TIP3    H230560   4.237   4.584   2.898 -0.5987 -1.5069  2.3716
 3001TIP3   OH230561   1.129   0.628   2.389  0.0026  0.5398 -0.1524
 3001TIP3    H130562   1.216   0.587   2.393 -0.8777 -1.3369  1.9538
 3001TIP3    H230563   1.121   0.657   2.298  2.6484  0.3835 -0.5196
 3002TIP3   OH230564   0.475   1.913   7.021  0.3785 -0.5186 -0.4735
 3002TIP3    H130565   0.564   1.944   7.002  0.0528  0.9677  0.2622
 3002TIP3    H230566   0.420   1.955   6.954  0.0937 -0.5519 -0.2622
 3003TIP3   OH230567   6.750   0.112   3.131 -0.7756  0.2575  0.0009
 3003TIP3    H130568   6.663   0.099   3.169 -0.4212  0.2437  0.8295
 3003TIP3    H230569   6.807   0.052   3.179 -0.3906 -0.0780 -0.8576
 3004TIP3   OH230570   6.883   2.176   0.826  0.1134 -0.1268 -0.0701
 3004TIP3    H130571   6.936   2.099   0.805  1.1273  0.7031 -0.6775
 3004TIP3    H230572   6.926   2.215   0.901  0.8866  1.0020 -1.0611
 3005TIP3   OH230573   2.942   4.441   1.061  0.1074  0.0244  0.3017
 3005TIP3    H130574   3.036   4.438   1.043 -0.3019  0.6280 -2.3160
 3005TIP3    H230575   2.925   4.533   1.084  0.2809 -0.3149  1.9406
 3006TIP3   OH230576   3.405   5.701   2.294 -0.1029  0.0998  0.2494
 3006TIP3    H130577   3.454   5.674   2.372  1.6632  0.6063 -0.6368
 3006TIP3    H230578   3.457   5.771   2.256 -1.0203 -0.0192 -1.3052
 3007TIP3   OH230579   3.917   3.666   8.243 -0.1014  0.6495 -0.1944
 3007TIP3    H130580   3.977   3.692   8.313 -0.1317 -0.3055  0.2081
 3007TIP3    H230581   3.831   3.663   8.285 -0.0578 -0.3450 -0.1391
 3008TIP3   OH230582   3.210   4.519   2.274  0.0254  0.2144  0.5972
 3008TIP3    H130583   3.301   4.548   2.283  0.8215 -1.2173 -1.9201
 3008TIP3    H230584   3.170   4.582   2.213 -0.3846  0.2082  0.8518
 3009TIP3   OH230585   1.996   1.533   1.632 -0.1309  0.0430  0.0253
 3009TIP3    H130586   1.941   1.610   1.615 -0.3588 -0.1474 -0.1088
 3009TIP3    H230587   2.022   1.503   1.545 -0.9240 -0.6623  0.0113
 3010TIP3   OH230588   2.440   3.244   3.418 -0.1143 -0.2940  0.2901
 3010TIP3    H130589   2.380   3.258   3.492  0.6218  0.2899  0.7936
 3010TIP3    H230590   2.448   3.149   3.412 -1.0635 -0.3855  0.2272
 3011TIP3   OH230591   6.597   0.155   7.904  0.5129  0.2329 -0.4297
 3011TIP3    H130592   6.629   0.068   7.882  1.0672  0.0653  0.9333
 3011TIP3    H230593   6.531   0.174   7.838 -1.0400 -2.0272  0.3397
 3012TIP3   OH230594   4.064   3.895   0.820 -0.4352 -0.0301  0.2188
 3012TIP3    H130595   4.099   3.806   0.820 -0.8495 -0.1931 -0.3879
 3012TIP3    H230596   4.052   3.915   0.913  0.8963 -0.1048  0.4392
 3013TIP3   OH230597   1.485   2.163   0.474  0.4787  0.2705 -0.7782
 3013TIP3    H130598   1.553   2.144   0.410  0.4626 -0.7117 -0.5165
 3013TIP3    H230599   1.460   2.078   0.509 -0.4356  0.6772 -0.4080
 3014TIP3   OH230600   3.083   4.357   8.039 -0.0819 -0.6651  0.2808
 3014TIP3    H130601   3.030   4.429   8.074  2.5876  1.4637  0.3258
 3014TIP3    H230602   3.166   4.364   8.086  2.1044 -0.4404 -3.2416
 3015TIP3   OH230603   3.288   6.237   8.320 -0.1786 -0.3998 -0.2096
 3015TIP3    H130604   3.383   6.246   8.320 -0.2534  0.5319  0.0157
 3015TIP3    H230605   3.272   6.144   8.333  0.7018 -0.3838  1.1744
 3016TIP3   OH230606   0.802   3.935   8.278 -0.2165  0.1905 -0.5501
 3016TIP3    H130607   0.844   4.021   8.269 -2.5862  1.3845 -1.1744
 3016TIP3    H230608   0.868   3.873   8.247  2.5348  1.4413  2.2786
 3017TIP3   OH230609   0.349   3.598   1.889 -0.1514 -0.3305  0.1020
 3017TIP3    H130610   0.441   3.612   1.911  0.1335 -0.1142 -1.1239
 3017TIP3    H230611   0.316   3.685   1.870 -0.2995 -0.5249 -0.5573
 3018TIP3   OH230612   2.271   6.505   0.310 -0.2637 -0.3417 -0.3996
 3018TIP3    H130613   2.196   6.510   0.369  0.4303  0.2987  0.4511
 3018TIP3    H230614   2.313   6.591   0.317 -0.3672 -0.1264 -2.1072
 3019TIP3   OH230615   5.682   6.177   1.192  0.4679  0.1965 -0.0405
 3019TIP3    H130616   5.726   6.252   1.231 -1.2441  0.0664  2.3404
 3019TIP3    H230617   5.667   6.203   1.101  0.0108  2.7320  0.6675
 3020TIP3   OH230618   3.057   3.973   7.813 -0.1078 -0.1919 -0.1285
 3020TIP3    H130619   3.019   3.931   7.736 -1.0251 -0.5462  0.4920
 3020TIP3    H230620   2.981   4.009   7.860  0.2455 -1.3538  1.4154
 3021TIP3   OH230621   5.848   4.078   1.560  0.0613  0.1325  0.5076
 3021TIP3    H130622   5.854   4.040   1.648 -0.6765  1.1891  1.0328
 3021TIP3    H230623   5.835   4.171   1.575  0.2437  0.3740 -0.7411
 3022TIP3   OH230624   1.441   3.312   1.636 -0.3184  0.6637 -0.7253
 3022TIP3    H130625   1.458   3.267   1.718  0.1960  1.2343 -0.5134
 3022TIP3    H230626   1.504   3.384   1.634  0.5121 -0.0352 -2.1662
 3023TIP3   OH230627   4.981   5.652   1.416 -0.7787  0.1165  0.0593
 3023TIP3    H130628   5.076   5.654   1.405 -0.6162  2.7203  1.3309
 3023TIP3    H230629   4.967   5.588   1.487  0.1746  0.7333  0.8311
 3024TIP3   OH230630   3.672   0.928   8.425  0.1538  0.8369  0.0217
 3024TIP3    H130631   3.720   0.911   8.344  0.6285  0.8005  0.3050
 3024TIP3    H230632   3.600   0.864   8.425  1.3798 -0.6140  0.6333
 3025TIP3   OH230633   3.756   4.154   2.601 -0.1594  0.0014 -0.0530
 3025TIP3    H130634   3.771   4.059   2.597 -1.0550 -0.1279 -0.7016
 3025TIP3    H230635   3.759   4.174   2.695  1.0652 -0.4767  0.0341
 3026TIP3   OH230636   5.495   6.137   1.422  0.1143 -0.2946 -0.2752
 3026TIP3    H130637   5.552   6.170   1.354 -1.0780  1.2699 -0.5733
 3026TIP3    H230638   5.414   6.189   1.414 -0.4526 -0.7633  1.6501
 3027TIP3   OH230639   2.378   6.778   3.129  0.2079  0.0624 -0.1217
 3027TIP3    H130640   2.471   6.800   3.119  0.3405 -0.6387 -0.5067
 3027TIP3    H230641   2.333   6.862   3.129  0.7946  0.3846 -0.5365
 3028TIP3   OH230642   1.399   2.128   2.887  0.2225 -0.2977 -0.3736
 3028TIP3    H130643   1.323   2.166   2.931  0.5855 -0.7045  0.6513
 3028TIP3    H230644   1.421   2.051   2.940  1.9491  0.3666 -0.0664
 3029TIP3   OH230645   0.780   5.264   7.948 -0.2862  0.0114  0.0363
 3029TIP3    H130646   0.747   5.206   8.018 -1.5500  0.3358 -0.2524
 3029TIP3    H230647   0.871   5.281   7.972 -0.7174  0.2093  1.6834
 3030TIP3   OH230648   6.005   4.379   3.200 -0.2908  0.1193  0.6323
 3030TIP3    H130649   5.977   4.326   3.126 -0.4176  1.1941 -0.1145
 3030TIP3    H230650   6.025   4.465   3.163 -0.4739  0.7245  1.8470
 3031TIP3   OH230651   2.893   3.817   0.660  0.0092  0.0423  0.1569
 3031TIP3    H130652   2.847   3.896   0.631  0.1939 -0.1911 -0.7998
 3031TIP3    H230653   2.846   3.790   0.739 -2.6888 -1.1712 -1.7141
 3032TIP3   OH230654   2.376   4.389   0.904  0.3952 -0.1022 -0.1714
 3032TIP3    H130655   2.293   4.431   0.880  0.3218 -1.1470 -1.8880
 3032TIP3    H230656   2.433   4.405   0.829  2.0591  1.2432  1.2760
 3033TIP3   OH230657   3.839   6.366   3.219  0.0730 -0.1606  0.2968
 3033TIP3    H130658   3.870   6.433   3.157  0.0741  0.0884  0.5604
 3033TIP3    H230659   3.751   6.394   3.243 -0.4149 -0.9452 -0.5566
 3034TIP3   OH230660   6.025   6.565   1.419  0.8235 -0.3327  0.5517
 3034TIP3    H130661   6.090   6.500   1.393  2.2512  0.9151  0.9086
 3034TIP3    H230662   6.067   6.616   1.488  0.0211  1.4279 -0.1942
 3035TIP3   OH230663   4.115   6.700   7.055  0.5084  0.2259  0.3307
 3035TIP3    H130664   4.085   6.697   6.964 -2.2755 -0.6100  1.1734
 3035TIP3    H230665   4.148   6.611   7.072 -0.3752 -0.0764  0.5286
 3036TIP3   OH230666   2.658   5.640   2.544 -0.2769 -0.3511  0.3189
 3036TIP3    H130667   2.585   5.594   2.587  0.6947 -0.7162  1.6625
 3036TIP3    H230668   2.713   5.670   2.616 -0.9123  3.1358 -0.4749
 3037TIP3   OH230669   5.376   5.734   3.038  0.4239 -0.3196  0.0486
 3037TIP3    H130670   5.313   5.689   3.093 -1.7624  2.4928  0.0747
 3037TIP3    H230671   5.461   5.711   3.075 -0.5302 -3.7570  0.4005
 3038TIP3   OH230672   0.283   1.411   1.220  0.2694  0.0297  0.1540
 3038TIP3    H130673   0.213   1.354   1.252  0.3097 -0.1724 -0.1141
 3038TIP3    H230674   0.271   1.493   1.267  0.5851 -0.4009  0.9971
 3039TIP3   OH230675   2.177   2.756   7.440  0.3470 -0.6397  0.5293
 3039TIP3    H130676   2.272   2.756   7.444  0.4506  2.1001 -0.0149
 3039TIP3    H230677   2.157   2.764   7.347 -0.2169  2.6627  0.8083
 3040TIP3   OH230678   1.606   3.506   1.234 -0.1044 -0.3287  0.0374
 3040TIP3    H130679   1.590   3.420   1.195  2.8557 -0.4549 -1.1414
 3040TIP3    H230680   1.618   3.488   1.327 -2.1692 -0.7403  0.2832
 3041TIP3   OH230681   5.278   6.271   1.131 -0.2614 -0.4699  0.4118
 3041TIP3    H130682   5.297   6.178   1.121  1.4577 -0.1283  0.1860
 3041TIP3    H230683   5.235   6.296   1.049  0.6219 -0.7670 -0.1503
 3042TIP3   OH230684   1.773   5.351   3.147  0.0661  0.0157  0.0801
 3042TIP3    H130685   1.694   5.297   3.138  1.2996 -1.6405 -1.5919
 3042TIP3    H230686   1.768   5.413   3.074 -0.3079  0.8142  0.7625
 3043TIP3   OH230687   4.587   5.503   1.065 -0.1315 -0.4258 -0.2081
 3043TIP3    H130688   4.635   5.583   1.088 -2.5950  1.2831 -0.6123
 3043TIP3    H230689   4.597   5.446   1.141  1.1621  0.4866  0.3487
 3044TIP3   OH230690   0.984   1.684   2.256  0.8559 -0.1942 -0.4924
 3044TIP3    H130691   1.039   1.702   2.180 -0.7733 -0.4233 -1.7996
 3044TIP3    H230692   0.972   1.589   2.255 -2.4512  0.0758 -2.5101
 3045TIP3   OH230693   5.905   6.760   8.082 -0.4741 -0.6875  0.2310
 3045TIP3    H130694   5.847   6.778   8.156 -0.0032  0.9824  0.2494
 3045TIP3    H230695   5.880   6.673   8.051  1.0600 -2.6937  3.9836
 3046TIP3   OH230696   4.553   5.348   0.839  0.1643  0.0284 -0.3204
 3046TIP3    H130697   4.596   5.263   0.849  1.1527  0.5816  0.2713
 3046TIP3    H230698   4.564   5.391   0.923  1.4256  1.5200 -1.1914
 3047TIP3   OH230699   3.119   6.794   0.326 -0.2087 -0.1606 -0.3450
 3047TIP3    H130700   3.210   6.774   0.350 -0.2514  0.3104  0.2257
 3047TIP3    H230701   3.087   6.713   0.288  0.6092 -0.1791 -1.0252
 3048TIP3   OH230702   2.779   6.362   0.734 -0.8392  0.4023 -0.1770
 3048TIP3    H130703   2.824   6.417   0.669  1.6671 -1.4034 -0.1070
 3048TIP3    H230704   2.788   6.410   0.816  1.1804  0.0569 -0.1421
 3049TIP3   OH230705   6.684   4.964   0.044 -0.0788 -0.1251 -0.0235
 3049TIP3    H130706   6.722   4.896  -0.011  0.0424  0.0812 -0.1963
 3049TIP3    H230707   6.748   4.978   0.114  0.9005  1.3051 -1.1605
 3050TIP3   OH230708   4.572   1.803   0.208 -0.1386 -0.2341  0.1464
 3050TIP3    H130709   4.498   1.758   0.250 -1.0698 -0.8188 -2.0204
 3050TIP3    H230710   4.547   1.896   0.211 -1.3169 -0.4819 -1.1458
 3051TIP3   OH230711   4.055   5.303   0.268 -0.6332  0.2180 -0.1958
 3051TIP3    H130712   3.970   5.346   0.277  0.0798  1.7995 -0.6415
 3051TIP3    H230713   4.034   5.210   0.264 -2.2576  0.4906  0.7299
 3052TIP3   OH230714   6.848   2.982   8.275 -0.2367 -0.1734  0.2049
 3052TIP3    H130715   6.753   2.990   8.282 -0.5196 -1.9227 -1.0366
 3052TIP3    H230716   6.873   2.931   8.352 -0.3090  0.2620  0.5174
 3053TIP3   OH230717   3.632   6.216   7.136 -0.2987  0.0743  0.6287
 3053TIP3    H130718   3.678   6.256   7.062 -0.7093 -0.2270  0.2052
 3053TIP3    H230719   3.696   6.158   7.176  0.6281  1.8224  1.8332
 3054TIP3   OH230720   2.710   0.878   2.025  0.1134  0.0351  0.0222
 3054TIP3    H130721   2.685   0.963   1.991  0.1542  0.1006  0.1551
 3054TIP3    H230722   2.797   0.862   1.987 -0.0814 -0.1443 -0.3518
 3055TIP3   OH230723   0.835   3.387   7.920 -0.2772  0.2981 -0.0267
 3055TIP3    H130724   0.756   3.436   7.897  1.0927  2.9635  0.4886
 3055TIP3    H230725   0.902   3.454   7.929  1.6582 -1.6879  1.2769
 3056TIP3   OH230726   1.994   5.173   1.401 -0.5250  0.2631 -0.7938
 3056TIP3    H130727   2.010   5.256   1.355 -1.1621  0.1992 -1.1420
 3056TIP3    H230728   2.080   5.148   1.435 -0.1870  0.7027 -1.3018
 3057TIP3   OH230729   3.785   4.469   8.343 -0.6858  0.1587 -0.0191
 3057TIP3    H130730   3.813   4.557   8.320 -0.9649  0.2863  0.1231
 3057TIP3    H230731   3.692   4.478   8.363 -0.1434  0.3661  2.7581
 3058TIP3   OH230732   2.354   4.083   7.240  0.4732  0.5335  0.2476
 3058TIP3    H130733   2.358   4.059   7.148 -0.3677  0.7848  0.1415
 3058TIP3    H230734   2.323   4.004   7.285 -2.1338  1.2792 -0.0819
 3059TIP3   OH230735   2.336   2.091   0.266 -0.3045 -0.7646 -0.9520
 3059TIP3    H130736   2.428   2.114   0.256 -0.4944  0.9283  0.5201
 3059TIP3    H230737   2.336   1.999   0.292  1.1177 -0.3496  0.6893
 3060TIP3   OH230738   5.035   4.833   7.997  0.0782 -0.2261  0.4226
 3060TIP3    H130739   4.967   4.770   8.022  0.1585 -1.2928 -1.8116
 3060TIP3    H230740   5.114   4.802   8.041 -0.3251 -0.4355  1.0230
 3061TIP3   OH230741   1.585   1.179   1.886  0.5969 -0.1868 -0.4538
 3061TIP3    H130742   1.613   1.088   1.871 -1.9973 -1.8271  3.0994
 3061TIP3    H230743   1.520   1.195   1.818  0.4119 -1.3422 -0.5788
 3062TIP3   OH230744   4.477   4.831   7.893 -0.8392  0.2228  0.5090
 3062TIP3    H130745   4.565   4.856   7.862 -0.4718 -1.1625  0.3523
 3062TIP3    H230746   4.475   4.859   7.984 -0.1909  0.2047  0.5378
 3063TIP3   OH230747   3.561   4.969   2.403  0.3186 -0.1321  0.1765
 3063TIP3    H130748   3.471   4.991   2.427  0.4071 -0.6833  1.0300
 3063TIP3    H230749   3.558   4.876   2.381  0.7073 -0.1759  0.3019
 3064TIP3   OH230750   2.263   5.579   1.960  0.7369 -0.4924 -0.4129
 3064TIP3    H130751   2.331   5.606   1.899 -0.8664  1.8665 -1.2728
 3064TIP3    H230752   2.308   5.570   2.044  1.8171  3.4583 -0.3804
 3065TIP3   OH230753   2.962   6.549   8.163  0.1742  0.5885  0.2450
 3065TIP3    H130754   2.931   6.547   8.072  0.7486 -1.5770  0.0389
 3065TIP3    H230755   2.898   6.604   8.208 -2.5740 -1.5703 -0.6979
 3066TIP3   OH230756   4.871   4.268   7.438  0.3509  0.0365  0.5129
 3066TIP3    H130757   4.946   4.239   7.386  0.3438 -1.4938  1.3069
 3066TIP3    H230758   4.800   4.210   7.412  0.3515 -0.7905  2.2239
 3067TIP3   OH230759   6.774   4.104   1.304  0.0758  1.0770  0.5566
 3067TIP3    H130760   6.800   4.126   1.215 -1.8178 -0.0805 -0.3319
 3067TIP3    H230761   6.693   4.152   1.319  0.1425  0.9229  1.5089
 3068TIP3   OH230762   3.965   1.609   2.687 -0.1575 -0.3657 -0.4383
 3068TIP3    H130763   3.977   1.670   2.759 -0.7728 -0.5794 -0.1451
 3068TIP3    H230764   4.045   1.555   2.687 -0.0835 -0.2581 -0.0193
 3069TIP3   OH230765   6.564   5.892   1.896 -0.2961 -0.4405  0.6499
 3069TIP3    H130766   6.578   5.798   1.889  2.5460 -0.0187 -0.4553
 3069TIP3    H230767   6.604   5.917   1.979  1.5780  0.1174 -0.3533
 3070TIP3   OH230768   6.150   0.325   2.398 -0.0275  0.1432  0.5461
 3070TIP3    H130769   6.209   0.310   2.472  0.7259 -0.8223 -0.2304
 3070TIP3    H230770   6.195   0.390   2.345 -0.3759  0.5215  0.7038
 3071TIP3   OH230771   2.314   2.461   3.296 -0.4127  0.4671  0.2009
 3071TIP3    H130772   2.301   2.554   3.315 -1.2989  0.9685 -2.4178
 3071TIP3    H230773   2.232   2.433   3.257  0.4939 -0.8959 -0.8177
 3072TIP3   OH230774   6.470   1.003   7.439  0.3423 -0.1953  0.4936
 3072TIP3    H130775   6.517   1.031   7.518  1.0999 -0.7866  0.2594
 3072TIP3    H230776   6.539   0.974   7.380 -0.1432  0.9844 -0.7017
 3073TIP3   OH230777   2.973   3.316   2.892 -0.3599  0.5399  0.3455
 3073TIP3    H130778   3.013   3.348   2.972 -0.4243  0.1804  0.5248
 3073TIP3    H230779   2.886   3.357   2.891  0.6285  2.7860 -0.9693
 3074TIP3   OH230780   4.594   0.597   3.638 -0.2666 -0.3069  0.2956
 3074TIP3    H130781   4.557   0.510   3.655  0.2029 -0.4099  0.8234
 3074TIP3    H230782   4.600   0.603   3.543 -0.9056 -0.5955  0.2339
 3075TIP3   OH230783   2.904   2.087   1.362  0.6869 -0.7480 -0.7775
 3075TIP3    H130784   2.937   2.040   1.438  1.2480  0.4479 -0.2486
 3075TIP3    H230785   2.977   2.089   1.301  0.6614 -0.5804 -0.8040
 3076TIP3   OH230786   2.918   5.205   0.371  0.0855  0.1197 -0.1317
 3076TIP3    H130787   2.948   5.183   0.459  0.9516  0.3776 -0.3521
 3076TIP3    H230788   2.827   5.177   0.369  0.0258  0.2035  0.8789
 3077TIP3   OH230789   0.946   4.539   1.792  0.0336  0.6250 -0.0095
 3077TIP3    H130790   0.893   4.558   1.714  1.4430 -0.4463 -1.2873
 3077TIP3    H230791   0.890   4.481   1.845 -0.3062 -0.0184 -1.0448
 3078TIP3   OH230792   3.377   0.726   3.181  0.0373 -0.0289  0.4041
 3078TIP3    H130793   3.316   0.728   3.108 -0.3234 -1.2761  0.6463
 3078TIP3    H230794   3.426   0.809   3.174 -1.6671  0.9986  0.2291
 3079TIP3   OH230795   0.977   1.345   1.671 -0.0639 -0.6015  0.1897
 3079TIP3    H130796   1.005   1.304   1.589 -0.4537 -2.1088  0.7764
 3079TIP3    H230797   1.019   1.292   1.739  0.2973  0.6604  0.9786
 3080TIP3   OH230798   3.662   6.890   8.333  0.2950 -0.6622 -0.4498
 3080TIP3    H130799   3.573   6.902   8.368  0.7228  0.4390  0.3423
 3080TIP3    H230800   3.667   6.797   8.312 -0.6673 -0.9834  0.5822
 3081TIP3   OH230801   4.770   1.607   0.832  0.2239  0.5382  0.5012
 3081TIP3    H130802   4.860   1.631   0.810  0.1929  0.0799 -0.1483
 3081TIP3    H230803   4.763   1.515   0.810 -0.7005  0.8147 -0.4280
 3082TIP3   OH230804   3.517   1.706   1.457 -0.1586  0.1742 -0.0608
 3082TIP3    H130805   3.427   1.687   1.481 -0.1399  0.2865  0.0967
 3082TIP3    H230806   3.553   1.753   1.532  0.2823 -0.6197  0.2334
 3083TIP3   OH230807   3.332   0.923   0.308 -0.0837 -0.6150 -0.1830
 3083TIP3    H130808   3.303   0.834   0.327  0.5837 -0.5288  1.3680
 3083TIP3    H230809   3.252   0.976   0.310 -0.9541 -1.5056 -3.9109
 3084TIP3   OH230810   3.574   5.061   7.915 -0.5538  0.4174  0.7876
 3084TIP3    H130811   3.499   5.118   7.898 -1.8458 -1.5572 -0.5661
 3084TIP3    H230812   3.635   5.081   7.844 -0.1093  1.4843  1.4527
 3085TIP3   OH230813   0.884   6.370   2.083  0.0767  0.1458 -0.4816
 3085TIP3    H130814   0.947   6.442   2.078  0.4449 -0.0752  0.7587
 3085TIP3    H230815   0.893   6.336   2.172 -1.4435 -0.2128 -0.4400
 3086TIP3   OH230816   6.345   2.278   1.400  0.1336  0.1381 -0.2099
 3086TIP3    H130817   6.380   2.363   1.373  0.1576  0.4839  0.8545
 3086TIP3    H230818   6.406   2.247   1.466  0.8294 -1.3183 -1.4629
 3087TIP3   OH230819   3.607   3.081   2.533 -0.3295 -0.4933 -0.4608
 3087TIP3    H130820   3.580   2.992   2.511  0.0289 -0.4275 -1.1836
 3087TIP3    H230821   3.692   3.071   2.577 -0.7097 -0.5680  0.2800
 3088TIP3   OH230822   3.469   2.938   0.756 -0.1202 -0.3797 -0.7041
 3088TIP3    H130823   3.495   3.023   0.792  2.8190 -1.3299 -0.2548
 3088TIP3    H230824   3.506   2.938   0.668 -1.8427 -0.4869 -1.4612
 3089TIP3   OH230825   5.307   3.949   0.619 -0.3981 -0.1048  0.4518
 3089TIP3    H130826   5.289   3.864   0.660  1.0784 -1.2270 -1.1189
 3089TIP3    H230827   5.235   3.962   0.558 -2.8412  1.7645  3.3753
 3090TIP3   OH230828   6.282   1.714   1.049  0.2684 -0.3588 -0.4417
 3090TIP3    H130829   6.327   1.786   1.005  0.4125  0.3392  0.7965
 3090TIP3    H230830   6.338   1.638   1.033  1.6123  0.3647  0.5180
 3091TIP3   OH230831   5.920   4.975   0.082 -0.1967 -0.3597 -0.6456
 3091TIP3    H130832   5.982   4.996   0.152 -2.0471  0.2559  0.9088
 3091TIP3    H230833   5.952   4.894   0.044  0.6487 -0.9318  1.2131
 3092TIP3   OH230834   0.888   4.988   1.742 -0.1106  0.2820 -0.1751
 3092TIP3    H130835   0.952   4.934   1.788 -0.1378  0.3951 -0.0019
 3092TIP3    H230836   0.814   4.995   1.802  0.4739  1.7068  0.4358
 3093TIP3   OH230837   5.025   2.613   7.501 -0.1440 -0.3992 -0.2307
 3093TIP3    H130838   5.079   2.685   7.532 -0.8958  1.0484 -2.0829
 3093TIP3    H230839   4.953   2.655   7.453  0.0380 -2.3638 -2.4421
 3094TIP3   OH230840   2.379   3.319   0.374  0.2095  0.1191  0.1617
 3094TIP3    H130841   2.442   3.271   0.319  1.8375  0.7964  1.3649
 3094TIP3    H230842   2.294   3.281   0.351  1.3124 -2.9117  0.5392
 3095TIP3   OH230843   1.484   5.700   7.732 -0.0247  0.1994 -0.2998
 3095TIP3    H130844   1.531   5.657   7.804 -1.0210 -0.4121  0.0090
 3095TIP3    H230845   1.542   5.771   7.704  1.4243 -1.0079 -0.4667
 3096TIP3   OH230846   0.237   4.329   1.639  0.0866  0.1584  0.3559
 3096TIP3    H130847   0.289   4.381   1.701  0.6022 -2.3868  2.2515
 3096TIP3    H230848   0.162   4.299   1.691  0.9715 -2.7606  0.1215
 3097TIP3   OH230849   4.725   0.929   2.443  0.3676 -0.0912  0.1811
 3097TIP3    H130850   4.727   1.009   2.496  0.4360 -0.0972  0.1881
 3097TIP3    H230851   4.699   0.860   2.503 -1.0185  0.1458 -0.1163
 3098TIP3   OH230852   5.389   3.121   0.896  0.6271  0.2039 -0.3493
 3098TIP3    H130853   5.442   3.112   0.817  0.4739 -0.0140 -0.4307
 3098TIP3    H230854   5.423   3.054   0.955 -1.3373 -1.8903 -1.4164
 3099TIP3   OH230855   2.229   3.075   0.257 -1.0484  0.0375  0.3610
 3099TIP3    H130856   2.135   3.072   0.244 -1.1388 -0.3632  1.0936
 3099TIP3    H230857   2.246   3.014   0.329  0.0506 -1.8288 -1.3546
 3100TIP3   OH230858   4.271   6.329   8.375  0.0244  0.2167 -1.0130
 3100TIP3    H130859   4.207   6.259   8.367 -0.0176  0.1610 -0.2678
 3100TIP3    H230860   4.353   6.285   8.397 -0.0354  0.4061 -0.3945
 3101TIP3   OH230861   1.402   3.273   2.370  0.0284  0.1186  0.0554
 3101TIP3    H130862   1.313   3.260   2.337  0.5443 -1.1109 -0.9446
 3101TIP3    H230863   1.454   3.207   2.324  0.9808 -1.1291  2.7027
 3102TIP3   OH230864   1.550   3.523   2.439  0.0781  0.4126 -0.5109
 3102TIP3    H130865   1.510   3.440   2.416  0.8105  0.1571 -0.8969
 3102TIP3    H230866   1.496   3.589   2.394  0.6308  0.0110 -1.8093
 3103TIP3   OH230867   5.950   5.345   0.026 -0.2972 -0.5580 -0.1662
 3103TIP3    H130868   6.028   5.296   0.050  0.6646 -0.0251 -1.9953
 3103TIP3    H230869   5.964   5.433   0.062  1.1095  0.2221 -2.4125
 3104TIP3   OH230870   6.183   5.099   3.274  0.3075  0.4323 -0.0826
 3104TIP3    H130871   6.120   5.079   3.343  1.1034 -1.0269  0.2759
 3104TIP3    H230872   6.172   5.027   3.211  1.5471  0.1887 -0.0420
 3105TIP3   OH230873   0.104   5.178   2.453 -0.1221 -0.0743  0.1205
 3105TIP3    H130874   0.121   5.180   2.548  1.0694  0.8716 -0.0816
 3105TIP3    H230875   0.009   5.185   2.446 -0.1362  1.4197  1.2414
 3106TIP3   OH230876   0.963   2.616   1.697 -0.0890 -0.1154  0.2896
 3106TIP3    H130877   1.033   2.667   1.656 -1.4689  1.3482 -0.3204
 3106TIP3    H230878   0.910   2.584   1.624 -2.1063  1.8436  0.7791
 3107TIP3   OH230879   5.701   3.888   1.787  0.0606  0.2595  0.0289
 3107TIP3    H130880   5.693   3.843   1.703 -0.3094 -0.2160  0.3150
 3107TIP3    H230881   5.702   3.818   1.852  1.3422  0.5598  0.3719
 3108TIP3   OH230882   2.680   1.822   7.111 -0.2308  0.0915  0.1023
 3108TIP3    H130883   2.631   1.895   7.148  1.4950  2.3223 -1.7100
 3108TIP3    H230884   2.627   1.793   7.036  0.7156  1.9879 -1.3860
 3109TIP3   OH230885   4.942   3.919   7.847  0.4724 -0.0050 -0.4065
 3109TIP3    H130886   4.893   3.951   7.772  0.8326 -0.1668 -0.7137
 3109TIP3    H230887   5.030   3.905   7.814  0.3890 -1.0575 -0.2211
 3110TIP3   OH230888   6.554   5.067   0.367  0.3103 -0.7133  0.4474
 3110TIP3    H130889   6.561   5.136   0.302  1.4234  0.9047  2.2002
 3110TIP3    H230890   6.639   5.066   0.411 -0.1091 -2.3566  1.3138
 3111TIP3   OH230891   3.677   6.514   0.490  0.1127  0.1436 -0.4778
 3111TIP3    H130892   3.667   6.539   0.581 -0.3448  0.7407 -0.6852
 3111TIP3    H230893   3.591   6.481   0.463  0.1357  0.3372 -0.7988
 3112TIP3   OH230894   1.203   1.394   2.393 -0.4778  0.2610  0.3012
 3112TIP3    H130895   1.286   1.438   2.413 -1.2201  1.8129  0.1763
 3112TIP3    H230896   1.213   1.305   2.426  1.1116  0.5220  0.5772
 3113TIP3   OH230897   4.279   6.307   8.065  0.2867 -0.7642 -0.5153
 3113TIP3    H130898   4.283   6.383   8.006  2.7369 -1.1520 -0.9666
 3113TIP3    H230899   4.353   6.320   8.124  0.3388 -2.4604 -0.1807
 3114TIP3   OH230900   6.941   1.839   3.095  0.4946 -0.6986  0.0641
 3114TIP3    H130901   6.954   1.859   3.002 -0.5887  0.2915  0.1000
 3114TIP3    H230902   6.856   1.878   3.116 -0.7435 -3.4759  0.7301
 3115TIP3   OH230903   1.967   0.269   7.725  0.0693 -0.1062  0.1727
 3115TIP3    H130904   1.918   0.227   7.654 -0.1708  0.8889 -0.2786
 3115TIP3    H230905   1.900   0.317   7.774  0.3628 -0.0601  0.5271
 3116TIP3   OH230906   5.256   0.972   1.512 -0.0150 -0.0374 -0.2683
 3116TIP3    H130907   5.215   1.009   1.590  0.4319  0.1899 -0.1411
 3116TIP3    H230908   5.187   0.919   1.472 -0.8686  1.4256 -0.8040
 3117TIP3   OH230909   3.126   1.105   0.283 -0.2840  0.7630 -0.1125
 3117TIP3    H130910   3.032   1.087   0.283  0.0264 -1.1274 -0.8031
 3117TIP3    H230911   3.136   1.184   0.231 -1.2287 -1.1724 -3.5190
 3118TIP3   OH230912   1.793   3.132   2.808 -0.6567  0.2404 -0.3287
 3118TIP3    H130913   1.745   3.132   2.724  0.7982  0.4116 -1.1945
 3118TIP3    H230914   1.857   3.202   2.799  0.1944 -0.4014  0.5307
 3119TIP3   OH230915   1.821   2.225   8.041 -0.5088  0.3189 -0.1839
 3119TIP3    H130916   1.754   2.204   7.976 -0.4191  0.3552 -0.2900
 3119TIP3    H230917   1.794   2.180   8.120 -2.1246  2.5253  0.6012
 3120TIP3   OH230918   4.433   6.507   2.367  0.0894  0.2219  0.1693
 3120TIP3    H130919   4.422   6.534   2.458 -0.1407  2.1291 -0.3738
 3120TIP3    H230920   4.521   6.535   2.344 -0.0399  0.2146 -0.3445
 3121TIP3   OH230921   0.497   4.935   3.760  0.1714  0.1267  0.5709
 3121TIP3    H130922   0.488   4.854   3.711  1.6021 -0.7735  1.7352
 3121TIP3    H230923   0.458   5.002   3.703  0.5602 -1.0766 -1.1748
 3122TIP3   OH230924   6.034   0.190   0.070 -0.2816  0.4367 -0.3316
 3122TIP3    H130925   5.997   0.223   0.152 -0.9613 -0.3772 -0.2988
 3122TIP3    H230926   6.114   0.144   0.096 -1.3314 -1.2275  0.1090
 3123TIP3   OH230927   5.750   6.687   0.375  0.0175 -0.4812  0.3490
 3123TIP3    H130928   5.709   6.638   0.447  0.4166 -1.5382 -0.1159
 3123TIP3    H230929   5.758   6.622   0.305 -2.7398  1.1190 -1.6459
 3124TIP3   OH230930   6.234   6.696   2.234 -0.1955  0.3800 -0.2218
 3124TIP3    H130931   6.218   6.672   2.325 -1.9273  2.7606  0.1998
 3124TIP3    H230932   6.270   6.785   2.239  0.8076  0.0890 -1.8280
 3125TIP3   OH230933   1.568   4.195   2.232  0.5331  0.0245  0.2682
 3125TIP3    H130934   1.578   4.207   2.326 -0.4629 -0.6451  0.4765
 3125TIP3    H230935   1.650   4.228   2.195  0.5895  1.1151  1.2889
 3126TIP3   OH230936   0.494   0.697   8.363  0.4912  0.1085  0.1204
 3126TIP3    H130937   0.575   0.738   8.332 -0.2831  1.0076 -0.7748
 3126TIP3    H230938   0.487   0.726   8.454  0.4460  1.2437 -0.2233
 3127TIP3   OH230939   5.243   0.673   7.349 -0.0664  0.1495  0.7327
 3127TIP3    H130940   5.247   0.621   7.429 -0.7260  0.4307  0.9555
 3127TIP3    H230941   5.183   0.745   7.370  0.8844  1.0467  0.4574
 3128TIP3   OH230942   4.223   4.673   7.708  0.3354  0.7286  0.4498
 3128TIP3    H130943   4.290   4.684   7.640 -0.7207  0.5816 -0.6476
 3128TIP3    H230944   4.268   4.626   7.778  0.9964 -0.8126 -0.9416
 3129TIP3   OH230945   1.084   5.319   1.797  0.1877  0.1757  0.2414
 3129TIP3    H130946   1.021   5.279   1.736 -0.6124  1.3670  0.2680
 3129TIP3    H230947   1.163   5.330   1.745 -0.3385  0.7393 -0.4713
 3130TIP3   OH230948   6.948   6.001   2.297 -0.0955 -0.0713  0.0523
 3130TIP3    H130949   6.901   5.935   2.347  0.1922 -0.7635 -0.5765
 3130TIP3    H230950   7.002   6.047   2.362 -0.4399 -0.3167  0.5191
 3131TIP3   OH230951   6.023   6.276   1.243 -0.1363 -0.0433 -0.1402
 3131TIP3    H130952   6.023   6.372   1.233 -1.0239 -0.0748 -0.4601
 3131TIP3    H230953   6.019   6.243   1.153 -1.7115 -0.3653  0.0364
 3132TIP3   OH230954   2.299   2.995   8.423 -0.0030  0.5102  0.3468
 3132TIP3    H130955   2.302   2.988   8.519  4.6077 -0.9904  0.3583
 3132TIP3    H230956   2.263   2.911   8.395 -0.7113  0.6728  0.7472
 3133TIP3   OH230957   4.629   2.455   0.059  0.2443  0.3027 -0.3167
 3133TIP3    H130958   4.612   2.549   0.060 -2.7538 -0.0750 -1.5869
 3133TIP3    H230959   4.715   2.446   0.019  1.1912  2.5034  1.0527
 3134TIP3   OH230960   2.262   5.913   0.751  0.3729  0.6923  0.5271
 3134TIP3    H130961   2.229   5.958   0.829 -0.9053  2.2567 -0.8302
 3134TIP3    H230962   2.309   5.981   0.702 -0.6818  0.3480 -1.0664
 3135TIP3   OH230963   3.425   6.026   2.492 -0.1723  0.9522  0.5858
 3135TIP3    H130964   3.432   6.024   2.396  0.8330  0.7556  0.6504
 3135TIP3    H230965   3.451   6.115   2.515  0.6131  0.6910  0.7355
 3136TIP3   OH230966   6.243   5.410   3.376  0.3697  0.2652  0.4171
 3136TIP3    H130967   6.272   5.372   3.293 -3.4951  1.4463 -1.7576
 3136TIP3    H230968   6.278   5.499   3.376  0.9196  0.0533  0.3952
 3137TIP3   OH230969   0.357   1.739   0.255  0.1541  0.1831  0.0933
 3137TIP3    H130970   0.366   1.651   0.221 -2.1470 -1.5284  3.3346
 3137TIP3    H230971   0.420   1.744   0.327 -2.4763 -0.5394  2.6465
 3138TIP3   OH230972   5.751   2.811   2.245  0.2813  0.0709 -0.8432
 3138TIP3    H130973   5.840   2.837   2.267  0.3906 -0.1792 -0.9882
 3138TIP3    H230974   5.747   2.815   2.150  0.9807 -2.5332 -1.0702
 3139TIP3   OH230975   6.343   6.271   2.475  0.2341  0.0492 -0.4462
 3139TIP3    H130976   6.367   6.311   2.391 -0.6585  0.4733 -0.5079
 3139TIP3    H230977   6.369   6.335   2.541 -0.2080  0.2640 -0.4788
 3140TIP3   OH230978   3.160   5.578   0.668  0.2506 -0.5245 -0.1394
 3140TIP3    H130979   3.075   5.607   0.637  0.0604 -0.8028  0.1186
 3140TIP3    H230980   3.141   5.524   0.745  0.7427  0.5333  0.7536
 3141TIP3   OH230981   6.784   4.573   2.255 -0.2879 -0.3877  0.1396
 3141TIP3    H130982   6.758   4.665   2.259 -1.3384 -0.7185  1.3382
 3141TIP3    H230983   6.705   4.528   2.224  0.4682 -0.8119 -1.2487
 3142TIP3   OH230984   6.619   5.921   1.259  0.1188  0.3530 -0.3453
 3142TIP3    H130985   6.687   5.870   1.302 -1.3960 -1.4528  0.0084
 3142TIP3    H230986   6.563   5.951   1.331 -0.4625  0.2913 -0.7646
 3143TIP3   OH230987   6.957   3.167   1.649  0.2158  0.1735  0.2271
 3143TIP3    H130988   7.031   3.151   1.592 -0.1702  0.2453 -0.3026
 3143TIP3    H230989   6.970   3.256   1.682  0.1094  0.3648 -0.2496
 3144TIP3   OH230990   2.332   5.857   2.178  0.1708 -0.2735  0.2255
 3144TIP3    H130991   2.342   5.898   2.092 -1.9304  1.1272  0.5603
 3144TIP3    H230992   2.359   5.925   2.240  0.0062 -0.6485  0.7107
 3145TIP3   OH230993   5.460   5.632   7.879 -0.2940 -0.2006  0.3975
 3145TIP3    H130994   5.537   5.650   7.825  0.0084 -1.6671  0.2886
 3145TIP3    H230995   5.493   5.625   7.968 -0.3323 -0.5424  0.3889
 3146TIP3   OH230996   6.726   0.043   1.826 -0.3937  0.0275  0.1693
 3146TIP3    H130997   6.757   0.109   1.765 -0.7402 -1.3432 -1.5836
 3146TIP3    H230998   6.664  -0.010   1.775  0.3320 -2.0214  1.2688
 3147TIP3   OH230999   5.376   2.586   8.035  0.1268 -0.5981  0.0430
 3147TIP3    H131000   5.351   2.603   8.126 -1.5160 -0.6645 -0.3726
 3147TIP3    H231001   5.414   2.498   8.037  0.2218 -0.5466  0.6889
 3148TIP3   OH231002   1.708   2.459   7.818 -0.0424  0.1981 -0.2645
 3148TIP3    H131003   1.744   2.532   7.767 -1.2253  0.5273 -0.6528
 3148TIP3    H231004   1.737   2.475   7.907 -0.9243  1.5894 -0.1950
 3149TIP3   OH231005   4.357   3.193   0.598 -0.0609  0.6737 -0.0771
 3149TIP3    H131006   4.340   3.228   0.510  0.4555 -0.8261 -0.8109
 3149TIP3    H231007   4.449   3.166   0.595 -0.9112 -2.5944 -0.2982
 3150TIP3   OH231008   1.807   3.278   8.122  0.0151  0.3537  0.1123
 3150TIP3    H131009   1.751   3.215   8.169 -1.3418  0.4288 -1.3119
 3150TIP3    H231010   1.829   3.343   8.188 -1.1214  0.0038  0.8758
 3151TIP3   OH231011   0.811   6.340   0.730 -0.1000  0.0870 -0.0809
 3151TIP3    H131012   0.827   6.290   0.810 -0.7613  0.6951  0.4532
 3151TIP3    H231013   0.733   6.300   0.692  0.5714 -0.5956 -0.7621
 3152TIP3   OH231014   2.168   3.866   1.887 -0.1285  0.1983  0.0431
 3152TIP3    H131015   2.219   3.947   1.880 -0.2701  0.3441  0.6987
 3152TIP3    H231016   2.211   3.806   1.826  0.5870  0.4462  0.2954
 3153TIP3   OH231017   2.175   3.244   2.054 -0.2736 -0.1237 -0.6454
 3153TIP3    H131018   2.229   3.300   1.999 -2.1352  0.3238 -2.1167
 3153TIP3    H231019   2.100   3.299   2.078  0.1314 -0.5375  1.8045
 3154TIP3   OH231020   5.128   5.951   1.738 -0.1249 -0.1612  0.5476
 3154TIP3    H131021   5.173   5.990   1.812  0.0939 -0.7185  0.7118
 3154TIP3    H231022   5.108   6.025   1.680 -1.4049  0.4684  1.7298
 3155TIP3   OH231023   6.261   1.080   7.284  0.0806  0.0454 -0.3469
 3155TIP3    H131024   6.254   1.169   7.318 -3.0196 -0.1183 -0.2297
 3155TIP3    H231025   6.320   1.035   7.344 -0.2598  1.3885  1.0501
 3156TIP3   OH231026   3.345   1.316   0.528 -0.2444  0.2643 -0.2036
 3156TIP3    H131027   3.332   1.350   0.440  0.2642  1.1615  0.0579
 3156TIP3    H231028   3.298   1.232   0.529  0.8432 -0.3984 -1.7346
 3157TIP3   OH231029   4.374   6.827   7.941  0.5506 -0.0676 -0.5226
 3157TIP3    H131030   4.385   6.922   7.941  1.9236 -0.2133 -0.0072
 3157TIP3    H231031   4.376   6.802   7.849 -0.3363  0.4360 -0.6945
 3158TIP3   OH231032   3.852   2.924   0.456  0.8793 -0.4203 -0.2691
 3158TIP3    H131033   3.827   2.963   0.539  0.2681 -1.0215 -0.1632
 3158TIP3    H231034   3.944   2.948   0.445  0.7842  0.2116  0.2589
 3159TIP3   OH231035   5.631   4.183   7.216 -0.4163  1.0462 -1.4043
 3159TIP3    H131036   5.681   4.196   7.135  0.6005 -0.7894 -1.1374
 3159TIP3    H231037   5.569   4.113   7.194  0.6580 -0.2943 -0.3266
 3160TIP3   OH231038   5.103   2.798   0.539  0.0506  0.5714 -0.0478
 3160TIP3    H131039   5.140   2.755   0.462  1.0493  1.9528 -0.3851
 3160TIP3    H231040   5.042   2.862   0.503 -2.1646 -1.1455  0.4829
 3161TIP3   OH231041   2.484   4.280   7.670 -0.0530  0.3126  0.1391
 3161TIP3    H131042   2.460   4.318   7.585 -0.2398  1.6409  0.7580
 3161TIP3    H231043   2.489   4.186   7.654  3.2545  0.7229 -2.1580
 3162TIP3   OH231044   1.742   2.819   0.510  0.1359  0.0721 -0.8404
 3162TIP3    H131045   1.663   2.819   0.457  0.2160  0.0495 -0.9615
 3162TIP3    H231046   1.762   2.726   0.523  0.9908  0.0464 -2.0951
 3163TIP3   OH231047   5.769   4.583   8.046 -0.5393  0.2417 -0.1371
 3163TIP3    H131048   5.682   4.618   8.028 -1.1279 -1.9330 -2.0307
 3163TIP3    H231049   5.767   4.560   8.139 -2.4840 -0.9636 -0.4217
 3164TIP3   OH231050   1.777   1.491   2.733 -0.8996  0.2548 -0.6725
 3164TIP3    H131051   1.811   1.483   2.644 -1.3066  0.5028 -0.8523
 3164TIP3    H231052   1.770   1.586   2.748  1.5171  0.3052  0.5299
 3165TIP3   OH231053   0.140   3.303   0.160  0.0003  0.4741  0.4759
 3165TIP3    H131054   0.226   3.331   0.126 -0.1752  0.3637 -0.0716
 3165TIP3    H231055   0.083   3.303   0.083 -0.7440  1.4970  1.0113
 3166TIP3   OH231056   4.694   6.501   0.291  0.0798 -0.3428 -0.4153
 3166TIP3    H131057   4.749   6.443   0.239 -0.7452 -2.3904  0.8654
 3166TIP3    H231058   4.613   6.453   0.303 -0.7079  1.1603  0.6002
 3167TIP3   OH231059   5.653   4.856   8.227 -0.2861  0.0831 -0.2924
 3167TIP3    H131060   5.681   4.905   8.150  1.5485  2.4300  1.7121
 3167TIP3    H231061   5.615   4.921   8.286  1.3077 -0.9600  2.0933
 3168TIP3   OH231062   1.413   2.368   8.095 -0.1647 -0.8583 -0.0114
 3168TIP3    H131063   1.383   2.409   8.014  1.0637 -1.4417 -0.7994
 3168TIP3    H231064   1.398   2.434   8.162 -2.9698 -1.0439 -0.3395
 3169TIP3   OH231065   2.776   3.656   0.083  0.0819  0.0446  0.1005
 3169TIP3    H131066   2.856   3.701   0.108 -0.9260  1.6313  0.6391
 3169TIP3    H231067   2.790   3.565   0.109  1.9157  0.1444 -0.3960
 3170TIP3   OH231068   2.006   6.594   8.179  0.0881 -0.1647 -0.0340
 3170TIP3    H131069   2.040   6.647   8.251  1.3419  1.8756 -2.0051
 3170TIP3    H231070   1.930   6.548   8.216  0.6488  0.8310  2.5220
 3171TIP3   OH231071   2.503   4.257   1.680  0.3437 -0.2827  0.6938
 3171TIP3    H131072   2.558   4.325   1.720  0.8218  0.2611 -0.7993
 3171TIP3    H231073   2.430   4.305   1.642  0.3668 -0.6749  0.1486
 3172TIP3   OH231074   4.572   6.383   2.046 -0.4620  0.4264 -0.0550
 3172TIP3    H131075   4.549   6.475   2.031  1.4345  1.1629  1.0954
 3172TIP3    H231076   4.512   6.333   1.991 -0.9277  2.3929 -1.4202
 3173TIP3   OH231077   3.406   3.849   2.233 -0.0104 -0.2242  0.7733
 3173TIP3    H131078   3.337   3.846   2.299 -1.0979  0.6874 -0.2774
 3173TIP3    H231079   3.367   3.810   2.155 -0.0880  2.1120 -0.4439
 3174TIP3   OH231080   2.932   4.621   0.261 -0.0735 -0.2698  0.0050
 3174TIP3    H131081   2.925   4.526   0.261  1.2661 -0.3868 -0.4676
 3174TIP3    H231082   3.021   4.639   0.230  0.0184  1.1079  0.9682
 3175TIP3   OH231083   1.055   3.521   8.379 -0.2113  0.0177 -0.0826
 3175TIP3    H131084   1.079   3.432   8.355 -1.8149 -0.5892  0.4282
 3175TIP3    H231085   1.019   3.513   8.468 -0.6427  1.1178 -0.1429
 3176TIP3   OH231086   3.092   4.825   6.950  0.6347 -0.1419  0.1578
 3176TIP3    H131087   3.155   4.872   6.895  0.4883 -1.0443 -0.7959
 3176TIP3    H231088   3.025   4.794   6.889  0.2327 -0.7787  0.9060
 3177TIP3   OH231089   2.182   2.530   2.432 -0.3360 -0.1677 -0.0947
 3177TIP3    H131090   2.093   2.537   2.467 -0.1371  0.4575  0.2971
 3177TIP3    H231091   2.226   2.468   2.490 -0.0795  0.6790  0.6284
 3178TIP3   OH231092   0.867   1.135   2.189  0.1727 -0.4576 -0.2070
 3178TIP3    H131093   0.774   1.120   2.209 -0.0515  0.3782 -0.5392
 3178TIP3    H231094   0.872   1.126   2.094  0.3327 -0.0572 -0.2397
 3179TIP3   OH231095   4.455   2.307   0.569 -0.5379  0.0191  0.1232
 3179TIP3    H131096   4.524   2.255   0.611 -2.8177 -3.7534 -0.3351
 3179TIP3    H231097   4.490   2.330   0.483  0.7419 -0.2925  0.5419
 3180TIP3   OH231098   1.132   6.766   1.759  0.2014 -0.2255 -0.1116
 3180TIP3    H131099   1.151   6.834   1.694 -1.3370  0.6798  0.3408
 3180TIP3    H231100   1.197   6.780   1.828 -0.0164  0.7283 -0.0814
 3181TIP3   OH231101   6.016   3.865   8.082  0.5909 -0.4966  0.5281
 3181TIP3    H131102   5.977   3.779   8.101 -0.1112 -0.0853  1.0156
 3181TIP3    H231103   5.946   3.928   8.102  1.2190  0.2139  0.5497
 3182TIP3   OH231104   5.992   4.777   8.086  0.1340 -0.0971 -0.4852
 3182TIP3    H131105   5.934   4.704   8.064  0.9187 -0.8176 -0.2534
 3182TIP3    H231106   6.033   4.750   8.169 -1.6031  1.8351  1.1274
 3183TIP3   OH231107   5.551   4.487   0.865 -0.5089  0.0298  0.2203
 3183TIP3    H131108   5.524   4.571   0.902  0.6232  0.3223  0.4318
 3183TIP3    H231109   5.470   4.446   0.835 -1.0354  1.3665 -0.2487
 3184TIP3   OH231110   5.092   6.515   0.010 -0.2625 -0.1815 -0.3840
 3184TIP3    H131111   5.030   6.456  -0.033  0.2833 -0.7428 -0.4130
 3184TIP3    H231112   5.138   6.559  -0.062 -1.9864  1.7538 -0.4049
 3185TIP3   OH231113   5.162   3.961   1.387 -0.1606  0.2920  0.3850
 3185TIP3    H131114   5.161   3.870   1.356  0.8422 -0.0694  1.3531
 3185TIP3    H231115   5.100   3.962   1.460 -1.9848  0.9791 -1.0944
 3186TIP3   OH231116   6.291   3.359   2.480  0.4355  0.2660  0.1733
 3186TIP3    H131117   6.321   3.412   2.554 -0.3876  1.0117 -0.0089
 3186TIP3    H231118   6.342   3.391   2.406  2.1738 -1.3364  0.6070
 3187TIP3   OH231119   0.116   3.677   7.633 -0.4344  0.2235  0.7222
 3187TIP3    H131120   0.031   3.707   7.666 -0.5591  1.2529 -0.4440
 3187TIP3    H231121   0.166   3.655   7.711 -1.4634  0.4850  1.4712
 3188TIP3   OH231122   3.741   6.108   0.311  0.2133 -0.0127  0.1969
 3188TIP3    H131123   3.653   6.145   0.304  0.7710  1.1431 -1.3133
 3188TIP3    H231124   3.796   6.182   0.337  0.9180 -0.4435 -0.0331
 3189TIP3   OH231125   5.695   0.298   1.074 -0.2062 -0.1953  0.2822
 3189TIP3    H131126   5.646   0.216   1.078  1.2139 -1.1191 -0.3936
 3189TIP3    H231127   5.786   0.273   1.087  0.3441  1.1731 -0.6364
 3190TIP3   OH231128   3.319   6.376   1.760 -0.8815 -0.4867 -0.3998
 3190TIP3    H131129   3.308   6.281   1.760  2.7649 -1.0670 -1.4392
 3190TIP3    H231130   3.262   6.406   1.689 -2.8711 -1.6892  0.5949
 3191TIP3   OH231131   5.387   2.945   2.344  0.3217  0.5264 -0.2244
 3191TIP3    H131132   5.419   2.997   2.418  0.0853 -0.3076  0.4720
 3191TIP3    H231133   5.433   2.982   2.268  1.0603  0.9676  0.4183
 3192TIP3   OH231134   1.337   3.324   0.350  0.6070  0.8349  0.1789
 3192TIP3    H131135   1.258   3.300   0.301  0.2260  0.4808  0.9587
 3192TIP3    H231136   1.305   3.353   0.435  1.2233  2.0157  0.0351
 3193TIP3   OH231137   5.071   5.489   8.339 -0.0208 -0.0279 -1.0926
 3193TIP3    H131138   5.150   5.498   8.286  0.3472 -2.3080 -1.0467
 3193TIP3    H231139   5.091   5.535   8.420  2.1282 -2.1483 -0.2867
 3194TIP3   OH231140   4.192   1.315   6.904  0.1662  0.2084  0.7862
 3194TIP3    H131141   4.125   1.256   6.938 -2.0529  1.3018 -1.3795
 3194TIP3    H231142   4.263   1.257   6.875 -1.3930 -1.3105 -0.1474
 3195TIP3   OH231143   3.944   1.401   8.146  0.5287 -0.9228  0.6658
 3195TIP3    H131144   4.023   1.385   8.094  0.6330  0.1554  0.4736
 3195TIP3    H231145   3.912   1.486   8.116 -0.9638 -1.5288  0.4418
 3196TIP3   OH231146   4.395   0.845   0.030 -0.3494 -0.7628  0.0380
 3196TIP3    H131147   4.313   0.813  -0.007 -0.0614 -1.2156 -0.2205
 3196TIP3    H231148   4.411   0.790   0.107 -0.1643 -0.8430 -0.0557
 3197TIP3   OH231149   6.416   5.537   0.657 -0.0936  0.1109 -0.0125
 3197TIP3    H131150   6.383   5.476   0.723 -0.7896  2.0424  1.5156
 3197TIP3    H231151   6.350   5.606   0.653  1.8044  2.0454  0.1752
 3198TIP3   OH231152   4.256   4.983   7.435  0.3297 -0.0788 -0.2690
 3198TIP3    H131153   4.222   4.913   7.380  1.1716 -0.5382 -0.2091
 3198TIP3    H231154   4.291   4.939   7.512 -0.1754  0.5044  0.3128
 3199TIP3   OH231155   5.948   4.269   2.461 -0.5933 -0.2205 -0.7883
 3199TIP3    H131156   5.921   4.232   2.545  0.7453  1.7133  0.5971
 3199TIP3    H231157   6.038   4.237   2.449 -0.1645  0.8661 -0.5892
 3200TIP3   OH231158   3.640   3.762   2.633  0.0754  0.0824  0.0317
 3200TIP3    H131159   3.589   3.682   2.621  0.3537 -0.0463 -0.3387
 3200TIP3    H231160   3.678   3.753   2.721  1.9338 -1.2910 -0.8274
 3201TIP3   OH231161   3.711   0.507   0.784  0.5337  0.2239  0.1744
 3201TIP3    H131162   3.794   0.517   0.831  0.4244  0.6820  0.2739
 3201TIP3    H231163   3.645   0.545   0.842  0.2951  0.1326 -0.0338
 3202TIP3   OH231164   4.686   3.373   7.868 -0.6347 -0.1233  0.6013
 3202TIP3    H131165   4.635   3.346   7.944  0.6123 -1.5685  0.9741
 3202TIP3    H231166   4.728   3.455   7.896 -3.4789  1.7386 -0.1004
 3203TIP3   OH231167   5.326   3.527   1.177 -0.0443  0.5259 -0.1581
 3203TIP3    H131168   5.237   3.550   1.151 -0.0315  0.9194  0.1365
 3203TIP3    H231169   5.319   3.437   1.209 -0.4477  0.7518  0.3992
 3204TIP3   OH231170   2.882   1.246   2.999 -0.1785 -0.4837 -0.4846
 3204TIP3    H131171   2.963   1.195   3.001  0.0732 -0.0804 -0.0920
 3204TIP3    H231172   2.892   1.309   3.071 -0.6674 -0.1697 -0.6882
 3205TIP3   OH231173   5.470   2.149   0.280 -0.1263 -0.0509 -0.0462
 3205TIP3    H131174   5.451   2.179   0.368  0.1548  1.5755 -0.5064
 3205TIP3    H231175   5.416   2.071   0.269 -0.3347 -0.1483  1.4649
 3206TIP3   OH231176   1.157   1.838   1.000  0.0114 -0.2214  0.0034
 3206TIP3    H131177   1.189   1.849   1.090  1.3163  1.3096 -0.5988
 3206TIP3    H231178   1.130   1.747   0.996  0.4210 -0.4681  1.8073
 3207TIP3   OH231179   5.365   4.588   7.838  0.0183 -0.7245 -0.6226
 3207TIP3    H131180   5.450   4.564   7.801  0.4150  0.2859 -0.3852
 3207TIP3    H231181   5.369   4.556   7.928  0.9369  1.0379  0.0046
 3208TIP3   OH231182   6.898   5.569   2.965 -0.5976  0.6667  0.0696
 3208TIP3    H131183   6.811   5.593   2.934 -0.0557  0.9257 -1.3352
 3208TIP3    H231184   6.909   5.478   2.936  0.8103  1.6258 -2.6867
 3209TIP3   OH231185   1.195   3.383   7.941  0.0432 -0.2973 -0.2967
 3209TIP3    H131186   1.246   3.460   7.917 -1.1032  0.9452  1.0478
 3209TIP3    H231187   1.253   3.309   7.923  0.9416  0.7989 -2.2650
 3210TIP3   OH231188   2.024   2.858   0.001  0.1219  0.4714 -0.0126
 3210TIP3    H131189   2.066   2.849   0.087  0.3916  0.9528 -0.0874
 3210TIP3    H231190   1.993   2.949  -0.001 -1.6601 -0.0892  0.3575
 3211TIP3   OH231191   6.211   5.761   8.205 -0.1899 -0.1617 -0.3668
 3211TIP3    H131192   6.280   5.814   8.166 -0.4077  0.1683 -0.3028
 3211TIP3    H231193   6.248   5.673   8.209 -0.5637 -0.4499 -2.3644
 3212TIP3   OH231194   5.951   1.748   0.544  0.7185 -0.8316 -0.8871
 3212TIP3    H131195   5.952   1.737   0.639  0.1175 -2.6142 -1.0575
 3212TIP3    H231196   6.043   1.756   0.520  0.8070  1.2372 -0.0211
 3213TIP3   OH231197   2.766   0.143   0.265  0.1866  0.1334 -1.0486
 3213TIP3    H131198   2.854   0.140   0.304 -0.5987  2.7011  1.1858
 3213TIP3    H231199   2.769   0.218   0.206 -0.2778 -0.3614 -1.7237
 3214TIP3   OH231200   3.135   4.973   2.236 -0.5095 -0.1182  0.2212
 3214TIP3    H131201   3.129   4.907   2.305 -1.7970 -0.4081 -0.1424
 3214TIP3    H231202   3.181   4.929   2.165  0.2837 -0.0110  0.6534
 3215TIP3   OH231203   2.056   6.450   1.291 -0.0795  0.2167  0.6762
 3215TIP3    H131204   2.150   6.442   1.279  0.0613  0.7801  1.3312
 3215TIP3    H231205   2.045   6.527   1.348 -1.0085  1.1578 -0.6917
 3216TIP3   OH231206   4.318   4.800   0.984  0.1436  0.2096 -0.4459
 3216TIP3    H131207   4.401   4.817   0.940 -0.2439  2.9774 -0.2841
 3216TIP3    H231208   4.291   4.885   1.019 -1.5475 -1.0940  1.6708
 3217TIP3   OH231209   6.586   2.014   1.946  0.2118  0.1759 -0.0240
 3217TIP3    H131210   6.497   2.023   1.980 -0.2508  0.4303 -1.2487
 3217TIP3    H231211   6.604   1.921   1.950  0.4394  0.2509  1.5179
 3218TIP3   OH231212   1.297   0.002   7.807  0.4387 -0.6940 -0.4501
 3218TIP3    H131213   1.357   0.057   7.756  0.6583 -0.6802 -0.1795
 3218TIP3    H231214   1.243  -0.042   7.741  0.6553 -0.6038 -0.6909
 3219TIP3   OH231215   5.908   5.214   7.039  0.2066  0.0722  0.1555
 3219TIP3    H131216   6.002   5.214   7.053  0.3372  0.0400 -0.6489
 3219TIP3    H231217   5.884   5.121   7.035 -0.0158  0.0690  1.2671
 3220TIP3   OH231218   3.249   6.909   6.845  0.2283  0.2043  0.0367
 3220TIP3    H131219   3.277   7.000   6.840 -0.1288  0.4487  1.6519
 3220TIP3    H231220   3.160   6.909   6.809  0.3003  0.4654 -0.1367
 3221TIP3   OH231221   1.098   0.033   1.613  0.0975  0.3467 -0.2514
 3221TIP3    H131222   1.031   0.094   1.645  1.7824  2.0359  0.2909
 3221TIP3    H231223   1.096   0.043   1.518 -2.1615 -1.6344 -0.4922
 3222TIP3   OH231224   2.812   0.296   1.797  0.7012 -0.7311 -0.0087
 3222TIP3    H131225   2.814   0.218   1.852  2.4535 -0.4413  0.3890
 3222TIP3    H231226   2.903   0.324   1.790  0.4927 -0.4429 -2.6618
 3223TIP3   OH231227   2.058   6.230   1.104  0.2495  0.2986  0.1759
 3223TIP3    H131228   2.050   6.302   1.167 -0.7970  0.7302 -0.4186
 3223TIP3    H231229   1.972   6.225   1.063  0.6793 -0.4883 -0.6660
 3224TIP3   OH231230   1.053   4.818   1.862  0.3093  0.2586  0.3702
 3224TIP3    H131231   1.023   4.739   1.907  0.3429  0.7848  1.3559
 3224TIP3    H231232   1.130   4.846   1.912  0.2301  0.9697  0.1113
 3225TIP3   OH231233   3.964   1.684   1.609 -0.2272  0.5692 -1.1156
 3225TIP3    H131234   3.960   1.591   1.633 -0.4227  0.8025 -0.2181
 3225TIP3    H231235   3.936   1.686   1.518 -0.4643 -0.2268 -1.0677
 3226TIP3   OH231236   5.236   3.297   0.102  0.1522 -0.0024 -0.0387
 3226TIP3    H131237   5.277   3.367   0.051 -0.4656  0.1654 -0.3130
 3226TIP3    H231238   5.308   3.237   0.122  0.6751  0.6486  0.1065
 3227TIP3   OH231239   3.096   2.407   8.112  0.2897 -0.3108 -0.1984
 3227TIP3    H131240   3.048   2.468   8.169  0.8487  1.3540 -1.4485
 3227TIP3    H231241   3.030   2.344   8.083 -0.4549  0.1073  0.5544
 3228TIP3   OH231242   0.873   6.391   8.384 -0.4092  0.6190  0.1766
 3228TIP3    H131243   0.862   6.442   8.465  1.4808  1.6363 -0.1431
 3228TIP3    H231244   0.932   6.445   8.330  0.8057 -1.4084 -0.6349
 3229TIP3   OH231245   0.808   6.948   2.078 -0.0871 -0.4686  0.2024
 3229TIP3    H131246   0.874   6.995   2.128 -1.7511  0.5218  1.5660
 3229TIP3    H231247   0.818   6.982   1.988  1.2184 -0.3291  0.3832
 3230TIP3   OH231248   6.931   0.289   0.829 -0.7250  0.0377 -0.0427
 3230TIP3    H131249   6.991   0.253   0.763 -0.9818  1.9535 -1.4047
 3230TIP3    H231250   6.854   0.233   0.825 -0.6925  0.0612 -1.3175
 3231TIP3   OH231251   0.993   0.527   7.456 -0.2909 -0.3816 -0.0796
 3231TIP3    H131252   0.961   0.444   7.421 -1.5862  0.0485  0.0413
 3231TIP3    H231253   0.936   0.594   7.419  1.1665  0.5599 -0.7356
 3232TIP3   OH231254   2.081   4.578   1.609 -0.1838 -0.3401  0.6288
 3232TIP3    H131255   2.066   4.575   1.704 -0.2015 -1.0223  0.6097
 3232TIP3    H231256   2.003   4.539   1.571 -0.7269  1.0422  0.2566
 3233TIP3   OH231257   6.945   6.563   0.722 -0.1919 -0.0744  0.3947
 3233TIP3    H131258   6.856   6.560   0.687 -0.0390 -2.8903 -0.0240
 3233TIP3    H231259   6.934   6.592   0.813 -1.4994  0.0531  0.2141
 3234TIP3   OH231260   6.073   3.956   3.254  0.0646  0.1919  0.0025
 3234TIP3    H131261   6.151   3.936   3.202  0.0134  0.1010 -0.0393
 3234TIP3    H231262   6.105   4.010   3.326 -0.0799  1.6170 -0.9538
 3235TIP3   OH231263   5.722   3.164   0.334  0.2245  0.2011 -0.0019
 3235TIP3    H131264   5.629   3.181   0.319  0.0185  3.4452  3.3591
 3235TIP3    H231265   5.723   3.093   0.399  0.0007  0.8999  0.7786
 3236TIP3   OH231266   5.513   6.551   1.534 -0.5857 -0.1655  0.0657
 3236TIP3    H131267   5.540   6.641   1.515  0.5184 -0.4986  0.0061
 3236TIP3    H231268   5.447   6.531   1.467 -1.3705  0.8204  0.5033
 3237TIP3   OH231269   1.411   4.160   1.477 -0.3811  0.1295 -0.3872
 3237TIP3    H131270   1.415   4.179   1.571  0.8946  2.3140 -0.8296
 3237TIP3    H231271   1.472   4.088   1.464 -0.5004 -0.1263  0.4314
 3238TIP3   OH231272   6.405   1.571   8.326 -0.7064 -0.0390  0.0659
 3238TIP3    H131273   6.356   1.622   8.262 -1.7103 -1.5625 -0.4080
 3238TIP3    H231274   6.428   1.634   8.394  0.0739  1.5431 -1.5793
 3239TIP3   OH231275   6.395   2.106   8.008 -0.0336  0.3114 -0.3971
 3239TIP3    H131276   6.422   2.043   7.942  2.7914  1.0030  0.0005
 3239TIP3    H231277   6.461   2.100   8.077 -0.5381  2.6008  0.3859
 3240TIP3   OH231278   0.197   3.463   1.115 -0.0169  0.4456 -0.1020
 3240TIP3    H131279   0.118   3.458   1.061  0.8938  2.2235 -1.7151
 3240TIP3    H231280   0.168   3.506   1.196 -1.2742 -1.7092  0.6856
 3241TIP3   OH231281   2.016   0.269   7.367 -0.0893  0.0890  0.0017
 3241TIP3    H131282   2.089   0.260   7.428  0.0491 -0.0594 -0.1832
 3241TIP3    H231283   1.938   0.263   7.422  0.0052 -1.4101  0.0091
 3242TIP3   OH231284   3.060   3.456   2.667  0.1142  0.1078 -0.4904
 3242TIP3    H131285   3.039   3.410   2.748 -1.1122 -0.0634 -0.8900
 3242TIP3    H231286   3.106   3.392   2.613  0.3705  0.0334 -0.1841
 3243TIP3   OH231287   5.671   6.937   8.057 -0.0680  0.5422  0.4048
 3243TIP3    H131288   5.736   7.007   8.050  0.8383 -0.4206 -1.2821
 3243TIP3    H231289   5.667   6.899   7.970 -1.0275 -1.1073  1.1309
 3244TIP3   OH231290   0.989   2.598   8.189 -0.6827 -0.2019 -0.1544
 3244TIP3    H131291   0.945   2.531   8.239 -0.2043 -0.5601 -0.2054
 3244TIP3    H231292   0.921   2.663   8.170 -1.0565 -0.4817  0.2200
 3245TIP3   OH231293   3.717   1.361   7.918 -0.6625 -0.3524  0.0892
 3245TIP3    H131294   3.807   1.394   7.918 -0.1306 -1.5809 -2.3074
 3245TIP3    H231295   3.694   1.352   8.010  1.1930  1.1825  0.7578
 3246TIP3   OH231296   2.700   2.414   0.206  0.1319  0.0187 -0.2298
 3246TIP3    H131297   2.724   2.371   0.288 -1.7692 -0.2792  0.2241
 3246TIP3    H231298   2.714   2.507   0.223 -2.3265  0.1997  1.2875
 3247TIP3   OH231299   2.497   5.499   7.843 -0.3516  0.0404 -0.5148
 3247TIP3    H131300   2.467   5.510   7.752 -1.9756  1.8300  0.1539
 3247TIP3    H231301   2.422   5.459   7.888 -0.2274  0.7764  0.3730
 3248TIP3   OH231302   4.789   3.924   1.316  0.0088 -0.0033 -0.3020
 3248TIP3    H131303   4.825   3.927   1.405  0.0148  2.7335 -0.3117
 3248TIP3    H231304   4.805   3.834   1.287  2.8240 -0.1417  1.3101
 3249TIP3   OH231305   0.774   1.496   3.204 -0.1455  0.0392  0.3812
 3249TIP3    H131306   0.850   1.465   3.254 -0.7821 -1.5845  0.4112
 3249TIP3    H231307   0.724   1.417   3.185 -1.5569  1.0062 -0.1192
 3250TIP3   OH231308   6.919   2.024   7.875 -0.4907 -0.1128  0.7123
 3250TIP3    H131309   6.994   1.972   7.905 -0.3235  0.0593  0.5920
 3250TIP3    H231310   6.843   1.968   7.892 -0.2718 -0.5751  0.1771
 3251TIP3   OH231311   0.931   2.716   2.760  0.3173 -0.2947 -0.0662
 3251TIP3    H131312   0.919   2.764   2.842 -0.9441  0.1680 -0.4938
 3251TIP3    H231313   0.927   2.624   2.786 -3.3021 -0.2506  0.1157
 3252TIP3   OH231314   0.884   5.007   1.098  0.0804  0.0416 -0.0310
 3252TIP3    H131315   0.971   5.000   1.058  0.1577  0.3483  0.0846
 3252TIP3    H231316   0.838   4.930   1.066  0.2135  0.1674 -0.5469
 3253TIP3   OH231317   5.455   5.899   2.188 -0.1311  0.0437  0.1063
 3253TIP3    H131318   5.511   5.932   2.259 -0.6367  0.7375  0.1872
 3253TIP3    H231319   5.437   5.808   2.213 -2.5755  0.9929  2.3774
 3254TIP3   OH231320   0.493   1.654   8.389 -0.0910 -0.2294  0.5303
 3254TIP3    H131321   0.586   1.664   8.368 -0.0637  0.6702  1.0093
 3254TIP3    H231322   0.490   1.579   8.448 -0.0985 -2.3941 -2.0276
 3255TIP3   OH231323   3.269   2.129   0.978 -0.0848 -0.8941 -0.1323
 3255TIP3    H131324   3.243   2.169   0.895  0.9779  3.1566  1.2427
 3255TIP3    H231325   3.357   2.095   0.963  0.9831  1.6982 -0.2974
 3256TIP3   OH231326   3.636   5.168   8.391  0.7225  0.2174 -0.4172
 3256TIP3    H131327   3.587   5.102   8.440  0.3072  0.8470  0.0309
 3256TIP3    H231328   3.571   5.211   8.336  0.7713  1.0076  0.1297
 3257TIP3   OH231329   4.113   4.607   0.891 -0.3424  0.5024 -0.4641
 3257TIP3    H131330   4.165   4.677   0.929  0.1506 -0.0725 -0.0499
 3257TIP3    H231331   4.033   4.604   0.944 -1.1748  1.8938 -1.5803
 3258TIP3   OH231332   3.508   2.081   2.211  0.1025  0.4355 -0.3196
 3258TIP3    H131333   3.488   2.013   2.275 -2.0409  1.0589 -0.2639
 3258TIP3    H231334   3.597   2.061   2.182  0.3644 -1.0350  1.3526
 3259TIP3   OH231335   6.520   0.018   1.593  0.3120 -0.1395 -0.4189
 3259TIP3    H131336   6.609   0.003   1.561  0.9156  1.3157  0.4671
 3259TIP3    H231337   6.466   0.018   1.514  1.1106 -0.8900 -0.9840
 3260TIP3   OH231338   5.946   4.436   7.901  0.0745 -0.5005 -0.2753
 3260TIP3    H131339   5.880   4.488   7.946  0.2880  1.0071 -1.6116
 3260TIP3    H231340   5.931   4.346   7.932 -0.4930  0.2750  1.8790
 3261TIP3   OH231341   1.954   3.755   2.251  0.1127  0.0079 -0.0003
 3261TIP3    H131342   2.030   3.812   2.241 -0.1041  0.6384  1.5822
 3261TIP3    H231343   1.889   3.790   2.190  0.5159  0.5080 -0.1510
 3262TIP3   OH231344   3.065   0.076   2.176  0.1697 -0.0701  0.4079
 3262TIP3    H131345   3.150   0.111   2.151  0.0378  0.8583  1.2080
 3262TIP3    H231346   3.006   0.151   2.171 -0.5971 -0.6865 -0.0665
 3263TIP3   OH231347   1.548   6.142   7.745 -0.1904 -0.3211  0.0279
 3263TIP3    H131348   1.599   6.088   7.805  0.6859 -0.5912 -0.9132
 3263TIP3    H231349   1.573   6.232   7.766 -0.2565 -0.3865  0.3859
 3264TIP3   OH231350   6.818   1.714   2.605 -0.0750 -0.3529 -0.1112
 3264TIP3    H131351   6.872   1.718   2.684  0.7488  1.5638 -0.7019
 3264TIP3    H231352   6.870   1.759   2.538 -2.3257  1.5073 -0.7443
 3265TIP3   OH231353   1.509   6.357   3.055 -0.0058  0.1108 -0.6167
 3265TIP3    H131354   1.485   6.268   3.080 -1.4234  0.5348 -0.3702
 3265TIP3    H231355   1.575   6.384   3.119 -1.2086  0.0206  0.6992
 3266TIP3   OH231356   4.615   0.685   7.982 -0.1773 -0.1818 -0.8473
 3266TIP3    H131357   4.576   0.598   7.981 -1.3728  0.3376 -1.3588
 3266TIP3    H231358   4.700   0.674   7.940  0.3444 -1.3802  0.4484
 3267TIP3   OH231359   4.999   5.447   0.795 -0.3267  0.9361  0.8262
 3267TIP3    H131360   5.043   5.365   0.772 -0.8526  0.5274  1.2418
 3267TIP3    H231361   4.939   5.464   0.722 -1.2514  0.1814  1.3766
 3268TIP3   OH231362   5.892   1.721   1.995  0.1813 -0.3343 -0.0329
 3268TIP3    H131363   5.975   1.753   1.961  0.2539  0.0768  0.5043
 3268TIP3    H231364   5.862   1.791   2.053  1.5840 -2.2098  3.2505
 3269TIP3   OH231365   3.279   2.952   8.389 -0.0666 -0.3654  0.8624
 3269TIP3    H131366   3.318   2.877   8.433  0.3337 -1.4011 -1.1773
 3269TIP3    H231367   3.209   2.915   8.335 -1.2386  0.9899  1.3753
 3270TIP3   OH231368   5.129   5.158   2.366  0.3086  0.1516 -0.2229
 3270TIP3    H131369   5.066   5.151   2.437 -0.5938 -0.2596 -1.0335
 3270TIP3    H231370   5.196   5.219   2.398 -0.8733  1.1700  0.3977
 3271TIP3   OH231371   1.233   3.702   7.246  0.4380 -0.1123 -0.6299
 3271TIP3    H131372   1.252   3.735   7.158  2.9681  0.4120  0.0491
 3271TIP3    H231373   1.297   3.745   7.303 -0.4741 -1.1974  1.3325
 3272TIP3   OH231374   6.766   6.891   7.411 -0.4897 -0.0999 -0.4799
 3272TIP3    H131375   6.842   6.911   7.357  1.1057 -0.3227  1.5517
 3272TIP3    H231376   6.801   6.840   7.484 -2.9900 -2.4666 -0.7561
 3273TIP3   OH231377   5.832   1.435   2.040 -0.2491  0.3871  0.1436
 3273TIP3    H131378   5.739   1.410   2.049 -0.6726  1.8764  0.0976
 3273TIP3    H231379   5.831   1.530   2.037  1.2294  0.3963 -0.6852
 3274TIP3   OH231380   1.003   3.645   1.540  0.1046  0.9653 -0.2552
 3274TIP3    H131381   0.948   3.697   1.480  0.1843  0.2142 -0.9948
 3274TIP3    H231382   1.091   3.652   1.503 -0.0175 -0.3808 -0.8661
 3275TIP3   OH231383   4.619   0.939   1.900  0.0267  0.3600 -0.8096
 3275TIP3    H131384   4.548   0.885   1.866  0.4643 -0.3943 -0.5396
 3275TIP3    H231385   4.583   0.978   1.980 -0.4800  0.9353 -1.3006
 3276TIP3   OH231386   3.218   4.384   2.785 -0.3902  0.2292 -0.0277
 3276TIP3    H131387   3.196   4.341   2.867  0.7277 -0.7004 -0.1883
 3276TIP3    H231388   3.137   4.383   2.734 -1.3844  1.7184  1.4046
 3277TIP3   OH231389   1.398   6.775   7.982  0.2863  0.2564 -0.3854
 3277TIP3    H131390   1.400   6.852   7.925  2.5319  1.2361  0.8753
 3277TIP3    H231391   1.389   6.810   8.070  3.9826 -0.5763  0.4971
 3278TIP3   OH231392   2.520   4.229   3.527 -0.4711 -0.0045  0.2128
 3278TIP3    H131393   2.601   4.268   3.562 -0.2404 -0.0165 -0.2947
 3278TIP3    H231394   2.540   4.136   3.520 -0.6534 -0.0605  0.4137
 3279TIP3   OH231395   6.115   5.879   2.905 -1.0718 -0.1671 -0.2378
 3279TIP3    H131396   6.071   5.909   2.984 -0.9202  0.1491 -0.2717
 3279TIP3    H231397   6.167   5.954   2.876 -0.9373 -0.3583 -0.5015
 3280TIP3   OH231398   1.405   3.646   7.831 -0.6184 -0.1509  0.2706
 3280TIP3    H131399   1.460   3.668   7.906  0.5373 -2.0029  0.0411
 3280TIP3    H231400   1.445   3.692   7.757 -1.6504  1.5275  0.7274
 3281TIP3   OH231401   0.508   0.412   0.032 -0.1373  0.0180 -0.2800
 3281TIP3    H131402   0.439   0.345   0.031 -0.2267  0.0462  1.3225
 3281TIP3    H231403   0.476   0.480  -0.028 -1.7876  0.2778  0.8022
 3282TIP3   OH231404   5.790   3.861   0.364  0.8391  0.4999  0.4189
 3282TIP3    H131405   5.761   3.933   0.420  0.7268  0.6404  0.1826
 3282TIP3    H231406   5.866   3.824   0.409  1.3471  1.2341  0.1691
 3283TIP3   OH231407   5.666   4.404   0.507  0.0650 -0.2228  0.0698
 3283TIP3    H131408   5.658   4.499   0.496 -0.0758 -0.3880 -1.3595
 3283TIP3    H231409   5.595   4.368   0.454 -0.9476 -1.0893  1.9331
 3284TIP3   OH231410   6.117   6.003   7.126  0.4182  0.3926 -0.8487
 3284TIP3    H131411   6.097   6.052   7.205  0.1453 -2.4473  1.0096
 3284TIP3    H231412   6.035   5.957   7.105  1.6491 -2.3928  0.0086
 3285TIP3   OH231413   6.233   4.615   0.618 -0.1251  0.8040  0.3027
 3285TIP3    H131414   6.227   4.669   0.697 -1.9204 -0.5436  1.1683
 3285TIP3    H231415   6.143   4.609   0.586  0.1899 -0.7325 -0.3923
 3286TIP3   OH231416   4.888   0.430   1.049 -0.1808  1.0903 -0.4351
 3286TIP3    H131417   4.825   0.454   0.982  0.5177 -0.8315 -1.8616
 3286TIP3    H231418   4.852   0.350   1.088  0.0282  1.5059  0.6431
 3287TIP3   OH231419   1.206   2.143   3.258 -0.5082  0.1345 -0.1900
 3287TIP3    H131420   1.283   2.184   3.296  0.7505  0.3185 -2.7625
 3287TIP3    H231421   1.132   2.195   3.291  0.5325  0.7610  1.2621
 3288TIP3   OH231422   2.084   0.264   0.222  0.3057 -0.1139  0.3342
 3288TIP3    H131423   2.013   0.235   0.164  0.8340  0.6868 -0.7544
 3288TIP3    H231424   2.135   0.185   0.239  0.4887 -0.2640 -0.8207
 3289TIP3   OH231425   6.604   4.756   1.335  0.2336 -0.5840 -0.2321
 3289TIP3    H131426   6.556   4.768   1.417 -2.7011 -0.7659 -1.7898
 3289TIP3    H231427   6.683   4.809   1.345 -1.5789  2.0306  1.5354
 3290TIP3   OH231428   0.590   1.650   2.004  0.0579 -0.2849 -0.0834
 3290TIP3    H131429   0.593   1.674   1.912 -0.5743  0.2845  0.0319
 3290TIP3    H231430   0.582   1.555   2.004 -2.4493 -0.1594 -0.7130
 3291TIP3   OH231431   3.474   5.805   0.674  0.1052  0.3712 -0.2243
 3291TIP3    H131432   3.540   5.862   0.634 -0.1080  0.2691 -0.7236
 3291TIP3    H231433   3.495   5.807   0.768 -1.0465  2.8048  0.0632
 3292TIP3   OH231434   6.748   5.482   1.481 -0.5572 -0.5742  0.3568
 3292TIP3    H131435   6.813   5.511   1.544  0.6217 -0.4816 -0.8572
 3292TIP3    H231436   6.704   5.563   1.453  0.4567 -0.3242 -0.5705
 3293TIP3   OH231437   1.511   3.730   8.051  0.2831  0.7425 -0.7317
 3293TIP3    H131438   1.581   3.757   8.110  0.3705 -0.1633 -0.4039
 3293TIP3    H231439   1.499   3.637   8.069  0.2562  0.4597 -2.0810
 3294TIP3   OH231440   5.858   3.428   0.336  0.1100 -0.7707 -0.0941
 3294TIP3    H131441   5.822   3.483   0.266 -0.2724 -1.0828 -0.1501
 3294TIP3    H231442   5.812   3.345   0.327 -0.0430 -0.7716  0.6199
 3295TIP3   OH231443   2.308   6.816   7.547  0.0933 -0.4809 -0.5706
 3295TIP3    H131444   2.318   6.747   7.481 -0.7223 -0.0573 -1.1594
 3295TIP3    H231445   2.317   6.771   7.630 -1.2418 -1.4727 -0.9274
 3296TIP3   OH231446   2.924   1.748   1.774 -0.2837  0.2561 -0.3930
 3296TIP3    H131447   3.006   1.768   1.820 -1.7172  2.2829  1.5266
 3296TIP3    H231448   2.900   1.830   1.730 -0.1622 -0.9828 -2.9245
 3297TIP3   OH231449   5.822   2.066   0.705  0.0469  0.1430  0.1600
 3297TIP3    H131450   5.858   1.984   0.737  1.2994  1.2233  1.6780
 3297TIP3    H231451   5.776   2.104   0.780  0.0185  1.1276 -0.3274
 3298TIP3   OH231452   4.287   1.060   7.745 -0.1368  1.1433 -0.5960
 3298TIP3    H131453   4.301   1.047   7.651  2.1098  3.6926 -0.7040
 3298TIP3    H231454   4.197   1.092   7.751 -0.6070  0.1421 -1.7373
 3299TIP3   OH231455   0.022   4.162   1.774 -0.0226 -0.0200 -0.1106
 3299TIP3    H131456   0.101   4.137   1.821 -1.3805 -1.0230  1.7673
 3299TIP3    H231457  -0.001   4.085   1.722 -0.7208 -0.4003  0.7404
 3300TIP3   OH231458   4.241   2.446   0.199  0.1683 -0.6562  0.2064
 3300TIP3    H131459   4.197   2.499   0.132  0.1228 -1.8078 -0.7173
 3300TIP3    H231460   4.205   2.358   0.186  3.3482 -1.8906 -1.2080
 3301TIP3   OH231461   2.247   4.181   3.449 -0.1978 -0.1225 -0.0780
 3301TIP3    H131462   2.233   4.146   3.537  0.2136 -2.3967 -0.8232
 3301TIP3    H231463   2.341   4.200   3.446 -0.3358  0.6196  0.1781
 3302TIP3   OH231464   2.481   4.688   0.527 -1.0735 -0.3869  0.2857
 3302TIP3    H131465   2.516   4.731   0.448 -1.5204 -0.9841 -0.2397
 3302TIP3    H231466   2.538   4.719   0.597  0.1745 -0.8851 -0.4697
 3303TIP3   OH231467   6.711   0.645   0.232  0.0323  0.1971 -0.0834
 3303TIP3    H131468   6.768   0.582   0.188  1.9851  1.3742  0.6322
 3303TIP3    H231469   6.753   0.660   0.317 -0.0190  2.8372 -0.4394
 3304TIP3   OH231470   6.344   5.656   3.279 -0.4233  0.4249  0.2089
 3304TIP3    H131471   6.311   5.739   3.243 -0.2787  1.0698  1.4830
 3304TIP3    H231472   6.430   5.644   3.238 -0.6608  0.6430 -0.3604
 3305TIP3   OH231473   0.117   3.733   2.020  0.4342 -0.1536  0.5580
 3305TIP3    H131474   0.172   3.670   1.975 -1.6625 -1.0422 -0.9009
 3305TIP3    H231475   0.126   3.813   1.968  1.8486  0.3441  1.4965
 3306TIP3   OH231476   4.839   2.616   1.460  0.1099  0.2506 -0.2071
 3306TIP3    H131477   4.891   2.539   1.439  0.6253  0.9581 -1.7395
 3306TIP3    H231478   4.779   2.625   1.386 -0.3576  0.9585  0.2455
 3307TIP3   OH231479   0.278   1.632   2.264  0.4114  0.7598 -0.1921
 3307TIP3    H131480   0.197   1.584   2.250  1.6969 -1.6389  0.1748
 3307TIP3    H231481   0.341   1.592   2.205  1.3925  2.5580 -0.4557
 3308TIP3   OH231482   2.165   3.830   0.616  0.3362 -0.1306  0.0524
 3308TIP3    H131483   2.258   3.822   0.636  0.3551 -3.1617 -0.7340
 3308TIP3    H231484   2.151   3.923   0.600  2.9475  0.5678  1.3319
 3309TIP3   OH231485   4.077   1.239   1.497  0.3960  0.0659  0.7138
 3309TIP3    H131486   4.078   1.324   1.451  0.5700 -0.7008 -0.7582
 3309TIP3    H231487   4.153   1.193   1.463  1.1968 -0.1263  2.6519
 3310TIP3   OH231488   6.212   2.322   2.172 -0.4617  0.2010 -0.1548
 3310TIP3    H131489   6.153   2.272   2.228 -0.2788 -0.0160 -0.1533
 3310TIP3    H231490   6.175   2.410   2.170 -0.7313  0.0885 -0.0783
 3311TIP3   OH231491   3.364   1.262   8.357 -0.3741  0.4078 -0.0057
 3311TIP3    H131492   3.445   1.277   8.406 -0.1296  4.0845 -1.2201
 3311TIP3    H231493   3.386   1.190   8.297  2.0533  1.2772 -0.2843
 3312TIP3   OH231494   5.260   4.445   1.118 -0.1740  0.5281  0.0139
 3312TIP3    H131495   5.190   4.423   1.057 -1.2979 -0.5644  1.5996
 3312TIP3    H231496   5.302   4.361   1.136 -0.3080  0.7005  1.2231
 3313TIP3   OH231497   3.975   2.857   1.875  0.5047  0.4375  0.3294
 3313TIP3    H131498   3.965   2.762   1.865  0.8671  0.4328 -0.0095
 3313TIP3    H231499   4.065   2.874   1.849  0.5913  0.8144  0.8556
 3314TIP3   OH231500   0.415   5.694   0.514  0.1427  0.3978 -0.2549
 3314TIP3    H131501   0.484   5.757   0.538  0.1426 -0.6384  2.8617
 3314TIP3    H231502   0.334   5.744   0.522  0.2528  0.4632  0.5413
 3315TIP3   OH231503   3.689   2.501   8.202  0.5832 -0.4034  0.5279
 3315TIP3    H131504   3.758   2.473   8.141  0.3731 -1.4591  0.7612
 3315TIP3    H231505   3.736   2.535   8.278  0.8914  2.6878 -0.9149
 3316TIP3   OH231506   0.478   6.525   1.480  0.8225  0.2067  0.0209
 3316TIP3    H131507   0.504   6.608   1.519  2.1232 -0.4385  0.5926
 3316TIP3    H231508   0.510   6.529   1.390  0.9544  0.2917  0.0716
 3317TIP3   OH231509   1.149   4.764   8.138  0.2895  0.1988  0.5766
 3317TIP3    H131510   1.093   4.842   8.136  1.0660  0.7555 -0.1708
 3317TIP3    H231511   1.122   4.718   8.218  1.0010  2.1331  2.0086
 3318TIP3   OH231512   4.729   1.815   0.548 -0.3997 -0.3184 -0.2657
 3318TIP3    H131513   4.764   1.774   0.627  1.1681  0.8153 -0.3138
 3318TIP3    H231514   4.725   1.744   0.484 -1.6804 -1.2512  0.7933
 3319TIP3   OH231515   2.877   5.323   0.938  0.6944  0.7674 -0.2788
 3319TIP3    H131516   2.875   5.235   0.901 -1.1307  0.5436  0.2643
 3319TIP3    H231517   2.966   5.355   0.920  1.1909 -0.9392 -1.0159
 3320TIP3   OH231518   3.490   3.017   1.322  0.4391 -0.1965 -0.2780
 3320TIP3    H131519   3.537   2.975   1.394 -0.7309  0.1920  0.7580
 3320TIP3    H231520   3.505   3.110   1.335 -0.0732 -0.1042 -0.3006
 3321TIP3   OH231521   2.387   2.473   1.657 -0.6905  0.4446  0.7443
 3321TIP3    H131522   2.414   2.384   1.678 -0.0467 -0.1963 -2.3464
 3321TIP3    H231523   2.292   2.471   1.660 -0.7428 -0.7786 -0.5962
 3322TIP3   OH231524   2.938   1.038   2.293 -0.1911 -0.1179 -0.2269
 3322TIP3    H131525   2.847   1.051   2.322 -0.3357  0.1977 -0.8150
 3322TIP3    H231526   2.957   0.947   2.317 -1.0933 -0.6009 -1.2348
 3323TIP3   OH231527   5.155   4.595   1.795 -0.2083  0.7102 -0.7154
 3323TIP3    H131528   5.210   4.673   1.793  0.4201  0.3004 -0.0966
 3323TIP3    H231529   5.208   4.527   1.753 -0.7153  0.5873 -1.1739
 3324TIP3   OH231530   2.486   1.119   7.304 -0.0073 -0.0043  0.0262
 3324TIP3    H131531   2.511   1.206   7.272  3.2944 -0.6650  0.4479
 3324TIP3    H231532   2.508   1.120   7.397  0.2158 -1.3167  0.0056
 3325TIP3   OH231533   1.048   2.632   2.223 -0.1591  0.2241  0.0387
 3325TIP3    H131534   1.130   2.612   2.267 -0.6173 -0.7066  0.5195
 3325TIP3    H231535   1.071   2.695   2.155  0.5371  1.9623  1.7931
 3326TIP3   OH231536   0.473   3.898   7.776  0.5514  0.1860  0.3312
 3326TIP3    H131537   0.520   3.975   7.744  0.6283 -0.5364 -1.3813
 3326TIP3    H231538   0.422   3.869   7.701 -3.0224  1.1444  2.1954
 3327TIP3   OH231539   1.707   2.867   0.048 -0.2335 -0.1765  0.1022
 3327TIP3    H131540   1.695   2.962   0.052  2.3054  0.2339 -0.1570
 3327TIP3    H231541   1.657   2.840  -0.029 -0.8396  0.9765  0.0664
 3328TIP3   OH231542   5.222   4.735   2.348 -0.2068 -0.2194  0.4252
 3328TIP3    H131543   5.308   4.692   2.347  0.9988  2.0286  0.4652
 3328TIP3    H231544   5.174   4.695   2.276  2.2504  0.9739 -2.0273
 3329TIP3   OH231545   0.575   4.116   7.623  0.5391 -0.1354 -0.1060
 3329TIP3    H131546   0.661   4.077   7.635 -0.4163 -2.1712  0.6517
 3329TIP3    H231547   0.592   4.210   7.612  2.6780  0.0203  3.0598
 3330TIP3   OH231548   5.181   6.680   2.516 -0.0224 -0.4372 -0.2954
 3330TIP3    H131549   5.128   6.689   2.595  0.4527  0.9324 -0.1019
 3330TIP3    H231550   5.183   6.768   2.478  0.0547 -0.9926 -1.6492
 3331TIP3   OH231551   5.155   0.988   0.298 -0.1585 -0.5080 -0.2243
 3331TIP3    H131552   5.147   0.892   0.305 -0.1930 -0.4617  0.3727
 3331TIP3    H231553   5.201   1.015   0.377  0.0411 -0.0462 -0.4931
 3332TIP3   OH231554   3.714   2.300   0.451  0.0115  0.2268 -0.0173
 3332TIP3    H131555   3.669   2.282   0.369  0.3313 -1.3981  0.1164
 3332TIP3    H231556   3.795   2.249   0.446  0.2670  0.4798  1.1023
 3333TIP3   OH231557   1.234   1.565   1.500  0.3911  0.1110  0.1255
 3333TIP3    H131558   1.142   1.591   1.500 -0.0760 -1.3806 -1.6154
 3333TIP3    H231559   1.251   1.537   1.590 -0.4358  1.6898  0.8069
 3334TIP3   OH231560   3.677   6.164   1.734 -0.0242  0.3129 -0.3213
 3334TIP3    H131561   3.696   6.117   1.652 -0.4776 -0.3219 -0.0669
 3334TIP3    H231562   3.743   6.234   1.737 -0.3023  0.6362 -1.4594
 3335TIP3   OH231563   4.716   2.574   0.540 -0.5678  0.1516 -0.3065
 3335TIP3    H131564   4.644   2.604   0.485 -0.1936  1.1966 -0.2476
 3335TIP3    H231565   4.688   2.591   0.630 -1.3471 -1.9257 -0.0997
 3336TIP3   OH231566   2.909   1.837   0.976  0.2247 -0.4681 -0.7107
 3336TIP3    H131567   2.995   1.814   0.943  0.7185  0.9663 -0.4579
 3336TIP3    H231568   2.922   1.851   1.070 -0.4660 -1.0727 -0.5067
 3337TIP3   OH231569   2.991   0.836   7.643  0.4718 -0.5950  0.5742
 3337TIP3    H131570   2.935   0.772   7.599 -0.7371  0.5416  0.4153
 3337TIP3    H231571   3.019   0.792   7.724  2.1785 -2.4528 -0.9056
 3338TIP3   OH231572   5.361   3.444   1.521  0.3975  0.4108  0.2861
 3338TIP3    H131573   5.394   3.532   1.537 -0.7250  0.6507  1.5091
 3338TIP3    H231574   5.438   3.387   1.528  1.0875  1.2605 -0.2938
 3339TIP3   OH231575   3.283   5.620   1.758 -0.4153  0.4443  0.0854
 3339TIP3    H131576   3.278   5.708   1.719 -2.2925  0.2085 -0.2932
 3339TIP3    H231577   3.292   5.561   1.683 -2.0848  0.1326  0.0910
 3340TIP3   OH231578   0.556   5.008   1.237  0.7217  0.7940  0.0190
 3340TIP3    H131579   0.574   5.089   1.190 -0.4378  0.9597 -0.1765
 3340TIP3    H231580   0.640   4.984   1.276  1.0372  2.2473  0.3266
 3341TIP3   OH231581   3.943   2.022   0.992  0.2475 -0.1510  0.1346
 3341TIP3    H131582   4.016   2.021   1.053 -0.0985  0.4662  0.5656
 3341TIP3    H231583   3.874   1.972   1.036  0.3324 -0.5601 -0.1843
 3342TIP3   OH231584   1.465   1.865   0.508 -0.2286 -0.2365  0.1911
 3342TIP3    H131585   1.414   1.844   0.587  0.3399 -0.6782  0.4503
 3342TIP3    H231586   1.553   1.832   0.527 -0.5856 -2.4249 -1.4817
 3343TIP3   OH231587   1.966   0.948   7.348  0.0017  0.2588  0.0307
 3343TIP3    H131588   2.056   0.980   7.354 -0.2756  1.4058 -1.3684
 3343TIP3    H231589   1.967   0.892   7.270 -0.2087 -0.8022  0.7725
 3344TIP3   OH231590   6.832   4.040   1.004  0.3695  0.4102  0.1211
 3344TIP3    H131591   6.899   4.075   0.946  0.5590  1.9896  1.2092
 3344TIP3    H231592   6.753   4.090   0.984 -0.3274 -0.9288 -0.6383
 3345TIP3   OH231593   2.574   2.185   2.151 -0.7440 -0.2896 -0.8943
 3345TIP3    H131594   2.582   2.109   2.094 -2.7876 -0.5170 -0.9422
 3345TIP3    H231595   2.641   2.172   2.218  0.1622 -1.1684 -1.9394
 3346TIP3   OH231596   5.195   6.015   1.467 -0.2736  0.2419 -0.4569
 3346TIP3    H131597   5.270   5.989   1.520 -0.8525  0.2562  0.4004
 3346TIP3    H231598   5.204   6.110   1.458 -0.9911  0.4802  0.9781
 3347TIP3   OH231599   6.498   0.454   0.229  0.2484  0.1296 -0.2316
 3347TIP3    H131600   6.570   0.514   0.211 -0.0496  0.7078  0.4671
 3347TIP3    H231601   6.448   0.496   0.298  0.1799 -1.0388  0.4651
 3348TIP3   OH231602   4.489   0.672   0.229  0.1612 -0.4160 -0.1463
 3348TIP3    H131603   4.439   0.591   0.228  2.7467 -2.2023 -2.3780
 3348TIP3    H231604   4.574   0.647   0.265  1.8733  0.5597 -3.1595
 3349TIP3   OH231605   3.417   6.414   1.146 -0.3226 -0.6108 -0.2187
 3349TIP3    H131606   3.491   6.464   1.183 -0.8119  2.5135 -2.9371
 3349TIP3    H231607   3.445   6.323   1.151  4.5401  0.4016 -2.3716
 3350TIP3   OH231608   2.518   5.625   0.289 -0.0957  0.3209 -0.5260
 3350TIP3    H131609   2.574   5.666   0.356  1.6088 -0.5505 -1.3777
 3350TIP3    H231610   2.461   5.566   0.339 -1.4605  2.3645  0.5356
 3351TIP3   OH231611   3.710   1.794   8.266  0.1114  0.7709 -0.1245
 3351TIP3    H131612   3.717   1.741   8.346 -1.3625 -1.8491 -1.5919
 3351TIP3    H231613   3.646   1.861   8.288  0.6641  0.8912  1.2511
 3352TIP3   OH231614   2.814   6.113   1.243  0.0497  0.0401  0.4716
 3352TIP3    H131615   2.906   6.132   1.226  0.5359 -0.7167  2.0116
 3352TIP3    H231616   2.799   6.147   1.332 -0.9182 -0.6036  0.5664
 3353TIP3   OH231617   0.182   4.913   7.334 -0.1538 -0.0674 -0.1907
 3353TIP3    H131618   0.095   4.874   7.345  0.3835 -1.2047  0.1353
 3353TIP3    H231619   0.167   4.988   7.277 -1.9514  2.0165  2.7468
 3354TIP3   OH231620   3.056   2.235   2.386 -0.3109 -0.2874  0.3227
 3354TIP3    H131621   3.065   2.323   2.423 -1.3571  0.2474 -0.6456
 3354TIP3    H231622   3.012   2.185   2.455  0.4488 -0.1193  0.9488
 3355TIP3   OH231623   1.719   2.316   1.590  0.0291  0.2825  0.0042
 3355TIP3    H131624   1.645   2.376   1.581  0.5054  0.7838 -0.6633
 3355TIP3    H231625   1.767   2.323   1.507  1.7794  1.2560  1.0213
 3356TIP3   OH231626   0.706   2.886   0.301 -0.5899 -0.3132 -0.6305
 3356TIP3    H131627   0.673   2.968   0.339  1.0898 -0.1253  0.5856
 3356TIP3    H231628   0.632   2.826   0.304 -1.1450  0.3861  0.9528
 3357TIP3   OH231629   6.068   3.246   0.294  0.1064 -0.2972  0.5809
 3357TIP3    H131630   5.984   3.290   0.311 -0.4300 -1.4138  0.9230
 3357TIP3    H231631   6.050   3.189   0.220  0.6870 -0.2291  0.3887
 3358TIP3   OH231632   5.908   2.598   1.550  0.5525  0.1475  0.6684
 3358TIP3    H131633   5.844   2.669   1.556  1.2246  0.7679  0.5374
 3358TIP3    H231634   5.906   2.556   1.636 -4.2240 -3.5618 -0.8004
 3359TIP3   OH231635   6.234   0.214   1.713 -0.2735  0.5993 -0.1767
 3359TIP3    H131636   6.313   0.191   1.762  0.1286 -2.4644 -1.9784
 3359TIP3    H231637   6.260   0.286   1.656  1.0961 -0.0064 -0.3580
 3360TIP3   OH231638   2.150   6.075   0.466 -0.1435 -0.5418 -0.6583
 3360TIP3    H131639   2.231   6.088   0.515  0.2757  0.6966 -1.6453
 3360TIP3    H231640   2.167   6.000   0.410  0.5621  0.1213 -1.3430
 3361TIP3   OH231641   2.565   2.364   1.048  0.0574 -0.2357  0.0629
 3361TIP3    H131642   2.632   2.310   1.090 -0.5453 -1.0056  0.0735
 3361TIP3    H231643   2.569   2.340   0.955 -0.0763 -0.1537  0.0346
 3362TIP3   OH231644   0.209   2.959   7.982 -0.2311 -0.0180 -0.1687
 3362TIP3    H131645   0.123   2.930   7.950 -0.6714  0.0875  0.9036
 3362TIP3    H231646   0.263   2.880   7.979 -0.0629  0.1131 -1.7539
 3363TIP3   OH231647   1.888   3.457   8.333 -0.8545 -0.9162 -0.3925
 3363TIP3    H131648   1.834   3.439   8.411  0.1117  0.0268  0.5329
 3363TIP3    H231649   1.977   3.461   8.367 -0.6842  2.8971 -0.8775
 3364TIP3   OH231650   6.105   6.494   0.302 -0.9145  0.4262 -0.3527
 3364TIP3    H131651   6.060   6.472   0.384  0.4575 -2.2874 -0.2031
 3364TIP3    H231652   6.075   6.426   0.240  1.6431 -0.5130 -0.6806
 3365TIP3   OH231653   5.869   5.657   1.819 -0.3493 -0.1298 -0.0260
 3365TIP3    H131654   5.849   5.697   1.735 -1.4044  0.1198  0.3327
 3365TIP3    H231655   5.856   5.563   1.805 -1.0847 -0.0331  0.0132
 3366TIP3   OH231656   1.723   5.053   7.506 -0.1226  0.0258  0.2239
 3366TIP3    H131657   1.658   5.014   7.448 -1.0642  1.3013  0.3827
 3366TIP3    H231658   1.672   5.088   7.579  0.9329 -0.5391  1.2750
 3367TIP3   OH231659   4.113   4.766   7.945 -0.3099 -0.6943  0.1843
 3367TIP3    H131660   4.156   4.745   7.862  0.7727 -2.7500  1.1690
 3367TIP3    H231661   4.024   4.730   7.935 -0.1590 -1.0104 -0.0527
 3368TIP3   OH231662   3.280   6.928   2.535  0.9995  0.3823 -0.2498
 3368TIP3    H131663   3.316   6.885   2.612 -0.4341  0.2983  0.4050
 3368TIP3    H231664   3.237   7.006   2.569  0.2276  0.2743 -0.9450
 3369TIP3   OH231665   5.870   5.541   2.353 -0.0296 -0.0381 -0.3963
 3369TIP3    H131666   5.959   5.573   2.340 -0.5515  2.0071  0.6240
 3369TIP3    H231667   5.872   5.502   2.440 -0.5158  1.6802  0.4252
 3370TIP3   OH231668   2.246   1.645   2.890 -0.3857  0.3723  0.5874
 3370TIP3    H131669   2.286   1.574   2.940  0.8781  1.2800  0.9141
 3370TIP3    H231670   2.267   1.724   2.940 -1.2740  1.0432 -0.0691
 3371TIP3   OH231671   4.914   3.989   7.168 -0.1433  0.0610  0.1776
 3371TIP3    H131672   4.967   4.053   7.217 -0.6552  0.1143  0.6686
 3371TIP3    H231673   4.978   3.928   7.132  0.1799 -0.7546  2.0206
 3372TIP3   OH231674   5.133   4.590   0.807  0.4819 -0.9930 -0.3845
 3372TIP3    H131675   5.069   4.641   0.757  0.9615 -0.3060 -0.3043
 3372TIP3    H231676   5.125   4.622   0.896 -0.6321 -2.4684  0.0982
 3373TIP3   OH231677   3.544   2.804   0.980  0.2416  0.4454 -0.1781
 3373TIP3    H131678   3.515   2.844   0.899  1.2928  0.8710 -0.3630
 3373TIP3    H231679   3.602   2.732   0.952 -2.8214 -2.3522  0.0734
 3374TIP3   OH231680   3.981   3.365   2.439 -0.0753  0.2669 -0.0899
 3374TIP3    H131681   3.929   3.291   2.408 -0.9577  1.0788 -0.5876
 3374TIP3    H231682   4.014   3.336   2.524 -1.3806 -0.2646  0.2635
 3375TIP3   OH231683   1.186   3.432   1.221 -0.5516 -0.0567  0.3718
 3375TIP3    H131684   1.136   3.385   1.154  0.9286 -1.3268  0.0961
 3375TIP3    H231685   1.277   3.424   1.193 -0.2042  3.4984  0.0139
 3376TIP3   OH231686   6.766   2.413   0.226 -0.3813 -0.3901  0.0823
 3376TIP3    H131687   6.735   2.455   0.146 -1.5394  0.6436  1.0375
 3376TIP3    H231688   6.767   2.483   0.291  0.6306 -1.1938  0.9625
 3377TIP3   OH231689   3.300   1.376   2.317 -0.2886 -0.1646 -0.5742
 3377TIP3    H131690   3.208   1.353   2.333 -0.4119 -0.1094 -1.1583
 3377TIP3    H231691   3.301   1.406   2.226  0.6831 -2.2084 -1.2996
 3378TIP3   OH231692   2.761   0.267   7.777  0.4266  0.3912  0.4800
 3378TIP3    H131693   2.690   0.208   7.752 -0.5361  2.1629 -1.2143
 3378TIP3    H231694   2.807   0.286   7.695  2.2234  0.1485  1.3695
 3379TIP3   OH231695   2.384   0.245   1.354 -0.3506 -0.0312  0.0166
 3379TIP3    H131696   2.398   0.207   1.441 -0.7518 -0.2277 -0.0057
 3379TIP3    H231697   2.434   0.326   1.356 -0.8726  0.2861  0.6564
 3380TIP3   OH231698   5.639   5.061   7.502 -0.6184  0.5498  0.2517
 3380TIP3    H131699   5.718   5.110   7.478 -0.6845  0.9795  0.9046
 3380TIP3    H231700   5.636   5.064   7.597 -1.1951  0.1626  0.2540
 3381TIP3   OH231701   6.783   1.410   1.310 -0.5437  0.3552 -0.5903
 3381TIP3    H131702   6.697   1.414   1.353 -1.9708 -1.1931 -3.0543
 3381TIP3    H231703   6.790   1.492   1.262 -1.1961  0.0362 -1.2591
 3382TIP3   OH231704   4.599   4.127   1.256 -0.0021  0.2674 -0.1243
 3382TIP3    H131705   4.634   4.042   1.282  0.2564 -0.0919 -1.5642
 3382TIP3    H231706   4.516   4.106   1.213  0.4998  0.6469 -1.3013
 3383TIP3   OH231707   4.672   5.282   0.490  0.2037 -0.4070 -0.2879
 3383TIP3    H131708   4.746   5.237   0.532  1.0656  0.8559 -0.3836
 3383TIP3    H231709   4.603   5.280   0.556  0.8917 -0.1356  0.4660
 3384TIP3   OH231710   5.819   1.038   2.169 -0.9633  0.5873  0.0156
 3384TIP3    H131711   5.793   1.054   2.260  1.0915 -0.3405  0.8112
 3384TIP3    H231712   5.806   0.944   2.156  1.1008  0.2520  0.1751
 3385TIP3   OH231713   6.807   5.736   7.891  0.1287  0.2986 -0.2487
 3385TIP3    H131714   6.768   5.649   7.888  4.3174 -1.8632  0.4228
 3385TIP3    H231715   6.868   5.737   7.817  0.0454  2.7633 -0.3481
 3386TIP3   OH231716   6.780   2.713   0.648  0.0263  0.0073 -0.2677
 3386TIP3    H131717   6.872   2.687   0.655  1.2027  3.3689 -1.1240
 3386TIP3    H231718   6.772   2.789   0.705 -1.9833  0.3807 -0.9671
 3387TIP3   OH231719   1.862   4.126   0.239  0.1218  0.2427 -0.3390
 3387TIP3    H131720   1.769   4.133   0.259 -0.0575 -1.9977 -0.0855
 3387TIP3    H231721   1.894   4.216   0.238 -2.0701  1.0713 -0.6111
 3388TIP3   OH231722   6.058   0.782   0.243  0.0907 -0.1700 -0.2512
 3388TIP3    H131723   6.013   0.788   0.158 -0.9773 -0.5810  0.2611
 3388TIP3    H231724   6.057   0.688   0.263  0.9043 -0.1430 -0.0743
 3389TIP3   OH231725   5.664   3.187   2.311  0.2335  0.0275 -0.1299
 3389TIP3    H131726   5.606   3.204   2.236 -2.4884 -1.1312  1.5712
 3389TIP3    H231727   5.606   3.153   2.379  2.0274  3.6345  3.5973
 3390TIP3   OH231728   4.685   5.621   0.117 -0.2707  0.6517 -0.3557
 3390TIP3    H131729   4.604   5.669   0.134  0.5468  1.8025  0.4270
 3390TIP3    H231730   4.702   5.636   0.024 -1.4033 -0.3602 -0.7607
 3391TIP3   OH231731   1.466   0.782   2.129  0.6807 -0.3671 -0.5423
 3391TIP3    H131732   1.392   0.731   2.162  0.0031  0.2932 -1.0261
 3391TIP3    H231733   1.521   0.797   2.206  0.6468 -1.4025 -0.3005
 3392TIP3   OH231734   4.942   5.462   1.156  0.2895 -0.0078 -0.9657
 3392TIP3    H131735   4.959   5.535   1.096  1.2552  0.4345 -0.1945
 3392TIP3    H231736   5.027   5.447   1.199  0.4100 -2.3039 -1.8717
 3393TIP3   OH231737   3.962   0.810   0.642 -0.5560  0.4419 -0.2602
 3393TIP3    H131738   4.044   0.847   0.609  0.7775 -2.1461 -0.1544
 3393TIP3    H231739   3.906   0.804   0.564 -0.8891  2.6709 -0.2489
 3394TIP3   OH231740   0.985   0.744   8.284  0.1964  0.0418  0.2667
 3394TIP3    H131741   0.920   0.675   8.290  1.3370 -0.9601  2.0743
 3394TIP3    H231742   1.020   0.738   8.195 -1.2983 -0.1725 -0.3296
 3395TIP3   OH231743   0.844   2.697   1.970 -0.5614  0.4458 -0.0828
 3395TIP3    H131744   0.860   2.634   1.900  0.2472 -0.0836  0.5650
 3395TIP3    H231745   0.906   2.768   1.953  0.2349 -0.0757  0.5556
 3396TIP3   OH231746   2.753   5.748   2.293 -0.2339  0.4520 -0.5467
 3396TIP3    H131747   2.665   5.740   2.255  0.1887 -0.6475 -1.3560
 3396TIP3    H231748   2.751   5.690   2.370  0.2315 -0.8760 -1.4862
 3397TIP3   OH231749   0.215   0.940   8.145 -0.0853  0.0564  0.1408
 3397TIP3    H131750   0.225   0.961   8.052  1.5829 -0.4509  0.1783
 3397TIP3    H231751   0.228   0.845   8.150  1.1429  0.2424  1.0318
 3398TIP3   OH231752   6.563   5.420   3.015  0.1270  0.3587  0.1313
 3398TIP3    H131753   6.613   5.342   3.038 -1.2716 -1.0245 -1.1991
 3398TIP3    H231754   6.591   5.487   3.077  0.9378 -1.3793  1.7234
 3399TIP3   OH231755   1.196   6.869   0.483 -0.0213 -0.4672 -0.0479
 3399TIP3    H131756   1.147   6.946   0.453  1.3988  0.0121 -1.2530
 3399TIP3    H231757   1.272   6.905   0.528  1.1215 -1.1193 -1.3861
 3400TIP3   OH231758   6.112   3.345   8.028  0.2798 -0.5548  0.6601
 3400TIP3    H131759   6.153   3.431   8.039  0.4568 -0.4580 -0.5733
 3400TIP3    H231760   6.028   3.352   8.074  0.7587 -0.0849  1.4833
 3401TIP3   OH231761   0.794   4.553   0.416 -0.0126  0.0680 -0.1299
 3401TIP3    H131762   0.739   4.477   0.397  0.9180 -0.9197  1.0304
 3401TIP3    H231763   0.736   4.628   0.400 -0.9494 -0.8558 -1.2908
 3402TIP3   OH231764   6.052   4.786   0.913  0.0429  0.0293 -0.1917
 3402TIP3    H131765   6.007   4.711   0.876 -2.5538  2.7954 -3.2653
 3402TIP3    H231766   6.107   4.750   0.983 -1.0363 -4.5913 -1.4405
 3403TIP3   OH231767   5.722   2.046   0.230 -0.7774 -0.4947 -0.0779
 3403TIP3    H131768   5.651   2.104   0.256  1.3218  2.4660 -0.3585
 3403TIP3    H231769   5.784   2.049   0.302  0.1787 -1.0070 -0.8448
 3404TIP3   OH231770   4.614   5.356   8.041 -0.0104 -0.4133 -0.2659
 3404TIP3    H131771   4.658   5.363   8.125  0.4978 -0.2596 -0.5401
 3404TIP3    H231772   4.633   5.268   8.010  1.8639  0.3115 -1.3283
 3405TIP3   OH231773   4.781   1.908   2.364 -0.0153 -0.2355  0.0442
 3405TIP3    H131774   4.854   1.877   2.310  0.4957  2.2238 -0.8048
 3405TIP3    H231775   4.773   1.842   2.433  1.0336 -2.1211 -1.5093
 3406TIP3   OH231776   5.686   3.913   6.980  0.1184  0.4636  0.3728
 3406TIP3    H131777   5.598   3.922   7.017 -0.1262 -0.1355 -0.0465
 3406TIP3    H231778   5.738   3.873   7.050  0.3591  1.8368  1.0229
 3407TIP3   OH231779   5.812   0.003   0.386  0.1752  0.7725  0.4288
 3407TIP3    H131780   5.884  -0.029   0.333  0.2047  1.3816  0.0971
 3407TIP3    H231781   5.765  -0.076   0.413  0.3967  0.4374 -0.1615
 3408TIP3   OH231782   4.477   4.542   7.701 -0.2100  0.4356  0.2777
 3408TIP3    H131783   4.494   4.622   7.650  1.2529  0.4682  0.7721
 3408TIP3    H231784   4.459   4.475   7.635 -0.8739  1.0367 -0.1650
 3409TIP3   OH231785   4.415   6.023   8.188  0.4644  0.3585 -0.4543
 3409TIP3    H131786   4.342   5.971   8.221  0.0870 -0.4007 -2.3747
 3409TIP3    H231787   4.373   6.098   8.146  0.2728 -2.1570 -5.4425
 3410TIP3   OH231788   4.137   5.564   0.144 -0.1490 -0.2408 -0.3969
 3410TIP3    H131789   4.086   5.484   0.136  1.1580 -1.0408 -1.1304
 3410TIP3    H231790   4.181   5.557   0.229  0.3914 -0.5793 -0.6978
 3411TIP3   OH231791   0.668   2.904   7.577  0.3374  0.2263 -0.3200
 3411TIP3    H131792   0.689   2.997   7.562  0.6442  0.2198  0.0689
 3411TIP3    H231793   0.688   2.890   7.669 -1.9184  0.3710  0.2596
 3412TIP3   OH231794   1.892   0.283   0.493 -0.4617 -0.1045  0.7314
 3412TIP3    H131795   1.928   0.208   0.540  1.9633  0.2198 -0.4594
 3412TIP3    H231796   1.948   0.293   0.417 -2.0201  1.6513 -0.2660
 3413TIP3   OH231797   4.117   5.000   8.079 -0.7205 -0.4937 -0.3163
 3413TIP3    H131798   4.024   5.004   8.099 -0.6838 -0.7221 -0.0910
 3413TIP3    H231799   4.126   4.927   8.017 -0.5497 -1.1967  0.5164
 3414TIP3   OH231800   4.117   1.883   0.279  0.5974  0.0273  0.1474
 3414TIP3    H131801   4.029   1.867   0.244  1.3318 -3.1777 -0.5475
 3414TIP3    H231802   4.175   1.876   0.202  1.6541 -0.3187  0.9458
 3415TIP3   OH231803   2.194   2.704   2.044 -0.3632  0.0335  0.1511
 3415TIP3    H131804   2.161   2.789   2.075  0.5941 -0.0480  1.4924
 3415TIP3    H231805   2.288   2.719   2.031 -0.4913 -0.3226 -1.5033
 3416TIP3   OH231806   5.887   3.359   0.905  0.3503 -0.3432 -0.1368
 3416TIP3    H131807   5.804   3.400   0.927  0.7485 -0.3942  1.5541
 3416TIP3    H231808   5.923   3.415   0.835 -0.0432  1.0120  0.7117
 3417TIP3   OH231809   1.581   5.245   0.619  0.1940  0.0473  0.7026
 3417TIP3    H131810   1.510   5.183   0.638  1.1381 -0.5417  2.6351
 3417TIP3    H231811   1.594   5.239   0.525 -1.4989 -0.7206  0.4719
 3418TIP3   OH231812   2.878   3.156   1.464 -0.1473  0.5392  0.1145
 3418TIP3    H131813   2.793   3.179   1.502 -0.5140  1.3993 -1.1407
 3418TIP3    H231814   2.870   3.182   1.372  0.9358 -0.8100 -0.3897
 3419TIP3   OH231815   1.633   5.527   1.681  0.6826  0.3099  0.0843
 3419TIP3    H131816   1.685   5.607   1.690 -0.5801  1.3290 -1.1778
 3419TIP3    H231817   1.548   5.557   1.647 -0.5365 -1.3536  1.4507
 3420TIP3   OH231818   1.099   0.799   0.096 -0.3225 -0.4051  0.2891
 3420TIP3    H131819   1.078   0.721   0.148 -0.4004 -1.0048 -0.6235
 3420TIP3    H231820   1.065   0.779   0.009  0.4800  0.2713 -0.1878
 3421TIP3   OH231821   2.324   5.104   0.361  0.2938  0.1225  0.0522
 3421TIP3    H131822   2.315   5.011   0.342 -0.8549  0.1375  0.4954
 3421TIP3    H231823   2.240   5.143   0.335  0.8059  1.0639 -0.2715
 3422TIP3   OH231824   2.266   5.452   0.851 -0.3053  0.6159  0.0241
 3422TIP3    H131825   2.300   5.532   0.892  0.8983 -0.6894  1.7368
 3422TIP3    H231826   2.221   5.483   0.772  0.3034  2.9473  0.5011
 3423TIP3   OH231827   2.574   2.016   1.952 -0.3636  0.1104 -1.5351
 3423TIP3    H131828   2.619   1.936   1.981  0.5501  1.2057  0.3160
 3423TIP3    H231829   2.532   1.992   1.870  1.5050 -1.7281 -2.0528
 3424TIP3   OH231830   1.659   4.559   2.562 -0.1229  0.1515  0.4546
 3424TIP3    H131831   1.733   4.617   2.546  0.3803 -0.1270  1.6875
 3424TIP3    H231832   1.684   4.477   2.519 -0.1598  0.3631  0.0244
 3425TIP3   OH231833   3.829   4.286   1.608 -0.5886  0.2271 -0.4010
 3425TIP3    H131834   3.791   4.294   1.696  2.0344 -2.6890  1.1987
 3425TIP3    H231835   3.778   4.216   1.566 -0.3453 -0.0248 -0.2789
 3426TIP3   OH231836   6.920   6.479   1.699  0.5809  0.7733  0.4073
 3426TIP3    H131837   6.888   6.567   1.681 -1.3927  0.1909  0.8157
 3426TIP3    H231838   6.986   6.490   1.767  1.7758  2.0955 -0.8916
 3427TIP3   OH231839   1.863   3.581   7.969 -0.2678 -0.7228 -0.8116
 3427TIP3    H131840   1.940   3.637   7.984  0.6517 -2.4121  1.2760
 3427TIP3    H231841   1.791   3.629   8.011 -0.0266  0.0831 -1.2956
 3428TIP3   OH231842   5.694   0.477   1.947  0.3804 -0.4903  0.2796
 3428TIP3    H131843   5.666   0.428   1.870  0.5707 -1.7262  0.9554
 3428TIP3    H231844   5.642   0.557   1.946 -1.2431 -1.5131  0.0632
 3429TIP3   OH231845   6.215   6.143   0.951  0.0205 -0.7940  0.0363
 3429TIP3    H131846   6.289   6.165   1.007 -0.3064 -1.4531  0.7495
 3429TIP3    H231847   6.202   6.221   0.897  1.5424 -0.8678 -0.4622
 3430TIP3   OH231848   4.356   2.730   7.262 -0.4651 -0.2292 -0.1354
 3430TIP3    H131849   4.364   2.824   7.277  0.6508 -0.3843  0.3493
 3430TIP3    H231850   4.263   2.711   7.273 -0.2963  0.2980  2.9226
 3431TIP3   OH231851   2.196   2.698   1.273 -0.1482  0.3120  0.2388
 3431TIP3    H131852   2.250   2.723   1.348 -1.0175 -0.8815  1.3226
 3431TIP3    H231853   2.107   2.717   1.300 -0.4123  0.7989 -0.9097
 3432TIP3   OH231854   2.125   2.515   0.588  0.5956 -0.3683  0.0378
 3432TIP3    H131855   2.205   2.512   0.642  1.2747 -0.3036 -0.9378
 3432TIP3    H231856   2.098   2.607   0.591  1.0673 -0.2092 -0.3301
 3433TIP3   OH231857   3.833   0.962   8.200  0.4250 -0.4944 -1.0695
 3433TIP3    H131858   3.923   0.988   8.217 -0.0019  0.8820 -0.7780
 3433TIP3    H231859   3.784   1.044   8.198 -1.1153 -1.2931  0.5050
 3434TIP3   OH231860   3.573   4.129   1.541 -0.3764 -0.2316 -0.1538
 3434TIP3    H131861   3.605   4.077   1.615 -1.0742 -0.9744 -0.3666
 3434TIP3    H231862   3.480   4.107   1.534 -0.4226  0.1861 -0.9590
 3435TIP3   OH231863   1.472   6.356   0.530  0.3168  0.7144 -0.3488
 3435TIP3    H131864   1.489   6.269   0.495  1.6854  0.6813  0.3509
 3435TIP3    H231865   1.378   6.358   0.545  0.2042 -0.4671 -0.8112
 3436TIP3   OH231866   0.707   2.414   2.021  0.0697 -0.2822 -0.2329
 3436TIP3    H131867   0.732   2.322   2.013 -0.2806 -0.3068 -1.2270
 3436TIP3    H231868   0.613   2.415   2.001 -0.3300  0.0634  1.5122
 3437TIP3   OH231869   2.223   6.931   0.393  0.1573 -0.0733 -0.0089
 3437TIP3    H131870   2.173   6.962   0.468  0.6305  0.2875  0.1630
 3437TIP3    H231871   2.279   6.861   0.427 -1.0273 -1.2629 -0.4306
 3438TIP3   OH231872   4.979   6.624   0.862 -0.2924 -0.1361  0.1248
 3438TIP3    H131873   4.925   6.700   0.839 -0.1002  0.2253  0.8287
 3438TIP3    H231874   5.065   6.662   0.883 -0.8617 -0.2162  2.9824
 3439TIP3   OH231875   6.226   1.980   8.359 -0.2652 -0.4394 -0.4721
 3439TIP3    H131876   6.320   1.963   8.364 -0.1080  0.8696  2.1974
 3439TIP3    H231877   6.219   2.060   8.307  0.1839  0.0036  0.1389
 3440TIP3   OH231878   5.212   5.768   1.054  0.0420 -0.0160 -0.1097
 3440TIP3    H131879   5.220   5.684   1.009 -0.2092  0.2216 -0.6048
 3440TIP3    H231880   5.118   5.785   1.055  0.1091  0.3650 -0.2119
 3441TIP3   OH231881   1.288   3.092   7.195 -0.1100  0.0371  0.0132
 3441TIP3    H131882   1.196   3.085   7.170  0.0079  1.3782 -0.8637
 3441TIP3    H231883   1.330   3.016   7.155 -0.3600  0.8730 -1.9536
 3442TIP3   OH231884   5.926   5.852   1.375 -0.4895 -0.3161 -0.2665
 3442TIP3    H131885   5.975   5.926   1.339  1.3284 -1.1018  0.4445
 3442TIP3    H231886   5.841   5.857   1.332 -0.7761  2.6881  0.4140
 3443TIP3   OH231887   5.359   0.419   1.998 -0.4762 -0.1752 -0.5329
 3443TIP3    H131888   5.353   0.482   1.926 -1.4936 -3.1789 -3.3436
 3443TIP3    H231889   5.448   0.385   1.994 -0.7584 -0.8921 -0.9206
 3444TIP3   OH231890   3.239   0.473   2.635  0.4615  0.5397  0.1295
 3444TIP3    H131891   3.219   0.506   2.722  0.7200  2.0739 -0.3533
 3444TIP3    H231892   3.196   0.387   2.631  0.9532  0.1696  1.9478
 3445TIP3   OH231893   6.284   4.339   1.740 -0.5393  0.8873  0.2095
 3445TIP3    H131894   6.256   4.430   1.734 -0.8788  0.6884 -2.3390
 3445TIP3    H231895   6.379   4.344   1.753 -0.6822  1.5821  1.0608
 3446TIP3   OH231896   1.269   0.103   8.345 -0.3349 -0.6661 -0.5768
 3446TIP3    H131897   1.296   0.015   8.321 -0.3595 -0.4396 -1.4742
 3446TIP3    H231898   1.192   0.121   8.290  0.0118  0.1196 -0.8208
 3447TIP3   OH231899   3.626   4.028   0.365 -0.3678 -0.5567 -0.2045
 3447TIP3    H131900   3.713   4.005   0.335 -0.1589 -0.2971  0.1993
 3447TIP3    H231901   3.626   4.124   0.369 -0.6410 -0.5597 -0.1178
 3448TIP3   OH231902   6.844   1.740   0.559 -0.1064 -0.1004 -0.5776
 3448TIP3    H131903   6.896   1.675   0.511 -0.5269 -0.2613 -0.8203
 3448TIP3    H231904   6.754   1.721   0.536 -0.6063 -1.9170  2.3090
 3449TIP3   OH231905   1.659   6.625   8.146 -0.1663 -0.5610  0.1990
 3449TIP3    H131906   1.581   6.570   8.141 -0.8576  0.4812 -1.5785
 3449TIP3    H231907   1.712   6.586   8.216 -2.4213 -1.0793  1.7069
 3450TIP3   OH231908   1.631   4.449   8.275 -0.1941  0.3355 -0.2656
 3450TIP3    H131909   1.569   4.518   8.251 -2.6163 -1.3667  0.6808
 3450TIP3    H231910   1.684   4.436   8.197 -0.8449  2.0265 -1.0376
 3451TIP3   OH231911   5.580   4.003   0.540 -0.4823  0.6303 -0.6184
 3451TIP3    H131912   5.631   3.990   0.620 -1.6067 -0.6968 -0.0863
 3451TIP3    H231913   5.489   4.007   0.569 -1.0170 -0.9586 -1.9034
 3452TIP3   OH231914   4.745   6.869   3.097  0.2146 -0.0587  0.3752
 3452TIP3    H131915   4.802   6.908   3.163  0.0338 -0.2483  0.6492
 3452TIP3    H231916   4.802   6.809   3.049  0.3782  0.1791  0.2704
 3453TIP3   OH231917   5.302   4.310   2.025  0.0822  0.4192 -0.2137
 3453TIP3    H131918   5.381   4.264   1.998  0.8660  1.2671  0.5481
 3453TIP3    H231919   5.289   4.285   2.116 -0.4548  0.3849 -0.2976
 3454TIP3   OH231920   0.705   3.170   2.129  0.3377 -0.2499  0.1358
 3454TIP3    H131921   0.680   3.095   2.075  1.3214 -0.6794  0.2500
 3454TIP3    H231922   0.641   3.171   2.199  0.9020 -1.6264  0.7054
 3455TIP3   OH231923   5.642   1.401   7.363 -0.1406  0.2841 -0.3274
 3455TIP3    H131924   5.614   1.437   7.279 -2.4908 -0.3906  0.0907
 3455TIP3    H231925   5.722   1.353   7.343  0.3102  1.5775 -1.8231
 3456TIP3   OH231926   0.313   6.925   0.954  0.0660 -0.0695 -0.0266
 3456TIP3    H131927   0.359   6.976   0.888  0.7388 -1.4545 -0.6762
 3456TIP3    H231928   0.293   6.842   0.911 -2.4016  0.1708  0.4820
 3457TIP3   OH231929   0.142   1.101   1.201 -0.1634 -0.3467  0.0183
 3457TIP3    H131930   0.199   1.143   1.136 -1.1925 -1.1062 -1.4346
 3457TIP3    H231931   0.194   1.028   1.235  0.1657 -0.3191 -0.4095
 3458TIP3   OH231932   0.734   5.989   7.788  0.2362  0.0478 -0.5145
 3458TIP3    H131933   0.760   6.041   7.712 -0.7052 -1.2879 -1.7874
 3458TIP3    H231934   0.712   5.903   7.753 -1.2694 -0.2951  1.1248
 3459TIP3   OH231935   3.923   3.970   2.783  0.3396  0.4467  0.2589
 3459TIP3    H131936   3.976   3.988   2.860  0.3463 -1.7516  0.8107
 3459TIP3    H231937   3.879   3.887   2.802 -1.6533  1.1219 -1.0636
 3460TIP3   OH231938   3.072   1.052   6.275 -0.1048  0.2561  0.4820
 3460TIP3    H131939   3.138   0.983   6.263  0.6335  0.6584  1.9280
 3460TIP3    H231940   3.118   1.121   6.324 -1.1922  1.2074  0.2113
 3461TIP3   OH231941   0.591   4.144   8.390 -0.0130  0.4217  0.1778
 3461TIP3    H131942   0.666   4.123   8.334 -0.8920  1.4602 -1.4674
 3461TIP3    H231943   0.565   4.059   8.427 -1.3312 -0.9967 -3.5173
 3462TIP3   OH231944   2.765   6.858   7.543 -0.3109 -0.0338  0.3319
 3462TIP3    H131945   2.763   6.839   7.449 -0.6034  0.4068  0.2462
 3462TIP3    H231946   2.858   6.876   7.561  0.0490 -1.8587  0.4947
 3463TIP3   OH231947   6.549   0.382   8.244 -0.0025  0.8638  0.5786
 3463TIP3    H131948   6.524   0.393   8.336  1.3023  0.5340  0.9993
 3463TIP3    H231949   6.622   0.321   8.247  1.2787  2.2901 -0.5250
 3464TIP3   OH231950   3.548   2.757   2.705 -0.1683 -0.3416 -0.1608
 3464TIP3    H131951   3.460   2.768   2.741 -1.4302 -0.4665 -3.0115
 3464TIP3    H231952   3.594   2.704   2.771 -1.1820  2.1606  2.8247
 3465TIP3   OH231953   2.765   2.486   2.398  0.2415 -0.5756  0.3893
 3465TIP3    H131954   2.669   2.495   2.402  0.4661  2.2250  2.5332
 3465TIP3    H231955   2.787   2.431   2.473  0.4203  1.9062  2.3197
 3466TIP3   OH231956   6.200   4.367   8.047 -0.3069  0.6579 -0.2240
 3466TIP3    H131957   6.160   4.281   8.063  1.0557 -0.0957 -0.7152
 3466TIP3    H231958   6.171   4.421   8.121  0.4181 -0.8116  1.2022
 3467TIP3   OH231959   0.719   5.649   1.162 -0.0724 -0.0458  0.2294
 3467TIP3    H131960   0.705   5.605   1.245  1.0294  1.1202  1.0759
 3467TIP3    H231961   0.797   5.607   1.125 -0.0266  0.0461  0.2203
 3468TIP3   OH231962   4.160   3.634   0.817  0.0627  0.2316 -0.3886
 3468TIP3    H131963   4.133   3.569   0.752 -0.9757 -0.3281  0.5871
 3468TIP3    H231964   4.256   3.638   0.808 -0.0714  0.3390 -2.0914
 3469TIP3   OH231965   0.433   6.174   7.206  0.0497  0.3294 -0.3545
 3469TIP3    H131966   0.405   6.261   7.233 -0.8524 -0.1297  0.2642
 3469TIP3    H231967   0.521   6.165   7.241 -0.6701  0.1811  1.5626
 3470TIP3   OH231968   2.151   4.352   8.330 -0.0551 -0.0878 -0.2557
 3470TIP3    H131969   2.158   4.447   8.336 -0.0886 -0.0364 -1.0127
 3470TIP3    H231970   2.069   4.332   8.375  0.3628  0.1476  0.6549
 3471TIP3   OH231971   0.861   6.047   2.063 -0.4323  0.2801  0.1041
 3471TIP3    H131972   0.923   6.014   2.128 -0.5800 -0.6561 -0.2101
 3471TIP3    H231973   0.816   5.969   2.032 -0.9007  0.8084 -0.5695
 3472TIP3   OH231974   6.015   6.112   1.590  0.3091 -0.3361 -0.4669
 3472TIP3    H131975   5.926   6.077   1.596  0.6856 -1.3025 -0.4157
 3472TIP3    H231976   6.011   6.194   1.641 -0.7424  0.0604 -1.1427
 3473TIP3   OH231977   5.601   2.715   7.900  0.7117  0.3718 -0.0313
 3473TIP3    H131978   5.591   2.671   7.815  0.1309  0.7980 -0.1830
 3473TIP3    H231979   5.574   2.649   7.964  0.5359  0.2648 -0.2140
 3474TIP3   OH231980   5.554   2.580   8.410 -0.2378  0.1641  0.1398
 3474TIP3    H131981   5.540   2.566   8.503 -0.2001  1.8912  0.4349
 3474TIP3    H231982   5.646   2.556   8.396  0.0065  0.7373  0.7297
 3475TIP3   OH231983   4.078   5.365   6.955  0.4835  0.1090 -0.4625
 3475TIP3    H131984   4.059   5.336   6.865  0.0465 -0.5183 -0.1752
 3475TIP3    H231985   4.040   5.296   7.010  1.8130 -0.1269  0.1775
 3476TIP3   OH231986   2.684   1.285   7.458  0.3504  0.2160 -0.8001
 3476TIP3    H131987   2.709   1.290   7.550 -1.2350  2.6032 -0.3929
 3476TIP3    H231988   2.739   1.350   7.414 -0.4127  0.6729 -1.1069
 3477TIP3   OH231989   1.106   3.131   0.144 -0.7089  0.3806 -0.2076
 3477TIP3    H131990   1.194   3.098   0.163 -1.1992 -0.4732  0.6130
 3477TIP3    H231991   1.086   3.097   0.056 -0.5238 -0.0526 -0.0837
 3478TIP3   OH231992   4.974   0.860   2.646  0.0958 -0.4362 -0.8527
 3478TIP3    H131993   4.910   0.902   2.703  1.4339  1.0303 -0.3580
 3478TIP3    H231994   4.951   0.889   2.558  0.0820  0.1199 -0.6696
 3479TIP3   OH231995   2.859   3.035   0.746 -0.0935  0.4714 -0.2929
 3479TIP3    H131996   2.878   3.079   0.663  1.0638  2.5289  0.9717
 3479TIP3    H231997   2.912   2.956   0.744 -0.3196  0.3287 -1.6262
 3480TIP3   OH231998   1.770   0.995   0.032  0.5366 -0.1531  0.2906
 3480TIP3    H131999   1.802   1.050   0.104  2.4325  1.2680 -1.4984
 3480TIP3    H232000   1.674   1.001   0.038  0.5288  4.3023 -0.2917
 3481TIP3   OH232001   1.642   0.186   0.662 -1.2398 -0.1753  0.3542
 3481TIP3    H132002   1.709   0.252   0.646 -1.3864 -0.3565 -1.1259
 3481TIP3    H232003   1.639   0.177   0.757  0.6899 -0.0207  0.4673
 3482TIP3   OH232004   5.328   2.753   0.976 -0.0987 -0.2855  0.2856
 3482TIP3    H132005   5.379   2.822   1.019  0.8332 -0.3907 -0.6075
 3482TIP3    H232006   5.288   2.797   0.901 -0.0749 -0.5526  0.1171
 3483TIP3   OH232007   4.137   1.511   1.441 -0.0035  0.4478  0.3302
 3483TIP3    H132008   4.201   1.559   1.388  0.3073  0.1292  0.4113
 3483TIP3    H232009   4.113   1.572   1.511 -1.7940  1.5744 -1.1698
 3484TIP3   OH232010   3.943   0.856   7.805  0.3708 -0.0965 -0.4268
 3484TIP3    H132011   3.909   0.942   7.831 -1.2789 -0.7897 -0.1586
 3484TIP3    H232012   4.001   0.874   7.731  0.0351  1.2391 -0.3906
 3485TIP3   OH232013   4.950   5.738   1.046 -0.5528  0.0553 -0.1003
 3485TIP3    H132014   4.868   5.734   1.096 -0.9518 -0.5330 -0.7737
 3485TIP3    H232015   4.926   5.780   0.964  0.4654  2.6519  0.8348
 3486TIP3   OH232016   0.313   1.024   1.724  0.4808 -0.8393  0.1277
 3486TIP3    H132017   0.318   0.946   1.669 -0.5910 -0.4679 -0.5095
 3486TIP3    H232018   0.250   1.001   1.792 -1.9225  0.3260 -1.5630
 3487TIP3   OH232019   3.481   4.970   0.047  0.5329 -0.4827  0.1083
 3487TIP3    H132020   3.398   4.998   0.086  0.9930  1.2702 -0.0914
 3487TIP3    H232021   3.496   4.883   0.083  0.2557  0.4764  2.8111
 3488TIP3   OH232022   2.032   3.094   2.449  0.7341  0.5692 -0.2086
 3488TIP3    H132023   2.044   3.057   2.537  2.1330 -0.1513 -0.6690
 3488TIP3    H232024   2.040   3.188   2.461 -1.7291  0.7271  0.8109
 3489TIP3   OH232025   2.652   6.923   7.828  0.2343 -0.5167  1.1128
 3489TIP3    H132026   2.561   6.924   7.859 -0.3259  2.4096 -0.2601
 3489TIP3    H232027   2.645   6.934   7.733  2.0356 -1.6882  0.7928
 3490TIP3   OH232028   2.350   5.961   1.082  0.1596  0.0831 -0.2763
 3490TIP3    H132029   2.329   6.031   1.019 -0.9159  1.0939  1.1244
 3490TIP3    H232030   2.420   5.998   1.136  2.1210 -1.3356 -1.7078
 3491TIP3   OH232031   4.489   0.973   1.056  0.2763 -0.1099  0.1648
 3491TIP3    H132032   4.421   1.040   1.061 -0.8342 -1.1001 -1.1346
 3491TIP3    H232033   4.517   0.961   1.147 -1.0085  0.5862  0.6689
 3492TIP3   OH232034   2.103   4.186   2.960 -0.3738 -0.1388 -0.3338
 3492TIP3    H132035   2.145   4.176   3.045  0.8948 -0.1789 -0.9352
 3492TIP3    H232036   2.158   4.250   2.914 -0.0500 -1.3442 -1.7039
 3493TIP3   OH232037   1.133   2.984   2.751 -0.4321  0.0733 -0.6278
 3493TIP3    H132038   1.142   3.039   2.830  1.0405 -0.1050 -0.6348
 3493TIP3    H232039   1.149   2.895   2.782 -0.2535 -0.0449 -1.0483
 3494TIP3   OH232040   4.289   1.973   8.125 -0.4981  0.0106  0.3377
 3494TIP3    H132041   4.346   1.909   8.170 -1.2446 -1.1691 -0.3445
 3494TIP3    H232042   4.347   2.017   8.063 -0.3745 -1.5058 -0.6848
 3495TIP3   OH232043   6.237   4.564   1.551  0.3127  0.4524 -0.3440
 3495TIP3    H132044   6.201   4.543   1.465  0.8436  1.0573 -0.7244
 3495TIP3    H232045   6.320   4.517   1.556  0.2315  0.3297 -0.1152
 3496TIP3   OH232046   4.769   4.573   7.435 -0.0918 -0.1929 -0.0719
 3496TIP3    H132047   4.794   4.590   7.525  0.5932 -0.1489 -0.2676
 3496TIP3    H232048   4.811   4.490   7.413 -1.1861 -0.7874  0.0035
 3497TIP3   OH232049   4.662   4.844   0.533 -0.4608  0.2216 -0.2184
 3497TIP3    H132050   4.691   4.917   0.478  0.4443 -0.8148 -1.1750
 3497TIP3    H232051   4.617   4.885   0.607 -1.9710  1.6436 -1.8640
 3498TIP3   OH232052   5.580   3.196   8.091  0.2009  0.2997  0.5774
 3498TIP3    H132053   5.582   3.215   8.185  0.7084 -0.1055  0.6513
 3498TIP3    H232054   5.634   3.264   8.052  1.3907 -0.5105  0.7630
 3499TIP3   OH232055   5.263   6.390   2.361 -0.4641 -0.2729 -0.3598
 3499TIP3    H132056   5.356   6.412   2.352  0.0552 -2.6023 -1.4380
 3499TIP3    H232057   5.248   6.391   2.455  1.2800 -2.0498 -0.0020
 3500TIP3   OH232058   5.982   5.670   1.109 -0.1156  0.6538 -0.1358
 3500TIP3    H132059   5.979   5.643   1.017  0.6229  1.1800 -0.3214
 3500TIP3    H232060   5.958   5.763   1.108  1.3878  1.0714  0.0063
 3501TIP3   OH232061   6.462   5.630   2.252  0.2560 -0.3598  0.0609
 3501TIP3    H132062   6.492   5.664   2.336 -1.2079  0.1259  0.4189
 3501TIP3    H232063   6.428   5.543   2.273 -1.6245  0.3953  0.3215
 3502TIP3   OH232064   0.553   2.037   1.921  0.3805  0.0059 -0.0130
 3502TIP3    H132065   0.540   2.131   1.932 -1.1784 -0.2719  0.9572
 3502TIP3    H232066   0.586   2.007   2.006 -1.2500 -0.5952  0.4636
 3503TIP3   OH232067   1.449   0.108   0.261  0.4358 -0.1980 -0.1176
 3503TIP3    H132068   1.428   0.131   0.352  0.6060 -0.3159 -0.0482
 3503TIP3    H232069   1.400   0.171   0.208  0.1419 -0.2817  0.0509
 3504TIP3   OH232070   3.474   4.832   0.788  0.1032  0.0291 -0.1748
 3504TIP3    H132071   3.515   4.879   0.860 -1.7553  0.2033  0.8365
 3504TIP3    H232072   3.382   4.858   0.791 -0.6444 -2.2671 -0.7009
 3505TIP3   OH232073   0.380   3.081   1.792 -0.1564 -0.3233 -0.3996
 3505TIP3    H132074   0.442   3.143   1.754 -1.2453  0.4713 -0.9236
 3505TIP3    H232075   0.424   3.048   1.870  1.5760 -0.9630 -1.5813
 3506TIP3   OH232076   3.338   5.202   1.296  0.2013  0.2378 -0.1279
 3506TIP3    H132077   3.398   5.259   1.345  0.3158  0.3208 -0.3664
 3506TIP3    H232078   3.368   5.114   1.317  0.4936  0.2804 -0.3526
 3507TIP3   OH232079   2.456   6.024   8.082 -0.5000 -0.1989  0.4166
 3507TIP3    H132080   2.431   5.938   8.116 -1.6563 -1.0170 -2.2238
 3507TIP3    H232081   2.547   6.034   8.107 -0.3427 -2.1956  0.8207
 3508TIP3   OH232082   3.800   2.662   8.412  0.5355  0.0981 -0.3348
 3508TIP3    H132083   3.773   2.589   8.468 -1.4445 -0.0093 -1.3290
 3508TIP3    H232084   3.747   2.736   8.442  1.1790  0.6574 -0.5482
 3509TIP3   OH232085   6.210   2.991   1.057 -0.3335  0.3190 -0.1933
 3509TIP3    H132086   6.172   2.918   1.008 -0.6265 -0.1794  0.7568
 3509TIP3    H232087   6.249   2.951   1.135 -0.1792  1.1347  0.1642
 3510TIP3   OH232088   5.392   2.776   7.379  0.4644  0.3181  0.9732
 3510TIP3    H132089   5.372   2.685   7.400  1.2309  0.6338  3.3748
 3510TIP3    H232090   5.307   2.816   7.361  0.0048 -0.6143  1.0311
 3511TIP3   OH232091   2.711   4.664   0.125 -0.2222  0.4736 -0.7445
 3511TIP3    H132092   2.779   4.650   0.191  0.2134 -1.1001 -1.4850
 3511TIP3    H232093   2.755   4.713   0.056  0.0884 -0.2624 -1.0774
 3512TIP3   OH232094   3.980   3.180   2.704 -0.1018  0.4736 -0.0076
 3512TIP3    H132095   4.071   3.210   2.706  0.2813 -0.6535  0.8392
 3512TIP3    H232096   3.936   3.232   2.772  0.3181 -0.1638  0.7610
 3513TIP3   OH232097   3.401   6.184   1.598 -0.5435  0.9296  0.5416
 3513TIP3    H132098   3.435   6.177   1.509  0.5078 -1.7112  1.0593
 3513TIP3    H232099   3.474   6.218   1.649  0.1543 -1.0748  0.9751
 3514TIP3   OH232100   6.348   5.515   8.136  0.1721 -0.0673  0.0227
 3514TIP3    H132101   6.315   5.434   8.173 -1.7920  0.1156 -1.1864
 3514TIP3    H232102   6.442   5.500   8.125 -0.1541 -2.2043 -0.2125
 3515TIP3   OH232103   0.284   2.696   7.991  0.3031 -0.1161  0.1481
 3515TIP3    H132104   0.322   2.634   8.053  1.7989  0.3026 -0.3062
 3515TIP3    H232105   0.311   2.663   7.905  1.9364  1.6354 -0.0699
 3516TIP3   OH232106   3.824   1.199   2.524  0.3754  0.2872  0.2998
 3516TIP3    H132107   3.820   1.187   2.619 -0.2074  0.0082  0.2466
 3516TIP3    H232108   3.790   1.117   2.489 -0.7275  0.9123 -0.1332
 3517TIP3   OH232109   2.006   6.175   7.748 -0.5222 -0.3215 -0.0531
 3517TIP3    H132110   1.971   6.255   7.788  0.1948 -1.0474  2.1893
 3517TIP3    H232111   2.078   6.205   7.693 -1.1533  0.6841 -0.3643
 3518TIP3   OH232112   4.200   3.139   7.397  0.4528 -0.2749 -0.1520
 3518TIP3    H132113   4.182   3.219   7.347  1.4242  1.1854  1.7005
 3518TIP3    H232114   4.114   3.099   7.408 -0.3919  1.6085  0.5930
 3519TIP3   OH232115   6.523   4.118   7.201  0.2766  0.1199  0.2068
 3519TIP3    H132116   6.553   4.056   7.134  0.5741  0.7134 -0.2181
 3519TIP3    H232117   6.587   4.110   7.271  0.9160  0.7109 -0.3030
 3520TIP3   OH232118   4.621   3.197   1.125 -0.3564 -0.3767 -0.6449
 3520TIP3    H132119   4.708   3.160   1.117 -0.3196  0.0133 -2.6736
 3520TIP3    H232120   4.564   3.135   1.079 -0.9683 -0.0747 -0.3100
 3521TIP3   OH232121   1.062   4.340   2.078 -0.0138 -0.1774  0.1280
 3521TIP3    H132122   1.121   4.354   2.004  0.0052 -0.4795  0.0841
 3521TIP3    H232123   0.975   4.358   2.044 -0.0047 -0.3134  0.0327
 3522TIP3   OH232124   5.368   2.156   7.968 -0.5654 -0.2832 -0.7233
 3522TIP3    H132125   5.402   2.150   7.879 -0.3271 -1.7588 -0.5584
 3522TIP3    H232126   5.431   2.211   8.015  0.7382 -1.6469 -0.8299
 3523TIP3   OH232127   3.856   4.566   1.309 -0.0582  0.0581 -0.4160
 3523TIP3    H132128   3.902   4.483   1.301 -0.4662 -0.0423 -2.0941
 3523TIP3    H232129   3.820   4.565   1.398  1.9791 -0.4504  0.4626
 3524TIP3   OH232130   1.420   0.813   0.414 -0.3198  0.0118 -0.5328
 3524TIP3    H132131   1.471   0.877   0.464 -0.1447  0.1450 -0.8810
 3524TIP3    H232132   1.463   0.729   0.432  0.0724  0.1328 -0.8843
 3525TIP3   OH232133   1.657   2.484   1.919 -0.6063 -0.0290  0.1062
 3525TIP3    H132134   1.723   2.499   1.987 -0.7585 -0.5448  0.3716
 3525TIP3    H232135   1.646   2.389   1.917  1.2009 -0.2652 -2.3374
 3526TIP3   OH232136   3.390   4.708   7.215  0.2008  0.1816  0.0209
 3526TIP3    H132137   3.317   4.760   7.249 -2.2672 -2.9933  0.0498
 3526TIP3    H232138   3.383   4.717   7.120  0.2953  0.5042  0.0426
 3527TIP3   OH232139   5.657   4.515   7.007 -0.0339  0.5671 -0.8319
 3527TIP3    H132140   5.647   4.492   7.099  0.1456  0.7785 -0.7582
 3527TIP3    H232141   5.738   4.470   6.981 -0.4998 -0.1383 -1.0990
 3528TIP3   OH232142   2.297   2.203   2.155 -0.0336 -0.0706 -0.4056
 3528TIP3    H132143   2.262   2.291   2.143  0.0271 -0.1334 -1.0747
 3528TIP3    H232144   2.391   2.212   2.140  0.2130  0.0255  1.0027
 3529TIP3   OH232145   2.195   4.622   8.406  0.2534 -0.2052  0.2046
 3529TIP3    H132146   2.218   4.654   8.493 -2.2429 -1.7914  1.5405
 3529TIP3    H232147   2.172   4.701   8.357  1.5389  0.6940  0.9895
 3530TIP3   OH232148   1.940   5.589   0.909  0.2805 -0.6421 -0.6075
 3530TIP3    H132149   2.006   5.553   0.849 -0.2989 -0.7667 -1.1725
 3530TIP3    H232150   1.992   5.632   0.977  0.9584 -1.1542 -0.7860
 3531TIP3   OH232151   2.473   2.523   2.608 -0.1442 -0.3083  0.4462
 3531TIP3    H132152   2.549   2.572   2.638 -0.0698  0.4380 -0.8676
 3531TIP3    H232153   2.439   2.480   2.687  2.4155 -1.8198  0.8680
 3532TIP3   OH232154   3.952   6.198   3.042  0.3780 -0.2748 -0.1686
 3532TIP3    H132155   3.922   6.238   3.123  0.2783 -0.9095  0.1146
 3532TIP3    H232156   3.972   6.272   2.985  0.8790  0.1948  0.5878
 3533TIP3   OH232157   5.184   5.606   3.199  0.3076 -0.2353 -0.1611
 3533TIP3    H132158   5.217   5.534   3.254  1.9295 -0.1571 -0.9703
 3533TIP3    H232159   5.089   5.602   3.210  0.4843 -1.1266  1.5094
 3534TIP3   OH232160   5.654   4.994   0.064  0.2170  0.0784 -0.7660
 3534TIP3    H132161   5.747   5.017   0.066  0.4400 -0.5445 -2.4607
 3534TIP3    H232162   5.649   4.907   0.103  0.5013 -0.3112 -1.5818
 3535TIP3   OH232163   3.819   6.677   6.668 -0.0772  0.3590  0.1160
 3535TIP3    H132164   3.892   6.706   6.613 -1.9723  1.9025 -1.7852
 3535TIP3    H232165   3.770   6.757   6.686 -1.6251 -0.7001  0.8100
 3536TIP3   OH232166   0.173   6.597   7.351  0.0920 -0.1037  0.1809
 3536TIP3    H132167   0.208   6.682   7.322 -4.0565  1.2858 -1.5559
 3536TIP3    H232168   0.117   6.618   7.426 -1.1476 -1.1932 -0.3942
 3537TIP3   OH232169   5.598   5.281   3.131 -0.0910  0.5540  0.0335
 3537TIP3    H132170   5.525   5.338   3.153  0.5695  1.0899  0.9461
 3537TIP3    H232171   5.676   5.329   3.160  0.4876 -0.7936  0.8425
 3538TIP3   OH232172   1.862   2.485   8.038 -0.3259  0.0005  0.6056
 3538TIP3    H132173   1.902   2.518   8.118 -1.7830 -0.9132  1.7731
 3538TIP3    H232174   1.844   2.393   8.056 -0.8433 -0.1923 -0.7186
 3539TIP3   OH232175   4.176   2.254   2.097  0.2933  0.2618  0.1563
 3539TIP3    H132176   4.237   2.237   2.025  0.1968  1.1263 -0.1438
 3539TIP3    H232177   4.229   2.301   2.162  0.5872 -1.2017  1.0160
 3540TIP3   OH232178   2.338   4.735   1.801  0.7009  0.6119 -0.1315
 3540TIP3    H132179   2.272   4.693   1.746  0.1045 -0.2600  1.2148
 3540TIP3    H232180   2.299   4.818   1.826 -0.1925 -0.1855  1.1996
 3541TIP3   OH232181   2.070   1.055   1.382 -0.6388 -0.1217 -0.0595
 3541TIP3    H132182   2.165   1.051   1.377 -0.6392 -0.1022 -0.0777
 3541TIP3    H232183   2.041   0.968   1.355 -0.5685 -0.5784  1.2371
 3542TIP3   OH232184   6.763   1.524   1.004  0.3000 -0.2578 -0.1388
 3542TIP3    H132185   6.785   1.597   1.062 -0.7993  0.1760 -0.2375
 3542TIP3    H232186   6.845   1.504   0.958  0.3488  1.7478 -1.0328
 3543TIP3   OH232187   4.643   2.757   0.220  0.1780  0.5857 -0.5496
 3543TIP3    H132188   4.604   2.806   0.147 -0.3287 -0.3164 -0.9089
 3543TIP3    H232189   4.581   2.769   0.292  0.5768  1.3102 -0.3161
 3544TIP3   OH232190   1.181   1.758   2.462 -0.2874 -0.3975 -0.0383
 3544TIP3    H132191   1.200   1.722   2.549 -0.4467  1.4525  0.8131
 3544TIP3    H232192   1.100   1.715   2.435  0.2980 -1.7371  0.2555
 3545TIP3   OH232193   0.026   2.241   0.203 -0.3717  0.1383  0.0389
 3545TIP3    H132194  -0.029   2.163   0.215 -0.1034 -0.7489 -3.3459
 3545TIP3    H232195  -0.035   2.314   0.206 -1.5591 -0.6874 -1.7946
 3546TIP3   OH232196   3.057   1.154   1.752  0.1504  0.5134 -0.4319
 3546TIP3    H132197   3.062   1.068   1.709  0.3481  0.1560  0.2867
 3546TIP3    H232198   3.027   1.134   1.840 -0.9463  1.3043 -0.6057
 3547TIP3   OH232199   6.699   0.339   6.702  0.0800  0.2749  0.4261
 3547TIP3    H132200   6.621   0.338   6.757  0.1328  0.4760  0.5028
 3547TIP3    H232201   6.724   0.431   6.696 -0.3214  0.3320 -0.4994
 3548TIP3   OH232202   6.464   0.510   2.303 -0.0078 -0.3357 -0.3856
 3548TIP3    H132203   6.546   0.519   2.352  0.0009 -0.5166 -0.3652
 3548TIP3    H232204   6.480   0.438   2.243 -0.0662 -0.2028 -0.5608
 3549TIP3   OH232205   4.171   0.821   1.866  0.9925  0.1077 -0.1877
 3549TIP3    H132206   4.105   0.869   1.817  2.5954  1.1428 -1.4500
 3549TIP3    H232207   4.127   0.740   1.893 -0.4301  0.1990 -2.0251
 3550TIP3   OH232208   1.091   5.208   0.917 -0.0938 -0.0142  0.1318
 3550TIP3    H132209   1.171   5.260   0.903  0.2180 -0.3885  0.5029
 3550TIP3    H232210   1.078   5.211   1.012 -2.8409  3.5003 -0.1341
 3551TIP3   OH232211   5.090   3.542   1.018 -0.5981 -0.4697 -0.0533
 3551TIP3    H132212   5.032   3.472   0.990 -0.1114 -0.3232 -1.4852
 3551TIP3    H232213   5.038   3.622   1.008  0.3822 -0.1161 -3.2119
 3552TIP3   OH232214   5.679   5.959   7.902 -0.7337 -0.0841 -0.4002
 3552TIP3    H132215   5.755   6.014   7.879 -0.6837  0.6197  1.2626
 3552TIP3    H232216   5.682   5.886   7.841  1.9154 -0.6205  0.2554
 3553TIP3   OH232217   0.745   6.337   0.407  0.0130 -0.2229  0.2146
 3553TIP3    H132218   0.711   6.333   0.497 -2.6855  0.4235 -0.6814
 3553TIP3    H232219   0.701   6.266   0.361 -1.0239  1.3052 -1.2727
 3554TIP3   OH232220   2.987   2.870   2.140  0.2196 -0.5571  0.4845
 3554TIP3    H132221   2.945   2.951   2.167 -0.7444 -0.9393  0.1762
 3554TIP3    H232222   2.963   2.806   2.208  1.4079 -0.4663  1.0053
 3555TIP3   OH232223   6.212   0.007   0.658  0.5062  0.3737 -0.2239
 3555TIP3    H132224   6.142   0.059   0.619  0.1073 -1.0946 -1.5725
 3555TIP3    H232225   6.293   0.041   0.619  0.5285  1.6733  0.8851
 3556TIP3   OH232226   2.776   1.458   0.325 -0.2710 -0.4007  0.3306
 3556TIP3    H132227   2.868   1.457   0.353  0.3536 -0.3657 -1.6074
 3556TIP3    H232228   2.733   1.517   0.387  1.0188 -0.3200  1.1958
 3557TIP3   OH232229   1.510   2.212   2.658  0.0991 -0.1063  0.3325
 3557TIP3    H132230   1.545   2.299   2.677 -0.8549  0.4517 -0.4319
 3557TIP3    H232231   1.469   2.184   2.740  1.3627 -0.3281  0.9183
 3558TIP3   OH232232   2.366   1.278   1.470 -0.0835  0.8005 -0.2280
 3558TIP3    H132233   2.280   1.297   1.433  0.1572  0.8687 -0.7546
 3558TIP3    H232234   2.427   1.332   1.419  0.5016 -0.6498 -1.1065
 3559TIP3   OH232235   5.680   3.058   0.061 -0.3717  0.1909 -0.8138
 3559TIP3    H132236   5.699   3.112   0.137  0.4774 -0.0042 -0.8803
 3559TIP3    H232237   5.668   3.121  -0.011 -0.4115  0.3334 -0.6823
 3560TIP3   OH232238   3.025   2.843   0.929 -0.2991 -0.4226  0.2931
 3560TIP3    H132239   3.068   2.863   0.846 -0.2522 -0.7708  0.2289
 3560TIP3    H232240   3.094   2.803   0.982 -0.1860  0.3205  0.7080
 3561TIP3   OH232241   4.858   2.300   1.643 -0.4557 -0.1775 -0.1649
 3561TIP3    H132242   4.878   2.206   1.641 -1.2534 -0.4233  1.8703
 3561TIP3    H232243   4.831   2.320   1.553 -0.3047 -1.8979 -0.6314
 3562TIP3   OH232244   5.761   0.235   2.299  0.2026 -0.2874 -0.2665
 3562TIP3    H132245   5.805   0.295   2.239  0.9184  0.3333  0.8429
 3562TIP3    H232246   5.701   0.291   2.349 -0.4786 -0.8166 -0.4754
 3563TIP3   OH232247   1.819   0.508   1.050 -0.3853 -0.0286  0.2912
 3563TIP3    H132248   1.847   0.517   0.959 -1.9154  0.2285 -0.1866
 3563TIP3    H232249   1.725   0.522   1.047 -0.6547 -1.2847  1.7396
 3564TIP3   OH232250   0.830   2.817   0.058  0.1909  0.6466 -0.0302
 3564TIP3    H132251   0.899   2.751   0.055 -0.1691  0.2795 -0.1568
 3564TIP3    H232252   0.784   2.800   0.140  1.1133  1.7712  0.7676
 3565TIP3   OH232253   6.176   0.849   0.661 -0.0007 -0.4770 -0.4939
 3565TIP3    H132254   6.126   0.792   0.720  1.3497  0.1416  1.3238
 3565TIP3    H232255   6.114   0.871   0.591 -1.9727 -0.4892  1.1662
 3566TIP3   OH232256   4.201   2.349   1.165 -0.1577  0.3246  0.4338
 3566TIP3    H132257   4.275   2.366   1.223 -1.0260 -0.0872  1.6810
 3566TIP3    H232258   4.126   2.386   1.210 -1.0509 -1.1178  0.1764
 3567TIP3   OH232259   0.583   0.786   2.838 -0.4236  0.4761 -0.6967
 3567TIP3    H132260   0.565   0.700   2.800  1.4859  0.2050 -1.0821
 3567TIP3    H232261   0.555   0.778   2.929  0.4127 -0.8154 -0.5294
 3568TIP3   OH232262   2.046   0.381   8.171  0.2805 -0.6224  0.0150
 3568TIP3    H132263   1.958   0.349   8.155  0.6236 -1.1141 -0.9827
 3568TIP3    H232264   2.098   0.303   8.187  0.5616 -0.3441  0.4889
 3569TIP3   OH232265   2.179   3.400   1.181 -1.0049  0.2719  0.4136
 3569TIP3    H132266   2.126   3.382   1.103 -0.1601  0.5921 -0.2554
 3569TIP3    H232267   2.149   3.337   1.246  1.0836 -2.9416 -1.4633
 3570TIP3   OH232268   1.228   3.696   0.476 -0.0311  0.4689  0.5883
 3570TIP3    H132269   1.292   3.670   0.542  0.7387  1.7223  0.3781
 3570TIP3    H232270   1.165   3.751   0.522 -1.8455 -1.8741  1.1038
 3571TIP3   OH232271   1.504   4.800   1.064  1.0369  0.2871 -0.1218
 3571TIP3    H132272   1.465   4.731   1.010  1.1552 -0.0483  0.2162
 3571TIP3    H232273   1.571   4.756   1.116  0.3982  0.4435  0.8677
 3572TIP3   OH232274   0.077   3.807   0.043 -0.3060 -0.2348  0.2047
 3572TIP3    H132275   0.048   3.812   0.134  0.0401 -0.2650  0.3200
 3572TIP3    H232276   0.001   3.773  -0.005 -0.1187 -1.3590  0.6684
 3573TIP3   OH232277   1.829   2.472   3.276 -0.5122  0.5177 -0.2606
 3573TIP3    H132278   1.817   2.567   3.282 -1.6561  0.4558 -1.2746
 3573TIP3    H232279   1.745   2.436   3.303  0.4294 -0.2974  1.7816
 3574TIP3   OH232280   5.453   3.206   0.349  0.0677  0.2150 -0.4185
 3574TIP3    H132281   5.370   3.198   0.396  0.6035  0.6538  0.6321
 3574TIP3    H232282   5.441   3.283   0.294  0.3035  1.2270  0.8949
 3575TIP3   OH232283   4.307   6.834   7.243 -0.5803  0.4976 -0.1181
 3575TIP3    H132284   4.245   6.790   7.184 -1.0800  0.8201  0.1556
 3575TIP3    H232285   4.375   6.868   7.186 -0.2110 -0.5767 -0.3495
 3576TIP3   OH232286   6.524   2.803   0.139 -0.2654  0.8359 -0.4691
 3576TIP3    H132287   6.471   2.838   0.068  0.1549 -0.3453 -1.4052
 3576TIP3    H232288   6.491   2.714   0.151 -0.4256  1.0629  0.9321
 3577TIP3   OH232289   0.199   6.263   8.421 -0.6227 -0.1033  0.1081
 3577TIP3    H132290   0.155   6.233   8.500 -1.5814 -0.7178 -0.6274
 3577TIP3    H232291   0.280   6.304   8.452 -1.9095  1.5163  1.5677
 3578TIP3   OH232292   0.283   2.642   7.015 -0.3802 -0.2278  0.0301
 3578TIP3    H132293   0.278   2.669   6.923 -0.0054 -0.9020 -0.1971
 3578TIP3    H232294   0.273   2.723   7.065  0.4026  0.2811 -0.6228
 3579TIP3   OH232295   5.143   3.866   7.076  0.2973  0.8299  0.1499
 3579TIP3    H132296   5.187   3.951   7.076  1.1179  0.4285 -0.4441
 3579TIP3    H232297   5.167   3.827   7.160  2.7015 -0.1433 -0.8802
 3580TIP3   OH232298   2.257   3.795   2.148 -0.2370 -0.1839  0.6850
 3580TIP3    H132299   2.291   3.709   2.169  1.8302  0.1595 -0.9743
 3580TIP3    H232300   2.260   3.801   2.053 -1.3630  1.3480  0.6859
 3581TIP3   OH232301   2.850   2.956   0.388  0.3766  0.7779 -0.1542
 3581TIP3    H132302   2.888   3.037   0.423  0.5800  0.0000  1.4732
 3581TIP3    H232303   2.756   2.964   0.406  0.4635  0.4359  0.4635
 3582TIP3   OH232304   2.609   1.790   1.314 -0.1773 -0.4548  0.1808
 3582TIP3    H132305   2.573   1.779   1.226  0.3498  0.1782 -0.1208
 3582TIP3    H232306   2.701   1.811   1.300  0.0414 -0.8920  0.9055
 3583TIP3   OH232307   3.098   5.302   1.620 -0.4150  0.2999  0.8015
 3583TIP3    H132308   3.082   5.228   1.562 -0.3733 -0.4957  1.7857
 3583TIP3    H232309   3.029   5.296   1.687 -0.2367  0.9749  1.0524
 3584TIP3   OH232310   3.865   5.245   8.225  0.2341 -0.0292  0.2347
 3584TIP3    H132311   3.781   5.218   8.262 -0.3064  0.9088 -0.2668
 3584TIP3    H232312   3.895   5.169   8.176 -0.6810 -0.1290 -0.1947
 3585TIP3   OH232313   3.225   0.880   2.065  0.4814 -0.6822 -0.0772
 3585TIP3    H132314   3.217   0.975   2.078  0.0374 -0.8402  0.8895
 3585TIP3    H232315   3.277   0.850   2.140 -0.7372 -1.4098  0.5071
 3586TIP3   OH232316   3.515   2.700   1.370 -0.6879 -0.0397  0.1109
 3586TIP3    H132317   3.539   2.611   1.344  0.0111 -0.0289  0.6619
 3586TIP3    H232318   3.529   2.753   1.291 -1.2206 -0.4373 -0.2517
 3587TIP3   OH232319   6.197   6.233   0.262  0.2405 -0.1687 -0.3835
 3587TIP3    H132320   6.255   6.157   0.269  2.3507  1.4022  0.6279
 3587TIP3    H232321   6.175   6.254   0.353  0.1067  0.6955 -0.6052
 3588TIP3   OH232322   4.287   6.131   0.918 -0.2704  0.2022 -0.4902
 3588TIP3    H132323   4.356   6.064   0.927 -0.1534  0.3882  0.0594
 3588TIP3    H232324   4.288   6.177   1.002 -1.1724  0.1062 -0.4208
 3589TIP3   OH232325   6.650   2.017   1.606 -0.4880  0.0312  0.0580
 3589TIP3    H132326   6.711   2.026   1.679 -1.4246  0.2986  0.8177
 3589TIP3    H232327   6.656   1.925   1.581  0.5877  0.1567 -0.2122
 3590TIP3   OH232328   6.848   4.490   7.701  0.0208  0.0747 -0.5195
 3590TIP3    H132329   6.883   4.530   7.622 -2.5850  1.9566 -0.8647
 3590TIP3    H232330   6.763   4.454   7.674 -0.6976  0.3077  1.2754
 3591TIP3   OH232331   0.965   4.558   7.807 -0.0312 -0.2247 -0.2647
 3591TIP3    H132332   0.983   4.639   7.761 -1.2270 -0.4047 -1.0882
 3591TIP3    H232333   0.881   4.573   7.851  0.2477 -0.6573  0.4388
 3592TIP3   OH232334   5.522   4.629   8.202  0.1543  0.0660  0.2730
 3592TIP3    H132335   5.587   4.699   8.203 -0.0902  0.2943  0.7271
 3592TIP3    H232336   5.516   4.601   8.294 -0.6252  0.2699  0.2867
 3593TIP3   OH232337   3.368   6.219   7.086  0.2658  0.6155 -0.3362
 3593TIP3    H132338   3.347   6.127   7.105 -1.7874  1.1858  0.3520
 3593TIP3    H232339   3.460   6.228   7.111  0.0281 -0.8357  1.2329
 3594TIP3   OH232340   4.794   6.469   8.001 -0.3570  0.1645 -0.1514
 3594TIP3    H132341   4.753   6.542   7.954 -0.0779  0.0494 -0.5788
 3594TIP3    H232342   4.848   6.511   8.068  0.9273  0.4160 -1.3024
 3595TIP3   OH232343   3.361   0.841   2.291 -0.0161 -0.3761  0.0687
 3595TIP3    H132344   3.448   0.849   2.252 -1.1041  0.2484 -2.4960
 3595TIP3    H232345   3.363   0.759   2.340  1.9248 -0.4989 -0.1502
 3596TIP3   OH232346   3.428   0.560   6.896 -0.8587 -0.2472 -0.6253
 3596TIP3    H132347   3.397   0.651   6.892 -0.7204 -0.1699 -0.0408
 3596TIP3    H232348   3.348   0.509   6.906 -0.8653 -0.1039  0.1198
 3597TIP3   OH232349   3.446   6.154   7.668  0.4409  0.1485 -0.4641
 3597TIP3    H132350   3.401   6.073   7.691 -1.2982  1.1870 -0.0233
 3597TIP3    H232351   3.381   6.206   7.621  0.9385  1.9637  0.7220
 3598TIP3   OH232352   4.681   3.737   1.582  0.1309  0.0739 -0.4845
 3598TIP3    H132353   4.665   3.819   1.629  0.2511 -0.0234 -0.2685
 3598TIP3    H232354   4.594   3.699   1.571  0.2666 -1.1366  1.9390
 3599TIP3   OH232355   3.268   3.337   0.490 -0.0755 -0.3983 -0.7209
 3599TIP3    H132356   3.291   3.312   0.400 -0.8142  0.8814 -1.2980
 3599TIP3    H232357   3.205   3.408   0.479  1.6678  1.4780  0.7872
 3600TIP3   OH232358   5.387   6.691   0.814  0.1263  0.5092 -0.8788
 3600TIP3    H132359   5.304   6.737   0.820  0.1269  0.2962  1.6910
 3600TIP3    H232360   5.364   6.598   0.819  0.5276  0.4697  1.6819
 3601TIP3   OH232361   3.576   1.344   2.653  0.0321  0.2929  0.2657
 3601TIP3    H132362   3.657   1.306   2.688 -0.8023 -0.2187  1.7029
 3601TIP3    H232363   3.598   1.436   2.638  0.6180  0.4037  1.6045
 3602TIP3   OH232364   0.418   5.202   0.516  0.0184  0.8937 -0.2996
 3602TIP3    H132365   0.375   5.256   0.450 -1.3897 -0.7379 -0.8113
 3602TIP3    H232366   0.345   5.165   0.567  0.5074 -3.2579 -2.1923
 3603TIP3   OH232367   1.369   1.560   7.647 -0.8409  0.2582  0.1843
 3603TIP3    H132368   1.444   1.586   7.595 -0.3944 -1.6602 -0.2173
 3603TIP3    H232369   1.376   1.464   7.654 -1.4003  0.3299  2.9701
 3604TIP3   OH232370   0.561   1.752   8.125  0.1564 -0.0479  0.2061
 3604TIP3    H132371   0.573   1.745   8.030  0.5929  0.1024  0.2464
 3604TIP3    H232372   0.629   1.695   8.161 -0.6722 -0.9279  0.4133
 3605TIP3   OH232373   4.291   3.848   2.858  0.3651  0.7632  0.8792
 3605TIP3    H132374   4.361   3.795   2.895  1.0529  0.9226 -0.1657
 3605TIP3    H232375   4.328   3.886   2.779 -0.3647  2.1970  1.1889
 3606TIP3   OH232376   4.817   2.657   2.022  0.3735  0.7901  0.0913
 3606TIP3    H132377   4.821   2.572   1.978 -0.6129  0.5273  0.4933
 3606TIP3    H232378   4.786   2.718   1.955 -1.3428  0.3496  0.4289
 3607TIP3   OH232379   5.034   2.946   2.835  0.8770 -0.2186  0.2893
 3607TIP3    H132380   5.090   2.994   2.773 -0.0779 -0.3251 -0.6790
 3607TIP3    H232381   4.955   2.999   2.842  0.4015 -0.9262  0.3385
 3608TIP3   OH232382   0.224   5.709   2.613 -0.6636 -0.0258  0.1431
 3608TIP3    H132383   0.318   5.721   2.599 -1.0556  0.5606 -2.4474
 3608TIP3    H232384   0.216   5.622   2.653  0.9865  0.2029  1.0439
 3609TIP3   OH232385   2.403   0.372   6.731  0.6592 -0.0481 -0.1931
 3609TIP3    H132386   2.456   0.294   6.749  0.1364 -0.8730 -1.9840
 3609TIP3    H232387   2.465   0.435   6.695  0.8142 -0.2219 -0.2331
 3610TIP3   OH232388   6.258   5.090   2.497  0.3826 -0.0407 -0.0126
 3610TIP3    H132389   6.257   5.048   2.412 -0.0228 -1.1135  0.5068
 3610TIP3    H232390   6.331   5.152   2.493  0.8021 -0.5841 -0.8929
 3611TIP3   OH232391   1.717   0.885   7.569 -0.2670 -0.2896  0.0902
 3611TIP3    H132392   1.680   0.927   7.492  1.1731  1.1306  0.1040
 3611TIP3    H232393   1.789   0.832   7.535  1.7641  1.9834  0.5213
 3612TIP3   OH232394   0.203   4.668   0.563  0.0018  0.1003 -0.6688
 3612TIP3    H132395   0.268   4.598   0.573 -0.9945 -0.6358  1.3974
 3612TIP3    H232396   0.122   4.622   0.539  0.1154  0.9641 -2.8749
 3613TIP3   OH232397   3.669   3.628   8.402  0.9214  0.2089 -0.0126
 3613TIP3    H132398   3.624   3.545   8.385  2.2810 -0.7613  0.8793
 3613TIP3    H232399   3.630   3.690   8.340 -1.0681 -0.7455  0.2007
 3614TIP3   OH232400   0.486   3.756   0.673 -0.3557 -0.1836 -0.2113
 3614TIP3    H132401   0.535   3.702   0.734 -1.8350  0.3470  1.5196
 3614TIP3    H232402   0.398   3.763   0.711 -1.1186  0.8056 -2.0036
 3615TIP3   OH232403   0.448   4.646   7.507  0.4685  0.5036  0.2831
 3615TIP3    H132404   0.384   4.580   7.481  2.3619 -2.1529  1.7986
 3615TIP3    H232405   0.422   4.671   7.596  0.2516  1.1658  0.0380
 3616TIP3   OH232406   4.624   1.054   2.218  0.1306  0.6994 -0.2519
 3616TIP3    H132407   4.539   1.028   2.182 -0.3934  0.9690  0.7330
 3616TIP3    H232408   4.647   0.982   2.278 -0.4577  1.6091  1.1128
 3617TIP3   OH232409   3.213   6.799   1.274 -0.0806  0.1637  0.2070
 3617TIP3    H132410   3.126   6.834   1.255  0.5417  0.8353 -1.5923
 3617TIP3    H232411   3.206   6.705   1.256 -0.6423  0.0444  0.9662
 3618TIP3   OH232412   5.323   1.684   7.964  0.4908  0.5527  0.6777
 3618TIP3    H132413   5.317   1.611   8.025  2.3731 -0.2780 -0.0519
 3618TIP3    H232414   5.357   1.756   8.016  2.0732 -0.1438  0.6663
 3619TIP3   OH232415   6.797   6.935   0.064 -0.3761  0.1851  0.3399
 3619TIP3    H132416   6.862   7.000   0.091 -0.9566  1.4662 -1.1858
 3619TIP3    H232417   6.848   6.866   0.023  0.1068  0.8036 -0.1214
 3620TIP3   OH232418   6.550   4.899   7.964 -0.1370 -0.6711 -0.1307
 3620TIP3    H132419   6.533   4.809   7.938  2.0567 -1.1305 -0.1753
 3620TIP3    H232420   6.591   4.939   7.888 -0.9287  0.3277 -0.0493
 3621TIP3   OH232421   1.223   4.342   1.123  0.4022 -0.2081  0.2229
 3621TIP3    H132422   1.218   4.437   1.113  0.6014 -0.2578 -0.3745
 3621TIP3    H232423   1.208   4.327   1.217  0.1123  0.3909  0.2781
 3622TIP3   OH232424   3.083   0.259   2.666 -0.1544  0.1172 -0.2849
 3622TIP3    H132425   3.096   0.190   2.730  0.0170  0.4709  0.0669
 3622TIP3    H232426   3.044   0.215   2.590 -1.2928 -0.1229  0.4277
 3623TIP3   OH232427   0.574   4.395   7.648 -0.4477  0.5587 -0.6415
 3623TIP3    H132428   0.592   4.408   7.555  2.3004  0.7480 -0.1641
 3623TIP3    H232429   0.612   4.471   7.691  1.1582 -1.0057  0.8607
 3624TIP3   OH232430   4.647   2.766   1.132 -0.2226 -0.2963  0.2139
 3624TIP3    H132431   4.650   2.755   1.227  0.2775 -0.9040  0.1340
 3624TIP3    H232432   4.595   2.691   1.101  1.8317 -1.6292 -0.1991
 3625TIP3   OH232433   0.213   0.020   8.362  0.0637 -0.2288 -0.1795
 3625TIP3    H132434   0.177  -0.026   8.287 -1.0438 -1.6635  1.1725
 3625TIP3    H232435   0.249  -0.049   8.418  0.4546  0.7628  0.8308
 3626TIP3   OH232436   4.076   0.301   0.460 -0.3777 -0.2644 -0.4267
 3626TIP3    H132437   3.989   0.334   0.437 -2.1675 -2.4592  2.5960
 3626TIP3    H232438   4.100   0.347   0.540  1.9754  1.2273 -1.8278
 3627TIP3   OH232439   4.021   4.780   6.763 -0.2120  0.0458  0.0938
 3627TIP3    H132440   4.088   4.848   6.771 -0.0148 -0.3135  2.0432
 3627TIP3    H232441   4.063   4.700   6.796 -1.1852 -0.4763  0.1239
 3628TIP3   OH232442   3.418   6.130   0.576  0.2299 -0.2836 -0.3887
 3628TIP3    H132443   3.347   6.124   0.639 -0.2058  2.1897 -0.5585
 3628TIP3    H232444   3.498   6.133   0.629 -0.1939  3.1462  0.2759
 3629TIP3   OH232445   0.314   4.488   7.732 -0.1869 -0.1882  0.0338
 3629TIP3    H132446   0.398   4.445   7.720  0.0970  0.8511 -2.1241
 3629TIP3    H232447   0.276   4.492   7.644 -1.1934  1.9133  0.4924
 3630TIP3   OH232448   0.511   6.680   1.195 -0.3182 -0.1377 -0.0087
 3630TIP3    H132449   0.454   6.746   1.233 -2.4496 -0.7740 -1.8968
 3630TIP3    H232450   0.481   6.671   1.105  2.8474 -0.5026 -1.1515
 3631TIP3   OH232451   0.098   6.239   0.270 -0.0459 -0.7531  0.0864
 3631TIP3    H132452   0.022   6.200   0.311 -1.6258  2.2712  0.3268
 3631TIP3    H232453   0.167   6.235   0.336 -0.8471 -0.9833  0.9180
 3632TIP3   OH232454   1.742   4.545   1.948 -0.4975 -0.6069  0.5570
 3632TIP3    H132455   1.655   4.505   1.946 -0.6029 -0.3671 -0.3538
 3632TIP3    H232456   1.751   4.579   2.037 -0.8000 -1.7731  1.0443
 3633TIP3   OH232457   1.155   6.748   0.771  0.3560 -0.4304  0.2419
 3633TIP3    H132458   1.175   6.782   0.684  0.7347  2.7598  1.4409
 3633TIP3    H232459   1.060   6.752   0.777  0.0701 -3.1456 -0.8208
 3634TIP3   OH232460   5.080   0.801   8.083 -0.0806 -0.1906 -0.0003
 3634TIP3    H132461   5.103   0.805   8.176 -0.6033 -1.9432  0.2371
 3634TIP3    H232462   5.127   0.874   8.044  1.0007 -0.0455  1.4762
 3635TIP3   OH232463   5.196   0.172   3.424  0.0801  0.2135 -0.2155
 3635TIP3    H132464   5.127   0.133   3.371 -0.4271 -1.1281  1.3585
 3635TIP3    H232465   5.277   0.139   3.385 -0.1340  1.3666 -1.7370
 3636TIP3   OH232466   4.196   4.455   7.875  0.1180  0.4719 -0.4640
 3636TIP3    H132467   4.262   4.392   7.904  1.2555  1.9332  0.2340
 3636TIP3    H232468   4.177   4.429   7.784  0.1257 -1.1984 -0.0310
 3637TIP3   OH232469   6.527   3.718   2.902 -0.1455 -0.1468 -0.4645
 3637TIP3    H132470   6.437   3.725   2.936 -0.0673  2.9517 -0.6236
 3637TIP3    H232471   6.522   3.753   2.813  0.8908 -1.9270 -1.2713
 3638TIP3   OH232472   2.560   1.374   2.049  0.8853 -0.3709 -0.1944
 3638TIP3    H132473   2.615   1.447   2.020  1.1613 -0.7775 -0.7049
 3638TIP3    H232474   2.475   1.391   2.009  1.1338 -0.6751 -0.8861
 3639TIP3   OH232475   3.827   2.876   2.226  0.5129  0.3575  0.6513
 3639TIP3    H132476   3.793   2.855   2.139  1.6005  0.5761  0.1571
 3639TIP3    H232477   3.791   2.808   2.283 -0.4837  0.4095  0.0957
 3640TIP3   OH232478   0.114   4.218   0.493  0.9137  0.7717  0.0462
 3640TIP3    H132479   0.121   4.283   0.563 -0.0230  0.6896  0.2224
 3640TIP3    H232480   0.160   4.258   0.419 -0.3539  2.0091 -0.1014
 3641TIP3   OH232481   0.890   5.598   0.446  0.8285 -0.5990  0.6301
 3641TIP3    H132482   0.943   5.645   0.510  0.4190 -0.2084  0.6939
 3641TIP3    H232483   0.800   5.628   0.463  0.4810 -1.7866  1.0023
 3642TIP3   OH232484   3.036   6.661   0.817 -0.0178  0.0368  0.3262
 3642TIP3    H132485   3.116   6.698   0.778  0.1904  0.8062  1.4385
 3642TIP3    H232486   3.006   6.597   0.752 -0.0427  1.6873 -1.3934
 3643TIP3   OH232487   2.432   4.189   8.104 -0.5847  0.0215  0.2721
 3643TIP3    H132488   2.346   4.152   8.082 -0.7777  1.2548 -1.1471
 3643TIP3    H232489   2.487   4.113   8.121 -1.2625 -0.9127 -1.4790
 3644TIP3   OH232490   4.479   6.753   0.242 -0.4907  0.1998 -0.2133
 3644TIP3    H132491   4.457   6.781   0.330  2.3055  1.6474  0.1346
 3644TIP3    H232492   4.549   6.689   0.254 -0.1889  0.2915 -1.3707
 3645TIP3   OH232493   3.623   3.825   2.038  0.3340  0.1462 -0.6467
 3645TIP3    H132494   3.702   3.876   2.018 -0.5183  1.8232  0.1037
 3645TIP3    H232495   3.563   3.888   2.078 -0.6686 -1.5335  0.5944
 3646TIP3   OH232496   3.633   3.957   1.748 -0.0971 -0.2521 -0.1267
 3646TIP3    H132497   3.591   3.943   1.833 -4.4941  0.2895 -1.9308
 3646TIP3    H232498   3.639   3.869   1.709  0.0202 -0.2688 -0.0734
 3647TIP3   OH232499   6.259   1.974   1.638  0.3241  0.5773  0.4124
 3647TIP3    H132500   6.333   1.936   1.591  0.4723 -0.2353  1.2834
 3647TIP3    H232501   6.297   2.048   1.687  0.6656 -0.1086  1.2094
 3648TIP3   OH232502   5.228   6.120   7.805 -0.9338  0.4360 -0.8552
 3648TIP3    H132503   5.173   6.130   7.728 -0.0311  3.8335 -1.1883
 3648TIP3    H232504   5.302   6.068   7.775 -1.1493  0.7501 -1.9764
 3649TIP3   OH232505   6.432   2.188   1.656  0.3973  0.0709 -0.1329
 3649TIP3    H132506   6.503   2.131   1.628  1.1616  1.6543 -1.6055
 3649TIP3    H232507   6.473   2.255   1.709 -0.0895  0.6127 -0.4220
 3650TIP3   OH232508   6.702   0.614   2.102 -0.1661  0.2916  0.3414
 3650TIP3    H132509   6.637   0.674   2.064  0.9060  1.6465  0.5500
 3650TIP3    H232510   6.663   0.527   2.091 -2.7553  1.1289  1.9501
 3651TIP3   OH232511   1.596   3.814   0.549 -0.0133 -0.0140  0.3749
 3651TIP3    H132512   1.648   3.839   0.626  1.3570 -1.2153 -0.1257
 3651TIP3    H232513   1.526   3.760   0.585  0.4689 -0.3568  0.8063
 3652TIP3   OH232514   0.347   6.160   0.367  0.2140  0.0795 -0.5106
 3652TIP3    H132515   0.349   6.240   0.420  0.0709 -1.9295  2.7767
 3652TIP3    H232516   0.435   6.124   0.373 -0.4094 -1.3754  0.4070
 3653TIP3   OH232517   1.017   2.091   2.737 -0.5049 -0.1706 -0.0664
 3653TIP3    H132518   1.073   2.146   2.682 -0.1346 -1.8168 -1.4046
 3653TIP3    H232519   1.033   2.123   2.826 -0.0307  1.6103 -0.7463
 3654TIP3   OH232520   6.093   6.319   8.056  0.6054  0.1421  0.9574
 3654TIP3    H132521   6.181   6.342   8.028 -0.3288  0.5006 -2.0077
 3654TIP3    H232522   6.040   6.395   8.031 -0.4446  0.4800  3.8044
 3655TIP3   OH232523   4.043   6.718   1.754 -0.8876  0.2787 -0.0922
 3655TIP3    H132524   4.049   6.689   1.663 -2.3948 -2.7450  0.6378
 3655TIP3    H232525   4.042   6.814   1.749 -0.6365  0.2215 -3.2031
 3656TIP3   OH232526   2.632   6.572   1.159  0.0545 -0.0421  0.1036
 3656TIP3    H132527   2.679   6.591   1.078 -1.4416  0.8872 -0.5744
 3656TIP3    H232528   2.542   6.597   1.142 -0.2306  0.6070  2.2128
 3657TIP3   OH232529   3.845   0.644   1.704 -0.3650  0.2562  0.2367
 3657TIP3    H132530   3.921   0.692   1.670 -1.7184  1.0309 -1.8645
 3657TIP3    H232531   3.769   0.692   1.671 -1.7926 -1.8742  0.2079
 3658TIP3   OH232532   3.329   3.945   1.118  0.1467 -0.0808 -0.2760
 3658TIP3    H132533   3.399   3.994   1.161 -0.6155 -0.1368  1.0831
 3658TIP3    H232534   3.252   3.962   1.171 -1.1274  0.7773 -2.2870
 3659TIP3   OH232535   5.557   5.372   0.682 -0.5603  0.0486  0.1593
 3659TIP3    H132536   5.522   5.459   0.667 -1.7157 -0.6854 -1.9388
 3659TIP3    H232537   5.482   5.314   0.668 -0.1868 -1.2555  2.9399
 3660TIP3   OH232538   2.566   2.407   3.209 -0.3061 -0.3514 -0.3131
 3660TIP3    H132539   2.484   2.415   3.258  0.4128  1.2803  0.7071
 3660TIP3    H232540   2.576   2.492   3.165  2.1023  0.5285  1.7117
 3661TIP3   OH232541   5.734   3.099   1.070  0.0053  0.2871  0.6080
 3661TIP3    H132542   5.824   3.124   1.090 -0.2417  1.9710 -0.2105
 3661TIP3    H232543   5.682   3.144   1.137 -0.3454  0.7340  0.0366
 3662TIP3   OH232544   0.918   0.291   7.313  0.2675 -0.4584  0.0939
 3662TIP3    H132545   0.841   0.242   7.340 -0.1492  0.3484  0.4156
 3662TIP3    H232546   0.982   0.224   7.288 -0.5815 -1.1357 -0.3215
 3663TIP3   OH232547   0.230   5.772   7.842 -0.0871 -0.0345  0.1797
 3663TIP3    H132548   0.300   5.837   7.835 -0.7791  0.6079 -1.0096
 3663TIP3    H232549   0.243   5.714   7.766 -1.0492  0.3144 -0.2694
 3664TIP3   OH232550   6.616   5.094   0.789  0.7919 -0.2227 -0.4169
 3664TIP3    H132551   6.556   5.110   0.862  2.2155 -0.3692  0.8177
 3664TIP3    H232552   6.572   5.026   0.737  0.0830 -0.6523  0.7089
 3665TIP3   OH232553   2.600   1.549   7.747  0.2736  0.1836  1.0346
 3665TIP3    H132554   2.636   1.637   7.755  2.2340 -0.3620 -0.8166
 3665TIP3    H232555   2.676   1.491   7.755 -0.7875 -1.2743  0.9307
 3666TIP3   OH232556   2.123   1.466   0.639  0.4763 -0.1890  0.5404
 3666TIP3    H132557   2.195   1.505   0.690 -1.1231  2.0630  1.2611
 3666TIP3    H232558   2.116   1.377   0.672  2.9558 -0.5103  0.3784
 3667TIP3   OH232559   1.388   4.461   3.413 -0.8308  0.8120  0.0299
 3667TIP3    H132560   1.332   4.425   3.344 -1.0045  0.3909  0.3838
 3667TIP3    H232561   1.457   4.395   3.424 -1.3819  0.3765  0.9770
 3668TIP3   OH232562   4.886   2.128   7.287 -0.0327  0.2669  0.0940
 3668TIP3    H132563   4.871   2.214   7.327  0.0858  0.1904  0.3057
 3668TIP3    H232564   4.981   2.115   7.295 -0.0177  0.2186 -0.1478
 3669TIP3   OH232565   0.473   6.106   0.008  0.4106 -0.2414 -0.3816
 3669TIP3    H132566   0.483   6.128  -0.084 -0.7817  0.7477 -0.2965
 3669TIP3    H232567   0.388   6.061   0.013  0.2329  0.1509  0.2931
 3670TIP3   OH232568   3.910   6.018   0.552 -0.1405  0.5577  0.0162
 3670TIP3    H132569   3.862   6.074   0.491  0.2134  1.8783  0.8901
 3670TIP3    H232570   3.858   5.938   0.558 -0.7631  0.8616 -1.1365
 3671TIP3   OH232571   4.286   1.155   1.119  0.5871  0.2999 -0.3899
 3671TIP3    H132572   4.212   1.137   1.061  1.3021  0.1747 -1.2956
 3671TIP3    H232573   4.309   1.246   1.100  1.0218  0.1606 -0.5384
 3672TIP3   OH232574   3.363   0.288   7.250 -0.3271 -0.5673  0.2487
 3672TIP3    H132575   3.363   0.218   7.185 -0.1350 -1.0701  0.7753
 3672TIP3    H232576   3.367   0.242   7.334  1.7830  0.0712  0.5766
 3673TIP3   OH232577   6.150   3.322   8.389  0.4141 -0.7618  0.2912
 3673TIP3    H132578   6.093   3.357   8.321  1.4781 -0.1797 -0.3177
 3673TIP3    H232579   6.167   3.231   8.363 -1.3711 -1.4049  1.2374
 3674TIP3   OH232580   6.579   1.626   2.023  0.1516  0.2253  0.7860
 3674TIP3    H132581   6.509   1.623   2.088 -0.4343  1.3105  0.2398
 3674TIP3    H232582   6.657   1.598   2.070 -0.1843  1.3213  2.0664
 3675TIP3   OH232583   4.371   1.692   1.185  0.5452  0.5952 -0.3953
 3675TIP3    H132584   4.455   1.729   1.156  1.1386  0.6825  1.2693
 3675TIP3    H232585   4.373   1.702   1.281 -2.9039  3.9537 -0.4287
 3676TIP3   OH232586   1.643   4.895   0.071 -0.1770  0.1584 -0.1138
 3676TIP3    H132587   1.613   4.873  -0.018  0.1730  0.1680 -0.2349
 3676TIP3    H232588   1.576   4.956   0.104 -0.3826  0.0460 -0.3168
 3677TIP3   OH232589   6.562   1.727   2.829 -0.6643  0.5333 -0.2760
 3677TIP3    H132590   6.581   1.641   2.793 -1.2189  0.3237 -0.0772
 3677TIP3    H232591   6.615   1.788   2.777 -1.9230  0.3138 -1.8448
 3678TIP3   OH232592   5.916   2.653   2.491  0.1113  0.5536  1.2445
 3678TIP3    H132593   5.983   2.597   2.530  0.7412  1.1111  0.9807
 3678TIP3    H232594   5.848   2.661   2.559  0.8979  1.0059  1.9932
 3679TIP3   OH232595   3.178   2.070   1.763  0.1707 -0.4843 -0.3462
 3679TIP3    H132596   3.270   2.094   1.770 -0.5477  2.6715 -0.2786
 3679TIP3    H232597   3.164   2.007   1.834  2.2070 -0.9267 -0.2739
 3680TIP3   OH232598   5.483   6.475   1.812  0.5327 -0.4827 -0.0963
 3680TIP3    H132599   5.499   6.469   1.717 -0.2675 -2.2908 -0.1474
 3680TIP3    H232600   5.422   6.405   1.831 -1.3078  1.3928  1.3874
 3681TIP3   OH232601   2.768   4.763   2.134  0.0490  0.5554  0.4347
 3681TIP3    H132602   2.715   4.751   2.213 -1.8108  2.4913 -0.4195
 3681TIP3    H232603   2.793   4.674   2.109 -1.1014 -0.2750  2.0356
 3682TIP3   OH232604   1.241   6.740   2.340  0.3211 -0.1671 -0.1819
 3682TIP3    H132605   1.271   6.656   2.374 -0.0300 -0.4937 -0.6728
 3682TIP3    H232606   1.257   6.802   2.411  0.1091 -0.7395  0.3655
 3683TIP3   OH232607   6.209   5.317   1.382 -0.0642 -0.0800  0.0901
 3683TIP3    H132608   6.224   5.233   1.338 -1.6270  0.5459 -1.7742
 3683TIP3    H232609   6.211   5.381   1.311 -0.6129  1.2571  1.2459
 3684TIP3   OH232610   1.322   4.248   1.745  0.4866  0.0695 -0.4077
 3684TIP3    H132611   1.390   4.285   1.801  0.2299  1.9159 -1.2411
 3684TIP3    H232612   1.290   4.323   1.694 -2.1553 -0.7083 -0.0564
 3685TIP3   OH232613   6.721   6.910   1.043  0.0745 -0.0460 -0.3117
 3685TIP3    H132614   6.711   7.000   1.012  0.4330 -0.0650 -0.4914
 3685TIP3    H232615   6.815   6.895   1.040 -0.1440 -1.2386 -2.5878
 3686TIP3   OH232616   3.837   0.667   0.084 -0.9514 -0.6285 -0.7988
 3686TIP3    H132617   3.777   0.704   0.148 -0.9176  0.3601 -1.3293
 3686TIP3    H232618   3.881   0.596   0.131 -2.8538 -1.6996 -0.5319
 3687TIP3   OH232619   5.644   2.562   2.739  0.5533 -0.1463  0.4992
 3687TIP3    H132620   5.735   2.555   2.769  0.2004 -1.0186  1.4299
 3687TIP3    H232621   5.633   2.656   2.721  0.8944  0.4402  2.9233
 3688TIP3   OH232622   3.725   0.985   2.018  0.2159 -0.0851 -0.7004
 3688TIP3    H132623   3.737   0.891   2.030  0.0429  0.0973  1.1778
 3688TIP3    H232624   3.731   0.998   1.923  2.0266 -1.7357 -0.8896
 3689TIP3   OH232625   4.948   3.975   0.994 -0.2366  0.2945 -0.0557
 3689TIP3    H132626   4.868   4.024   1.010 -0.4564 -0.6134  2.0444
 3689TIP3    H232627   5.012   4.041   0.969 -0.8063  1.5262  1.5410
 3690TIP3   OH232628   6.953   3.228   2.579  0.7689  0.3118  0.3503
 3690TIP3    H132629   6.870   3.247   2.623 -0.1165 -1.4095 -0.4798
 3690TIP3    H232630   6.986   3.313   2.552 -0.3486  1.0966  1.3649
 3691TIP3   OH232631   1.123   2.167   2.992  0.2715 -0.4533 -0.3420
 3691TIP3    H132632   1.155   2.188   3.080  0.5001 -0.0636 -0.5114
 3691TIP3    H232633   1.030   2.148   3.003  0.1082  0.4139 -0.1297
 3692TIP3   OH232634   5.638   3.649   1.928  0.1360 -0.3322 -0.3292
 3692TIP3    H132635   5.625   3.656   2.023  0.0512 -1.9131 -0.1942
 3692TIP3    H232636   5.550   3.646   1.892  0.1677 -0.0570 -0.4305
 3693TIP3   OH232637   5.101   6.760   1.999  0.1763  0.2525  0.3815
 3693TIP3    H132638   5.160   6.707   2.053  0.2198 -2.3170 -1.9590
 3693TIP3    H232639   5.158   6.804   1.936 -0.1054  0.7140  0.4451
 3694TIP3   OH232640   5.815   1.481   1.272 -0.0330 -0.6109 -0.3579
 3694TIP3    H132641   5.805   1.404   1.328  0.5145 -0.5435 -0.1634
 3694TIP3    H232642   5.847   1.549   1.331 -0.1887 -0.3295 -0.6001
 3695TIP3   OH232643   5.890   4.247   2.992  0.1104 -0.2707 -0.9849
 3695TIP3    H132644   5.825   4.307   2.955 -0.0705 -0.0680 -0.3504
 3695TIP3    H232645   5.839   4.173   3.024  0.1017  0.2663  0.2656
 3696TIP3   OH232646   6.569   3.435   1.392 -0.0696  0.2813 -0.5464
 3696TIP3    H132647   6.650   3.481   1.416  0.6655 -0.4425 -1.5375
 3696TIP3    H232648   6.588   3.343   1.410 -1.2433  0.2671  0.6778
 3697TIP3   OH232649   0.326   2.037   7.286 -0.1408  0.4063 -0.6403
 3697TIP3    H132650   0.395   1.992   7.237  1.4988  0.0549  1.8306
 3697TIP3    H232651   0.333   2.129   7.258  0.3583  0.1396 -1.4388
 3698TIP3   OH232652   1.558   5.067   1.916 -0.1443  0.3502 -0.6816
 3698TIP3    H132653   1.587   5.151   1.878 -1.4244  0.8098 -0.6886
 3698TIP3    H232654   1.483   5.090   1.971 -0.6677 -0.8256 -0.8703
 3699TIP3   OH232655   1.788   0.265   7.504 -0.1470  0.6548 -0.7348
 3699TIP3    H132656   1.810   0.357   7.522  1.5143  0.4178 -1.3230
 3699TIP3    H232657   1.697   0.267   7.475 -1.0343  1.7579  1.8776
 3700TIP3   OH232658   3.251   6.755   0.682 -0.2371  0.1289  0.2839
 3700TIP3    H132659   3.272   6.847   0.699  1.3751 -0.1151 -0.2273
 3700TIP3    H232660   3.314   6.728   0.615 -1.0525 -1.2013  0.0163
 3701TIP3   OH232661   6.858   0.450   0.131 -0.3431 -0.5958  0.4475
 3701TIP3    H132662   6.863   0.408   0.045 -0.4447  0.8961 -0.3165
 3701TIP3    H232663   6.925   0.405   0.183 -0.0490 -1.2915 -0.5063
 3702TIP3   OH232664   4.171   1.570   0.498  0.8679 -0.4535  0.4052
 3702TIP3    H132665   4.190   1.482   0.467 -1.1305 -0.2588 -1.6855
 3702TIP3    H232666   4.227   1.627   0.446  0.8304 -0.3793  0.4455
 3703TIP3   OH232667   6.803   3.576   8.055  0.2602 -0.3599 -0.7905
 3703TIP3    H132668   6.749   3.655   8.047 -0.9198 -1.0335  0.1446
 3703TIP3    H232669   6.886   3.607   8.091 -1.6919  0.0492  4.0731
 3704TIP3   OH232670   5.677   2.040   2.451 -0.3380 -0.0540  0.0292
 3704TIP3    H132671   5.715   2.128   2.450 -2.1424  0.8003  0.8884
 3704TIP3    H232672   5.622   2.037   2.372  0.2692 -0.6897 -0.3794
 3705TIP3   OH232673   0.786   1.856   0.443  0.0920 -0.1201 -0.5453
 3705TIP3    H132674   0.798   1.927   0.379 -1.2207  0.8449  0.2277
 3705TIP3    H232675   0.846   1.878   0.514 -0.2740  0.1933 -0.3306
 3706TIP3   OH232676   2.418   0.346   2.475  0.1713 -0.0183 -0.0797
 3706TIP3    H132677   2.505   0.379   2.452  0.5148 -0.8730 -0.0723
 3706TIP3    H232678   2.430   0.305   2.561  0.0955 -1.3015 -0.6498
 3707TIP3   OH232679   6.173   1.433   1.937 -0.1787 -0.0897 -0.4597
 3707TIP3    H132680   6.127   1.370   1.994 -0.6903  2.5400  2.3182
 3707TIP3    H232681   6.265   1.408   1.943 -0.3604 -0.5590  0.6697
 3708TIP3   OH232682   3.979   6.601   1.501  0.6326  0.0618  0.2997
 3708TIP3    H132683   4.070   6.611   1.473  0.3499 -0.4355 -0.8546
 3708TIP3    H232684   3.928   6.645   1.433  0.1113  3.6065  2.7020
 3709TIP3   OH232685   4.765   1.523   3.209  0.0453 -0.4011 -0.0026
 3709TIP3    H132686   4.734   1.435   3.187  1.9164 -0.6851 -1.7476
 3709TIP3    H232687   4.841   1.509   3.265  1.3737 -0.0041 -1.6371
 3710TIP3   OH232688   1.887   1.713   7.876 -0.0156 -0.3373  0.2895
 3710TIP3    H132689   1.806   1.714   7.825  0.9047  0.2329 -1.2101
 3710TIP3    H232690   1.932   1.633   7.849  0.0106 -0.5707  0.9998
 3711TIP3   OH232691   2.821   6.266   3.257 -0.2127 -0.2738  0.4706
 3711TIP3    H132692   2.913   6.261   3.285  0.5521 -2.1303 -1.9992
 3711TIP3    H232693   2.805   6.360   3.246  1.5225  0.0726  0.5265
 3712TIP3   OH232694   0.571   1.157   1.707  0.1991 -0.0786  0.3163
 3712TIP3    H132695   0.495   1.122   1.661  0.0747  1.1159 -0.4410
 3712TIP3    H232696   0.541   1.239   1.745  1.3009  0.8713 -0.7573
 3713TIP3   OH232697   1.893   2.528   2.132  0.2251  0.2668  0.0982
 3713TIP3    H132698   1.909   2.622   2.140 -3.0258  0.9276  0.2198
 3713TIP3    H232699   1.831   2.508   2.203  1.8673 -2.3111  0.9357
 3714TIP3   OH232700   6.632   1.036   1.497 -0.0624  0.2693  0.4641
 3714TIP3    H132701   6.567   1.072   1.437  0.3064  0.3452  0.1091
 3714TIP3    H232702   6.716   1.066   1.463  0.2255 -0.6297  0.3667
 3715TIP3   OH232703   2.618   1.115   1.941  0.1822 -0.2501 -0.4739
 3715TIP3    H132704   2.628   1.196   1.992 -0.2888  0.2024 -1.0961
 3715TIP3    H232705   2.574   1.142   1.861 -0.3420 -1.1900 -0.5173
 3716TIP3   OH232706   5.935   5.564   1.354  0.1114  0.0834 -0.3042
 3716TIP3    H132707   5.930   5.648   1.399 -1.6487 -0.2280  0.1517
 3716TIP3    H232708   5.955   5.587   1.263  1.6993  0.8301  0.1905
 3717TIP3   OH232709   5.721   4.858   0.694 -0.1123 -0.2867 -0.0439
 3717TIP3    H132710   5.772   4.885   0.618 -2.3412 -0.2341 -1.6105
 3717TIP3    H232711   5.705   4.938   0.743 -0.6057  0.0627 -0.7715
 3718TIP3   OH232712   3.358   3.133   7.532  0.0755  0.0514 -0.6578
 3718TIP3    H132713   3.276   3.095   7.564 -0.1491  0.9782 -0.0933
 3718TIP3    H232714   3.394   3.179   7.608  3.2117 -3.6015  0.4047
 3719TIP3   OH232715   6.418   2.545   1.306  0.2564 -0.0842  0.1488
 3719TIP3    H132716   6.421   2.619   1.368 -0.3178 -0.6018  0.8220
 3719TIP3    H232717   6.344   2.565   1.249  0.2018 -0.0648  0.2264
 3720TIP3   OH232718   6.915   2.504   1.578  0.5224 -0.0062  0.3464
 3720TIP3    H132719   6.907   2.507   1.674  1.8200  0.3864  0.4621
 3720TIP3    H232720   7.006   2.480   1.563  0.1956 -0.5745 -0.8026
 3721TIP3   OH232721   4.178   5.690   7.163 -0.5296  0.1061 -0.1192
 3721TIP3    H132722   4.131   5.773   7.172 -0.4146  0.1082  0.4832
 3721TIP3    H232723   4.121   5.625   7.205  0.2495  0.2019  1.1206
 3722TIP3   OH232724   5.198   0.900   7.093  0.5086 -0.3765  0.0440
 3722TIP3    H132725   5.283   0.874   7.058  0.0307 -0.2626 -1.2703
 3722TIP3    H232726   5.143   0.823   7.081 -0.0491  0.1433 -0.8233
 3723TIP3   OH232727   5.807   6.493   7.971 -0.2264 -0.1449  0.1932
 3723TIP3    H132728   5.783   6.474   8.062 -2.2079  1.1936  0.0071
 3723TIP3    H232729   5.724   6.516   7.929  0.8880  0.8411 -1.5625
 3724TIP3   OH232730   6.225   5.733   7.134 -0.3177  0.1257 -0.4520
 3724TIP3    H132731   6.228   5.746   7.229  3.8631 -0.2088 -0.3290
 3724TIP3    H232732   6.213   5.821   7.098 -1.6185  0.2929  0.3551
 3725TIP3   OH232733   3.992   3.468   6.879 -0.0513  0.6676  0.0591
 3725TIP3    H132734   4.070   3.506   6.838 -0.3608  0.2389 -0.9794
 3725TIP3    H232735   3.924   3.535   6.867 -0.2783  0.3255 -0.6432
 3726TIP3   OH232736   5.763   2.533   2.024  0.1939 -0.3713 -0.8342
 3726TIP3    H132737   5.695   2.482   2.069 -1.1555  1.9287 -0.1288
 3726TIP3    H232738   5.843   2.513   2.072 -0.7599  0.0565  1.0119
 3727TIP3   OH232739   5.813   1.542   0.812  0.2355  0.0849  0.5498
 3727TIP3    H132740   5.899   1.507   0.836  0.8112  2.0507  1.5831
 3727TIP3    H232741   5.780   1.582   0.893 -0.7099  1.1895 -0.3510
 3728TIP3   OH232742   3.158   4.577   0.584  0.0909 -0.2661  0.0880
 3728TIP3    H132743   3.070   4.543   0.601  0.3339 -0.4343  1.1068
 3728TIP3    H232744   3.175   4.554   0.493  0.3725 -3.3136  0.7804
 3729TIP3   OH232745   1.976   1.176   2.739 -0.0081 -1.0793  0.0118
 3729TIP3    H132746   2.046   1.202   2.799 -1.8897  4.3881  0.3981
 3729TIP3    H232747   2.020   1.165   2.654  1.5076  3.4408 -0.0608
 3730TIP3   OH232748   6.777   0.126   7.630 -0.1394 -0.0084 -0.2343
 3730TIP3    H132749   6.784   0.217   7.599 -2.2456  0.8465  1.5270
 3730TIP3    H232750   6.809   0.073   7.557  1.3818  2.1377 -1.2322
 3731TIP3   OH232751   4.908   0.845   1.705  0.1977  0.4205 -0.0378
 3731TIP3    H132752   4.828   0.793   1.712  0.0861  0.3540 -1.4034
 3731TIP3    H232753   4.971   0.800   1.761 -0.7636  0.6123  1.2561
 3732TIP3   OH232754   2.947   4.413   8.307  0.4462  0.5047  0.6695
 3732TIP3    H132755   2.932   4.471   8.232 -0.4495 -0.6263 -0.0440
 3732TIP3    H232756   2.861   4.400   8.345  0.6147 -0.4611  0.7371
 3733TIP3   OH232757   5.705   0.905   7.027  0.1548 -0.6304 -0.4537
 3733TIP3    H132758   5.771   0.972   7.043  0.3281 -0.9580  0.2587
 3733TIP3    H232759   5.747   0.843   6.968  1.0149 -1.5857  1.1081
 3734TIP3   OH232760   0.235   2.194   1.227  0.5414 -0.3890  0.1343
 3734TIP3    H132761   0.239   2.272   1.170  1.5924 -0.4072  0.1622
 3734TIP3    H232762   0.165   2.141   1.189 -0.8303  0.9779  0.6572
 3735TIP3   OH232763   5.362   0.620   1.096 -0.1238 -0.4983  0.1954
 3735TIP3    H132764   5.366   0.602   1.190 -0.2277 -1.0593  0.0978
 3735TIP3    H232765   5.268   0.618   1.075 -0.0452 -1.6602 -0.1482
 3736TIP3   OH232766   0.638   1.573   2.322  0.2777  0.0519 -0.1480
 3736TIP3    H132767   0.686   1.499   2.360 -0.1645 -0.4346 -0.5112
 3736TIP3    H232768   0.585   1.533   2.253 -0.1421  0.6797 -0.1917
 3737TIP3   OH232769   6.491   4.468   1.505 -0.0851 -0.5300 -0.6062
 3737TIP3    H132770   6.543   4.449   1.427 -0.6579  0.3445 -1.2223
 3737TIP3    H232771   6.527   4.411   1.573  1.0537 -0.6087 -1.2586
 3738TIP3   OH232772   0.888   2.200   7.125 -0.2786 -0.2391 -0.0400
 3738TIP3    H132773   0.871   2.263   7.195  1.9984  1.5610 -0.9936
 3738TIP3    H232774   0.976   2.168   7.142  0.1213 -0.1450 -1.8065
 3739TIP3   OH232775   4.548   6.391   2.838 -0.3928 -0.6243  0.1355
 3739TIP3    H132776   4.523   6.315   2.785  1.2841 -1.0868 -0.0488
 3739TIP3    H232777   4.626   6.362   2.886  0.1515  0.9024  0.2370
 3740TIP3   OH232778   4.408   0.358   2.756 -0.2877 -0.2050 -0.0368
 3740TIP3    H132779   4.491   0.406   2.754 -0.5112  0.1716 -0.4153
 3740TIP3    H232780   4.416   0.300   2.832 -0.0528  0.4957  0.4852
 3741TIP3   OH232781   2.340   5.786   8.089  0.8763  0.1573 -0.0049
 3741TIP3    H132782   2.414   5.742   8.130  0.6928 -0.1815 -0.0402
 3741TIP3    H232783   2.277   5.800   8.159  0.6162 -0.3089 -0.1452
 3742TIP3   OH232784   3.644   3.635   7.826  0.0847  0.0075 -0.1309
 3742TIP3    H132785   3.702   3.565   7.858  0.2882  1.0554  2.0106
 3742TIP3    H232786   3.580   3.590   7.772  1.8855 -1.4213 -1.1865
 3743TIP3   OH232787   5.224   2.834   0.068  1.0496 -0.3438 -0.0089
 3743TIP3    H132788   5.149   2.881   0.031  1.8133  0.5040 -0.5105
 3743TIP3    H232789   5.237   2.760   0.009  1.7455  0.5417 -0.9990
 3744TIP3   OH232790   2.672   6.749   2.190  0.3187  0.0426 -0.0896
 3744TIP3    H132791   2.753   6.748   2.139  1.4050 -1.4280  1.5484
 3744TIP3    H232792   2.639   6.659   2.183 -3.1794  1.2839 -3.5777
 3745TIP3   OH232793   5.538   5.758   1.943  0.3534  0.0852 -0.1003
 3745TIP3    H132794   5.630   5.776   1.961 -0.0362  0.3287  1.8773
 3745TIP3    H232795   5.490   5.821   1.997 -0.9807  0.4725 -1.6808
 3746TIP3   OH232796   0.222   4.408   0.706 -0.1796 -0.3538 -0.6112
 3746TIP3    H132797   0.245   4.411   0.799 -1.1209  0.6900 -0.3779
 3746TIP3    H232798   0.303   4.384   0.662  0.4417 -0.2607  0.4277
 3747TIP3   OH232799   4.176   1.315   8.300 -0.7131  0.1674 -0.2999
 3747TIP3    H132800   4.160   1.351   8.388 -1.3696  0.5199 -0.5578
 3747TIP3    H232801   4.128   1.373   8.241 -1.6406 -1.0040 -0.7514
 3748TIP3   OH232802   4.971   5.787   2.550  0.2160 -0.3548  0.4839
 3748TIP3    H132803   4.981   5.798   2.644  1.2800 -0.3993  0.3840
 3748TIP3    H232804   4.901   5.722   2.540  0.2561 -0.5122  1.2395
 3749TIP3   OH232805   2.153   6.531   7.744  0.0481 -0.7700  0.4200
 3749TIP3    H132806   2.238   6.573   7.743 -0.2644 -0.1250  0.5981
 3749TIP3    H232807   2.168   6.445   7.704  0.1348  0.5188 -2.4896
 3750TIP3   OH232808   5.030   3.520   8.028  0.0490  0.3197  0.2815
 3750TIP3    H132809   5.111   3.566   8.053  0.7780 -0.4039 -0.6867
 3750TIP3    H232810   4.996   3.486   8.111  0.5485  0.9221  0.7479
 3751TIP3   OH232811   5.097   0.626   1.075  0.1974 -0.1532  0.1524
 3751TIP3    H132812   5.046   0.698   1.110  1.1532  0.5950  0.0411
 3751TIP3    H232813   5.033   0.555   1.063 -0.8779  0.8530 -0.3011
 3752TIP3   OH232814   5.546   5.957   2.846  0.2122  0.4047  0.5926
 3752TIP3    H132815   5.536   5.992   2.935  1.5344  2.1743  0.0932
 3752TIP3    H232816   5.459   5.967   2.807 -0.6108 -1.1729  1.9109
 3753TIP3   OH232817   5.667   1.977   1.870  0.1539  0.8441  0.3818
 3753TIP3    H132818   5.755   1.939   1.874  0.0160 -0.0460 -2.5201
 3753TIP3    H232819   5.660   2.013   1.782 -3.0085 -0.8592 -0.2446
 3754TIP3   OH232820   4.692   4.439   0.120  0.4644 -0.1191  0.5231
 3754TIP3    H132821   4.673   4.346   0.129  0.0486  0.0505  1.5474
 3754TIP3    H232822   4.719   4.467   0.207 -0.1781  0.8736  0.4263
 3755TIP3   OH232823   6.667   5.499   3.414 -0.0218 -0.0889 -0.6412
 3755TIP3    H132824   6.614   5.531   3.341  0.3329  2.5618  0.1629
 3755TIP3    H232825   6.608   5.501   3.489  0.5648  0.6255 -0.1897
 3756TIP3   OH232826   3.120   5.512   2.798  0.2520 -0.0813 -0.4106
 3756TIP3    H132827   3.188   5.457   2.758 -0.9707 -1.9549 -0.0239
 3756TIP3    H232828   3.157   5.536   2.883  0.8535 -0.2029 -0.6260
 3757TIP3   OH232829   0.215   0.871   7.868 -0.6483 -0.4185  0.6198
 3757TIP3    H132830   0.219   0.942   7.804 -0.4322  0.2407  1.3361
 3757TIP3    H232831   0.144   0.814   7.838 -0.7890  0.0778  0.0003
 3758TIP3   OH232832   2.804   2.563   1.976 -0.6513 -0.3335  0.2862
 3758TIP3    H132833   2.871   2.525   2.032  0.0728  0.7462  0.1849
 3758TIP3    H232834   2.722   2.550   2.024 -0.1050  0.1542  1.3888
 3759TIP3   OH232835   5.437   6.141   7.441  0.5250 -0.7387 -0.1777
 3759TIP3    H132836   5.484   6.221   7.417 -0.3214  0.4513  1.8659
 3759TIP3    H232837   5.429   6.093   7.359 -0.2732  2.0032 -1.8383
 3760TIP3   OH232838   6.177   5.043   0.900 -0.2475 -0.1695 -0.1649
 3760TIP3    H132839   6.271   5.027   0.895  0.1993  0.7590  3.1487
 3760TIP3    H232840   6.138   4.956   0.897  0.6940 -0.5893 -1.2361
 3761TIP3   OH232841   2.954   0.900   1.232  0.6895 -0.6658 -0.0664
 3761TIP3    H132842   3.027   0.958   1.249  0.7977 -0.7818 -0.1353
 3761TIP3    H232843   2.971   0.822   1.285  1.5391 -1.4505 -1.4349
 3762TIP3   OH232844   3.453   0.397   7.611 -0.7341  0.2502  0.2120
 3762TIP3    H132845   3.479   0.305   7.612 -0.0103  0.4489  0.2662
 3762TIP3    H232846   3.438   0.419   7.703 -2.2357 -0.1664  0.0929
 3763TIP3   OH232847   4.250   1.516   2.074  0.3735 -0.0937 -0.0668
 3763TIP3    H132848   4.339   1.511   2.111 -0.1969  1.1274  1.6188
 3763TIP3    H232849   4.204   1.442   2.113  0.3475 -0.0502 -0.0142
 3764TIP3   OH232850   0.594   2.939   8.389  0.3324  0.2185 -0.6190
 3764TIP3    H132851   0.628   2.882   8.458 -1.4925  1.6407  1.6134
 3764TIP3    H232852   0.516   2.892   8.357 -0.4823  0.8192  0.3889
 3765TIP3   OH232853   6.570   4.080   1.694 -0.0250  0.2958 -0.6544
 3765TIP3    H132854   6.524   4.077   1.610  0.2271 -2.0271 -0.7856
 3765TIP3    H232855   6.531   4.009   1.745  1.4614  0.1130  0.2764
 3766TIP3   OH232856   1.026   1.029   0.980 -0.2201  0.2017 -0.4829
 3766TIP3    H132857   1.000   1.119   0.959 -0.5001  0.7662  1.9612
 3766TIP3    H232858   0.977   0.975   0.917 -0.6567  1.7047 -1.4907
 3767TIP3   OH232859   4.611   6.866   1.777  0.2055 -0.0531 -0.0611
 3767TIP3    H132860   4.695   6.880   1.733  0.7107  0.5855  1.0624
 3767TIP3    H232861   4.631   6.878   1.870 -0.6529 -2.1462  0.4581
 3768TIP3   OH232862   5.776   5.166   1.854 -0.1778  0.1968  0.4712
 3768TIP3    H132863   5.706   5.102   1.836 -1.8341  0.9857  3.3728
 3768TIP3    H232864   5.762   5.235   1.789 -2.5127  0.5831  1.3001
 3769TIP3   OH232865   6.035   5.693   7.339 -0.2470  0.2118  0.3361
 3769TIP3    H132866   6.038   5.601   7.315 -1.8572 -0.0208  0.8901
 3769TIP3    H232867   5.988   5.735   7.267  1.0630  0.7364 -0.2377
 3770TIP3   OH232868   1.686   2.223   0.016 -0.2498 -0.0600 -0.6411
 3770TIP3    H132869   1.750   2.276   0.063 -0.0246  1.1796 -2.2729
 3770TIP3    H232870   1.616   2.284  -0.007 -0.9838 -0.9288 -0.8043
 3771TIP3   OH232871   4.560   6.268   0.911  0.1019 -0.3119  0.0460
 3771TIP3    H132872   4.586   6.358   0.931 -0.9005  0.2115 -0.8905
 3771TIP3    H232873   4.464   6.271   0.910  0.0671 -1.2847 -0.5044
 3772TIP3   OH232874   5.659   4.242   0.748 -0.9147  0.2134 -0.2766
 3772TIP3    H132875   5.691   4.275   0.664 -3.0830  0.9062 -0.9015
 3772TIP3    H232876   5.604   4.312   0.783 -2.6736 -1.2779  0.1269
 3773TIP3   OH232877   6.658   1.974   1.097 -0.0337  0.1835  0.0880
 3773TIP3    H132878   6.596   1.919   1.145 -0.0749 -0.1317 -0.3215
 3773TIP3    H232879   6.635   2.063   1.122 -1.1754  0.1254 -0.6544
 3774TIP3   OH232880   3.777   6.633   7.145  0.3254  0.2479  0.0022
 3774TIP3    H132881   3.756   6.721   7.114  2.4884  0.3190 -1.4704
 3774TIP3    H232882   3.814   6.589   7.068 -0.7774 -2.0005  0.6790
 3775TIP3   OH232883   6.327   3.854   0.818 -0.6248 -0.3460  0.1225
 3775TIP3    H132884   6.308   3.921   0.884 -3.4001 -0.0042 -0.8728
 3775TIP3    H232885   6.400   3.804   0.855  0.9271  2.5484  1.3744
 3776TIP3   OH232886   0.564   0.804   2.311 -0.1538  0.0846 -0.2222
 3776TIP3    H132887   0.652   0.770   2.294 -1.4784 -2.4246 -3.1161
 3776TIP3    H232888   0.524   0.738   2.368 -0.7484  0.1208 -0.5859
 3777TIP3   OH232889   6.292   0.706   1.605 -0.7795 -0.1123 -0.9424
 3777TIP3    H132890   6.237   0.730   1.531 -1.4494 -0.4491 -0.5636
 3777TIP3    H232891   6.382   0.719   1.574 -1.0229 -0.9965 -2.0719
 3778TIP3   OH232892   5.023   0.864   7.325  0.1516  0.6084  0.2560
 3778TIP3    H132893   5.063   0.950   7.318  0.6221  0.3247 -0.6327
 3778TIP3    H232894   4.995   0.843   7.236 -0.8462  0.2605  0.6354
 3779TIP3   OH232895   3.223   2.318   0.737  0.0146  0.1002 -0.6487
 3779TIP3    H132896   3.312   2.310   0.702 -0.0118 -1.5715 -0.4171
 3779TIP3    H232897   3.223   2.403   0.781  2.4144 -0.9878  1.7792
 3780TIP3   OH232898   1.357   5.460   7.286 -0.0894 -0.4125 -0.3022
 3780TIP3    H132899   1.378   5.542   7.330  1.3339 -0.4629 -0.8138
 3780TIP3    H232900   1.270   5.437   7.316  0.2663  0.2937  1.3567
 3781TIP3   OH232901   6.087   6.400   0.050  0.6362  0.8721 -0.1852
 3781TIP3    H132902   6.153   6.347   0.096 -0.2228 -0.1382 -0.0821
 3781TIP3    H232903   6.056   6.343  -0.020 -1.3911  0.6294  0.8409
 3782TIP3   OH232904   2.240   0.874   2.662 -0.2489 -0.5352  0.1626
 3782TIP3    H132905   2.277   0.950   2.617  0.3118 -0.5428  0.5954
 3782TIP3    H232906   2.179   0.911   2.725 -1.5003 -0.5524 -0.9929
 3783TIP3   OH232907   1.540   6.770   7.102 -0.8145 -0.5896  0.0132
 3783TIP3    H132908   1.596   6.701   7.067 -0.9693  0.9024 -3.6007
 3783TIP3    H232909   1.451   6.741   7.081 -1.0673 -0.4277  0.8160
 3784TIP3   OH232910   1.717   4.341   3.096 -1.4458 -0.0121  0.2543
 3784TIP3    H132911   1.768   4.341   3.015 -0.6095  0.6639  0.7675
 3784TIP3    H232912   1.771   4.292   3.159 -0.9614  1.5016  1.0671
 3785TIP3   OH232913   4.629   1.351   7.920 -0.6354 -0.0833  0.2711
 3785TIP3    H132914   4.576   1.386   7.849 -0.1695  1.7727  0.7961
 3785TIP3    H232915   4.684   1.284   7.878 -0.4219  0.9265 -1.1238
 3786TIP3   OH232916   2.243   3.684   1.117  0.7835 -1.0607  0.3873
 3786TIP3    H132917   2.239   3.764   1.169 -1.5369 -0.1879 -0.9675
 3786TIP3    H232918   2.197   3.619   1.170  1.9594 -1.3296  1.1286
 3787TIP3   OH232919   0.500   0.972   7.740 -0.6352  0.2294 -0.5261
 3787TIP3    H132920   0.576   1.017   7.705  0.9751 -2.4678 -0.7818
 3787TIP3    H232921   0.428   0.999   7.683  0.7203  0.6587 -2.1170
 3788TIP3   OH232922   3.198   2.168   2.723 -0.0770  0.1786 -0.6953
 3788TIP3    H132923   3.132   2.217   2.773  1.0080  0.1264  0.8436
 3788TIP3    H232924   3.246   2.235   2.674  1.2661  0.7205  1.2375
 3789TIP3   OH232925   4.100   0.052   2.363 -0.4856  0.4900  0.4992
 3789TIP3    H132926   4.005   0.047   2.373 -0.4329 -0.9678  0.4540
 3789TIP3    H232927   4.127   0.117   2.428 -1.5811  1.5322 -0.0479
 3790TIP3   OH232928   6.285   3.829   8.031  0.0228  0.3770  0.3733
 3790TIP3    H132929   6.275   3.741   7.995  0.6734  0.2101  0.5709
 3790TIP3    H232930   6.202   3.872   8.015  0.0645  0.0759 -0.6929
 3791TIP3   OH232931   0.146   3.932   1.236 -0.3597 -0.1492  0.1088
 3791TIP3    H132932   0.186   3.973   1.159  0.6778 -0.6650  0.3557
 3791TIP3    H232933   0.102   4.004   1.281  2.6353  1.1292  1.3299
 3792TIP3   OH232934   5.979   4.753   1.212  0.1580 -0.0658  0.0752
 3792TIP3    H132935   5.978   4.686   1.280  3.0621 -0.9186 -0.5749
 3792TIP3    H232936   6.071   4.780   1.207 -0.8317  3.9970  0.2577
 3793TIP3   OH232937   3.972   2.482   0.703 -0.3425  0.1939 -0.2211
 3793TIP3    H132938   4.053   2.433   0.694  0.1641  1.0585 -0.5312
 3793TIP3    H232939   3.960   2.493   0.797  0.5231  1.0354 -0.1908
 3794TIP3   OH232940   6.062   1.647   7.973 -0.1556 -0.2661  0.2881
 3794TIP3    H132941   6.061   1.554   7.949 -1.2768  0.1629 -1.5014
 3794TIP3    H232942   5.970   1.671   7.978 -0.0145  1.5550 -2.9292
 3795TIP3   OH232943   3.177   4.249   1.427 -0.2990 -0.1071  0.0791
 3795TIP3    H132944   3.240   4.280   1.362 -0.2582 -0.6752 -0.1601
 3795TIP3    H232945   3.149   4.328   1.473  1.4891  0.0562  0.9863
 3796TIP3   OH232946   3.135   1.592   0.265  0.2041 -0.4276 -0.3663
 3796TIP3    H132947   3.228   1.607   0.281 -0.0772 -0.2099  1.2171
 3796TIP3    H232948   3.101   1.679   0.242 -0.0392  0.0072  1.4914
 3797TIP3   OH232949   1.763   2.669   1.528 -0.5830 -0.1039  0.6461
 3797TIP3    H132950   1.741   2.728   1.600 -0.6080 -1.0688  1.4417
 3797TIP3    H232951   1.713   2.590   1.545 -1.8412  0.2023 -1.3084
 3798TIP3   OH232952   1.968   2.580   1.796 -0.6396  0.4943 -0.0920
 3798TIP3    H132953   2.002   2.559   1.883 -0.3858 -1.5689 -0.6394
 3798TIP3    H232954   2.019   2.657   1.768  0.0278  0.5194  1.1385
 3799TIP3   OH232955   4.243   5.375   1.416  0.1343 -0.3910 -0.0593
 3799TIP3    H132956   4.281   5.462   1.414  0.5642 -0.5811 -0.1780
 3799TIP3    H232957   4.306   5.322   1.465 -0.0743 -0.6608 -0.0795
 3800TIP3   OH232958   6.820   0.799   2.522 -0.2184  0.1744 -0.6625
 3800TIP3    H132959   6.837   0.705   2.534 -1.0621  0.1510  0.4801
 3800TIP3    H232960   6.901   0.842   2.551 -0.4947 -0.1261  0.6028
 3801TIP3   OH232961   1.917   2.839   7.452  0.3692 -0.1825  0.2004
 3801TIP3    H132962   1.870   2.783   7.515  0.7907 -1.0179 -0.2081
 3801TIP3    H232963   2.009   2.811   7.460  1.1679  2.6037  2.2462
 3802TIP3   OH232964   3.311   0.235   2.171 -0.4489  0.2210 -0.5223
 3802TIP3    H132965   3.396   0.191   2.172 -0.7207 -0.3216 -1.0578
 3802TIP3    H232966   3.327   0.316   2.122 -0.0902  0.4487 -0.0448
 3803TIP3   OH232967   6.627   1.296   2.569  0.6919  0.2366 -0.7108
 3803TIP3    H132968   6.721   1.283   2.554  1.1303 -0.6558  2.2146
 3803TIP3    H232969   6.601   1.223   2.626 -2.2606 -0.5943 -2.8728
 3804TIP3   OH232970   1.912   5.228   7.606  0.2887  0.6011 -0.2886
 3804TIP3    H132971   2.001   5.223   7.571  0.0478  0.8347 -0.9401
 3804TIP3    H232972   1.868   5.151   7.572  0.9493 -0.9760  2.1352
 3805TIP3   OH232973   2.806   2.082   0.923 -0.1168  0.2505 -0.1431
 3805TIP3    H132974   2.845   1.998   0.948 -0.5122 -0.1946 -0.9696
 3805TIP3    H232975   2.756   2.109   1.000 -0.4242 -0.5443 -0.0471
 3806TIP3   OH232976   1.430   1.431   0.477  0.5059  0.1305 -0.0295
 3806TIP3    H132977   1.474   1.438   0.562  2.5417 -0.3334 -0.9923
 3806TIP3    H232978   1.379   1.350   0.483  2.0287 -0.8529  0.1808
 3807TIP3   OH232979   2.385   0.851   8.131  0.5258 -0.6183  0.3835
 3807TIP3    H132980   2.397   0.764   8.170  2.5115 -0.5455  0.0563
 3807TIP3    H232981   2.473   0.878   8.106  0.5765  2.9082  3.4790
 3808TIP3   OH232982   4.206   3.788   8.339 -0.0291 -0.3418  0.0715
 3808TIP3    H132983   4.272   3.838   8.387 -0.8136  0.2548  0.5448
 3808TIP3    H232984   4.158   3.740   8.406 -1.0683  0.4196 -0.0870
 3809TIP3   OH232985   0.728   0.862   8.338 -0.1041  0.3115 -0.3962
 3809TIP3    H132986   0.764   0.950   8.351  2.3404 -0.9283  2.4735
 3809TIP3    H232987   0.795   0.815   8.290  0.2014 -0.8363  1.0706
 3810TIP3   OH232988   0.247   2.938   0.398 -0.0795 -0.1403 -0.4099
 3810TIP3    H132989   0.233   3.032   0.404  1.7121  0.0793  2.6197
 3810TIP3    H232990   0.308   2.927   0.325  0.1525  1.1461 -0.4314
 3811TIP3   OH232991   5.327   4.405   0.750  0.2030 -0.2600 -0.2044
 3811TIP3    H132992   5.254   4.464   0.768  0.8814  0.6452 -0.3777
 3811TIP3    H232993   5.311   4.375   0.660 -0.4074 -0.7441  0.0562
 3812TIP3   OH232994   2.301   4.546   2.332 -0.4792 -0.3055 -0.0017
 3812TIP3    H132995   2.253   4.463   2.328  0.0119 -0.6816  1.2558
 3812TIP3    H232996   2.312   4.562   2.426 -2.7542  2.4536 -0.0586
 3813TIP3   OH232997   2.973   0.084   2.490 -0.8273  0.0931  0.3362
 3813TIP3    H132998   2.948  -0.005   2.514  1.9862 -0.8491  0.1069
 3813TIP3    H232999   2.997   0.079   2.397 -1.8927  1.4074 -0.0380
 3814TIP3   OH233000   4.714   0.025   0.923 -0.5564  0.0667  0.0080
 3814TIP3    H133001   4.731  -0.035   0.996 -1.6821 -0.6634 -0.3004
 3814TIP3    H233002   4.642   0.080   0.954  0.1808  0.9854  0.1207
 3815TIP3   OH233003   4.460   1.723   7.972 -0.7128 -0.4799  0.8347
 3815TIP3    H133004   4.538   1.740   7.919 -0.8027  0.0038  0.8490
 3815TIP3    H233005   4.413   1.807   7.971 -0.4751 -0.3211  2.0674
 3816TIP3   OH233006   0.922   5.761   7.840  0.3813 -0.2588 -0.5717
 3816TIP3    H133007   0.848   5.814   7.870 -0.3011 -0.0582 -2.4709
 3816TIP3    H233008   1.000   5.811   7.865 -0.1730  0.2405  0.1675
 3817TIP3   OH233009   6.019   5.077   0.630  0.0661 -0.6747 -0.6658
 3817TIP3    H133010   6.048   5.167   0.616 -0.0228 -0.7214 -1.1781
 3817TIP3    H233011   6.094   5.023   0.605  0.3589 -0.7261  0.3041
 3818TIP3   OH233012   2.385   4.243   2.737  0.4960  0.1500 -0.5777
 3818TIP3    H133013   2.336   4.165   2.762  1.4232 -0.2408  0.0403
 3818TIP3    H233014   2.385   4.298   2.815  0.3608  0.5105 -0.8259
 3819TIP3   OH233015   1.338   1.878   1.620 -0.0870  0.0524 -0.1378
 3819TIP3    H133016   1.250   1.860   1.587  0.3227 -1.7394 -0.3235
 3819TIP3    H233017   1.326   1.891   1.714 -0.7321  1.3095 -0.3793
 3820TIP3   OH233018   5.695   4.320   1.575 -0.2063  0.4339 -1.0037
 3820TIP3    H133019   5.671   4.285   1.661 -0.6994  0.1328 -1.2549
 3820TIP3    H233020   5.663   4.411   1.576  0.0122  0.5094 -0.7826
 3821TIP3   OH233021   3.976   2.461   1.726  0.2440  0.4677 -0.2923
 3821TIP3    H133022   3.908   2.507   1.676 -0.7041  1.1623  1.5136
 3821TIP3    H233023   3.937   2.376   1.747 -0.2280  0.9781  0.9938
 3822TIP3   OH233024   2.880   2.309   2.606 -0.0497 -0.0331  0.3999
 3822TIP3    H133025   2.869   2.286   2.698 -1.7489 -0.4201  0.1304
 3822TIP3    H233026   2.934   2.388   2.608 -1.4556  0.9615  1.8453
 3823TIP3   OH233027   1.829   6.828   1.128 -0.2163  0.3484  0.1135
 3823TIP3    H133028   1.907   6.777   1.147 -1.5167 -1.3928  1.1465
 3823TIP3    H233029   1.761   6.762   1.112 -1.2090  1.7749 -2.1287
 3824TIP3   OH233030   0.727   0.216   8.397 -0.6492 -0.8328 -0.6876
 3824TIP3    H133031   0.657   0.281   8.386 -0.1896 -0.1757  0.1259
 3824TIP3    H233032   0.775   0.218   8.314 -1.1977 -0.8029 -1.0068
 3825TIP3   OH233033   1.149   5.351   0.660  0.3051  0.1930  0.0759
 3825TIP3    H133034   1.062   5.392   0.657 -0.3930 -1.2229 -0.7797
 3825TIP3    H233035   1.192   5.391   0.735 -0.8316  1.4316  0.1160
 3826TIP3   OH233036   4.845   0.365   0.285 -0.1251  0.1813 -0.0068
 3826TIP3    H133037   4.796   0.447   0.292  0.2762  0.2966  1.6915
 3826TIP3    H233038   4.862   0.338   0.375  0.6517 -1.2395 -0.5393
 3827TIP3   OH233039   0.694   5.316   7.568 -0.3004 -0.2874 -0.1078
 3827TIP3    H133040   0.777   5.362   7.557  0.2149 -0.8688  1.1558
 3827TIP3    H233041   0.665   5.296   7.478 -0.4992  2.3524 -0.7044
 3828TIP3   OH233042   4.549   5.197   1.121 -0.0831 -0.9674 -0.3884
 3828TIP3    H133043   4.513   5.112   1.146  0.1861 -1.0393 -0.2333
 3828TIP3    H233044   4.633   5.202   1.168 -0.3205 -0.4115 -0.0083
 3829TIP3   OH233045   4.815   2.969   0.786  0.7618 -0.1591 -0.1797
 3829TIP3    H133046   4.821   2.972   0.690  1.7372 -0.7999 -0.1565
 3829TIP3    H233047   4.855   3.051   0.815  0.0331  0.2534 -0.3317
 3830TIP3   OH233048   1.676   5.131   8.187 -0.3931 -0.0124  0.1059
 3830TIP3    H133049   1.766   5.108   8.163 -0.9918 -2.2627 -0.2018
 3830TIP3    H233050   1.622   5.065   8.143 -2.2443  1.5512 -0.0781
 3831TIP3   OH233051   2.456   2.941   7.933  0.4185  0.2576  0.2375
 3831TIP3    H133052   2.512   2.959   7.857  1.6274  0.0155  1.0384
 3831TIP3    H233053   2.493   2.993   8.003 -2.0735  2.2907  0.1674
 3832TIP3   OH233054   2.014   0.909   2.814  0.2294  0.6125  0.1996
 3832TIP3    H133055   1.961   0.877   2.742  0.7544  0.5820 -0.1765
 3832TIP3    H233056   1.998   1.004   2.816  0.8224  0.7342 -0.4658
 3833TIP3   OH233057   2.286   6.096   7.405  0.2823  0.4893  0.0166
 3833TIP3    H133058   2.308   6.073   7.315  2.8953  0.0045  0.6976
 3833TIP3    H233059   2.242   6.020   7.440  1.1550 -0.1667 -0.2709
 3834TIP3   OH233060   6.114   1.133   0.616 -0.3940  0.2514  0.2428
 3834TIP3    H133061   6.074   1.202   0.564 -0.3423  0.0122 -0.1157
 3834TIP3    H233062   6.041   1.077   0.642 -0.4117  0.3364  0.3798
 3835TIP3   OH233063   1.929   6.554   0.151  0.2374  0.2858 -0.4010
 3835TIP3    H133064   1.948   6.488   0.219 -2.2329 -0.0476  0.0656
 3835TIP3    H233065   1.987   6.627   0.172  0.4412 -0.3151  1.3313
 3836TIP3   OH233066   6.242   5.062   2.180 -0.7960 -0.0230 -0.5944
 3836TIP3    H133067   6.220   4.968   2.178 -0.6081 -0.1954  1.9023
 3836TIP3    H233068   6.157   5.106   2.183 -0.8975 -0.0385 -2.2816
 3837TIP3   OH233069   0.130   5.111   1.428  0.4148  0.1015  0.2795
 3837TIP3    H133070   0.174   5.082   1.348 -0.8484 -1.1181 -0.0330
 3837TIP3    H233071   0.097   5.198   1.407 -1.1231 -0.7386 -1.1102
 3838TIP3   OH233072   1.172   2.758   8.043 -0.5593 -0.3709 -0.5130
 3838TIP3    H133073   1.119   2.712   8.107 -0.4925  0.1216 -0.0969
 3838TIP3    H233074   1.230   2.814   8.095 -0.4835  0.0122 -0.9967
 3839TIP3   OH233075   5.886   1.993   2.184  0.5116 -0.3953 -0.0691
 3839TIP3    H133076   5.972   2.029   2.207  1.2069 -2.1951  0.3169
 3839TIP3    H233077   5.872   1.922   2.246 -0.9526 -0.5989 -0.5869
 3840TIP3   OH233078   5.715   4.244   6.977  0.4430  0.9818 -0.0554
 3840TIP3    H133079   5.633   4.275   6.938 -0.4655  1.6868  2.2000
 3840TIP3    H233080   5.745   4.174   6.919 -1.0629  1.5722 -1.6405
 3841TIP3   OH233081   2.987   6.086   2.340 -0.1067 -0.0627  0.1074
 3841TIP3    H133082   3.011   6.030   2.266 -2.0371 -1.6776  0.6049
 3841TIP3    H233083   3.038   6.166   2.327  1.1601 -1.0897 -1.8184
 3842TIP3   OH233084   5.866   3.559   7.778  0.0614 -0.7217  0.5531
 3842TIP3    H133085   5.947   3.562   7.728 -1.1988  2.7332 -1.7149
 3842TIP3    H233086   5.809   3.500   7.729 -0.5518  1.2570 -1.3022
 3843TIP3   OH233087   3.014   6.958   7.592  0.8500  0.4667  0.4873
 3843TIP3    H133088   3.047   7.020   7.656  2.0879  1.0459 -0.6601
 3843TIP3    H233089   3.084   6.893   7.583 -0.0733 -0.6475  1.0409
 3844TIP3   OH233090   6.638   4.083   2.834 -0.2293 -0.0624  0.7071
 3844TIP3    H133091   6.698   4.140   2.882  0.5666 -0.3217  0.0435
 3844TIP3    H233092   6.578   4.144   2.789  1.2939  0.3553 -0.8878
 3845TIP3   OH233093   2.245   5.055   8.323  0.4801 -0.2121  0.0716
 3845TIP3    H133094   2.150   5.055   8.330  0.6341 -0.6094  3.2784
 3845TIP3    H233095   2.268   4.966   8.298  0.0661 -0.4224  0.4431
 3846TIP3   OH233096   0.037   3.700   7.331 -0.1353 -0.1901 -0.7127
 3846TIP3    H133097  -0.044   3.748   7.312  0.9231  1.7239 -0.6825
 3846TIP3    H233098   0.106   3.758   7.298  1.2009 -2.0259 -1.2414
 3847TIP3   OH233099   1.307   5.274   7.775  0.4803  0.2995  0.4123
 3847TIP3    H133100   1.222   5.244   7.808 -0.1955  0.8746 -0.7512
 3847TIP3    H233101   1.297   5.369   7.765  1.5457  0.4913  1.0491
 3848TIP3   OH233102   6.134   6.051   1.363  0.3155 -0.1035  0.7199
 3848TIP3    H133103   6.086   6.130   1.337  0.5732  0.3354  1.5221
 3848TIP3    H233104   6.115   6.042   1.457  0.7324 -0.6848  0.7529
 3849TIP3   OH233105   5.698   0.611   8.182  0.5852 -0.3090 -0.0296
 3849TIP3    H133106   5.761   0.564   8.237  1.5178 -0.2474 -1.0200
 3849TIP3    H233107   5.624   0.550   8.174  0.5335 -0.4039  1.1003
 3850TIP3   OH233108   3.206   5.926   3.042 -0.1937  0.3629 -0.2390
 3850TIP3    H133109   3.229   6.019   3.039  0.8099  0.1353  0.0094
 3850TIP3    H233110   3.281   5.882   3.001  0.0619 -0.4459  1.0530
 3851TIP3   OH233111   6.054   1.786   0.859  0.0997 -0.1969  0.1755
 3851TIP3    H133112   6.119   1.763   0.925 -1.0762 -1.1172  1.0625
 3851TIP3    H233113   5.976   1.810   0.909 -0.2756  0.8567 -0.8582
 3852TIP3   OH233114   2.278   2.571   8.195  0.4515  0.0858  0.0089
 3852TIP3    H133115   2.373   2.570   8.194  0.4669 -0.8463 -1.5628
 3852TIP3    H233116   2.253   2.483   8.222  0.0203  0.5584  1.1812
 3853TIP3   OH233117   1.730   3.792   8.177 -0.3690  0.1413 -0.0704
 3853TIP3    H133118   1.766   3.879   8.158 -2.5419  0.9246 -0.9153
 3853TIP3    H233119   1.784   3.759   8.249  2.2271  1.0294 -1.4762
 3854TIP3   OH233120   3.184   6.471   1.528 -0.2202  0.3834  0.0471
 3854TIP3    H133121   3.192   6.466   1.433 -1.0754 -1.0983  0.0401
 3854TIP3    H233122   3.091   6.461   1.546  0.0187 -0.1567  1.0806
 3855TIP3   OH233123   4.852   1.409   0.444  0.1007 -0.1826  0.0980
 3855TIP3    H133124   4.797   1.487   0.438 -0.3846 -0.1665  3.2285
 3855TIP3    H233125   4.792   1.336   0.429 -0.0366 -0.0506 -0.0038
 3856TIP3   OH233126   0.746   0.973   6.987 -0.1776 -0.0848 -0.0548
 3856TIP3    H133127   0.820   1.016   7.028 -0.2868  0.0868 -0.0374
 3856TIP3    H233128   0.744   0.886   7.027  0.8411 -0.5863 -1.0448
 3857TIP3   OH233129   1.302   1.060   1.397  0.2380 -0.3396  0.9589
 3857TIP3    H133130   1.386   1.105   1.387  0.1204 -0.1619  0.7648
 3857TIP3    H233131   1.284   1.025   1.309 -1.8603  3.0439 -0.1345
 3858TIP3   OH233132   3.175   3.643   0.020 -0.2236  1.0859 -0.3350
 3858TIP3    H133133   3.102   3.654   0.081 -0.8150 -2.6316 -0.1559
 3858TIP3    H233134   3.236   3.713   0.043 -2.3562  2.4796  1.5216
 3859TIP3   OH233135   2.697   4.938   1.912  0.3865 -0.1440 -0.0050
 3859TIP3    H133136   2.604   4.920   1.924  0.3213  0.2629  0.1090
 3859TIP3    H233137   2.740   4.889   1.981  0.3151 -0.9017 -0.4863
 3860TIP3   OH233138   2.710   2.321   1.531 -0.3398  0.0853 -0.4420
 3860TIP3    H133139   2.618   2.329   1.510 -0.9020 -0.6310  1.4634
 3860TIP3    H233140   2.733   2.232   1.504 -0.5039 -0.0985  0.0047
 3861TIP3   OH233141   4.758   0.982   1.015  0.1189  0.1407 -0.5342
 3861TIP3    H133142   4.784   1.074   1.010 -0.1915  0.2585 -0.0311
 3861TIP3    H233143   4.663   0.983   1.005  0.2305 -0.2399 -1.8105
 3862TIP3   OH233144   4.898   0.779   1.165  0.5636  0.0046  0.0597
 3862TIP3    H133145   4.814   0.734   1.176  0.5415 -0.1416 -0.6587
 3862TIP3    H233146   4.879   0.850   1.103  0.6507  0.8845  1.0049
 3863TIP3   OH233147   4.692   5.260   2.789 -0.4908 -0.0302  0.0849
 3863TIP3    H133148   4.640   5.273   2.710 -1.3045 -2.8162  0.0505
 3863TIP3    H233149   4.737   5.177   2.775  0.8657  0.3527  1.7919
 3864TIP3   OH233150   5.222   2.784   2.490 -0.2080  0.5667  0.3795
 3864TIP3    H133151   5.191   2.861   2.537  0.9080  0.5067  1.2444
 3864TIP3    H233152   5.275   2.820   2.418  0.8943  0.6178  1.1956
 3865TIP3   OH233153   1.937   5.136   2.636 -0.2598  0.1973 -0.4560
 3865TIP3    H133154   1.904   5.167   2.551 -0.0758  0.5781 -0.3867
 3865TIP3    H233155   1.975   5.213   2.677  0.3329 -0.1485 -0.3483
 3866TIP3   OH233156   5.279   1.964   0.676  0.0052  0.5125 -0.2946
 3866TIP3    H133157   5.349   1.915   0.719 -1.1035 -1.0920 -0.2398
 3866TIP3    H233158   5.241   2.016   0.746  0.2670  0.3464 -0.0242
 3867TIP3   OH233159   5.969   1.158   7.768  0.2743 -0.2225  0.4893
 3867TIP3    H133160   6.013   1.172   7.684 -1.4634  0.4535 -0.3511
 3867TIP3    H233161   5.879   1.136   7.745 -0.3565  0.4020  2.1870
 3868TIP3   OH233162   6.276   2.068   7.281  0.4426  0.0521 -0.1805
 3868TIP3    H133163   6.342   2.106   7.339  1.0193  0.6771 -1.2241
 3868TIP3    H233164   6.237   2.143   7.236  1.8338 -0.5131 -2.5233
 3869TIP3   OH233165   2.213   3.992   2.462 -0.2854 -0.4895  0.1761
 3869TIP3    H133166   2.227   3.950   2.547  0.0189 -3.4203 -1.2002
 3869TIP3    H233167   2.277   3.950   2.404 -1.8368 -0.0646 -1.9521
 3870TIP3   OH233168   3.304   0.150   7.459 -0.1669 -0.1197 -0.2126
 3870TIP3    H133169   3.274   0.067   7.424 -2.9601  0.4931  0.4765
 3870TIP3    H233170   3.303   0.138   7.554  0.8355  0.2630 -0.1443
 3871TIP3   OH233171   1.056   4.905   1.372 -0.0725  0.3158  0.3666
 3871TIP3    H133172   1.128   4.968   1.369 -1.0907  1.6454  1.9326
 3871TIP3    H233173   1.082   4.841   1.438 -0.2733  0.7441  0.8659
 3872TIP3   OH233174   0.883   6.913   1.064  0.1703  0.6530 -0.4821
 3872TIP3    H133175   0.831   6.837   1.090 -1.0910  0.7968 -2.3969
 3872TIP3    H233176   0.948   6.922   1.134  0.1186 -1.9329  0.0222
 3873TIP3   OH233177   6.251   5.932   3.319  0.6001 -0.2267  0.0640
 3873TIP3    H133178   6.275   5.923   3.411  0.2033 -0.2639  0.1652
 3873TIP3    H233179   6.159   5.957   3.321  0.3897 -0.9462 -0.3380
 3874TIP3   OH233180   4.915   4.359   8.059  0.6138 -0.5328  0.0216
 3874TIP3    H133181   4.877   4.362   7.971  0.7127 -0.2138 -0.0099
 3874TIP3    H233182   4.866   4.424   8.109  3.7258  2.9452 -1.0572
 3875TIP3   OH233183   2.395   2.972   3.385 -0.0150 -0.1369 -0.0465
 3875TIP3    H133184   2.409   2.878   3.398  1.5549 -0.0457 -0.7965
 3875TIP3    H233185   2.306   2.979   3.350  0.1914 -1.4421 -0.9067
 3876TIP3   OH233186   5.468   4.705   1.018 -0.4028  0.1007 -0.9063
 3876TIP3    H133187   5.399   4.664   1.070  0.7886  1.2605  1.7892
 3876TIP3    H233188   5.447   4.798   1.018  0.7216  0.3815 -0.6605
 3877TIP3   OH233189   4.430   2.684   7.790 -0.4307  0.1602  0.8878
 3877TIP3    H133190   4.489   2.621   7.749 -1.6890  0.4051 -1.4876
 3877TIP3    H233191   4.482   2.764   7.798  0.3029 -0.3379  1.2129
 3878TIP3   OH233192   1.266   1.949   1.882 -0.0990 -0.2258 -0.0928
 3878TIP3    H133193   1.306   2.002   1.951  1.3677 -0.8944 -0.3950
 3878TIP3    H233194   1.186   1.914   1.921 -1.3465  2.4320  0.0228
 3879TIP3   OH233195   4.900   3.194   2.804 -0.3147 -0.1640 -0.1379
 3879TIP3    H133196   4.829   3.215   2.744  0.0620 -0.0821 -0.5669
 3879TIP3    H233197   4.863   3.206   2.891 -1.4912 -2.2940 -0.2906
 3880TIP3   OH233198   3.312   3.631   2.072 -0.6797  0.2031  0.1126
 3880TIP3    H133199   3.402   3.639   2.040 -0.0658  1.4081  1.9658
 3880TIP3    H233200   3.286   3.542   2.049  2.4598 -1.6647  3.0056
 3881TIP3   OH233201   3.720   3.905   0.868  0.9619  0.5220  0.0902
 3881TIP3    H133202   3.752   3.821   0.834 -1.1609  0.7962 -3.0160
 3881TIP3    H233203   3.637   3.884   0.910 -0.4923  1.1252 -2.2674
 3882TIP3   OH233204   5.419   5.829   2.505  0.8410  0.2286 -0.3484
 3882TIP3    H133205   5.421   5.922   2.523 -1.5416  0.4511 -0.9117
 3882TIP3    H233206   5.375   5.790   2.580  2.2519 -0.5525  0.1169
 3883TIP3   OH233207   6.170   6.242   7.703  0.1789 -0.4411  0.8196
 3883TIP3    H133208   6.159   6.261   7.610  0.2402 -3.6620  0.0204
 3883TIP3    H233209   6.244   6.295   7.731  0.2432  0.4822 -0.9823
 3884TIP3   OH233210   2.886   2.600   8.197  0.1842  0.4194  0.1285
 3884TIP3    H133211   2.850   2.635   8.116 -0.0909 -0.3938 -0.1090
 3884TIP3    H233212   2.823   2.533   8.225  1.3537 -0.8541 -0.1569
 3885TIP3   OH233213   6.759   6.883   1.487  0.2726  0.3368  0.5163
 3885TIP3    H133214   6.773   6.826   1.411  0.0636 -0.0173  0.7377
 3885TIP3    H233215   6.846   6.920   1.505  0.1662  1.0520 -0.3740
 3886TIP3   OH233216   4.482   4.678   1.533 -0.1064 -0.2826  0.3128
 3886TIP3    H133217   4.432   4.717   1.605 -1.5920  0.2892 -0.9538
 3886TIP3    H233218   4.493   4.587   1.558 -1.4230 -0.3115  0.8874
 3887TIP3   OH233219   5.893   4.161   7.984 -0.1811  0.2164 -0.8990
 3887TIP3    H133220   5.877   4.085   8.040  1.1412 -0.7736 -1.7879
 3887TIP3    H233221   5.808   4.182   7.947 -0.6749 -0.4846 -0.2040
 3888TIP3   OH233222   6.701   4.547   1.106 -0.1612  0.9636  0.0147
 3888TIP3    H133223   6.716   4.642   1.099  0.2853  0.9244  0.3530
 3888TIP3    H233224   6.759   4.520   1.177  0.4430  0.2697 -0.7296
 3889TIP3   OH233225   3.733   6.659   8.153 -0.0113 -0.0838 -0.2249
 3889TIP3    H133226   3.735   6.572   8.193 -0.5816 -1.0277 -2.1197
 3889TIP3    H233227   3.822   6.672   8.120  0.5604  0.8522  1.5715
 3890TIP3   OH233228   2.626   0.081   2.206  0.1680  0.7124  0.6100
 3890TIP3    H133229   2.612  -0.004   2.247 -1.2744  1.4224  1.6647
 3890TIP3    H233230   2.641   0.141   2.279  3.6194  1.0434 -0.1566
 3891TIP3   OH233231   6.266   4.190   7.243  0.6021  0.4545 -0.3744
 3891TIP3    H133232   6.204   4.147   7.185 -0.8290 -2.3291  2.8315
 3891TIP3    H233233   6.352   4.161   7.212  0.1306  1.3469 -2.6694
 3892TIP3   OH233234   5.847   0.473   8.370  0.4584  0.7101  1.1700
 3892TIP3    H133235   5.833   0.404   8.436  0.7432  1.2147  1.7721
 3892TIP3    H233236   5.909   0.434   8.308  0.7443  0.4777  1.5966
 3893TIP3   OH233237   3.535   3.291   1.307 -0.2398 -0.0971 -0.5504
 3893TIP3    H133238   3.583   3.363   1.267  0.6385  0.5414  1.5369
 3893TIP3    H233239   3.505   3.325   1.391  0.4658 -2.2099  0.6405
 3894TIP3   OH233240   6.896   5.051   0.215 -0.0206 -0.9591  0.6743
 3894TIP3    H133241   6.899   5.147   0.216 -0.3178 -0.8207 -2.3277
 3894TIP3    H233242   6.987   5.024   0.225  0.1997 -0.3084  0.4934
 3895TIP3   OH233243   0.258   5.020   1.201  0.1381 -0.6020 -0.1492
 3895TIP3    H133244   0.241   5.080   1.129  0.4650  1.5001  1.3932
 3895TIP3    H233245   0.353   5.004   1.197  0.2027 -0.2559 -0.0280
 3896TIP3   OH233246   4.973   0.579   7.375 -0.4615 -0.0952 -0.6864
 3896TIP3    H133247   5.016   0.574   7.460 -1.3497 -1.1127 -0.2711
 3896TIP3    H233248   4.966   0.672   7.358 -0.3757  0.1314  0.4120
 3897TIP3   OH233249   1.418   6.798   0.616  0.3522  0.1369  0.5452
 3897TIP3    H133250   1.502   6.796   0.571  0.3495 -1.3871  0.5336
 3897TIP3    H233251   1.424   6.727   0.680 -0.3084  1.1008  1.7288
 3898TIP3   OH233252   1.705   3.914   0.803  0.5585 -0.5896 -0.6416
 3898TIP3    H133253   1.757   3.978   0.853 -1.7654  0.9146  0.0380
 3898TIP3    H233254   1.710   3.834   0.854  0.4492  0.1615  0.6040
 3899TIP3   OH233255   3.144   4.839   7.217 -0.3576  0.3779 -0.0241
 3899TIP3    H133256   3.097   4.768   7.262  1.4696 -2.1563 -1.8241
 3899TIP3    H233257   3.125   4.825   7.124  0.2618  2.1570 -0.4501
 3900TIP3   OH233258   5.157   4.011   8.247  0.4125 -0.2010  0.3247
 3900TIP3    H133259   5.157   4.067   8.169  0.5388  1.0800  1.2100
 3900TIP3    H233260   5.177   4.071   8.319  0.4661 -1.3894  1.3233
 3901TIP3   OH233261   1.293   2.055   2.291 -0.0751 -0.5750 -0.6136
 3901TIP3    H133262   1.210   2.028   2.330  0.0159  0.6025  0.4932
 3901TIP3    H233263   1.335   1.974   2.265 -1.2885 -1.2346 -0.5942
 3902TIP3   OH233264   0.847   0.947   0.757  0.4793  0.8214 -0.0304
 3902TIP3    H133265   0.838   0.859   0.721  0.5394  0.7302  0.1726
 3902TIP3    H233266   0.865   1.003   0.681 -0.6724  0.8410 -0.2962
 3903TIP3   OH233267   1.449   4.576   1.395  0.0692  0.0990  0.1035
 3903TIP3    H133268   1.531   4.544   1.358  0.6196  0.9436  0.5469
 3903TIP3    H233269   1.474   4.610   1.481 -0.7704  0.2469  0.2939
 3904TIP3   OH233270   3.520   0.146   7.079 -0.4362  0.6504 -0.0450
 3904TIP3    H133271   3.579   0.221   7.082 -0.6544  0.7928  1.5473
 3904TIP3    H233272   3.465   0.162   7.003  1.0270  0.9174 -1.0853
 3905TIP3   OH233273   1.534   4.242   2.497  0.5394  0.2458 -0.1461
 3905TIP3    H133274   1.538   4.151   2.526  1.3821  0.6610  1.1253
 3905TIP3    H233275   1.543   4.293   2.577 -1.6429  1.4828 -0.6110
 3906TIP3   OH233276   4.531   1.253   1.299 -0.4220  0.0786 -0.4915
 3906TIP3    H133277   4.463   1.266   1.234 -0.6523  0.5895 -0.1568
 3906TIP3    H233278   4.575   1.172   1.273 -1.5001 -0.5481 -0.4089
 3907TIP3   OH233279   5.789   6.088   7.357  0.0619  0.2019  0.3059
 3907TIP3    H133280   5.724   6.157   7.342  0.8312  0.3853 -2.9842
 3907TIP3    H233281   5.752   6.011   7.314  0.5660 -0.5896  1.2723
 3908TIP3   OH233282   1.557   5.183   0.348 -0.3236  0.2223  0.5701
 3908TIP3    H133283   1.568   5.266   0.302 -2.1110  0.1214 -0.1528
 3908TIP3    H233284   1.536   5.120   0.278 -1.3930 -0.2968  1.3189
 3909TIP3   OH233285   0.092   0.197   2.168 -0.2045 -0.1656 -0.2663
 3909TIP3    H133286   0.002   0.203   2.137  0.0979  0.0720 -1.1305
 3909TIP3    H233287   0.108   0.282   2.211  0.2690  0.6637 -1.9955
 3910TIP3   OH233288   0.959   5.410   2.003 -0.0921 -0.4742 -0.0197
 3910TIP3    H133289   1.002   5.360   1.933  0.3468 -0.2465  0.0831
 3910TIP3    H233290   0.947   5.498   1.965 -1.7260 -0.8899 -0.5467
 3911TIP3   OH233291   6.439   3.570   2.370 -0.0367  0.0040 -0.0935
 3911TIP3    H133292   6.483   3.525   2.298  0.0987 -0.9511  0.5602
 3911TIP3    H233293   6.490   3.650   2.383  0.6825 -0.4158 -0.2461
 3912TIP3   OH233294   4.161   1.469   2.407  0.1417  0.0468 -0.1176
 3912TIP3    H133295   4.071   1.445   2.383 -0.1135  1.1432 -0.2972
 3912TIP3    H233296   4.166   1.453   2.501 -0.1753 -0.2125 -0.1432
 3913TIP3   OH233297   3.168   5.926   0.597 -0.3812 -0.3466 -0.2112
 3913TIP3    H133298   3.124   5.964   0.673 -0.4950 -1.3142  0.2154
 3913TIP3    H233299   3.200   5.841   0.627  0.6347 -0.2263 -0.8970
 3914TIP3   OH233300   0.521   1.165   2.787 -0.2044  0.1842 -0.5479
 3914TIP3    H133301   0.435   1.188   2.753  0.4354  2.5671 -0.7118
 3914TIP3    H233302   0.579   1.167   2.711  0.1807 -0.4205 -0.2768
 3915TIP3   OH233303   5.900   3.198   2.983  0.1529  0.7685  0.3111
 3915TIP3    H133304   5.928   3.189   2.892 -0.4218  0.8499  0.1191
 3915TIP3    H233305   5.863   3.113   3.005 -3.2260  1.7764 -0.7863
 3916TIP3   OH233306   3.014   6.275   7.753  0.7055  0.0080  0.1875
 3916TIP3    H133307   3.098   6.264   7.708  1.1726 -1.0254  1.2692
 3916TIP3    H233308   2.966   6.194   7.735  0.0665  0.4393 -0.1158
 3917TIP3   OH233309   4.965   5.774   8.060 -0.3378  0.0105 -0.7009
 3917TIP3    H133310   5.046   5.811   8.092 -0.5887  3.4909 -3.4568
 3917TIP3    H233311   4.977   5.768   7.965 -3.2460  0.6245 -1.2060
 3918TIP3   OH233312   2.855   6.248   8.237 -0.6290  0.0280  0.1703
 3918TIP3    H133313   2.794   6.307   8.192 -1.0940 -1.0673 -0.6848
 3918TIP3    H233314   2.939   6.264   8.194 -0.7692  0.0194 -0.1110
 3919TIP3   OH233315   1.534   4.369   1.943 -0.0711 -0.2460 -0.7129
 3919TIP3    H133316   1.473   4.393   2.013 -1.3242 -1.0824 -1.4775
 3919TIP3    H233317   1.553   4.276   1.959  2.1899  0.3440  0.3559
 3920TIP3   OH233318   0.432   6.340   1.764 -0.5756  0.2733 -0.5666
 3920TIP3    H133319   0.364   6.292   1.812 -1.2019  0.7619 -0.9474
 3920TIP3    H233320   0.466   6.403   1.828  0.2098 -0.6216 -0.0814
 3921TIP3   OH233321   1.895   3.851   3.401  0.3021 -0.1863  0.1165
 3921TIP3    H133322   1.902   3.935   3.445 -0.7671 -0.7819  1.5307
 3921TIP3    H233323   1.886   3.872   3.308  0.1017  1.2462  0.4421
 3922TIP3   OH233324   0.389   4.870   0.881 -0.1858 -0.1105 -0.2511
 3922TIP3    H133325   0.427   4.847   0.965 -1.9713 -1.2844  0.3043
 3922TIP3    H233326   0.297   4.844   0.888 -0.6957  0.9674 -2.1105
 3923TIP3   OH233327   3.400   3.776   3.192  0.2330  0.2440  0.2578
 3923TIP3    H133328   3.478   3.722   3.200  0.4937  0.4413 -0.7907
 3923TIP3    H233329   3.365   3.782   3.281  0.6742 -0.9282  0.5193
 3924TIP3   OH233330   3.810   2.187   1.682 -0.3628  0.0228 -0.3510
 3924TIP3    H133331   3.862   2.108   1.665 -0.8493 -0.2561 -0.5791
 3924TIP3    H233332   3.753   2.162   1.755  0.5265  0.6611  0.5898
 3925TIP3   OH233333   4.226   6.811   1.280  0.0955 -0.3724  0.3359
 3925TIP3    H133334   4.216   6.722   1.313 -0.4584 -0.9076 -1.1701
 3925TIP3    H233335   4.299   6.806   1.218  0.6907  0.4475  0.9545
 3926TIP3   OH233336   6.411   3.700   1.204  0.3134 -0.1401  0.2536
 3926TIP3    H133337   6.422   3.606   1.191 -0.7606 -0.1341 -0.8397
 3926TIP3    H233338   6.456   3.718   1.287  2.7812 -1.1492 -0.7671
 3927TIP3   OH233339   6.606   5.000   7.717  0.0081  0.1642 -0.4104
 3927TIP3    H133340   6.629   4.937   7.648 -0.1203 -0.1503 -0.1703
 3927TIP3    H233341   6.511   4.994   7.724  0.0464 -0.0156 -0.0117
 3928TIP3   OH233342   3.364   0.566   8.026 -0.3314 -0.7481  0.1303
 3928TIP3    H133343   3.435   0.538   8.085 -1.5435 -1.7510  1.1730
 3928TIP3    H233344   3.306   0.490   8.022 -1.3891  0.0864 -0.6465
 3929TIP3   OH233345   3.930   3.345   2.128 -0.5512  0.2251 -0.0815
 3929TIP3    H133346   3.922   3.269   2.070  0.5430  1.6433 -2.2503
 3929TIP3    H233347   3.939   3.308   2.216  2.1055 -2.3243 -1.2451
 3930TIP3   OH233348   5.732   5.036   3.326  0.1786 -0.9319  0.5610
 3930TIP3    H133349   5.708   5.128   3.338  1.2881 -0.4901 -0.3888
 3930TIP3    H233350   5.665   5.002   3.266  0.4277 -0.4271 -0.0066
 3931TIP3   OH233351   2.160   5.651   2.267 -0.3943  0.2054 -0.1179
 3931TIP3    H133352   2.204   5.721   2.218  2.4511 -1.7795 -0.6430
 3931TIP3    H233353   2.229   5.610   2.318 -1.4856 -3.3267 -1.1622
 3932TIP3   OH233354   0.531   4.437   2.675  0.2931 -0.2614 -0.2732
 3932TIP3    H133355   0.586   4.505   2.637  0.5275 -0.3035 -0.0152
 3932TIP3    H233356   0.513   4.378   2.602 -1.2001  0.8819 -0.8851
 3933TIP3   OH233357   1.458   4.085   0.796  0.0324  0.1791 -0.2485
 3933TIP3    H133358   1.445   4.115   0.706 -0.7247  0.1432 -0.1610
 3933TIP3    H233359   1.534   4.028   0.792  1.3256  1.8379 -0.4866
 3934TIP3   OH233360   4.288   0.301   2.075 -0.1939  0.2531  0.7605
 3934TIP3    H133361   4.323   0.390   2.070 -0.3153  0.2568 -0.4923
 3934TIP3    H233362   4.259   0.282   1.985 -0.0705 -1.0877  0.9878
 3935TIP3   OH233363   2.514   0.629   0.677 -0.2511  0.1545  0.1474
 3935TIP3    H133364   2.433   0.614   0.726  1.1030 -1.5216  1.9966
 3935TIP3    H233365   2.575   0.665   0.741  1.3701 -1.4227 -0.4387
 3936TIP3   OH233366   3.419   6.205   6.815 -0.0290  0.5758  0.4808
 3936TIP3    H133367   3.393   6.137   6.753  1.3007  0.3282  0.1652
 3936TIP3    H233368   3.370   6.185   6.895 -2.4596  1.4255 -0.7211
 3937TIP3   OH233369   2.746   5.670   7.219  0.2855 -0.5365  0.1358
 3937TIP3    H133370   2.693   5.659   7.139  0.5837 -0.4970 -0.0682
 3937TIP3    H233371   2.735   5.588   7.266 -0.1220 -0.4536  0.1957
 3938TIP3   OH233372   0.293   3.172   1.501 -0.3053  0.0890 -0.5270
 3938TIP3    H133373   0.352   3.106   1.539 -2.2410 -1.5992 -0.2628
 3938TIP3    H233374   0.320   3.254   1.542  1.8016 -0.5961 -0.3937
 3939TIP3   OH233375   2.787   5.181   1.781 -0.1717 -0.0101  0.7371
 3939TIP3    H133376   2.780   5.151   1.691  1.4399  1.0000  0.2365
 3939TIP3    H233377   2.773   5.103   1.834 -1.9504 -0.4765 -0.3303
 3940TIP3   OH233378   4.084   6.786   0.798 -0.1130  0.2887  0.6347
 3940TIP3    H133379   4.053   6.773   0.709 -0.6695  1.9337  0.5675
 3940TIP3    H233380   4.170   6.827   0.788  0.3062 -0.4992  0.8678
 3941TIP3   OH233381   1.625   3.751   2.582 -0.1307  0.5586  0.1741
 3941TIP3    H133382   1.592   3.679   2.528 -0.3079  0.3841  0.5098
 3941TIP3    H233383   1.714   3.725   2.605 -0.7159 -0.3135  1.5953
 3942TIP3   OH233384   2.359   2.997   2.647  0.1824 -0.8997  0.1656
 3942TIP3    H133385   2.436   2.944   2.627 -0.3149 -1.6665  0.2420
 3942TIP3    H233386   2.290   2.961   2.591 -0.0025  0.1290 -0.3076
 3943TIP3   OH233387   0.201   3.214   0.409  0.2428 -0.3900 -0.1834
 3943TIP3    H133388   0.145   3.230   0.333 -1.8163  0.4171  1.3907
 3943TIP3    H233389   0.283   3.259   0.389 -0.0917 -0.5227 -2.0443
 3944TIP3   OH233390   4.740   5.111   0.765  0.2359 -0.8647  0.2797
 3944TIP3    H133391   4.808   5.056   0.727 -0.3102 -0.7433 -0.9388
 3944TIP3    H233392   4.786   5.167   0.827  1.4467 -0.1451 -1.1822
 3945TIP3   OH233393   6.070   4.128   7.048 -0.0102  0.1676  0.5183
 3945TIP3    H133394   6.015   4.096   6.977  0.4666 -1.5259  0.8539
 3945TIP3    H233395   6.013   4.125   7.125 -0.2740  1.1710  0.3693
 3946TIP3   OH233396   2.612   4.214   2.557 -0.0149 -0.3074 -0.2548
 3946TIP3    H133397   2.631   4.248   2.645  1.1411 -1.1434 -0.1441
 3946TIP3    H233398   2.523   4.181   2.562  1.0047 -3.1941  1.6178
 3947TIP3   OH233399   2.153   0.766   1.627  0.1750 -0.0023 -0.8027
 3947TIP3    H133400   2.205   0.790   1.704  0.9426  0.5480 -1.4864
 3947TIP3    H233401   2.176   0.831   1.561 -0.4785 -0.4735 -1.5103
 3948TIP3   OH233402   1.616   2.008   7.560 -0.4669 -0.2357 -0.2431
 3948TIP3    H133403   1.602   1.937   7.497 -0.2728  0.1751 -0.7575
 3948TIP3    H233404   1.596   2.088   7.511 -0.7699  0.0643  0.3580
 3949TIP3   OH233405   1.027   0.353   8.311 -0.1883 -0.2267 -0.1948
 3949TIP3    H133406   1.116   0.388   8.306 -0.1870  0.0798  1.4121
 3949TIP3    H233407   0.971   0.428   8.296 -0.1831 -0.3042 -0.6118
 3950TIP3   OH233408   3.780   1.996   2.128 -0.3890  0.2117  0.1800
 3950TIP3    H133409   3.842   2.066   2.149 -2.3649  1.4693  2.2162
 3950TIP3    H233410   3.830   1.915   2.141  1.7485  1.1263 -1.5591
 3951TIP3   OH233411   1.476   6.540   0.740 -0.5215 -0.5691  0.0235
 3951TIP3    H133412   1.381   6.525   0.742 -0.0173 -4.9099  0.2257
 3951TIP3    H233413   1.507   6.490   0.665  1.5883  1.4035 -0.5241
 3952TIP3   OH233414   0.997   4.795   0.494 -0.1093  0.2638  0.0216
 3952TIP3    H133415   0.993   4.707   0.458 -0.7898 -0.1938  1.1758
 3952TIP3    H233416   1.065   4.791   0.561  1.1396  1.1044 -1.1366
 3953TIP3   OH233417   3.404   1.323   0.229  0.1397 -0.2565  0.3945
 3953TIP3    H133418   3.350   1.279   0.163  1.4061 -2.5673  0.8089
 3953TIP3    H233419   3.416   1.412   0.194  0.0783 -1.1430 -2.0758
 3954TIP3   OH233420   2.393   2.147   1.590  0.1457  0.1123  0.8305
 3954TIP3    H133421   2.386   2.070   1.646 -1.6581  1.9661  3.3813
 3954TIP3    H233422   2.330   2.131   1.519 -1.4684 -0.1227  2.2490
 3955TIP3   OH233423   6.730   4.058   0.585  0.3455 -0.0145  0.1524
 3955TIP3    H133424   6.778   3.980   0.612  0.7206  0.3691  0.5947
 3955TIP3    H233425   6.672   4.027   0.514  1.1951 -0.4931 -0.3453
 3956TIP3   OH233426   6.434   0.796   7.770 -0.4920  0.6223 -0.2126
 3956TIP3    H133427   6.349   0.754   7.760 -0.2273  0.5066 -2.3322
 3956TIP3    H233428   6.490   0.755   7.704  1.1346  0.9184  0.9254
 3957TIP3   OH233429   0.878   3.950   2.353  0.1062 -0.0995 -0.0758
 3957TIP3    H133430   0.918   3.994   2.278  0.2387 -0.7789 -0.4108
 3957TIP3    H233431   0.785   3.944   2.330  0.1653 -0.4118 -0.2465
 3958TIP3   OH233432   6.625   5.178   8.308  0.0538  0.2359  0.4324
 3958TIP3    H133433   6.656   5.121   8.378  1.1161 -0.4488 -0.5556
 3958TIP3    H233434   6.555   5.129   8.266  0.5726 -0.0963 -0.0509
 3959TIP3   OH233435   5.279   0.359   3.586  0.7777 -0.2385 -0.0080
 3959TIP3    H133436   5.198   0.408   3.597  1.7992  1.5668 -0.2070
 3959TIP3    H233437   5.258   0.294   3.518 -0.2818  0.6841 -0.5895
 3960TIP3   OH233438   1.668   0.890   1.836  0.0500  0.3549 -0.2053
 3960TIP3    H133439   1.730   0.848   1.777  0.7733 -0.2879  0.9542
 3960TIP3    H233440   1.697   0.863   1.924 -0.8561  1.4235  0.4531
 3961TIP3   OH233441   0.686   6.154   1.837 -0.2000  0.9256 -0.1929
 3961TIP3    H133442   0.708   6.098   1.912 -1.0917 -1.0179 -1.3168
 3961TIP3    H233443   0.648   6.232   1.877 -1.3836 -0.3882  1.3977
 3962TIP3   OH233444   3.762   6.728   2.534  0.5147  0.5686  0.0225
 3962TIP3    H133445   3.764   6.652   2.476 -3.4675  0.0276  0.3409
 3962TIP3    H233446   3.798   6.696   2.617 -1.9354 -1.3974  0.4429
 3963TIP3   OH233447   1.623   1.179   0.979 -0.2020 -0.1674 -0.0986
 3963TIP3    H133448   1.680   1.243   0.936  0.2505 -0.2873  0.3155
 3963TIP3    H233449   1.580   1.228   1.049 -2.5663  0.5850 -1.9454
 3964TIP3   OH233450   0.571   6.217   0.657 -0.0558 -0.4209  0.5825
 3964TIP3    H133451   0.493   6.271   0.643  0.2017  0.3524  1.9850
 3964TIP3    H233452   0.567   6.151   0.588 -2.3691 -0.8719  1.0656
 3965TIP3   OH233453   1.189   2.201   8.193  1.0162  1.3873 -0.5050
 3965TIP3    H133454   1.191   2.113   8.231 -1.1523  1.0634 -1.0147
 3965TIP3    H233455   1.281   2.230   8.195  1.3554  0.4444  2.6294
 3966TIP3   OH233456   1.053   2.575   3.030 -0.4001  0.3285 -0.2951
 3966TIP3    H133457   1.058   2.670   3.042  2.3053  0.5125 -1.8254
 3966TIP3    H233458   0.993   2.564   2.956 -0.9235  0.8107  0.0468
 3967TIP3   OH233459   5.297   1.238   7.173 -0.0396  0.0270 -0.0016
 3967TIP3    H133460   5.359   1.175   7.135 -0.0550  0.4020 -0.6616
 3967TIP3    H233461   5.247   1.270   7.098 -2.3721 -1.6834  0.7075
 3968TIP3   OH233462   5.246   5.192   2.864 -0.3101 -0.0223  0.2795
 3968TIP3    H133463   5.237   5.234   2.949  2.0350  0.7401  0.2327
 3968TIP3    H233464   5.283   5.105   2.884 -1.6302 -0.6405  0.1333
 3969TIP3   OH233465   0.902   3.387   1.339  0.3163 -0.0269 -0.2310
 3969TIP3    H133466   0.988   3.428   1.336 -0.2174  1.0774 -2.3797
 3969TIP3    H233467   0.869   3.405   1.427  1.3730  1.4690 -0.1150
 3970TIP3   OH233468   4.824   1.464   2.383 -0.1648  0.3801 -0.6800
 3970TIP3    H133469   4.904   1.517   2.384 -0.3665  0.7178 -1.6070
 3970TIP3    H233470   4.855   1.375   2.364  0.2484 -0.0179  1.5645
 3971TIP3   OH233471   6.152   3.755   1.073 -0.0396 -0.0874 -0.2625
 3971TIP3    H133472   6.243   3.754   1.104  1.3002  1.9125 -3.6620
 3971TIP3    H233473   6.117   3.670   1.100  3.3004 -1.5686 -0.1348
 3972TIP3   OH233474   3.373   1.157   1.217 -0.2493 -0.1959 -0.3324
 3972TIP3    H133475   3.390   1.088   1.281  1.1704 -0.2992 -0.7737
 3972TIP3    H233476   3.406   1.237   1.258  0.0091 -0.1422 -0.6389
 3973TIP3   OH233477   1.851   1.954   1.445  0.0577  0.4290 -0.1997
 3973TIP3    H133478   1.758   1.948   1.420 -0.6018  1.0707  1.8643
 3973TIP3    H233479   1.869   2.048   1.448 -0.1863  0.4643  2.3943
 3974TIP3   OH233480   4.429   0.148   7.925  0.0109 -0.5185  0.5413
 3974TIP3    H133481   4.507   0.199   7.942  0.0336  0.0408 -1.1393
 3974TIP3    H233482   4.393   0.183   7.844 -0.5867 -2.4322 -0.0735
 3975TIP3   OH233483   4.138   4.288   2.292 -0.1025 -0.4686 -0.7165
 3975TIP3    H133484   4.177   4.360   2.244  0.4005 -0.2422  0.0251
 3975TIP3    H233485   4.122   4.322   2.380 -0.1059 -1.1729 -0.4315
 3976TIP3   OH233486   2.483   0.357   1.787  0.6001  0.2169 -0.2356
 3976TIP3    H133487   2.504   0.449   1.801 -0.6850  0.1323  3.0220
 3976TIP3    H233488   2.401   0.358   1.736  0.4878  0.8659 -0.0433
 3977TIP3   OH233489   6.263   3.598   7.871  0.8915  0.7412 -0.5568
 3977TIP3    H133490   6.336   3.537   7.883 -0.2007 -0.8332 -1.5344
 3977TIP3    H233491   6.284   3.646   7.791  0.1723 -0.8232 -1.7334
 3978TIP3   OH233492   2.244   1.379   2.605 -0.1289  0.7041  0.3577
 3978TIP3    H133493   2.330   1.396   2.645  0.1014  2.5179 -0.7830
 3978TIP3    H233494   2.209   1.306   2.655  2.4840 -0.7585  0.2681
 3979TIP3   OH233495   2.704   3.913   1.143 -0.6796 -0.5897  0.1885
 3979TIP3    H133496   2.674   3.908   1.234 -0.7691 -0.5117  0.1645
 3979TIP3    H233497   2.748   3.998   1.137 -0.2540 -0.8038  0.2816
 3980TIP3   OH233498   0.342   0.200   0.105 -0.3753 -0.1168  0.8481
 3980TIP3    H133499   0.309   0.152   0.029  0.5939  0.0596  0.2962
 3980TIP3    H233500   0.419   0.150   0.133  1.7118  1.9642 -0.7979
 3981TIP3   OH233501   2.904   3.436   0.649 -0.1079 -0.0281 -0.1184
 3981TIP3    H133502   2.842   3.468   0.583  0.3699  2.6455  0.5772
 3981TIP3    H233503   2.849   3.390   0.712 -0.8667 -0.7248 -1.2492
 3982TIP3   OH233504   1.593   3.267   0.248 -0.0327 -0.2960  0.0785
 3982TIP3    H133505   1.518   3.326   0.245 -1.9159 -2.5604 -0.3533
 3982TIP3    H233506   1.583   3.220   0.331  0.4647 -1.1504 -0.3306
 3983TIP3   OH233507   6.399   3.251   2.007  0.2013 -0.0879 -0.2520
 3983TIP3    H133508   6.344   3.194   1.953 -0.7457 -1.4159  1.9952
 3983TIP3    H233509   6.458   3.191   2.053  0.4538  0.9193  0.7870
 3984TIP3   OH233510   6.923   2.794   7.372 -1.0134 -0.1904 -0.3212
 3984TIP3    H133511   6.967   2.869   7.332  0.5953 -0.8179  0.2263
 3984TIP3    H233512   6.897   2.740   7.297 -0.6903  0.0991 -0.6497
 3985TIP3   OH233513   6.255   1.425   0.773 -0.4853  0.5044  0.7160
 3985TIP3    H133514   6.259   1.469   0.688  0.7631 -1.1509 -0.1429
 3985TIP3    H233515   6.309   1.479   0.830  1.2582  0.0084 -0.3899
 3986TIP3   OH233516   4.961   2.007   1.647 -0.4272  0.0292  0.9390
 3986TIP3    H133517   4.871   1.993   1.618  0.3684 -1.1433 -1.1603
 3986TIP3    H233518   4.991   1.920   1.673  0.0192  0.4697  1.9490
 3987TIP3   OH233519   0.174   4.077   0.204 -0.4303 -0.6235 -0.4489
 3987TIP3    H133520   0.131   4.128   0.136 -1.2239  1.0298  1.2031
 3987TIP3    H233521   0.103   4.036   0.253 -0.3138  2.0078  2.2116
 3988TIP3   OH233522   2.249   5.379   1.695  0.1993  0.1328  0.1625
 3988TIP3    H133523   2.287   5.417   1.773 -0.2737  2.1241 -0.5293
 3988TIP3    H233524   2.155   5.384   1.708  0.0768  1.8058 -1.0877
 3989TIP3   OH233525   0.737   5.266   1.555  0.2237 -0.1581 -0.1505
 3989TIP3    H133526   0.735   5.319   1.635  0.7266  1.1803 -0.9961
 3989TIP3    H233527   0.646   5.268   1.523  0.0613 -0.5414  0.2729
 3990TIP3   OH233528   5.516   6.648   8.428  0.5978 -0.3756 -0.5679
 3990TIP3    H133529   5.562   6.668   8.347  0.2975 -1.3959 -1.0094
 3990TIP3    H233530   5.457   6.722   8.442 -0.5391 -0.9158 -2.1711
 3991TIP3   OH233531   0.074   2.605   0.989  0.3439  0.2543 -0.8526
 3991TIP3    H133532   0.152   2.632   0.940 -0.3647  1.7827 -1.1907
 3991TIP3    H233533   0.069   2.667   1.062 -1.6613  1.5392 -1.9772
 3992TIP3   OH233534   1.565   5.122   7.719  0.6303  0.0169 -0.3007
 3992TIP3    H133535   1.482   5.169   7.730  0.1567 -0.6627 -0.8611
 3992TIP3    H233536   1.555   5.043   7.772  0.9344 -0.0565 -0.3506
 3993TIP3   OH233537   5.847   3.733   1.567  0.2526  0.1755  0.4089
 3993TIP3    H133538   5.897   3.808   1.535 -0.4432  0.3740 -0.2512
 3993TIP3    H233539   5.909   3.683   1.620  1.0805  0.5310 -0.2083
 3994TIP3   OH233540   6.352   6.064   1.853  0.2350 -0.0401  0.3440
 3994TIP3    H133541   6.269   6.017   1.844  0.1269  0.5455 -3.1058
 3994TIP3    H233542   6.416   5.995   1.872 -0.8014 -0.6998  1.5466
 3995TIP3   OH233543   3.474   5.383   0.544  0.1520  0.5523  0.3411
 3995TIP3    H133544   3.408   5.317   0.524  0.0941  0.9231 -0.7531
 3995TIP3    H233545   3.558   5.338   0.528  0.1266  0.5692  0.1586
 3996TIP3   OH233546   2.642   3.218   0.270  0.3990  0.2824  0.6204
 3996TIP3    H133547   2.607   3.149   0.326  2.5150 -1.4115 -0.0381
 3996TIP3    H233548   2.607   3.199   0.183  0.7871  0.2017  0.4843
 3997TIP3   OH233549   4.709   4.317   1.419 -0.1428 -0.4560  0.4312
 3997TIP3    H133550   4.802   4.308   1.398  0.0316  0.1848  0.9207
 3997TIP3    H233551   4.665   4.259   1.356  0.6758 -1.8282  1.0838
 3998TIP3   OH233552   3.159   3.061   0.344  0.2208 -0.5158  0.0528
 3998TIP3    H133553   3.254   3.066   0.344  0.2698 -1.0875  1.1475
 3998TIP3    H233554   3.140   2.967   0.353 -0.3940 -0.1916  3.1936
 3999TIP3   OH233555   3.151   4.753   0.159  0.1641  0.4277 -0.0598
 3999TIP3    H133556   3.234   4.786   0.193  0.7340 -0.4537 -0.5671
 3999TIP3    H233557   3.173   4.715   0.074 -0.2582 -2.0145  0.8390
 4000TIP3   OH233558   0.392   6.724   7.151  0.6162 -0.1513  0.2408
 4000TIP3    H133559   0.460   6.769   7.201 -0.4719 -0.6170  2.2463
 4000TIP3    H233560   0.330   6.793   7.128 -1.4145 -0.5229  3.9193
 4001TIP3   OH233561   0.839   3.047   8.127 -0.2244 -0.5916 -0.0631
 4001TIP3    H133562   0.805   3.136   8.133 -0.7467 -0.6221 -1.8425
 4001TIP3    H233563   0.925   3.056   8.086 -0.6088 -0.9409 -0.9776
 4002TIP3   OH233564   1.468   1.333   1.420  0.2567  0.1238  0.1233
 4002TIP3    H133565   1.532   1.353   1.351 -0.0470  0.7435  0.0225
 4002TIP3    H233566   1.388   1.379   1.394  0.0422  0.1059  0.7255
 4003TIP3   OH233567   6.250   4.059   1.968  0.3462 -0.4758 -0.0392
 4003TIP3    H133568   6.225   4.148   1.943  0.2918 -0.4158  0.2253
 4003TIP3    H233569   6.259   4.063   2.063  0.7011 -0.6653 -0.0651
 4004TIP3   OH233570   6.453   6.682   7.668 -0.4311  0.0056 -0.2853
 4004TIP3    H133571   6.359   6.671   7.682 -0.4678  1.6970  1.2455
 4004TIP3    H233572   6.494   6.648   7.748  0.4811 -2.4818 -1.6828
 4005TIP3   OH233573   4.630   6.157   7.988 -0.7800 -0.1027  0.4867
 4005TIP3    H133574   4.644   6.196   7.902  1.1906 -0.6459  0.4943
 4005TIP3    H233575   4.575   6.220   8.034 -0.4178  1.0618 -0.6057
 4006TIP3   OH233576   2.105   0.500   2.601 -0.1135 -0.2347 -0.3627
 4006TIP3    H133577   2.153   0.420   2.620 -0.0433 -0.0420  0.2881
 4006TIP3    H233578   2.050   0.515   2.677 -0.5119  0.0584 -0.7007
 4007TIP3   OH233579   5.735   0.751   0.534 -0.1733  0.1095 -0.3709
 4007TIP3    H133580   5.689   0.821   0.488  0.2854  0.7251  0.0897
 4007TIP3    H233581   5.718   0.768   0.627  1.9757  1.1088 -0.0938
 4008TIP3   OH233582   1.473   6.193   1.827  0.4930  0.0325 -0.0969
 4008TIP3    H133583   1.547   6.221   1.879  1.3189 -0.9551 -0.6900
 4008TIP3    H233584   1.462   6.100   1.849  0.4050 -0.2144 -1.1069
 4009TIP3   OH233585   6.442   5.340   1.537  0.2933  0.2499  0.1826
 4009TIP3    H133586   6.512   5.355   1.473  0.9391  2.1480  1.2763
 4009TIP3    H233587   6.361   5.349   1.486  0.7807 -1.1153 -0.9166
 4010TIP3   OH233588   0.902   4.438   0.018 -0.8403  0.5479 -0.0167
 4010TIP3    H133589   0.818   4.478   0.039  0.6346  3.4765  0.8354
 4010TIP3    H233590   0.913   4.370   0.084 -2.1305  0.7304  0.4207
 4011TIP3   OH233591   5.425   2.217   1.004 -0.6022 -0.1148 -0.3003
 4011TIP3    H133592   5.474   2.274   1.063 -1.4466  0.8489 -0.5049
 4011TIP3    H233593   5.391   2.148   1.062 -0.5116  0.2113  0.1499
 4012TIP3   OH233594   0.213   4.617   7.954  0.4720 -0.3408 -0.2736
 4012TIP3    H133595   0.289   4.583   7.907  1.8460  3.1381 -0.8737
 4012TIP3    H233596   0.231   4.598   8.046  1.0091 -1.3741 -0.5751
 4013TIP3   OH233597   5.577   1.524   7.127 -0.2399 -0.0299 -0.1004
 4013TIP3    H133598   5.650   1.557   7.075 -0.9406 -0.7179 -1.5933
 4013TIP3    H233599   5.517   1.598   7.136  0.5777  0.5078  1.0457
 4014TIP3   OH233600   1.879   2.099   8.277 -0.1624  0.1566  0.0403
 4014TIP3    H133601   1.916   2.054   8.353  0.1687  0.8259  0.2811
 4014TIP3    H233602   1.954   2.142   8.235 -0.3958  0.0715 -0.4739
 4015TIP3   OH233603   1.345   2.521   8.314  0.1784  0.1328 -0.4339
 4015TIP3    H133604   1.264   2.551   8.356  1.5979  1.9173  1.2453
 4015TIP3    H233605   1.392   2.475   8.384  2.7392  3.4185  0.2872
 4016TIP3   OH233606   0.886   3.772   2.067 -0.0368 -0.4451 -0.2259
 4016TIP3    H133607   0.847   3.855   2.095 -0.0289 -0.3698 -0.4318
 4016TIP3    H233608   0.910   3.787   1.975  0.5696 -0.4535 -0.0770
 4017TIP3   OH233609   2.735   0.761   0.444 -0.8171 -0.2724 -0.0523
 4017TIP3    H133610   2.707   0.833   0.500 -0.5017 -0.6497  0.6141
 4017TIP3    H233611   2.705   0.682   0.490  1.2536 -0.7000  0.7023
 4018TIP3   OH233612   5.837   6.122   0.658 -0.1471 -0.4033 -0.2124
 4018TIP3    H133613   5.810   6.213   0.669 -0.7686 -0.8172  2.3092
 4018TIP3    H233614   5.913   6.127   0.600  0.1469  1.7684  0.2564
 4019TIP3   OH233615   3.235   1.298   7.754  0.5104 -0.2367 -0.7204
 4019TIP3    H133616   3.172   1.366   7.777  0.3824 -0.9661  1.3203
 4019TIP3    H233617   3.188   1.215   7.769  2.1692 -0.8191  1.8400
 4020TIP3   OH233618   3.913   5.476   7.615  0.1251 -0.0218  0.4020
 4020TIP3    H133619   3.818   5.486   7.611  0.0251 -1.0930 -0.4669
 4020TIP3    H233620   3.930   5.392   7.571  1.6289  0.9538 -0.9840
 4021TIP3   OH233621   6.885   4.468   7.966 -0.7629 -0.1849 -0.5437
 4021TIP3    H133622   6.885   4.500   7.876 -1.0444  0.4739 -0.3221
 4021TIP3    H233623   6.950   4.522   8.011 -0.7165 -0.4208 -0.3247
 4022TIP3   OH233624   6.175   1.119   1.442 -0.1724  0.4704 -0.1324
 4022TIP3    H133625   6.115   1.073   1.384  0.4324  0.3447 -0.6602
 4022TIP3    H233626   6.144   1.096   1.530 -0.5642 -0.0274 -0.3911
 4023TIP3   OH233627   4.277   0.313   2.425  0.2507 -0.0209  0.4774
 4023TIP3    H133628   4.241   0.316   2.336  0.4287 -0.9589  0.3553
 4023TIP3    H233629   4.293   0.404   2.448 -1.8765  0.4076  0.4152
 4024TIP3   OH233630   6.495   4.267   8.077  0.4653  0.2511 -0.1088
 4024TIP3    H133631   6.513   4.285   8.169  1.5928  0.2526 -0.3214
 4024TIP3    H233632   6.401   4.284   8.067 -0.0256 -1.2955  1.4029
 4025TIP3   OH233633   5.097   6.039   8.012 -0.1801 -0.9226  0.5017
 4025TIP3    H133634   5.164   5.980   8.047 -0.3818 -1.4015  0.0754
 4025TIP3    H233635   5.139   6.082   7.937  0.3153  0.2402  1.4057
 4026TIP3   OH233636   6.801   1.882   2.158  0.2906  0.0351  0.2750
 4026TIP3    H133637   6.776   1.795   2.189  0.2121 -0.1668 -0.3238
 4026TIP3    H233638   6.891   1.872   2.128  0.2072  0.0992 -0.0020
 4027TIP3   OH233639   3.982   0.334   7.768  0.2309  0.5162  0.5600
 4027TIP3    H133640   3.964   0.413   7.819 -1.5511 -1.6607  3.6116
 4027TIP3    H233641   3.896   0.296   7.751  1.0635 -2.4010  2.1353
 4028TIP3   OH233642   4.076   4.742   0.589  0.5276  0.0380  0.0080
 4028TIP3    H133643   4.114   4.695   0.515  1.8437  0.3776  0.4389
 4028TIP3    H233644   4.124   4.709   0.666  1.3731  1.9052  0.3465
 4029TIP3   OH233645   2.699   0.955   8.252 -0.5381 -0.7974 -0.0212
 4029TIP3    H133646   2.790   0.958   8.281 -0.5237 -0.2411 -0.1063
 4029TIP3    H233647   2.658   0.888   8.307 -0.1078 -0.9598  0.1022
 4030TIP3   OH233648   4.433   2.059   0.360 -0.0854  0.4323 -0.5380
 4030TIP3    H133649   4.364   2.059   0.295 -0.6290  0.9254  0.0166
 4030TIP3    H233650   4.468   2.149   0.358  0.6495  0.1463 -0.9237
 4031TIP3   OH233651   5.224   6.009   0.551  0.2074 -0.3547  0.3259
 4031TIP3    H133652   5.148   5.952   0.558 -0.3886 -0.3098 -3.6084
 4031TIP3    H233653   5.298   5.948   0.544 -0.0852 -0.6133 -0.7733
 4032TIP3   OH233654   4.094   2.684   8.106 -0.6707 -0.0628 -0.1023
 4032TIP3    H133655   4.031   2.664   8.037 -1.5675 -0.4066  0.7799
 4032TIP3    H233656   4.095   2.780   8.111  0.9375  0.0696 -1.9277
 4033TIP3   OH233657   4.144   1.992   0.580  0.5327  0.6694 -0.5801
 4033TIP3    H133658   4.148   1.952   0.494  1.3364 -0.5784  0.0118
 4033TIP3    H233659   4.105   1.925   0.636  0.9615  1.0823  0.2328
 4034TIP3   OH233660   1.439   0.752   1.833 -0.2903  0.4191  0.0523
 4034TIP3    H133661   1.421   0.742   1.927 -1.2336  1.2424 -0.0260
 4034TIP3    H233662   1.506   0.820   1.829 -0.1681  0.3039  0.1346
 4035TIP3   OH233663   0.557   5.615   7.073 -0.0130  0.0158 -0.7188
 4035TIP3    H133664   0.559   5.575   7.161 -0.6851  2.0431  0.2766
 4035TIP3    H233665   0.470   5.655   7.067  0.7624  1.6448 -1.4931
 4036TIP3   OH233666   6.440   5.305   0.454  0.0170 -0.4553  0.2140
 4036TIP3    H133667   6.499   5.327   0.527  1.9493  1.5009 -1.7637
 4036TIP3    H233668   6.459   5.213   0.434 -1.5334 -1.4728  2.9088
 4037TIP3   OH233669   6.204   0.463   0.668  0.2211 -0.2794  0.0537
 4037TIP3    H133670   6.154   0.457   0.587 -0.0066 -1.3947  0.2584
 4037TIP3    H233671   6.288   0.501   0.642 -0.5654  1.2626 -0.3525
 4038TIP3   OH233672   0.763   4.347   2.450  0.5944  0.2322 -0.2183
 4038TIP3    H133673   0.794   4.384   2.533  0.6964  0.6281 -0.4290
 4038TIP3    H233674   0.685   4.297   2.473  0.4230  0.6264  0.0655
 4039TIP3   OH233675   1.620   2.465   8.318 -0.5617 -0.5363 -0.2508
 4039TIP3    H133676   1.588   2.553   8.297 -1.1486 -0.6845 -0.0154
 4039TIP3    H233677   1.712   2.476   8.337 -0.8660  0.2122  0.8398
 4040TIP3   OH233678   5.971   1.809   2.355  0.2657  0.2711  0.0938
 4040TIP3    H133679   6.045   1.858   2.391  2.2675 -2.7024  0.4157
 4040TIP3    H233680   6.011   1.739   2.304 -2.3871 -0.6883 -0.8360
 4041TIP3   OH233681   1.918   2.322   3.474  0.3587 -0.1180  0.4927
 4041TIP3    H133682   1.909   2.376   3.396  1.3801  1.9335  1.7162
 4041TIP3    H233683   1.998   2.271   3.459  0.2809 -0.0998  0.0008
 4042TIP3   OH233684   1.407   3.933   2.544  0.0063  0.0293 -1.1617
 4042TIP3    H133685   1.464   3.865   2.581 -0.7763  0.1896  0.3968
 4042TIP3    H233686   1.341   3.885   2.495 -0.0422 -0.2893 -0.7857
 4043TIP3   OH233687   1.535   1.377   0.761  0.1861  0.0959  0.1738
 4043TIP3    H133688   1.591   1.326   0.702 -0.8886  0.4037 -1.1354
 4043TIP3    H233689   1.480   1.311   0.804  2.7585 -0.4586  2.9675
 4044TIP3   OH233690   0.783   3.884   1.484 -0.2641  0.2329  0.2472
 4044TIP3    H133691   0.780   3.872   1.389 -0.4567  1.5075  0.0797
 4044TIP3    H233692   0.716   3.825   1.517 -0.3008 -0.1146 -0.4147
 4045TIP3   OH233693   2.779   3.652   1.927 -0.0506 -0.5356  0.1990
 4045TIP3    H133694   2.714   3.630   1.994 -0.7670  0.9699  0.0484
 4045TIP3    H233695   2.746   3.613   1.847 -0.4986 -0.2407  0.2350
 4046TIP3   OH233696   4.292   6.571   7.933  0.1330 -0.6404 -0.3943
 4046TIP3    H133697   4.307   6.660   7.965  0.2414 -0.7910 -0.0279
 4046TIP3    H233698   4.294   6.580   7.837 -1.6307  0.0478 -0.3997
 4047TIP3   OH233699   4.909   0.318   1.388 -0.6764  0.2761  0.0956
 4047TIP3    H133700   4.930   0.290   1.299  0.6265 -2.2054  1.0915
 4047TIP3    H233701   4.815   0.338   1.386 -0.8522 -0.6051 -1.6216
 4048TIP3   OH233702   3.638   2.675   7.945  0.2749 -0.4441 -0.1253
 4048TIP3    H133703   3.617   2.737   8.015  1.3588  0.6923 -0.7694
 4048TIP3    H233704   3.553   2.641   7.917 -0.2643  0.0403  0.8870
 4049TIP3   OH233705   6.277   3.607   8.310 -0.8429  0.0207 -1.1059
 4049TIP3    H133706   6.287   3.617   8.405 -0.7606  0.9070 -1.1992
 4049TIP3    H233707   6.317   3.522   8.290  0.0320  0.2738 -0.4783
 4050TIP3   OH233708   5.492   3.126   2.577 -0.0203  0.4991  0.5520
 4050TIP3    H133709   5.541   3.195   2.621 -0.4138 -0.0268  1.8897
 4050TIP3    H233710   5.411   3.118   2.628 -0.1311 -0.7057  0.2204
 4051TIP3   OH233711   1.853   0.875   0.460 -0.2710 -0.1463  0.5974
 4051TIP3    H133712   1.858   0.798   0.404  0.1646  0.2637  0.0717
 4051TIP3    H233713   1.781   0.855   0.521 -0.2835 -0.8857  0.3513
 4052TIP3   OH233714   2.340   5.395   1.167  0.0283  0.4445 -0.2860
 4052TIP3    H133715   2.358   5.476   1.119  0.8828  0.3491 -0.1547
 4052TIP3    H233716   2.335   5.422   1.259  1.5234  0.2031 -0.1046
 4053TIP3   OH233717   1.240   2.311   2.668 -0.3180  0.3035 -0.3589
 4053TIP3    H133718   1.283   2.395   2.652 -0.9469  0.6426 -0.2861
 4053TIP3    H233719   1.309   2.246   2.656  0.0840  0.8055 -0.7835
 4054TIP3   OH233720   2.458   4.388   8.288  0.2220  1.1110  0.1546
 4054TIP3    H133721   2.423   4.364   8.202  1.4290  1.7235 -0.5406
 4054TIP3    H233722   2.381   4.404   8.342 -0.5684  1.5176 -1.0479
 4055TIP3   OH233723   3.388   4.083   8.109  0.3548  0.7486  0.0959
 4055TIP3    H133724   3.378   4.034   8.027 -0.8270 -3.0456  2.2626
 4055TIP3    H233725   3.300   4.087   8.146  1.0660  1.0268  1.8872
 4056TIP3   OH233726   2.498   1.402   0.095 -0.4620  0.2459 -0.2068
 4056TIP3    H133727   2.568   1.337   0.082 -1.0703 -0.1005 -2.1266
 4056TIP3    H233728   2.433   1.380   0.029 -1.8170  1.3475  0.7133
 4057TIP3   OH233729   1.210   3.722   2.665 -0.4854  0.0330  0.4990
 4057TIP3    H133730   1.157   3.740   2.743 -0.4758  0.3771  0.4303
 4057TIP3    H233731   1.195   3.798   2.609 -0.2556 -0.0726  0.2954
 4058TIP3   OH233732   2.713   1.045   7.159  0.1142  0.2948 -0.1871
 4058TIP3    H133733   2.629   1.052   7.204 -0.1089 -0.4542 -0.4801
 4058TIP3    H233734   2.778   1.049   7.229 -0.2125 -0.3859  0.1569
 4059TIP3   OH233735   1.324   1.817   2.156 -0.1695  0.0664 -0.1200
 4059TIP3    H133736   1.385   1.798   2.084  0.4906  2.9508 -0.4532
 4059TIP3    H233737   1.238   1.811   2.116  0.2027  2.0259 -1.3455
 4060TIP3   OH233738   1.729   3.298   2.509 -0.3919 -0.3303  0.7765
 4060TIP3    H133739   1.708   3.389   2.489 -0.8968 -0.1673  1.9658
 4060TIP3    H233740   1.823   3.298   2.525 -0.5705  0.2082  1.8777
 4061TIP3   OH233741   3.485   6.616   1.394  0.2624 -1.0850 -0.3137
 4061TIP3    H133742   3.393   6.632   1.417  0.0858 -2.1691 -0.2365
 4061TIP3    H233743   3.533   6.686   1.438 -0.3052 -1.7733  1.4922
 4062TIP3   OH233744   5.858   4.924   7.008  0.0205  0.3703  0.0547
 4062TIP3    H133745   5.847   4.850   7.068 -0.5295 -0.0819 -0.5965
 4062TIP3    H233746   5.813   4.897   6.929  0.7559  0.9555 -0.5762
 4063TIP3   OH233747   2.435   6.508   3.133 -0.6416 -0.3585  0.3050
 4063TIP3    H133748   2.435   6.590   3.182  2.3146 -0.7141  1.1286
 4063TIP3    H233749   2.343   6.486   3.122 -1.4938  2.4493  1.0771
 4064TIP3   OH233750   1.365   6.327   7.969 -0.2590  0.1586  0.0954
 4064TIP3    H133751   1.310   6.329   7.891 -1.8492 -3.8854  0.8537
 4064TIP3    H233752   1.437   6.268   7.947 -0.0998 -0.1270  1.2712
 4065TIP3   OH233753   5.547   2.292   1.257  0.2310 -0.4184 -0.2676
 4065TIP3    H133754   5.464   2.247   1.274 -1.3542  1.8610 -1.4158
 4065TIP3    H233755   5.543   2.371   1.312  2.0198 -0.6438  0.2459
 4066TIP3   OH233756   1.048   5.530   8.362 -0.3434  0.6711  0.0478
 4066TIP3    H133757   1.014   5.536   8.273  0.7452 -0.3570 -0.4687
 4066TIP3    H233758   1.143   5.527   8.351 -0.1645  1.2034  1.2957
 4067TIP3   OH233759   6.930   6.861   2.415  0.2675 -0.1028 -0.1712
 4067TIP3    H133760   6.961   6.777   2.382 -0.4286 -0.1411 -0.7471
 4067TIP3    H233761   6.981   6.875   2.495  0.9262 -0.7082 -0.4699
 4068TIP3   OH233762   4.334   5.562   0.373  0.3057  0.1199  0.6020
 4068TIP3    H133763   4.292   5.641   0.407 -1.5106 -0.8037  0.6210
 4068TIP3    H233764   4.382   5.526   0.448  1.1354  1.1633  0.5953
 4069TIP3   OH233765   5.892   4.698   7.149 -0.4106  0.3225  0.4081
 4069TIP3    H133766   5.894   4.602   7.147 -0.2776  0.3408 -0.3529
 4069TIP3    H233767   5.985   4.723   7.151 -0.4427  0.4237  1.7208
 4070TIP3   OH233768   5.337   6.889   1.379  0.2482 -0.7981  0.3504
 4070TIP3    H133769   5.345   6.858   1.289 -0.4347  0.8283 -0.3149
 4070TIP3    H233770   5.418   6.861   1.421  0.6849 -1.3898 -0.8400
 4071TIP3   OH233771   0.560   4.794   1.698 -0.0350 -0.4663  0.3726
 4071TIP3    H133772   0.511   4.795   1.616  0.9393 -1.9427 -0.2744
 4071TIP3    H233773   0.647   4.764   1.673  0.7220  0.4899  1.7421
 4072TIP3   OH233774   5.991   3.095   1.193 -0.3807  0.3345  0.1936
 4072TIP3    H133775   6.034   3.148   1.259 -0.0952  1.6554 -0.9992
 4072TIP3    H233776   6.061   3.067   1.134 -0.9030  1.0151 -0.7714
 4073TIP3   OH233777   6.547   5.552   0.394  0.1009  0.2575 -0.4793
 4073TIP3    H133778   6.509   5.569   0.480  1.5056  2.2835 -0.1992
 4073TIP3    H233779   6.536   5.458   0.381 -0.3299 -0.0594  1.8071
 4074TIP3   OH233780   6.522   4.211   1.277 -0.1580 -0.5237  0.4565
 4074TIP3    H133781   6.464   4.275   1.238 -0.6441 -1.3219 -0.1667
 4074TIP3    H233782   6.485   4.195   1.364  0.9551  1.2950  1.3242
 4075TIP3   OH233783   0.252   2.405   0.255  0.0299  0.2297 -0.0945
 4075TIP3    H133784   0.230   2.492   0.287 -1.7496 -0.5869  1.0609
 4075TIP3    H233785   0.168   2.368   0.227  0.8395 -0.9095 -1.1067
 4076TIP3   OH233786   4.207   2.833   1.363  0.4677 -0.2340  0.3070
 4076TIP3    H133787   4.126   2.853   1.316  0.4632  0.8621  0.7588
 4076TIP3    H233788   4.265   2.906   1.343  1.5417 -1.2536 -0.4136
 4077TIP3   OH233789   4.816   1.783   8.379  0.4443  0.2808  0.0625
 4077TIP3    H133790   4.738   1.728   8.373  0.5037  0.1184  0.6693
 4077TIP3    H233791   4.830   1.816   8.290 -0.2947  0.2860 -0.0568
 4078TIP3   OH233792   4.271   6.133   7.118 -0.0110 -0.1060  0.5390
 4078TIP3    H133793   4.310   6.211   7.157  0.9665  0.8042 -2.0337
 4078TIP3    H233794   4.177   6.142   7.136 -0.1116  2.4281 -0.8032
 4079TIP3   OH233795   2.976   1.463   8.384  0.4973  0.7428  0.6424
 4079TIP3    H133796   2.902   1.517   8.411 -0.4119  0.7271 -1.5561
 4079TIP3    H233797   3.035   1.524   8.338 -0.3605  0.0253 -1.5387
 4080TIP3   OH233798   3.082   3.801   0.863  0.5540  0.2186  0.1037
 4080TIP3    H133799   3.059   3.873   0.921 -1.0109 -1.6092  1.8821
 4080TIP3    H233800   3.025   3.812   0.787 -0.8478  0.0195  1.0840
 4081TIP3   OH233801   6.020   2.713   1.904 -0.1474 -0.0975  0.2519
 4081TIP3    H133802   6.099   2.689   1.952  0.6542 -0.9814 -1.4315
 4081TIP3    H233803   5.988   2.631   1.867 -1.7425  0.2803  0.6789
 4082TIP3   OH233804   3.181   6.750   6.264 -0.1024 -0.1344 -0.1898
 4082TIP3    H133805   3.231   6.816   6.313  0.7249 -0.3047 -0.7725
 4082TIP3    H233806   3.137   6.800   6.196 -0.2968 -0.0533 -0.0058
 4083TIP3   OH233807   0.103   2.691   8.203 -0.0973  0.0454 -0.3194
 4083TIP3    H133808   0.123   2.701   8.296  0.5489  1.3886 -0.5812
 4083TIP3    H233809   0.163   2.751   8.159 -1.6710  0.8608 -1.4606
 4084TIP3   OH233810   4.675   0.671   1.721  0.2641  0.0830  0.3239
 4084TIP3    H133811   4.590   0.708   1.744 -0.4163 -0.7896 -0.7193
 4084TIP3    H233812   4.660   0.576   1.719  0.2903  0.0101 -3.3120
 4085TIP3   OH233813   6.154   5.411   7.032 -0.4965  0.0842  0.7325
 4085TIP3    H133814   6.221   5.401   6.965 -2.0665 -1.9336 -0.6470
 4085TIP3    H233815   6.152   5.505   7.050 -0.0939  0.7337 -2.1667
 4086TIP3   OH233816   4.108   6.847   8.058  0.2750  0.0976 -0.5523
 4086TIP3    H133817   4.111   6.762   8.101 -2.0899 -0.3292 -1.1164
 4086TIP3    H233818   4.133   6.829   7.967 -1.4696 -0.2987 -0.9981
 4087TIP3   OH233819   5.444   1.202   2.266  0.7618  0.8624 -0.5197
 4087TIP3    H133820   5.449   1.250   2.348 -1.2614 -2.2474  1.6684
 4087TIP3    H233821   5.356   1.219   2.233  1.2544  1.3931 -1.5959
 4088TIP3   OH233822   4.305   2.614   1.988 -0.2671  0.2421  0.1611
 4088TIP3    H133823   4.377   2.566   2.028 -0.0677  0.0232 -0.4454
 4088TIP3    H233824   4.311   2.593   1.894 -1.2709  0.0077  0.1369
 4089TIP3   OH233825   4.380   5.498   8.114  0.0374 -0.2200  0.4697
 4089TIP3    H133826   4.398   5.468   8.203  0.9540  0.7110  0.6096
 4089TIP3    H233827   4.425   5.435   8.058 -0.0581 -0.4764  0.6773
 4090TIP3   OH233828   0.449   6.291   2.087  0.0882 -0.1471  0.1656
 4090TIP3    H133829   0.446   6.195   2.090 -2.5266 -0.1794 -0.6175
 4090TIP3    H233830   0.360   6.316   2.064  0.3957  2.5581  1.5734
 4091TIP3   OH233831   5.637   2.304   1.732 -0.5243 -0.4751 -0.1602
 4091TIP3    H133832   5.648   2.252   1.652  2.1942 -0.4172  0.0701
 4091TIP3    H233833   5.641   2.395   1.701 -2.6799 -0.3717 -0.2641
 4092TIP3   OH233834   2.453   1.903   1.736  1.2478  0.5004 -0.3724
 4092TIP3    H133835   2.447   1.826   1.680 -0.3343 -0.7021  1.3107
 4092TIP3    H233836   2.375   1.898   1.792  1.8554  2.5488  0.7654
 4093TIP3   OH233837   5.184   5.446   7.011 -0.0294  0.1798  0.8095
 4093TIP3    H133838   5.275   5.469   6.993  0.4647 -1.4016  1.1444
 4093TIP3    H233839   5.189   5.377   7.077 -1.5717  1.9571  2.9628
 4094TIP3   OH233840   6.467   3.211   1.681 -0.1507 -0.6271 -0.1652
 4094TIP3    H133841   6.508   3.289   1.718 -0.0465 -1.7588  2.2844
 4094TIP3    H233842   6.540   3.155   1.655 -0.2236 -0.2725 -1.1770
 4095TIP3   OH233843   3.125   2.696   1.333  0.5117  0.6297 -0.3888
 4095TIP3    H133844   3.174   2.619   1.304  1.3789  0.7364  0.7388
 4095TIP3    H233845   3.051   2.700   1.273  1.2149 -0.2526 -1.3663
 4096TIP3   OH233846   0.227   1.233   0.456 -0.4307 -0.6651  0.1172
 4096TIP3    H133847   0.169   1.163   0.488  0.7151 -1.1019  1.3329
 4096TIP3    H233848   0.273   1.193   0.382 -2.1954 -0.0580 -1.3780
 4097TIP3   OH233849   1.517   1.829   7.925 -0.4259  0.0099  0.3090
 4097TIP3    H133850   1.464   1.903   7.895 -1.3633 -0.1292  1.5166
 4097TIP3    H233851   1.537   1.779   7.846 -0.7784  0.9248 -0.3676
 4098TIP3   OH233852   1.063   2.910   2.271 -0.0090 -0.1284 -0.1984
 4098TIP3    H133853   1.030   2.837   2.323 -0.8315 -0.5799 -1.2956
 4098TIP3    H233854   1.029   2.988   2.315  0.9251 -0.3794  1.0192
 4099TIP3   OH233855   6.619   5.574   2.458 -0.5258 -0.2685  0.9740
 4099TIP3    H133856   6.686   5.506   2.465  0.6980  0.9213  1.1967
 4099TIP3    H233857   6.587   5.586   2.547 -0.0798  0.0869  1.0885
 4100TIP3   OH233858   2.621   3.875   1.893  0.5244 -0.4895 -0.2909
 4100TIP3    H133859   2.703   3.827   1.901  0.9317  0.3851  1.1842
 4100TIP3    H233860   2.647   3.967   1.889 -0.3775 -0.1944  0.2605
 4101TIP3   OH233861   6.064   3.881   1.498 -0.3676  0.1566  0.6080
 4101TIP3    H133862   6.063   3.965   1.543  1.5179  1.0826 -0.9346
 4101TIP3    H233863   6.124   3.827   1.549 -1.3193 -0.1753  1.4070
 4102TIP3   OH233864   3.498   5.009   1.006 -0.3830 -0.1168 -0.4367
 4102TIP3    H133865   3.532   5.088   0.964  0.1695 -0.5365 -0.7931
 4102TIP3    H233866   3.523   5.017   1.097 -0.1952  0.0448 -0.5018
 4103TIP3   OH233867   2.617   3.692   2.414 -0.2356 -0.5637  0.4738
 4103TIP3    H133868   2.675   3.698   2.489 -0.8434 -0.1678  0.9158
 4103TIP3    H233869   2.581   3.780   2.404 -1.5164 -1.0245  0.8201
 4104TIP3   OH233870   6.889   1.222   7.014 -0.4632  0.7043 -0.5999
 4104TIP3    H133871   6.794   1.207   7.022 -0.7224  2.6434  0.8972
 4104TIP3    H233872   6.926   1.135   7.006 -2.2177 -0.3333  1.3163
 4105TIP3   OH233873   3.623   2.034   0.065 -0.0052  0.3000 -0.2661
 4105TIP3    H133874   3.573   2.066  -0.010  0.0458  1.1066  0.0368
 4105TIP3    H233875   3.676   2.109   0.093 -0.2051  0.0821  0.7323
 4106TIP3   OH233876   6.720   0.853   7.183  0.6851 -0.0362 -0.0646
 4106TIP3    H133877   6.726   0.938   7.227  1.7519 -0.5396  0.8370
 4106TIP3    H233878   6.807   0.813   7.197  0.5259 -0.8680 -1.3056
 4107TIP3   OH233879   6.445   1.204   0.527 -0.1189 -0.7743 -0.2865
 4107TIP3    H133880   6.528   1.250   0.537  0.1058 -1.3717  0.6878
 4107TIP3    H233881   6.404   1.245   0.450 -1.2390  3.0962  2.0998
 4108TIP3   OH233882   5.725   0.947   8.335 -0.6992  0.0072 -0.0384
 4108TIP3    H133883   5.694   0.892   8.263  1.5222 -1.1438 -0.1968
 4108TIP3    H233884   5.813   0.976   8.308 -2.0398  4.6066 -0.4399
 4109TIP3   OH233885   5.923   0.443   2.526  0.1286  0.0183  0.0117
 4109TIP3    H133886   5.883   0.368   2.569 -0.3852 -0.0743 -0.6225
 4109TIP3    H233887   5.988   0.404   2.466 -0.6815  0.0273 -0.8908
 4110TIP3   OH233888   1.717   2.922   1.735  0.1872 -0.6237 -0.0507
 4110TIP3    H133889   1.758   2.931   1.821  0.0486 -2.4840  0.2511
 4110TIP3    H233890   1.661   2.845   1.743 -0.5417 -0.2865 -1.5472
 4111TIP3   OH233891   1.021   2.406   8.380 -0.3589 -0.0140 -0.4231
 4111TIP3    H133892   1.050   2.339   8.318 -3.3906 -1.0620 -0.9037
 4111TIP3    H233893   0.997   2.357   8.459 -1.4961  0.6073 -0.3533
 4112TIP3   OH233894   4.672   2.247   2.170 -0.0417  0.5814 -1.1104
 4112TIP3    H133895   4.640   2.170   2.123  1.3610 -0.6823 -0.0992
 4112TIP3    H233896   4.767   2.235   2.175 -0.1535 -0.6225  3.8778
 4113TIP3   OH233897   1.515   3.534   0.223  0.0042  0.2675  0.5644
 4113TIP3    H133898   1.551   3.521   0.135 -0.6671 -1.6697  0.5318
 4113TIP3    H233899   1.420   3.529   0.211 -0.0735 -1.5530  1.5648
 4114TIP3   OH233900   6.412   5.976   0.573  0.3975 -0.5092  0.5268
 4114TIP3    H133901   6.334   5.921   0.571 -0.6118  0.8716  0.6567
 4114TIP3    H233902   6.443   5.970   0.664 -1.3302  1.2629  1.3097
 4115TIP3   OH233903   4.455   2.174   1.109  0.3090  0.2740  0.1145
 4115TIP3    H133904   4.500   2.107   1.057 -0.6923  0.0476 -0.4913
 4115TIP3    H233905   4.434   2.244   1.047  2.2058  1.6391  0.9342
 4116TIP3   OH233906   5.945   6.515   2.310 -0.6259 -0.4506 -0.2128
 4116TIP3    H133907   5.978   6.539   2.396 -0.8627 -1.4691  0.1753
 4116TIP3    H233908   5.876   6.578   2.292  0.0505  0.3435 -0.0739
 4117TIP3   OH233909   2.414   1.733   1.536  0.1304  0.5897  0.2295
 4117TIP3    H133910   2.461   1.765   1.458  2.2100  1.1253  1.6268
 4117TIP3    H233911   2.401   1.640   1.519  0.7835  0.6396 -0.6535
 4118TIP3   OH233912   1.791   1.349   0.874  0.2011  0.3703  0.2555
 4118TIP3    H133913   1.851   1.424   0.872 -0.1726  0.6815  0.4723
 4118TIP3    H233914   1.704   1.389   0.869  0.0365 -0.1393 -1.6242
 4119TIP3   OH233915   5.028   0.362   7.682 -0.2299  0.0377  0.2710
 4119TIP3    H133916   5.049   0.272   7.707  1.6719  0.6066  0.8974
 4119TIP3    H233917   5.102   0.388   7.626 -0.9911  1.0616 -0.2771
 4120TIP3   OH233918   5.483   6.925   2.404 -0.4570 -0.2513 -0.0083
 4120TIP3    H133919   5.456   6.983   2.475 -1.2874  0.0642 -0.5562
 4120TIP3    H233920   5.496   6.840   2.445  0.5373  0.2524  0.7672
 4121TIP3   OH233921   1.947   2.240   7.354  0.4448 -0.2397  0.5728
 4121TIP3    H133922   1.891   2.235   7.276  0.4276 -0.8975  0.6166
 4121TIP3    H233923   1.933   2.328   7.389  0.8907  0.2695 -0.4893
 4122TIP3   OH233924   1.289   5.598   1.805  0.7158 -0.0657 -0.3360
 4122TIP3    H133925   1.310   5.505   1.795  2.8207  0.1076  1.7615
 4122TIP3    H233926   1.221   5.600   1.872  1.5433 -0.0429  0.5137
 4123TIP3   OH233927   3.031   0.554   8.239 -0.2871  0.0419 -0.1211
 4123TIP3    H133928   3.027   0.602   8.322 -3.3651  0.0557 -0.1541
 4123TIP3    H233929   3.061   0.619   8.175 -1.3830  1.0898  0.3874
 4124TIP3   OH233930   5.090   1.451   3.640 -0.0386  0.0794  0.2610
 4124TIP3    H133931   5.116   1.486   3.725  1.8154  1.0266 -0.6116
 4124TIP3    H233932   5.156   1.384   3.620 -0.8552 -0.6314 -0.1313
 4125TIP3   OH233933   3.529   5.347   6.587 -0.0159 -0.2682 -0.1054
 4125TIP3    H133934   3.484   5.429   6.565 -0.2629 -0.4205 -0.1641
 4125TIP3    H233935   3.490   5.319   6.669 -0.0575 -0.4227 -0.1773
 4126TIP3   OH233936   6.024   1.904   0.092 -0.1763  0.0311  0.7880
 4126TIP3    H133937   6.088   1.933   0.027 -0.1337 -0.6606  0.5175
 4126TIP3    H233938   5.974   1.983   0.113  0.4182  0.4630  0.6093
 4127TIP3   OH233939   3.030   0.934   6.524 -0.1202  0.1203 -0.2296
 4127TIP3    H133940   3.000   0.954   6.436  2.0825 -0.2323 -1.1306
 4127TIP3    H233941   3.069   0.847   6.516 -2.7489 -1.3992  1.8771
 4128TIP3   OH233942   1.779   6.356   0.666 -0.0581  0.5962 -0.5437
 4128TIP3    H133943   1.870   6.350   0.637 -0.6599 -1.3885 -2.2529
 4128TIP3    H233944   1.749   6.441   0.635  1.0954  1.1294 -0.2525
 4129TIP3   OH233945   5.751   4.810   7.353 -0.3462 -0.5805 -0.0279
 4129TIP3    H133946   5.792   4.759   7.283  2.1918  1.5326 -0.2530
 4129TIP3    H233947   5.806   4.888   7.361 -2.7429  1.0780  1.7732
 4130TIP3   OH233948   3.488   2.144   1.498  0.2935  0.3404  0.4811
 4130TIP3    H133949   3.517   2.083   1.430 -0.0218 -0.4844  1.0718
 4130TIP3    H233950   3.399   2.169   1.471  0.7337  1.2308 -0.2142
 4131TIP3   OH233951   2.140   6.302   7.561 -0.8618  0.3013 -0.2151
 4131TIP3    H133952   2.092   6.350   7.492 -0.7266  0.6380 -0.0797
 4131TIP3    H233953   2.211   6.259   7.514 -0.8934  0.3584 -0.3169
 4132TIP3   OH233954   5.097   5.894   3.078 -0.0386 -0.7502 -0.3307
 4132TIP3    H133955   5.174   5.940   3.044 -0.1904 -0.0373  0.2577
 4132TIP3    H233956   5.129   5.807   3.100  0.6409 -0.4308  0.0062
 4133TIP3   OH233957   0.241   6.294   0.862  0.3739  0.7661  0.5336
 4133TIP3    H133958   0.250   6.200   0.849  0.6580  0.9916 -1.0107
 4133TIP3    H233959   0.202   6.326   0.781  3.9493  2.5225 -0.7107
 4134TIP3   OH233960   0.918   1.646   8.008  0.2313  0.3501 -0.2005
 4134TIP3    H133961   0.913   1.573   7.946 -0.3813  2.5390 -2.9520
 4134TIP3    H233962   0.991   1.623   8.065 -0.3473 -2.6725 -0.4812
 4135TIP3   OH233963   6.110   0.414   3.158 -0.2184  0.2646 -0.1814
 4135TIP3    H133964   6.133   0.446   3.071 -2.7536  1.0257 -0.6555
 4135TIP3    H233965   6.177   0.451   3.216  1.3893 -0.0912 -1.7481
 4136TIP3   OH233966   1.945   1.862   2.777 -0.2827 -0.2376  0.0687
 4136TIP3    H133967   1.933   1.772   2.748  0.6846  0.6582 -3.6078
 4136TIP3    H233968   2.039   1.872   2.790 -0.2074  0.5783 -0.9664
 4137TIP3   OH233969   2.810   6.537   0.946  0.3849 -0.3022  0.1562
 4137TIP3    H133970   2.898   6.572   0.933  1.6268 -2.4505  2.1112
 4137TIP3    H233971   2.753   6.602   0.906  2.9264  0.0541 -3.3117
 4138TIP3   OH233972   0.664   5.199   2.512  0.0248  0.6377 -0.4473
 4138TIP3    H133973   0.681   5.178   2.420  2.2927 -1.7495  0.3782
 4138TIP3    H233974   0.594   5.140   2.538  0.1981  0.4625 -0.3718
 4139TIP3   OH233975   0.269   5.920   8.389 -0.0790 -0.7697  0.0470
 4139TIP3    H133976   0.199   5.908   8.452 -0.1041  2.8332  0.9275
 4139TIP3    H233977   0.225   5.949   8.309  0.1665 -2.8605 -0.9284
 4140TIP3   OH233978   2.322   3.430   1.927  0.3314 -0.3753 -0.1483
 4140TIP3    H133979   2.291   3.449   1.838 -0.0832 -0.8293 -0.1050
 4140TIP3    H233980   2.343   3.516   1.963 -1.4609  0.0469  0.0286
 4141TIP3   OH233981   4.698   5.691   1.384 -0.6264 -0.2464 -0.4529
 4141TIP3    H133982   4.723   5.672   1.474 -1.5602 -2.1666 -0.5484
 4141TIP3    H233983   4.781   5.699   1.337 -0.1293  1.2503  0.6426
 4142TIP3   OH233984   1.849   0.643   1.392 -0.1210  0.3541  0.0626
 4142TIP3    H133985   1.769   0.696   1.397 -0.2298  0.1032  1.6753
 4142TIP3    H233986   1.818   0.556   1.366 -0.4092  0.2227  0.8197
 4143TIP3   OH233987   4.910   2.710   0.164  0.1612 -0.3695 -0.0225
 4143TIP3    H133988   4.933   2.803   0.170  0.5422 -0.3939 -0.9332
 4143TIP3    H233989   4.815   2.709   0.168  0.1380  0.0926 -0.3100
 4144TIP3   OH233990   3.610   5.431   7.632  0.2187  0.2099  0.5362
 4144TIP3    H133991   3.645   5.377   7.562  0.7514 -0.0576  1.0003
 4144TIP3    H233992   3.537   5.478   7.592  0.7372  0.3308 -0.2876
 4145TIP3   OH233993   3.061   3.517   8.232  0.5895 -0.2828 -0.4528
 4145TIP3    H133994   3.077   3.555   8.318  0.2899  0.7365 -0.8401
 4145TIP3    H233995   2.965   3.517   8.224  0.5849 -1.1044 -0.4715
 4146TIP3   OH233996   1.608   6.632   1.134 -0.4095  0.1566  0.5660
 4146TIP3    H133997   1.611   6.547   1.178  0.3434 -1.2245 -1.9564
 4146TIP3    H233998   1.531   6.627   1.077  0.1282  0.7844 -0.2415
 4147TIP3   OH233999   1.330   5.643   7.507  0.1874 -0.2727 -0.3526
 4147TIP3    H134000   1.237   5.648   7.531 -0.0172 -1.6348 -0.7979
 4147TIP3    H234001   1.376   5.634   7.590 -0.2950 -2.1756 -0.2537
 4148TIP3   OH234002   2.211   6.650   2.367  0.3470  0.4420  0.2567
 4148TIP3    H134003   2.217   6.615   2.456  1.5717  0.9877  0.4100
 4148TIP3    H234004   2.190   6.743   2.379  0.2588  0.4601 -0.0230
 4149TIP3   OH234005   5.024   1.223   0.570  0.3896  0.2691  0.3686
 4149TIP3    H134006   5.119   1.236   0.570  0.5162 -0.5080 -0.5985
 4149TIP3    H234007   4.989   1.301   0.528  0.7289 -0.1214 -0.6704
 4150TIP3   OH234008   4.563   0.587   7.029  0.0794 -0.5677 -0.2498
 4150TIP3    H134009   4.614   0.668   7.034  0.7098 -0.9815  0.3360
 4150TIP3    H234010   4.478   0.614   6.996 -0.3649  0.6424  1.6950
 4151TIP3   OH234011   0.154   2.148   2.275  0.6704  0.4653 -0.4866
 4151TIP3    H134012   0.234   2.163   2.325  0.1759 -1.5694  1.0256
 4151TIP3    H234013   0.101   2.227   2.290  1.5643  0.9642  0.1103
 4152TIP3   OH234014   4.191   3.655   1.346 -0.2499 -0.0632  0.5811
 4152TIP3    H134015   4.272   3.705   1.360 -0.0645  0.1654 -1.1059
 4152TIP3    H234016   4.122   3.721   1.347 -0.3679 -0.1895  1.4662
 4153TIP3   OH234017   4.250   0.357   0.154  0.0622 -0.0668  0.0451
 4153TIP3    H134018   4.226   0.305   0.076  0.9240 -0.8418  0.2816
 4153TIP3    H234019   4.339   0.386   0.136  0.4570 -0.6834  0.9613
 4154TIP3   OH234020   5.068   0.563   8.320  0.1252 -0.2956 -0.2933
 4154TIP3    H134021   5.122   0.517   8.384 -1.8448  0.0098  1.6977
 4154TIP3    H234022   5.047   0.497   8.255  1.3709 -0.8723 -0.1484
 4155TIP3   OH234023   1.311   3.286   3.001 -0.1987 -0.3723 -0.0484
 4155TIP3    H134024   1.229   3.237   2.995 -0.8865  0.4676  1.7794
 4155TIP3    H234025   1.375   3.229   2.958 -1.5281 -1.5006 -0.6504
 4156TIP3   OH234026   2.285   0.069   1.865 -0.1783  0.5604  0.1303
 4156TIP3    H134027   2.297   0.059   1.960 -0.9428  0.4999  0.2292
 4156TIP3    H234028   2.370   0.098   1.833  0.5181 -0.8385  0.6272
 4157TIP3   OH234029   1.932   3.960   3.150 -0.5160 -0.3103  0.5343
 4157TIP3    H134030   1.921   3.945   3.056  0.1137  1.3920  0.1605
 4157TIP3    H234031   1.994   4.032   3.156 -1.8867  0.8201  2.2053
 4158TIP3   OH234032   5.974   0.412   7.122  0.2798  0.3759 -0.6154
 4158TIP3    H134033   5.967   0.501   7.088  0.3868  0.9227  0.7122
 4158TIP3    H234034   6.069   0.396   7.130  0.2684  0.0344 -1.0873
 4159TIP3   OH234035   6.595   2.388   1.144  0.6233 -0.4007  0.8432
 4159TIP3    H134036   6.656   2.446   1.099  0.1037 -0.6472 -0.2286
 4159TIP3    H234037   6.546   2.444   1.203  0.4145  0.1838  0.1268
 4160TIP3   OH234038   1.132   5.038   0.423  0.3413  0.3533  0.7920
 4160TIP3    H134039   1.090   5.116   0.385 -0.2137 -0.9651 -1.4881
 4160TIP3    H234040   1.063   4.973   0.426  1.5075 -1.0067 -0.3579
 4161TIP3   OH234041   1.958   1.739   0.460  0.6225  0.2808  0.5430
 4161TIP3    H134042   2.005   1.666   0.420 -0.9375 -0.8270  0.6614
 4161TIP3    H234043   1.988   1.739   0.551  0.8210 -0.0524  0.4797
 4162TIP3   OH234044   1.051   6.274   7.939  0.1706  0.9199 -0.7451
 4162TIP3    H134045   1.038   6.191   7.894 -0.6492  1.1494 -0.9463
 4162TIP3    H234046   1.064   6.250   8.031  0.6513  0.5301 -0.9150
 4163TIP3   OH234047   3.140   1.605   0.728  0.3795  0.0007  0.3722
 4163TIP3    H134048   3.085   1.541   0.774 -0.3935  0.9112  0.7303
 4163TIP3    H234049   3.229   1.589   0.762  0.2417 -1.0309  0.2806
 4164TIP3   OH234050   3.650   6.369   2.507 -0.0114 -0.3548 -0.4904
 4164TIP3    H134051   3.585   6.312   2.548 -0.7345 -0.0064 -1.0998
 4164TIP3    H234052   3.727   6.363   2.563 -0.5566 -0.8154  0.2338
 4165TIP3   OH234053   4.843   3.418   0.939  0.0960  0.2291  0.3484
 4165TIP3    H134054   4.817   3.430   0.848  0.4216  2.3996  0.4905
 4165TIP3    H234055   4.893   3.336   0.939  2.6136  1.5956 -2.0304
 4166TIP3   OH234056   3.879   5.994   2.880  0.0737  0.4984  0.2121
 4166TIP3    H134057   3.894   6.061   2.947 -0.6817  0.3937  0.5014
 4166TIP3    H234058   3.953   5.935   2.888  0.8887  1.4335 -0.2146
 4167TIP3   OH234059   5.754   0.213   7.132 -0.0443  0.3083 -0.0802
 4167TIP3    H134060   5.800   0.296   7.118  1.5220 -0.5063  0.0826
 4167TIP3    H234061   5.662   0.233   7.111  0.5551  1.6613 -1.6130
 4168TIP3   OH234062   2.109   2.114   2.627  0.6887  0.3402 -0.1750
 4168TIP3    H134063   2.149   2.078   2.706  0.2640  2.0740  0.8691
 4168TIP3    H234064   2.085   2.036   2.576  2.8863 -0.7920  0.3775
 4169TIP3   OH234065   5.096   0.836   0.803  0.1521  0.0871  0.0823
 4169TIP3    H134066   5.089   0.864   0.895  2.5549 -0.6127  0.5447
 4169TIP3    H234067   5.094   0.741   0.807 -1.1304  0.0619 -0.7717
 4170TIP3   OH234068   5.927   4.379   1.786 -0.2032 -0.1244  0.2569
 4170TIP3    H134069   5.878   4.301   1.759  1.6700 -0.8094 -1.3879
 4170TIP3    H234070   5.896   4.448   1.728 -1.1459  0.1499  1.0551
 4171TIP3   OH234071   6.550   3.484   2.139  0.3480 -0.5445 -0.2185
 4171TIP3    H134072   6.627   3.435   2.110  1.0622 -0.4439  1.4397
 4171TIP3    H234073   6.480   3.419   2.143  0.2986 -0.6247 -1.8034
 4172TIP3   OH234074   0.163   6.722   0.105  0.3536 -0.1338  0.0825
 4172TIP3    H134075   0.090   6.741   0.047  0.7624 -0.6993 -0.6359
 4172TIP3    H234076   0.155   6.629   0.124 -0.4743  0.2872  1.9406
 4173TIP3   OH234077   4.986   3.780   8.313 -0.0611 -0.5691  0.1010
 4173TIP3    H134078   5.067   3.830   8.322  0.5276 -1.3065 -0.9531
 4173TIP3    H234079   4.944   3.816   8.235 -2.1544  1.6780  2.0903
 4174TIP3   OH234080   3.018   4.744   3.298  0.0458 -0.8625  0.7317
 4174TIP3    H134081   3.005   4.651   3.315 -0.9222 -0.9869 -0.5337
 4174TIP3    H234082   2.950   4.767   3.235  0.8921  0.4755  0.2477
 4175TIP3   OH234083   2.917   0.742   0.707 -0.1267  0.6340  0.3215
 4175TIP3    H134084   2.903   0.831   0.675  0.6146  1.4923  2.2845
 4175TIP3    H234085   2.981   0.750   0.777 -1.0772 -1.2571  1.5091
 4176TIP3   OH234086   1.268   3.027   1.011  0.5629 -0.5122  0.4758
 4176TIP3    H134087   1.188   3.076   1.027  0.2497 -1.1787  0.9907
 4176TIP3    H234088   1.248   2.973   0.934  0.4042 -0.9240  0.8058
 4177TIP3   OH234089   4.586   2.168   8.404 -0.3877  0.4853 -0.5010
 4177TIP3    H134090   4.609   2.231   8.472  0.3510 -1.0509  0.7166
 4177TIP3    H234091   4.669   2.129   8.378 -0.8253  0.0397 -1.2887
 4178TIP3   OH234092   5.445   5.422   1.997  0.1726  0.5256  0.5401
 4178TIP3    H134093   5.535   5.398   2.019  0.4396 -2.2401 -2.7642
 4178TIP3    H234094   5.391   5.366   2.052  0.2454  2.6565  3.0283
 4179TIP3   OH234095   6.749   0.625   0.558 -0.1929 -0.4857  0.3618
 4179TIP3    H134096   6.728   0.681   0.634  0.4921  1.3703 -0.7475
 4179TIP3    H234097   6.830   0.581   0.583 -1.0116 -1.4269  1.4603
 4180TIP3   OH234098   5.103   5.321   1.984  0.0695 -0.1815  0.1568
 4180TIP3    H134099   5.154   5.401   1.990  0.4068 -0.4234  0.6308
 4180TIP3    H234100   5.022   5.340   2.032  0.7804 -0.5952  1.5692
 4181TIP3   OH234101   2.462   4.658   8.159  0.1721  0.3459  0.1645
 4181TIP3    H134102   2.444   4.598   8.232  1.6352 -0.4308 -0.0838
 4181TIP3    H234103   2.413   4.620   8.086  1.2994 -0.7298 -0.0578
 4182TIP3   OH234104   6.401   5.611   2.625 -0.7191 -0.1247 -0.3009
 4182TIP3    H134105   6.320   5.662   2.614 -0.4180  0.4774  0.1504
 4182TIP3    H234106   6.396   5.578   2.715  0.8283  2.3378  0.7997
 4183TIP3   OH234107   4.779   3.352   7.274  0.6419  0.3942 -0.1250
 4183TIP3    H134108   4.789   3.403   7.354  0.8714 -0.2413  0.2655
 4183TIP3    H234109   4.709   3.290   7.294  2.8455 -1.9979  0.8227
 4184TIP3   OH234110   1.249   4.390   1.388  0.8501 -0.1498  0.4739
 4184TIP3    H134111   1.281   4.304   1.414  1.3139  0.3906  1.7680
 4184TIP3    H234112   1.326   4.446   1.388  0.5961  0.2264 -0.6002
 4185TIP3   OH234113   1.705   0.106   0.933  0.2182 -0.0497  0.3569
 4185TIP3    H134114   1.642   0.128   1.001  0.0257 -0.6398  0.3807
 4185TIP3    H234115   1.723   0.013   0.946  2.1285  0.3878  1.1765
 4186TIP3   OH234116   0.720   1.579   1.366  0.2887  0.1049  0.5978
 4186TIP3    H134117   0.681   1.661   1.336  2.5983  1.3125  0.6461
 4186TIP3    H234118   0.691   1.514   1.302 -0.2418  1.3032 -0.4278
 4187TIP3   OH234119   3.362   3.558   1.181 -0.0321 -0.0983 -0.4956
 4187TIP3    H134120   3.387   3.622   1.248 -1.1537 -0.9433  0.7929
 4187TIP3    H234121   3.289   3.509   1.221 -1.0193 -0.3668 -2.5056
 4188TIP3   OH234122   0.724   4.816   0.946  0.3572  0.3757 -0.7483
 4188TIP3    H134123   0.752   4.735   0.902  0.9796  0.2677 -0.1699
 4188TIP3    H234124   0.696   4.873   0.875 -2.0624 -1.0732 -1.0560
 4189TIP3   OH234125   5.075   0.674   7.625 -0.0358  0.3956  0.2222
 4189TIP3    H134126   5.092   0.760   7.663 -0.2691  0.3314  0.4785
 4189TIP3    H234127   5.151   0.622   7.650  0.7635  0.8863 -1.0814
 4190TIP3   OH234128   0.498   4.504   0.650  0.3790  0.5071  0.1749
 4190TIP3    H134129   0.515   4.410   0.661 -2.8687 -0.1381  0.6484
 4190TIP3    H234130   0.529   4.544   0.731  1.5224 -0.1585  0.0926
 4191TIP3   OH234131   1.487   4.537   7.963 -0.1766  0.1279 -0.4761
 4191TIP3    H134132   1.503   4.622   8.003 -2.9827  1.2669 -1.4971
 4191TIP3    H234133   1.569   4.489   7.973  0.5460  1.8102  2.8379
 4192TIP3   OH234134   5.234   5.747   1.324  0.0913 -0.2619  0.0512
 4192TIP3    H134135   5.257   5.753   1.231 -0.7772 -1.0112 -0.2250
 4192TIP3    H234136   5.251   5.835   1.359  0.8631 -0.0988 -0.7026
 4193TIP3   OH234137   1.807   1.376   0.143  0.1004  0.2646  0.2727
 4193TIP3    H134138   1.797   1.416   0.057 -0.9617 -0.8922 -0.1702
 4193TIP3    H234139   1.750   1.428   0.200 -0.7256 -0.1601 -0.1494
 4194TIP3   OH234140   6.352   0.984   1.000 -0.1268  0.2805 -0.8493
 4194TIP3    H134141   6.382   1.029   0.921  0.0512  0.5460 -0.6297
 4194TIP3    H234142   6.316   1.053   1.055  0.8199  0.2733 -0.1949
 4195TIP3   OH234143   1.839   4.362   2.481  0.2897 -0.1369  0.0586
 4195TIP3    H134144   1.927   4.363   2.520  0.3862 -0.6533 -0.1395
 4195TIP3    H234145   1.814   4.270   2.482 -0.9212  0.1676  1.6227
 4196TIP3   OH234146   5.608   4.542   7.724 -0.3377 -0.5186  0.5468
 4196TIP3    H134147   5.622   4.626   7.681 -0.9924  0.4333  2.0765
 4196TIP3    H234148   5.689   4.494   7.711  0.6669  0.9937  0.9703
 4197TIP3   OH234149   0.038   1.936   0.712  0.3277 -0.4512 -0.1232
 4197TIP3    H134150   0.123   1.908   0.680  0.3709 -0.5420  0.0690
 4197TIP3    H234151  -0.021   1.864   0.690  0.4974 -0.8401  0.6437
 4198TIP3   OH234152   2.111   4.285   7.296 -0.2372  0.0787 -0.5099
 4198TIP3    H134153   2.194   4.242   7.276  0.4607  1.2133 -0.1480
 4198TIP3    H234154   2.045   4.231   7.252  0.6784 -0.8492 -0.7916
 4199TIP3   OH234155   2.113   1.524   2.175  0.2662  0.1778  0.3940
 4199TIP3    H134156   2.089   1.604   2.222  2.1748  0.1228  1.5673
 4199TIP3    H234157   2.097   1.453   2.237 -2.3362 -0.5485 -0.9602
 4200TIP3   OH234158   5.814   4.996   8.023 -0.2534  0.5351 -0.5387
 4200TIP3    H134159   5.803   4.994   7.928  1.5588 -0.8977 -0.7803
 4200TIP3    H234160   5.882   4.931   8.040 -1.2544  0.0007  1.8505
 4201TIP3   OH234161   3.440   6.583   2.511  0.1569  0.8606  0.3728
 4201TIP3    H134162   3.454   6.661   2.456  1.3350  0.5794  0.2540
 4201TIP3    H234163   3.474   6.511   2.460  0.9070  0.5346  1.3048
 4202TIP3   OH234164   3.535   0.583   0.567 -0.6016 -0.0487 -0.0063
 4202TIP3    H134165   3.459   0.526   0.583  0.3049 -1.2138  0.2717
 4202TIP3    H234166   3.592   0.568   0.642 -1.0576  2.5318  0.9710
 4203TIP3   OH234167   1.855   1.165   1.219  0.1987  0.2601  0.6230
 4203TIP3    H134168   1.850   1.121   1.134 -0.9037 -1.0043  1.3045
 4203TIP3    H234169   1.938   1.135   1.257  0.4638  0.4529  0.2013
 4204TIP3   OH234170   3.135   1.352   1.196  0.3056 -0.0708 -0.0166
 4204TIP3    H134171   3.191   1.353   1.274 -0.4379  0.8333  0.5346
 4204TIP3    H234172   3.122   1.445   1.175 -0.3786 -0.2824 -0.5715
 4205TIP3   OH234173   2.696   2.417   8.329 -0.1161  0.2966  0.3313
 4205TIP3    H134174   2.617   2.374   8.294 -0.3442 -0.4757  1.6887
 4205TIP3    H234175   2.715   2.368   8.410  0.9490  1.3596  0.7464
 4206TIP3   OH234176   5.182   1.798   2.688  0.3760 -0.7758 -0.0842
 4206TIP3    H134177   5.267   1.810   2.731  0.9752 -1.1777 -1.1144
 4206TIP3    H234178   5.172   1.703   2.680 -0.3930 -0.7471  0.4394
 4207TIP3   OH234179   1.606   2.802   2.740 -0.2018  0.1497 -0.0803
 4207TIP3    H134180   1.527   2.784   2.790 -0.7654 -2.8649 -1.8154
 4207TIP3    H234181   1.593   2.890   2.705 -1.9591  0.4086  1.0990
 4208TIP3   OH234182   1.754   4.324   7.674 -0.0295  0.4091 -0.1372
 4208TIP3    H134183   1.768   4.419   7.667  1.3270  0.1236 -2.5745
 4208TIP3    H234184   1.793   4.300   7.758 -1.7582  2.1794  1.2592
 4209TIP3   OH234185   4.044   2.232   7.886 -0.1446 -0.1884  0.1081
 4209TIP3    H134186   4.118   2.191   7.841  0.8554  2.7365 -1.1434
 4209TIP3    H234187   4.083   2.279   7.959 -0.7650  1.1854 -0.4186
 4210TIP3   OH234188   6.211   1.170   1.128 -0.5907  0.5147  0.4196
 4210TIP3    H134189   6.148   1.241   1.120 -0.5687  0.5743  0.7710
 4210TIP3    H234190   6.162   1.099   1.168 -0.4121  0.5924  0.7784
 4211TIP3   OH234191   5.370   0.575   1.741  0.0083 -0.1510  0.0714
 4211TIP3    H134192   5.372   0.658   1.693 -0.9921  0.1650  0.5453
 4211TIP3    H234193   5.455   0.535   1.724  0.7770  1.2929  0.3989
 4212TIP3   OH234194   3.077   1.910   1.535 -0.1980  0.4675 -0.0959
 4212TIP3    H134195   3.111   1.965   1.606 -0.6750  0.3170  0.2583
 4212TIP3    H234196   3.148   1.848   1.517 -0.3845 -0.0436  0.8461
 4213TIP3   OH234197   6.123   4.469   1.297  0.3514 -0.4879 -0.2619
 4213TIP3    H134198   6.132   4.374   1.298  1.2810 -0.4697 -2.0218
 4213TIP3    H234199   6.031   4.485   1.314  0.1453 -1.7205 -0.1240
 4214TIP3   OH234200   3.856   0.255   2.127 -0.1020  0.9863  0.4194
 4214TIP3    H134201   3.811   0.320   2.073  0.1696  1.3048  0.5681
 4214TIP3    H234202   3.867   0.298   2.212 -1.4981  0.0865  1.0803
 4215TIP3   OH234203   4.409   1.332   7.738 -0.6191 -0.0530  0.4918
 4215TIP3    H134204   4.451   1.302   7.658 -2.2559  0.4650 -0.6220
 4215TIP3    H234205   4.389   1.252   7.787  0.1272 -0.3877  0.2496
 4216TIP3   OH234206   6.532   1.249   1.710  0.2568  0.3925 -0.2355
 4216TIP3    H134207   6.585   1.189   1.657 -0.1849 -1.3231  1.1549
 4216TIP3    H234208   6.464   1.281   1.651  0.0993 -1.0304 -0.8627
 4217TIP3   OH234209   2.638   6.652   6.767 -0.1462  0.1097  0.3091
 4217TIP3    H134210   2.666   6.600   6.692 -0.7296  2.2974 -1.5396
 4217TIP3    H234211   2.558   6.695   6.739 -0.7585  0.5200  2.4533
 4218TIP3   OH234212   1.601   2.680   1.734 -0.0738  0.3829 -0.0185
 4218TIP3    H134213   1.632   2.618   1.800 -1.5352  0.4616  0.7793
 4218TIP3    H234214   1.546   2.628   1.675  0.9581  0.3806 -1.0135
 4219TIP3   OH234215   3.090   1.520   7.770 -0.0211  0.5121 -0.3792
 4219TIP3    H134216   3.014   1.496   7.718  0.7783 -0.0009 -1.3403
 4219TIP3    H234217   3.143   1.574   7.712 -0.3357  2.1257  0.7655
 4220TIP3   OH234218   3.122   2.147   7.570  0.4180  0.3366 -0.4282
 4220TIP3    H134219   3.033   2.153   7.536  0.3017 -0.2634 -0.2491
 4220TIP3    H234220   3.159   2.234   7.557 -1.1077  1.4386  2.0087
 4221TIP3   OH234221   0.500   3.853   0.028  0.5465 -0.5158  0.0720
 4221TIP3    H134222   0.437   3.792   0.068  0.1545  0.3443  0.7992
 4221TIP3    H234223   0.546   3.892   0.102  2.7012 -1.8552 -0.4600
 4222TIP3   OH234224   6.896   1.988   0.270 -0.8323 -0.1334  0.6511
 4222TIP3    H134225   6.968   1.925   0.264 -0.9742 -0.1960 -0.9364
 4222TIP3    H234226   6.843   1.958   0.344  0.3874 -0.4837  1.4002
 4223TIP3   OH234227   2.422   0.920   7.736 -0.1525 -0.1222  0.2401
 4223TIP3    H134228   2.393   0.836   7.770  2.2013 -0.8013  0.7117
 4223TIP3    H234229   2.484   0.899   7.667  0.8124  1.1963  0.6524
 4224TIP3   OH234230   3.019   5.012   1.209 -0.0818  0.1845 -0.1762
 4224TIP3    H134231   2.927   4.988   1.194 -0.8112  0.8663  2.6386
 4224TIP3    H234232   3.024   5.105   1.189  0.1535  0.0256 -0.8780
 4225TIP3   OH234233   1.568   4.917   0.636  0.4056 -0.3189  0.3318
 4225TIP3    H134234   1.654   4.917   0.594  1.1786 -0.7670  1.8385
 4225TIP3    H234235   1.512   4.866   0.577  1.3927 -0.7440 -0.2607
 4226TIP3   OH234236   3.102   0.902   1.660 -0.1686 -0.2730  0.5036
 4226TIP3    H134237   3.078   0.844   1.587  0.9658  2.0037 -1.8419
 4226TIP3    H234238   3.040   0.879   1.729 -1.8438 -2.0500 -1.4053
 4227TIP3   OH234239   2.025   2.824   7.803  0.3968 -0.0405  0.2494
 4227TIP3    H134240   2.061   2.863   7.723  1.2826 -0.0139  0.6482
 4227TIP3    H234241   2.042   2.890   7.871 -0.6099  0.0658  0.4199
 4228TIP3   OH234242   6.656   3.814   7.536 -0.2906 -0.6423 -0.1724
 4228TIP3    H134243   6.707   3.783   7.611 -1.8416 -1.4672  0.5899
 4228TIP3    H234244   6.717   3.812   7.463  1.1330 -0.2705  0.9672
 4229TIP3   OH234245   2.781   3.805   0.898  0.2075  0.4135 -0.4715
 4229TIP3    H134246   2.835   3.737   0.937  0.1808  0.8863  0.4317
 4229TIP3    H234247   2.729   3.839   0.971 -0.2376  0.9687 -1.0324
 4230TIP3   OH234248   4.843   6.199   1.815  0.0053 -0.3298 -0.2677
 4230TIP3    H134249   4.902   6.192   1.890  0.9731 -1.1513 -1.0642
 4230TIP3    H234250   4.876   6.275   1.766  0.8149 -1.1345 -1.0208
 4231TIP3   OH234251   3.152   3.268   1.457  0.1177  0.3425 -0.3412
 4231TIP3    H134252   3.160   3.241   1.366 -0.9556  1.8761 -0.9207
 4231TIP3    H234253   3.085   3.211   1.494 -1.4085  1.4831 -1.2742
 4232TIP3   OH234254   2.746   6.857   0.119 -0.2119  0.0471  0.1080
 4232TIP3    H134255   2.837   6.880   0.101 -0.3009  0.3771  0.0824
 4232TIP3    H234256   2.721   6.912   0.193  0.0087 -0.9628  0.9753
 4233TIP3   OH234257   0.794   2.388   7.726  0.2294 -0.3792  0.0235
 4233TIP3    H134258   0.752   2.333   7.793  1.5089  1.0653  2.1023
 4233TIP3    H234259   0.720   2.430   7.681 -0.6556 -1.4269  0.4304
 4234TIP3   OH234260   5.834   4.309   0.942 -0.3687 -0.2342 -0.6093
 4234TIP3    H134261   5.849   4.229   0.991 -0.8797  0.0249 -0.0181
 4234TIP3    H234262   5.768   4.286   0.877 -1.7463  0.0863  0.6133
 4235TIP3   OH234263   2.567   6.292   0.970 -0.3761 -0.0198  0.3131
 4235TIP3    H134264   2.643   6.238   0.946  0.2842  1.4080 -0.9263
 4235TIP3    H234265   2.602   6.379   0.984 -1.6736  0.4841  0.6055
 4236TIP3   OH234266   3.388   3.514   0.891  0.0462 -0.5990 -0.2656
 4236TIP3    H134267   3.298   3.514   0.859 -0.0415 -0.2427 -0.0250
 4236TIP3    H234268   3.382   3.479   0.979  0.1699 -0.7597 -0.3213
 4237TIP3   OH234269   3.235   6.630   2.771 -0.0828  0.5280 -0.3740
 4237TIP3    H134270   3.153   6.607   2.815 -1.6412  0.5173 -3.0204
 4237TIP3    H234271   3.253   6.719   2.799 -0.8162  0.4153  0.5173
 4238TIP3   OH234272   6.436   1.750   1.530 -0.0393  0.5719 -0.3064
 4238TIP3    H134273   6.350   1.716   1.555  0.5398 -1.2450 -0.6794
 4238TIP3    H234274   6.495   1.716   1.597  0.4473  1.5772 -0.2089
 4239TIP3   OH234275   5.000   0.694   7.092 -0.2125  0.7521  0.6968
 4239TIP3    H134276   5.065   0.627   7.113 -0.9695  0.4647  2.3094
 4239TIP3    H234277   4.962   0.665   7.008  0.3558 -0.1494  0.7356
 4240TIP3   OH234278   5.410   3.670   1.785  0.1121 -0.5837 -0.4229
 4240TIP3    H134279   5.324   3.631   1.801  0.2930 -1.1099 -0.7046
 4240TIP3    H234280   5.425   3.657   1.692  0.4735 -0.4377 -0.3868
 4241TIP3   OH234281   1.856   1.462   2.476  0.0734  0.2510 -0.0924
 4241TIP3    H134282   1.832   1.534   2.419  1.5942  0.5966 -0.3465
 4241TIP3    H234283   1.848   1.384   2.421 -3.5775 -0.1299  0.7397
 4242TIP3   OH234284   6.116   4.999   7.559 -0.1578  0.9393 -1.0430
 4242TIP3    H134285   6.203   5.034   7.542  0.1706  0.3811 -0.5690
 4242TIP3    H234286   6.112   4.919   7.507  0.2016  0.1518  0.0929
 4243TIP3   OH234287   6.475   3.794   1.454 -0.6180  0.4358  0.0386
 4243TIP3    H134288   6.571   3.800   1.450 -0.4638 -0.8186  1.1352
 4243TIP3    H234289   6.458   3.729   1.522 -2.2747  1.1926  0.4005
 4244TIP3   OH234290   0.477   0.027   8.187  0.0159 -0.0800 -0.0297
 4244TIP3    H134291   0.397   0.078   8.199 -0.8363 -1.8119  2.3566
 4244TIP3    H234292   0.460  -0.025   8.108 -1.0887 -0.2188  0.2835
 4245TIP3   OH234293   2.593   3.769   3.016 -0.2542  0.4402 -0.6554
 4245TIP3    H134294   2.595   3.829   3.091 -1.0696 -0.8406  0.4508
 4245TIP3    H234295   2.645   3.693   3.046  0.4660  0.4271 -1.8828
 4246TIP3   OH234296   1.877   0.949   3.063 -0.2564 -0.1085 -0.0448
 4246TIP3    H134297   1.908   0.864   3.032 -1.5003 -1.6204  2.4695
 4246TIP3    H234298   1.955   0.989   3.103  0.0228 -0.7819  0.1130
 4247TIP3   OH234299   5.546   2.371   8.087  0.4811  0.4866  0.9565
 4247TIP3    H134300   5.598   2.401   8.012  0.5116  0.3343  0.9178
 4247TIP3    H234301   5.610   2.353   8.156  0.4570  0.5775  1.0039
 4248TIP3   OH234302   1.451   0.501   1.722  0.5479 -0.3422 -0.2975
 4248TIP3    H134303   1.431   0.541   1.807  2.5024  0.3230 -0.1046
 4248TIP3    H234304   1.523   0.554   1.687 -0.0162 -0.7800 -2.2558
 4249TIP3   OH234305   2.968   6.716   1.747  0.2032 -0.2912  0.2432
 4249TIP3    H134306   2.874   6.728   1.734  0.6780  2.4682 -1.7518
 4249TIP3    H234307   2.984   6.746   1.837 -0.7194  0.2100  0.2535
 4250TIP3   OH234308   0.902   0.619   0.228  0.4690 -0.0704 -0.0734
 4250TIP3    H134309   0.815   0.651   0.205  1.8013  1.3727 -3.9731
 4250TIP3    H234310   0.895   0.524   0.222 -0.6420  0.0608 -1.5841
 4251TIP3   OH234311   4.122   1.211   0.529 -0.2277 -0.4429 -0.6370
 4251TIP3    H134312   4.056   1.214   0.598 -0.0130 -1.1080 -0.3918
 4251TIP3    H234313   4.082   1.255   0.455 -0.5411  0.0999 -0.1512
 4252TIP3   OH234314   1.962   1.548   0.837  0.8673  0.3096  0.0213
 4252TIP3    H134315   2.012   1.620   0.874  1.9711 -0.7767  0.7321
 4252TIP3    H234316   2.013   1.520   0.761  0.8756 -0.2071  0.2093
 4253TIP3   OH234317   0.507   6.027   2.096  0.0150  0.0784  0.0936
 4253TIP3    H134318   0.567   5.977   2.151  0.1978 -0.1864 -0.3472
 4253TIP3    H234319   0.481   5.966   2.027  1.9252  1.2299 -1.7267
 4254TIP3   OH234320   3.230   2.950   1.248 -0.7875  0.8760  0.3721
 4254TIP3    H134321   3.199   2.872   1.294  2.3601 -1.9003 -1.7376
 4254TIP3    H234322   3.310   2.975   1.295  0.0910  0.6574 -0.9630
 4255TIP3   OH234323   4.867   5.282   2.155  0.2760 -0.2525  0.2385
 4255TIP3    H134324   4.785   5.329   2.170  0.6455  0.1902  0.9422
 4255TIP3    H234325   4.850   5.194   2.187 -0.2226 -0.4368 -0.5066
 4256TIP3   OH234326   2.715   6.133   3.027 -0.5318 -0.4159 -0.3019
 4256TIP3    H134327   2.778   6.176   3.085  1.6633  0.0490 -2.8339
 4256TIP3    H234328   2.650   6.200   3.008  0.5205  0.4637 -0.8823
 4257TIP3   OH234329   2.605   5.739   0.551  0.0104 -0.0660  0.0915
 4257TIP3    H134330   2.640   5.777   0.632  0.2902  0.3963 -0.2416
 4257TIP3    H234331   2.572   5.814   0.502  0.0495 -0.3160 -0.3211
 4258TIP3   OH234332   1.093   0.270   0.843  0.2020 -0.2432 -0.1304
 4258TIP3    H134333   1.163   0.204   0.847 -1.5417 -2.2472 -1.0860
 4258TIP3    H234334   1.018   0.224   0.806 -2.5292  1.0524  3.2978
 4259TIP3   OH234335   5.551   1.435   2.102  0.0035 -0.1947  0.7244
 4259TIP3    H134336   5.548   1.497   2.029  1.0665 -1.2382 -0.2427
 4259TIP3    H234337   5.485   1.467   2.163  2.6249  3.8767  1.8703
 4260TIP3   OH234338   5.916   6.709   2.997  0.3857 -0.1472 -0.2882
 4260TIP3    H134339   5.949   6.634   2.948  0.3018  0.9280 -2.0860
 4260TIP3    H234340   5.897   6.675   3.084  1.3221 -1.9562 -0.7523
 4261TIP3   OH234341   3.336   0.202   6.878  0.4207 -0.2489 -0.1716
 4261TIP3    H134342   3.384   0.238   6.804  3.8642 -0.6245  1.6701
 4261TIP3    H234343   3.283   0.275   6.912  0.0164  0.3352 -1.9859
 4262TIP3   OH234344   5.496   3.686   2.170 -0.6158 -0.0187 -0.2332
 4262TIP3    H134345   5.555   3.708   2.243 -1.4376  1.4958  0.0333
 4262TIP3    H234346   5.461   3.600   2.193  0.0994 -0.1300  0.5234
 4263TIP3   OH234347   2.525   3.049   1.843  0.1484 -0.5086 -0.5698
 4263TIP3    H134348   2.517   3.052   1.938  3.0200 -0.3725 -0.2258
 4263TIP3    H234349   2.469   2.977   1.815  0.3503 -1.4829  1.4109
 4264TIP3   OH234350   1.204   4.488   8.066  0.2476 -0.0590  0.0572
 4264TIP3    H134351   1.145   4.555   8.033  0.2530 -0.4691 -0.8241
 4264TIP3    H234352   1.275   4.484   8.002 -0.7603 -2.2792 -1.0573
 4265TIP3   OH234353   6.398   1.904   0.220  0.1828 -0.7744 -0.1818
 4265TIP3    H134354   6.370   1.990   0.191 -0.4073 -1.0832 -0.5365
 4265TIP3    H234355   6.339   1.843   0.176  2.2104 -1.5458 -2.0201
 4266TIP3   OH234356   3.473   5.963   0.365 -0.2998 -0.2490  0.1051
 4266TIP3    H134357   3.433   6.006   0.440 -0.5146  0.7727 -0.5704
 4266TIP3    H234358   3.467   6.028   0.294  0.3284 -1.0024 -0.6623
 4267TIP3   OH234359   1.412   2.292   3.359 -0.5281  0.1921 -0.4101
 4267TIP3    H134360   1.463   2.332   3.289 -1.2016  3.2091  0.6884
 4267TIP3    H234361   1.454   2.320   3.440 -2.0803  0.1237  0.4695
 4268TIP3   OH234362   3.199   1.443   8.205  0.0148 -0.2915 -0.0546
 4268TIP3    H134363   3.252   1.367   8.227  0.6732  0.5897  1.5591
 4268TIP3    H234364   3.263   1.512   8.188 -0.5662 -0.1014 -1.7067
 4269TIP3   OH234365   3.164   3.966   0.371 -0.2042  0.4312  0.3193
 4269TIP3    H134366   3.154   4.060   0.386  1.7906  0.4214  2.3077
 4269TIP3    H234367   3.258   3.950   0.378 -0.3809 -1.5923 -1.0142
 4270TIP3   OH234368   6.501   1.662   0.111 -0.4029 -0.1828  0.2188
 4270TIP3    H134369   6.483   1.746   0.153 -0.5491  1.1572 -2.3378
 4270TIP3    H234370   6.585   1.634   0.148 -0.4403  0.9608  1.2488
 4271TIP3   OH234371   2.124   0.088   8.206 -0.1693 -0.0466  0.4443
 4271TIP3    H134372   2.084   0.112   8.122  0.7856 -0.4713 -0.1581
 4271TIP3    H234373   2.205   0.044   8.181  1.9950  2.9356  1.6023
 4272TIP3   OH234374   4.060   0.634   3.093  0.4425 -0.2631  0.4768
 4272TIP3    H134375   3.998   0.695   3.053  1.4095  1.0374  0.8933
 4272TIP3    H234376   4.116   0.688   3.148  3.4467 -0.9641 -1.6040
 4273TIP3   OH234377   1.865   2.362   0.181  0.2612  0.0540  0.6301
 4273TIP3    H134378   1.853   2.451   0.150 -1.3942  0.9520  3.4152
 4273TIP3    H234379   1.957   2.358   0.209  0.6915  0.4263 -0.6636
 4274TIP3   OH234380   5.288   6.081   2.911 -0.3918  0.2907 -0.2556
 4274TIP3    H134381   5.283   6.176   2.922  1.2684  0.5033 -1.1009
 4274TIP3    H234382   5.271   6.066   2.818 -1.4076 -0.3343  0.0080
 4275TIP3   OH234383   5.066   4.597   2.191  0.5214 -0.1921 -0.1683
 4275TIP3    H134384   5.150   4.556   2.170 -0.4447 -1.2009 -2.3086
 4275TIP3    H234385   5.014   4.589   2.111 -1.8197 -0.0544  1.2392
 4276TIP3   OH234386   1.835   5.070   0.828  0.2752  0.2975  0.0955
 4276TIP3    H134387   1.870   5.156   0.852  0.5877 -0.3829  2.2268
 4276TIP3    H234388   1.750   5.066   0.872  0.1934 -0.4332 -0.1233
 4277TIP3   OH234389   2.271   3.721   0.307  0.5219  0.1636  0.0678
 4277TIP3    H134390   2.313   3.758   0.229  1.5688 -0.9638  0.0625
 4277TIP3    H234391   2.219   3.793   0.342 -0.0855  0.6720 -1.7372
 4278TIP3   OH234392   3.596   1.042   0.327  0.0674  0.2356 -0.0818
 4278TIP3    H134393   3.592   1.112   0.393  2.9409 -1.2924  1.9614
 4278TIP3    H234394   3.510   1.001   0.330  0.4457 -0.6376  3.8797
 4279TIP3   OH234395   6.446   1.152   1.314  0.0594  0.2641  0.7363
 4279TIP3    H134396   6.472   1.197   1.233  4.0556 -1.1338  1.0062
 4279TIP3    H234397   6.351   1.153   1.312 -0.0562  1.6859 -3.1923
 4280TIP3   OH234398   0.611   5.223   7.320  0.1180 -0.3617 -0.3570
 4280TIP3    H134399   0.592   5.317   7.323 -1.3218 -0.6283 -0.4785
 4280TIP3    H234400   0.681   5.215   7.255  1.9384  0.8571  1.3369
 4281TIP3   OH234401   5.879   2.472   1.794  0.3098  0.0897  0.3146
 4281TIP3    H134402   5.834   2.487   1.877  1.5945 -0.8890  1.2266
 4281TIP3    H234403   5.900   2.379   1.794  2.3020  0.4919 -0.0514
 4282TIP3   OH234404   6.460   1.346   1.955  0.3856 -0.8617 -0.1022
 4282TIP3    H134405   6.543   1.360   2.000  0.0825  3.2796 -0.3655
 4282TIP3    H234406   6.484   1.298   1.876  2.5009 -0.1939  0.0525
 4283TIP3   OH234407   4.135   4.876   0.105 -0.3745  0.5876 -0.2623
 4283TIP3    H134408   4.051   4.917   0.083 -1.0507 -0.6197 -0.0340
 4283TIP3    H234409   4.158   4.911   0.191 -1.8909 -0.8930  0.7950
 4284TIP3   OH234410   5.768   5.315   3.382  0.3078  0.3049  0.6765
 4284TIP3    H134411   5.852   5.279   3.412  0.2467  0.8870  1.5881
 4284TIP3    H234412   5.767   5.404   3.417 -0.4719  0.4745  0.2407
 4285TIP3   OH234413   3.866   6.367   0.342 -0.4282 -0.6805  0.1284
 4285TIP3    H134414   3.951   6.393   0.376 -0.2563  0.0548 -0.8026
 4285TIP3    H234415   3.803   6.413   0.397 -0.1436  1.0898 -0.9230
 4286TIP3   OH234416   4.195   5.875   8.205 -0.5455 -0.0797 -0.4924
 4286TIP3    H134417   4.210   5.786   8.236  0.7197  0.5847  0.9539
 4286TIP3    H234418   4.102   5.877   8.182 -1.3719 -0.9833  2.3038
 4287TIP3   OH234419   2.373   3.462   3.254  0.1780  0.1660  0.1671
 4287TIP3    H134420   2.386   3.388   3.313 -0.2319  1.4438  1.9201
 4287TIP3    H234421   2.406   3.431   3.170 -1.8789 -2.7694  0.2664
 4288TIP3   OH234422   2.098   3.774   7.939 -0.5790 -0.4308 -0.0695
 4288TIP3    H134423   2.143   3.770   7.855 -1.7501  0.3354 -0.7571
 4288TIP3    H234424   2.163   3.809   8.000  1.1062 -3.2975 -0.0336
 4289TIP3   OH234425   5.752   2.890   8.137  0.3042 -0.2890 -0.0830
 4289TIP3    H134426   5.667   2.925   8.163  0.9924  0.5470  1.1648
 4289TIP3    H234427   5.780   2.838   8.212  0.7090 -0.9244 -0.6603
 4290TIP3   OH234428   4.551   5.777   8.294 -0.1808 -0.6403 -0.4091
 4290TIP3    H134429   4.634   5.751   8.254 -0.1470 -1.0157 -0.0898
 4290TIP3    H234430   4.492   5.791   8.219 -0.4420 -2.4067 -0.5696
 4291TIP3   OH234431   6.696   0.985   7.640  0.0221  0.0152  0.3022
 4291TIP3    H134432   6.693   0.891   7.623 -0.2549 -0.5292  2.9697
 4291TIP3    H234433   6.735   0.992   7.727  0.9046  2.4527 -0.2132
 4292TIP3   OH234434   5.621   2.626   7.358  0.2482  0.2051 -0.0714
 4292TIP3    H134435   5.549   2.684   7.384  0.0595  0.1369 -0.4350
 4292TIP3    H234436   5.581   2.565   7.295  0.6989  0.3737 -0.5251
 4293TIP3   OH234437   4.671   4.890   1.377 -0.4263 -0.0948  0.7999
 4293TIP3    H134438   4.721   4.865   1.455 -0.4331 -3.3591 -0.0793
 4293TIP3    H234439   4.581   4.899   1.409 -0.2594 -0.2918  1.3493
 4294TIP3   OH234440   4.405   6.466   1.648  0.3725 -0.4291 -0.1796
 4294TIP3    H134441   4.371   6.469   1.559  2.2914 -1.2335 -1.0090
 4294TIP3    H234442   4.443   6.553   1.662 -0.1192 -0.2322 -0.0613
 4295TIP3   OH234443   5.958   0.122   1.079  0.0287 -0.3623 -0.2198
 4295TIP3    H134444   5.983   0.050   1.136  0.0176 -1.7418 -1.9081
 4295TIP3    H234445   6.024   0.190   1.096  0.6702 -1.1617  0.5908
 4296TIP3   OH234446   1.014   3.489   2.730 -0.4108  0.3924  0.4891
 4296TIP3    H134447   1.053   3.463   2.646 -1.5536  1.8357 -0.5461
 4296TIP3    H234448   1.004   3.584   2.723 -0.9778  0.4842  2.0944
 4297TIP3   OH234449   5.679   1.789   0.066  0.2678 -0.0544  0.3059
 4297TIP3    H134450   5.753   1.753   0.016 -0.3114  1.2925 -1.6452
 4297TIP3    H234451   5.719   1.857   0.122  0.7839 -0.8687  0.9483
 4298TIP3   OH234452   1.644   4.285   1.113 -0.1838  0.1099 -0.8429
 4298TIP3    H134453   1.647   4.192   1.137  2.0768  0.4620  0.5117
 4298TIP3    H234454   1.566   4.293   1.058 -1.2055 -2.3161  0.1093
 4299TIP3   OH234455   5.499   4.353   8.297  0.7498  0.4570 -0.3932
 4299TIP3    H134456   5.524   4.427   8.242  0.5081  0.8627  0.0385
 4299TIP3    H234457   5.567   4.349   8.365  1.4943 -0.5378 -1.1653
 4300TIP3   OH234458   0.841   4.722   8.233  0.6671 -0.1463  0.0890
 4300TIP3    H134459   0.794   4.640   8.249  0.3270  0.0542  0.1336
 4300TIP3    H234460   0.909   4.724   8.300 -1.7392  1.4643  2.7607
 4301TIP3   OH234461   4.857   1.704   7.158  0.1201 -0.0267 -0.2145
 4301TIP3    H134462   4.838   1.621   7.202  0.0266  0.0968 -0.0199
 4301TIP3    H234463   4.874   1.679   7.067  3.5752 -0.7354  0.4616
 4302TIP3   OH234464   2.305   6.738   1.703 -0.7920 -0.2557 -0.3833
 4302TIP3    H134465   2.363   6.755   1.776 -1.7237 -0.9112  0.5424
 4302TIP3    H234466   2.254   6.819   1.693  0.4755  0.4462 -1.4231
 4303TIP3   OH234467   4.697   5.835   2.698 -0.7497  0.2051 -0.1687
 4303TIP3    H134468   4.695   5.822   2.793  2.4678 -2.0173 -0.2157
 4303TIP3    H234469   4.744   5.918   2.687  0.7078 -0.5294  0.2462
 4304TIP3   OH234470   2.576   4.821   1.196 -0.4678  0.6769 -0.3075
 4304TIP3    H134471   2.533   4.747   1.154 -1.0285  0.1650  1.0779
 4304TIP3    H234472   2.514   4.849   1.263  0.4090  1.3852  0.2320
 4305TIP3   OH234473   3.743   3.959   8.017  0.1055  0.0604 -0.1314
 4305TIP3    H134474   3.653   3.931   8.033  0.4591 -0.1078  1.6847
 4305TIP3    H234475   3.748   3.969   7.921 -1.2538 -1.8906 -0.4693
 4306TIP3   OH234476   1.400   2.731   0.121 -0.0562 -0.0336 -0.1200
 4306TIP3    H134477   1.365   2.812   0.159  0.7146  0.0789  0.3509
 4306TIP3    H234478   1.322   2.684   0.090 -0.4849  1.1400 -0.9180
 4307TIP3   OH234479   0.914   2.562   7.024  0.3628  0.0761  0.3528
 4307TIP3    H134480   0.828   2.524   7.042  0.0884  0.3463 -0.3535
 4307TIP3    H234481   0.905   2.602   6.937  0.4303  2.3457  1.3075
 4308TIP3   OH234482   4.200   2.240   0.707  0.0373 -0.1169 -0.2503
 4308TIP3    H134483   4.255   2.268   0.634  1.0970 -1.2933  0.0702
 4308TIP3    H234484   4.180   2.149   0.688 -1.8455  0.2828 -0.3598
 4309TIP3   OH234485   2.935   2.468   0.610  0.2749  1.0826  0.2817
 4309TIP3    H134486   2.986   2.408   0.664 -0.0521 -0.0601 -0.6424
 4309TIP3    H234487   2.908   2.537   0.671  1.2400  0.6724  1.2154
 4310TIP3   OH234488   0.438   4.780   8.261 -0.2079  0.0676  0.4645
 4310TIP3    H134489   0.506   4.838   8.295 -0.0923 -0.5152  1.2675
 4310TIP3    H234490   0.360   4.835   8.256 -0.0498  0.3558  1.0233
 4311TIP3   OH234491   0.251   6.529   1.193 -0.0565 -0.1928 -0.0664
 4311TIP3    H134492   0.295   6.587   1.256  0.0433 -0.9683  0.6009
 4311TIP3    H234493   0.160   6.526   1.223 -0.2139  0.1303 -0.4940
 4312TIP3   OH234494   5.423   2.959   7.979  0.6718 -0.3681  0.4170
 4312TIP3    H134495   5.418   2.929   8.069 -0.9496  0.0585  0.4894
 4312TIP3    H234496   5.506   3.007   7.975  0.2100  0.6287  2.0061
 4313TIP3   OH234497   2.959   0.590   7.464  0.2231 -0.0131 -0.1785
 4313TIP3    H134498   3.021   0.519   7.483  0.6927  0.3098 -0.4965
 4313TIP3    H234499   3.006   0.649   7.406 -0.9633 -0.6362 -1.8569
 4314TIP3   OH234500   0.225   5.316   8.306 -0.7770  0.2568  0.2281
 4314TIP3    H134501   0.136   5.282   8.317 -1.4091  1.0581 -1.8759
 4314TIP3    H234502   0.213   5.404   8.272  0.8482  0.7499  0.8547
 4315TIP3   OH234503   5.972   0.731   8.413 -0.2597 -0.4094  0.1722
 4315TIP3    H134504   5.937   0.650   8.376 -0.1145  0.2805 -1.5913
 4315TIP3    H234505   5.907   0.797   8.390  0.0309  0.1158  0.8461
 4316TIP3   OH234506   1.231   3.087   8.310 -0.1265 -0.1368 -0.1354
 4316TIP3    H134507   1.136   3.072   8.313 -0.5613  1.4216 -2.7952
 4316TIP3    H234508   1.269   3.002   8.289 -0.9587 -0.6653  0.4338
 4317TIP3   OH234509   6.235   6.380   0.823  0.2462 -0.3845 -0.6961
 4317TIP3    H134510   6.318   6.424   0.841 -0.2317  0.2751 -0.0199
 4317TIP3    H234511   6.208   6.414   0.737 -0.4232  1.1738  0.0884
 4318TIP3   OH234512   6.803   3.614   0.385 -0.0760  0.1819  0.0274
 4318TIP3    H134513   6.801   3.623   0.290 -0.7757  1.4233  0.1301
 4318TIP3    H234514   6.804   3.520   0.401  0.5187 -0.0408 -1.2036
 4319TIP3   OH234515   3.012   1.420   0.891 -0.2012 -0.3556 -0.8116
 4319TIP3    H134516   3.065   1.342   0.872 -0.8844 -1.2617  0.7928
 4319TIP3    H234517   3.013   1.427   0.986 -3.0246 -0.4652 -0.7013
 4320TIP3   OH234518   0.747   5.812   2.017 -0.0927  0.5051  0.2660
 4320TIP3    H134519   0.757   5.745   2.084  1.8415 -1.8303 -2.1722
 4320TIP3    H234520   0.674   5.782   1.963  0.8662  0.2645 -0.9211
 4321TIP3   OH234521   3.769   4.570   1.580  0.0769  0.0193 -0.4505
 4321TIP3    H134522   3.693   4.513   1.576 -1.1474  1.5873 -0.6939
 4321TIP3    H234523   3.805   4.556   1.668 -0.1606 -1.1456 -0.5293
 4322TIP3   OH234524   3.198   5.731   7.963 -0.2179 -0.1189  0.0588
 4322TIP3    H134525   3.285   5.700   7.940 -0.1237 -0.2258  0.5443
 4322TIP3    H234526   3.176   5.683   8.043 -0.4158  0.4479  0.3501
 4323TIP3   OH234527   4.374   4.390   1.199 -0.3097  0.4601  0.3894
 4323TIP3    H134528   4.463   4.424   1.187 -0.2726  0.4570  0.6469
 4323TIP3    H234529   4.323   4.465   1.229 -0.2462  0.3134  0.8790
 4324TIP3   OH234530   5.416   5.363   2.736  0.4827 -0.2473 -0.3624
 4324TIP3    H134531   5.376   5.299   2.795 -0.3074  0.3998 -0.1724
 4324TIP3    H234532   5.369   5.353   2.654  1.1815 -0.7340 -0.7189
 4325TIP3   OH234533   4.889   5.309   7.724  0.0250 -0.0155 -0.0500
 4325TIP3    H134534   4.801   5.334   7.752  0.1451 -0.8728  1.1786
 4325TIP3    H234535   4.885   5.214   7.714  1.2746 -0.3323  1.9070
 4326TIP3   OH234536   1.743   4.250   0.661 -0.1207  0.3327  0.5457
 4326TIP3    H134537   1.785   4.167   0.683 -0.6651 -0.3881 -1.0456
 4326TIP3    H234538   1.785   4.313   0.720 -0.0779 -1.1222  2.1700
 4327TIP3   OH234539   0.594   1.473   7.097  0.4097 -0.2837  0.1257
 4327TIP3    H134540   0.667   1.459   7.037 -1.1718 -3.0859 -1.3491
 4327TIP3    H234541   0.522   1.504   7.041  0.1308  1.5905  1.4057
 4328TIP3   OH234542   0.123   0.116   7.785 -0.3725 -0.1948 -0.2944
 4328TIP3    H134543   0.098   0.049   7.848  0.7262 -0.1368  0.2331
 4328TIP3    H234544   0.131   0.070   7.702 -0.9532 -0.4479 -0.2149
 4329TIP3   OH234545   0.129   4.791   0.826 -0.2527  0.0061  0.3852
 4329TIP3    H134546   0.058   4.851   0.802  0.2432  0.3445 -0.2583
 4329TIP3    H234547   0.151   4.745   0.745  1.0572  0.7473  0.2945
 4330TIP3   OH234548   2.234   2.468   2.147 -0.1701  0.5558 -0.2737
 4330TIP3    H134549   2.236   2.549   2.096 -0.9441  0.8542  0.1542
 4330TIP3    H234550   2.185   2.491   2.226  2.2550  0.5388  1.3374
 4331TIP3   OH234551   5.419   3.693   7.820 -0.0118 -0.3719  0.2108
 4331TIP3    H134552   5.334   3.663   7.790 -0.3125  0.9910 -0.3817
 4331TIP3    H234553   5.416   3.788   7.812  1.9588 -0.3445 -0.9124
 4332TIP3   OH234554   1.781   5.860   0.446  0.0085  0.1204  0.3192
 4332TIP3    H134555   1.849   5.813   0.494  0.1555  0.3608  0.3515
 4332TIP3    H234556   1.728   5.902   0.515 -0.4580 -0.4448  0.3148
 4333TIP3   OH234557   4.363   4.670   2.179  0.1646  0.7316 -0.4583
 4333TIP3    H134558   4.415   4.678   2.259 -1.9392  3.4024  0.7545
 4333TIP3    H234559   4.315   4.588   2.190  0.7336  0.5060  0.4863
 4334TIP3   OH234560   2.080   2.466   2.902  0.5445  0.4044 -0.2608
 4334TIP3    H134561   2.077   2.429   2.990  1.7221  0.9934  0.0531
 4334TIP3    H234562   2.173   2.481   2.886  0.3930 -0.1584 -1.8094
 4335TIP3   OH234563   3.970   4.792   1.116  0.7524  0.2125 -0.5586
 4335TIP3    H134564   3.930   4.756   1.194 -0.9836 -0.4460 -1.6999
 4335TIP3    H234565   3.920   4.871   1.097  1.7207  0.8511 -0.5453
 4336TIP3   OH234566   3.820   0.062   7.902 -0.2494  0.1479 -0.2606
 4336TIP3    H134567   3.901   0.084   7.947  0.8842 -1.4151 -1.4464
 4336TIP3    H234568   3.754   0.060   7.972  0.4795  2.3576  0.5851
 4337TIP3   OH234569   3.385   2.723   0.058 -0.0122  0.0863 -0.3536
 4337TIP3    H134570   3.437   2.647   0.028  1.7003  0.5255  1.2910
 4337TIP3    H234571   3.304   2.685   0.092 -0.4568 -0.7083 -2.1790
 4338TIP3   OH234572   6.601   1.848   2.383 -0.2634 -0.2293  0.2050
 4338TIP3    H134573   6.527   1.870   2.326  0.4698 -0.8623 -1.0255
 4338TIP3    H234574   6.645   1.931   2.400 -0.9482  0.0761  0.5217
 4339TIP3   OH234575   2.460   2.788   1.661  0.4226 -0.7404 -0.0691
 4339TIP3    H134576   2.535   2.734   1.686  2.0536  0.3159 -2.3177
 4339TIP3    H234577   2.385   2.728   1.662  1.6863 -2.3687  0.0978
 4340TIP3   OH234578   0.725   2.195   7.952  0.0660  0.1043 -0.1633
 4340TIP3    H134579   0.631   2.186   7.938 -0.0057 -0.1578  0.4504
 4340TIP3    H234580   0.760   2.107   7.941  0.2182  0.1719 -0.2257
 4341TIP3   OH234581   5.969   3.485   1.728  0.1374  0.2411 -0.2412
 4341TIP3    H134582   6.051   3.440   1.709  0.7643  1.7214 -1.2922
 4341TIP3    H234583   5.915   3.420   1.771  1.9549 -0.7078  0.7277
 4342TIP3   OH234584   3.231   0.220   0.390 -0.0331 -0.2573 -0.4082
 4342TIP3    H134585   3.164   0.278   0.354  0.8955  0.4032 -1.1155
 4342TIP3    H234586   3.216   0.223   0.485  0.3233  1.6094 -0.3644
 4343TIP3   OH234587   1.290   0.088   7.466  0.2724 -0.3904 -0.2910
 4343TIP3    H134588   1.379   0.118   7.482  0.3051 -0.3893 -0.4811
 4343TIP3    H234589   1.284   0.076   7.371  0.1871 -0.7533 -0.2425
 4344TIP3   OH234590   0.756   6.371   1.568 -0.3480  0.4434  0.3113
 4344TIP3    H134591   0.770   6.298   1.629 -0.8031  1.1729  1.3318
 4344TIP3    H234592   0.729   6.330   1.486 -1.9306 -0.4963  1.2608
 4345TIP3   OH234593   3.286   4.225   0.061  0.6026 -0.4309 -0.1909
 4345TIP3    H134594   3.297   4.131   0.068 -1.1239 -0.7169 -0.8175
 4345TIP3    H234595   3.369   4.262   0.092  1.0573 -2.1192  0.6978
 4346TIP3   OH234596   3.437   4.094   2.576 -0.4314 -0.1457  0.1457
 4346TIP3    H134597   3.413   4.185   2.560 -0.9924 -0.4051 -0.5639
 4346TIP3    H234598   3.523   4.098   2.616 -1.2058  0.7810  1.8259
 4347TIP3   OH234599   5.083   4.666   7.469 -0.1984  0.0622  0.0482
 4347TIP3    H134600   5.029   4.666   7.390  2.2913  0.5445 -1.8102
 4347TIP3    H234601   5.109   4.758   7.479  0.8793 -0.2669  0.3823
 4348TIP3   OH234602   4.600   2.357   1.788  0.1058  0.3755  0.2931
 4348TIP3    H134603   4.552   2.391   1.712  0.7353 -0.7048 -0.6238
 4348TIP3    H234604   4.685   2.330   1.753  0.2201 -0.6342  1.2706
 4349TIP3   OH234605   3.398   4.409   2.593  0.1085 -0.2273 -0.0126
 4349TIP3    H134606   3.468   4.458   2.637 -0.4917 -0.5343  1.3190
 4349TIP3    H234607   3.329   4.401   2.659 -0.8419 -0.6723 -1.0340
 4350TIP3   OH234608   3.381   3.405   1.535 -0.1609 -0.0853  0.7599
 4350TIP3    H134609   3.307   3.345   1.523  0.4839 -1.0682  1.5433
 4350TIP3    H234610   3.345   3.477   1.588 -0.2465 -1.2384  2.3415
 4351TIP3   OH234611   4.995   4.271   1.522 -0.6014 -0.2677  0.4959
 4351TIP3    H134612   5.044   4.284   1.603  1.5612 -2.2189 -0.3982
 4351TIP3    H234613   4.928   4.207   1.545 -0.0738 -0.7240  0.7870
 4352TIP3   OH234614   5.115   4.936   1.355 -0.4438 -0.4803 -0.0093
 4352TIP3    H134615   5.045   4.961   1.416  0.9697  3.4867  0.3071
 4352TIP3    H234616   5.195   4.954   1.404  0.7732  3.4361 -2.9760
 4353TIP3   OH234617   1.191   2.494   3.310 -0.1348 -0.3585 -0.1835
 4353TIP3    H134618   1.251   2.420   3.320 -1.2034 -1.1965  0.2429
 4353TIP3    H234619   1.146   2.479   3.227  1.8332  1.4977 -1.6930
 4354TIP3   OH234620   2.934   5.521   1.582 -0.0199  0.4381  0.1640
 4354TIP3    H134621   3.001   5.453   1.582 -1.6983 -1.3299  0.4633
 4354TIP3    H234622   2.954   5.575   1.658  1.2718  0.2005  0.0137
 4355TIP3   OH234623   6.394   4.392   7.409 -0.0684 -0.1401  0.2897
 4355TIP3    H134624   6.330   4.460   7.429 -0.6054 -0.3795 -0.5491
 4355TIP3    H234625   6.365   4.356   7.326  2.4455  1.2750 -1.3225
 4356TIP3   OH234626   3.503   0.621   1.454  0.2488 -0.3250 -0.1067
 4356TIP3    H134627   3.506   0.688   1.386  0.2786 -0.2002  0.0157
 4356TIP3    H234628   3.565   0.555   1.426 -0.1927 -0.5723 -0.5100
 4357TIP3   OH234629   0.682   2.725   2.233 -0.1352 -0.0229 -0.7928
 4357TIP3    H134630   0.615   2.719   2.301 -3.1930 -3.5690 -3.6788
 4357TIP3    H234631   0.658   2.803   2.182  0.3114  0.8777  0.3393
 4358TIP3   OH234632   0.022   1.538   8.100  0.0607 -0.0149 -0.2598
 4358TIP3    H134633   0.112   1.509   8.113  0.2792  1.1373  1.0305
 4358TIP3    H234634   0.010   1.609   8.163 -2.5608 -1.7987  1.4564
 4359TIP3   OH234635   0.285   2.975   0.107 -0.4606 -0.0135  0.1578
 4359TIP3    H134636   0.222   3.012   0.045  0.6736 -0.9097 -1.6303
 4359TIP3    H234637   0.314   2.893   0.065  0.7847 -0.3597  1.6062
 4360TIP3   OH234638   6.039   2.182   2.344 -0.4721 -0.3590 -0.2721
 4360TIP3    H134639   5.950   2.213   2.357  0.1542  1.5206 -0.1120
 4360TIP3    H234640   6.074   2.174   2.433 -0.5083 -1.2105 -0.3301
 4361TIP3   OH234641   6.902   1.456   0.170  0.4251  0.2383 -0.4963
 4361TIP3    H134642   6.824   1.443   0.225  0.6140  0.7982 -0.0834
 4361TIP3    H234643   6.880   1.532   0.115  2.2618  3.4298  2.7293
 4362TIP3   OH234644   3.251   6.711   1.678  0.0617 -0.0194  0.1719
 4362TIP3    H134645   3.163   6.743   1.698 -0.3322  0.1060 -1.5930
 4362TIP3    H234646   3.238   6.646   1.608  1.4063  0.4573 -0.5710
 4363TIP3   OH234647   4.989   3.536   0.499 -0.6974  0.2143 -0.5669
 4363TIP3    H134648   5.082   3.545   0.518 -0.8522  0.6421  0.0117
 4363TIP3    H234649   4.982   3.454   0.449 -0.1597 -0.4518  0.4124
 4364TIP3   OH234650   0.253   5.736   0.823 -0.2672  0.3852  0.6277
 4364TIP3    H134651   0.336   5.690   0.838 -0.6916  0.0753  2.1225
 4364TIP3    H234652   0.189   5.666   0.812 -0.0677  0.5342 -2.8484
 4365TIP3   OH234653   1.702   3.109   1.032 -1.1368 -0.0021  0.2320
 4365TIP3    H134654   1.717   3.113   1.126 -2.2192 -0.2310  0.4265
 4365TIP3    H234655   1.739   3.025   1.005  0.5790  0.7322  0.1612
 4366TIP3   OH234656   3.027   3.524   7.187 -0.3748 -0.0862  0.3317
 4366TIP3    H134657   3.013   3.600   7.243 -1.3477 -0.1483  0.1767
 4366TIP3    H234658   2.941   3.484   7.177  0.2570 -1.8471  1.2902
 4367TIP3   OH234659   4.978   1.102   8.335 -1.0632 -0.0579  0.1948
 4367TIP3    H134660   5.006   1.147   8.414 -2.7068 -0.1362  0.8640
 4367TIP3    H234661   5.023   1.018   8.338 -1.4642 -0.2535  1.3137
 4368TIP3   OH234662   4.531   0.255   8.350 -0.3530 -0.0225 -0.3568
 4368TIP3    H134663   4.622   0.273   8.375 -0.3754  0.0412 -0.3214
 4368TIP3    H234664   4.523   0.160   8.357 -0.4527  0.0261  0.1834
 4369TIP3   OH234665   2.565   4.584   3.324 -0.4467 -0.2608 -0.8963
 4369TIP3    H134666   2.613   4.657   3.363  1.0687 -0.8397 -1.6278
 4369TIP3    H234667   2.474   4.614   3.324 -0.1071  0.9036  0.4288
 4370TIP3   OH234668   5.183   6.709   0.512  0.6216  0.0111  0.0566
 4370TIP3    H134669   5.215   6.747   0.594 -0.6674  0.9305  0.1724
 4370TIP3    H234670   5.252   6.727   0.449  0.4678  1.7432  0.3346
 4371TIP3   OH234671   3.968   4.788   2.837 -0.1726  0.1365  1.2426
 4371TIP3    H134672   3.878   4.790   2.802  0.8008  0.0358 -1.5038
 4371TIP3    H234673   4.005   4.706   2.803  1.3404  0.8017  1.2055
 4372TIP3   OH234674   1.981   1.394   8.087  0.7664  0.0607 -0.3819
 4372TIP3    H134675   1.896   1.413   8.128  0.9621 -1.2068  0.6740
 4372TIP3    H234676   2.029   1.476   8.092 -0.7248  1.0830 -1.8777
 4373TIP3   OH234677   4.036   3.640   0.081  0.4284  0.3640  0.2289
 4373TIP3    H134678   4.072   3.675   0.162  1.4154 -1.2937  0.5549
 4373TIP3    H234679   3.962   3.586   0.109 -0.5140  1.4221 -0.1783
 4374TIP3   OH234680   3.680   2.662   7.251  0.5917  0.0387  0.0500
 4374TIP3    H134681   3.670   2.694   7.162 -0.5980 -0.1606  0.0941
 4374TIP3    H234682   3.774   2.667   7.269  0.5881  2.3344 -0.3725
 4375TIP3   OH234683   5.555   1.931   7.264 -0.2064  0.3278  0.0911
 4375TIP3    H134684   5.548   1.935   7.360  1.1174 -1.3709  0.3026
 4375TIP3    H234685   5.576   2.021   7.238 -2.1596  1.1725  1.2029
 4376TIP3   OH234686   1.191   6.074   0.258 -0.3498  0.4638 -0.3004
 4376TIP3    H134687   1.174   5.982   0.275  0.4943  0.3276 -0.1552
 4376TIP3    H234688   1.143   6.120   0.328  0.6564  0.0432  0.6990
 4377TIP3   OH234689   4.940   3.055   1.882  0.7008 -0.2806  1.0122
 4377TIP3    H134690   4.850   3.058   1.913  0.9427 -1.2278  1.8713
 4377TIP3    H234691   4.935   3.079   1.790 -0.0138  2.9739  1.7881
 4378TIP3   OH234692   3.169   3.431   3.053 -0.0696  0.0302 -0.2534
 4378TIP3    H134693   3.260   3.411   3.074 -0.1975 -2.3865 -1.6718
 4378TIP3    H234694   3.124   3.432   3.138  0.8455 -1.2205  0.2614
 4379TIP3   OH234695   1.524   4.058   8.230  0.2148  0.3161  0.5799
 4379TIP3    H134696   1.531   3.974   8.277 -0.5385  1.0817  2.1357
 4379TIP3    H234697   1.516   4.123   8.300 -2.2831  1.3969 -0.6037
 4380TIP3   OH234698   6.602   0.994   0.256  0.1000  0.1120  0.7418
 4380TIP3    H134699   6.585   0.976   0.348 -0.9120  0.2897  0.5999
 4380TIP3    H234700   6.668   1.064   0.257  0.1872  0.0230  1.3266
 4381TIP3   OH234701   1.351   5.143   2.075 -0.1171 -0.1525  0.9531
 4381TIP3    H134702   1.343   5.238   2.069 -0.2893 -0.2457 -0.6153
 4381TIP3    H234703   1.334   5.123   2.168 -5.5169  0.9005  0.5206
 4382TIP3   OH234704   3.724   4.817   2.101  0.0117 -0.3535  0.3331
 4382TIP3    H134705   3.677   4.734   2.097  0.3839 -0.5307 -0.4365
 4382TIP3    H234706   3.769   4.815   2.186 -1.8636  0.1106  1.4027
 4383TIP3   OH234707   5.673   0.106   1.365  0.0498 -0.6516 -0.1018
 4383TIP3    H134708   5.588   0.148   1.379  1.7446  2.9517  0.7865
 4383TIP3    H234709   5.683   0.103   1.269 -0.6983 -0.2302 -0.1992
 4384TIP3   OH234710   1.519   5.749   2.408 -0.3532 -0.0548  0.6147
 4384TIP3    H134711   1.525   5.843   2.425  0.2687  0.0162  0.0450
 4384TIP3    H234712   1.581   5.710   2.469 -1.7039 -0.2554  1.9314
 4385TIP3   OH234713   2.966   0.712   2.314 -0.1134 -0.0486  0.6469
 4385TIP3    H134714   2.942   0.632   2.360  3.4567 -1.6052  0.1669
 4385TIP3    H234715   3.035   0.751   2.368  0.8304  0.6600 -1.0065
 4386TIP3   OH234716   4.531   0.371   0.156 -0.1433 -0.3903  0.5273
 4386TIP3    H134717   4.532   0.297   0.095 -4.2902 -3.5354  3.7395
 4386TIP3    H234718   4.609   0.358   0.210 -0.1940 -1.7557  0.3054
 4387TIP3   OH234719   2.991   5.100   7.632 -0.1384 -0.3865 -0.2638
 4387TIP3    H134720   2.936   5.165   7.587 -2.4377 -2.2549 -0.3728
 4387TIP3    H234721   3.060   5.079   7.569  0.7111  1.9272 -0.1910
 4388TIP3   OH234722   0.860   5.113   0.425  0.2771  0.0536  0.3308
 4388TIP3    H134723   0.794   5.182   0.415  0.7480  0.2008 -2.7905
 4388TIP3    H234724   0.879   5.112   0.519 -3.6981  0.3751  1.3413
 4389TIP3   OH234725   0.517   5.654   1.928 -0.1449 -0.0028 -0.6088
 4389TIP3    H134726   0.463   5.733   1.935  0.0603  0.0592  0.5961
 4389TIP3    H234727   0.492   5.601   2.004  0.7341 -0.4514 -0.6146
 4390TIP3   OH234728   4.215   5.453   2.123 -0.3009 -0.4168  0.1640
 4390TIP3    H134729   4.120   5.468   2.120 -0.6449 -2.1662  1.0832
 4390TIP3    H234730   4.234   5.440   2.216  0.4888 -2.0190 -0.1919
 4391TIP3   OH234731   0.873   6.872   0.806  0.2075  0.0151  0.5850
 4391TIP3    H134732   0.907   6.894   0.893 -1.3958  1.5426  0.8990
 4391TIP3    H234733   0.849   6.780   0.812  1.4827 -0.2989  1.2685
 4392TIP3   OH234734   2.054   0.764   0.937 -0.1782 -0.2917 -0.2137
 4392TIP3    H134735   2.009   0.836   0.980  0.7512  0.5606 -0.6308
 4392TIP3    H234736   1.985   0.700   0.918 -0.9247  0.2431  0.6372
 4393TIP3   OH234737   4.703   4.934   7.766 -0.1739 -0.4084 -0.1392
 4393TIP3    H134738   4.688   4.919   7.673 -0.3110 -1.7398  0.0787
 4393TIP3    H234739   4.798   4.944   7.774 -0.2114  0.2983 -0.4879
 4394TIP3   OH234740   4.299   5.055   1.101 -0.0192 -0.1673  0.2663
 4394TIP3    H134741   4.276   5.144   1.075  2.4762  1.2047  2.2808
 4394TIP3    H234742   4.259   5.044   1.187  2.4221  0.3866  1.5591
 4395TIP3   OH234743   1.657   2.187   1.977 -0.3946 -0.1709 -0.3312
 4395TIP3    H134744   1.748   2.185   1.947 -0.5103  0.8149 -0.7993
 4395TIP3    H234745   1.609   2.137   1.911 -0.7318  2.4362 -2.2329
 4396TIP3   OH234746   6.773   4.858   0.400 -0.5914  0.3568  0.4910
 4396TIP3    H134747   6.820   4.930   0.358  0.3435  0.9130  2.3558
 4396TIP3    H234748   6.762   4.793   0.331  1.0750  1.1077 -0.5494
 4397TIP3   OH234749   0.932   4.094   1.530  0.0300  0.2579 -0.3819
 4397TIP3    H134750   0.860   4.130   1.582 -0.6168  1.1993 -1.8415
 4397TIP3    H234751   0.899   4.009   1.500 -0.7498  0.9186 -1.4963
 4398TIP3   OH234752   3.108   1.914   7.822 -0.1984  0.1287  0.5035
 4398TIP3    H134753   3.188   1.898   7.773 -0.0188  2.2863 -0.0336
 4398TIP3    H234754   3.068   1.989   7.778 -1.2388  0.6595  2.2411
 4399TIP3   OH234755   1.192   4.221   7.302 -0.0944 -0.4641 -0.6790
 4399TIP3    H134756   1.238   4.150   7.347 -0.2084 -0.7300 -0.9701
 4399TIP3    H234757   1.125   4.176   7.251 -0.4575 -0.1066 -0.5193
 4400TIP3   OH234758   1.879   4.042   2.654  1.2767  0.1350  0.7686
 4400TIP3    H134759   1.831   4.080   2.727  1.9882  1.4847  0.5709
 4400TIP3    H234760   1.961   4.011   2.692  0.6316 -1.4434  0.9607
 4401TIP3   OH234761   3.244   4.905   1.989 -0.4186 -0.1973 -0.7575
 4401TIP3    H134762   3.210   4.916   1.900  0.6669  0.3490 -1.1158
 4401TIP3    H234763   3.332   4.870   1.977 -0.2115  0.0124  0.1017
 4402TIP3   OH234764   0.545   4.409   7.217 -0.3459  1.0717 -0.1361
 4402TIP3    H134765   0.614   4.437   7.158 -0.8515  1.9366 -0.3333
 4402TIP3    H234766   0.563   4.453   7.299 -1.4063  2.4104 -0.5836
 4403TIP3   OH234767   6.088   5.918   0.307  0.2853  0.1961  0.3445
 4403TIP3    H134768   6.158   5.894   0.246  1.9040  1.1539  1.7241
 4403TIP3    H234769   6.122   5.891   0.393 -1.3047  0.1901  0.9957
 4404TIP3   OH234770   2.730   1.650   0.524  0.3291 -0.3389  0.1243
 4404TIP3    H134771   2.794   1.721   0.512 -0.1675  0.4390  1.7811
 4404TIP3    H234772   2.739   1.626   0.617 -0.8372 -1.1406  0.0418
 4405TIP3   OH234773   3.898   1.387   2.332 -0.1327  0.4892 -0.2672
 4405TIP3    H134774   3.868   1.465   2.378  0.8719  0.3849  0.5764
 4405TIP3    H234775   3.853   1.314   2.376  0.3769  0.4382  0.1709
 4406TIP3   OH234776   6.188   5.972   6.750 -0.6237  0.1292 -0.0062
 4406TIP3    H134777   6.103   5.941   6.781  0.2212 -0.7739  1.4938
 4406TIP3    H234778   6.214   5.909   6.684 -0.2229 -0.7682  0.9821
 4407TIP3   OH234779   4.923   3.309   2.391 -0.5850  0.1638  0.3809
 4407TIP3    H134780   4.940   3.216   2.378 -1.0352 -0.3117  2.8033
 4407TIP3    H234781   4.970   3.331   2.472  1.3669  2.6253 -1.2742
 4408TIP3   OH234782   5.399   5.643   2.240 -0.4107  0.0752  0.6222
 4408TIP3    H134783   5.420   5.596   2.159  0.8433  0.9993  0.3836
 4408TIP3    H234784   5.325   5.595   2.277  0.2888 -1.5771 -0.0244
 4409TIP3   OH234785   1.062   3.789   0.959  0.0326 -0.6700  0.1067
 4409TIP3    H134786   1.108   3.838   0.890  0.5012 -1.7379 -0.3672
 4409TIP3    H234787   0.982   3.839   0.975  0.1038 -0.1879 -0.9497
 4410TIP3   OH234788   4.027   5.796   0.031 -0.4652 -0.5788 -0.4065
 4410TIP3    H134789   3.991   5.801  -0.058  0.4769 -1.1095 -0.8297
 4410TIP3    H234790   4.062   5.707   0.037  0.6210 -0.1305  0.0439
 4411TIP3   OH234791   3.159   0.764   8.103 -0.4528  0.9887  0.1887
 4411TIP3    H134792   3.230   0.706   8.129 -1.2217  0.3670  0.9617
 4411TIP3    H234793   3.200   0.828   8.045  0.5263  0.0072 -0.2335
 4412TIP3   OH234794   3.311   2.464   1.795 -0.6094  0.1375  0.0113
 4412TIP3    H134795   3.223   2.426   1.792 -0.4919 -0.1988  0.6209
 4412TIP3    H234796   3.345   2.452   1.706 -1.0801  0.0229 -0.1549
 4413TIP3   OH234797   0.695   6.605   1.733 -0.1494 -0.0174  0.1048
 4413TIP3    H134798   0.704   6.551   1.811 -0.9573 -1.7567 -0.9510
 4413TIP3    H234799   0.699   6.543   1.660 -0.9100  1.3634 -1.1731
 4414TIP3   OH234800   0.434   2.271   0.843  0.2227  0.7951  0.7553
 4414TIP3    H134801   0.346   2.296   0.815 -0.5788 -1.1986  1.3563
 4414TIP3    H234802   0.427   2.264   0.938  0.7361 -0.4418  0.7074
 4415TIP3   OH234803   2.573   5.073   8.052 -0.3917 -0.6363 -0.4825
 4415TIP3    H134804   2.636   5.022   8.002 -0.0694 -0.7657  0.0424
 4415TIP3    H234805   2.569   5.030   8.138  2.4467  2.0916  1.2195
 4416TIP3   OH234806   4.694   1.331   0.907 -0.5853  0.1389  1.0080
 4416TIP3    H134807   4.606   1.354   0.877  0.1861  1.3826 -0.4493
 4416TIP3    H234808   4.713   1.395   0.976 -0.1657  1.0725  0.0616
 4417TIP3   OH234809   3.725   5.709   1.792 -0.9215  0.2188  0.2495
 4417TIP3    H134810   3.645   5.657   1.799 -1.3475  0.8859  0.3872
 4417TIP3    H234811   3.793   5.653   1.831 -1.4729 -0.0227  0.8878
 4418TIP3   OH234812   6.647   0.115   2.777  0.1735  0.2691  0.2906
 4418TIP3    H134813   6.716   0.172   2.809 -0.0001  0.7091 -0.0958
 4418TIP3    H234814   6.582   0.113   2.848  0.2782  0.3891  0.3899
 4419TIP3   OH234815   4.987   1.741   2.312  0.0656  0.0141  0.3448
 4419TIP3    H134816   5.053   1.772   2.250 -1.3712 -0.1179 -1.3344
 4419TIP3    H234817   5.037   1.694   2.379  1.7456  0.8471 -0.2599
 4420TIP3   OH234818   3.999   6.620   0.460  1.0091 -0.3964 -0.1422
 4420TIP3    H134819   3.981   6.657   0.373  0.1128 -0.3074  0.0764
 4420TIP3    H234820   4.070   6.674   0.494  0.1398  0.7561 -0.0866
 4421TIP3   OH234821   1.295   5.556   7.852  0.2681  0.0452 -0.5928
 4421TIP3    H134822   1.278   5.555   7.946 -0.5442  0.1590 -0.7278
 4421TIP3    H234823   1.364   5.621   7.841 -0.1727  0.6062 -0.1531
 4422TIP3   OH234824   2.863   1.429   2.186  0.4701  0.3375  0.1171
 4422TIP3    H134825   2.902   1.514   2.164  0.0568  0.5155  0.0657
 4422TIP3    H234826   2.821   1.400   2.105 -1.2235  1.0875  0.6914
 4423TIP3   OH234827   0.089   4.053   2.351  0.2810 -0.5531 -0.7723
 4423TIP3    H134828   0.123   4.114   2.416 -3.5729  0.0601  0.9135
 4423TIP3    H234829   0.083   3.969   2.398  2.0562 -1.4210 -1.9627
 4424TIP3   OH234830   2.725   6.750   0.469  0.1840 -0.2237 -0.4411
 4424TIP3    H134831   2.778   6.830   0.472  1.1248 -0.8460  0.5659
 4424TIP3    H234832   2.790   6.679   0.461 -0.6626 -0.8627 -2.2135
 4425TIP3   OH234833   1.757   2.669   7.615  0.1884 -0.2753  0.2154
 4425TIP3    H134834   1.716   2.746   7.653  2.1692  0.5179  0.8312
 4425TIP3    H234835   1.684   2.618   7.580 -1.2054  1.6193  0.2409
 4426TIP3   OH234836   5.187   5.173   7.747 -0.4228  0.4768 -0.1369
 4426TIP3    H134837   5.207   5.178   7.654 -0.2630  0.9526 -0.0758
 4426TIP3    H234838   5.272   5.153   7.789 -0.6213 -0.4700 -0.1571
 4427TIP3   OH234839   4.349   5.553   2.354 -0.2658 -0.4454 -0.0791
 4427TIP3    H134840   4.300   5.482   2.394 -0.5275 -0.4020 -0.3173
 4427TIP3    H234841   4.367   5.614   2.426  0.1535 -0.8568  0.1679
 4428TIP3   OH234842   3.791   0.817   0.430  0.1277  0.5502  0.3900
 4428TIP3    H134843   3.755   0.729   0.418 -0.3594  0.8934 -0.8061
 4428TIP3    H234844   3.716   0.876   0.417  0.4492  1.1482  1.1662
 4429TIP3   OH234845   0.990   3.976   1.273  0.2858  0.4102 -0.2851
 4429TIP3    H134846   0.979   4.071   1.283  0.8026  0.3423  1.0500
 4429TIP3    H234847   1.079   3.965   1.240 -0.1142  0.4270 -1.4078
 4430TIP3   OH234848   1.909   4.890   0.114 -0.3530  0.0715 -0.0575
 4430TIP3    H134849   1.914   4.796   0.098  0.3879  0.2743 -1.0779
 4430TIP3    H234850   1.815   4.909   0.112 -0.5161 -0.6381  0.2183
 4431TIP3   OH234851   1.610   0.568   7.091  0.2692 -0.2670 -0.0417
 4431TIP3    H134852   1.520   0.598   7.102  0.1545 -0.2288 -1.0030
 4431TIP3    H234853   1.645   0.562   7.180 -0.2899  0.9410  0.2738
 4432TIP3   OH234854   3.291   6.454   0.900 -0.0534 -0.1318  0.4184
 4432TIP3    H134855   3.301   6.547   0.879  0.9171 -0.6302 -1.6575
 4432TIP3    H234856   3.341   6.442   0.980 -0.5571  1.2116  0.9655
 4433TIP3   OH234857   0.211   5.433   2.677 -0.1388 -0.0017 -0.0502
 4433TIP3    H134858   0.155   5.375   2.727  1.2975 -1.4324 -0.0266
 4433TIP3    H234859   0.269   5.375   2.628  2.4977  1.3396  1.2355
 4434TIP3   OH234860   1.505   0.534   0.440  0.1369 -0.5208  0.0911
 4434TIP3    H134861   1.414   0.524   0.468  0.0365  0.5559  0.1845
 4434TIP3    H234862   1.501   0.543   0.345  0.2182 -1.2284  0.0169
 4435TIP3   OH234863   2.351   2.447   2.890 -0.4444  0.1288  0.1335
 4435TIP3    H134864   2.328   2.358   2.917 -3.1984  0.5948 -0.3826
 4435TIP3    H234865   2.412   2.477   2.957  0.5673 -2.1219  0.3072
 4436TIP3   OH234866   3.836   2.539   2.675 -0.0449 -0.3558 -0.4830
 4436TIP3    H134867   3.851   2.612   2.735  0.3300 -0.5511 -0.3374
 4436TIP3    H234868   3.908   2.478   2.693 -0.3997 -0.7978 -0.5459
 4437TIP3   OH234869   4.341   6.576   0.488 -0.2062  0.0219  0.3345
 4437TIP3    H134870   4.405   6.512   0.459  0.2262 -1.1009  3.3700
 4437TIP3    H234871   4.257   6.540   0.459  0.2233 -0.6489 -0.1100
 4438TIP3   OH234872   5.668   6.845   0.155 -0.2603  0.4988 -0.3141
 4438TIP3    H134873   5.715   6.821   0.234  0.3052  2.8578  0.1584
 4438TIP3    H234874   5.576   6.828   0.175 -0.2688  2.1600  1.3729
 4439TIP3   OH234875   6.908   3.590   2.169 -0.3766  0.2137 -0.2191
 4439TIP3    H134876   6.945   3.647   2.102  1.3393  0.9159  1.2620
 4439TIP3    H234877   6.833   3.638   2.204  0.1516  0.8939 -0.0183
 4440TIP3   OH234878   1.942   5.592   7.271  0.5382  0.2381 -0.1927
 4440TIP3    H134879   1.994   5.558   7.344  1.7732 -0.8214 -1.5034
 4440TIP3    H234880   1.880   5.522   7.252  0.9866  0.0118 -0.8727
 4441TIP3   OH234881   3.246   4.894   0.475  0.5260  1.0099  0.2476
 4441TIP3    H134882   3.291   4.810   0.461  0.1564  0.9928 -1.0001
 4441TIP3    H234883   3.153   4.872   0.469  0.4005  1.3464  0.9468
 4442TIP3   OH234884   6.630   2.126   2.217 -0.2953  0.7153 -0.7919
 4442TIP3    H134885   6.651   2.072   2.141  2.4380  0.6856 -0.1200
 4442TIP3    H234886   6.573   2.195   2.182  0.1914  0.2189 -2.6863
 4443TIP3   OH234887   3.450   3.240   1.952 -0.5065  0.2510  0.5234
 4443TIP3    H134888   3.473   3.298   2.025 -0.3893  0.8995 -0.0134
 4443TIP3    H234889   3.532   3.196   1.930 -0.6849 -0.4498  1.2015
 4444TIP3   OH234890   2.981   4.482   3.379 -0.6734 -0.0003  0.4066
 4444TIP3    H134891   2.993   4.446   3.290  0.1829  2.3599 -0.5008
 4444TIP3    H234892   3.006   4.410   3.437  0.7962 -0.9578 -1.2902
 4445TIP3   OH234893   1.373   5.908   7.388  0.2470  0.1095  0.2481
 4445TIP3    H134894   1.379   5.812   7.389  0.1588  0.1053  0.7929
 4445TIP3    H234895   1.425   5.934   7.312  1.4099 -0.3071  0.8630
 4446TIP3   OH234896   6.283   1.358   1.583  0.1296 -0.7836  0.3523
 4446TIP3    H134897   6.290   1.290   1.516 -2.3034 -1.6985  0.9347
 4446TIP3    H234898   6.241   1.316   1.657 -0.5866  1.1136  1.0936
 4447TIP3   OH234899   1.996   0.017   7.512 -0.2830  0.4239  0.4742
 4447TIP3    H134900   1.931   0.067   7.462 -0.4337  1.3471  1.5362
 4447TIP3    H234901   1.980  -0.074   7.489 -1.1217  0.7402 -0.2408
 4448TIP3   OH234902   6.002   2.201   0.290 -0.2594  0.1670  0.2325
 4448TIP3    H134903   5.966   2.112   0.295 -0.0859  0.1220  0.7645
 4448TIP3    H234904   6.009   2.229   0.382  1.3663  0.0580  0.1567
 4449TIP3   OH234905   4.536   1.863   2.273 -0.5267  0.1893  0.3742
 4449TIP3    H134906   4.610   1.880   2.331  0.1293 -1.2532  0.0168
 4449TIP3    H234907   4.541   1.769   2.255 -2.4561  0.0586  0.3262
 4450TIP3   OH234908   6.725   4.233   2.073  0.3227 -0.5020  0.3593
 4450TIP3    H134909   6.771   4.317   2.068  1.1453 -1.0263 -2.5616
 4450TIP3    H234910   6.795   4.168   2.080 -0.0707 -1.1386 -1.2725
 4451TIP3   OH234911   2.824   4.771   0.472  0.1746 -0.0980  0.3001
 4451TIP3    H134912   2.757   4.755   0.539  0.6383 -0.8414  0.6045
 4451TIP3    H234913   2.859   4.684   0.452  0.7608  0.2337 -0.1583
 4452TIP3   OH234914   0.432   2.115   8.023  0.2724  0.5642 -0.2201
 4452TIP3    H134915   0.454   2.176   8.093  1.6666 -0.1479  0.0035
 4452TIP3    H234916   0.376   2.049   8.065  1.6594 -0.2368  0.4236
 4453TIP3   OH234917   3.725   1.626   0.052  0.3983 -0.1454 -0.5225
 4453TIP3    H134918   3.760   1.540   0.029  1.6082  0.3077 -0.4495
 4453TIP3    H234919   3.667   1.608   0.126 -0.5941 -1.0959 -1.4958
 4454TIP3   OH234920   1.362   4.769   7.733 -0.1246  0.2166  0.4760
 4454TIP3    H134921   1.395   4.753   7.645  1.1102 -0.5327  1.0502
 4454TIP3    H234922   1.279   4.815   7.720 -0.3829 -0.6405 -1.0913
 4455TIP3   OH234923   2.011   6.734   2.721 -0.2072 -0.0635  0.1030
 4455TIP3    H134924   2.037   6.702   2.807  0.8370 -0.3346 -0.2981
 4455TIP3    H234925   1.930   6.783   2.737  0.5586  0.8410  1.4137
 4456TIP3   OH234926   2.169   4.927   2.078  0.3626 -0.7056 -0.1318
 4456TIP3    H134927   2.263   4.931   2.059  0.3316  1.4136 -0.0756
 4456TIP3    H234928   2.131   4.886   2.000  1.2232 -0.5620 -0.6435
 4457TIP3   OH234929   2.820   0.483   0.719  0.1405  0.1378 -0.2773
 4457TIP3    H134930   2.858   0.570   0.707  2.9507 -0.9143  0.1893
 4457TIP3    H234931   2.804   0.476   0.813 -2.4116  0.9546 -0.5802
 4458TIP3   OH234932   2.089   1.552   0.317 -0.7333  0.2917 -0.1986
 4458TIP3    H134933   2.113   1.507   0.236  0.1385  1.1647 -0.4456
 4458TIP3    H234934   2.160   1.534   0.377 -1.8771 -1.2388  0.7805
 4459TIP3   OH234935   3.582   6.352   7.435  0.3423 -0.2989 -0.3499
 4459TIP3    H134936   3.585   6.394   7.521  0.7110  0.3393 -0.6712
 4459TIP3    H234937   3.502   6.299   7.437  0.6404 -0.7196  0.5812
 4460TIP3   OH234938   2.207   5.845   0.321  0.4181  0.2269 -0.8560
 4460TIP3    H134939   2.197   5.794   0.240  0.0578 -0.2119 -0.5390
 4460TIP3    H234940   2.240   5.782   0.385 -0.0244  0.3882 -0.4622
 4461TIP3   OH234941   5.613   2.631   7.637 -0.3307  0.1386  0.2549
 4461TIP3    H134942   5.641   2.631   7.545 -1.0054  2.5949 -0.0293
 4461TIP3    H234943   5.668   2.565   7.679  1.3095  0.2636 -1.5524
 4462TIP3   OH234944   5.752   5.834   2.540 -0.0003 -0.4028  0.2133
 4462TIP3    H134945   5.716   5.905   2.488  0.8659  0.1154  0.3035
 4462TIP3    H234946   5.845   5.830   2.515  0.0864 -1.1330  0.6099
 4463TIP3   OH234947   0.758   4.741   2.371 -0.7639  0.3858  0.1114
 4463TIP3    H134948   0.766   4.777   2.282  1.2363  2.3545  0.9874
 4463TIP3    H234949   0.797   4.654   2.366 -0.7876  0.4232 -0.9586
 4464TIP3   OH234950   5.829   2.541   0.524 -0.1004 -0.2794 -0.1285
 4464TIP3    H134951   5.755   2.550   0.464 -1.3903  1.2547  1.6234
 4464TIP3    H234952   5.807   2.465   0.577 -0.7932  0.5872  0.8530
 4465TIP3   OH234953   3.896   0.394   2.805 -0.2316  0.4062 -0.2101
 4465TIP3    H134954   3.868   0.472   2.854  0.2204 -0.0101  0.7288
 4465TIP3    H234955   3.941   0.430   2.728 -0.1033  1.0785  0.1662
 4466TIP3   OH234956   0.379   3.830   2.439  0.0240 -0.0197 -0.3778
 4466TIP3    H134957   0.354   3.859   2.527 -2.5572  1.2214 -1.3999
 4466TIP3    H234958   0.325   3.752   2.424 -2.0859  1.6057 -1.9374
 4467TIP3   OH234959   1.719   5.626   1.406 -0.0827 -0.0713  0.2247
 4467TIP3    H134960   1.714   5.605   1.313 -0.5989 -2.5721  0.7442
 4467TIP3    H234961   1.641   5.680   1.423 -0.0331  0.3224 -0.7464
 4468TIP3   OH234962   1.562   3.531   2.045  0.3667  0.5510  0.0021
 4468TIP3    H134963   1.618   3.592   2.093 -1.2595  1.9316  0.2374
 4468TIP3    H234964   1.479   3.532   2.093 -0.3293 -0.3454 -1.1312
 4469TIP3   OH234965   4.717   6.212   2.967 -0.2094 -0.6813 -0.0628
 4469TIP3    H134966   4.715   6.155   3.044 -3.7279 -0.4530  0.1649
 4469TIP3    H234967   4.725   6.152   2.893 -1.3182 -1.2854  0.2966
 4470TIP3   OH234968   0.132   3.065   8.324  0.0243 -0.5730  0.7452
 4470TIP3    H134969   0.124   3.158   8.343 -2.2537 -0.9355  1.9472
 4470TIP3    H234970   0.060   3.045   8.265  0.5755 -1.5547  0.3688
 4471TIP3   OH234971   0.088   6.315   8.150  0.6969 -0.1885  0.1086
 4471TIP3    H134972   0.120   6.286   8.235  0.9503  1.2183  0.5044
 4471TIP3    H234973   0.149   6.277   8.087  0.2422 -1.6240  0.4882
 4472TIP3   OH234974   3.206   2.858   0.726 -0.3032  0.2946 -0.0118
 4472TIP3    H134975   3.199   2.821   0.638  1.4864  1.7787 -0.8552
 4472TIP3    H234976   3.298   2.881   0.735 -0.8457  2.1956  1.3910
 4473TIP3   OH234977   5.172   1.028   7.985  0.0824  0.0618  0.2444
 4473TIP3    H134978   5.080   1.054   7.976  0.4529  0.6696 -4.0627
 4473TIP3    H234979   5.216   1.106   8.016 -0.2482  1.7200 -2.9824
 4474TIP3   OH234980   3.945   4.154   0.824 -0.1627 -0.0151 -0.7174
 4474TIP3    H134981   4.008   4.181   0.892 -0.8884 -0.6575  0.2418
 4474TIP3    H234982   3.963   4.061   0.810 -1.2505 -0.3561 -0.0099
 4475TIP3   OH234983   1.151   0.386   2.207 -0.1133  0.0311 -0.3440
 4475TIP3    H134984   1.145   0.395   2.112  0.8260 -0.3133 -0.4517
 4475TIP3    H234985   1.215   0.452   2.233 -0.7961  0.5147  0.1268
 4476TIP3   OH234986   1.302   0.545   7.766 -0.3100 -0.0819 -0.1503
 4476TIP3    H134987   1.370   0.484   7.793 -0.8016  0.6095  2.9778
 4476TIP3    H234988   1.343   0.632   7.774 -0.0492  0.2092 -3.2354
 4477TIP3   OH234989   4.322   3.483   7.715 -0.3258 -0.0269 -0.2451
 4477TIP3    H134990   4.259   3.493   7.643  0.1392 -0.5452 -0.7320
 4477TIP3    H234991   4.313   3.564   7.766 -0.3685  0.5275 -1.1141
 4478TIP3   OH234992   0.799   0.344   0.435 -0.1854 -0.1692 -0.6975
 4478TIP3    H134993   0.791   0.289   0.513  1.4274 -1.6087 -1.4659
 4478TIP3    H234994   0.718   0.330   0.387 -1.0707  0.5022  0.5482
 4479TIP3   OH234995   3.868   6.594   1.992  0.9471  0.6537 -0.0300
 4479TIP3    H134996   3.951   6.613   2.037  1.4156 -0.4206 -0.4003
 4479TIP3    H234997   3.892   6.593   1.900  0.9778 -1.6281 -0.0466
 4480TIP3   OH234998   2.074   0.548   1.141  0.6390  0.2579 -0.1691
 4480TIP3    H134999   1.983   0.534   1.115  0.9721 -1.0306 -0.7049
 4480TIP3    H235000   2.088   0.642   1.129 -0.7083  0.5403  0.2501
 4481TIP3   OH235001   5.934   1.369   0.595  0.7052 -0.2358  0.3700
 4481TIP3    H135002   5.876   1.435   0.634  0.3680  0.8805 -1.8145
 4481TIP3    H235003   5.874   1.304   0.558  0.8704  0.0190 -0.3795
 4482TIP3   OH235004   5.186   3.329   2.853 -0.2845 -0.0456 -0.6643
 4482TIP3    H135005   5.092   3.312   2.848  0.0342 -1.6544 -1.8745
 4482TIP3    H235006   5.205   3.328   2.947 -1.3470 -0.4201 -0.4376
 4483TIP3   OH235007   4.564   4.495   7.303 -0.2869  0.2556  0.6502
 4483TIP3    H135008   4.638   4.532   7.352 -1.2416  0.4112  2.0243
 4483TIP3    H235009   4.487   4.527   7.349 -1.1837 -1.4407  0.3920
 4484TIP3   OH235010   2.155   1.588   8.124 -0.0759 -0.6603 -0.7234
 4484TIP3    H135011   2.167   1.676   8.087  1.7116 -1.0726 -1.2214
 4484TIP3    H235012   2.223   1.536   8.083  1.2335 -1.4460  2.2265
 4485TIP3   OH235013   5.420   2.364   1.913 -0.4154 -0.5323 -0.3495
 4485TIP3    H135014   5.466   2.318   1.843 -0.2315  0.9096 -1.2281
 4485TIP3    H235015   5.328   2.361   1.886 -0.2327  0.9031 -1.2255
 4486TIP3   OH235016   3.451   2.482   0.973  0.1823  0.0995  0.0850
 4486TIP3    H135017   3.536   2.444   0.951  1.2519  2.1353  0.5393
 4486TIP3    H235018   3.424   2.529   0.894  1.9227  3.6493  1.4116
 4487TIP3   OH235019   1.335   3.754   2.038 -0.0347  0.4379 -0.0870
 4487TIP3    H135020   1.339   3.844   2.068 -0.4939 -0.3400  2.5946
 4487TIP3    H235021   1.279   3.756   1.960  0.9752  2.5799 -0.8199
 4488TIP3   OH235022   3.965   6.940   2.702 -0.1782  0.0617 -0.5885
 4488TIP3    H135023   4.049   6.979   2.679  0.3580  0.7802  2.2610
 4488TIP3    H235024   3.975   6.847   2.683  1.4956  0.0441  0.2355
 4489TIP3   OH235025   2.321   2.767   0.295 -0.3225  0.3725  0.5208
 4489TIP3    H135026   2.228   2.786   0.308 -0.2972  0.0643  1.1940
 4489TIP3    H235027   2.346   2.715   0.371  0.1632 -0.4082 -0.1552
 4490TIP3   OH235028   2.209   1.209   2.841 -0.1965 -0.3060  0.9132
 4490TIP3    H135029   2.236   1.274   2.905 -0.4400 -0.0588  0.7712
 4490TIP3    H235030   2.289   1.160   2.820  0.8097  2.0501 -1.3981
 4491TIP3   OH235031   4.116   6.522   1.953 -0.1762 -0.2475 -0.4370
 4491TIP3    H135032   4.187   6.543   2.015  0.0641 -0.3329 -0.6828
 4491TIP3    H235033   4.122   6.590   1.887  0.1434 -0.6699 -0.8484
 4492TIP3   OH235034   4.539   0.937   0.351 -0.1246  0.0018 -0.2516
 4492TIP3    H135035   4.450   0.972   0.360 -0.4774 -0.8799 -0.1734
 4492TIP3    H235036   4.526   0.846   0.323  0.7014 -0.6025  1.2006
 4493TIP3   OH235037   2.193   3.104   2.808  0.1722 -0.5693 -0.1965
 4493TIP3    H135038   2.150   3.183   2.776  0.5945 -0.8235 -1.4276
 4493TIP3    H235039   2.257   3.082   2.741  0.2610 -1.7995  0.2600
 4494TIP3   OH235040   3.575   0.007   7.549 -0.2693 -0.2066  0.4980
 4494TIP3    H135041   3.548  -0.068   7.496  0.1040 -0.1656  0.2384
 4494TIP3    H235042   3.645   0.048   7.498 -2.0312  1.7025 -0.4820
 4495TIP3   OH235043   5.386   1.593   2.497 -0.5053 -0.1744 -0.1122
 4495TIP3    H135044   5.443   1.559   2.566  0.0728  0.6975 -0.1511
 4495TIP3    H235045   5.424   1.678   2.475 -0.0607 -0.8748 -2.2236
 4496TIP3   OH235046   1.521   0.460   1.423 -0.0520  0.4714  0.1035
 4496TIP3    H135047   1.559   0.537   1.466 -1.3008  1.5401 -0.6144
 4496TIP3    H235048   1.577   0.444   1.348  2.2873 -1.5506  2.1091
 4497TIP3   OH235049   1.349   2.305   1.771  0.0870 -0.1748 -0.2211
 4497TIP3    H135050   1.363   2.285   1.864 -1.0689 -0.0677 -0.0130
 4497TIP3    H235051   1.259   2.337   1.767  0.8752  2.0865 -1.0124
 4498TIP3   OH235052   5.941   5.054   1.189 -0.6625  0.3785 -0.4085
 4498TIP3    H135053   5.966   5.109   1.115  3.0383 -1.9973 -1.2177
 4498TIP3    H235054   6.008   5.073   1.256 -0.3037 -1.7873 -0.0749
 4499TIP3   OH235055   0.187   0.832   0.590  0.3216  0.1994 -0.0359
 4499TIP3    H135056   0.259   0.781   0.552 -0.1642 -0.4320 -0.1286
 4499TIP3    H235057   0.124   0.841   0.517 -0.6961 -1.1579  0.6125
 4500TIP3   OH235058   1.688   4.099   3.241  0.0863 -0.0188 -0.2007
 4500TIP3    H135059   1.608   4.059   3.206 -0.3371  0.4441  0.2131
 4500TIP3    H235060   1.755   4.031   3.232 -0.6598 -0.8864  0.6471
 4501TIP3   OH235061   5.667   4.476   2.526  0.4780  0.2336  0.2463
 4501TIP3    H135062   5.689   4.384   2.543 -0.1318 -0.1448 -0.9349
 4501TIP3    H235063   5.751   4.519   2.514  0.7218 -0.5437 -0.9725
 4502TIP3   OH235064   6.504   0.022   2.982  0.8422 -0.1831 -0.1787
 4502TIP3    H135065   6.410   0.039   2.981  0.9056  0.1848  0.1470
 4502TIP3    H235066   6.522  -0.014   3.069  1.4319  2.2752  0.7999
 4503TIP3   OH235067   4.980   1.589   0.637  0.2574 -0.0705  0.0041
 4503TIP3    H135068   4.999   1.517   0.578  1.8072  0.0851  0.2761
 4503TIP3    H235069   5.029   1.664   0.602  1.2021  0.0263  1.4313
 4504TIP3   OH235070   4.932   3.037   2.161  0.3728  0.2889  0.5263
 4504TIP3    H135071   4.882   2.961   2.193  0.0621  0.3595  0.2142
 4504TIP3    H235072   4.957   3.013   2.072  0.2080  0.5846  0.4007
 4505TIP3   OH235073   3.544   5.857   6.785  0.2268  0.3368 -0.2750
 4505TIP3    H135074   3.500   5.823   6.862  1.6514  2.2169  1.4595
 4505TIP3    H235075   3.481   5.917   6.745 -1.1785 -1.9145 -1.6956
 4506TIP3   OH235076   5.913   2.827   7.708  0.8921 -0.5905  0.1591
 4506TIP3    H135077   5.966   2.805   7.632 -1.2518 -1.3417 -1.2211
 4506TIP3    H235078   5.898   2.922   7.700  1.3971 -0.5096  0.1468
 4507TIP3   OH235079   3.988   1.920   1.333  0.0585  0.4372  0.0451
 4507TIP3    H135080   3.926   1.875   1.275 -0.1328 -0.5264  0.9525
 4507TIP3    H235081   4.033   1.982   1.277  0.3578 -0.9290 -1.2941
 4508TIP3   OH235082   2.001   5.244   3.265 -0.1664 -0.4912 -0.9931
 4508TIP3    H135083   1.953   5.175   3.311  0.1416 -0.0628 -0.0206
 4508TIP3    H235084   1.934   5.292   3.217 -0.6346 -0.3190 -0.1871
 4509TIP3   OH235085   4.029   6.420   7.753  0.1388  0.3242 -0.5839
 4509TIP3    H135086   4.090   6.350   7.729  0.7408  0.8369 -0.5792
 4509TIP3    H235087   4.075   6.501   7.729 -0.3424  0.7373 -0.1286
 4510TIP3   OH235088   6.022   1.367   1.134 -0.0505  0.6136 -0.0295
 4510TIP3    H135089   5.948   1.417   1.169 -0.2707  1.6236 -1.7885
 4510TIP3    H235090   6.005   1.363   1.040  0.5248 -1.9214 -0.0976
 4511TIP3   OH235091   5.177   6.544   1.483  0.4800 -0.0589  0.5733
 4511TIP3    H135092   5.206   6.551   1.574  1.4571  1.8063  0.1654
 4511TIP3    H235093   5.107   6.609   1.474 -0.4075 -1.0219  0.2551
 4512TIP3   OH235094   6.915   2.751   2.177 -0.1235  0.1763 -0.3892
 4512TIP3    H135095   6.829   2.792   2.178  0.1360  0.7897  1.4239
 4512TIP3    H235096   6.898   2.657   2.188 -0.6018  0.1048 -1.6377
 4513TIP3   OH235097   6.214   4.645   1.823 -0.4935  0.1141  0.5185
 4513TIP3    H135098   6.128   4.604   1.826 -0.6762  0.5201  1.2256
 4513TIP3    H235099   6.236   4.649   1.730 -0.2414 -2.0163  0.4364
 4514TIP3   OH235100   2.148   6.879   2.537 -0.4488  0.3058  0.3493
 4514TIP3    H135101   2.238   6.871   2.569 -0.4148 -0.9646 -0.0171
 4514TIP3    H235102   2.100   6.809   2.582 -1.4586  1.4716  1.1651
 4515TIP3   OH235103   4.957   6.028   0.938  0.0410  0.1768  0.4013
 4515TIP3    H135104   4.947   6.124   0.939 -0.1255  0.1653  1.4991
 4515TIP3    H235105   4.927   6.001   1.025 -1.2758 -1.0223 -0.3778
 4516TIP3   OH235106   0.352   2.885   8.256 -0.5755 -0.4564 -0.6195
 4516TIP3    H135107   0.391   2.930   8.182 -1.2069  0.9376 -0.1358
 4516TIP3    H235108   0.284   2.945   8.288 -1.0862 -1.5214  0.3826
 4517TIP3   OH235109   3.326   1.553   1.868  0.4708 -0.8240  0.1840
 4517TIP3    H135110   3.376   1.590   1.795 -1.6620 -0.7148 -1.3135
 4517TIP3    H235111   3.287   1.473   1.832  0.9534 -1.8466  1.8381
 4518TIP3   OH235112   5.920   0.153   7.963  0.4573 -0.1499  0.1788
 4518TIP3    H135113   5.864   0.142   7.887  1.9389  2.2924 -1.4156
 4518TIP3    H235114   5.908   0.244   7.989  2.2038 -0.1081  1.0000
 4519TIP3   OH235115   3.336   5.310   8.332 -0.2495 -0.3719 -0.8782
 4519TIP3    H135116   3.309   5.373   8.399  0.0955  0.5696 -1.6092
 4519TIP3    H235117   3.291   5.338   8.252 -0.3548 -1.2520 -1.1439
 4520TIP3   OH235118   3.170   0.719   0.901 -0.2357 -0.4114 -0.1253
 4520TIP3    H135119   3.206   0.649   0.956  0.7960  0.6463  0.5991
 4520TIP3    H235120   3.244   0.749   0.848 -0.7044  0.0162 -0.5540
 4521TIP3   OH235121   5.631   5.322   2.573  0.9590 -0.1390  0.1361
 4521TIP3    H135122   5.570   5.364   2.511 -0.7506 -1.6219  0.7320
 4521TIP3    H235123   5.710   5.376   2.569  0.6990  0.2028 -2.8621
 4522TIP3   OH235124   5.516   0.554   2.640  0.3194  0.3951  0.2290
 4522TIP3    H135125   5.489   0.529   2.728  1.0973 -0.4129  0.2482
 4522TIP3    H235126   5.593   0.610   2.653  2.3330 -2.1705  0.0100
 4523TIP3   OH235127   2.759   0.376   0.099 -0.3777  0.0227 -0.4056
 4523TIP3    H135128   2.698   0.354   0.030  0.6262  0.7633 -1.5690
 4523TIP3    H235129   2.751   0.471   0.110 -1.8774 -0.2820  1.8519
 4524TIP3   OH235130   2.478   6.793   1.911  0.6425 -0.4377  0.2923
 4524TIP3    H135131   2.480   6.763   2.002  0.6584  1.8656  1.1241
 4524TIP3    H235132   2.529   6.874   1.912 -0.1780  0.1511 -1.5662
 4525TIP3   OH235133   4.468   4.509   0.915  0.1011 -0.5094  0.2533
 4525TIP3    H135134   4.474   4.543   0.826  1.1309 -1.6302 -0.1326
 4525TIP3    H235135   4.395   4.557   0.954 -0.8513 -0.5031 -1.4204
 4526TIP3   OH235136   6.300   6.767   1.362 -0.2223 -0.8111  0.6140
 4526TIP3    H135137   6.323   6.708   1.434 -1.7685 -0.9336  1.0443
 4526TIP3    H235138   6.319   6.855   1.397 -1.2418 -0.8502  1.3081
 4527TIP3   OH235139   0.263   6.142   1.111 -0.3907  0.3562 -0.8570
 4527TIP3    H135140   0.254   6.047   1.114  0.4086  0.2915  0.6479
 4527TIP3    H235141   0.174   6.175   1.099 -1.2043 -0.5053  2.1094
 4528TIP3   OH235142   4.893   6.686   6.611 -0.2070  0.2931 -0.0623
 4528TIP3    H135143   4.818   6.657   6.560 -0.0915 -0.7165  0.3257
 4528TIP3    H235144   4.874   6.778   6.630 -0.8992  0.3039 -0.7518
 4529TIP3   OH235145   3.651   0.822   2.235  0.2120  0.1836 -0.0930
 4529TIP3    H135146   3.731   0.783   2.270  1.6689  1.1911 -2.1034
 4529TIP3    H235147   3.627   0.765   2.162 -0.6399  0.1876  0.1703
 4530TIP3   OH235148   0.419   0.213   1.267  0.0336  0.3045 -0.2930
 4530TIP3    H135149   0.324   0.210   1.252 -0.2637  1.8121  1.0254
 4530TIP3    H235150   0.432   0.288   1.325  1.7622 -1.3011  1.5563
 4531TIP3   OH235151   1.702   3.744   2.107  0.3458  0.1217  0.1933
 4531TIP3    H135152   1.643   3.786   2.170 -2.8022 -3.1197 -0.2705
 4531TIP3    H235153   1.670   3.773   2.022 -0.9087 -1.8219 -0.0682
 4532TIP3   OH235154   1.653   5.955   0.053  0.3526  0.6974  0.1700
 4532TIP3    H135155   1.573   6.005   0.070  0.3300  1.0457 -0.8924
 4532TIP3    H235156   1.719   5.995   0.110 -0.3461  0.0254  1.5062
 4533TIP3   OH235157   2.898   2.332   0.904  0.5454  0.2071 -0.0395
 4533TIP3    H135158   2.897   2.238   0.891  1.3136 -0.0616  1.5887
 4533TIP3    H235159   2.950   2.345   0.983  1.4234  2.0929 -0.8585
 4534TIP3   OH235160   4.989   3.804   2.491  0.0754 -0.2166  0.1435
 4534TIP3    H135161   5.005   3.810   2.585  1.1344 -2.7079  0.1859
 4534TIP3    H235162   4.918   3.741   2.482  0.1462 -0.1868 -0.7273
 4535TIP3   OH235163   5.674   3.794   0.992 -0.3219  0.3686  0.3086
 4535TIP3    H135164   5.640   3.783   1.081  0.3258  0.2096  0.5387
 4535TIP3    H235165   5.669   3.706   0.954 -0.9084  0.4974  0.0658
 4536TIP3   OH235166   0.651   1.698   7.884 -0.0571  0.2565  0.0672
 4536TIP3    H135167   0.647   1.703   7.788  0.0657 -0.1035  0.0410
 4536TIP3    H235168   0.742   1.719   7.906  1.0205 -3.4879 -0.1792
 4537TIP3   OH235169   5.231   6.111   2.262  0.2383 -0.1656  0.4232
 4537TIP3    H135170   5.264   6.184   2.313  0.9164  1.0655 -1.6626
 4537TIP3    H235171   5.230   6.037   2.323  0.7120  1.2769  2.2489
 4538TIP3   OH235172   4.274   2.400   7.810 -0.1550  0.2925 -0.5815
 4538TIP3    H135173   4.367   2.396   7.788 -0.0431 -0.7043  0.0505
 4538TIP3    H235174   4.229   2.374   7.729  0.1621 -0.4816 -0.5132
 4539TIP3   OH235175   0.090   6.341   2.235 -0.0130 -0.3519 -0.3802
 4539TIP3    H135176   0.130   6.258   2.209 -1.2741 -0.3581 -2.5719
 4539TIP3    H235177   0.020   6.354   2.172 -1.8579  0.8979  1.7821
 4540TIP3   OH235178   5.636   0.432   1.342  0.0873 -0.3299  0.1679
 4540TIP3    H135179   5.550   0.390   1.341 -0.7242  1.2544 -0.1531
 4540TIP3    H235180   5.694   0.370   1.297 -0.7448 -1.6487  0.8387
 4541TIP3   OH235181   6.714   5.213   3.370 -0.4194  0.5469 -0.3194
 4541TIP3    H135182   6.666   5.291   3.399  0.3414  0.9421 -0.0970
 4541TIP3    H235183   6.646   5.154   3.337 -0.9299  1.7384 -1.5144
 4542TIP3   OH235184   2.443   4.003   7.614  0.1894  0.4723  0.4760
 4542TIP3    H135185   2.530   3.995   7.652  0.0666 -0.1838  0.6331
 4542TIP3    H235186   2.440   3.937   7.546 -0.4564 -0.0633  1.0095
 4543TIP3   OH235187   6.599   6.193   0.551  0.0498  0.5045 -0.8337
 4543TIP3    H135188   6.692   6.173   0.559 -0.1220 -0.8241 -1.7779
 4543TIP3    H235189   6.555   6.108   0.556 -1.1067  1.0841 -0.6342
 4544TIP3   OH235190   1.175   2.888   3.066 -0.1351 -0.2703 -0.8493
 4544TIP3    H135191   1.156   2.982   3.074 -1.7583 -0.5085 -1.3863
 4544TIP3    H235192   1.197   2.860   3.155  0.7067  0.6790 -0.7449
 4545TIP3   OH235193   0.179   4.894   2.126  0.0131  0.2258 -0.6062
 4545TIP3    H135194   0.109   4.939   2.079 -1.4787 -0.6634  0.6433
 4545TIP3    H235195   0.151   4.897   2.218  0.7357 -1.6769 -0.2808
 4546TIP3   OH235196   4.563   3.448   1.787 -0.2154  0.5006 -0.4334
 4546TIP3    H135197   4.473   3.472   1.767 -0.7377  0.6215  1.8152
 4546TIP3    H235198   4.567   3.447   1.882  1.5862 -1.6452 -0.4384
 4547TIP3   OH235199   3.051   5.285   0.163  0.2780  0.5966 -0.0470
 4547TIP3    H135200   3.003   5.295   0.245  0.4431 -0.7341  0.2257
 4547TIP3    H235201   3.033   5.195   0.135  1.7582  0.4114 -0.4784
 4548TIP3   OH235202   5.907   4.730   7.603  0.2699  0.2250  0.3169
 4548TIP3    H135203   5.822   4.771   7.586  0.5064  0.5745 -0.0266
 4548TIP3    H235204   5.952   4.732   7.519  0.7224  0.2740  0.5581
 4549TIP3   OH235205   2.479   4.499   0.339 -0.0438  0.1754  0.1021
 4549TIP3    H135206   2.571   4.474   0.329  0.1467  1.0501 -0.4358
 4549TIP3    H235207   2.479   4.560   0.412  0.0146  1.1862 -0.7204
 4550TIP3   OH235208   1.714   0.940   7.968 -0.2364 -0.2583 -0.0893
 4550TIP3    H135209   1.761   0.864   8.003 -0.3400 -0.8435 -1.1691
 4550TIP3    H235210   1.742   1.012   8.024  1.5361 -0.6912 -0.3353
 4551TIP3   OH235211   6.597   2.323   0.852 -0.5930 -0.7336  0.2064
 4551TIP3    H135212   6.591   2.329   0.947  0.4539 -0.9637  0.3014
 4551TIP3    H235213   6.628   2.234   0.836  0.3378 -0.3322 -0.2882
 4552TIP3   OH235214   1.912   3.894   1.936 -0.0768  0.1943 -0.1985
 4552TIP3    H135215   2.007   3.900   1.931  0.3014 -2.2040  2.0807
 4552TIP3    H235216   1.890   3.813   1.889 -0.8102 -0.0620  0.5547
 4553TIP3   OH235217   3.803   0.447   8.138  0.7724 -0.4248 -0.5425
 4553TIP3    H135218   3.858   0.370   8.154  0.5686 -0.8889 -1.9597
 4553TIP3    H235219   3.838   0.513   8.197  0.4228 -1.8255  1.3454
 4554TIP3   OH235220   2.817   0.974   7.420 -0.1910 -0.0983 -0.0673
 4554TIP3    H135221   2.849   1.065   7.414 -0.1708  0.1996  2.9221
 4554TIP3    H235222   2.894   0.921   7.401  0.6040  0.5693  1.1805
 4555TIP3   OH235223   5.163   0.008   2.617 -0.0082  0.6886 -0.1038
 4555TIP3    H135224   5.133   0.012   2.526  0.4494 -0.2419 -0.3106
 4555TIP3    H235225   5.084  -0.008   2.668 -0.1789  0.5719 -0.4028
 4556TIP3   OH235226   3.783   1.831   1.123 -0.1076  0.3647  0.5397
 4556TIP3    H135227   3.693   1.823   1.091  0.0459 -1.4004  0.4695
 4556TIP3    H235228   3.784   1.782   1.206  0.9730 -0.3225  0.1374
 4557TIP3   OH235229   0.469   1.072   0.683 -0.2704 -0.5842  0.0067
 4557TIP3    H135230   0.522   1.004   0.641  0.3562 -0.4514  0.5705
 4557TIP3    H235231   0.391   1.026   0.714 -0.7688 -0.6862 -1.3090
 4558TIP3   OH235232   3.628   5.879   1.580 -0.1869  0.4046  0.4348
 4558TIP3    H135233   3.693   5.943   1.552  0.2286 -0.1523  0.0893
 4558TIP3    H235234   3.677   5.817   1.635 -0.2754 -0.3649 -0.3220
 4559TIP3   OH235235   4.599   4.901   3.111  0.1824 -0.1839 -0.1284
 4559TIP3    H135236   4.611   4.980   3.162 -0.5081 -0.3515  0.3015
 4559TIP3    H235237   4.686   4.860   3.109  0.6077  0.7229 -0.6071
 4560TIP3   OH235238   6.517   5.699   1.522  0.1201 -0.5993 -0.2435
 4560TIP3    H135239   6.435   5.684   1.474 -0.6156 -0.9353  1.0450
 4560TIP3    H235240   6.516   5.793   1.541 -1.3756 -0.9983  2.0793
 4561TIP3   OH235241   0.492   5.198   1.433 -0.1065 -0.3887  0.3124
 4561TIP3    H135242   0.477   5.261   1.363 -0.3182 -1.1436 -0.3306
 4561TIP3    H235243   0.525   5.120   1.389  0.4293 -0.6382  1.1337
 4562TIP3   OH235244   1.897   0.214   0.043  0.0973  0.0502  0.3767
 4562TIP3    H135245   1.890   0.307   0.024 -2.2456  0.4667  2.7128
 4562TIP3    H235246   1.811   0.178   0.024  0.2087 -1.1181  1.8169
 4563TIP3   OH235247   2.721   4.988   2.821  0.1115  0.0265 -0.5021
 4563TIP3    H135248   2.734   5.065   2.876  0.2748  0.5738 -1.2834
 4563TIP3    H235249   2.681   4.923   2.879 -1.7002  1.2872 -0.2385
 4564TIP3   OH235250   5.738   6.937   0.847 -0.3514 -0.1879  0.0449
 4564TIP3    H135251   5.770   7.025   0.829 -1.4838  0.3844  0.7191
 4564TIP3    H235252   5.790   6.908   0.922 -0.4851  0.2096  0.2952
 4565TIP3   OH235253   1.768   1.935   2.187  0.1179 -0.6285 -0.2325
 4565TIP3    H135254   1.756   2.026   2.159 -1.5720 -1.3719 -2.1076
 4565TIP3    H235255   1.736   1.934   2.278  0.3253  0.6660 -0.1252
 4566TIP3   OH235256   6.693   0.218   1.034  0.3497 -0.1908 -0.4034
 4566TIP3    H135257   6.625   0.256   1.090  1.6199  2.6677 -0.6313
 4566TIP3    H235258   6.770   0.210   1.091  0.9627  0.5088 -1.0954
 4567TIP3   OH235259   6.408   6.043   0.305 -0.0674 -0.4526  0.3509
 4567TIP3    H135260   6.428   6.029   0.397  0.5044 -0.7304  0.1845
 4567TIP3    H235261   6.418   5.957   0.265  2.4718  0.1659 -0.4931
 4568TIP3   OH235262   4.010   3.165   0.281 -0.2109  0.2242  1.0662
 4568TIP3    H135263   4.036   3.176   0.372  0.8082  2.0878  0.6047
 4568TIP3    H235264   3.984   3.253   0.253  0.4808 -0.0919 -0.6978
 4569TIP3   OH235265   5.134   3.007   8.213  0.0137  0.3234 -0.1107
 4569TIP3    H135266   5.046   2.985   8.242 -0.2847  1.1395 -0.3506
 4569TIP3    H235267   5.121   3.076   8.148  0.9155  1.6096  1.0084
 4570TIP3   OH235268   0.124   1.640   8.416 -0.5461  0.1741 -0.2902
 4570TIP3    H135269   0.156   1.685   8.338 -0.5802  0.2475 -0.2618
 4570TIP3    H235270   0.154   1.694   8.489  0.3705 -0.4315 -0.2002
 4571TIP3   OH235271   0.862   1.093   0.024 -0.2455  0.5529 -0.1902
 4571TIP3    H135272   0.828   1.052   0.103 -1.0555  1.0954 -0.2363
 4571TIP3    H235273   0.886   1.182   0.051  1.5877  0.0532 -0.0657
 4572TIP3   OH235274   1.943   6.705   1.452  0.2531  0.0246 -0.6048
 4572TIP3    H135275   2.000   6.757   1.396 -1.7550  1.3178 -1.5335
 4572TIP3    H235276   1.914   6.765   1.520 -0.8478 -0.2827 -0.7813
 4573TIP3   OH235277   1.725   1.315   3.262  0.0607  0.1186  0.1732
 4573TIP3    H135278   1.678   1.237   3.291 -1.0552  1.6835  2.9568
 4573TIP3    H235279   1.803   1.318   3.316  0.5976  0.4561 -0.5991
 4574TIP3   OH235280   1.780   5.252   2.421  0.6829 -0.2100 -0.0427
 4574TIP3    H135281   1.824   5.328   2.382  0.7534 -0.6736 -0.8756
 4574TIP3    H235282   1.691   5.255   2.386 -0.2650  1.1498  2.2002
 4575TIP3   OH235283   6.454   5.940   6.968 -0.4746 -0.3903  0.1736
 4575TIP3    H135284   6.509   5.883   6.915 -0.8663 -0.3887 -0.2397
 4575TIP3    H235285   6.506   5.958   7.046  0.2023 -0.2049 -0.3126
 4576TIP3   OH235286   1.932   4.605   7.829 -0.6592 -0.2781 -0.2972
 4576TIP3    H135287   1.996   4.614   7.900  0.0717  1.6944 -1.1149
 4576TIP3    H235288   1.985   4.587   7.751 -1.0745  1.0687 -0.9299
 4577TIP3   OH235289   3.449   6.722   8.164  0.1856 -0.6852 -0.3095
 4577TIP3    H135290   3.520   6.687   8.110 -0.4185 -0.4182 -1.2981
 4577TIP3    H235291   3.373   6.668   8.142  0.3168 -1.7518  1.6253
 4578TIP3   OH235292   4.447   5.117   0.434  0.0204 -0.2766 -0.1054
 4578TIP3    H135293   4.457   5.088   0.344 -0.2484  0.5626 -0.4134
 4578TIP3    H235294   4.533   5.151   0.458  0.1509 -0.6965  0.0311
 4579TIP3   OH235295   1.323   5.154   0.588  0.0090  0.1348  0.4252
 4579TIP3    H135296   1.263   5.120   0.522  1.1154  0.7215 -0.9341
 4579TIP3    H235297   1.275   5.224   0.631 -0.6448 -0.1087  0.1038
 4580TIP3   OH235298   5.599   1.567   7.589 -0.0419  0.0764  0.6091
 4580TIP3    H135299   5.660   1.640   7.577  0.3043 -0.1784  0.8116
 4580TIP3    H235300   5.621   1.506   7.519 -1.5921  1.0005 -0.7594
 4581TIP3   OH235301   3.233   4.473   0.276  0.2981 -0.3197  0.1465
 4581TIP3    H135302   3.277   4.496   0.194 -0.3036 -1.1335 -0.4289
 4581TIP3    H235303   3.275   4.527   0.342  0.5847  0.5845 -0.7525
 4582TIP3   OH235304   1.976   0.296   2.034  0.1253 -0.4341 -0.0863
 4582TIP3    H135305   1.923   0.375   2.045  0.1965 -0.3015 -0.6233
 4582TIP3    H235306   1.977   0.254   2.120 -0.3893 -0.1498  0.0576
 4583TIP3   OH235307   6.680   1.041   2.275 -0.2778  0.5839  0.5201
 4583TIP3    H135308   6.636   1.013   2.355  1.6941 -3.8543  0.3176
 4583TIP3    H235309   6.636   0.993   2.205  0.4107  1.5501 -0.6164
 4584TIP3   OH235310   4.516   6.389   8.136 -0.4519  0.7336  0.1867
 4584TIP3    H135311   4.583   6.419   8.197 -0.7686  1.7158  0.0682
 4584TIP3    H235312   4.541   6.428   8.051 -1.5189  1.6956  0.2791
 4585TIP3   OH235313   2.884   6.092   2.011  0.5168 -0.3244  0.1273
 4585TIP3    H135314   2.977   6.116   2.010  0.4402  0.0109 -1.1449
 4585TIP3    H235315   2.882   6.009   2.058  1.1928  0.5938  1.8599
 4586TIP3   OH235316   0.290   1.887   0.541  0.5740 -0.5375  0.0040
 4586TIP3    H135317   0.262   1.937   0.464 -1.1010 -0.4662  0.6169
 4586TIP3    H235318   0.371   1.843   0.513  0.1685 -0.2772 -1.6889
 4587TIP3   OH235319   0.541   0.483   2.003  0.1441  0.1232 -0.0886
 4587TIP3    H135320   0.543   0.518   1.914 -0.8651 -1.2328 -0.6799
 4587TIP3    H235321   0.632   0.488   2.032  0.3804  1.1907 -0.9442
 4588TIP3   OH235322   2.358   4.121   8.392 -0.1163 -0.0984  0.0858
 4588TIP3    H135323   2.281   4.174   8.371  0.3920  0.8784  0.6129
 4588TIP3    H235324   2.426   4.152   8.331 -0.0244 -0.6828 -0.1148
 4589TIP3   OH235325   6.769   2.975   7.658  0.0654 -0.2957 -0.0630
 4589TIP3    H135326   6.762   2.881   7.640  0.2689 -0.5080  0.9339
 4589TIP3    H235327   6.863   2.993   7.654 -0.0801  0.3330 -2.4223
 4590TIP3   OH235328   6.384   3.920   0.328  0.1939 -0.8597  0.0132
 4590TIP3    H135329   6.332   3.875   0.261  0.5881 -1.1946 -0.0728
 4590TIP3    H235330   6.326   3.924   0.404 -0.6538  0.4873 -0.6655
 4591TIP3   OH235331   5.210   6.368   8.021 -0.8200 -0.1825 -0.0850
 4591TIP3    H135332   5.276   6.307   8.053  1.2444  1.3097 -1.1702
 4591TIP3    H235333   5.159   6.318   7.957 -0.6856 -1.3685  0.7183
 4592TIP3   OH235334   0.795   6.439   2.913  0.0769 -0.7537  0.0329
 4592TIP3    H135335   0.736   6.512   2.894 -0.2010 -1.0857 -0.4165
 4592TIP3    H235336   0.753   6.391   2.984  2.0158  1.5353  2.9543
 4593TIP3   OH235337   4.363   3.959   0.424 -0.3402  0.1915 -0.0582
 4593TIP3    H135338   4.419   3.964   0.501 -0.5790  0.2294  0.1126
 4593TIP3    H235339   4.275   3.978   0.456 -0.5087 -0.2244 -0.2591
 4594TIP3   OH235340   2.832   4.157   7.541  0.0407 -0.4902  0.1832
 4594TIP3    H135341   2.763   4.224   7.541 -0.2525 -0.6800  3.0352
 4594TIP3    H235342   2.899   4.192   7.598 -0.0969 -2.5748  1.7336
 4595TIP3   OH235343   6.547   0.339   2.097  0.0140  0.1232  0.1916
 4595TIP3    H135344   6.560   0.376   2.010  0.4458  0.5604  0.4308
 4595TIP3    H235345   6.496   0.260   2.083 -0.6042  0.6062 -0.3818
 4596TIP3   OH235346   3.769   2.542   1.590 -0.1460 -0.2969  0.1554
 4596TIP3    H135347   3.801   2.603   1.524  1.9555 -0.9089  0.5478
 4596TIP3    H235348   3.709   2.485   1.542  0.9898 -0.4471 -1.1500
 4597TIP3   OH235349   5.149   4.441   7.718 -0.0314 -0.9259  0.1352
 4597TIP3    H135350   5.235   4.461   7.754  0.2632 -2.3447  0.2770
 4597TIP3    H235351   5.136   4.506   7.649  1.0481 -0.5516  0.2704
 4598TIP3   OH235352   2.448   3.148   0.772  0.8591  0.8915  0.5481
 4598TIP3    H135353   2.390   3.207   0.724 -0.4357 -1.6089 -1.1763
 4598TIP3    H235354   2.411   3.142   0.860 -0.9369  0.1647 -0.2212
 4599TIP3   OH235355   1.617   0.919   0.634  0.7336  0.0069  0.3039
 4599TIP3    H135356   1.653   0.892   0.718  0.8993 -0.3790  0.1144
 4599TIP3    H235357   1.633   1.013   0.630  0.2654  0.1183  0.9205
 4600TIP3   OH235358   2.918   4.447   0.560 -0.1983  0.1523  0.7192
 4600TIP3    H135359   2.872   4.375   0.604 -0.3638  0.3633  0.8955
 4600TIP3    H235360   2.888   4.443   0.469  0.5949 -0.6559  0.4794
 4601TIP3   OH235361   0.494   0.111   0.817 -0.2060  0.2162 -0.0506
 4601TIP3    H135362   0.470   0.121   0.724  3.2810  1.5875 -0.9643
 4601TIP3    H235363   0.581   0.150   0.823  0.8042 -2.1528  3.3028
 4602TIP3   OH235364   2.538   0.804   7.497 -0.3582  0.1282  0.0337
 4602TIP3    H135365   2.577   0.717   7.505 -0.1140  0.2924  0.6878
 4602TIP3    H235366   2.610   0.861   7.470 -0.6540  0.0259 -1.0455
 4603TIP3   OH235367   4.739   0.381   0.830  0.2738 -0.3728 -0.2432
 4603TIP3    H135368   4.705   0.460   0.788 -0.9340 -0.1145  1.1556
 4603TIP3    H235369   4.669   0.317   0.821  0.8966 -1.0286 -0.5708
 4604TIP3   OH235370   4.184   3.012   8.386  0.5391  0.3053 -0.5532
 4604TIP3    H135371   4.179   2.971   8.300  4.2856  2.4830 -2.0346
 4604TIP3    H235372   4.121   3.084   8.383  0.7322  0.4333 -1.4843
 4605TIP3   OH235373   1.361   5.398   0.419  0.2342 -0.5794 -0.2306
 4605TIP3    H135374   1.269   5.401   0.445  0.6070 -1.6440  1.3979
 4605TIP3    H235375   1.395   5.319   0.461  2.5502  1.2629  1.6681
 4606TIP3   OH235376   4.311   2.793   2.605 -0.0590  0.5225  0.1316
 4606TIP3    H135377   4.320   2.709   2.651 -0.3559  1.9296  2.9732
 4606TIP3    H235378   4.266   2.771   2.523 -0.5838 -2.0141  1.0156
 4607TIP3   OH235379   0.971   5.197   2.627  0.8169  0.2844  0.7291
 4607TIP3    H135380   1.020   5.241   2.557 -0.3545  2.0012  0.9372
 4607TIP3    H235381   0.985   5.103   2.610  0.6390  0.6376 -1.7509
 4608TIP3   OH235382   4.801   2.919   7.583  0.1488 -0.1975  0.5572
 4608TIP3    H135383   4.843   3.004   7.573  0.8258 -0.4960  0.7804
 4608TIP3    H235384   4.771   2.896   7.494  0.7707 -0.1359  0.3284
 4609TIP3   OH235385   6.081   4.138   0.877 -0.2706  0.1729  0.5534
 4609TIP3    H135386   6.175   4.124   0.871 -0.5071 -1.2020 -0.5983
 4609TIP3    H235387   6.061   4.137   0.970  0.7305 -0.4399  0.7632
 4610TIP3   OH235388   4.826   0.396   2.444  0.5207 -0.2856  0.0813
 4610TIP3    H135389   4.751   0.378   2.388  0.4169 -0.1388  0.1719
 4610TIP3    H235390   4.788   0.427   2.526  0.6548 -0.9480  0.4019
 4611TIP3   OH235391   0.366   6.095   2.854  0.0589 -0.2529 -0.2977
 4611TIP3    H135392   0.353   6.047   2.772 -0.3953 -0.1980 -0.2616
 4611TIP3    H235393   0.461   6.103   2.863  0.1010  0.6320 -1.3427
 4612TIP3   OH235394   3.128   0.167   0.661 -0.3308  0.0637  0.4426
 4612TIP3    H135395   3.131   0.226   0.737 -0.2979  0.9327 -0.2242
 4612TIP3    H235396   3.193   0.099   0.681 -0.5179  0.1225  1.3124
 4613TIP3   OH235397   0.187   3.642   2.331  0.1082 -0.4525 -0.0551
 4613TIP3    H135398   0.259   3.622   2.271 -1.0731 -1.3360 -1.2323
 4613TIP3    H235399   0.113   3.663   2.274 -1.2838 -2.1277  1.0125
 4614TIP3   OH235400   6.227   3.931   0.540 -0.1071  0.1844  0.2779
 4614TIP3    H135401   6.230   3.902   0.631 -0.2891 -0.6296  0.0310
 4614TIP3    H235402   6.257   4.022   0.543  2.7298 -0.6571  0.8101
 4615TIP3   OH235403   5.503   4.123   0.104 -0.7133 -0.2098  0.9013
 4615TIP3    H135404   5.559   4.191   0.066 -0.7093 -1.2259 -1.0730
 4615TIP3    H235405   5.418   4.135   0.061 -0.8424 -1.1376  0.8644
 4616TIP3   OH235406   1.449   4.651   2.138  0.3514 -0.1999 -0.1190
 4616TIP3    H135407   1.367   4.685   2.101  0.5325 -1.1343 -1.4432
 4616TIP3    H235408   1.422   4.605   2.217 -0.2308  0.6445  0.1865
 4617TIP3   OH235409   3.287   3.418   7.129  0.4571 -0.0263  0.1557
 4617TIP3    H135410   3.297   3.327   7.156 -0.0544  0.2374  1.3332
 4617TIP3    H235411   3.193   3.436   7.139  0.7139  0.9422  1.0688
 4618TIP3   OH235412   0.297   0.248   8.149  0.8181 -0.3250  0.1053
 4618TIP3    H135413   0.263   0.329   8.186  0.7691  0.9832 -2.5467
 4618TIP3    H235414   0.220   0.198   8.124  0.8161  0.2832 -1.1576
 4619TIP3   OH235415   5.335   0.589   1.368 -0.3970  0.2268  0.4114
 4619TIP3    H135416   5.269   0.568   1.434  1.4345 -0.3938  2.1217
 4619TIP3    H235417   5.403   0.636   1.416  2.3822 -2.7175 -0.2955
 4620TIP3   OH235418   1.509   5.279   2.344 -0.1257 -0.3630  0.1185
 4620TIP3    H135419   1.466   5.194   2.357 -0.6302 -0.3695 -1.3688
 4620TIP3    H235420   1.452   5.325   2.282  0.0638  1.1416  1.0256
 4621TIP3   OH235421   2.015   0.579   2.024  0.0350 -0.0645  0.0745
 4621TIP3    H135422   1.952   0.645   1.997  0.5558  0.5464  0.3425
 4621TIP3    H235423   2.098   0.608   1.986  0.1992 -0.7573 -0.1113
 4622TIP3   OH235424   4.617   1.584   8.292 -0.5784 -0.0512  0.4184
 4622TIP3    H135425   4.679   1.573   8.220  0.7925  1.7171  1.2430
 4622TIP3    H235426   4.646   1.521   8.358  1.5179  1.9311  1.4962
 4623TIP3   OH235427   4.110   0.367   2.987  0.4158 -0.2760  0.4048
 4623TIP3    H135428   4.093   0.456   3.016  0.5048 -0.3547  0.7008
 4623TIP3    H235429   4.049   0.353   2.914  0.0198 -0.1582  0.7098
 4624TIP3   OH235430   4.322   3.893   1.399  0.2361  0.2756  0.0099
 4624TIP3    H135431   4.293   3.973   1.442 -0.3746  0.4534 -0.7151
 4624TIP3    H235432   4.370   3.923   1.322  0.6368 -0.0504  0.1248
 4625TIP3   OH235433   1.101   2.369   0.398 -0.3169 -0.0554  0.1852
 4625TIP3    H135434   1.195   2.377   0.380 -0.2219 -0.7855  0.3208
 4625TIP3    H235435   1.097   2.334   0.487 -0.7211  0.1309  0.2391
 4626TIP3   OH235436   1.467   3.908   0.003 -0.4504 -1.3616 -0.0882
 4626TIP3    H135437   1.382   3.880  -0.029 -0.8218 -2.1621  1.5142
 4626TIP3    H235438   1.472   3.875   0.092  1.6648 -1.5969 -0.2327
 4627TIP3   OH235439   4.300   0.146   0.451 -0.1497  0.2165 -0.2142
 4627TIP3    H135440   4.237   0.218   0.441  0.5727  0.6695 -1.8415
 4627TIP3    H235441   4.381   0.189   0.479  0.0587 -0.0756 -0.3644
 4628TIP3   OH235442   0.980   2.196   7.835 -0.7638  0.3484 -0.5204
 4628TIP3    H135443   0.890   2.194   7.867 -0.6307  0.2780 -0.1353
 4628TIP3    H235444   1.025   2.258   7.893 -0.1873 -0.8383  0.3564
 4629TIP3   OH235445   5.100   1.110   1.104 -0.0711  0.0328 -0.1286
 4629TIP3    H135446   5.152   1.035   1.074 -3.3320 -2.3864 -0.1565
 4629TIP3    H235447   5.081   1.159   1.024 -1.8781 -1.8408 -0.9188
 4630TIP3   OH235448   1.796   4.466   0.407  0.1663 -0.5128 -0.1630
 4630TIP3    H135449   1.865   4.408   0.440 -1.4994 -1.3081  2.1829
 4630TIP3    H235450   1.715   4.417   0.421 -1.1137  1.4758 -0.2533
 4631TIP3   OH235451   6.712   2.616   7.839 -0.1490 -0.1034 -1.0474
 4631TIP3    H135452   6.735   2.565   7.761  0.3361  2.3369 -2.6320
 4631TIP3    H235453   6.789   2.610   7.895  0.4746  0.0218 -1.8679
 4632TIP3   OH235454   6.815   6.529   0.309 -0.2770  0.0008 -0.2171
 4632TIP3    H135455   6.754   6.586   0.262  1.0337  0.7346 -1.0642
 4632TIP3    H235456   6.774   6.442   0.305 -1.5142  0.5712 -0.2994
 4633TIP3   OH235457   5.014   5.134   8.118 -0.3101  0.2605 -0.0372
 4633TIP3    H135458   5.049   5.188   8.047  0.2821  0.2482  0.2368
 4633TIP3    H235459   5.012   5.045   8.083 -1.0944  0.4218 -0.4192
 4634TIP3   OH235460   4.573   0.215   7.078  0.0642 -0.0891  0.0835
 4634TIP3    H135461   4.573   0.260   6.993 -0.9108 -0.1218  0.0514
 4634TIP3    H235462   4.639   0.261   7.129 -0.3246  0.8613 -0.2305
 4635TIP3   OH235463   6.711   2.753   1.848 -0.1719  0.6391 -0.6069
 4635TIP3    H135464   6.630   2.762   1.798 -0.8590 -0.3090  0.3117
 4635TIP3    H235465   6.768   2.822   1.813  0.1395 -1.2046 -4.1625
 4636TIP3   OH235466   0.081   3.339   1.399  0.0929  0.6262  0.2524
 4636TIP3    H135467   0.140   3.263   1.400  0.3010  0.7447 -1.1215
 4636TIP3    H235468   0.139   3.415   1.403 -0.0410  0.7291  0.2317
 4637TIP3   OH235469   1.474   4.299   0.012 -0.3376 -0.6221  0.2357
 4637TIP3    H135470   1.390   4.335  -0.017 -0.1015 -0.4423 -0.2293
 4637TIP3    H235471   1.540   4.344  -0.041  0.1977  0.4723  1.7493
 4638TIP3   OH235472   4.487   0.842   7.714  0.7199  0.2849 -0.1513
 4638TIP3    H135473   4.446   0.800   7.789  3.5067  0.4154  1.5990
 4638TIP3    H235474   4.440   0.925   7.704 -1.8398 -1.1260 -0.7533
 4639TIP3   OH235475   3.527   4.534   8.283  0.2141  0.2598 -0.4445
 4639TIP3    H135476   3.532   4.455   8.230  0.3861  1.0304 -1.6029
 4639TIP3    H235477   3.545   4.605   8.222  0.5199  1.1650  0.6704
 4640TIP3   OH235478   0.228   3.770   0.766  0.6522 -0.2891 -0.0800
 4640TIP3    H135479   0.165   3.708   0.801  0.9245 -0.1333  0.7028
 4640TIP3    H235480   0.176   3.828   0.711  0.4416 -1.3816 -1.0735
 4641TIP3   OH235481   3.333   0.792   0.681 -0.1784 -0.0617 -0.2119
 4641TIP3    H135482   3.413   0.821   0.726 -0.7920 -1.5943  2.0219
 4641TIP3    H235483   3.361   0.719   0.626 -0.0159 -0.5973  0.5693
 4642TIP3   OH235484   5.067   5.326   0.306  0.0371  0.4563  0.0194
 4642TIP3    H135485   4.993   5.300   0.250  0.2372  0.2787 -0.1669
 4642TIP3    H235486   5.082   5.418   0.283 -0.7716  0.7961  0.7899
 4643TIP3   OH235487   1.515   1.950   1.103 -0.1037  0.4804 -0.8381
 4643TIP3    H135488   1.450   2.012   1.070 -0.6732  0.3240 -0.0203
 4643TIP3    H235489   1.590   1.961   1.044 -0.9969  0.3897 -2.0209
 4644TIP3   OH235490   2.590   0.976   1.525 -0.4794  0.2949  0.2199
 4644TIP3    H135491   2.636   0.908   1.573 -1.8610 -0.6552  0.2420
 4644TIP3    H235492   2.659   1.029   1.486  0.6340 -1.3113 -0.0673
 4645TIP3   OH235493   0.289   2.897   7.106 -0.0594  0.2268  0.2398
 4645TIP3    H135494   0.232   2.961   7.148  0.1787  0.2468  0.5376
 4645TIP3    H235495   0.378   2.927   7.125  0.0779  1.3529 -2.0041
 4646TIP3   OH235496   0.456   1.994   1.072 -0.1876  0.4585 -0.5478
 4646TIP3    H135497   0.460   1.917   1.015  0.6313  0.0880 -0.0122
 4646TIP3    H235498   0.406   1.965   1.148  0.8536  0.1629  0.0521
 4647TIP3   OH235499   0.515   5.581   0.766 -0.1889  0.1642  0.1927
 4647TIP3    H135500   0.482   5.599   0.678 -2.8242  1.0711  1.2893
 4647TIP3    H235501   0.523   5.485   0.770  0.2084  0.1329 -1.0930
 4648TIP3   OH235502   3.781   3.672   0.776 -0.1063  0.0720 -0.4132
 4648TIP3    H135503   3.741   3.594   0.814  1.2669  0.3785  1.8746
 4648TIP3    H235504   3.823   3.642   0.696  0.6297 -1.6392  0.5622
 4649TIP3   OH235505   3.348   1.028   8.200  0.0678 -0.0280  0.3671
 4649TIP3    H135506   3.296   1.018   8.120  0.1600  1.1254  0.1422
 4649TIP3    H235507   3.329   0.950   8.251  0.1729 -0.8895 -0.8774
 4650TIP3   OH235508   0.395   1.022   1.096 -0.4301  0.4086 -0.5083
 4650TIP3    H135509   0.450   0.952   1.133 -0.4854  2.0163  3.0083
 4650TIP3    H235510   0.344   0.978   1.028 -0.4443 -3.0271  1.4418
 4651TIP3   OH235511   1.641   6.093   2.173  0.1204  0.5975 -0.3405
 4651TIP3    H135512   1.660   6.171   2.120  0.7825  2.1931  2.1028
 4651TIP3    H235513   1.723   6.075   2.219 -0.4018 -0.8169  0.0942
 4652TIP3   OH235514   3.315   4.978   2.548 -0.3512  0.1431  0.4145
 4652TIP3    H135515   3.378   4.920   2.590 -0.3272 -1.9518 -2.2423
 4652TIP3    H235516   3.254   4.919   2.503 -1.5269  2.1441 -0.7912
 4653TIP3   OH235517   0.037   6.199   1.357 -0.4090  0.3760  0.1093
 4653TIP3    H135518   0.046   6.224   1.265 -1.0959 -1.2949 -0.4386
 4653TIP3    H235519  -0.046   6.238   1.384 -0.7672 -0.0750 -0.3200
 4654TIP3   OH235520   4.225   4.445   2.074 -0.2811  0.5753 -0.4299
 4654TIP3    H135521   4.243   4.378   2.008 -0.5367 -1.1277  1.1413
 4654TIP3    H235522   4.141   4.483   2.047 -0.7868 -0.6602 -0.6777
 4655TIP3   OH235523   1.605   6.064   7.992 -0.2790 -0.0220  0.5386
 4655TIP3    H135524   1.637   5.988   8.040 -2.1797  0.1658  2.2043
 4655TIP3    H235525   1.656   6.138   8.026  2.4089 -0.5537 -1.9049
 4656TIP3   OH235526   0.036   0.537   2.078 -0.5072  0.1810  0.0142
 4656TIP3    H135527  -0.048   0.536   2.125 -0.1921  0.0009  0.5832
 4656TIP3    H235528   0.097   0.576   2.140 -0.1387  0.1972 -0.3545
 4657TIP3   OH235529   0.271   3.973   8.348  0.2991 -0.8122 -0.3002
 4657TIP3    H135530   0.215   3.914   8.400  0.6119 -1.4118 -0.6269
 4657TIP3    H235531   0.360   3.948   8.371  0.4719  1.0301  1.2121
 4658TIP3   OH235532   0.316   5.314   0.297 -0.2246 -0.0901  0.0194
 4658TIP3    H135533   0.398   5.325   0.248  0.7288 -0.5335  1.4454
 4658TIP3    H235534   0.266   5.393   0.277  0.2318 -0.1323 -1.4358
 4659TIP3   OH235535   4.484   4.767   7.533  0.2404  0.2635 -0.1073
 4659TIP3    H135536   4.557   4.827   7.516  0.0571  0.0692 -1.7733
 4659TIP3    H235537   4.437   4.763   7.449 -1.2736 -0.1748  0.7279
 4660TIP3   OH235538   2.421   3.369   1.582  0.2371  0.5592 -0.2474
 4660TIP3    H135539   2.473   3.373   1.662 -1.2446  0.7561  0.7525
 4660TIP3    H235540   2.334   3.400   1.609 -1.5612 -3.3312 -0.8651
 4661TIP3   OH235541   0.687   3.611   0.126  0.0631  0.3217  0.4240
 4661TIP3    H135542   0.695   3.680   0.061  0.8918 -0.3807 -0.2555
 4661TIP3    H235543   0.599   3.576   0.114  0.6090 -0.5979 -1.1776
 4662TIP3   OH235544   2.971   3.187   0.523 -0.3904  0.8871  0.6050
 4662TIP3    H135545   3.065   3.174   0.508 -0.0736  0.3676  2.7650
 4662TIP3    H235546   2.961   3.282   0.529  0.3760  0.8887  2.3505
 4663TIP3   OH235547   0.746   2.415   8.099  0.0210 -0.2985  0.6324
 4663TIP3    H135548   0.711   2.330   8.074 -0.8603  0.3206 -0.3228
 4663TIP3    H235549   0.819   2.430   8.039  0.6536 -0.6966  1.2904
 4664TIP3   OH235550   3.484   0.567   0.949  0.0940  0.0934  0.4057
 4664TIP3    H135551   3.411   0.575   1.011  1.4898  0.4248  2.1091
 4664TIP3    H235552   3.493   0.654   0.910  0.5675  0.5223  1.4235
 4665TIP3   OH235553   3.247   6.168   2.233 -0.4063  0.2559  0.0773
 4665TIP3    H135554   3.297   6.087   2.241 -0.3415  0.3193  0.3141
 4665TIP3    H235555   3.255   6.192   2.140 -1.7958 -0.8800 -0.3759
 4666TIP3   OH235556   4.809   3.079   3.283 -0.2189  0.1607  0.2767
 4666TIP3    H135557   4.805   2.985   3.270  1.1527  0.1289 -0.0046
 4666TIP3    H235558   4.874   3.091   3.352 -0.5788  0.8993  0.5015
 4667TIP3   OH235559   5.741   3.962   0.033 -0.2004 -0.1299  0.3673
 4667TIP3    H135560   5.667   3.994   0.085 -0.6900  0.4668 -0.6528
 4667TIP3    H235561   5.769   3.882   0.077  0.7226  1.3692  2.7293
 4668TIP3   OH235562   6.069   1.501   3.174 -0.7653 -0.1383  0.3847
 4668TIP3    H135563   6.045   1.593   3.168 -1.2448 -0.2834 -0.0166
 4668TIP3    H235564   5.999   1.462   3.226 -0.3628 -0.2076  0.8785
 4669TIP3   OH235565   4.291   4.652   8.411  0.6463  0.2021 -0.2102
 4669TIP3    H135566   4.219   4.711   8.432  0.6218  0.2737 -0.4859
 4669TIP3    H235567   4.303   4.663   8.317  0.6384 -0.2368 -0.2617
 4670TIP3   OH235568   5.535   2.039   2.216  0.0962 -0.2422 -0.8618
 4670TIP3    H135569   5.535   1.971   2.149  3.1232 -1.1215 -0.1071
 4670TIP3    H235570   5.477   2.107   2.181  0.1036 -1.4564 -3.4954
 4671TIP3   OH235571   5.615   2.518   0.849  0.7125 -0.1790 -0.3525
 4671TIP3    H135572   5.619   2.613   0.853  0.4925 -0.1763 -0.1427
 4671TIP3    H235573   5.531   2.495   0.890  0.3615 -0.4200 -1.1801
 4672TIP3   OH235574   0.528   5.297   2.084 -0.7202  0.2075  0.5311
 4672TIP3    H135575   0.434   5.286   2.099 -1.1217  1.2423 -0.9869
 4672TIP3    H235576   0.541   5.392   2.091 -0.1527  0.2655 -1.1046
 4673TIP3   OH235577   0.066   1.121   0.702 -0.2251 -0.1035 -0.4069
 4673TIP3    H135578   0.056   1.216   0.702 -0.1526 -0.0942 -0.2474
 4673TIP3    H235579   0.152   1.106   0.743 -0.2125 -0.2350 -0.4796
 4674TIP3   OH235580   6.559   4.328   1.806  0.0512 -0.0426  0.7250
 4674TIP3    H135581   6.650   4.342   1.832  0.0557 -1.5228  1.6213
 4674TIP3    H235582   6.556   4.237   1.778 -0.9745  0.2496 -0.1874
 4675TIP3   OH235583   2.168   0.310   2.824 -1.1100 -0.3362 -0.1791
 4675TIP3    H135584   2.101   0.250   2.856 -1.8689  0.8960  0.6232
 4675TIP3    H235585   2.251   0.270   2.851 -1.3837 -2.4247 -2.1184
 4676TIP3   OH235586   6.216   4.057   3.016 -0.1178  0.4003 -0.1207
 4676TIP3    H135587   6.287   4.121   3.021  1.2510 -0.9291 -1.4324
 4676TIP3    H235588   6.136   4.110   3.022  0.9419  2.2550 -1.2539
 4677TIP3   OH235589   0.802   6.903   1.646 -0.1558  0.6821 -0.4198
 4677TIP3    H135590   0.845   6.971   1.698 -1.4694 -0.2423  2.0412
 4677TIP3    H235591   0.810   6.933   1.556  2.6171  2.1950  0.2157
 4678TIP3   OH235592   4.327   1.353   0.324  0.5664 -0.0066  0.4353
 4678TIP3    H135593   4.332   1.283   0.259 -0.2966  1.1572 -0.9450
 4678TIP3    H235594   4.341   1.433   0.274  0.4889  0.9024  1.8028
 4679TIP3   OH235595   2.688   0.572   7.533 -0.3020  0.4997 -0.1813
 4679TIP3    H135596   2.777   0.589   7.502 -0.4800  0.0096 -0.9996
 4679TIP3    H235597   2.663   0.489   7.490 -0.2181 -0.7460  2.0340
 4680TIP3   OH235598   0.257   5.103   0.758  0.2197  0.4988 -0.1983
 4680TIP3    H135599   0.180   5.086   0.703 -0.4411  1.6749  0.3260
 4680TIP3    H235600   0.283   5.017   0.790  0.2720 -0.1537 -1.8795
 4681TIP3   OH235601   2.395   3.698   1.913 -0.3164  0.2692  0.3249
 4681TIP3    H135602   2.453   3.771   1.893 -0.7560  1.0689  1.8320
 4681TIP3    H235603   2.442   3.647   1.979 -0.7643  0.1534  0.5541
 4682TIP3   OH235604   2.903   0.480   2.477  0.8492  0.8787 -0.3894
 4682TIP3    H135605   2.954   0.402   2.500 -0.2415  0.6280  1.2986
 4682TIP3    H235606   2.885   0.523   2.560 -2.5427  0.4237 -0.7701
 4683TIP3   OH235607   6.632   3.005   1.653  0.2906 -0.2530  0.1259
 4683TIP3    H135608   6.680   2.999   1.736 -1.3359  0.3657  1.1648
 4683TIP3    H235609   6.552   2.955   1.668 -0.1425  0.0750 -0.9932
 4684TIP3   OH235610   2.137   2.797   0.566  0.3434  0.8690  0.2289
 4684TIP3    H135611   2.179   2.801   0.651 -0.4416 -0.2789  0.7042
 4684TIP3    H235612   2.108   2.887   0.548 -0.6678  0.8846  1.8024
 4685TIP3   OH235613   6.423   1.563   2.312 -0.1531  0.0956  0.2129
 4685TIP3    H135614   6.425   1.659   2.321  0.4342  0.0544  0.6096
 4685TIP3    H235615   6.428   1.531   2.402 -1.1210 -0.3063  0.1265
 4686TIP3   OH235616   0.923   2.322   0.204 -0.3913  0.1216  0.1607
 4686TIP3    H135617   0.874   2.246   0.237  0.7175 -0.9921 -0.6893
 4686TIP3    H235618   0.997   2.331   0.264 -0.2405  0.2192 -0.0389
 4687TIP3   OH235619   5.879   5.579   3.226  0.2749  0.0312 -0.0854
 4687TIP3    H135620   5.940   5.639   3.268  1.8407 -0.1455 -1.9625
 4687TIP3    H235621   5.934   5.517   3.178 -1.3422 -1.5448 -0.0556
 4688TIP3   OH235622   4.424   5.686   1.418  0.2461 -0.6113  0.4589
 4688TIP3    H135623   4.396   5.753   1.481 -1.4572 -0.9800  0.1447
 4688TIP3    H235624   4.519   5.698   1.411  0.0641  1.4388  0.7734
 4689TIP3   OH235625   2.140   1.088   2.519  0.4134 -0.1683 -0.7829
 4689TIP3    H135626   2.085   1.018   2.484 -0.1645 -0.3773  0.4732
 4689TIP3    H235627   2.184   1.125   2.443  0.0502 -1.3165 -1.5747
 4690TIP3   OH235628   1.723   0.450   2.047 -0.0030  0.3288  0.5102
 4690TIP3    H135629   1.706   0.408   1.963 -0.1535  2.2443 -0.4924
 4690TIP3    H235630   1.697   0.386   2.113  1.1772 -1.6520 -0.8704
 4691TIP3   OH235631   4.017   1.858   0.783  0.0980 -0.4293  0.1269
 4691TIP3    H135632   3.993   1.927   0.845 -1.5746 -1.1829  0.3619
 4691TIP3    H235633   4.057   1.790   0.837 -0.5598 -0.7156  0.2518
 4692TIP3   OH235634   4.481   6.465   1.139  0.1250 -0.3769  0.1385
 4692TIP3    H135635   4.436   6.519   1.205  1.1175  0.2313  0.3302
 4692TIP3    H235636   4.542   6.525   1.096 -1.0858 -0.5200 -1.9610
 4693TIP3   OH235637   0.840   0.203   8.113 -0.1854 -0.2225 -0.1632
 4693TIP3    H135638   0.886   0.142   8.171 -0.1158 -0.1891 -0.1826
 4693TIP3    H235639   0.855   0.169   8.025 -1.9930 -1.4410 -0.0639
 4694TIP3   OH235640   5.926   5.429   2.618 -0.3298 -0.0849 -0.1070
 4694TIP3    H135641   5.883   5.383   2.690  0.2201  0.3207  0.4904
 4694TIP3    H235642   6.019   5.410   2.629 -0.0489  1.3927  0.3400
 4695TIP3   OH235643   3.070   1.081   7.797 -0.6002  0.2199 -0.1630
 4695TIP3    H135644   3.015   1.012   7.761 -1.2028  0.6325 -0.0366
 4695TIP3    H235645   3.038   1.094   7.886  0.2580 -0.1253  0.2160
 4696TIP3   OH235646   3.477   4.680   2.330  0.0208  0.1812 -0.0213
 4696TIP3    H135647   3.508   4.689   2.420  2.2014  3.4667 -0.9470
 4696TIP3    H235648   3.524   4.604   2.296 -0.2513 -0.6281  1.3278
 4697TIP3   OH235649   4.935   1.975   2.094 -0.0028 -0.0804 -0.0169
 4697TIP3    H135650   4.939   1.889   2.052  0.2081 -1.0963  1.9829
 4697TIP3    H235651   4.996   2.029   2.043 -1.4103 -0.5605 -2.3733
 4698TIP3   OH235652   4.279   3.101   2.293 -0.4155  0.8440 -0.7028
 4698TIP3    H135653   4.301   3.053   2.372  0.3455 -0.4085 -1.6454
 4698TIP3    H235654   4.195   3.063   2.264  0.2502 -0.0522 -1.5194
 4699TIP3   OH235655   5.859   3.986   3.082 -0.4974  0.3337  0.1477
 4699TIP3    H135656   5.933   4.006   3.138 -0.4500  0.0220  0.2010
 4699TIP3    H235657   5.840   3.893   3.099  0.2287 -0.0851 -1.1581
 4700TIP3   OH235658   4.312   4.023   0.117 -0.7232  0.6849  0.2737
 4700TIP3    H135659   4.354   4.006   0.201 -0.4356 -2.0124 -0.3028
 4700TIP3    H235660   4.218   4.011   0.134 -0.5371 -2.2922 -0.1177
 4701TIP3   OH235661   0.578   2.591   7.698 -0.2003  0.0463  0.0116
 4701TIP3    H135662   0.621   2.649   7.760 -1.6417  1.1987 -0.0172
 4701TIP3    H235663   0.516   2.540   7.750 -0.6109  0.2153 -0.3021
 4702TIP3   OH235664   3.665   2.641   0.793 -0.1224 -0.2103 -0.7112
 4702TIP3    H135665   3.608   2.621   0.719 -1.0388 -0.8974  0.1453
 4702TIP3    H235666   3.697   2.556   0.822  0.6844  0.1035 -0.6614
 4703TIP3   OH235667   6.947   1.796   8.208 -0.2267  0.6512  0.1600
 4703TIP3    H135668   6.875   1.854   8.184 -1.2017 -1.1341 -1.4810
 4703TIP3    H235669   7.025   1.842   8.178 -0.9169  1.3125 -0.6727
 4704TIP3   OH235670   0.232   2.092   0.293  0.1109  0.0386 -0.8290
 4704TIP3    H135671   0.166   2.124   0.231  0.7720 -0.3932 -1.7953
 4704TIP3    H235672   0.213   2.138   0.374 -0.7106  0.7264 -1.3868
 4705TIP3   OH235673   1.892   6.334   2.060 -0.4430  0.0954  0.0067
 4705TIP3    H135674   1.834   6.381   2.001 -0.3046  1.1807  0.7075
 4705TIP3    H235675   1.979   6.371   2.043  0.0922 -1.5478 -1.0696
 4706TIP3   OH235676   0.087   6.335   7.320  0.3171  0.3366  0.6478
 4706TIP3    H135677   0.034   6.261   7.289  1.0413 -0.7113  1.8057
 4706TIP3    H235678   0.119   6.377   7.241  1.8663 -2.0561 -0.1099
 4707TIP3   OH235679   1.937   5.867   0.218  0.4346 -0.3516  0.2913
 4707TIP3    H135680   1.857   5.884   0.268  0.1505  0.9108 -0.5242
 4707TIP3    H235681   1.999   5.833   0.282 -0.2878  0.0851  1.2547
 4708TIP3   OH235682   3.055   0.410   1.824 -0.3172 -0.3435 -0.7550
 4708TIP3    H135683   3.115   0.451   1.762 -1.1713  0.1285 -1.2948
 4708TIP3    H235684   3.085   0.441   1.910 -0.1733  0.4076 -1.0655
 4709TIP3   OH235685   5.470   0.373   6.875  0.2170  0.0373 -0.3366
 4709TIP3    H135686   5.490   0.319   6.951  0.3835  0.6835  0.0787
 4709TIP3    H235687   5.475   0.312   6.801  1.3751 -0.3144  0.0181
 4710TIP3   OH235688   4.001   1.136   7.744 -0.0591  0.3247  0.0198
 4710TIP3    H135689   3.935   1.116   7.678 -2.1721  0.1515  2.0453
 4710TIP3    H235690   3.981   1.226   7.772  0.3418  0.1627  0.8808
 4711TIP3   OH235691   1.267   3.311   2.633  0.1575 -0.6384 -0.0451
 4711TIP3    H135692   1.282   3.218   2.651 -3.9328 -1.2373  1.2600
 4711TIP3    H235693   1.243   3.313   2.540  0.2495 -0.8775 -0.0752
 4712TIP3   OH235694   2.658   1.637   7.312 -0.2581 -0.4400  0.4999
 4712TIP3    H135695   2.732   1.576   7.313  0.7200  0.7002  0.8198
 4712TIP3    H235696   2.678   1.698   7.241  0.4067  1.3458  2.1292
 4713TIP3   OH235697   3.513   5.663   8.392  0.0712  0.7496 -0.4265
 4713TIP3    H135698   3.555   5.715   8.461 -1.3015 -0.3804  1.3593
 4713TIP3    H235699   3.443   5.616   8.437  0.3381 -1.5438 -2.2163
 4714TIP3   OH235700   1.334   2.575   2.732 -0.0734  0.3780 -0.5445
 4714TIP3    H135701   1.369   2.623   2.806  1.8281  2.2194 -2.5088
 4714TIP3    H235702   1.269   2.633   2.693 -0.4374 -0.2157 -0.8521
 4715TIP3   OH235703   4.154   0.186   2.663 -0.4944  0.1201 -0.2336
 4715TIP3    H135704   4.163   0.204   2.757 -0.2662  1.0398 -0.4293
 4715TIP3    H235705   4.207   0.253   2.620 -0.1873 -0.6009 -1.0096
 4716TIP3   OH235706   3.986   2.054   8.129  0.6477  0.3699  0.0305
 4716TIP3    H135707   3.929   2.032   8.202 -0.5140  1.8691 -0.3744
 4716TIP3    H235708   4.073   2.024   8.156 -0.0903 -0.8201  1.1970
 4717TIP3   OH235709   2.302   2.286   1.145 -0.1097 -0.4665 -0.0006
 4717TIP3    H135710   2.396   2.306   1.155  0.3579 -1.9460 -1.0757
 4717TIP3    H235711   2.299   2.191   1.139 -2.0859 -0.7855  3.5612
 4718TIP3   OH235712   0.932   2.938   3.244  0.9155 -0.1032 -0.6202
 4718TIP3    H135713   0.953   3.031   3.231  1.5207  0.0318  1.0759
 4718TIP3    H235714   0.978   2.914   3.324 -1.8744 -1.0137  0.8419
 4719TIP3   OH235715   6.553   4.791   7.194 -0.3866  0.4296 -0.3002
 4719TIP3    H135716   6.601   4.709   7.182  2.2918  1.8970 -0.3873
 4719TIP3    H235717   6.473   4.765   7.240 -0.1659 -2.3330 -1.2777
 4720TIP3   OH235718   6.396   2.650   2.362  0.3141  0.0445 -0.2270
 4720TIP3    H135719   6.433   2.562   2.371 -1.3228 -0.8445 -1.4872
 4720TIP3    H235720   6.357   2.668   2.448  0.4713 -0.5680 -0.0216
 4721TIP3   OH235721   0.028   6.914   1.877 -0.1878 -0.1366  0.0439
 4721TIP3    H135722   0.002   7.005   1.892 -1.3825 -0.6081  0.9572
 4721TIP3    H235723   0.057   6.883   1.963 -0.3179 -0.7874 -0.1430
 4722TIP3   OH235724   1.167   1.696   0.675  0.3729  0.3947  0.8961
 4722TIP3    H135725   1.201   1.692   0.765  3.6082 -2.3686 -0.2341
 4722TIP3    H235726   1.242   1.674   0.621 -1.5578  1.5767 -2.5557
 4723TIP3   OH235727   6.491   6.671   2.429  0.4030 -0.2589  0.1850
 4723TIP3    H135728   6.433   6.748   2.430 -0.1952 -0.7092  0.8807
 4723TIP3    H235729   6.557   6.691   2.495 -0.0125 -0.5426  0.6826
 4724TIP3   OH235730   4.456   6.538   2.632 -0.4132 -0.0780  0.0186
 4724TIP3    H135731   4.375   6.583   2.658 -1.5822 -1.3224 -1.2305
 4724TIP3    H235732   4.492   6.504   2.714 -2.2349 -1.1677  0.4193
 4725TIP3   OH235733   4.241   1.876   1.721  0.2654  0.6927 -0.3562
 4725TIP3    H135734   4.315   1.849   1.776 -0.3098  0.4432  0.3174
 4725TIP3    H235735   4.257   1.835   1.636  1.7257  1.9521 -0.7379
 4726TIP3   OH235736   3.665   5.931   1.158  0.6578 -0.1097  0.8388
 4726TIP3    H135737   3.614   5.912   1.080 -0.7093  0.2341  1.6103
 4726TIP3    H235738   3.735   5.867   1.158 -0.7720 -1.7314  0.6372
 4727TIP3   OH235739   4.891   0.411   7.913  0.1584  0.1896  0.1265
 4727TIP3    H135740   4.948   0.386   7.840  1.2202 -1.1525  1.3751
 4727TIP3    H235741   4.903   0.506   7.922  2.7662 -0.1443  0.8055
 4728TIP3   OH235742   4.568   4.024   8.343  0.2272 -0.5063  0.3351
 4728TIP3    H135743   4.649   4.070   8.324 -0.2949  0.4258  0.3045
 4728TIP3    H235744   4.593   3.932   8.350  1.2950 -0.2150  0.4371
 4729TIP3   OH235745   4.782   6.809   7.715  0.0294 -0.0518 -0.0880
 4729TIP3    H135746   4.834   6.731   7.732 -0.6213 -0.5417 -0.3335
 4729TIP3    H235747   4.811   6.872   7.781 -1.9792 -1.6595  2.5322
 4730TIP3   OH235748   1.929   6.779   7.966  0.2791  0.7465  0.0795
 4730TIP3    H135749   1.966   6.717   8.029  1.6288  1.0212 -0.3916
 4730TIP3    H235750   1.875   6.838   8.018  0.8600  0.5746  0.8982
 4731TIP3   OH235751   1.726   1.861   8.169  0.4667  0.3474 -0.2705
 4731TIP3    H135752   1.710   1.805   8.093 -0.8838  0.1853  0.0937
 4731TIP3    H235753   1.816   1.890   8.160  0.9432 -1.2437 -0.8993
 4732TIP3   OH235754   5.607   0.925   0.361  0.1279  0.4534  0.3804
 4732TIP3    H135755   5.545   0.882   0.303  0.6135 -1.8927  1.5010
 4732TIP3    H235756   5.559   1.000   0.397 -1.1226  0.2247 -0.7729
 4733TIP3   OH235757   0.239   6.011   1.379  0.1864 -0.2782  0.4247
 4733TIP3    H135758   0.275   6.005   1.290  0.8898  0.8792  0.6071
 4733TIP3    H235759   0.177   6.084   1.374  1.1018  0.5790  1.1383
 4734TIP3   OH235760   0.598   0.314   8.062 -0.3924  0.0123  0.0736
 4734TIP3    H135761   0.684   0.273   8.049 -0.1446  0.4958  0.1580
 4734TIP3    H235762   0.550   0.252   8.116  0.2013  0.1180  0.7424
 4735TIP3   OH235763   3.980   1.266   0.300 -0.0593 -0.3008  0.3661
 4735TIP3    H135764   3.897   1.313   0.302 -0.1038 -0.0540 -2.6218
 4735TIP3    H235765   3.958   1.182   0.260  1.1839  0.0880 -1.2524
 4736TIP3   OH235766   3.009   5.717   7.250  0.4338 -0.3090 -0.2186
 4736TIP3    H135767   3.018   5.784   7.182 -0.1183  0.4432  0.4285
 4736TIP3    H235768   2.929   5.670   7.227  1.2933 -1.3702 -1.1768
 4737TIP3   OH235769   4.907   0.168   0.812 -0.3996 -0.2206  0.1491
 4737TIP3    H135770   4.852   0.247   0.809  0.3203  0.2977  0.2167
 4737TIP3    H235771   4.857   0.105   0.863 -1.1073  0.1008 -0.1344
 4738TIP3   OH235772   3.260   5.953   8.370 -0.4260  0.1683 -0.4006
 4738TIP3    H135773   3.174   5.940   8.330 -1.6319 -0.5269  2.2169
 4738TIP3    H235774   3.262   5.893   8.444  2.1104  0.6106 -0.0006
 4739TIP3   OH235775   5.352   4.813   7.290 -0.2368 -0.0957 -0.2348
 4739TIP3    H135776   5.338   4.876   7.360  0.3837  0.3762 -0.5200
 4739TIP3    H235777   5.272   4.816   7.238 -0.2794  0.3388 -0.1470
 4740TIP3   OH235778   0.603   2.205   1.154 -0.0339 -1.2650 -0.1876
 4740TIP3    H135779   0.526   2.149   1.160  0.7036 -2.1727  1.6484
 4740TIP3    H235780   0.578   2.286   1.199  0.7836 -2.4772  2.6193
 4741TIP3   OH235781   4.000   6.230   8.144  0.1046  0.2079  0.2699
 4741TIP3    H135782   4.086   6.261   8.115 -0.1634 -0.7422 -1.6689
 4741TIP3    H235783   4.020   6.170   8.217  1.3631 -1.9365 -1.7024
 4742TIP3   OH235784   1.505   2.283   7.541  0.1241 -0.0163 -0.0138
 4742TIP3    H135785   1.495   2.328   7.457 -1.1976 -0.3407 -0.0541
 4742TIP3    H235786   1.440   2.325   7.598  2.4826  1.7494  1.5712
 4743TIP3   OH235787   2.698   2.845   1.957 -0.0941 -0.3728 -0.3966
 4743TIP3    H135788   2.692   2.861   1.863 -0.1303 -1.1986 -0.5422
 4743TIP3    H235789   2.787   2.812   1.970 -0.4239 -1.2249 -0.2919
 4744TIP3   OH235790   2.970   4.481   1.448  0.3811  0.5560 -0.5317
 4744TIP3    H135791   2.928   4.420   1.388  0.1151 -0.1962  0.3793
 4744TIP3    H235792   2.897   4.526   1.491  0.5062  0.0634  0.2324
 4745TIP3   OH235793   1.900   2.226   2.503  0.1652  0.1469 -0.2826
 4745TIP3    H135794   1.967   2.189   2.560  2.0136  2.4139 -0.8010
 4745TIP3    H235795   1.883   2.313   2.541 -2.9243 -0.5068  0.1011
 4746TIP3   OH235796   3.251   2.469   0.360 -0.3105 -0.3160 -0.8635
 4746TIP3    H135797   3.314   2.397   0.354  1.5597  1.0594  1.1497
 4746TIP3    H235798   3.167   2.425   0.376  0.7185 -2.0847  0.0291
 4747TIP3   OH235799   4.685   3.664   1.304 -0.1000 -0.1417  0.2633
 4747TIP3    H135800   4.605   3.614   1.322 -2.6903  4.1087  2.0095
 4747TIP3    H235801   4.717   3.692   1.390  1.6905  0.5514 -0.5602
 4748TIP3   OH235802   3.356   0.053   0.760  0.3634  0.2679 -0.3851
 4748TIP3    H135803   3.350   0.082   0.851  0.3957 -1.1710  0.0996
 4748TIP3    H235804   3.448   0.027   0.749 -0.3909 -3.2650  0.4165
 4749TIP3   OH235805   0.183   4.904   8.000  0.1488  0.1034  0.0288
 4749TIP3    H135806   0.186   4.815   7.965 -0.3198  0.2835 -0.4667
 4749TIP3    H235807   0.267   4.943   7.975 -0.5072  0.5116 -1.6662
 4750TIP3   OH235808   0.458   6.714   1.811 -0.2244  0.7594 -0.2170
 4750TIP3    H135809   0.429   6.769   1.739  1.8991  1.8839 -0.2799
 4750TIP3    H235810   0.545   6.685   1.785  0.5336  1.0871  1.8263
 4751TIP3   OH235811   5.574   4.580   1.347 -0.1088  0.3868  0.3498
 4751TIP3    H135812   5.615   4.536   1.272 -0.7966  0.2844  0.0248
 4751TIP3    H235813   5.590   4.673   1.332  0.2727  0.3295  0.3884
 4752TIP3   OH235814   3.971   5.595   1.548 -0.2884 -0.4801 -0.4934
 4752TIP3    H135815   3.932   5.512   1.577 -0.5701 -0.3676 -0.5495
 4752TIP3    H235816   4.041   5.612   1.612  0.6378 -1.4226 -1.2238
 4753TIP3   OH235817   6.700   2.277   0.459  0.2503 -0.5629 -0.2431
 4753TIP3    H135818   6.741   2.319   0.383  1.5268 -2.3098 -0.5925
 4753TIP3    H235819   6.765   2.213   0.489 -0.5717 -0.5144  1.8228
 4754TIP3   OH235820   3.255   6.231   0.761  0.1307 -0.2746  0.2017
 4754TIP3    H135821   3.183   6.217   0.823 -1.0606  0.5343 -0.9330
 4754TIP3    H235822   3.308   6.300   0.801  0.0836 -0.6425  0.9064
 4755TIP3   OH235823   5.616   5.692   1.046 -0.2795 -1.2652 -0.2499
 4755TIP3    H135824   5.635   5.759   1.112  0.2617 -1.8741  0.2285
 4755TIP3    H235825   5.699   5.681   0.999 -0.9804  0.0670 -1.9057
 4756TIP3   OH235826   1.480   4.584   0.881 -0.2972  0.2428 -0.3795
 4756TIP3    H135827   1.477   4.584   0.786  1.2275 -0.2800 -0.4615
 4756TIP3    H235828   1.450   4.496   0.906 -1.9946  0.8075 -0.2700
 4757TIP3   OH235829   6.676   1.409   0.339 -0.5764 -0.3787  0.5748
 4757TIP3    H135830   6.593   1.383   0.299  0.0545 -0.3245 -0.8364
 4757TIP3    H235831   6.656   1.491   0.384 -0.8906  0.6351 -1.3281
 4758TIP3   OH235832   6.781   6.410   8.059  0.3297  0.1422  0.4368
 4758TIP3    H135833   6.780   6.505   8.074  0.2446  0.1604  0.3190
 4758TIP3    H235834   6.817   6.374   8.140  0.7990  0.3097  0.3051
 4759TIP3   OH235835   2.905   5.085   2.640 -1.0871  0.7774 -0.5255
 4759TIP3    H135836   2.840   5.032   2.687 -0.1581  0.8829  0.9462
 4759TIP3    H235837   2.868   5.174   2.641 -1.2668  0.7028 -0.3788
 4760TIP3   OH235838   0.788   2.715   0.706  0.4470  0.3656 -0.5342
 4760TIP3    H135839   0.724   2.697   0.775 -1.7845  1.6537 -2.1241
 4760TIP3    H235840   0.777   2.642   0.645  0.2562  0.7434 -0.9564
 4761TIP3   OH235841   0.300   1.510   8.186 -0.0839  0.2602  0.0791
 4761TIP3    H135842   0.377   1.516   8.242  0.1910  0.2657 -0.2888
 4761TIP3    H235843   0.317   1.574   8.116  0.7107 -1.3912 -1.3414
 4762TIP3   OH235844   0.154   6.536   0.333  0.0633 -0.0282 -0.2903
 4762TIP3    H135845   0.142   6.447   0.300  1.2669  0.2592 -1.6333
 4762TIP3    H235846   0.065   6.569   0.347 -0.4113 -1.2154 -0.3656
 4763TIP3   OH235847   3.265   0.859   7.587  0.3169  0.1449 -0.1078
 4763TIP3    H135848   3.170   0.865   7.595  0.0183 -0.8137 -2.2210
 4763TIP3    H235849   3.294   0.818   7.668 -1.2687 -1.0014 -0.0849
 4764TIP3   OH235850   6.365   3.985   7.819 -0.3808  0.3155  0.0097
 4764TIP3    H135851   6.365   3.928   7.897 -2.7705  0.4838  0.2043
 4764TIP3    H235852   6.388   3.926   7.747  0.4458 -0.1605  0.6415
 4765TIP3   OH235853   0.953   3.718   8.203  0.4996  0.3057  0.1800
 4765TIP3    H135854   1.036   3.742   8.163 -0.0672  0.6726 -0.8259
 4765TIP3    H235855   0.974   3.647   8.263  1.2794 -0.8314 -1.3808
 4766TIP3   OH235856   2.658   3.294   2.667 -0.2078  0.1603 -0.6047
 4766TIP3    H135857   2.575   3.301   2.620  0.1360  0.5288 -1.1595
 4766TIP3    H235858   2.725   3.300   2.599  0.2618 -0.9987 -0.2581
 4767TIP3   OH235859   3.814   0.761   2.603  0.3565 -0.2743  0.1561
 4767TIP3    H135860   3.836   0.827   2.670  0.3270  0.6835 -0.7491
 4767TIP3    H235861   3.719   0.756   2.605  0.3599 -0.3029  0.2433
 4768TIP3   OH235862   1.976   3.598   3.298  0.2796  0.2426  0.3966
 4768TIP3    H135863   1.921   3.593   3.219 -1.8222 -0.3976  1.7969
 4768TIP3    H235864   1.955   3.683   3.337  1.2328  0.5150  0.3411
 4769TIP3   OH235865   3.480   4.654   0.115 -0.4158  0.0520  0.0857
 4769TIP3    H135866   3.553   4.607   0.156  0.8317  3.0043  1.6407
 4769TIP3    H235867   3.498   4.650   0.021  0.1736 -1.6402  0.2405
 4770TIP3   OH235868   0.342   5.858   1.943  0.8101 -0.0715 -0.1300
 4770TIP3    H135869   0.304   5.906   1.869  0.3661 -2.7305 -1.7631
 4770TIP3    H235870   0.269   5.842   2.002  0.2068 -1.5242 -1.2105
 4771TIP3   OH235871   4.234   6.659   2.668  0.2631  0.4453 -0.3056
 4771TIP3    H135872   4.200   6.667   2.579  0.8820  0.9063 -0.5093
 4771TIP3    H235873   4.157   6.645   2.722 -0.3928  2.5939 -0.5953
 4772TIP3   OH235874   6.163   0.882   1.798 -0.3917 -0.3338  0.3021
 4772TIP3    H135875   6.165   0.833   1.881 -2.8687 -0.7860  0.1628
 4772TIP3    H235876   6.185   0.817   1.732  1.1062 -0.0838  0.5166
 4773TIP3   OH235877   3.541   5.768   1.326  0.2027  0.8194 -0.0864
 4773TIP3    H135878   3.555   5.769   1.421 -1.5093  1.5323  0.1837
 4773TIP3    H235879   3.608   5.827   1.292 -0.1664  1.7912  0.8281
 4774TIP3   OH235880   6.415   5.682   0.018 -0.0101  0.2187 -0.5681
 4774TIP3    H135881   6.344   5.742   0.040 -0.5070  0.4799 -2.6994
 4774TIP3    H235882   6.485   5.738  -0.016  0.5132 -0.1976 -0.2032
 4775TIP3   OH235883   1.643   6.376   0.891 -0.1720  0.1095  0.3353
 4775TIP3    H135884   1.709   6.365   0.822 -1.2629 -0.6427 -0.6254
 4775TIP3    H235885   1.584   6.443   0.857  0.1199  0.8379  1.2309
 4776TIP3   OH235886   1.008   3.782   0.272 -0.2463 -0.2005  0.4241
 4776TIP3    H135887   0.935   3.752   0.326 -0.7150  0.3087  0.0866
 4776TIP3    H235888   1.073   3.712   0.280 -0.4566 -0.3123  1.3319
 4777TIP3   OH235889   0.371   1.041   8.367 -0.3633 -0.0210 -0.1590
 4777TIP3    H135890   0.425   1.064   8.291  1.0522 -0.0815  0.8030
 4777TIP3    H235891   0.422   0.977   8.415 -1.5136 -0.4364  0.5552
 4778TIP3   OH235892   1.205   4.003   1.598  0.2097  0.1096 -0.2287
 4778TIP3    H135893   1.228   4.095   1.614  1.7384 -0.0667 -1.2085
 4778TIP3    H235894   1.128   4.006   1.542  1.1341  0.8463 -1.5112
 4779TIP3   OH235895   6.088   3.625   7.604 -0.4132 -0.3405  0.2340
 4779TIP3    H135896   6.036   3.593   7.531 -0.2935  0.6688 -0.3074
 4779TIP3    H235897   6.159   3.562   7.612 -0.9523 -0.9838  0.1109
 4780TIP3   OH235898   6.655   6.304   2.148  0.0030  0.7741 -0.2730
 4780TIP3    H135899   6.690   6.262   2.227  0.3154  3.0610  0.9253
 4780TIP3    H235900   6.563   6.318   2.167  0.3062  2.3113  0.2095
 4781TIP3   OH235901   0.178   0.018   3.025  0.8013  0.7270  0.4437
 4781TIP3    H135902   0.193  -0.076   3.025  0.3805  0.6481 -0.9071
 4781TIP3    H235903   0.228   0.051   2.951 -1.0000  1.2161 -0.6169
 4782TIP3   OH235904   0.423   2.701   2.016  0.2893 -0.2415 -0.1843
 4782TIP3    H135905   0.471   2.667   1.941  0.6611  1.9114 -0.9934
 4782TIP3    H235906   0.381   2.624   2.054  1.2099 -1.6008 -1.7605
 4783TIP3   OH235907   6.138   6.906   1.994  0.0822  0.0411 -0.0314
 4783TIP3    H135908   6.225   6.946   1.998  0.3925 -0.5829 -0.4631
 4783TIP3    H235909   6.122   6.894   1.900  0.1260 -1.1376  0.1059
 4784TIP3   OH235910   6.881   3.787   3.118  0.2971  0.6234 -0.0664
 4784TIP3    H135911   6.916   3.740   3.193  0.3720 -0.0382 -0.5129
 4784TIP3    H235912   6.916   3.876   3.127  0.5365  0.4735  0.5210
 4785TIP3   OH235913   1.027   3.506   2.380 -0.5113 -0.0373  0.3785
 4785TIP3    H135914   0.989   3.572   2.438  1.2300  1.4406 -0.0686
 4785TIP3    H235915   1.041   3.553   2.297  3.1539 -0.1098  0.7974
 4786TIP3   OH235916   4.675   6.936   2.035  0.3313  0.1292  0.1925
 4786TIP3    H135917   4.593   6.982   2.053  0.6348  0.5934  0.4232
 4786TIP3    H235918   4.702   6.902   2.121  1.0040  1.0390  0.3589
 4787TIP3   OH235919   5.003   6.427   2.658  0.0114 -0.2963 -0.4231
 4787TIP3    H135920   4.914   6.428   2.624  0.2634 -0.0203 -1.0982
 4787TIP3    H235921   5.028   6.520   2.663  0.1606 -0.3594  0.0283
 4788TIP3   OH235922   3.508   4.276   0.795 -0.4686 -0.0876 -0.4106
 4788TIP3    H135923   3.428   4.320   0.767 -0.3625  1.9405  2.1480
 4788TIP3    H235924   3.577   4.340   0.781 -0.0770  0.0892  1.9540
 4789TIP3   OH235925   3.441   6.407   2.206  0.2129 -0.1955 -0.5368
 4789TIP3    H135926   3.373   6.426   2.270 -0.1146 -1.9411 -0.3082
 4789TIP3    H235927   3.424   6.467   2.133  0.5043  1.7168  0.8891
 4790TIP3   OH235928   2.975   5.975   8.277  0.3439  0.0913  0.1316
 4790TIP3    H135929   2.955   5.938   8.191 -0.6513  0.6210  0.1117
 4790TIP3    H235930   2.960   6.069   8.267 -1.0364  0.0190  1.2003
 4791TIP3   OH235931   0.513   1.753   7.635  0.7707 -0.1446 -0.0020
 4791TIP3    H135932   0.436   1.724   7.587  0.1105 -1.3953  1.6843
 4791TIP3    H235933   0.501   1.848   7.645 -0.6995 -0.3570  0.4507
 4792TIP3   OH235934   4.404   3.677   1.586  0.7643  0.5810 -0.4424
 4792TIP3    H135935   4.389   3.770   1.572  1.2408  0.6941 -0.2285
 4792TIP3    H235936   4.335   3.650   1.647  1.1840  1.0080  0.2371
 4793TIP3   OH235937   4.318   2.110   7.435 -0.2427  0.1609  0.6489
 4793TIP3    H135938   4.226   2.133   7.422 -0.3483 -0.8723 -0.7183
 4793TIP3    H235939   4.352   2.096   7.347  0.6291 -1.6073  1.2008
 4794TIP3   OH235940   1.926   3.729   1.014  0.1253 -0.4142 -0.2118
 4794TIP3    H135941   1.925   3.738   1.109 -0.3044  0.0384 -0.2557
 4794TIP3    H235942   1.965   3.810   0.983 -3.0234  1.0906 -0.5775
 4795TIP3   OH235943   0.836   1.350   2.380 -0.7899  0.2461 -0.0532
 4795TIP3    H135944   0.916   1.357   2.432  0.9142  2.9243 -2.7266
 4795TIP3    H235945   0.850   1.273   2.324  0.6169  1.4496 -1.4332
 4796TIP3   OH235946   0.627   3.551   1.222 -0.9752  0.1286 -0.2095
 4796TIP3    H135947   0.694   3.502   1.174 -2.2021 -1.4825 -0.3685
 4796TIP3    H235948   0.660   3.640   1.225  0.6911 -0.4130 -1.1618
 4797TIP3   OH235949   0.446   1.393   2.213 -0.4720 -0.1201  0.6380
 4797TIP3    H135950   0.441   1.312   2.161 -0.3703 -0.8877  1.7830
 4797TIP3    H235951   0.400   1.372   2.294 -1.9604  1.5521  0.2907
 4798TIP3   OH235952   4.509   0.822   0.699  0.1201  0.1300 -0.5553
 4798TIP3    H135953   4.483   0.914   0.698 -0.6195 -0.0730 -0.7231
 4798TIP3    H235954   4.452   0.782   0.765  0.1437 -0.2890 -0.7855
 4799TIP3   OH235955   1.023   2.524   7.786  0.6358 -0.4288 -0.1102
 4799TIP3    H135956   1.043   2.481   7.869 -3.2315  0.7244  1.6156
 4799TIP3    H235957   0.952   2.473   7.748 -1.1614  1.8713 -0.0767
 4800TIP3   OH235958   1.943   2.680   2.776 -0.1206 -0.0613  0.7325
 4800TIP3    H135959   1.969   2.760   2.820  0.9012 -0.1470  0.3332
 4800TIP3    H235960   1.999   2.612   2.814  0.9330 -0.1018 -0.7860
 4801TIP3   OH235961   3.914   6.912   0.051  0.2832  0.2314  0.2193
 4801TIP3    H135962   3.872   6.944   0.130 -0.9758 -0.4082 -0.1638
 4801TIP3    H235963   3.846   6.920  -0.017  0.3054 -2.0244 -0.1467
 4802TIP3   OH235964   3.571   1.845   7.780  0.3105 -0.2740  0.1713
 4802TIP3    H135965   3.496   1.846   7.840  0.7362 -2.4522  0.8197
 4802TIP3    H235966   3.545   1.903   7.709 -1.3409  0.2540  1.1470
 4803TIP3   OH235967   2.438   4.891   2.045  0.1302 -0.0516 -0.4574
 4803TIP3    H135968   2.449   4.941   2.127  1.7927  0.4141 -0.9415
 4803TIP3    H235969   2.464   4.802   2.068  2.4342  0.4484 -0.8729
 4804TIP3   OH235970   2.714   4.582   1.470  0.1810  0.1063  0.3576
 4804TIP3    H135971   2.699   4.509   1.410 -0.6284 -0.1968  0.8995
 4804TIP3    H235972   2.737   4.656   1.414 -0.5520 -0.1685 -0.3269
 4805TIP3   OH235973   6.716   1.621   2.291  0.4610 -0.2362 -0.3841
 4805TIP3    H135974   6.671   1.545   2.328  2.6596 -0.8541  1.2548
 4805TIP3    H235975   6.676   1.696   2.334 -0.4713 -0.5901 -0.6101
 4806TIP3   OH235976   6.137   2.035   0.671  0.1795  0.1330  0.5311
 4806TIP3    H135977   6.231   2.014   0.666  0.2426 -0.1023  2.3123
 4806TIP3    H235978   6.114   2.021   0.762 -1.7036 -0.1623  0.0404
 4807TIP3   OH235979   3.336   3.572   2.558  0.1721 -0.5386 -0.3619
 4807TIP3    H135980   3.421   3.526   2.561 -0.7965 -2.5222 -1.1267
 4807TIP3    H235981   3.353   3.656   2.599  2.4629 -0.9646 -0.2695
 4808TIP3   OH235982   4.615   0.748   2.613  0.2198 -0.0140  0.0987
 4808TIP3    H135983   4.584   0.796   2.690  0.7328 -0.0331  0.3204
 4808TIP3    H235984   4.631   0.659   2.645 -3.1216 -1.1073 -0.8249
 4809TIP3   OH235985   0.378   2.878   0.657  0.1207 -0.1346  0.3511
 4809TIP3    H135986   0.446   2.942   0.673  0.2973 -0.2583  0.0955
 4809TIP3    H235987   0.312   2.925   0.606  0.2285 -0.1402  0.2045
 4810TIP3   OH235988   0.724   0.921   2.609 -0.1441 -0.1754 -0.1286
 4810TIP3    H135989   0.713   0.919   2.704 -0.5557 -0.0629 -0.1723
 4810TIP3    H235990   0.701   1.010   2.584 -1.4425 -0.5905 -0.4943
 4811TIP3   OH235991   6.262   5.707   2.050  0.6916  0.4441 -0.1574
 4811TIP3    H135992   6.269   5.654   1.971  0.8778  1.5590 -0.9132
 4811TIP3    H235993   6.322   5.665   2.113  0.5275 -0.4604 -0.5903
 4812TIP3   OH235994   3.673   2.126   1.907 -0.1686  0.5554 -0.1694
 4812TIP3    H135995   3.675   2.213   1.947 -1.6330 -0.0531  1.3309
 4812TIP3    H235996   3.726   2.072   1.966  1.7149  0.6141 -1.7141
 4813TIP3   OH235997   3.726   2.284   7.788  0.2641  0.6395 -0.0919
 4813TIP3    H135998   3.641   2.328   7.789  0.0869  0.3155  0.9710
 4813TIP3    H235999   3.748   2.274   7.696 -0.9659  0.5191 -0.3843
 4814TIP3   OH236000   6.694   0.352   1.819 -0.0804 -0.2609  0.6690
 4814TIP3    H136001   6.779   0.384   1.789 -1.1430  2.6582  0.4539
 4814TIP3    H236002   6.653   0.316   1.740  0.1609  0.2466  0.3036
 4815TIP3   OH236003   2.449   2.989   2.115  0.0312 -0.1944 -0.0203
 4815TIP3    H136004   2.494   2.911   2.148 -0.0757 -0.7487 -1.1334
 4815TIP3    H236005   2.458   3.053   2.185  1.3484 -0.7460  0.3424
 4816TIP3   OH236006   2.621   0.130   0.993 -0.2830 -0.3970  0.5290
 4816TIP3    H136007   2.592   0.123   0.902  1.7306 -0.3552 -0.1677
 4816TIP3    H236008   2.549   0.175   1.038 -0.6537  1.0824 -1.3978
 4817TIP3   OH236009   4.988   6.153   0.552 -0.7198  0.1978  0.0430
 4817TIP3    H136010   4.997   6.180   0.461  0.0023  0.0628  0.0664
 4817TIP3    H236011   5.074   6.119   0.575 -1.1742 -0.6821  0.4815
 4818TIP3   OH236012   1.832   2.067   0.659  0.2879  0.1592 -0.6316
 4818TIP3    H136013   1.915   2.113   0.673 -0.5275  1.9290 -1.3347
 4818TIP3    H236014   1.791   2.113   0.586 -1.1652 -0.8898 -0.5153
 4819TIP3   OH236015   2.079   4.913   0.326  0.1836  0.0749  0.2848
 4819TIP3    H136016   2.026   4.927   0.247  1.2821 -0.7316 -0.6336
 4819TIP3    H236017   2.016   4.886   0.393 -0.8922  1.6250 -0.0451
 4820TIP3   OH236018   3.895   5.730   0.312  0.4158 -0.9623  0.2209
 4820TIP3    H136019   3.967   5.715   0.373  0.2569  0.8256  0.9069
 4820TIP3    H236020   3.937   5.737   0.226  1.2775  1.2416  0.7465
 4821TIP3   OH236021   4.964   4.825   2.426 -0.0824 -0.2596 -0.0252
 4821TIP3    H136022   5.056   4.817   2.400  0.0331 -0.0695  0.3292
 4821TIP3    H236023   4.967   4.850   2.518 -0.4970 -0.8760  0.1578
 4822TIP3   OH236024   4.936   0.150   7.095 -0.7445  0.2707 -0.3337
 4822TIP3    H136025   4.967   0.138   7.184  0.4098 -2.3311 -0.9862
 4822TIP3    H236026   4.976   0.231   7.065  1.4837 -0.4615  0.4993
 4823TIP3   OH236027   5.594   0.255   0.513 -0.5541  0.1196  0.2160
 4823TIP3    H136028   5.594   0.278   0.606 -2.3189  0.4093  0.1638
 4823TIP3    H236029   5.621   0.336   0.469 -2.6568  0.9132  0.3081
 4824TIP3   OH236030   1.357   5.539   1.380  0.1428 -0.0352  0.2889
 4824TIP3    H136031   1.377   5.611   1.440 -2.1619  0.4869  0.4917
 4824TIP3    H236032   1.322   5.581   1.302  0.3440 -0.8808 -0.2726
 4825TIP3   OH236033   0.107   2.102   1.462  0.5952  0.6227  0.0411
 4825TIP3    H136034   0.026   2.146   1.485  0.4678  0.0654  0.6877
 4825TIP3    H236035   0.140   2.150   1.386  0.9303  2.4117  1.2379
 4826TIP3   OH236036   2.106   3.338   7.130  0.4719 -0.5856  0.2893
 4826TIP3    H136037   2.160   3.369   7.202  1.0525  0.5608 -0.6039
 4826TIP3    H236038   2.099   3.243   7.143  0.5518 -0.3924  1.8330
 4827TIP3   OH236039   1.239   6.370   7.725  0.1775 -1.1488  0.3131
 4827TIP3    H136040   1.151   6.350   7.693 -0.5372  0.6526  1.0424
 4827TIP3    H236041   1.284   6.406   7.648 -0.7120  0.7261  0.6106
 4828TIP3   OH236042   1.150   1.276   0.300  0.5470  0.3826 -0.3538
 4828TIP3    H136043   1.077   1.218   0.319 -2.6917  3.6037 -1.7079
 4828TIP3    H236044   1.180   1.249   0.212 -0.4167  0.2928 -0.6652
 4829TIP3   OH236045   5.970   1.418   7.843 -0.2321  0.3208 -0.3473
 4829TIP3    H136046   5.958   1.463   7.760 -0.5890 -0.0023 -0.4716
 4829TIP3    H236047   5.957   1.326   7.823 -1.7158  0.3570  0.3301
 4830TIP3   OH236048   4.100   5.011   3.001 -0.4224  0.2880  0.2570
 4830TIP3    H136049   4.182   4.989   3.047 -0.3749  1.1829  0.6260
 4830TIP3    H236050   4.062   4.927   2.980  1.0621 -0.1716 -0.7686
 4831TIP3   OH236051   2.815   4.104   1.597  0.2487  1.1012 -0.2779
 4831TIP3    H136052   2.792   4.167   1.666  0.4476  0.1600  0.6621
 4831TIP3    H236053   2.731   4.071   1.566  0.1890  0.1136  0.8655
 4832TIP3   OH236054   5.427   2.940   1.830  0.5432  0.8904 -0.1381
 4832TIP3    H136055   5.441   2.850   1.857 -0.7227  0.9857  0.9934
 4832TIP3    H236056   5.487   2.954   1.757  0.5572 -0.9450 -0.5170
 4833TIP3   OH236057   1.994   5.800   0.641  0.8603  0.5056  0.0940
 4833TIP3    H136058   2.013   5.812   0.734  1.5978 -0.0579  0.0289
 4833TIP3    H236059   2.043   5.869   0.598  2.1324 -0.4135 -0.0057
 4834TIP3   OH236060   4.079   0.395   2.224 -0.4694  0.3061 -0.2517
 4834TIP3    H136061   4.099   0.318   2.170  0.4662  1.3336 -1.4117
 4834TIP3    H236062   4.030   0.453   2.165 -2.4970  0.0051  1.0467
 4835TIP3   OH236063   0.687   4.580   0.105 -0.2216  0.4003 -0.4784
 4835TIP3    H136064   0.666   4.647   0.169 -1.5594 -1.1121  0.7614
 4835TIP3    H236065   0.603   4.550   0.072  0.2366 -1.4079 -0.1509
 4836TIP3   OH236066   4.237   0.508   7.989 -0.6347  0.3107 -0.2006
 4836TIP3    H136067   4.218   0.540   8.077 -0.3106  0.1421 -0.0653
 4836TIP3    H236068   4.245   0.413   8.000 -1.3331  0.2078 -0.5520
 4837TIP3   OH236069   1.537   2.691   0.357  0.3980 -0.0239 -0.0186
 4837TIP3    H136070   1.531   2.706   0.263  0.9403  0.9044  0.0773
 4837TIP3    H236071   1.559   2.598   0.365  0.8647  0.0023 -0.8332
 4838TIP3   OH236072   3.339   3.057   7.949 -0.2979  0.2786 -0.9141
 4838TIP3    H136073   3.345   2.973   7.995  1.6100  0.3168 -1.0106
 4838TIP3    H236074   3.352   3.123   8.016  0.4867  0.3987 -1.1690
 4839TIP3   OH236075   6.526   3.770   8.206  0.1160  0.4572 -0.9937
 4839TIP3    H136076   6.456   3.705   8.217 -0.1647  0.9690  0.4633
 4839TIP3    H236077   6.500   3.822   8.131 -1.4625  1.0817 -0.0581
 4840TIP3   OH236078   2.803   4.337   0.329 -0.2616 -0.4442  0.5748
 4840TIP3    H136079   2.850   4.256   0.315 -0.3324 -0.7357  1.9645
 4840TIP3    H236080   2.729   4.313   0.385 -2.2913 -0.0694 -1.7432
 4841TIP3   OH236081   0.692   1.801   1.213  0.2362  0.4660 -0.1346
 4841TIP3    H136082   0.598   1.813   1.199 -0.0198  0.9376  1.7906
 4841TIP3    H236083   0.718   1.871   1.272  1.5735 -0.3341  0.2879
 4842TIP3   OH236084   4.384   2.902   2.033  0.9261  0.6857 -0.0082
 4842TIP3    H136085   4.412   2.946   2.113  0.2652  0.0821  0.5720
 4842TIP3    H236086   4.335   2.826   2.064  0.8390  0.3307 -0.9915
 4843TIP3   OH236087   0.256   6.036   0.774 -0.3189 -0.0006 -0.6849
 4843TIP3    H136088   0.261   5.953   0.823 -1.2833  0.4102  0.1414
 4843TIP3    H236089   0.248   6.009   0.683  1.4336 -0.7860 -0.6386
 4844TIP3   OH236090   6.732   4.734   0.632  0.0202 -0.7705 -0.6468
 4844TIP3    H136091   6.756   4.785   0.555  1.6524 -3.7511 -2.2884
 4844TIP3    H236092   6.641   4.708   0.616 -0.7486  1.3083  0.1014
 4845TIP3   OH236093   2.844   0.075   8.041  0.9727  0.2361  0.1244
 4845TIP3    H136094   2.787   0.152   8.031  1.3989  0.5713  0.2521
 4845TIP3    H236095   2.837   0.029   7.958 -0.4988 -0.4281  0.5801
 4846TIP3   OH236096   3.367   1.657   6.785 -0.0545  0.0111  0.4846
 4846TIP3    H136097   3.431   1.622   6.846  1.6684 -0.2439 -1.3741
 4846TIP3    H236098   3.404   1.640   6.698 -2.0870  0.9309 -0.6391
 4847TIP3   OH236099   1.459   1.664   8.177  0.0777  0.3259  0.5851
 4847TIP3    H136100   1.478   1.711   8.096 -0.0188  0.0499  0.3998
 4847TIP3    H236101   1.544   1.653   8.219  0.3119 -0.6640 -0.1075
 4848TIP3   OH236102   4.443   0.491   1.307 -0.5070 -0.1814  0.3718
 4848TIP3    H136103   4.387   0.429   1.353  0.9582 -0.1866  2.3071
 4848TIP3    H236104   4.385   0.562   1.281 -1.8494 -1.4172 -0.1124
 4849TIP3   OH236105   4.664   3.149   1.837 -0.0711 -0.3581  0.6802
 4849TIP3    H136106   4.694   3.220   1.893  2.0081 -0.6550  0.0035
 4849TIP3    H236107   4.710   3.161   1.754 -1.9726 -0.7730 -0.5198
 4850TIP3   OH236108   3.197   4.924   1.410  0.4473  0.2457 -0.1889
 4850TIP3    H136109   3.185   4.992   1.477 -0.2133 -0.7399  0.7160
 4850TIP3    H236110   3.142   4.953   1.336 -0.4663  0.2990  0.4984
 4851TIP3   OH236111   4.546   3.551   0.102  0.2803 -0.3585  0.0612
 4851TIP3    H136112   4.496   3.534   0.022 -0.9476  2.3227  0.1303
 4851TIP3    H236113   4.480   3.577   0.166  1.4450 -0.3117  1.2873
 4852TIP3   OH236114   2.069   4.642   1.185  0.1101 -0.2181  0.1116
 4852TIP3    H136115   2.122   4.721   1.192 -0.9380  0.7256 -1.8471
 4852TIP3    H236116   1.981   4.673   1.165 -0.5206 -1.8536  0.1719
 4853TIP3   OH236117   0.969   2.774   1.371  0.0362  0.0220 -0.4997
 4853TIP3    H136118   0.919   2.696   1.396  1.0276 -1.5887 -3.1422
 4853TIP3    H236119   0.919   2.813   1.299  0.5120  0.7467 -0.4506
 4854TIP3   OH236120   4.108   2.712   7.189  0.0050  0.1608 -0.1453
 4854TIP3    H136121   4.102   2.618   7.174  0.1095  0.1210  0.0600
 4854TIP3    H236122   4.025   2.735   7.231 -0.4389  0.3346 -1.1035
 4855TIP3   OH236123   5.210   2.041   2.337 -0.2253 -0.0956  0.4179
 4855TIP3    H136124   5.217   2.114   2.275 -1.4993 -0.0210  0.3464
 4855TIP3    H236125   5.137   2.064   2.393 -0.3730 -1.1314  0.6684
 4856TIP3   OH236126   3.214   6.556   2.277  0.4256  0.5109  0.0644
 4856TIP3    H136127   3.155   6.498   2.324  2.0342  0.5830  2.3817
 4856TIP3    H236128   3.172   6.642   2.280 -1.1493 -0.1328 -1.8609
 4857TIP3   OH236129   3.249   0.583   0.410  0.5065  0.1244 -0.6698
 4857TIP3    H136130   3.258   0.505   0.465  0.1134  0.1769 -0.5296
 4857TIP3    H236131   3.276   0.554   0.323  2.6791  0.4414 -0.1511
 4858TIP3   OH236132   3.151   6.016   7.354 -0.1687  1.1637  0.2860
 4858TIP3    H136133   3.180   5.994   7.266  1.3772  1.5880  0.6542
 4858TIP3    H236134   3.060   6.043   7.344 -0.4410 -0.1126 -0.9617
 4859TIP3   OH236135   6.444   2.803   1.721 -0.2841 -0.0059  0.5616
 4859TIP3    H136136   6.454   2.727   1.664  1.9661  0.6889 -0.0839
 4859TIP3    H236137   6.354   2.832   1.708 -1.1999 -2.5150  0.8332
 4860TIP3   OH236138   0.373   2.560   2.509 -0.4463  0.1389  0.9213
 4860TIP3    H136139   0.390   2.466   2.507 -1.7782 -0.1763  2.5289
 4860TIP3    H236140   0.283   2.568   2.541 -1.0185  1.9188 -0.8898
 4861TIP3   OH236141   1.021   5.394   8.021 -0.2455 -0.4911 -0.8224
 4861TIP3    H136142   1.082   5.326   8.048  0.7903  0.2081 -1.3653
 4861TIP3    H236143   1.074   5.473   8.012 -1.1361  0.0360 -1.7278
 4862TIP3   OH236144   5.557   5.325   0.249 -0.8186  0.2590  0.7751
 4862TIP3    H136145   5.638   5.328   0.301  0.2399 -0.1214 -0.7822
 4862TIP3    H236146   5.538   5.417   0.230  0.5247  0.2939 -0.6655
 4863TIP3   OH236147   1.816   4.643   8.366  0.3687 -0.4308  0.1791
 4863TIP3    H136148   1.890   4.593   8.332 -0.3476 -0.5721 -1.2210
 4863TIP3    H236149   1.742   4.617   8.312 -0.2236  1.4361  0.0098
 4864TIP3   OH236150   4.941   6.047   2.512  0.1989 -0.3531 -0.8211
 4864TIP3    H136151   4.910   6.057   2.421 -0.3588  1.4183 -0.4836
 4864TIP3    H236152   4.936   5.953   2.529 -0.4691 -0.6306 -2.3598
 4865TIP3   OH236153   5.295   1.184   7.721  0.2137  0.7754  0.1943
 4865TIP3    H136154   5.282   1.179   7.816 -0.0776  2.1771  0.2497
 4865TIP3    H236155   5.329   1.098   7.697 -2.6008 -0.7209  1.0949
 4866TIP3   OH236156   3.635   4.315   0.428  0.4583  0.1649 -0.0823
 4866TIP3    H136157   3.684   4.370   0.488 -0.5286  2.2735 -1.1169
 4866TIP3    H236158   3.546   4.315   0.461  0.0642  0.7260 -1.0940
 4867TIP3   OH236159   4.971   5.021   7.811  0.3640  0.2546 -1.1129
 4867TIP3    H136160   5.015   4.947   7.852  0.3665 -0.5273 -2.4710
 4867TIP3    H236161   5.042   5.081   7.788  0.5608 -0.1794 -1.6681
 4868TIP3   OH236162   1.157   4.882   2.265 -0.0486 -0.8291  0.3294
 4868TIP3    H136163   1.095   4.819   2.228  1.5353 -2.1531 -0.2263
 4868TIP3    H236164   1.223   4.827   2.309  0.9432  0.4837  0.5437
 4869TIP3   OH236165   1.691   5.642   3.535 -0.5990  0.3473  0.1862
 4869TIP3    H136166   1.626   5.640   3.465 -0.2146  1.2932 -0.2170
 4869TIP3    H236167   1.694   5.553   3.569 -2.0524  0.2803  0.1653
 4870TIP3   OH236168   1.215   0.958   1.699  0.0368  0.7765  0.1637
 4870TIP3    H136169   1.249   1.048   1.696 -1.0151  1.2492  1.3083
 4870TIP3    H236170   1.137   0.961   1.643  0.3031  0.4272 -0.2280
 4871TIP3   OH236171   3.128   3.677   0.582  0.4874 -0.6656  0.2421
 4871TIP3    H136172   3.056   3.740   0.586 -1.1849 -2.5129  0.8691
 4871TIP3    H236173   3.095   3.607   0.526  1.8757 -1.4770  0.4059
 4872TIP3   OH236174   2.905   4.452   2.910 -0.1506 -0.4367  0.6750
 4872TIP3    H136175   2.930   4.390   2.979 -2.1827 -1.7429  0.3313
 4872TIP3    H236176   2.907   4.538   2.952 -0.6168 -1.1273  2.1698
 4873TIP3   OH236177   1.076   0.729   2.903  0.6179  0.1528 -0.5325
 4873TIP3    H136178   1.082   0.751   2.811 -0.7999  0.1775 -0.6442
 4873TIP3    H236179   1.147   0.778   2.945  1.5013 -0.1359 -1.6361
 4874TIP3   OH236180   4.607   6.505   0.662 -0.0168  0.0300 -0.0662
 4874TIP3    H136181   4.679   6.443   0.646 -0.6778 -0.6811 -0.3877
 4874TIP3    H236182   4.641   6.564   0.729  0.0391 -1.7778  1.6221
 4875TIP3   OH236183   2.772   3.527   8.207  0.3672  0.0980  0.0142
 4875TIP3    H136184   2.707   3.525   8.277  0.5636  0.9886  0.2315
 4875TIP3    H236185   2.733   3.582   8.139  0.7456  0.3511 -0.0023
 4876TIP3   OH236186   5.586   0.334   3.237  0.4975 -0.0722  0.0920
 4876TIP3    H136187   5.503   0.333   3.191  0.1928  0.1945  0.6271
 4876TIP3    H236188   5.650   0.360   3.171 -0.0464  1.1047 -0.0065
 4877TIP3   OH236189   1.319   2.828   2.176  0.1155 -0.3106 -0.5472
 4877TIP3    H136190   1.379   2.902   2.165  0.4541 -0.2127  1.5990
 4877TIP3    H236191   1.233   2.868   2.185  0.3199 -0.1305  0.7871
 4878TIP3   OH236192   6.136   5.583   0.863  0.0838  0.4343  0.4229
 4878TIP3    H136193   6.117   5.596   0.771  1.2723 -0.8906 -0.0400
 4878TIP3    H236194   6.184   5.662   0.889  0.7422  0.3119 -0.3915
 4879TIP3   OH236195   0.951   0.424   7.991  0.8842 -0.4671  0.1424
 4879TIP3    H136196   0.930   0.337   8.027  1.5244 -0.7246 -0.0826
 4879TIP3    H236197   0.990   0.405   7.906  0.8441  0.0583  0.0057
 4880TIP3   OH236198   5.547   2.913   7.548  0.6633  0.2083 -0.3621
 4880TIP3    H136199   5.493   2.879   7.476 -0.0672 -2.7225  1.4194
 4880TIP3    H236200   5.566   2.836   7.602  1.9359  2.1431  2.1174
 4881TIP3   OH236201   3.902   4.883   1.916 -0.1982 -0.0105  0.6316
 4881TIP3    H136202   3.838   4.851   1.979  0.4953  0.9509  1.8685
 4881TIP3    H236203   3.885   4.832   1.836 -1.3305 -0.9986  1.4697
 4882TIP3   OH236204   6.481   2.328   2.137 -0.8723 -0.2887  0.3398
 4882TIP3    H136205   6.390   2.305   2.158 -0.9830 -0.3246 -0.1468
 4882TIP3    H236206   6.473   2.394   2.068 -0.5345  0.2630  0.8320
 4883TIP3   OH236207   0.634   5.048   8.107  0.1827 -0.3083  0.8710
 4883TIP3    H136208   0.623   5.012   8.194  1.6120  0.8502  1.5725
 4883TIP3    H236209   0.710   5.002   8.071  0.5437  0.2820  0.8559
 4884TIP3   OH236210   4.927   3.929   1.811 -0.4719 -0.5268 -0.2899
 4884TIP3    H136211   4.886   3.971   1.887  0.3488 -1.8341  0.9218
 4884TIP3    H236212   5.007   3.891   1.845  0.0966 -0.8454 -1.9140
 4885TIP3   OH236213   4.074   3.393   0.994 -0.1631  0.3725 -0.1946
 4885TIP3    H136214   4.113   3.337   0.927  0.6569 -0.4976  0.9871
 4885TIP3    H236215   4.125   3.474   0.989  0.9428 -0.2626  0.4202
 4886TIP3   OH236216   2.550   5.837   7.445 -0.1951  0.1686  0.2994
 4886TIP3    H136217   2.526   5.815   7.355  1.7697  0.0074 -0.2434
 4886TIP3    H236218   2.529   5.758   7.496 -0.5417 -0.0479 -0.1820
 4887TIP3   OH236219   4.857   2.381   8.365 -0.5016  0.2179  0.2394
 4887TIP3    H136220   4.928   2.435   8.400  1.9193 -1.4541 -1.7011
 4887TIP3    H236221   4.866   2.297   8.411 -2.0598  0.3580  0.8370
 4888TIP3   OH236222   4.239   4.348   0.034  0.2717  0.4380 -0.0517
 4888TIP3    H136223   4.256   4.440   0.014 -0.3174  0.2632 -1.5305
 4888TIP3    H236224   4.165   4.325  -0.022 -0.6541 -0.5143  1.4956
 4889TIP3   OH236225   5.874   0.312   1.690 -0.1106 -0.5929 -0.2674
 4889TIP3    H136226   5.937   0.290   1.758 -0.3554 -2.0985 -0.4915
 4889TIP3    H236227   5.902   0.262   1.614 -0.1586  0.6514 -1.1291
 4890TIP3   OH236228   6.004   1.637   2.623 -0.2230 -0.4997  0.7485
 4890TIP3    H136229   5.998   1.623   2.717 -0.5430  1.1710  1.0040
 4890TIP3    H236230   6.075   1.701   2.612 -1.1133  0.3999  0.0084
 4891TIP3   OH236231   6.684   5.753   0.279 -0.1153  0.4240 -0.0087
 4891TIP3    H136232   6.654   5.683   0.338  0.1078  0.5325  0.2360
 4891TIP3    H236233   6.710   5.707   0.199  1.3733  0.0581  0.6501
 4892TIP3   OH236234   5.565   3.137   7.712  0.1770 -0.5166  0.2105
 4892TIP3    H136235   5.576   3.084   7.633  2.5167 -0.0093  0.1241
 4892TIP3    H236236   5.517   3.214   7.682  1.8269  0.1097 -0.9773
 4893TIP3   OH236237   6.331   5.999   2.205  0.1586  0.0835  0.5448
 4893TIP3    H136238   6.305   5.950   2.127 -0.6115 -0.2076  0.9817
 4893TIP3    H236239   6.255   5.997   2.262  1.1230 -0.7815  1.8625
 4894TIP3   OH236240   2.972   1.489   8.056  0.5113  0.6777  0.4247
 4894TIP3    H136241   3.004   1.509   7.968  1.6997  1.9883  1.1094
 4894TIP3    H236242   3.051   1.474   8.108 -0.2132 -1.9061  0.9142
 4895TIP3   OH236243   2.196   0.004   2.166  0.3123 -0.1048  0.1987
 4895TIP3    H136244   2.264   0.054   2.211  0.9349 -1.0872  0.3670
 4895TIP3    H236245   2.119   0.013   2.222  1.0583 -1.2510  1.4584
 4896TIP3   OH236246   0.945   2.787   2.485 -0.2435  0.1678  0.7004
 4896TIP3    H136247   0.867   2.754   2.440 -0.7075  0.9488  0.9064
 4896TIP3    H236248   0.924   2.777   2.578 -1.3640  3.0277  0.8666
 4897TIP3   OH236249   4.135   4.357   1.660 -0.2648  0.0540 -0.8073
 4897TIP3    H136250   4.047   4.327   1.638 -0.7717  0.0474  1.0964
 4897TIP3    H236251   4.154   4.318   1.745  1.9165 -0.5627 -1.5119
 4898TIP3   OH236252   5.012   5.139   1.202 -0.1659 -0.0215 -0.0083
 4898TIP3    H136253   5.079   5.080   1.237 -0.9971 -1.5853 -0.9418
 4898TIP3    H236254   5.061   5.212   1.166  0.9040 -0.1403  1.1222
 4899TIP3   OH236255   6.560   0.308   1.283  0.3487 -0.0905 -0.4996
 4899TIP3    H136256   6.472   0.272   1.270 -0.4976  1.4141  0.7761
 4899TIP3    H236257   6.550   0.402   1.269  1.2284  0.4268  1.9305
 4900TIP3   OH236258   6.651   1.329   7.450 -0.4459 -0.2439  0.2675
 4900TIP3    H136259   6.706   1.300   7.523  0.3623 -1.4604 -0.7729
 4900TIP3    H236260   6.707   1.390   7.401 -0.3317 -0.7750 -0.2794
 4901TIP3   OH236261   6.730   1.768   1.538 -0.3487 -0.5370 -0.4303
 4901TIP3    H136262   6.748   1.695   1.598 -0.8387 -1.6814 -1.6121
 4901TIP3    H236263   6.705   1.725   1.456 -2.2773  0.9497 -0.6929
 4902TIP3   OH236264   3.446   2.604   0.626 -0.0001  0.0224  0.0745
 4902TIP3    H136265   3.352   2.617   0.623 -0.2312  0.0661  3.6682
 4902TIP3    H236266   3.457   2.509   0.639  0.2796  0.2903  2.0346
 4903TIP3   OH236267   0.830   4.776   1.557  0.1945  0.3719  0.6363
 4903TIP3    H136268   0.843   4.856   1.608 -0.8493 -0.0625  1.6427
 4903TIP3    H236269   0.919   4.749   1.532  0.7288  0.7664  1.9988
 4904TIP3   OH236270   1.356   6.473   8.397  0.0963  0.6787  0.5515
 4904TIP3    H136271   1.379   6.492   8.306  0.2961  0.3295  0.5277
 4904TIP3    H236272   1.425   6.516   8.448  0.1839  0.5700  0.5244
 4905TIP3   OH236273   0.013   4.364   0.963 -0.3298  0.0799  0.1391
 4905TIP3    H136274  -0.021   4.416   0.890  0.5082 -0.5712 -0.7334
 4905TIP3    H236275  -0.055   4.370   1.030 -1.1746  0.5864 -0.7405
 4906TIP3   OH236276   5.266   2.431   2.331  0.2618 -0.2295 -0.0799
 4906TIP3    H136277   5.286   2.481   2.410  0.6613 -2.1425  1.0700
 4906TIP3    H236278   5.177   2.459   2.307 -0.0000  0.1286  1.2456
 4907TIP3   OH236279   0.821   5.927   0.533  0.1983 -0.4137 -0.2261
 4907TIP3    H136280   0.905   5.889   0.559  0.2988  0.1225  0.2662
 4907TIP3    H236281   0.781   5.955   0.616 -0.1384 -0.0036 -0.5199
 4908TIP3   OH236282   6.948   6.537   1.294  0.9449 -0.7165  0.2828
 4908TIP3    H136283   6.870   6.590   1.277  0.2035 -0.6805  3.2638
 4908TIP3    H236284   6.925   6.450   1.264  2.5974  0.4733 -5.8377
 4909TIP3   OH236285   5.945   4.527   0.089 -0.0806 -0.0331  0.8610
 4909TIP3    H136286   6.000   4.587   0.138 -1.9543 -0.0742  3.1726
 4909TIP3    H236287   5.948   4.445   0.138 -1.0138 -0.4867  0.2015
 4910TIP3   OH236288   5.747   2.195   2.073 -0.0063 -0.0481 -0.1299
 4910TIP3    H136289   5.784   2.117   2.115 -0.9412 -0.4033  0.0503
 4910TIP3    H236290   5.714   2.164   1.989 -0.3307  0.1651 -0.0822
 4911TIP3   OH236291   3.808   0.485   6.576 -0.0970  0.2230  0.0632
 4911TIP3    H136292   3.831   0.489   6.483  0.3445  0.4863  0.1797
 4911TIP3    H236293   3.718   0.517   6.580  0.1621  1.0162 -0.1866
 4912TIP3   OH236294   6.540   4.283   8.336 -0.0341 -0.2758 -0.1374
 4912TIP3    H136295   6.596   4.278   8.414 -0.7506  2.0900  0.6163
 4912TIP3    H236296   6.465   4.228   8.357 -0.2211  0.3428  0.8764
 4913TIP3   OH236297   4.735   6.487   2.588 -0.2759  0.0154 -0.0478
 4913TIP3    H136298   4.780   6.568   2.611  0.1804 -0.9344  2.7872
 4913TIP3    H236299   4.642   6.508   2.596 -0.2408  0.7454 -1.3223
 4914TIP3   OH236300   4.643   2.824   2.678  0.2548  0.2159 -0.2974
 4914TIP3    H136301   4.670   2.900   2.625  2.5685  0.7563  1.4968
 4914TIP3    H236302   4.667   2.848   2.767 -2.8626 -0.9760  0.9662
 4915TIP3   OH236303   4.979   0.874   2.330  0.2765 -0.0952 -0.2191
 4915TIP3    H136304   4.971   0.795   2.276 -0.9548  0.2909 -0.6350
 4915TIP3    H236305   4.888   0.901   2.346  0.6012 -0.0399  1.8341
 4916TIP3   OH236306   3.685   4.536   0.221 -0.7644 -0.0123  0.4199
 4916TIP3    H136307   3.766   4.568   0.182 -1.0449 -0.0510 -0.2072
 4916TIP3    H236308   3.714   4.470   0.285 -0.3509 -0.9316 -0.6823
 4917TIP3   OH236309   2.549   5.879   7.843  0.7101 -0.2400 -0.9381
 4917TIP3    H136310   2.604   5.927   7.780  0.5841  0.7451 -0.3185
 4917TIP3    H236311   2.608   5.814   7.880  1.7133  1.2595  0.2378
 4918TIP3   OH236312   1.839   2.556   0.509 -0.2236  0.0912 -0.2498
 4918TIP3    H136313   1.930   2.542   0.483 -0.7031 -1.7213 -1.0638
 4918TIP3    H236314   1.819   2.483   0.568 -0.4124  1.8815  2.0755
 4919TIP3   OH236315   1.043   4.544   2.673 -0.1124  0.1251  0.4460
 4919TIP3    H136316   1.115   4.483   2.688 -1.1174 -1.3768 -0.4863
 4919TIP3    H236317   0.990   4.539   2.752  1.1721  1.8330  1.4630
 4920TIP3   OH236318   4.818   5.023   2.822 -0.6217  0.4410  0.5695
 4920TIP3    H136319   4.829   4.985   2.909 -1.6598 -0.5255  0.3051
 4920TIP3    H236320   4.883   4.979   2.767  1.3346  2.3777  1.1900
 4921TIP3   OH236321   1.067   1.277   2.968  0.1830  0.3330  0.3177
 4921TIP3    H136322   1.057   1.198   2.916  1.3062 -0.1955  0.8705
 4921TIP3    H236323   1.120   1.335   2.913  2.9047 -0.8970  1.4808
 4922TIP3   OH236324   4.764   3.992   0.152  0.5811 -0.2963  1.1359
 4922TIP3    H136325   4.819   3.924   0.191  1.9527 -0.3611 -0.7610
 4922TIP3    H236326   4.732   3.954   0.070 -1.0876  0.3097  1.4458
 4923TIP3   OH236327   5.254   1.249   3.574 -0.6975  0.5166  0.2785
 4923TIP3    H136328   5.339   1.282   3.546 -0.3582  0.8621  1.6412
 4923TIP3    H236329   5.235   1.178   3.513  0.5161  0.5103 -0.1237
 4924TIP3   OH236330   2.314   1.122   0.424  0.2551  0.0550 -0.0559
 4924TIP3    H136331   2.219   1.127   0.433  0.4346  1.2354  1.9883
 4924TIP3    H236332   2.343   1.075   0.502  1.2632 -2.3629 -1.7654
 4925TIP3   OH236333   3.836   0.006   2.404  0.7257  0.2035  0.3485
 4925TIP3    H136334   3.826  -0.014   2.311 -3.8958 -0.8881  0.8069
 4925TIP3    H236335   3.791  -0.066   2.448 -1.6192  3.0331  3.0633
 4926TIP3   OH236336   1.481   5.992   2.534 -0.1611 -0.3826 -0.6841
 4926TIP3    H136337   1.392   6.013   2.563  0.0789 -0.7935  0.3606
 4926TIP3    H236338   1.520   5.944   2.606  0.9478 -0.1515 -1.1027
 4927TIP3   OH236339   5.461   6.258   0.227 -0.1640 -0.1204  0.2907
 4927TIP3    H136340   5.418   6.311   0.160 -2.7739 -2.7341 -0.3298
 4927TIP3    H236341   5.503   6.187   0.179  0.1291 -0.6440  1.2805
 4928TIP3   OH236342   1.456   0.856   1.544  0.0967  0.1210  0.1795
 4928TIP3    H136343   1.417   0.920   1.485 -0.0076 -2.4219 -2.7709
 4928TIP3    H236344   1.413   0.870   1.628 -2.1043  1.8925 -1.1549
 4929TIP3   OH236345   3.940   0.122   0.737  0.0616 -0.1549 -0.4558
 4929TIP3    H136346   3.913   0.034   0.761  1.8950 -0.7373 -0.4002
 4929TIP3    H236347   3.903   0.136   0.650  0.2332 -1.2070 -0.7038
 4930TIP3   OH236348   0.321   2.340   8.140  0.1336 -0.2011 -0.5919
 4930TIP3    H136349   0.303   2.327   8.233  1.3480 -1.8646 -0.5305
 4930TIP3    H236350   0.255   2.288   8.095 -1.2553  1.6130 -0.7569
 4931TIP3   OH236351   6.385   0.275   0.766  0.4322 -0.1754  0.3302
 4931TIP3    H136352   6.341   0.330   0.701  1.9258  0.7185  0.0306
 4931TIP3    H236353   6.425   0.338   0.827  2.5966 -0.8702 -0.2886
 4932TIP3   OH236354   0.463   4.727   1.139  0.2216 -0.5314  0.1225
 4932TIP3    H136355   0.390   4.695   1.191 -0.3717 -0.4878 -0.6668
 4932TIP3    H236356   0.536   4.732   1.201 -1.0121  1.7616  1.5533
 4933TIP3   OH236357   1.707   2.594   1.023 -0.6116  0.3695  0.0187
 4933TIP3    H136358   1.671   2.663   0.967 -2.2331 -0.4721 -0.0366
 4933TIP3    H236359   1.730   2.524   0.963 -1.1443 -0.0267  0.2635
 4934TIP3   OH236360   6.670   6.189   1.875 -0.4018 -0.3517  0.2723
 4934TIP3    H136361   6.713   6.221   1.954 -0.0665 -1.7855  0.7007
 4934TIP3    H236362   6.607   6.124   1.906 -0.9986 -0.1957 -0.5678
 4935TIP3   OH236363   3.112   3.236   7.788 -0.1782 -0.3743 -0.1080
 4935TIP3    H136364   3.155   3.321   7.774 -0.5693  0.1082  1.4130
 4935TIP3    H236365   3.099   3.232   7.883  0.2170 -2.3296 -0.1067
 4936TIP3   OH236366   0.056   3.827   2.493 -0.6880  0.5493  0.5471
 4936TIP3    H136367   0.085   3.839   2.584 -1.0725 -0.0337  0.7513
 4936TIP3    H236368   0.114   3.759   2.458  0.3017  1.6675 -0.0508
 4937TIP3   OH236369   0.380   6.007   2.573 -0.4667 -0.0199  0.1860
 4937TIP3    H136370   0.369   5.916   2.548 -1.1016  0.2405 -0.5115
 4937TIP3    H236371   0.298   6.050   2.549  0.1243  0.9020 -0.2689
 4938TIP3   OH236372   0.786   4.837   7.746 -0.0216  0.6577 -0.3544
 4938TIP3    H136373   0.877   4.806   7.749 -0.2634 -0.4367 -2.3001
 4938TIP3    H236374   0.792   4.931   7.763  1.1792  0.2354  1.9065
 4939TIP3   OH236375   0.082   5.955   2.710 -0.2265 -0.1414 -0.5845
 4939TIP3    H136376   0.113   5.865   2.703  2.6468  0.5055  1.7947
 4939TIP3    H236377   0.015   5.953   2.779  0.8322 -0.3061  0.4703
 4940TIP3   OH236378   0.503   5.160   7.684  0.3795 -0.6447 -0.4267
 4940TIP3    H136379   0.430   5.220   7.668 -1.0872 -2.2029  0.0552
 4940TIP3    H236380   0.574   5.193   7.630  0.4871  2.9174  1.5587
 4941TIP3   OH236381   2.238   6.863   7.263 -0.4582  0.0574  0.4497
 4941TIP3    H136382   2.250   6.883   7.356  1.5683 -0.6633  0.3967
 4941TIP3    H236383   2.203   6.773   7.263 -0.7182  0.1579  0.5204
 4942TIP3   OH236384   6.236   2.428   3.155 -0.4297 -0.7939  0.1433
 4942TIP3    H136385   6.222   2.353   3.213  1.2617 -1.8878 -0.7723
 4942TIP3    H236386   6.153   2.475   3.156  0.2038  1.0267  5.7357
 4943TIP3   OH236387   2.737   2.026   1.627 -0.4380  0.3229 -0.3288
 4943TIP3    H136388   2.646   2.043   1.649 -0.9174  0.0605 -1.9944
 4943TIP3    H236389   2.735   1.990   1.538  1.1785 -1.0903  0.1484
 4944TIP3   OH236390   6.660   2.267   3.006 -0.3880  0.3593 -0.4543
 4944TIP3    H136391   6.603   2.294   3.078  0.3532  0.9166 -0.0585
 4944TIP3    H236392   6.674   2.348   2.956 -1.6267 -0.1933 -1.7708
 4945TIP3   OH236393   3.448   0.327   0.064  0.0370 -0.4533  0.7141
 4945TIP3    H136394   3.525   0.271   0.075 -0.8711 -1.6729  1.0253
 4945TIP3    H236395   3.373   0.267   0.066 -0.8492  0.4364 -1.5848
 4946TIP3   OH236396   3.235   1.058   6.945  0.0426  0.2283  0.5441
 4946TIP3    H136397   3.295   1.120   6.905  0.0029 -0.6538 -0.9534
 4946TIP3    H236398   3.284   0.976   6.950 -0.4447 -0.0456  0.9776
 4947TIP3   OH236399   0.301   5.231   2.247 -1.1443  0.8791 -0.0003
 4947TIP3    H136400   0.229   5.190   2.295 -0.8452  0.2291 -0.0954
 4947TIP3    H236401   0.360   5.263   2.315 -0.4012 -0.6084  0.0923
 4948TIP3   OH236402   3.914   4.913   0.768  0.1689 -0.2931 -0.0399
 4948TIP3    H136403   3.955   4.886   0.686 -1.9908 -1.4904 -0.8185
 4948TIP3    H236404   3.947   5.001   0.784 -0.8682  0.8305 -3.3203
 4949TIP3   OH236405   3.564   0.281   0.589 -0.6433 -0.4172 -0.2148
 4949TIP3    H136406   3.605   0.362   0.622 -2.2097  0.1147  0.5075
 4949TIP3    H236407   3.585   0.215   0.656  0.9190 -0.7477 -0.9641
 4950TIP3   OH236408   2.064   5.900   1.018 -0.1650  0.1677  0.6074
 4950TIP3    H136409   2.150   5.873   1.049 -0.2024 -0.3817  0.2482
 4950TIP3    H236410   2.008   5.895   1.096  0.2719  1.2364  1.0116
 4951TIP3   OH236411   2.544   0.084   0.696 -0.4941  0.1341  0.0279
 4951TIP3    H136412   2.499   0.013   0.649 -1.2078  0.7856 -0.2989
 4951TIP3    H236413   2.515   0.163   0.651  0.8094  0.5943 -0.0229
 4952TIP3   OH236414   2.152   4.421   1.318 -0.0232  0.4953  0.2567
 4952TIP3    H136415   2.116   4.499   1.275 -0.9004 -0.4091 -0.7147
 4952TIP3    H236416   2.087   4.399   1.385 -0.0637  0.2570  0.1376
 4953TIP3   OH236417   4.527   6.783   0.550 -0.3216  0.2872  0.3588
 4953TIP3    H136418   4.614   6.756   0.522 -0.3632 -0.8413  1.2406
 4953TIP3    H236419   4.474   6.704   0.545 -1.3630  1.0038 -0.3521
 4954TIP3   OH236420   1.961   2.258   6.949 -0.2690 -0.0495  0.2997
 4954TIP3    H136421   2.051   2.262   6.916  0.1195 -1.2118  1.1442
 4954TIP3    H236422   1.947   2.341   6.994 -0.2906  0.9298 -1.4378
 4955TIP3   OH236423   2.265   4.739   0.209  0.2268  0.3318  0.4001
 4955TIP3    H136424   2.187   4.794   0.220  0.7776  1.1386  0.3750
 4955TIP3    H236425   2.306   4.737   0.296  0.5306  0.4585  0.2610
 4956TIP3   OH236426   5.266   3.648   0.610 -0.2730 -0.2176 -0.4716
 4956TIP3    H136427   5.286   3.559   0.640 -1.6072 -0.5537 -0.5144
 4956TIP3    H236428   5.308   3.654   0.524  0.0181 -0.7159 -0.3705
 4957TIP3   OH236429   4.037   3.922   1.109  0.2379 -0.1911 -0.0728
 4957TIP3    H136430   4.102   3.991   1.112 -2.0477  2.0878  0.5342
 4957TIP3    H236431   4.029   3.891   1.199  0.0737 -0.0471 -0.0370
 4958TIP3   OH236432   6.509   1.049   7.873 -0.5890  0.3321 -0.6902
 4958TIP3    H136433   6.603   1.032   7.881  0.0969  2.4725 -2.7260
 4958TIP3    H236434   6.473   0.972   7.829  0.8712  0.6971 -2.6786
 4959TIP3   OH236435   0.263   4.826   1.836 -0.2088  0.2692  0.3440
 4959TIP3    H136436   0.290   4.901   1.782  1.3753 -0.0117  0.6850
 4959TIP3    H236437   0.243   4.865   1.921  0.6649  0.3331  0.5365
 4960TIP3   OH236438   6.715   0.297   0.527  0.4343 -0.5691 -0.0734
 4960TIP3    H136439   6.706   0.269   0.618  1.1790 -0.1283  0.1447
 4960TIP3    H236440   6.740   0.390   0.533  1.3128 -0.7539 -0.6977
 4961TIP3   OH236441   2.682   0.378   1.562 -0.1478  0.1956 -0.1985
 4961TIP3    H136442   2.723   0.354   1.645 -1.3282  2.4596  1.1510
 4961TIP3    H236443   2.589   0.388   1.583 -0.7732 -0.8539 -2.2246
 4962TIP3   OH236444   5.894   3.774   7.096 -0.0785  0.1001  0.2225
 4962TIP3    H136445   5.938   3.712   7.039 -0.0773  1.1346 -0.9601
 4962TIP3    H236446   5.828   3.723   7.143  0.4083 -0.9052 -0.1812
 4963TIP3   OH236447   4.040   2.273   0.925 -0.0114 -0.3248 -0.6056
 4963TIP3    H136448   3.992   2.191   0.939  0.4358 -0.8221 -1.9002
 4963TIP3    H236449   4.082   2.263   0.840  0.8743  0.8586 -0.3368
 4964TIP3   OH236450   3.047   0.344   1.183  0.8544  0.7801 -0.3071
 4964TIP3    H136451   3.001   0.283   1.126  1.0751  2.4293 -2.3760
 4964TIP3    H236452   2.992   0.350   1.261  1.4932 -2.9884  0.6306
 4965TIP3   OH236453   5.820   6.259   2.419  0.4149  0.2080  0.7055
 4965TIP3    H136454   5.902   6.217   2.445  1.1327 -0.0473 -1.7632
 4965TIP3    H236455   5.846   6.345   2.386 -0.2536 -0.0101 -0.4356
 4966TIP3   OH236456   6.391   0.639   0.403  0.0941  0.2956 -0.1555
 4966TIP3    H136457   6.429   0.610   0.486 -1.2524  1.9352  1.1020
 4966TIP3    H236458   6.373   0.732   0.416 -1.3309  0.3011 -1.8269
 4967TIP3   OH236459   4.477   5.738   2.558 -0.3769 -0.4559  0.4350
 4967TIP3    H136460   4.416   5.812   2.548  0.1874 -0.1672 -1.2440
 4967TIP3    H236461   4.545   5.771   2.617 -0.0411  0.4631 -0.4248
 4968TIP3   OH236462   1.162   6.091   1.438 -0.1018  0.6611 -0.2127
 4968TIP3    H136463   1.107   6.017   1.463  1.0044  0.2277  1.0739
 4968TIP3    H236464   1.223   6.101   1.511  1.3461  1.2873 -1.4511
 4969TIP3   OH236465   5.282   3.477   2.609 -0.5233 -0.3589  0.0388
 4969TIP3    H136466   5.345   3.545   2.632  0.4760 -0.9189 -0.9232
 4969TIP3    H236467   5.283   3.417   2.684  0.2684 -0.4766 -0.0510
 4970TIP3   OH236468   6.262   3.118   1.824 -0.2928  0.3278 -0.1117
 4970TIP3    H136469   6.243   3.034   1.781 -2.0241  1.4309 -1.6265
 4970TIP3    H236470   6.346   3.145   1.788  0.2665 -0.7102  0.3629
 4971TIP3   OH236471   5.415   2.134   2.527  0.9888  0.4410  0.2968
 4971TIP3    H136472   5.365   2.087   2.461  0.6736  1.4831 -0.2370
 4971TIP3    H236473   5.433   2.069   2.595  1.2226 -0.6219 -0.7487
 4972TIP3   OH236474   1.221   6.321   1.723 -0.3898 -0.4448  0.3214
 4972TIP3    H136475   1.165   6.264   1.775  1.5996 -2.7379  0.1176
 4972TIP3    H236476   1.301   6.330   1.775 -0.0839  0.9636 -0.3433
 4973TIP3   OH236477   6.495   4.766   1.573  0.4014  0.2576  0.0371
 4973TIP3    H136478   6.406   4.739   1.551  0.2727  0.4268  0.3436
 4973TIP3    H236479   6.531   4.691   1.620  1.0581 -0.5622 -1.6742
 4974TIP3   OH236480   1.212   1.001   7.026 -0.0876 -0.1936  0.6599
 4974TIP3    H136481   1.276   1.036   7.089 -0.1747 -0.4250  0.8782
 4974TIP3    H236482   1.264   0.952   6.963  0.1495  1.1398 -0.2185
 4975TIP3   OH236483   0.003   1.942   2.456 -0.2266 -0.1297 -0.1236
 4975TIP3    H136484   0.042   1.968   2.372  0.8986  2.6316  1.1216
 4975TIP3    H236485  -0.037   2.023   2.489 -1.0886 -1.2796  1.8007
 4976TIP3   OH236486   4.088   1.580   6.897 -0.1539 -0.3036  0.0440
 4976TIP3    H136487   4.001   1.580   6.858  0.4302 -1.0055 -1.3589
 4976TIP3    H236488   4.123   1.493   6.877  1.8229  0.7928 -1.7735
 4977TIP3   OH236489   0.121   6.328   0.622  0.3267 -0.3105  0.2231
 4977TIP3    H136490   0.069   6.257   0.585 -0.4776 -0.4220  1.5274
 4977TIP3    H236491   0.063   6.404   0.621  2.1036  1.3057 -4.0410
 4978TIP3   OH236492   4.122   1.706   2.282  0.5275 -0.1949  0.3665
 4978TIP3    H136493   4.170   1.638   2.328  0.8339  1.1982  2.2007
 4978TIP3    H236494   4.190   1.757   2.237  0.6921  0.8751  1.7477
 4979TIP3   OH236495   6.241   2.006   1.373 -0.4435 -0.4644 -0.2267
 4979TIP3    H136496   6.268   2.097   1.382  1.4007 -1.0013  0.0195
 4979TIP3    H236497   6.223   1.977   1.462 -0.3414 -0.5284 -0.2263
 4980TIP3   OH236498   0.249   1.249   7.147 -0.1561  0.1359  0.0914
 4980TIP3    H136499   0.209   1.335   7.156 -1.0621 -0.2358 -0.1747
 4980TIP3    H236500   0.260   1.237   7.052 -1.0664 -0.4691  0.0435
 4981TIP3   OH236501   0.399   0.868   2.661 -0.1259 -0.7255 -0.2245
 4981TIP3    H136502   0.470   0.832   2.715 -0.7667 -1.9829 -0.1862
 4981TIP3    H236503   0.439   0.940   2.613  1.3379 -1.7958 -0.6643
 4982TIP3   OH236504   6.712   0.727   0.819  0.2085  0.2976 -0.2647
 4982TIP3    H136505   6.720   0.668   0.894 -1.0895 -0.8489 -0.9665
 4982TIP3    H236506   6.779   0.793   0.833  0.1719 -0.0249  1.7640
 4983TIP3   OH236507   5.838   0.796   2.032 -0.6721 -0.0924  0.1382
 4983TIP3    H136508   5.912   0.736   2.037  0.1520  0.8485 -0.3670
 4983TIP3    H236509   5.847   0.839   1.947 -2.3633 -0.6448 -0.3648
 4984TIP3   OH236510   2.962   6.898   1.275  0.1974 -0.1586 -0.2318
 4984TIP3    H136511   2.965   6.988   1.309 -0.5344 -0.6447  1.1839
 4984TIP3    H236512   2.881   6.895   1.224  0.6364  0.1979 -0.9750
 4985TIP3   OH236513   0.399   2.480   2.178  0.0697 -0.0600 -0.1226
 4985TIP3    H136514   0.434   2.525   2.255  2.2261 -1.1245 -0.4108
 4985TIP3    H236515   0.306   2.468   2.197  0.1076  1.6233  1.3389
 4986TIP3   OH236516   2.526   3.106   3.169 -0.5561  0.0702 -0.4985
 4986TIP3    H136517   2.506   3.024   3.216  2.8901  0.2142  1.5175
 4986TIP3    H236518   2.526   3.080   3.076 -1.7073 -1.6495 -0.0815
 4987TIP3   OH236519   5.885   3.129   0.765 -0.3070 -0.1356  0.0852
 4987TIP3    H136520   5.972   3.108   0.732 -0.5508 -0.2159 -0.5070
 4987TIP3    H236521   5.894   3.217   0.803 -0.4546  0.7828 -1.8785
 4988TIP3   OH236522   1.776   0.426   7.839 -0.2533 -0.0157  0.1050
 4988TIP3    H136523   1.765   0.392   7.928 -0.0525 -0.0509  0.1152
 4988TIP3    H236524   1.686   0.432   7.805 -0.2130 -2.3957 -0.6132
 4989TIP3   OH236525   1.796   5.732   1.737  0.0231  0.3193  0.2767
 4989TIP3    H136526   1.805   5.805   1.676 -0.3547  1.3568  1.4320
 4989TIP3    H236527   1.877   5.734   1.788  0.6219 -0.9405 -0.5802
 4990TIP3   OH236528   1.404   6.480   1.032 -0.2139  0.1134  0.1335
 4990TIP3    H136529   1.351   6.450   1.107 -1.6464  1.4812 -0.2828
 4990TIP3    H236530   1.370   6.430   0.958 -2.5556  2.5365 -0.5484
 4991TIP3   OH236531   3.889   6.343   2.630 -0.6339 -0.1728  0.3150
 4991TIP3    H136532   3.924   6.374   2.713  0.2158 -0.6502  0.1423
 4991TIP3    H236533   3.927   6.257   2.618 -2.0826 -0.8323  0.2426
 4992TIP3   OH236534   1.881   4.798   3.489 -0.1121 -0.6222 -0.1516
 4992TIP3    H136535   1.800   4.820   3.535 -0.1824  0.2821 -0.6741
 4992TIP3    H236536   1.886   4.861   3.417  0.9435 -0.8056 -0.2651
 4993TIP3   OH236537   1.340   4.488   7.656 -0.9942 -0.4059  0.0706
 4993TIP3    H136538   1.381   4.539   7.726 -2.8855  0.0649  0.8858
 4993TIP3    H236539   1.382   4.402   7.662  0.3214  0.2281  0.4284
 4994TIP3   OH236540   0.850   0.569   1.340  0.0463 -0.0891  0.5352
 4994TIP3    H136541   0.857   0.481   1.303  1.8703 -0.8969  2.6106
 4994TIP3    H236542   0.824   0.624   1.266 -0.1515 -2.1896 -1.0438
 4995TIP3   OH236543   3.794   4.814   8.305 -0.2475  0.0278  0.5089
 4995TIP3    H136544   3.870   4.756   8.299 -0.9540 -1.0204  1.3104
 4995TIP3    H236545   3.819   4.881   8.368  0.5475  0.5658 -0.3603
 4996TIP3   OH236546   4.597   2.904   7.770  0.1200 -0.3586 -0.1398
 4996TIP3    H136547   4.661   2.901   7.699  0.5527 -0.9679  0.2666
 4996TIP3    H236548   4.625   2.977   7.825  0.4104 -0.5654 -0.0142
 4997TIP3   OH236549   4.944   2.835   1.002 -0.5032  0.1679  0.2317
 4997TIP3    H136550   4.905   2.896   0.939  0.1160  0.0426 -0.2819
 4997TIP3    H236551   4.869   2.788   1.038 -0.9905  1.1947  0.6152
 4998TIP3   OH236552   3.932   5.506   8.225  0.7297  0.0546 -0.1121
 4998TIP3    H136553   3.849   5.550   8.210 -0.1395 -1.4900 -0.0400
 4998TIP3    H236554   3.910   5.413   8.225  2.2643 -0.3484  1.0489
 4999TIP3   OH236555   2.870   3.634   3.389  0.2875  0.2226  0.4334
 4999TIP3    H136556   2.803   3.676   3.335  0.8696 -1.4000 -1.6935
 4999TIP3    H236557   2.833   3.634   3.477 -1.7918  0.8258 -0.3760
 5000TIP3   OH236558   0.454   0.729   7.946 -0.2273 -0.7384 -0.1998
 5000TIP3    H136559   0.393   0.729   8.020  0.9761 -1.5855  0.8192
 5000TIP3    H236560   0.399   0.709   7.870 -1.3587 -0.5755  0.5533
 5001TIP3   OH236561   0.443   3.371   0.359 -0.4118  0.4090 -0.1521
 5001TIP3    H136562   0.465   3.371   0.266 -1.3163 -1.4004 -0.4143
 5001TIP3    H236563   0.433   3.464   0.381 -0.3106  0.8747 -1.8831
 5002TIP3   OH236564   0.408   5.407   1.194 -0.1100  0.3525 -0.1854
 5002TIP3    H136565   0.471   5.342   1.162 -0.4691 -0.2449  0.2835
 5002TIP3    H236566   0.441   5.491   1.163  0.7356  0.0097 -0.2319
 5003TIP3   OH236567   5.632   0.913   1.195 -0.2881  0.0509  0.6594
 5003TIP3    H136568   5.685   0.867   1.131 -2.8410  0.8865 -2.3387
 5003TIP3    H236569   5.693   0.967   1.244  1.6749  0.8139 -2.4126
 5004TIP3   OH236570   0.964   4.706   6.958  0.2690 -0.1257 -0.3714
 5004TIP3    H136571   0.921   4.764   7.021  0.7200 -0.4297  0.2292
 5004TIP3    H236572   0.992   4.631   7.011 -2.1276 -1.9158 -1.4389
 5005TIP3   OH236573   6.370   0.616   8.319 -0.2947  0.3729 -0.4016
 5005TIP3    H136574   6.308   0.686   8.338  1.5171  1.9067  0.2349
 5005TIP3    H236575   6.448   0.639   8.369  0.4347 -2.0823 -0.2368
 5006TIP3   OH236576   3.603   3.585   3.250  0.8346  0.0227  0.2142
 5006TIP3    H136577   3.664   3.565   3.179  1.0113 -2.9508  1.0591
 5006TIP3    H236578   3.647   3.556   3.330 -0.6608  0.1759  1.1518
 5007TIP3   OH236579   5.749   3.003   2.648 -0.9752 -0.1421 -0.4574
 5007TIP3    H136580   5.755   2.997   2.744 -2.1642  0.5960 -0.3119
 5007TIP3    H236581   5.709   3.088   2.632  2.0777  1.1950 -1.7816
 5008TIP3   OH236582   2.745   3.756   7.989  0.3678  0.2623 -0.3950
 5008TIP3    H136583   2.722   3.837   7.944  0.8674  0.6391  0.0108
 5008TIP3    H236584   2.681   3.692   7.959 -0.5244  1.0096 -0.1305
 5009TIP3   OH236585   5.560   1.088   2.059 -0.5027 -0.0796  0.3944
 5009TIP3    H136586   5.521   1.141   2.129  1.4288  1.5554  0.3190
 5009TIP3    H236587   5.654   1.089   2.078 -0.0726 -0.7214 -1.4922
 5010TIP3   OH236588   6.338   1.425   2.742 -0.3828  0.5710 -0.5421
 5010TIP3    H136589   6.312   1.384   2.659 -1.1817  1.4331 -0.7398
 5010TIP3    H236590   6.377   1.508   2.716  0.0352  0.5202 -0.0864
 5011TIP3   OH236591   3.512   6.802   1.818  0.3526  0.2239 -0.2616
 5011TIP3    H136592   3.440   6.761   1.771 -0.9337  0.5204  1.3516
 5011TIP3    H236593   3.523   6.749   1.897  2.1678 -0.0150 -0.6168
 5012TIP3   OH236594   5.121   4.443   8.273  0.1218 -0.0704  0.2066
 5012TIP3    H136595   5.115   4.510   8.342 -0.5073 -1.8132  1.9305
 5012TIP3    H236596   5.042   4.458   8.220  0.8917  1.6403 -0.5349
 5013TIP3   OH236597   3.219   4.043   2.433 -0.4655 -0.5763 -0.1934
 5013TIP3    H136598   3.291   4.050   2.496 -1.4516  0.7992  0.8378
 5013TIP3    H236599   3.172   4.127   2.441 -1.1097 -0.7035 -2.1672
 5014TIP3   OH236600   6.320   5.356   0.818 -0.3502 -0.7534 -0.2416
 5014TIP3    H136601   6.246   5.402   0.858  0.0229 -0.6704  0.3722
 5014TIP3    H236602   6.346   5.291   0.884 -0.3736 -1.3178 -0.7762
 5015TIP3   OH236603   0.005   1.807   1.416 -0.0733 -0.0060  0.3474
 5015TIP3    H136604  -0.005   1.899   1.390 -1.6861 -0.2137  0.1565
 5015TIP3    H236605  -0.039   1.801   1.501  0.3435 -0.5368  0.5317
 5016TIP3   OH236606   1.864   3.020   1.266 -0.4341 -0.6471 -0.1029
 5016TIP3    H136607   1.948   3.006   1.222 -1.5753 -0.8881 -2.3206
 5016TIP3    H236608   1.816   2.938   1.254 -1.0969 -0.4384  0.9455
 5017TIP3   OH236609   2.757   0.613   1.459 -0.7759 -0.1999 -0.0865
 5017TIP3    H136610   2.727   0.522   1.451  2.3608 -1.4998  1.1626
 5017TIP3    H236611   2.745   0.634   1.552  0.1254 -0.0038 -0.0052
 5018TIP3   OH236612   6.702   6.669   0.903 -0.2618 -0.5338  0.0590
 5018TIP3    H136613   6.666   6.747   0.944  0.8237 -0.0177  0.0659
 5018TIP3    H236614   6.630   6.606   0.903 -0.1153 -0.8414  3.4278
 5019TIP3   OH236615   4.608   4.080   7.994  0.0636  0.7864  0.5867
 5019TIP3    H136616   4.650   4.047   8.073 -0.2791 -0.5517  0.2470
 5019TIP3    H236617   4.656   4.038   7.922 -0.5219  0.8696  0.1366
 5020TIP3   OH236618   5.987   1.230   2.042  0.1273 -0.3305 -0.2878
 5020TIP3    H136619   5.933   1.304   2.068  0.2609 -0.4374  0.3186
 5020TIP3    H236620   5.950   1.156   2.090  1.4706 -0.2076  1.0146
 5021TIP3   OH236621   5.100   2.051   2.632  0.2407 -0.2458  0.3098
 5021TIP3    H136622   5.180   2.102   2.639  1.1540 -1.5816  0.0962
 5021TIP3    H236623   5.129   1.960   2.643 -1.2142 -0.7749  0.0119
 5022TIP3   OH236624   6.775   2.752   2.623  0.3318  0.0410 -0.0098
 5022TIP3    H136625   6.857   2.731   2.668  0.1839  0.3003  0.3903
 5022TIP3    H236626   6.709   2.749   2.692  0.1311  0.6452 -0.1698
 5023TIP3   OH236627   6.134   5.940   2.382 -0.2690  0.2449 -0.0984
 5023TIP3    H136628   6.123   6.015   2.439 -0.4816 -0.0411  0.2400
 5023TIP3    H236629   6.164   5.869   2.440  0.5651  0.2361 -0.5179
 5024TIP3   OH236630   1.181   6.241   2.135 -0.0038 -0.1096 -0.5144
 5024TIP3    H136631   1.110   6.221   2.196 -0.9847  0.7121 -1.3704
 5024TIP3    H236632   1.142   6.236   2.048  0.7795  1.0943 -0.9686
 5025TIP3   OH236633   5.897   0.672   2.938 -0.4146 -0.4925  0.5330
 5025TIP3    H136634   5.891   0.767   2.930 -0.6133 -0.5674 -0.2957
 5025TIP3    H236635   5.983   0.650   2.901  0.0990 -0.5433  1.7061
 5026TIP3   OH236636   3.773   3.261   8.281  0.5489  0.0471 -0.5777
 5026TIP3    H136637   3.766   3.211   8.200  0.3169  0.9361 -1.1153
 5026TIP3    H236638   3.827   3.337   8.258  1.3528 -0.2131  0.3570
 5027TIP3   OH236639   4.526   2.483   1.570  0.4512 -0.1278  0.3642
 5027TIP3    H136640   4.449   2.480   1.513 -1.4050  0.3106  2.6914
 5027TIP3    H236641   4.589   2.537   1.522 -1.0206  0.2845 -1.2134
 5028TIP3   OH236642   1.298   1.202   7.911 -0.2920 -0.2178  0.3860
 5028TIP3    H136643   1.350   1.122   7.897  0.3512 -0.0480  1.6821
 5028TIP3    H236644   1.294   1.243   7.824  2.2971  0.0747  0.3193
 5029TIP3   OH236645   6.725   0.556   1.038 -0.3743  0.8646  0.4368
 5029TIP3    H136646   6.789   0.485   1.034 -0.2603  0.9621  0.5069
 5029TIP3    H236647   6.752   0.607   1.114 -1.9323 -0.4439  1.9508
 5030TIP3   OH236648   4.955   3.166   8.045 -0.3124  0.9532  0.4814
 5030TIP3    H136649   4.955   3.235   8.111 -1.4141  1.7610 -0.3338
 5030TIP3    H236650   5.023   3.191   7.983  2.0183 -0.7317  2.1503
 5031TIP3   OH236651   1.238   4.160   2.535 -0.5219 -0.1241  0.1672
 5031TIP3    H136652   1.303   4.090   2.540 -0.0525  0.3188  0.2688
 5031TIP3    H236653   1.235   4.185   2.443  1.4552  1.7241  0.5456
 5032TIP3   OH236654   3.683   2.298   7.524 -0.2401 -0.3946  0.0142
 5032TIP3    H136655   3.628   2.334   7.455  0.1131  1.4578  0.6446
 5032TIP3    H236656   3.772   2.315   7.495 -0.0492  2.5848  1.8556
 5033TIP3   OH236657   3.955   0.560   7.937 -0.2310  1.1577  0.4226
 5033TIP3    H136658   3.916   0.526   8.017 -1.3344  1.6147  0.0914
 5033TIP3    H236659   4.050   0.553   7.952 -0.4192 -0.0370  1.2087
 5034TIP3   OH236660   5.491   0.958   2.569  0.1379  0.1182 -0.3975
 5034TIP3    H136661   5.407   0.926   2.537  0.3604 -2.1193  1.0126
 5034TIP3    H236662   5.487   0.944   2.664  1.7076  0.9519 -0.1750
 5035TIP3   OH236663   4.870   6.029   3.125 -0.1990  0.1646 -0.3739
 5035TIP3    H136664   4.900   6.120   3.131 -1.4557  0.5303  0.8868
 5035TIP3    H236665   4.950   5.978   3.116  0.6001  1.3272 -0.0939
 5036TIP3   OH236666   6.838   3.381   0.994  0.3868  0.1938 -0.5641
 5036TIP3    H136667   6.784   3.328   0.936  0.4621 -1.4429  0.7827
 5036TIP3    H236668   6.880   3.318   1.053  0.9932  1.6965  0.7038
 5037TIP3   OH236669   4.758   6.790   8.431 -0.8575 -0.0523  0.2267
 5037TIP3    H136670   4.677   6.831   8.401 -0.6150  0.0638 -0.2821
 5037TIP3    H236671   4.811   6.862   8.464 -0.9541 -0.1261  0.5448
 5038TIP3   OH236672   2.303   2.792   2.463  0.0315  0.4190  0.1097
 5038TIP3    H136673   2.269   2.702   2.463  0.1379  0.3639  1.6335
 5038TIP3    H236674   2.388   2.785   2.418  0.3368 -0.3670  0.7771
 5039TIP3   OH236675   3.344   4.579   7.662 -0.0142 -0.0966 -0.3759
 5039TIP3    H136676   3.328   4.507   7.723  0.3910 -0.3931 -0.6125
 5039TIP3    H236677   3.392   4.644   7.714 -0.5945  0.1109 -0.0962
 5040TIP3   OH236678   5.171   1.052   3.398 -0.3008  0.5772  0.2085
 5040TIP3    H136679   5.096   1.002   3.365 -2.2679  1.4388  2.9886
 5040TIP3    H236680   5.237   0.985   3.419  0.0095 -0.1675 -2.6189
 5041TIP3   OH236681   5.905   3.024   2.084 -0.1326 -0.3491  0.0773
 5041TIP3    H136682   5.972   2.969   2.125 -1.2283 -0.8498  1.2575
 5041TIP3    H236683   5.864   3.071   2.157 -1.1221 -0.0996 -0.6134
 5042TIP3   OH236684   5.002   3.291   0.369  0.7723  0.1249 -0.1766
 5042TIP3    H136685   5.060   3.262   0.299  0.2187  2.9247 -1.9753
 5042TIP3    H236686   4.980   3.211   0.417  2.4502 -1.6841 -2.2062
 5043TIP3   OH236687   0.707   1.245   3.137 -0.6282 -0.4802 -0.1894
 5043TIP3    H136688   0.790   1.198   3.138 -0.5806 -0.3978  0.6902
 5043TIP3    H236689   0.641   1.178   3.146 -0.5469 -0.3828  1.3899
 5044TIP3   OH236690   1.715   5.361   0.867 -0.4505 -0.3552 -0.2073
 5044TIP3    H136691   1.692   5.333   0.778 -2.2066 -2.2487  0.7505
 5044TIP3    H236692   1.688   5.452   0.872 -1.4291 -0.5728 -1.2698
 5045TIP3   OH236693   1.523   4.315   2.774 -0.1293  0.3130  0.0193
 5045TIP3    H136694   1.612   4.350   2.784 -0.2298  0.1745  1.7161
 5045TIP3    H236695   1.497   4.291   2.863 -1.3005 -1.0655 -0.6645
 5046TIP3   OH236696   1.220   6.360   1.198 -0.0961  0.0146  0.4030
 5046TIP3    H136697   1.218   6.402   1.283 -1.8829  0.9793 -0.0812
 5046TIP3    H236698   1.260   6.274   1.215  2.2139  1.2419  1.6647
 5047TIP3   OH236699   2.822   3.420   0.212  0.5616  0.2823  0.7047
 5047TIP3    H136700   2.887   3.352   0.198  0.8687  0.0964  2.7508
 5047TIP3    H236701   2.743   3.372   0.238 -0.5056  0.4931 -1.8575
 5048TIP3   OH236702   1.238   5.588   2.440 -0.5279  0.1061  0.2961
 5048TIP3    H136703   1.244   5.681   2.417 -2.1244  0.4278  0.9995
 5048TIP3    H236704   1.237   5.587   2.535  1.0282 -0.7823  0.3233
 5049TIP3   OH236705   3.248   0.053   7.706  0.1771  0.2049  0.0027
 5049TIP3    H136706   3.253  -0.039   7.681 -1.4537  0.2933 -0.7677
 5049TIP3    H236707   3.324   0.067   7.762 -1.1426 -2.3913  2.7159
 5050TIP3   OH236708   3.512   2.549   2.241  0.3191  0.4466  0.0006
 5050TIP3    H136709   3.440   2.504   2.196  0.0859  2.2809 -1.5807
 5050TIP3    H236710   3.489   2.642   2.235  1.5431  0.9047  1.8005
 5051TIP3   OH236711   4.906   3.242   0.731 -0.3303  0.0686  0.2082
 5051TIP3    H136712   4.932   3.212   0.644 -1.9106  1.1766 -0.6953
 5051TIP3    H236713   4.844   3.313   0.714 -0.5229  0.4345  2.2495
 5052TIP3   OH236714   3.441   0.339   6.644 -0.0945  0.3347  0.3505
 5052TIP3    H136715   3.377   0.329   6.574 -1.2684  2.2447  1.0663
 5052TIP3    H236716   3.492   0.416   6.619  1.4911 -0.7544  0.1371
 5053TIP3   OH236717   6.465   3.131   0.089  0.1968 -0.4216  0.1387
 5053TIP3    H136718   6.420   3.186   0.153  0.5785  0.5151 -0.3830
 5053TIP3    H236719   6.544   3.103   0.134  0.8954  0.9383 -0.1852
 5054TIP3   OH236720   5.487   0.586   2.363 -0.3654  0.3907  0.4035
 5054TIP3    H136721   5.474   0.587   2.458  0.6447  1.4952  0.5561
 5054TIP3    H236722   5.579   0.608   2.352  0.0978 -1.8942 -0.7691
 5055TIP3   OH236723   4.596   5.974   7.439  0.0396 -0.2382 -0.3352
 5055TIP3    H136724   4.677   5.976   7.490  0.0675 -0.6673 -0.3644
 5055TIP3    H236725   4.600   5.892   7.391 -1.4844 -1.3744  1.3980
 5056TIP3   OH236726   4.828   4.927   1.146 -0.5060  0.2565 -0.4001
 5056TIP3    H136727   4.884   5.000   1.172  0.5995 -0.9463  0.7262
 5056TIP3    H236728   4.770   4.913   1.222 -1.5466  0.7046 -1.0805
 5057TIP3   OH236729   5.411   0.164   7.763 -0.3801  0.2732 -0.3348
 5057TIP3    H136730   5.428   0.104   7.692  0.8512 -1.1451  1.0931
 5057TIP3    H236731   5.323   0.141   7.793  0.0798 -0.8588  0.1989
 5058TIP3   OH236732   5.484   2.189   7.727  0.0386  0.8236  0.2040
 5058TIP3    H136733   5.564   2.158   7.683 -0.7436 -1.7699  0.4509
 5058TIP3    H236734   5.442   2.245   7.662  0.8100  0.1603 -0.9203
 5059TIP3   OH236735   6.347   2.478   1.941 -0.3917 -0.2325 -0.4236
 5059TIP3    H136736   6.293   2.524   2.005  0.7555  0.0321  0.3920
 5059TIP3    H236737   6.289   2.463   1.866 -1.2721  1.0021 -0.0197
 5060TIP3   OH236738   2.491   3.763   1.337 -0.0505  0.5707  0.7278
 5060TIP3    H136739   2.554   3.717   1.281  0.3452 -0.2992  1.8484
 5060TIP3    H236740   2.411   3.711   1.331 -0.6712  1.5890 -0.5699
 5061TIP3   OH236741   6.099   2.951   0.576 -0.6623 -0.4590  0.5510
 5061TIP3    H136742   6.020   2.915   0.617 -1.2901 -0.8327 -0.8995
 5061TIP3    H236743   6.083   2.941   0.482  0.3518  1.1161  0.1762
 5062TIP3   OH236744   0.744   5.716   0.703  0.0064  0.2570 -0.1315
 5062TIP3    H136745   0.730   5.797   0.753  0.2580 -0.5527  1.3174
 5062TIP3    H236746   0.673   5.658   0.730  0.7546 -0.5741  0.1048
 5063TIP3   OH236747   3.344   0.444   1.991 -0.3195  0.2087  0.4823
 5063TIP3    H136748   3.337   0.390   1.912  1.5145 -0.1188  0.5103
 5063TIP3    H236749   3.345   0.534   1.958  0.9201  0.0572  0.0740
 5064TIP3   OH236750   3.700   5.349   7.382  0.4716 -0.2152  0.1025
 5064TIP3    H136751   3.609   5.377   7.374  0.9493  2.0614  1.5935
 5064TIP3    H236752   3.712   5.286   7.312 -1.7232  0.8489 -1.3446
 5065TIP3   OH236753   3.246   1.676   1.404 -0.1210  0.1137  0.0954
 5065TIP3    H136754   3.172   1.620   1.425  0.1643 -0.1510  0.4127
 5065TIP3    H236755   3.240   1.691   1.310  0.3074 -1.1967 -0.1699
 5066TIP3   OH236756   6.131   0.942   7.816 -0.8196 -0.6458  0.2341
 5066TIP3    H136757   6.102   1.025   7.778 -0.2237 -0.3177  0.4650
 5066TIP3    H236758   6.188   0.969   7.889  0.8637 -1.2249 -0.7982
 5067TIP3   OH236759   5.151   2.857   7.624  0.3445  0.2827  0.1453
 5067TIP3    H136760   5.220   2.822   7.682 -0.5213  0.4175  1.2777
 5067TIP3    H236761   5.085   2.893   7.683 -0.6864  0.2111 -0.9237
 5068TIP3   OH236762   0.897   6.213   2.313  0.0209  0.2129  0.5008
 5068TIP3    H136763   0.936   6.195   2.398  0.2765 -0.0028  0.3413
 5068TIP3    H236764   0.855   6.131   2.288  1.4074 -0.2937 -0.3436
 5069TIP3   OH236765   6.868   0.755   7.989 -0.0456  1.0021  0.4217
 5069TIP3    H136766   6.779   0.727   8.012  0.0037  0.6722  0.2287
 5069TIP3    H236767   6.921   0.734   8.066 -0.1405  1.2161  0.5442
 5070TIP3   OH236768   3.027   1.648   2.165  0.3895  0.6381  0.0373
 5070TIP3    H136769   3.001   1.661   2.256 -0.8388  0.3198 -0.2439
 5070TIP3    H236770   3.046   1.735   2.132 -0.4025  0.9011  0.2555
 5071TIP3   OH236771   0.467   1.307   1.044 -0.2096 -0.6275 -0.1026
 5071TIP3    H136772   0.442   1.223   1.083 -1.6551 -0.6087 -0.9038
 5071TIP3    H236773   0.421   1.372   1.097  0.6177 -0.3523  0.2921
 5072TIP3   OH236774   1.803   3.543   2.346 -0.9534 -0.7749  0.4845
 5072TIP3    H136775   1.713   3.571   2.361 -0.4916  0.9117  0.3170
 5072TIP3    H236776   1.844   3.617   2.300  1.3797 -0.0681  3.3427
 5073TIP3   OH236777   3.343   2.243   7.293  0.4168 -0.1828  0.0574
 5073TIP3    H136778   3.424   2.292   7.275  0.9485  1.0891  4.5717
 5073TIP3    H236779   3.373   2.155   7.315  0.2163 -0.5240 -0.9800
 5074TIP3   OH236780   3.530   3.619   1.887 -0.0625  0.1679 -0.1244
 5074TIP3    H136781   3.595   3.557   1.920  0.4472  1.1041  0.6623
 5074TIP3    H236782   3.568   3.705   1.903 -0.7155  0.7008 -1.2971
 5075TIP3   OH236783   2.567   5.769   6.771  0.4092 -0.5070  0.2867
 5075TIP3    H136784   2.646   5.820   6.752  0.8111 -1.1298  0.2449
 5075TIP3    H236785   2.510   5.830   6.817  0.2407  0.4535 -1.1302
 5076TIP3   OH236786   4.497   0.859   2.864 -0.0402  0.0508  0.3630
 5076TIP3    H136787   4.448   0.778   2.870  0.6735 -0.3055  1.7604
 5076TIP3    H236788   4.558   0.857   2.938  0.5682  1.4759 -0.0448
 5077TIP3   OH236789   4.483   5.402   8.374  0.2985 -0.1492 -0.7387
 5077TIP3    H136790   4.511   5.480   8.421 -0.0677 -0.1097 -0.5768
 5077TIP3    H236791   4.427   5.355   8.437 -0.1823 -0.1052 -1.1274
 5078TIP3   OH236792   5.901   5.535   6.869  0.6971 -0.0419 -0.3006
 5078TIP3    H136793   5.836   5.531   6.939  0.3060 -0.5676 -0.6850
 5078TIP3    H236794   5.967   5.470   6.893  1.1072  0.5137  0.1055
 5079TIP3   OH236795   1.649   2.443   0.320  0.3665  0.1169  0.9210
 5079TIP3    H136796   1.699   2.383   0.265 -1.0100  1.0049 -1.4770
 5079TIP3    H236797   1.708   2.466   0.391  1.9638 -1.7435  0.2880
 5080TIP3   OH236798   2.944   1.115   8.039  0.1530 -0.0071 -0.3943
 5080TIP3    H136799   2.961   1.191   8.095 -0.1316  0.3909 -0.8350
 5080TIP3    H236800   2.876   1.066   8.086  1.8789 -1.1913  0.9838
 5081TIP3   OH236801   0.562   5.666   1.639  0.1602 -0.4257  0.3234
 5081TIP3    H136802   0.523   5.706   1.717 -3.3599  0.1863 -1.5438
 5081TIP3    H236803   0.559   5.735   1.573 -2.1147 -2.3433 -1.7962
 5082TIP3   OH236804   3.907   0.722   2.331  0.0110  0.4400 -0.0210
 5082TIP3    H136805   3.888   0.763   2.415  0.9740  0.0766  0.3906
 5082TIP3    H236806   4.003   0.720   2.326  0.0073 -1.7116 -0.0353
 5083TIP3   OH236807   3.045   1.486   2.713  0.3021 -0.4947  0.0713
 5083TIP3    H136808   2.969   1.430   2.731  0.1067 -0.4632 -0.6464
 5083TIP3    H236809   3.118   1.439   2.753 -0.3165  0.3289  2.3778
 5084TIP3   OH236810   6.333   4.029   2.239 -0.4729 -0.1773  0.1635
 5084TIP3    H136811   6.308   4.095   2.304  1.4745  1.5160 -0.6699
 5084TIP3    H236812   6.410   3.986   2.277 -1.4978 -1.7996  0.5312
 5085TIP3   OH236813   1.871   3.468   1.889  0.1589  0.4804 -0.0807
 5085TIP3    H136814   1.918   3.462   1.972 -0.5258  0.0199  0.2861
 5085TIP3    H236815   1.830   3.382   1.879 -2.7200  1.6016  0.9225
 5086TIP3   OH236816   6.593   1.636   0.481 -0.2479 -0.1100 -0.1055
 5086TIP3    H136817   6.579   1.724   0.446  0.7370 -0.4200 -1.3719
 5086TIP3    H236818   6.534   1.630   0.556 -0.0434  1.7527  0.2444
 5087TIP3   OH236819   0.988   1.340   1.190  0.4083 -0.4586  0.3365
 5087TIP3    H136820   1.021   1.292   1.266  0.0085 -1.1334  0.0914
 5087TIP3    H236821   0.894   1.328   1.193  0.4224 -0.8430 -0.4976
 5088TIP3   OH236822   1.781   6.392   3.144 -0.2413  0.4615  0.0666
 5088TIP3    H136823   1.819   6.390   3.056 -2.0169  1.9418 -0.7850
 5088TIP3    H236824   1.856   6.380   3.202  1.3090  1.6299 -1.5799
 5089TIP3   OH236825   2.918   4.898   0.252  0.4599 -0.0513  0.0148
 5089TIP3    H136826   2.887   4.879   0.340 -1.9110 -1.2092 -0.9640
 5089TIP3    H236827   2.957   4.815   0.222  0.7468  0.1664 -0.2196
 5090TIP3   OH236828   5.904   5.416   0.677 -0.6127 -0.3963  0.0987
 5090TIP3    H136829   5.895   5.489   0.616  1.3592 -0.8117 -0.7737
 5090TIP3    H236830   5.991   5.381   0.659  0.7127  0.3252  4.1022
 5091TIP3   OH236831   3.204   1.434   2.076  0.4554 -0.0568 -0.0238
 5091TIP3    H136832   3.146   1.509   2.091  1.2364  0.6361 -0.3882
 5091TIP3    H236833   3.264   1.464   2.007  0.5639 -1.1412 -0.4134
 5092TIP3   OH236834   0.818   5.841   2.942  0.0039 -0.0232 -0.4028
 5092TIP3    H136835   0.849   5.770   2.999 -1.3070  1.1520  1.8830
 5092TIP3    H236836   0.880   5.912   2.957  1.4194 -0.6082 -2.8260
 5093TIP3   OH236837   1.931   1.148   0.198  0.5662  0.1198 -0.2377
 5093TIP3    H136838   1.982   1.142   0.279  2.8414  0.2627 -1.5703
 5093TIP3    H236839   1.881   1.228   0.206 -1.0446 -1.0078  1.9504
 5094TIP3   OH236840   3.634   6.613   0.022 -0.0993  0.4690 -0.2352
 5094TIP3    H136841   3.719   6.592  -0.015  0.0805 -0.1284  0.4773
 5094TIP3    H236842   3.652   6.632   0.114 -0.6001  1.3784 -0.3143
 5095TIP3   OH236843   4.313   3.561   1.111  0.0165 -0.7772  0.4073
 5095TIP3    H136844   4.324   3.542   1.204  0.5308  1.1460  0.7697
 5095TIP3    H236845   4.236   3.618   1.107 -0.0550 -0.9173 -0.3719
 5096TIP3   OH236846   4.039   5.326   2.380 -0.0878 -0.0919 -0.0564
 5096TIP3    H136847   3.985   5.297   2.454  2.1598 -0.9537  1.3540
 5096TIP3    H236848   4.129   5.320   2.413  1.0132 -0.5960 -2.9125
 5097TIP3   OH236849   1.955   4.121   0.803  0.9440 -0.3893 -0.3745
 5097TIP3    H136850   2.006   4.055   0.851  2.1072  0.2366 -0.7096
 5097TIP3    H236851   1.958   4.091   0.712  0.6741 -0.3761 -0.3870
 5098TIP3   OH236852   2.474   6.445   2.101  0.3005  0.2365  0.0221
 5098TIP3    H136853   2.480   6.397   2.183  0.2985  1.0854  0.5387
 5098TIP3    H236854   2.400   6.505   2.113  1.4616  1.7046  0.1427
 5099TIP3   OH236855   1.408   6.704   2.774 -0.1775  0.0361  0.2340
 5099TIP3    H136856   1.379   6.724   2.863  0.6251 -0.9838  0.7492
 5099TIP3    H236857   1.448   6.618   2.781  1.0555  0.4890 -0.8615
 5100TIP3   OH236858   0.384   4.671   2.181  0.2417 -0.1464 -0.1207
 5100TIP3    H136859   0.326   4.747   2.174  0.5589  0.2526  1.1928
 5100TIP3    H236860   0.436   4.672   2.101  0.1038  0.9249 -0.2113
 5101TIP3   OH236861   2.659   5.580   2.053 -0.0948 -0.1147 -0.2504
 5101TIP3    H136862   2.650   5.488   2.027  1.0063 -0.7229  1.3584
 5101TIP3    H236863   2.572   5.604   2.084  0.0605 -1.3333  1.3191
 5102TIP3   OH236864   0.447   4.094   1.194 -0.2262  0.0105 -0.0103
 5102TIP3    H136865   0.435   4.014   1.142 -0.5969  1.0295 -1.5380
 5102TIP3    H236866   0.392   4.159   1.151  0.6141  1.2933  0.7928
 5103TIP3   OH236867   6.045   5.280   3.088 -0.2275 -0.2285 -0.2098
 5103TIP3    H136868   6.130   5.237   3.084  0.1549  0.4756  0.1327
 5103TIP3    H236869   5.982   5.208   3.083  0.3340 -0.6481 -2.2045
 5104TIP3   OH236870   4.833   4.268   1.870 -0.1283 -0.2543 -0.0104
 5104TIP3    H136871   4.866   4.283   1.958 -1.5719 -0.0263  0.5135
 5104TIP3    H236872   4.782   4.188   1.876 -0.4175 -0.1239 -0.5904
 5105TIP3   OH236873   5.759   2.072   7.972  0.0457  0.2440 -0.3122
 5105TIP3    H136874   5.690   2.006   7.969 -0.8226  1.1155  0.0640
 5105TIP3    H236875   5.789   2.079   7.881  1.3582 -1.8599 -0.1308
 5106TIP3   OH236876   2.016   0.764   7.135  0.2020 -0.5286  0.0170
 5106TIP3    H136877   1.946   0.710   7.099  1.3142 -0.0849 -3.1746
 5106TIP3    H236878   2.089   0.703   7.147 -0.0469 -0.6000  1.2230
 5107TIP3   OH236879   4.969   1.172   2.095 -0.0188  0.2148  0.3084
 5107TIP3    H136880   4.918   1.249   2.071 -0.5696 -0.6807 -1.6610
 5107TIP3    H236881   5.060   1.201   2.091 -0.2322  0.8505 -0.0522
 5108TIP3   OH236882   5.997   4.221   2.743 -0.2701 -0.2241  0.7110
 5108TIP3    H136883   5.958   4.251   2.825 -0.3495  0.5232  0.4107
 5108TIP3    H236884   6.087   4.252   2.747 -0.7015  1.2260 -0.1694
 5109TIP3   OH236885   5.044   1.789   7.745 -0.3070 -0.0218 -0.2550
 5109TIP3    H136886   5.042   1.860   7.682 -0.6905  0.1346 -0.0686
 5109TIP3    H236887   5.038   1.831   7.830 -1.1649 -0.2980 -0.1605
 5110TIP3   OH236888   0.873   3.098   1.573 -0.1637  0.4719 -0.2332
 5110TIP3    H136889   0.894   3.167   1.636 -1.6435 -0.8557  1.8307
 5110TIP3    H236890   0.956   3.052   1.560 -0.2347 -0.7668  2.8065
 5111TIP3   OH236891   1.943   5.307   8.423  0.3439  0.1580  0.1391
 5111TIP3    H136892   1.930   5.294   8.517  0.9449  0.6484  0.2913
 5111TIP3    H236893   2.029   5.347   8.415 -0.4857  1.9116 -0.4921
 5112TIP3   OH236894   4.078   0.574   6.680 -0.9788  0.2926 -0.2906
 5112TIP3    H136895   4.040   0.641   6.737 -0.9193 -0.6300  0.8738
 5112TIP3    H236896   4.008   0.509   6.668 -0.7347  0.0859 -0.6214
 5113TIP3   OH236897   4.798   2.110   0.730 -0.0813  0.5296 -0.3576
 5113TIP3    H136898   4.827   2.106   0.638  1.3190 -0.4584  0.0960
 5113TIP3    H236899   4.858   2.052   0.776 -2.2942 -0.9494  0.8106
 5114TIP3   OH236900   2.874   1.762   1.385  0.1615  0.3809 -0.0225
 5114TIP3    H136901   2.902   1.671   1.394  0.1276  0.4839  1.2907
 5114TIP3    H236902   2.945   1.813   1.424 -0.7711  0.7785  1.2210
 5115TIP3   OH236903   2.147   6.339   7.985 -0.5003  0.1969  0.5580
 5115TIP3    H136904   2.173   6.278   8.054  1.0535  0.4090  0.1997
 5115TIP3    H236905   2.229   6.360   7.939 -1.2485  1.3058 -0.3344
 5116TIP3   OH236906   1.635   1.714   2.753 -0.0472  0.1335  0.4295
 5116TIP3    H136907   1.580   1.637   2.741  0.2622 -0.3326  1.8384
 5116TIP3    H236908   1.575   1.783   2.781 -0.3492  0.4838 -0.9844
 5117TIP3   OH236909   5.570   6.579   0.573  0.2020 -0.5401 -0.0753
 5117TIP3    H136910   5.499   6.573   0.636 -0.3878  0.4949 -0.6154
 5117TIP3    H236911   5.560   6.502   0.517 -0.2564 -0.6047  0.0960
 5118TIP3   OH236912   0.165   3.357   2.857  0.4339 -0.1257  0.1241
 5118TIP3    H136913   0.086   3.344   2.806 -0.3111  1.4315  0.8246
 5118TIP3    H236914   0.207   3.434   2.819  0.9021 -0.1245  0.6133
 5119TIP3   OH236915   4.666   5.199   1.846 -0.0002  0.8628  0.7420
 5119TIP3    H136916   4.754   5.233   1.827  0.7594 -0.7620  1.1810
 5119TIP3    H236917   4.638   5.157   1.765  1.3983 -2.1853  1.6792
 5120TIP3   OH236918   2.751   3.327   7.197 -0.3387 -0.6793 -0.2520
 5120TIP3    H136919   2.720   3.404   7.150 -0.8637 -0.7605 -0.0483
 5120TIP3    H236920   2.674   3.271   7.206  0.1094 -1.3846 -0.6878
 5121TIP3   OH236921   0.251   0.145   3.246 -0.0693 -0.6263 -0.3595
 5121TIP3    H136922   0.202   0.227   3.237  0.0509 -0.7537 -2.6953
 5121TIP3    H236923   0.224   0.093   3.171  0.6063 -2.3666  0.5539
 5122TIP3   OH236924   0.531   6.778   1.510 -0.3800 -0.1329  0.0371
 5122TIP3    H136925   0.601   6.817   1.458 -1.9182  1.7860 -0.7260
 5122TIP3    H236926   0.451   6.801   1.463 -1.5302 -3.0031  0.4033
 5123TIP3   OH236927   5.060   6.410   7.177 -0.5982  0.8282  0.2784
 5123TIP3    H136928   5.105   6.363   7.106 -1.4923 -1.1438  0.9488
 5123TIP3    H236929   5.019   6.485   7.134  2.6018  2.3084 -0.4845
 5124TIP3   OH236930   1.038   6.194   1.883  0.1797  0.5495  0.2362
 5124TIP3    H136931   1.044   6.100   1.869  1.0760 -0.0484  3.8238
 5124TIP3    H236932   0.953   6.207   1.925  0.6678  1.1131  1.0759
 5125TIP3   OH236933   3.508   6.872   6.772 -0.1055 -0.8617  0.0025
 5125TIP3    H136934   3.432   6.909   6.818  0.0204 -0.3062 -0.2191
 5125TIP3    H236935   3.475   6.793   6.730 -1.1693  0.4903 -1.9305
 5126TIP3   OH236936   1.825   3.274   1.369  0.6035  0.1132  0.2064
 5126TIP3    H136937   1.759   3.255   1.436  0.1323  0.8093 -0.0388
 5126TIP3    H236938   1.850   3.189   1.335  1.3529 -0.3050  1.7215
 5127TIP3   OH236939   3.685   0.979   2.449 -0.0977  0.0317  0.1549
 5127TIP3    H136940   3.650   0.908   2.503  0.1909  0.0504  0.3742
 5127TIP3    H236941   3.649   0.963   2.362 -0.4440 -0.0898  0.3180
 5128TIP3   OH236942   3.192   5.326   6.935  0.5016  0.0125 -0.1642
 5128TIP3    H136943   3.177   5.269   7.011 -0.7637  0.3193 -0.1530
 5128TIP3    H236944   3.161   5.412   6.964 -0.6582 -0.0117 -1.2433
 5129TIP3   OH236945   5.189   2.993   1.343  0.4544 -0.0523 -0.1968
 5129TIP3    H136946   5.176   3.041   1.424 -1.3540 -0.2714 -0.3134
 5129TIP3    H236947   5.209   3.060   1.277  0.8119  0.2280  0.1919
 5130TIP3   OH236948   2.811   6.157   1.744 -0.3273 -0.5455  0.0949
 5130TIP3    H136949   2.722   6.192   1.738  0.0172  0.3806  0.2027
 5130TIP3    H236950   2.808   6.098   1.819 -0.7191 -0.1013  0.4371
 5131TIP3   OH236951   1.644   1.666   7.740  0.2539 -0.3893  0.1079
 5131TIP3    H136952   1.680   1.579   7.759  1.2227  0.0591  0.3661
 5131TIP3    H236953   1.615   1.660   7.649  1.4417 -0.6340 -0.2816
 5132TIP3   OH236954   0.220   5.647   1.242  0.0830 -0.0462 -0.1704
 5132TIP3    H136955   0.261   5.697   1.313 -1.9600 -0.0949  1.1281
 5132TIP3    H236956   0.226   5.556   1.271  1.4414 -0.3465 -1.2839
 5133TIP3   OH236957   5.771   1.668   8.008 -0.2983  0.2485 -0.2989
 5133TIP3    H136958   5.724   1.610   7.948 -0.8272  0.7874 -0.4061
 5133TIP3    H236959   5.724   1.751   8.004 -1.2833 -0.1041  1.9759
 5134TIP3   OH236960   3.881   5.986   0.837 -0.4107 -0.3753  0.4809
 5134TIP3    H136961   3.947   5.936   0.884  0.4034 -0.9031 -1.1551
 5134TIP3    H236962   3.901   5.972   0.744 -1.7309  0.9072 -0.0445
 5135TIP3   OH236963   4.508   4.080   7.045  0.4154  0.5423 -0.4777
 5135TIP3    H136964   4.477   4.157   7.093  0.0418  0.0825  0.0379
 5135TIP3    H236965   4.438   4.060   6.982  0.0008 -0.0261  0.1470
 5136TIP3   OH236966   6.802   6.507   8.321 -0.3582  0.2143  0.3883
 5136TIP3    H136967   6.813   6.427   8.372 -1.9697 -1.4111 -1.6164
 5136TIP3    H236968   6.707   6.520   8.317 -0.1809  1.3706 -0.5730
 5137TIP3   OH236969   5.258   1.158   8.267  0.5230 -0.0806  0.4009
 5137TIP3    H136970   5.238   1.166   8.360  2.1548  0.6371  0.7229
 5137TIP3    H236971   5.254   1.247   8.233 -1.3554 -0.4610 -0.5593
 5138TIP3   OH236972   6.407   5.025   0.100 -0.3086  0.5345  0.3584
 5138TIP3    H136973   6.360   5.013   0.017  0.7717  1.1167 -0.3599
 5138TIP3    H236974   6.498   5.004   0.080 -0.1975 -0.3570  1.6719
 5139TIP3   OH236975   0.071   0.795   0.138 -0.3374 -0.0304  0.0065
 5139TIP3    H136976   0.051   0.822   0.049 -2.0610 -0.4559  0.2378
 5139TIP3    H236977   0.131   0.721   0.128 -0.7439 -0.2573 -0.8016
 5140TIP3   OH236978   6.636   0.597   1.376  0.5953  0.4477 -0.4885
 5140TIP3    H136979   6.602   0.624   1.291 -0.2486  0.5858 -0.1124
 5140TIP3    H236980   6.617   0.670   1.434 -1.3485 -0.7235  0.4420
 5141TIP3   OH236981   4.958   6.047   2.245  0.2578 -0.0178 -0.2216
 5141TIP3    H136982   5.049   6.020   2.234 -0.0997 -1.0402 -0.8119
 5141TIP3    H236983   4.949   6.124   2.189  0.4975 -0.5495 -1.0105
 5142TIP3   OH236984   5.239   3.610   8.173  0.1857  0.2797  0.1982
 5142TIP3    H136985   5.273   3.520   8.173  0.8249  0.4884 -1.7702
 5142TIP3    H236986   5.272   3.648   8.255  0.1145 -1.1715  0.9391
 5143TIP3   OH236987   3.023   3.924   8.424 -0.2605 -0.2230  0.4956
 5143TIP3    H136988   3.017   4.018   8.441  0.3613 -0.5098  2.6047
 5143TIP3    H236989   2.959   3.908   8.355 -1.4195  1.5329  1.0820
 5144TIP3   OH236990   1.134   4.768   1.604 -0.1036  0.1511 -0.2506
 5144TIP3    H136991   1.116   4.777   1.697  1.4716 -1.1069  0.2324
 5144TIP3    H236992   1.217   4.719   1.600 -0.6163 -0.6684 -2.3041
 5145TIP3   OH236993   6.391   1.197   0.847 -0.5818 -0.1652  0.2604
 5145TIP3    H136994   6.434   1.226   0.927 -2.0191 -0.1629  1.0810
 5145TIP3    H236995   6.331   1.269   0.826 -0.3876 -0.2740 -0.6868
 5146TIP3   OH236996   4.986   4.300   2.772 -0.8547 -0.0070 -0.0637
 5146TIP3    H136997   4.909   4.250   2.743 -0.7950 -1.0468  1.4907
 5146TIP3    H236998   4.953   4.389   2.784 -1.5299 -0.1740 -0.5880
 5147TIP3   OH236999   5.674   1.368   0.325 -0.7606  0.2707 -0.4285
 5147TIP3    H137000   5.759   1.405   0.300 -0.7844  1.7680  1.4503
 5147TIP3    H237001   5.655   1.408   0.410 -4.1148  1.3222 -1.4985
 5148TIP3   OH237002   5.924   5.926   7.587 -0.0935 -0.2675  0.0557
 5148TIP3    H137003   5.920   5.989   7.660  0.2052 -1.3417  1.0288
 5148TIP3    H237004   5.975   5.970   7.520 -0.8330  0.9657  0.2650
 5149TIP3   OH237005   3.849   3.700   6.834  0.2968 -0.3519 -0.0440
 5149TIP3    H137006   3.864   3.755   6.911 -1.0593 -1.6107  1.1968
 5149TIP3    H237007   3.775   3.741   6.790  0.9365  0.2511 -0.5573
 5150TIP3   OH237008   0.515   2.371   0.580  0.3272  0.1859  0.1307
 5150TIP3    H137009   0.503   2.466   0.580  0.4745  0.2184  1.3365
 5150TIP3    H237010   0.498   2.345   0.670 -0.3149 -1.0190 -0.3160
 5151TIP3   OH237011   1.172   6.842   7.593  0.4354 -0.3773  0.0215
 5151TIP3    H137012   1.217   6.893   7.527 -0.0860 -1.1371 -0.9409
 5151TIP3    H237013   1.191   6.751   7.571  1.3050 -0.6457  1.6682
 5152TIP3   OH237014   3.731   0.163   1.236  0.4141  0.6107 -0.4000
 5152TIP3    H137015   3.792   0.090   1.250 -0.9452 -0.8078 -1.5106
 5152TIP3    H237016   3.647   0.130   1.269  0.2320  2.6147  1.3386
 5153TIP3   OH237017   4.979   2.031   0.503 -0.1286  0.5859  0.1119
 5153TIP3    H137018   5.072   2.014   0.488 -0.0870  0.4475  0.5050
 5153TIP3    H237019   4.935   1.950   0.479 -0.0474  0.3116  0.8612
 5154TIP3   OH237020   1.258   2.665   1.832 -0.1391 -0.3316  0.5729
 5154TIP3    H137021   1.311   2.615   1.894  0.5890  0.2949  0.4689
 5154TIP3    H237022   1.184   2.696   1.884  0.3725  0.0401  1.0839
 5155TIP3   OH237023   3.512   1.186   2.106  0.0056  0.4121 -0.2892
 5155TIP3    H137024   3.569   1.109   2.108 -1.2307 -0.5282  1.2480
 5155TIP3    H237025   3.536   1.236   2.185 -1.5337 -0.2267  0.6260
 5156TIP3   OH237026   2.254   0.617   7.176  0.3005 -0.0553 -0.2782
 5156TIP3    H137027   2.337   0.615   7.129 -0.3302  0.7306 -1.4479
 5156TIP3    H237028   2.276   0.658   7.260  1.2509 -0.6216 -0.2334
 5157TIP3   OH237029   6.481   6.668   1.881 -0.3537 -0.0759  0.3261
 5157TIP3    H137030   6.471   6.575   1.863  1.9374 -0.1019 -1.1658
 5157TIP3    H237031   6.518   6.671   1.970  0.2684 -0.6251  0.0886
 5158TIP3   OH237032   6.823   3.622   0.105 -0.2150  0.3395  0.1844
 5158TIP3    H137033   6.823   3.559   0.033  0.2871  0.5792 -0.0269
 5158TIP3    H237034   6.783   3.701   0.068 -1.1860  0.0403  0.5534
 5159TIP3   OH237035   4.426   3.397   7.422 -0.9166  0.0854  0.1058
 5159TIP3    H137036   4.418   3.342   7.500 -0.0173  0.3418  0.3856
 5159TIP3    H237037   4.335   3.419   7.399 -1.1676  0.8362  1.6761
 5160TIP3   OH237038   5.881   0.936   2.911  0.3938  0.4167 -0.2437
 5160TIP3    H137039   5.958   0.992   2.913  0.3365  0.5336 -1.0984
 5160TIP3    H237040   5.816   0.982   2.965  0.1507  1.4814 -1.3940
 5161TIP3   OH237041   6.437   4.147   0.143 -0.3011  0.1995  0.1804
 5161TIP3    H137042   6.398   4.110   0.064  1.2404  0.4963 -0.7607
 5161TIP3    H237043   6.416   4.084   0.212 -0.2163 -0.9395 -0.8118
 5162TIP3   OH237044   5.703   4.920   2.902  0.3592 -0.2349 -0.0153
 5162TIP3    H137045   5.682   4.828   2.886  0.7391 -0.2346 -0.5614
 5162TIP3    H237046   5.618   4.964   2.903  0.2497  0.0734 -4.2058
 5163TIP3   OH237047   5.877   6.347   7.019 -0.2161  0.2192 -0.1001
 5163TIP3    H137048   5.821   6.383   6.950 -2.0622 -0.5802  0.9150
 5163TIP3    H237049   5.856   6.400   7.096  1.7079  1.0036 -0.0613
 5164TIP3   OH237050   3.382   1.800   0.019  0.3357  0.3156  0.3637
 5164TIP3    H137051   3.408   1.889   0.042  0.6270  0.1238  0.7918
 5164TIP3    H237052   3.401   1.748   0.097  1.2610 -0.3290 -0.2608
 5165TIP3   OH237053   2.704   2.751   8.382 -0.1607  0.1582  0.0695
 5165TIP3    H137054   2.611   2.731   8.382 -0.0683 -0.2902 -0.1829
 5165TIP3    H237055   2.745   2.672   8.346  0.4264 -0.2148  1.4622
 5166TIP3   OH237056   2.643   2.215   3.404  0.7369 -0.0745  0.2564
 5166TIP3    H137057   2.603   2.284   3.351 -2.1675 -0.8408  1.3014
 5166TIP3    H237058   2.724   2.194   3.357 -1.0367  0.1356 -3.2576
 5167TIP3   OH237059   2.361   3.575   2.464 -0.0441  0.4778  0.2055
 5167TIP3    H137060   2.352   3.535   2.550 -0.4735  1.0291  0.4188
 5167TIP3    H237061   2.452   3.605   2.461  1.2259 -2.9345 -1.0281
 5168TIP3   OH237062   0.328   3.750   1.301  0.2316  0.2462  0.5329
 5168TIP3    H137063   0.257   3.814   1.293  0.0754  0.0135  0.0152
 5168TIP3    H237064   0.335   3.711   1.214  1.0496  0.3200  0.5512
 5169TIP3   OH237065   6.120   4.570   8.285 -0.0650  0.8339  0.3706
 5169TIP3    H137066   6.115   4.560   8.380  2.3776 -1.7870  0.3362
 5169TIP3    H237067   6.195   4.628   8.271  0.3916  0.1662  0.0216
 5170TIP3   OH237068   2.132   4.524   2.105  0.0311  0.5290 -0.5197
 5170TIP3    H137069   2.182   4.542   2.185 -1.2156  2.5522 -0.1404
 5170TIP3    H237070   2.043   4.508   2.135 -0.0728 -0.7158 -1.3907
 5171TIP3   OH237071   4.292   0.693   1.205  0.3477  0.2601  0.6998
 5171TIP3    H137072   4.209   0.647   1.200  0.0694  0.8186 -0.1102
 5171TIP3    H237073   4.269   0.780   1.237  0.2161  1.2567 -1.8318
 5172TIP3   OH237074   6.730   4.800   8.232  0.6310  0.3184 -0.2115
 5172TIP3    H137075   6.783   4.721   8.224  0.6427  0.3764 -0.7437
 5172TIP3    H237076   6.659   4.787   8.170 -0.2036  0.0696  0.7741
 5173TIP3   OH237077   4.290   2.798   1.614  0.2952 -0.0985 -0.0787
 5173TIP3    H137078   4.251   2.791   1.527 -0.6066 -1.1454  0.3858
 5173TIP3    H237079   4.289   2.709   1.647 -0.4057  0.4557  1.4508
 5174TIP3   OH237080   5.010   5.535   7.639  0.0151 -0.1012 -0.1838
 5174TIP3    H137081   4.950   5.463   7.657 -1.4311  1.0143 -0.4412
 5174TIP3    H237082   5.097   5.497   7.655 -0.7515 -1.5849  0.7458
 5175TIP3   OH237083   3.795   0.597   6.978  0.1494  0.0890  0.2649
 5175TIP3    H137084   3.825   0.531   6.915  2.0971  1.2320 -0.1082
 5175TIP3    H237085   3.734   0.651   6.928 -1.5390 -1.4053  0.6012
 5176TIP3   OH237086   1.788   4.154   1.489  0.3824  0.6025  0.4559
 5176TIP3    H137087   1.818   4.067   1.517 -0.9580 -0.2475 -0.6246
 5176TIP3    H237088   1.788   4.206   1.569  1.4797 -0.3006  1.0800
 5177TIP3   OH237089   2.930   5.519   2.091  0.0401 -0.0754 -0.7495
 5177TIP3    H137090   3.005   5.578   2.083  0.0330  0.2614  1.2435
 5177TIP3    H237091   2.855   5.572   2.065  0.0567  0.8076  0.8442
 5178TIP3   OH237092   3.814   6.175   7.498 -0.4497  0.6629  0.6773
 5178TIP3    H137093   3.830   6.119   7.422 -3.2573  1.7221 -0.8230
 5178TIP3    H237094   3.724   6.157   7.523 -0.1936  1.7603  2.5829
 5179TIP3   OH237095   2.367   5.742   2.440 -0.1554 -0.4776  0.0959
 5179TIP3    H137096   2.417   5.824   2.437  0.5878 -0.9188  0.1870
 5179TIP3    H237097   2.372   5.714   2.531 -2.6064  0.6808  0.6755
 5180TIP3   OH237098   5.663   2.180   2.908  0.1313  0.1374 -0.2380
 5180TIP3    H137099   5.609   2.258   2.895  1.8712  1.3366 -0.6589
 5180TIP3    H237100   5.617   2.130   2.975 -0.9332  1.6326  0.2089
 5181TIP3   OH237101   2.496   1.175   1.705  0.4686 -0.3759  0.2539
 5181TIP3    H137102   2.545   1.128   1.638 -2.7632 -1.2473 -1.7247
 5181TIP3    H237103   2.426   1.220   1.657 -0.2012  1.4869  2.7652
 5182TIP3   OH237104   0.254   6.143   7.462  0.2668 -0.1230 -0.3555
 5182TIP3    H137105   0.265   6.053   7.432  1.6544 -0.0709 -0.0741
 5182TIP3    H237106   0.207   6.187   7.391  0.4843 -0.8264 -0.9415
 5183TIP3   OH237107   6.384   1.890   0.862  0.2986  0.4204 -0.9314
 5183TIP3    H137108   6.454   1.935   0.815 -0.9549  0.8692 -2.4698
 5183TIP3    H237109   6.326   1.960   0.892  0.4897  0.0595  0.3524
 5184TIP3   OH237110   2.235   0.274   1.666 -0.1561  0.3389  0.5666
 5184TIP3    H137111   2.227   0.181   1.688 -1.1800 -0.2084 -1.8298
 5184TIP3    H237112   2.146   0.301   1.642  0.5782  1.1847 -1.4026
 5185TIP3   OH237113   2.101   1.846   7.973  0.8397  1.0603  0.4595
 5185TIP3    H137114   2.018   1.801   7.959  1.5018  0.0030 -0.1850
 5185TIP3    H237115   2.135   1.863   7.885  0.7815  2.5221  0.6961
 5186TIP3   OH237116   4.341   6.619   2.948 -0.0165  0.4494 -0.0257
 5186TIP3    H137117   4.271   6.657   2.894 -1.2776  0.2048  1.3863
 5186TIP3    H237118   4.389   6.695   2.981  0.3336  0.6258 -0.9178
 5187TIP3   OH237119   1.707   0.746   0.141 -0.3936 -0.5166 -0.0191
 5187TIP3    H137120   1.629   0.801   0.143  0.4598  0.7873 -1.2674
 5187TIP3    H237121   1.780   0.807   0.128  0.9097 -1.6467  1.5351
 5188TIP3   OH237122   2.041   1.490   7.850  0.0629  0.6878  0.8371
 5188TIP3    H137123   2.103   1.453   7.787  0.0281  0.9458  0.6510
 5188TIP3    H237124   2.023   1.418   7.911 -1.2167 -0.1029 -0.4141
 5189TIP3   OH237125   3.729   6.318   8.141 -0.5738  0.0022 -0.2159
 5189TIP3    H137126   3.683   6.323   8.057  0.1426  2.9519 -0.5657
 5189TIP3    H237127   3.814   6.278   8.119 -1.0059 -0.7462 -0.5571
 5190TIP3   OH237128   4.205   5.613   8.267 -0.2251 -0.5370 -0.3683
 5190TIP3    H137129   4.132   5.560   8.300  0.6043 -0.9370  0.8865
 5190TIP3    H237130   4.237   5.564   8.191 -0.6640 -0.8408 -0.3616
 5191TIP3   OH237131   0.399   3.983   0.518  0.1049 -0.3340 -0.2725
 5191TIP3    H137132   0.436   3.923   0.583 -1.8297 -2.6183 -1.1291
 5191TIP3    H237133   0.314   3.946   0.497  0.4964  0.4354 -3.9134
 5192TIP3   OH237134   4.994   1.904   0.850  0.3610 -0.5977  0.1584
 5192TIP3    H137135   5.045   1.854   0.914  1.2603 -1.3729 -1.1166
 5192TIP3    H237136   5.059   1.954   0.801 -0.2251 -0.5920 -0.6380
 5193TIP3   OH237137   3.103   1.745   8.365  0.2661  0.0598 -0.7208
 5193TIP3    H137138   3.197   1.736   8.376  0.0890 -0.7709  0.4072
 5193TIP3    H237139   3.092   1.793   8.283  1.7108  2.3564  0.3356
 5194TIP3   OH237140   2.071   3.298   0.970 -0.1052 -0.0548  0.4632
 5194TIP3    H137141   2.065   3.337   0.883 -0.8105  0.0387  0.5467
 5194TIP3    H237142   1.985   3.313   1.009  0.0246 -0.5863  0.9687
 5195TIP3   OH237143   4.267   0.619   1.529 -0.5149  0.0560  0.1946
 5195TIP3    H137144   4.289   0.553   1.595  0.8305  1.2788  1.0319
 5195TIP3    H237145   4.347   0.671   1.520 -0.0341 -1.0099 -3.6323
 5196TIP3   OH237146   1.324   2.134   1.542  0.4809  0.2772 -0.2104
 5196TIP3    H137147   1.330   2.046   1.581  2.1585  0.4944  0.1226
 5196TIP3    H237148   1.279   2.186   1.608 -2.0240 -0.6374 -1.0752
 5197TIP3   OH237149   2.962   2.659   1.754 -0.1483  0.3466  0.2160
 5197TIP3    H137150   3.036   2.686   1.808 -0.2851  1.0993  0.0336
 5197TIP3    H237151   2.901   2.617   1.815 -0.4519  1.4766  0.7129
 5198TIP3   OH237152   2.397   1.528   7.557  0.3559 -0.4273  0.5561
 5198TIP3    H137153   2.472   1.542   7.614  0.7321 -0.8869  0.1864
 5198TIP3    H237154   2.336   1.598   7.580  1.6559  1.0849 -0.4045
 5199TIP3   OH237155   1.246   0.673   1.638 -0.3146 -0.0939  0.2663
 5199TIP3    H137156   1.334   0.648   1.667  0.1437  0.9736 -0.1646
 5199TIP3    H237157   1.240   0.766   1.657 -0.7597  0.1899 -1.1509
 5200TIP3   OH237158   2.590   5.127   1.354 -0.3204  0.3140  0.3487
 5200TIP3    H137159   2.540   5.169   1.424 -0.7832  0.0807  0.1643
 5200TIP3    H237160   2.532   5.129   1.278 -0.2147 -0.3337  0.2407
 5201TIP3   OH237161   3.932   0.308   0.917 -0.0096 -0.4728 -0.5132
 5201TIP3    H137162   3.918   0.238   0.854  0.6598 -0.3286 -0.8376
 5201TIP3    H237163   3.996   0.272   0.979 -1.0280 -0.7879  0.3774
 5202TIP3   OH237164   6.097   3.606   3.089 -0.3179  0.3459  0.7194
 5202TIP3    H137165   6.092   3.528   3.145 -1.8173  1.2545  1.9361
 5202TIP3    H237166   6.007   3.638   3.084 -0.1105  0.7305 -1.6714
 5203TIP3   OH237167   2.546   6.356   1.849 -0.2746  0.2004 -0.4975
 5203TIP3    H137168   2.462   6.351   1.803 -0.6643  0.7550  0.1269
 5203TIP3    H237169   2.526   6.404   1.930  0.3655 -0.8265  0.2943
 5204TIP3   OH237170   5.553   4.089   0.956 -0.4124  0.1633 -0.0867
 5204TIP3    H137171   5.638   4.084   1.000 -1.1479 -2.0035  1.2064
 5204TIP3    H237172   5.575   4.087   0.862  0.9843  0.6179  0.1948
 5205TIP3   OH237173   4.516   0.515   7.310  0.2996 -0.0563 -0.3561
 5205TIP3    H137174   4.516   0.604   7.346  0.3782  0.1430 -0.8362
 5205TIP3    H237175   4.457   0.519   7.235 -2.0268 -1.1399  1.3113
 5206TIP3   OH237176   2.020   6.356   2.519 -0.1092 -0.4241  0.3340
 5206TIP3    H137177   2.070   6.425   2.561  0.0653 -2.1455  3.2639
 5206TIP3    H237178   2.072   6.330   2.443  0.9426  1.0810  0.5062
 5207TIP3   OH237179   6.158   6.379   7.400 -0.0093  0.1453 -0.0363
 5207TIP3    H137180   6.098   6.451   7.419 -0.8756 -0.7436  0.7347
 5207TIP3    H237181   6.238   6.422   7.368  0.0140  1.5334  1.7084
 5208TIP3   OH237182   0.420   6.898   2.017 -0.1770  0.4483 -0.4003
 5208TIP3    H137183   0.443   6.831   1.952 -1.3955 -2.1078  1.5922
 5208TIP3    H237184   0.324   6.897   2.018 -0.1923  0.7659  1.0316
 5209TIP3   OH237185   6.765   3.843   7.949  1.1151 -0.4924  0.6069
 5209TIP3    H137186   6.813   3.911   7.900 -1.8389  0.1265 -1.7873
 5209TIP3    H237187   6.700   3.892   7.999  0.6501 -1.4548  0.9534
 5210TIP3   OH237188   1.909   3.104   7.835  0.0329  0.5044  0.0392
 5210TIP3    H137189   1.872   3.109   7.747 -1.0660  0.5234  0.4909
 5210TIP3    H237190   1.864   3.173   7.884  1.0113  0.8463  0.4929
 5211TIP3   OH237191   0.896   3.700   2.541 -0.1542 -0.1180  0.4746
 5211TIP3    H137192   0.898   3.779   2.487  0.3944  0.4679  1.3371
 5211TIP3    H237193   0.862   3.729   2.625  1.1301 -0.5750  1.1640
 5212TIP3   OH237194   4.509   4.268   1.925  0.2066 -0.2899 -0.0146
 5212TIP3    H137195   4.546   4.215   1.855 -0.6593  1.9711 -2.3383
 5212TIP3    H237196   4.567   4.343   1.932 -0.3440  0.0709  0.9218
 5213TIP3   OH237197   5.432   3.678   8.405  0.3296 -0.3871 -0.5082
 5213TIP3    H137198   5.453   3.739   8.476 -0.3080 -0.8876  0.1321
 5213TIP3    H237199   5.494   3.699   8.336  1.0500  0.0362  0.2456
 5214TIP3   OH237200   1.252   3.983   7.441  0.1808 -0.0692  0.6288
 5214TIP3    H137201   1.195   3.972   7.517 -0.1451 -1.5065  0.2189
 5214TIP3    H237202   1.311   3.908   7.444 -0.3307 -0.5878 -0.9228
 5215TIP3   OH237203   5.525   2.507   2.980 -0.5973 -0.0257  0.5443
 5215TIP3    H137204   5.567   2.536   2.899 -1.5333  1.3893  0.5189
 5215TIP3    H237205   5.463   2.578   3.001 -1.6706 -1.2039  1.5203
 5216TIP3   OH237206   4.635   2.816   1.906  0.1968  0.0254  0.0347
 5216TIP3    H137207   4.658   2.848   1.818  1.8534  0.0975  0.4512
 5216TIP3    H237208   4.567   2.875   1.936 -0.2392  0.1345 -1.1170
 5217TIP3   OH237209   3.744   2.150   0.802 -0.1667  0.1256 -0.1494
 5217TIP3    H137210   3.674   2.108   0.852  0.8597 -3.0638 -1.1205
 5217TIP3    H237211   3.817   2.088   0.806  1.1674  1.3848 -2.5828
 5218TIP3   OH237212   5.694   6.655   2.233 -0.2868  0.4274  0.4080
 5218TIP3    H137213   5.688   6.750   2.247  1.9018  0.7505 -0.5350
 5218TIP3    H237214   5.703   6.644   2.139  0.9139 -0.6176  0.6200
 5219TIP3   OH237215   5.982   5.042   2.492  0.3021 -0.1044  0.0508
 5219TIP3    H137216   5.945   5.086   2.568  0.4030 -3.1608  2.0798
 5219TIP3    H237217   6.077   5.045   2.507  0.3000 -1.1429  0.3684
 5220TIP3   OH237218   2.307   5.700   0.550 -0.6968 -0.4935  0.5347
 5220TIP3    H137219   2.275   5.760   0.618  0.0388 -1.1653  1.5027
 5220TIP3    H237220   2.402   5.701   0.561 -0.6744 -1.8333  0.5692
 5221TIP3   OH237221   1.637   6.110   1.257 -0.3556 -0.2378  0.2523
 5221TIP3    H137222   1.687   6.077   1.332 -0.7988 -2.3436 -0.3125
 5221TIP3    H237223   1.700   6.158   1.205  0.7332 -1.4750  0.3798
 5222TIP3   OH237224   5.990   0.141   0.585  0.0475  0.0523 -0.0449
 5222TIP3    H137225   5.953   0.062   0.546  0.0162 -0.5445  1.1400
 5222TIP3    H237226   5.965   0.212   0.526 -2.5044 -0.3895  0.4219
 5223TIP3   OH237227   4.759   0.834   7.698 -0.0861  0.1453  0.3031
 5223TIP3    H137228   4.790   0.891   7.769  0.5080 -1.8502  1.7568
 5223TIP3    H237229   4.664   0.837   7.706 -0.1076  1.4444 -0.1232
 5224TIP3   OH237230   3.802   0.139   7.447  0.3567 -0.0272  0.1127
 5224TIP3    H137231   3.786   0.227   7.413  0.7257  0.3959  1.0069
 5224TIP3    H237232   3.898   0.132   7.451  0.3625 -0.8412 -0.8620
 5225TIP3   OH237233   4.035   3.749   2.955  0.1937 -0.2615 -0.5964
 5225TIP3    H137234   4.105   3.802   2.917  1.2913 -1.5183 -0.4232
 5225TIP3    H237235   4.073   3.661   2.961 -0.4402 -0.4393  2.0187
 5226TIP3   OH237236   5.979   3.535   2.366  0.1658  0.3973  0.4697
 5226TIP3    H137237   5.933   3.483   2.300 -0.4042 -1.4457  2.2320
 5226TIP3    H237238   6.047   3.476   2.400  0.1777  1.1387  1.8124
 5227TIP3   OH237239   3.207   4.357   0.959 -0.1035 -0.0702 -0.2266
 5227TIP3    H137240   3.259   4.434   0.935  0.7963 -0.6515 -0.1774
 5227TIP3    H237241   3.243   4.329   1.043  1.7377 -2.3984 -1.6832
 5228TIP3   OH237242   1.778   1.651   2.276 -0.0921 -0.2957 -1.0087
 5228TIP3    H137243   1.823   1.727   2.239  0.5992 -0.5269 -0.6640
 5228TIP3    H237244   1.695   1.686   2.309  0.7982  0.6066  0.4112
 5229TIP3   OH237245   6.381   1.941   2.845  0.6303 -0.1181 -0.2754
 5229TIP3    H137246   6.311   1.926   2.909 -0.1476  2.5765 -0.3695
 5229TIP3    H237247   6.423   1.855   2.834 -1.7556 -1.5289  0.8391
 5230TIP3   OH237248   1.249   5.003   7.623  0.1265 -0.1713 -0.0667
 5230TIP3    H137249   1.303   5.042   7.555 -1.1219  1.9490  0.0816
 5230TIP3    H237250   1.237   5.072   7.688 -2.2220 -0.7165  0.1917
 5231TIP3   OH237251   1.585   3.846   7.087  0.2030  0.1105  0.4460
 5231TIP3    H137252   1.567   3.760   7.049 -0.5029  0.8995 -1.0830
 5231TIP3    H237253   1.499   3.886   7.098  0.5582  0.8745  0.5292
 5232TIP3   OH237254   0.057   5.120   0.563  0.2751 -0.0092 -0.3132
 5232TIP3    H137255  -0.028   5.140   0.523 -0.6120  2.1575  2.3616
 5232TIP3    H237256   0.095   5.205   0.584  1.3606 -0.9739  1.9687
 5233TIP3   OH237257   0.838   5.725   1.455 -0.3301  0.0946 -0.1213
 5233TIP3    H137258   0.902   5.781   1.411 -1.1931  0.0770 -1.4485
 5233TIP3    H237259   0.879   5.704   1.539 -0.1428  3.0217  0.6323
 5234TIP3   OH237260   3.396   2.896   7.192  0.3459 -0.1980  0.5426
 5234TIP3    H137261   3.423   2.810   7.161  0.5859 -1.7479  4.4621
 5234TIP3    H237262   3.308   2.882   7.227 -0.3623  1.6540 -0.3480
 5235TIP3   OH237263   3.287   5.339   7.762  0.0409  0.1167  0.0850
 5235TIP3    H137264   3.319   5.329   7.852 -0.6062 -0.8194  0.2241
 5235TIP3    H237265   3.318   5.261   7.716 -1.3577 -0.4307  0.0308
 5236TIP3   OH237266   2.670   1.112   7.878 -0.1753  0.2954  0.0299
 5236TIP3    H137267   2.635   1.023   7.881  0.6604 -0.0806 -0.9809
 5236TIP3    H237268   2.643   1.151   7.962  1.1193 -1.5396  1.3834
 5237TIP3   OH237269   5.644   4.268   7.937  0.2766 -0.4514  0.5024
 5237TIP3    H137270   5.595   4.253   8.018 -1.4446 -1.0853 -0.6061
 5237TIP3    H237271   5.639   4.363   7.924  0.0771 -0.4146  0.8305
 5238TIP3   OH237272   6.113   2.196   8.030  0.2577 -0.2159 -0.4720
 5238TIP3    H137273   6.070   2.125   8.077 -2.1012  0.5988 -1.2530
 5238TIP3    H237274   6.205   2.171   8.027 -0.2834 -2.5521  0.4492
 5239TIP3   OH237275   0.156   3.439   2.531 -0.2428 -0.2487  0.3393
 5239TIP3    H137276   0.186   3.479   2.612  1.7116 -0.7669 -0.0900
 5239TIP3    H237277   0.184   3.500   2.462  0.7666 -1.2349 -0.1471
 5240TIP3   OH237278   3.416   3.497   8.426  0.0595 -0.6867 -0.4259
 5240TIP3    H137279   3.343   3.524   8.372 -0.2480 -1.9068 -0.6534
 5240TIP3    H237280   3.379   3.485   8.513  0.2247 -0.2203 -0.2921
 5241TIP3   OH237281   5.342   6.542   1.248  0.2263 -0.1219  0.6267
 5241TIP3    H137282   5.297   6.564   1.330  0.6814 -0.7400  1.0550
 5241TIP3    H237283   5.289   6.473   1.210 -1.0769  1.4685 -0.6056
 5242TIP3   OH237284   2.429   5.216   2.650  0.4711  0.0427  0.5002
 5242TIP3    H137285   2.424   5.307   2.681 -1.7435 -0.2041  1.0338
 5242TIP3    H237286   2.452   5.165   2.728  1.5520  0.1065  0.2358
 5243TIP3   OH237287   1.838   5.478   8.223 -0.1416 -0.2503 -0.5311
 5243TIP3    H137288   1.822   5.452   8.313 -2.6453  0.1604 -0.7811
 5243TIP3    H237289   1.880   5.403   8.182 -2.1512 -1.8081  0.1370
 5244TIP3   OH237290   2.502   3.339   3.036  0.2382  0.2143 -0.0019
 5244TIP3    H137291   2.540   3.279   3.101  0.4848 -0.1043 -0.4373
 5244TIP3    H237292   2.488   3.284   2.959 -2.8215 -0.1602  0.7048
 5245TIP3   OH237293   3.016   3.774   0.222  0.2616 -0.5413 -0.1285
 5245TIP3    H137294   3.003   3.831   0.146 -0.5272 -1.3005 -0.5882
 5245TIP3    H237295   3.058   3.830   0.287 -0.4773  0.5633 -0.5584
 5246TIP3   OH237296   4.918   6.688   7.388 -0.2587 -0.0758  0.3976
 5246TIP3    H137297   4.851   6.753   7.367 -0.4582 -0.7493 -1.1522
 5246TIP3    H237298   4.961   6.669   7.305  1.0614 -0.5553  1.1510
 5247TIP3   OH237299   0.517   3.146   2.327 -0.8189  0.3858 -0.1480
 5247TIP3    H137300   0.432   3.102   2.320 -1.4557  1.4845  0.3196
 5247TIP3    H237301   0.557   3.111   2.406  0.4457 -2.1925 -1.8069
 5248TIP3   OH237302   4.287   4.181   8.174 -0.3378 -0.6121  0.4083
 5248TIP3    H137303   4.256   4.113   8.114 -0.5605 -0.6985  0.6192
 5248TIP3    H237304   4.305   4.256   8.118 -2.2964 -0.0740  0.4228
 5249TIP3   OH237305   1.307   2.395   3.003  0.4865  0.1919  0.0470
 5249TIP3    H137306   1.226   2.446   3.011 -0.2060 -0.8507 -0.0597
 5249TIP3    H237307   1.326   2.395   2.909  1.2956  1.4369  0.1912
 5250TIP3   OH237308   2.567   2.913   0.661 -0.1214  0.0265  0.3067
 5250TIP3    H137309   2.559   2.977   0.732 -0.9747  0.3509 -0.0633
 5250TIP3    H237310   2.571   2.828   0.705  0.4732  0.2929  0.7799
 5251TIP3   OH237311   4.478   5.458   0.597 -0.2334  0.6552  0.0699
 5251TIP3    H137312   4.509   5.426   0.682  1.7769  0.8331 -0.5389
 5251TIP3    H237313   4.523   5.542   0.586 -1.0139  0.9622 -0.8679
 5252TIP3   OH237314   2.304   5.238   2.081  0.7316 -0.0033 -0.1998
 5252TIP3    H137315   2.352   5.157   2.098  1.9621  0.6917 -0.2841
 5252TIP3    H237316   2.279   5.270   2.167 -1.2843 -1.3170 -0.2128
 5253TIP3   OH237317   3.857   0.365   2.393 -0.3683  0.1528  0.0247
 5253TIP3    H137318   3.939   0.383   2.347 -0.0357  0.3198  0.6640
 5253TIP3    H237319   3.881   0.367   2.486 -0.7364 -1.5889  0.1814
 5254TIP3   OH237320   5.820   5.578   0.894 -0.8975 -0.0892  0.1586
 5254TIP3    H137321   5.837   5.663   0.852  1.8344  0.0977  1.4597
 5254TIP3    H237322   5.865   5.515   0.838  1.3490 -0.0267  1.7732
 5255TIP3   OH237323   3.985   4.345   6.935 -0.0433 -0.0381  0.7296
 5255TIP3    H137324   4.058   4.284   6.951 -1.0776 -1.3665  0.6079
 5255TIP3    H237325   3.910   4.303   6.978 -0.8069  1.1580  0.5995
 5256TIP3   OH237326   6.943   3.106   2.336  0.4413  0.2978 -0.4090
 5256TIP3    H137327   6.923   3.166   2.408  0.8009 -0.8562  0.7052
 5256TIP3    H237328   6.866   3.050   2.329 -1.0795  2.5692 -3.3173
 5257TIP3   OH237329   2.966   2.542   0.321  0.5816  0.0290  0.1051
 5257TIP3    H137330   2.947   2.541   0.415 -0.1148 -1.2257 -0.0230
 5257TIP3    H237331   2.914   2.615   0.287  0.0699 -0.1112  0.5626
 5258TIP3   OH237332   1.245   4.256   0.319  0.0440 -0.0103  0.9452
 5258TIP3    H137333   1.175   4.315   0.348 -0.3140  1.7688 -2.8777
 5258TIP3    H237334   1.320   4.278   0.374 -0.9178  1.9932  1.5315
 5259TIP3   OH237335   3.641   3.437   2.349  0.4988  0.4894 -0.4791
 5259TIP3    H137336   3.666   3.528   2.333  0.1816  0.3161 -2.1111
 5259TIP3    H237337   3.721   3.395   2.382  1.6617  0.5933 -2.9673
 5260TIP3   OH237338   0.487   1.776   2.421  0.2903 -0.4059 -0.3841
 5260TIP3    H137339   0.408   1.763   2.369  0.4655 -0.9606 -0.5141
 5260TIP3    H237340   0.552   1.717   2.383  0.0400 -1.8518  1.2770
 5261TIP3   OH237341   2.801   1.756   7.733 -0.4329 -0.3264 -0.4621
 5261TIP3    H137342   2.819   1.680   7.678 -1.5793 -0.1980 -1.0418
 5261TIP3    H237343   2.880   1.809   7.727  0.1574 -1.1841 -0.5152
 5262TIP3   OH237344   5.901   1.130   7.007 -0.0137  0.1760 -0.0302
 5262TIP3    H137345   5.819   1.180   7.010 -0.4396 -0.4442 -0.8239
 5262TIP3    H237346   5.967   1.194   6.979 -0.5387  0.3408 -0.9536
 5263TIP3   OH237347   3.212   6.719   7.981 -0.0903  0.3281 -0.6032
 5263TIP3    H137348   3.297   6.699   7.940  0.2348 -1.0771  0.6861
 5263TIP3    H237349   3.148   6.696   7.914  0.4738 -0.7978 -0.7838
 5264TIP3   OH237350   0.490   4.886   0.502 -0.5106 -0.7214 -0.2927
 5264TIP3    H137351   0.396   4.902   0.516 -0.3872 -0.5571  0.3970
 5264TIP3    H237352   0.514   4.945   0.430 -1.2891 -1.9891 -1.6448
 5265TIP3   OH237353   1.020   3.066   7.697 -0.3875 -0.1282 -0.3540
 5265TIP3    H137354   1.027   3.080   7.602  1.5155  0.6549 -0.1306
 5265TIP3    H237355   1.056   2.979   7.711  1.8079  0.7507 -0.1165
 5266TIP3   OH237356   2.724   0.930   0.198  0.2029 -0.6983 -0.1967
 5266TIP3    H137357   2.714   1.010   0.249  1.3892  1.0603 -2.5238
 5266TIP3    H237358   2.730   0.860   0.263  1.0204  1.3046  2.0193
 5267TIP3   OH237359   5.386   0.916   7.703 -0.1684  1.1140  0.0460
 5267TIP3    H137360   5.292   0.899   7.710 -0.3965  1.4465 -1.6730
 5267TIP3    H237361   5.425   0.864   7.773 -1.6502  1.2637  1.0302
 5268TIP3   OH237362   4.793   5.573   1.952  0.1402  0.2438 -0.1135
 5268TIP3    H137363   4.706   5.535   1.968  0.1645 -1.0341 -2.5893
 5268TIP3    H237364   4.803   5.638   2.022 -2.0599 -0.7719  1.2803
 5269TIP3   OH237365   2.302   3.524   2.201  0.0632  0.1717 -0.9264
 5269TIP3    H137366   2.305   3.544   2.294 -1.3770 -0.2557 -0.7636
 5269TIP3    H237367   2.337   3.435   2.194 -0.0486  0.1151 -0.7635
 5270TIP3   OH237368   6.100   4.150   0.361  0.2897 -1.2348  0.1778
 5270TIP3    H137369   6.050   4.106   0.430 -0.6794 -2.3071 -1.1509
 5270TIP3    H237370   6.111   4.083   0.294  0.5375  0.0024 -1.0496
 5271TIP3   OH237371   5.974   3.111   7.684 -0.1240  0.0561  0.2546
 5271TIP3    H137372   5.977   3.104   7.589 -2.3557  0.3466  0.1023
 5271TIP3    H237373   5.978   3.205   7.702 -1.2580  0.1030  0.3251
 5272TIP3   OH237374   5.622   6.653   0.936 -0.0876 -0.0030  0.4513
 5272TIP3    H137375   5.532   6.678   0.915 -0.3857 -0.2837  1.3326
 5272TIP3    H237376   5.664   6.639   0.851 -1.0923 -0.6449  0.0430
 5273TIP3   OH237377   6.332   6.493   8.049  0.5160 -0.1791  0.4847
 5273TIP3    H137378   6.392   6.549   8.002  0.9824 -2.3950 -1.7793
 5273TIP3    H237379   6.383   6.459   8.122  0.2553  2.1119  1.8241
 5274TIP3   OH237380   4.145   5.923   0.252 -0.0364 -0.0342 -0.2023
 5274TIP3    H137381   4.135   5.850   0.191  0.8981 -1.1430  0.9295
 5274TIP3    H237382   4.092   5.993   0.214 -1.3176 -1.4250 -1.0954
 5275TIP3   OH237383   1.260   4.613   1.168  0.2999 -0.0554 -0.3779
 5275TIP3    H137384   1.321   4.636   1.238  0.1513 -2.1207  0.5138
 5275TIP3    H237385   1.229   4.697   1.134 -0.8135  1.1095  3.0867
 5276TIP3   OH237386   3.868   2.375   0.005 -0.2465 -0.1779  0.1358
 5276TIP3    H137387   3.842   2.296  -0.041 -0.5454  0.1077 -0.1885
 5276TIP3    H237388   3.958   2.391  -0.022  0.2496 -1.1055  1.1742
 5277TIP3   OH237389   2.881   6.567   7.024 -0.0785 -0.0575 -0.7673
 5277TIP3    H137390   2.911   6.504   6.958 -1.0770 -1.0457 -0.3102
 5277TIP3    H237391   2.883   6.651   6.979  1.6008 -0.3398 -1.2948
 5278TIP3   OH237392   6.720   0.945   8.404  0.6715 -0.4008 -0.3730
 5278TIP3    H137393   6.732   1.005   8.477  2.2345 -0.3403 -0.6475
 5278TIP3    H237394   6.673   0.870   8.441  0.0600  0.3035  0.3111
 5279TIP3   OH237395   3.190   3.731   7.884 -0.1142 -0.0153 -0.0955
 5279TIP3    H137396   3.143   3.760   7.962  1.6580  1.2582  0.5736
 5279TIP3    H237397   3.182   3.805   7.823 -0.6173 -0.5858 -0.7356
 5280TIP3   OH237398   6.534   6.489   0.122 -0.1844 -0.2508 -0.4639
 5280TIP3    H137399   6.566   6.414   0.172  0.9743  0.1666 -0.5445
 5280TIP3    H237400   6.477   6.537   0.182 -0.1982 -0.7008 -0.1183
 5281TIP3   OH237401   4.810   0.569   1.491 -0.3837 -0.8914  0.6770
 5281TIP3    H137402   4.829   0.601   1.580 -2.3219  0.6302  0.6241
 5281TIP3    H237403   4.871   0.497   1.478  1.4519  0.2288  2.4209
 5282TIP3   OH237404   3.257   1.152   2.081 -0.7054 -0.1874  0.1105
 5282TIP3    H137405   3.235   1.244   2.097  1.3826  0.3431  0.1709
 5282TIP3    H237406   3.351   1.146   2.097 -0.0644 -1.5465 -3.1866
 5283TIP3   OH237407   2.588   0.392   8.041 -0.3820 -0.7652  0.6415
 5283TIP3    H137408   2.504   0.420   8.077 -0.3641 -1.1528  0.9942
 5283TIP3    H237409   2.582   0.412   7.947 -1.2565 -1.6883  0.4770
 5284TIP3   OH237410   5.123   6.894   0.742  0.3346 -0.2662 -0.5033
 5284TIP3    H137411   5.128   6.985   0.716  0.3154 -0.3806 -0.9190
 5284TIP3    H237412   5.039   6.863   0.706 -0.8865  0.2062  1.7534
 5285TIP3   OH237413   4.392   5.758   7.998 -0.3242  0.6253  0.1133
 5285TIP3    H137414   4.382   5.670   8.036  1.0041  0.0962 -0.6838
 5285TIP3    H237415   4.311   5.771   7.948 -1.5822  0.8522  2.0671
 5286TIP3   OH237416   2.687   3.457   0.466  0.1590  0.4564  0.4231
 5286TIP3    H137417   2.615   3.414   0.512 -1.8702  1.2083 -1.8592
 5286TIP3    H237418   2.703   3.402   0.389 -0.7336  2.3033 -1.1814
 5287TIP3   OH237419   2.784   6.724   8.267  0.4168 -0.1417  0.0547
 5287TIP3    H137420   2.778   6.731   8.362  1.2451  0.2718  0.0781
 5287TIP3    H237421   2.713   6.780   8.235  2.0782  2.3356  0.3964
 5288TIP3   OH237422   3.865   1.971   2.690  0.1019  0.3607 -0.0163
 5288TIP3    H137423   3.948   1.933   2.718 -0.6156 -0.6769  0.7859
 5288TIP3    H237424   3.857   2.052   2.741  1.4395  1.4466 -1.4231
 5289TIP3   OH237425   0.264   0.594   7.714  0.0797  0.6678 -0.0740
 5289TIP3    H137426   0.296   0.512   7.752  1.3594  1.2262  0.0884
 5289TIP3    H237427   0.179   0.608   7.757  0.8272  0.5350  1.5421
 5290TIP3   OH237428   2.648   5.542   1.637 -0.2851 -0.2192 -0.0791
 5290TIP3    H137429   2.733   5.508   1.607 -0.3283  0.3795 -0.9353
 5290TIP3    H237430   2.626   5.488   1.712  1.6808  0.7005  1.2582
 5291TIP3   OH237431   2.586   6.033   1.552 -0.1345  0.5340  0.1451
 5291TIP3    H137432   2.655   5.974   1.582 -1.4905 -1.8633 -1.1541
 5291TIP3    H237433   2.505   5.992   1.582 -1.3109  0.0371 -3.2350
 5292TIP3   OH237434   3.870   6.524   8.378  0.1850  0.0985  0.1380
 5292TIP3    H137435   3.924   6.534   8.456 -0.7424  3.8908  0.4918
 5292TIP3    H237436   3.933   6.505   8.308  1.5405  0.8101  1.1234
 5293TIP3   OH237437   3.181   4.651   1.625  0.7876 -0.1291 -0.0240
 5293TIP3    H137438   3.206   4.571   1.670 -2.8519 -2.0024 -0.9335
 5293TIP3    H237439   3.186   4.630   1.532  1.4671  1.3214 -0.3444
 5294TIP3   OH237440   5.633   5.144   7.764  0.1118  0.1563 -0.3147
 5294TIP3    H137441   5.726   5.167   7.764  0.4328 -0.7393  2.5591
 5294TIP3    H237442   5.591   5.214   7.714  1.9285  2.4368  1.1480
 5295TIP3   OH237443   1.657   0.694   2.333 -0.3100  0.5458 -0.3937
 5295TIP3    H137444   1.721   0.627   2.359  1.0774  2.3064  0.9980
 5295TIP3    H237445   1.586   0.686   2.397  0.6464  1.4419  0.8301
 5296TIP3   OH237446   1.475   5.933   1.921 -0.6235 -0.6820 -0.4851
 5296TIP3    H137447   1.430   5.924   2.005  1.7663 -1.0756  0.8311
 5296TIP3    H237448   1.564   5.903   1.938  0.1528 -0.0128 -2.9805
 5297TIP3   OH237449   3.003   4.136   1.802  0.1087  0.1074 -0.7842
 5297TIP3    H137450   3.099   4.133   1.805  0.0809 -0.1173  0.0196
 5297TIP3    H237451   2.979   4.069   1.738  0.4588 -0.3783 -0.4144
 5298TIP3   OH237452   3.273   2.079   0.091 -0.0419 -0.0837  0.1394
 5298TIP3    H137453   3.255   2.035   0.174 -0.4386 -0.4074 -0.1158
 5298TIP3    H237454   3.187   2.095   0.053  0.1737 -1.9209 -1.2348
 5299TIP3   OH237455   2.381   1.867   8.343 -0.1396  0.1254  0.3695
 5299TIP3    H137456   2.476   1.857   8.356 -0.2634 -0.5685  0.8417
 5299TIP3    H237457   2.369   1.866   8.249  0.2343 -0.8278  0.3190
 5300TIP3   OH237458   3.553   6.353   8.346 -0.7449 -0.3419  0.1133
 5300TIP3    H137459   3.574   6.438   8.385 -2.6889  0.9286 -1.3636
 5300TIP3    H237460   3.621   6.340   8.280 -0.7189  0.3536 -0.0080
 5301TIP3   OH237461   5.467   6.741   8.123 -0.1409  0.4484 -0.1083
 5301TIP3    H137462   5.391   6.776   8.169 -0.5634  2.5091 -2.1306
 5301TIP3    H237463   5.528   6.814   8.119  1.6464 -0.9310  0.7738
 5302TIP3   OH237464   3.265   2.449   8.324  0.1260 -0.3487 -0.1628
 5302TIP3    H137465   3.219   2.434   8.241  0.1162 -2.5172  0.1748
 5302TIP3    H237466   3.205   2.504   8.374 -0.8722 -0.8529 -0.7649
 5303TIP3   OH237467   5.503   1.805   2.433 -0.8011  0.0656  0.2637
 5303TIP3    H137468   5.597   1.798   2.455 -0.5649 -1.7289 -1.1052
 5303TIP3    H237469   5.496   1.887   2.386  0.4555 -0.5856 -1.1475
 5304TIP3   OH237470   4.221   1.698   0.954  0.2736  0.5747 -0.3717
 5304TIP3    H137471   4.134   1.668   0.978  0.2650  0.8129 -0.1019
 5304TIP3    H237472   4.269   1.702   1.036  0.1396  1.7237 -0.3284
 5305TIP3   OH237473   3.974   3.820   1.363 -0.2081  0.0314 -0.4826
 5305TIP3    H137474   3.899   3.761   1.354 -0.1148  0.1595 -2.3914
 5305TIP3    H237475   3.935   3.908   1.365 -0.1052  0.1771 -2.6437
 5306TIP3   OH237476   6.676   6.871   0.666  0.8788 -0.1238 -0.2032
 5306TIP3    H137477   6.717   6.825   0.739  0.9662  0.9288  0.4297
 5306TIP3    H237478   6.647   6.955   0.703  1.2924  0.6088 -1.4498
 5307TIP3   OH237479   1.706   2.943   3.015 -0.2618 -0.0494 -0.1619
 5307TIP3    H137480   1.750   3.028   3.014 -0.8434  0.2647  0.4574
 5307TIP3    H237481   1.723   2.906   2.928  0.2832  0.5455 -0.3138
 5308TIP3   OH237482   0.329   1.564   0.707 -0.1939 -0.3341  0.0138
 5308TIP3    H137483   0.414   1.521   0.702  0.0808  0.3033 -1.4938
 5308TIP3    H237484   0.311   1.592   0.617 -2.7595 -1.8655 -0.0704
 5309TIP3   OH237485   0.004   2.014   1.188 -0.1872 -0.2659 -0.1694
 5309TIP3    H137486  -0.059   2.064   1.240 -1.2655 -1.4346 -0.3211
 5309TIP3    H237487  -0.047   1.977   1.116  0.9437 -0.1418 -1.0626
 5310TIP3   OH237488   2.481   3.847   0.618  0.5731  0.8043  0.1266
 5310TIP3    H137489   2.493   3.788   0.693  1.2380 -0.2394 -0.7675
 5310TIP3    H237490   2.511   3.796   0.543 -1.1397  1.4086 -1.0172
 5311TIP3   OH237491   6.588   0.594   6.850 -0.7855 -0.3766 -0.2731
 5311TIP3    H137492   6.569   0.687   6.857 -1.2404 -0.4219 -0.8006
 5311TIP3    H237493   6.514   0.551   6.892  0.8130 -0.4820  2.7080
 5312TIP3   OH237494   1.325   5.209   2.625  0.0323 -0.1097  0.2935
 5312TIP3    H137495   1.273   5.260   2.563 -0.2876  1.6158  1.9145
 5312TIP3    H237496   1.263   5.180   2.691  0.4772 -1.4135  0.1763
 5313TIP3   OH237497   6.301   5.731   1.344 -0.0169 -0.3979  0.1498
 5313TIP3    H137498   6.329   5.790   1.274 -0.2129 -0.5555 -0.0612
 5313TIP3    H237499   6.281   5.649   1.300 -2.9082  0.3143 -0.0461
 5314TIP3   OH237500   6.768   6.554   2.362 -0.2311 -0.2190 -0.2841
 5314TIP3    H137501   6.708   6.517   2.297  0.4122 -0.2756 -0.8543
 5314TIP3    H237502   6.734   6.523   2.446 -0.3857 -1.1423 -0.6730
 5315TIP3   OH237503   4.123   6.652   7.677  0.4282  0.2895  0.6682
 5315TIP3    H137504   4.211   6.689   7.688  0.1581  2.0901 -2.2040
 5315TIP3    H237505   4.067   6.729   7.668 -0.9902 -0.8412 -0.4153
 5316TIP3   OH237506   2.638   2.731   8.027 -0.4379 -0.1798 -0.2466
 5316TIP3    H137507   2.567   2.791   8.007 -0.5245  0.0226  0.6328
 5316TIP3    H237508   2.710   2.760   7.971 -0.7687  0.1733 -0.4911
 5317TIP3   OH237509   4.003   0.450   0.200  0.3779  0.4376  0.0976
 5317TIP3    H137510   3.985   0.483   0.288  0.8759  1.2083 -0.0840
 5317TIP3    H237511   4.092   0.415   0.205  0.3576  0.3628 -0.0725
 5318TIP3   OH237512   1.863   5.828   6.871 -0.1013  0.4177 -0.4956
 5318TIP3    H137513   1.909   5.814   6.788  0.6825  0.7169 -0.1228
 5318TIP3    H237514   1.927   5.805   6.938 -0.9202 -0.3976  0.0331
 5319TIP3   OH237515   3.948   4.235   2.068 -0.6703  0.2159 -0.1833
 5319TIP3    H137516   3.885   4.304   2.092 -1.2801 -0.7006  0.9457
 5319TIP3    H237517   3.998   4.220   2.148  0.7693  0.6791 -0.9722
 5320TIP3   OH237518   3.500   3.242   1.007  0.2277  0.3839 -0.0977
 5320TIP3    H137519   3.493   3.254   1.101 -1.0567 -0.6515 -0.0424
 5320TIP3    H237520   3.410   3.243   0.975  0.6871  1.8076 -1.4824
 5321TIP3   OH237521   1.982   3.932   3.755  0.1402 -0.1316 -0.1941
 5321TIP3    H137522   2.022   3.927   3.668  0.7308 -1.1204  0.1264
 5321TIP3    H237523   1.908   3.991   3.743  0.9811  0.7991 -1.0709
 5322TIP3   OH237524   4.212   0.004   7.636 -0.4933 -0.4565  0.6633
 5322TIP3    H137525   4.251   0.084   7.671 -0.0002 -0.3256 -0.1864
 5322TIP3    H237526   4.285  -0.057   7.627 -0.7550 -0.7693  0.6518
 5323TIP3   OH237527   6.625   1.470   2.780 -0.3527  0.3110  0.0194
 5323TIP3    H137528   6.625   1.404   2.711 -1.0788 -0.3638  0.6472
 5323TIP3    H237529   6.585   1.427   2.855 -1.4994  1.6743  0.2419
 5324TIP3   OH237530   6.170   6.657   8.229 -0.6492 -0.7139  0.3498
 5324TIP3    H137531   6.101   6.705   8.184  1.1039 -0.2380 -2.0499
 5324TIP3    H237532   6.212   6.605   8.160  2.3201  0.1667  1.3157
 5325TIP3   OH237533   0.962   5.560   1.108 -0.5124  0.1810 -0.3936
 5325TIP3    H137534   0.968   5.472   1.147  0.0984  1.3318  2.3820
 5325TIP3    H237535   0.992   5.549   1.018 -3.0302 -2.9071 -1.0432
 5326TIP3   OH237536   2.693   1.187   0.281 -0.1420 -0.3035 -0.1325
 5326TIP3    H137537   2.708   1.197   0.187 -0.2605 -0.4471 -0.1670
 5326TIP3    H237538   2.721   1.271   0.318 -0.2015 -0.2037 -0.3092
 5327TIP3   OH237539   1.852   2.480   7.046 -0.5384  0.1046  0.3028
 5327TIP3    H137540   1.768   2.521   7.022  0.0778  0.4721 -1.3570
 5327TIP3    H237541   1.881   2.528   7.123 -0.6910  1.6269 -0.5597
 5328TIP3   OH237542   6.710   5.199   7.237  0.0292 -0.0607 -1.4098
 5328TIP3    H137543   6.687   5.254   7.312  2.2299 -0.2752 -0.5149
 5328TIP3    H237544   6.737   5.262   7.170 -3.1906  0.2248 -2.6231
 5329TIP3   OH237545   6.000   3.765   0.464 -0.5316  0.0892  0.4935
 5329TIP3    H137546   6.081   3.815   0.469 -0.1018 -0.5526  0.1983
 5329TIP3    H237547   6.026   3.674   0.480 -1.3056 -0.0348  1.1145
 5330TIP3   OH237548   0.525   1.053   3.028  0.2602  0.1903  0.1187
 5330TIP3    H137549   0.559   0.968   2.999 -3.5438 -0.7275 -2.3000
 5330TIP3    H237550   0.515   1.103   2.947 -1.1384  1.4836  1.0462
 5331TIP3   OH237551   5.692   1.588   1.043  0.0243  0.4355 -0.1459
 5331TIP3    H137552   5.601   1.606   1.066 -0.4378 -0.7224 -0.9756
 5331TIP3    H237553   5.733   1.561   1.125 -0.1947  1.6143  0.3646
 5332TIP3   OH237554   4.158   3.422   7.315  0.3582 -0.2288 -0.1228
 5332TIP3    H137555   4.144   3.482   7.388  1.0782  2.5270 -2.0898
 5332TIP3    H237556   4.082   3.434   7.259  0.6534 -0.9680 -0.7030
 5333TIP3   OH237557   4.188   4.340   7.634  0.3106  0.1589 -0.4746
 5333TIP3    H137558   4.203   4.375   7.546  2.5741 -0.1288 -0.2626
 5333TIP3    H237559   4.256   4.273   7.645 -0.3170 -0.2311  1.2590
 5334TIP3   OH237560   1.067   0.351   3.120  0.5686 -0.1561 -0.4247
 5334TIP3    H137561   1.067   0.267   3.166 -0.4960  0.2202  0.2901
 5334TIP3    H237562   1.099   0.330   3.032  0.8413 -1.2063 -0.0912
 5335TIP3   OH237563   6.896   0.196   1.578 -0.1096 -0.2138  0.0077
 5335TIP3    H137564   6.933   0.268   1.629 -1.4770 -0.1260  0.9152
 5335TIP3    H237565   6.825   0.235   1.528 -0.7206 -0.8703  0.3371
 5336TIP3   OH237566   5.113   2.894   0.805  0.0955  0.0911 -0.2091
 5336TIP3    H137567   5.047   2.851   0.859  1.1326 -2.4473 -0.8384
 5336TIP3    H237568   5.080   2.889   0.716  0.9196 -0.8079 -0.4753
 5337TIP3   OH237569   5.339   1.469   0.495  0.7064 -0.0038  0.1185
 5337TIP3    H137570   5.419   1.503   0.535  1.0086 -2.0486  1.3807
 5337TIP3    H237571   5.321   1.388   0.542 -0.9508 -0.6880 -1.5607
 5338TIP3   OH237572   1.929   3.992   1.676 -0.4930  0.0408  0.6447
 5338TIP3    H137573   2.023   3.979   1.661 -0.9188 -0.9397 -1.6075
 5338TIP3    H237574   1.911   3.944   1.757  0.6860 -1.0094  0.3149
 5339TIP3   OH237575   3.051   3.267   0.212 -0.0121 -0.2646 -0.2603
 5339TIP3    H137576   3.070   3.191   0.266  0.4387 -1.4296 -1.9772
 5339TIP3    H237577   3.127   3.275   0.154  0.2307  1.8686  0.2684
 5340TIP3   OH237578   3.943   1.414   1.209 -0.1562  0.0989  0.2169
 5340TIP3    H137579   4.014   1.440   1.268  0.3748  3.6215 -1.6517
 5340TIP3    H237580   3.985   1.405   1.123 -1.5030 -0.9841 -0.3766
 5341TIP3   OH237581   4.508   1.686   1.435 -0.4044 -0.6634 -0.0341
 5341TIP3    H137582   4.574   1.620   1.416 -0.3851 -0.8324  0.6102
 5341TIP3    H237583   4.460   1.652   1.510  0.6826  0.7894  1.3805
 5342TIP3   OH237584   5.936   3.400   8.234  0.0481 -0.0612  0.5570
 5342TIP3    H137585   5.899   3.312   8.233 -0.1048 -0.0299 -1.7195
 5342TIP3    H237586   5.867   3.455   8.271 -1.3437 -0.3900 -1.3755
 5343TIP3   OH237587   2.930   1.996   2.525 -0.1186 -0.1621  0.2839
 5343TIP3    H137588   2.991   1.931   2.491 -1.2102  0.2180 -2.7513
 5343TIP3    H237589   2.874   1.949   2.587  0.7052 -1.4641  0.0519
 5344TIP3   OH237590   2.560   0.907   2.564 -0.1054 -0.1711  0.3507
 5344TIP3    H137591   2.625   0.863   2.618  0.3364 -0.2172 -0.2076
 5344TIP3    H237592   2.521   0.837   2.512 -1.0084 -0.2300  1.0824
 5345TIP3   OH237593   0.846   1.592   0.189 -0.7959 -0.5492 -0.9611
 5345TIP3    H137594   0.930   1.604   0.233 -1.1033  2.6222 -1.0338
 5345TIP3    H237595   0.785   1.569   0.260 -0.7874  2.0503 -0.0016
 5346TIP3   OH237596   4.391   5.729   0.083 -0.8295 -0.1198 -0.3788
 5346TIP3    H137597   4.463   5.759   0.029  0.3874 -3.0409 -0.5432
 5346TIP3    H237598   4.331   5.686   0.022 -0.2191 -2.0455  0.3110
 5347TIP3   OH237599   5.434   5.159   1.899 -0.2692 -0.2845  0.1733
 5347TIP3    H137600   5.432   5.248   1.864 -1.2139 -0.0175  0.8610
 5347TIP3    H237601   5.417   5.103   1.823 -1.6583  0.2525  0.0604
 5348TIP3   OH237602   5.343   6.071   1.902  0.2960 -0.4493 -0.3697
 5348TIP3    H137603   5.409   6.140   1.897  0.4526 -0.3272  2.1233
 5348TIP3    H237604   5.390   5.991   1.879  1.3251 -0.3407  1.2231
 5349TIP3   OH237605   5.472   0.392   7.347 -0.3675  0.2193  0.5389
 5349TIP3    H137606   5.520   0.331   7.403  0.0621  0.1883  0.1425
 5349TIP3    H237607   5.462   0.345   7.264  0.8048  1.0364 -0.0908
 5350TIP3   OH237608   0.311   3.049   2.762  0.1974  0.3463  0.2804
 5350TIP3    H137609   0.406   3.043   2.772  0.2742  0.1654 -0.4812
 5350TIP3    H237610   0.287   3.130   2.807  0.8167  0.8163 -0.2247
 5351TIP3   OH237611   2.443   2.806   3.078  0.0508  0.1796  0.7324
 5351TIP3    H137612   2.390   2.767   3.008 -0.0611 -0.5789  1.2356
 5351TIP3    H237613   2.526   2.760   3.073 -0.1538 -0.2786  1.4625
 5352TIP3   OH237614   0.311   1.974   7.561  0.4525  0.1004  0.0388
 5352TIP3    H137615   0.306   2.018   7.476  0.9921  1.4475  0.6657
 5352TIP3    H237616   0.302   1.881   7.541 -1.1271  0.4972 -1.3235
 5353TIP3   OH237617   3.008   1.807   7.446  0.2723 -0.5246  0.2038
 5353TIP3    H137618   2.988   1.897   7.420 -1.7993 -1.2278 -0.9094
 5353TIP3    H237619   3.074   1.778   7.382  1.1517  0.2439  0.7315
 5354TIP3   OH237620   1.326   6.934   2.146 -0.3786 -0.3003 -0.0222
 5354TIP3    H137621   1.264   7.007   2.154 -0.0144 -0.1398  1.9087
 5354TIP3    H237622   1.298   6.871   2.213 -0.8557 -2.1145 -1.8461
 5355TIP3   OH237623   5.704   5.710   7.771 -0.1515 -0.1707 -0.4230
 5355TIP3    H137624   5.774   5.710   7.836 -0.3443  0.4239 -0.2133
 5355TIP3    H237625   5.749   5.718   7.687  0.0555 -0.2476 -0.3209
 5356TIP3   OH237626   5.890   1.653   1.481 -0.4953  0.3168  0.0879
 5356TIP3    H137627   5.960   1.609   1.530 -0.3610  0.5517  0.1072
 5356TIP3    H237628   5.809   1.623   1.523 -0.3390  1.8078  1.5569
 5357TIP3   OH237629   4.109   6.480   0.089 -0.7126 -0.0281 -0.5234
 5357TIP3    H137630   4.176   6.476   0.021 -0.8281  0.6730 -0.6876
 5357TIP3    H237631   4.145   6.430   0.162 -0.1241  0.1249 -0.7065
 5358TIP3   OH237632   5.248   5.279   1.132 -0.2104 -0.9181 -0.7006
 5358TIP3    H137633   5.262   5.207   1.070  2.0332 -2.2886  1.2530
 5358TIP3    H237634   5.331   5.289   1.177 -1.5468  0.4666  1.6537
 5359TIP3   OH237635   5.825   2.936   2.897  0.7747  0.1351 -0.1347
 5359TIP3    H137636   5.895   2.876   2.871  1.4585  0.9424 -0.2113
 5359TIP3    H237637   5.756   2.879   2.931  1.5195 -0.6773  0.0709
 5360TIP3   OH237638   2.045   5.428   7.450 -0.2716  0.4577 -0.1015
 5360TIP3    H137639   2.107   5.357   7.465 -0.9184  0.1196  1.0668
 5360TIP3    H237640   1.971   5.408   7.507 -1.5336  0.7652 -1.5684
 5361TIP3   OH237641   5.277   4.797   0.430  0.1374 -0.1785  0.2231
 5361TIP3    H137642   5.312   4.826   0.514 -1.5551 -2.1459  1.7203
 5361TIP3    H237643   5.203   4.855   0.412  0.4574  0.1966  0.0941
 5362TIP3   OH237644   1.242   1.389   1.066 -0.6300 -0.1368 -0.1035
 5362TIP3    H137645   1.157   1.402   1.109 -0.2719  0.2781  0.4945
 5362TIP3    H237646   1.224   1.325   0.997 -1.8331  1.3277 -1.2260
 5363TIP3   OH237647   2.828   4.120   2.874  0.2157  0.9534 -0.4156
 5363TIP3    H137648   2.904   4.142   2.928  1.3245  0.1280 -1.5712
 5363TIP3    H237649   2.839   4.174   2.796  0.4918 -0.2945 -1.2716
 5364TIP3   OH237650   0.598   5.694   7.902  0.3418  0.2991 -0.0614
 5364TIP3    H137651   0.631   5.693   7.992  1.6368  1.3348 -0.4912
 5364TIP3    H237652   0.562   5.607   7.889 -0.8524  0.4526  1.7992
 5365TIP3   OH237653   0.372   6.366   0.533 -0.6533  0.1076  0.1953
 5365TIP3    H137654   0.431   6.425   0.581  0.1893 -0.0406 -0.6290
 5365TIP3    H237655   0.284   6.394   0.560 -0.2323  0.7046  1.0160
 5366TIP3   OH237656   3.988   0.614   1.945 -0.3570 -0.3752 -0.0096
 5366TIP3    H137657   3.944   0.616   1.860 -2.0817  1.6679  0.8458
 5366TIP3    H237658   3.935   0.554   1.998  1.7215 -3.0910 -0.7461
 5367TIP3   OH237659   5.447   3.364   2.009  0.0508  0.2269  0.4019
 5367TIP3    H137660   5.419   3.349   2.099 -1.5639  0.7034  0.0175
 5367TIP3    H237661   5.435   3.458   1.996 -1.1145 -0.0522 -0.7305
 5368TIP3   OH237662   0.036   5.975   7.649  0.0910  0.1163 -0.0161
 5368TIP3    H137663   0.032   5.880   7.645 -0.0383  0.1666 -1.5766
 5368TIP3    H237664   0.126   5.997   7.624  0.4533  0.3804  1.4299
 5369TIP3   OH237665   0.736   0.863   7.853  0.1981  0.6112 -0.0709
 5369TIP3    H137666   0.729   0.769   7.870 -0.4872  0.7395  0.4194
 5369TIP3    H237667   0.650   0.887   7.817  0.5182  0.9710 -0.6131
 5370TIP3   OH237668   1.721   3.381   0.599  0.2416 -0.0106  0.1561
 5370TIP3    H137669   1.718   3.456   0.540 -0.6854  0.6420  0.9972
 5370TIP3    H237670   1.648   3.325   0.573  2.5061 -2.1213 -2.2804
 5371TIP3   OH237671   4.085   5.852   0.941  0.2264  0.4710  0.5252
 5371TIP3    H137672   4.084   5.759   0.915 -3.2516  0.1762  1.1532
 5371TIP3    H237673   4.175   5.881   0.924  1.0397 -2.5763 -1.1993
 5372TIP3   OH237674   4.674   1.457   1.410 -0.5001  0.2808  0.3405
 5372TIP3    H137675   4.769   1.457   1.400 -0.7144  1.4133 -2.8259
 5372TIP3    H237676   4.644   1.385   1.354 -1.5459 -0.4802  1.8015
 5373TIP3   OH237677   2.050   3.562   0.826 -0.0230  0.2905 -0.1800
 5373TIP3    H137678   2.118   3.629   0.832 -0.9258  1.1645  0.9205
 5373TIP3    H237679   1.987   3.587   0.894 -0.9800 -1.0085 -0.5602
 5374TIP3   OH237680   2.072   1.802   1.360  0.2425  0.4784 -0.0824
 5374TIP3    H137681   2.005   1.861   1.396 -0.6754 -0.4647 -0.1966
 5374TIP3    H237682   2.141   1.800   1.426 -0.8585 -0.2836  1.0919
 5375TIP3   OH237683   6.184   4.536   1.054 -0.3056 -0.3661 -0.2587
 5375TIP3    H137684   6.157   4.504   1.140 -0.8440  0.0696 -0.2622
 5375TIP3    H237685   6.114   4.510   0.995  0.0737 -0.6829 -0.5779
 5376TIP3   OH237686   4.996   2.057   1.333 -0.2020  0.5931 -0.1230
 5376TIP3    H137687   5.010   2.039   1.426  0.7831 -0.0468 -0.3764
 5376TIP3    H237688   5.084   2.055   1.295 -0.6592  0.1469 -1.1916
 5377TIP3   OH237689   0.537   5.518   0.328  0.2037 -0.3603  1.0546
 5377TIP3    H137690   0.481   5.576   0.379  0.6119  0.5897  0.4468
 5377TIP3    H237691   0.540   5.558   0.241  0.8536 -1.0524  0.7465
 5378TIP3   OH237692   6.223   1.723   0.135 -0.1768 -0.0242  0.2056
 5378TIP3    H137693   6.134   1.758   0.127 -0.4378 -0.3578  1.4236
 5378TIP3    H237694   6.222   1.642   0.084 -0.7979 -0.4132  0.8265
 5379TIP3   OH237695   1.974   0.845   1.255  0.5427 -0.3536 -0.4408
 5379TIP3    H137696   1.889   0.872   1.220  0.3948 -0.9116 -0.5159
 5379TIP3    H237697   1.953   0.779   1.320  0.8464  0.3749  0.4098
 5380TIP3   OH237698   1.971   5.394   1.759 -0.0042 -0.2309 -0.1051
 5380TIP3    H137699   1.974   5.387   1.855 -0.7130 -2.6105 -0.1981
 5380TIP3    H237700   1.950   5.306   1.729  1.2865  0.2045 -2.5338
 5381TIP3   OH237701   6.926   5.218   3.202 -0.4702  0.7263 -0.4573
 5381TIP3    H137702   6.855   5.234   3.264 -1.4895  1.0748 -1.6806
 5381TIP3    H237703   6.884   5.184   3.124  0.7714  0.4361 -1.0349
 5382TIP3   OH237704   5.475   5.101   2.158  0.1065 -0.3554  0.3263
 5382TIP3    H137705   5.400   5.043   2.166  1.3795 -2.4916 -1.8483
 5382TIP3    H237706   5.475   5.128   2.066  2.2411 -0.8337  0.1195
 5383TIP3   OH237707   4.176   4.064   1.548  0.1438 -0.4240  0.0286
 5383TIP3    H137708   4.145   4.147   1.586  1.0101 -1.1011  2.3770
 5383TIP3    H237709   4.098   4.025   1.509 -1.5252 -0.7818  3.3149
 5384TIP3   OH237710   5.959   4.048   0.605  0.7015 -0.3216 -0.2995
 5384TIP3    H137711   5.993   3.972   0.558  0.3596  0.5107 -1.9687
 5384TIP3    H237712   5.984   4.033   0.696  2.1454 -1.5891 -0.8646
 5385TIP3   OH237713   0.225   1.667   1.315  0.5310  0.4367 -0.5180
 5385TIP3    H137714   0.272   1.694   1.394  0.3061 -1.5064  0.3347
 5385TIP3    H237715   0.135   1.695   1.330  0.0984 -1.4805  0.7738
 5386TIP3   OH237716   6.882   5.470   2.518  0.0487  0.4038 -0.5146
 5386TIP3    H137717   6.864   5.557   2.553  0.9983 -0.2326  1.7791
 5386TIP3    H237718   6.966   5.478   2.473 -0.0356  0.7509 -0.6061
 5387TIP3   OH237719   3.165   1.779   0.518 -0.2244 -0.1510  0.4634
 5387TIP3    H137720   3.215   1.859   0.536 -0.1029 -0.1642  0.1798
 5387TIP3    H237721   3.181   1.723   0.594  1.2429 -0.6876 -0.2083
 5388TIP3   OH237722   5.553   3.209   1.268 -0.0825  0.9262 -0.5931
 5388TIP3    H137723   5.498   3.195   1.344  1.8672 -0.0787  0.7239
 5388TIP3    H237724   5.593   3.295   1.283  0.4726  0.6311 -0.3426
 5389TIP3   OH237725   2.599   2.925   1.420 -0.2750  0.0003 -0.1931
 5389TIP3    H137726   2.577   2.886   1.504  0.1865  1.0093  0.4148
 5389TIP3    H237727   2.693   2.911   1.411 -0.0615  1.1013  0.1303
 5390TIP3   OH237728   2.820   2.591   0.836 -0.0795 -0.6418 -0.5927
 5390TIP3    H137729   2.832   2.666   0.894  1.1729  0.0348 -1.6667
 5390TIP3    H237730   2.844   2.516   0.889  0.6699 -0.0768 -0.1077
 5391TIP3   OH237731   1.239   5.793   2.252  0.0144 -0.4661  0.4373
 5391TIP3    H137732   1.287   5.875   2.245  0.4685 -0.6366  1.3896
 5391TIP3    H237733   1.302   5.726   2.225 -0.0138 -0.5981  0.6963
 5392TIP3   OH237734   3.274   2.760   1.047  0.5367 -0.1128  0.4276
 5392TIP3    H137735   3.273   2.840   1.099  0.0723  1.3056 -1.6359
 5392TIP3    H237736   3.364   2.752   1.016 -0.1296  1.6562 -2.2283
 5393TIP3   OH237737   6.899   2.145   2.070 -0.3404  0.8727  0.3772
 5393TIP3    H137738   6.849   2.074   2.110 -0.6940 -0.3010 -1.9406
 5393TIP3    H237739   6.990   2.126   2.092 -0.5939  0.8126  1.3912
 5394TIP3   OH237740   0.560   5.930   1.038 -0.2382 -0.1291 -0.1662
 5394TIP3    H137741   0.568   5.978   1.120  2.4282 -0.3048 -0.2325
 5394TIP3    H237742   0.511   5.851   1.061  0.5735 -0.2339  1.2975
 5395TIP3   OH237743   4.851   5.369   8.214 -0.2337  0.0685  1.0054
 5395TIP3    H137744   4.929   5.412   8.251 -0.0583  0.3289  0.3561
 5395TIP3    H237745   4.884   5.286   8.180 -0.1631  0.3258  0.4283
 5396TIP3   OH237746   1.460   1.003   7.886  0.1723 -0.2011 -0.3939
 5396TIP3    H137747   1.545   0.976   7.920 -0.4930 -0.3103  1.2406
 5396TIP3    H237748   1.412   0.922   7.871 -0.8576 -0.0959  1.9773
 5397TIP3   OH237749   2.558   0.102   1.844 -0.4431  0.3610  0.1896
 5397TIP3    H137750   2.538   0.195   1.855  1.0446  0.8585 -0.9876
 5397TIP3    H237751   2.643   0.090   1.885  0.5635  0.1197 -1.8459
 5398TIP3   OH237752   2.374   0.047   0.194 -0.4558 -0.2254  0.2249
 5398TIP3    H137753   2.302   0.015   0.250 -0.9254  2.4936  1.3235
 5398TIP3    H237754   2.421   0.110   0.249  1.8794 -0.7782 -1.0093
 5399TIP3   OH237755   6.018   5.296   3.505  0.2361  0.3589 -0.0099
 5399TIP3    H137756   6.097   5.337   3.470 -0.9549  0.8935 -2.2790
 5399TIP3    H237757   6.035   5.202   3.499  2.0417  0.3747  2.9669
 5400TIP3   OH237758   1.536   0.213   1.134 -0.1280 -0.1281  0.0672
 5400TIP3    H137759   1.591   0.264   1.194 -0.6352  1.7035 -0.9779
 5400TIP3    H237760   1.476   0.276   1.095 -2.1878 -1.8680  0.2233
 5401TIP3   OH237761   5.847   6.140   1.907 -0.1057  0.4892 -0.3127
 5401TIP3    H137762   5.869   6.120   1.998 -2.2909 -1.4181 -0.1039
 5401TIP3    H237763   5.908   6.210   1.882  1.7704 -0.1826  2.0068
 5402TIP3   OH237764   4.613   1.782   1.039  0.4595  0.1537 -0.3865
 5402TIP3    H137765   4.617   1.871   1.005 -1.4849  0.2274 -0.4901
 5402TIP3    H237766   4.627   1.727   0.962 -0.0945  0.3572 -0.6367
 5403TIP3   OH237767   3.841   1.034   1.020 -0.5884  0.6372 -0.4115
 5403TIP3    H137768   3.836   0.941   1.000  0.2935  1.0953 -3.2346
 5403TIP3    H237769   3.756   1.069   0.993 -1.2905  0.5805  1.5485
 5404TIP3   OH237770   4.411   4.242   0.891  0.0046 -0.1468  0.0862
 5404TIP3    H137771   4.400   4.210   0.980  0.9475 -1.7270 -0.3341
 5404TIP3    H237772   4.434   4.335   0.902 -1.9961  0.2718  1.3640
 5405TIP3   OH237773   5.958   2.664   8.004  0.1087  0.1583 -0.1209
 5405TIP3    H137774   6.041   2.696   8.040  1.2749  0.0222 -2.4746
 5405TIP3    H237775   5.982   2.584   7.958 -0.9797  0.9706 -2.2259
 5406TIP3   OH237776   4.122   2.903   7.733 -0.4625  0.6916 -0.1277
 5406TIP3    H137777   4.178   2.971   7.769 -0.7971  1.4459 -0.9716
 5406TIP3    H237778   4.078   2.945   7.659  0.3203 -0.8224 -1.5148
 5407TIP3   OH237779   0.615   5.228   1.080 -0.4291  0.1237 -0.0055
 5407TIP3    H137780   0.598   5.165   1.011 -1.1620 -0.0615  0.3353
 5407TIP3    H237781   0.710   5.240   1.079 -0.4260  0.1132 -1.0261
 5408TIP3   OH237782   0.677   6.005   0.805 -0.0582 -0.3609  0.5355
 5408TIP3    H137783   0.633   5.991   0.889  0.7545  0.2896  1.0881
 5408TIP3    H237784   0.635   6.082   0.768 -0.5622 -0.7726  0.2311
 5409TIP3   OH237785   6.336   2.039   2.415  0.1114  0.4370  0.0500
 5409TIP3    H137786   6.315   2.084   2.497  1.1020 -0.5242  0.8738
 5409TIP3    H237787   6.401   2.095   2.373  0.0798  0.6231  0.2476
 5410TIP3   OH237788   4.298   3.315   1.423 -0.2051  0.3959  0.1241
 5410TIP3    H137789   4.293   3.234   1.474 -0.5736  1.4995  1.9285
 5410TIP3    H237790   4.261   3.291   1.337 -2.4323 -0.8163  1.3236
 5411TIP3   OH237791   0.780   2.035   1.348 -0.5962  0.3022  0.5143
 5411TIP3    H137792   0.702   2.075   1.384 -1.8008  0.3746 -1.9741
 5411TIP3    H237793   0.830   2.107   1.311  1.0700  0.3469  2.6255
 5412TIP3   OH237794   2.445   2.652   7.348 -0.4245  0.0648 -0.4231
 5412TIP3    H137795   2.494   2.652   7.430 -1.4645 -0.4107  0.2107
 5412TIP3    H237796   2.502   2.606   7.286  0.6947  1.0728 -0.1959
 5413TIP3   OH237797   2.325   0.534   2.205 -0.4363  0.1955 -0.5405
 5413TIP3    H137798   2.373   0.452   2.219  0.3578  0.5169 -1.2739
 5413TIP3    H237799   2.260   0.513   2.138 -0.2412  0.1595 -0.7195
 5414TIP3   OH237800   3.334   4.008   1.531 -0.1357  1.0356  0.1605
 5414TIP3    H137801   3.282   4.087   1.515 -1.7675  0.0546  0.3610
 5414TIP3    H237802   3.283   3.959   1.595  1.4311  0.3477  0.9228
 5415TIP3   OH237803   0.388   0.050   7.546 -0.4051  0.6231 -0.5702
 5415TIP3    H137804   0.470   0.056   7.595 -1.7317  1.5080  1.7062
 5415TIP3    H237805   0.345  -0.028   7.582 -1.1856  0.9986 -0.6653
 5416TIP3   OH237806   4.603   4.645   2.637  0.1780  0.3631 -0.8439
 5416TIP3    H137807   4.574   4.568   2.685  1.6501 -0.0623 -0.6006
 5416TIP3    H237808   4.616   4.712   2.705  1.0721  0.1260 -0.7599
 5417TIP3   OH237809   6.472   2.121   7.456 -0.3062  0.1874  0.5369
 5417TIP3    H137810   6.537   2.052   7.469  0.2635  0.7183  0.5666
 5417TIP3    H237811   6.524   2.200   7.440 -0.8629  1.1329  2.9668
 5418TIP3   OH237812   5.282   6.357   2.975  0.0128 -0.1733  0.0265
 5418TIP3    H137813   5.264   6.443   2.937 -2.4603 -1.2041 -1.3775
 5418TIP3    H237814   5.299   6.375   3.068 -3.4722  1.6643  0.4825
 5419TIP3   OH237815   0.952   0.826   0.447  0.2635 -0.1180  0.2797
 5419TIP3    H137816   0.927   0.779   0.367  0.3718 -0.8311  0.6615
 5419TIP3    H237817   0.927   0.767   0.518 -0.6245  0.8740  0.8183
 5420TIP3   OH237818   1.651   6.951   7.268 -0.5894 -0.4282 -0.3151
 5420TIP3    H137819   1.623   6.906   7.188  3.6980  0.5038 -2.6079
 5420TIP3    H237820   1.728   6.903   7.297 -1.5466 -0.2342  2.9577
 5421TIP3   OH237821   4.110   1.941   2.054  0.2120  0.4240 -1.2234
 5421TIP3    H137822   4.125   2.015   2.113  1.1592 -0.8105  0.1417
 5421TIP3    H237823   4.197   1.904   2.040 -0.5915 -3.7003  2.5416
 5422TIP3   OH237824   5.686   3.590   7.185 -0.0927 -0.5641 -0.1925
 5422TIP3    H137825   5.650   3.513   7.139 -0.6027 -0.2615 -0.3050
 5422TIP3    H237826   5.609   3.634   7.221  0.0247  0.7926 -1.5132
 5423TIP3   OH237827   4.151   5.650   2.534  0.2139  0.5599 -0.3327
 5423TIP3    H137828   4.170   5.556   2.541 -0.3218  0.4384 -0.4438
 5423TIP3    H237829   4.093   5.668   2.609  1.4672  1.1161  0.5410
 5424TIP3   OH237830   2.609   5.367   8.098  0.5184 -0.2585 -0.2651
 5424TIP3    H137831   2.624   5.368   8.004  1.2529 -0.2356 -0.1495
 5424TIP3    H237832   2.530   5.313   8.109 -0.1544  0.5566 -0.9678
 5425TIP3   OH237833   6.219   4.368   0.127  0.3790 -0.2002 -0.0865
 5425TIP3    H137834   6.222   4.399   0.218  3.2778  2.0314 -0.7792
 5425TIP3    H237835   6.293   4.307   0.120  0.5563  0.1132 -1.0810
 5426TIP3   OH237836   0.543   0.370   0.329 -0.1180  0.2008  0.6994
 5426TIP3    H137837   0.521   0.446   0.383 -2.3981  0.1359 -0.0327
 5426TIP3    H237838   0.511   0.392   0.242  0.4589 -1.0485  0.1529
 5427TIP3   OH237839   5.170   5.841   2.380  0.0748  0.0468  0.2811
 5427TIP3    H137840   5.250   5.803   2.417 -0.1866 -0.5374  0.2614
 5427TIP3    H237841   5.101   5.814   2.440 -0.1159  0.4977  0.2651
 5428TIP3   OH237842   3.209   2.739   0.454  0.0754 -0.0096 -0.0164
 5428TIP3    H137843   3.293   2.778   0.428 -0.5069  0.8350 -0.6656
 5428TIP3    H237844   3.217   2.647   0.428  0.5656  0.2081 -0.6729
 5429TIP3   OH237845   5.318   5.745   1.697 -0.0828 -0.0488  0.1448
 5429TIP3    H137846   5.374   5.774   1.625 -0.7950 -0.9569 -0.7982
 5429TIP3    H237847   5.235   5.791   1.683 -0.2359 -0.2498  0.3774
 5430TIP3   OH237848   4.971   5.145   2.590  0.2733 -0.4809  0.2503
 5430TIP3    H137849   4.893   5.164   2.537  0.7195  0.3690 -0.1199
 5430TIP3    H237850   4.959   5.054   2.618  0.0118 -0.9686 -1.3028
 5431TIP3   OH237851   2.741   2.211   1.165 -0.2974  0.2464 -0.4179
 5431TIP3    H137852   2.777   2.147   1.226 -0.2045  0.1544 -0.5671
 5431TIP3    H237853   2.786   2.292   1.187  0.8067 -0.0917 -1.2953
 5432TIP3   OH237854   1.379   0.469   0.203 -0.3107 -0.3330  0.1582
 5432TIP3    H137855   1.308   0.410   0.226  0.2452 -0.4890  1.6280
 5432TIP3    H237856   1.418   0.431   0.125 -0.2251 -1.6943  0.8288
 5433TIP3   OH237857   5.296   0.485   7.554  0.3898  0.0512  0.1068
 5433TIP3    H137858   5.331   0.456   7.638  1.2705  2.1782  0.5479
 5433TIP3    H237859   5.356   0.450   7.489  0.0654 -1.0685  0.3923
 5434TIP3   OH237860   6.105   6.900   7.949 -0.4362  0.2705  0.2123
 5434TIP3    H137861   6.043   6.839   7.990  0.0039  0.9333  1.9402
 5434TIP3    H237862   6.066   6.986   7.961  0.1852  0.5722  0.0854
 5435TIP3   OH237863   3.136   4.763   2.452  0.6032  0.2501  0.3324
 5435TIP3    H137864   3.046   4.746   2.481  0.5664 -0.5332 -0.2211
 5435TIP3    H237865   3.174   4.676   2.440  1.7445  0.5607  1.4489
 5436TIP3   OH237866   1.212   1.372   8.164  0.0891  0.0620 -0.1558
 5436TIP3    H137867   1.202   1.392   8.071  1.2705 -1.7208 -0.7080
 5436TIP3    H237868   1.282   1.430   8.193 -1.8012  2.3244  0.2869
 5437TIP3   OH237869   5.738   4.208   2.701 -0.1397  0.1091  0.1963
 5437TIP3    H137870   5.831   4.197   2.720 -0.4526 -1.0019  1.2203
 5437TIP3    H237871   5.708   4.273   2.765  0.0335  0.8987 -0.5084
 5438TIP3   OH237872   3.765   4.279   1.867  0.5617  0.2497 -0.4014
 5438TIP3    H137873   3.688   4.276   1.923 -0.0524 -0.9064 -1.2829
 5438TIP3    H237874   3.832   4.230   1.916  0.8692  1.5247  0.5084
 5439TIP3   OH237875   3.634   6.698   7.875 -0.2855  0.3275 -0.2361
 5439TIP3    H137876   3.615   6.608   7.850 -2.9717  0.3482  1.4207
 5439TIP3    H237877   3.682   6.690   7.958 -0.8229  0.4106  0.0863
 5440TIP3   OH237878   2.326   0.683   0.893 -0.6647  0.0625 -1.0754
 5440TIP3    H137879   2.246   0.723   0.926 -1.8330 -2.7718 -0.2411
 5440TIP3    H237880   2.351   0.619   0.960  3.9775  2.6577  0.1683
 5441TIP3   OH237881   1.263   5.304   8.135  0.5164  0.0736 -0.2650
 5441TIP3    H137882   1.348   5.300   8.092  0.3702  1.0210 -0.6885
 5441TIP3    H237883   1.278   5.359   8.212  0.5127 -0.6398  0.2569
 5442TIP3   OH237884   4.638   4.988   2.023 -0.2772  0.5686  0.0996
 5442TIP3    H137885   4.634   5.068   1.970  1.2186  0.0185 -0.9111
 5442TIP3    H237886   4.731   4.970   2.032 -0.5844 -1.2837 -0.0268
 5443TIP3   OH237887   2.330   1.054   8.307  0.0189  0.5828 -0.5991
 5443TIP3    H137888   2.357   1.019   8.392 -0.1485  1.8238 -0.0069
 5443TIP3    H237889   2.338   0.980   8.247 -0.2291 -0.4300  0.5663
 5444TIP3   OH237890   6.872   1.146   1.344 -0.1922 -0.3152  0.1388
 5444TIP3    H137891   6.832   1.227   1.313  0.8945  0.4385  0.6805
 5444TIP3    H237892   6.944   1.130   1.284 -0.1144 -0.6297  0.3123
 5445TIP3   OH237893   5.972   5.762   7.880 -0.6041 -0.2365  0.2200
 5445TIP3    H137894   5.990   5.680   7.927 -2.1004  0.2870  1.8184
 5445TIP3    H237895   5.983   5.830   7.946 -0.3857  0.7677 -0.8340
 5446TIP3   OH237896   1.498   1.396   8.020 -0.1037 -0.3655  0.1482
 5446TIP3    H137897   1.466   1.482   7.993  0.9850 -0.0787 -0.2963
 5446TIP3    H237898   1.437   1.334   7.981 -0.5672  0.1857 -0.0184
 5447TIP3   OH237899   5.425   0.848   0.776 -0.1532  0.0914 -0.5491
 5447TIP3    H137900   5.333   0.832   0.801  0.6506 -0.1658  2.7396
 5447TIP3    H237901   5.459   0.762   0.753  0.0646 -0.4637  1.6067
 5448TIP3   OH237902   6.911   4.535   0.474 -0.3768 -0.2569  0.1956
 5448TIP3    H137903   6.863   4.452   0.469  0.4304 -0.6567 -1.2105
 5448TIP3    H237904   6.845   4.598   0.504 -1.6566 -0.8891 -1.1664
 5449TIP3   OH237905   4.198   1.029   2.943  0.1066  0.8556 -0.5572
 5449TIP3    H137906   4.168   1.107   2.896  0.7208  1.6667  0.3636
 5449TIP3    H237907   4.291   1.023   2.922 -0.0033  0.1624 -0.8843
 5450TIP3   OH237908   5.051   1.819   0.098  0.7607  0.0393 -0.1028
 5450TIP3    H137909   4.971   1.791   0.053 -0.0021  1.2637  0.4226
 5450TIP3    H237910   5.040   1.788   0.188  0.2570  1.2830  0.2905
 5451TIP3   OH237911   5.200   2.357   1.274 -0.6657  0.6344 -0.2414
 5451TIP3    H137912   5.202   2.280   1.217 -0.5747  1.1555 -0.9685
 5451TIP3    H237913   5.168   2.427   1.217  0.2292  1.3503  0.1189
 5452TIP3   OH237914   5.751   0.602   2.368 -0.1217 -0.2628  0.8666
 5452TIP3    H137915   5.781   0.554   2.446  2.4306 -0.6028 -0.2268
 5452TIP3    H237916   5.781   0.549   2.294  1.4825  2.2266 -0.3740
 5453TIP3   OH237917   6.544   5.986   1.552  0.4159  0.0471  0.0371
 5453TIP3    H137918   6.579   6.012   1.637  0.7038  0.5783 -0.2371
 5453TIP3    H237919   6.468   6.043   1.539  1.2489  1.0390 -0.7179
 5454TIP3   OH237920   1.724   3.459   7.766  0.3395 -0.6687  0.2608
 5454TIP3    H137921   1.787   3.499   7.826  0.2105  0.7768 -0.5093
 5454TIP3    H237922   1.662   3.529   7.747  0.0883 -1.2425 -1.1505
 5455TIP3   OH237923   0.976   5.892   2.294  0.4102  0.3320 -0.3715
 5455TIP3    H137924   1.070   5.874   2.290  0.5379  0.9872 -0.3767
 5455TIP3    H237925   0.943   5.833   2.362  0.6526 -0.6022 -1.0328
 5456TIP3   OH237926   5.505   4.230   0.363 -0.1573 -0.0615  0.1353
 5456TIP3    H137927   5.552   4.167   0.416  2.8277  0.1425 -2.0152
 5456TIP3    H237928   5.500   4.191   0.276  1.3655  2.3372 -1.1530
 5457TIP3   OH237929   1.726   1.849   2.473  0.4928  0.1670 -0.3991
 5457TIP3    H137930   1.705   1.837   2.566  1.3025 -0.0534 -0.2321
 5457TIP3    H237931   1.646   1.825   2.426  0.6960 -1.7234  0.1406
 5458TIP3   OH237932   6.628   1.167   7.003  0.4059  0.0696  0.1004
 5458TIP3    H137933   6.572   1.151   6.928 -0.4911  0.3474  0.6952
 5458TIP3    H237934   6.569   1.196   7.072  1.4079  1.5970  0.3795
 5459TIP3   OH237935   5.640   4.985   0.981  0.5679  0.2183 -0.1221
 5459TIP3    H137936   5.649   5.027   0.895 -0.6105 -2.3114 -1.5949
 5459TIP3    H237937   5.547   4.992   1.002  0.2984 -1.6941 -0.4965
 5460TIP3   OH237938   6.882   0.790   1.944 -0.1341 -0.2719  0.2678
 5460TIP3    H137939   6.799   0.823   1.909  0.1368 -0.4083 -0.5320
 5460TIP3    H237940   6.859   0.708   1.986 -0.0699 -1.5815 -2.0738
 5461TIP3   OH237941   2.795   4.067   2.406  0.1788  0.3242 -0.4167
 5461TIP3    H137942   2.806   4.149   2.358  0.4617  0.3327 -0.3380
 5461TIP3    H237943   2.709   4.075   2.448 -0.0200  0.3629 -0.8300
 5462TIP3   OH237944   4.870   3.095   1.616 -0.1370 -0.0736 -0.4848
 5462TIP3    H137945   4.819   3.014   1.613 -1.1368  0.4712  0.8767
 5462TIP3    H237946   4.836   3.147   1.543 -1.2958  0.1224  0.1692
 5463TIP3   OH237947   0.838   6.860   8.281  0.2117 -0.1191  0.3804
 5463TIP3    H137948   0.919   6.814   8.258  1.0559  1.6786 -0.3993
 5463TIP3    H237949   0.772   6.823   8.224  0.7209 -0.8299  0.2388
 5464TIP3   OH237950   2.433   1.160   6.789  0.2066 -0.6862  0.1943
 5464TIP3    H137951   2.462   1.070   6.776  2.0432 -0.1213  0.1695
 5464TIP3    H237952   2.510   1.206   6.822 -0.3103  1.1776 -1.0356
 5465TIP3   OH237953   6.222   1.818   2.615  0.4095  0.0901 -0.4967
 5465TIP3    H137954   6.256   1.785   2.698 -0.2642 -1.2510 -0.7408
 5465TIP3    H237955   6.297   1.861   2.574  0.3129  2.5539  1.6485
 5466TIP3   OH237956   6.194   2.773   8.105  0.2683  0.7390 -0.4334
 5466TIP3    H137957   6.267   2.809   8.054 -0.6701  1.2592 -1.4303
 5466TIP3    H237958   6.231   2.761   8.193  1.0682  2.6613 -0.4569
 5467TIP3   OH237959   0.355   2.950   1.019 -0.0912  0.4386  0.1995
 5467TIP3    H137960   0.273   2.996   0.999  0.7734  1.8496 -0.2516
 5467TIP3    H237961   0.396   3.002   1.088 -0.1709 -1.0059  1.3871
 5468TIP3   OH237962   0.948   6.792   3.219 -0.0870 -0.3793 -0.5317
 5468TIP3    H137963   0.889   6.717   3.217 -0.1158 -0.3740 -0.0516
 5468TIP3    H237964   0.993   6.785   3.303 -0.0998  0.1490 -0.4738
 5469TIP3   OH237965   3.623   1.139   8.143 -0.6495  0.3999  0.4137
 5469TIP3    H137966   3.583   1.226   8.150  0.3041  0.7943  1.2453
 5469TIP3    H237967   3.550   1.079   8.154 -1.3739  1.0811 -0.4922
 5470TIP3   OH237968   0.311   4.078   2.736 -0.4463 -0.3176 -0.2488
 5470TIP3    H137969   0.328   3.984   2.729  0.2525 -0.2495  0.4418
 5470TIP3    H237970   0.389   4.114   2.778 -0.4349  0.6733 -1.0647
 5471TIP3   OH237971   3.479   6.132   1.168  0.0355 -1.2891  0.5059
 5471TIP3    H137972   3.555   6.076   1.179  0.7285 -0.7092 -1.0683
 5471TIP3    H237973   3.407   6.072   1.147  0.3349 -1.7274  0.7205
 5472TIP3   OH237974   2.119   1.447   8.413  0.1554 -0.0031  0.0473
 5472TIP3    H137975   2.080   1.362   8.434  0.6621 -0.1140  0.5367
 5472TIP3    H237976   2.185   1.427   8.347  1.2583 -0.1980  1.1807
 5473TIP3   OH237977   2.332   0.671   7.761 -0.0586 -0.2613 -0.1061
 5473TIP3    H137978   2.240   0.645   7.768 -0.2493  0.1478 -0.9655
 5473TIP3    H237979   2.380   0.588   7.767 -0.4019 -0.3647  1.4787
 5474TIP3   OH237980   4.703   3.708   1.882 -0.0739 -0.0287  0.4225
 5474TIP3    H137981   4.749   3.789   1.905  0.8904 -0.3069 -0.4511
 5474TIP3    H237982   4.612   3.734   1.874  0.1905  0.9338  0.3534
 5475TIP3   OH237983   1.638   2.438   2.737  0.0165 -0.1304 -0.1765
 5475TIP3    H137984   1.651   2.489   2.816 -1.1576  1.5172 -0.9863
 5475TIP3    H237985   1.635   2.502   2.666  2.2960 -1.6198 -1.7910
 5476TIP3   OH237986   5.832   4.622   1.681 -0.2083 -0.0519  0.0937
 5476TIP3    H137987   5.880   4.655   1.758 -0.2851 -0.3882  0.2855
 5476TIP3    H237988   5.746   4.663   1.687 -0.8192 -1.4168  1.1439
 5477TIP3   OH237989   4.640   3.991   1.692  0.2957  0.4507  0.4631
 5477TIP3    H137990   4.700   3.989   1.766  2.3165  2.0040 -1.0227
 5477TIP3    H237991   4.610   4.082   1.687  0.2014  0.3847 -0.5992
 5478TIP3   OH237992   3.675   5.197   0.882  0.1389  0.0248 -0.8295
 5478TIP3    H137993   3.672   5.280   0.931  2.1558  0.1013 -0.7370
 5478TIP3    H237994   3.724   5.219   0.802 -2.6705 -0.2063 -2.7871
 5479TIP3   OH237995   6.947   2.864   1.118  0.3349  0.6112  0.3629
 5479TIP3    H137996   6.983   2.895   1.202 -0.9417  0.6198  0.9348
 5479TIP3    H237997   6.864   2.822   1.142  0.6664 -0.7496 -0.7334
 5480TIP3   OH237998   6.842   6.906   0.430 -0.6196  0.0237 -0.0361
 5480TIP3    H137999   6.772   6.902   0.495 -0.5412  1.9535  0.2285
 5480TIP3    H238000   6.816   6.843   0.364 -2.1828  0.0688  0.4814
 5481TIP3   OH238001   2.833   3.335   2.476  0.2195 -0.4163 -0.1981
 5481TIP3    H138002   2.842   3.303   2.386 -0.6336 -3.8775  0.7817
 5481TIP3    H238003   2.922   3.339   2.509  0.4929  0.2620 -0.9656
 5482TIP3   OH238004   1.295   5.413   0.889  0.0369  0.0903 -0.2664
 5482TIP3    H138005   1.372   5.368   0.921  2.3058  2.0618 -2.5369
 5482TIP3    H238006   1.312   5.506   0.905 -2.4580  0.5380  0.2723
 5483TIP3   OH238007   3.733   2.308   2.888  0.2547 -0.0261 -0.1832
 5483TIP3    H138008   3.678   2.270   2.956  1.0066 -0.9858 -0.0720
 5483TIP3    H238009   3.818   2.266   2.901  0.7790  0.8032 -0.8600
 5484TIP3   OH238010   0.012   3.021   0.613  0.0935  0.1439  0.5833
 5484TIP3    H138011   0.044   3.110   0.626  2.2461 -0.5129  0.0682
 5484TIP3    H238012   0.025   3.004   0.520 -1.6783 -0.2515  0.3588
 5485TIP3   OH238013   2.555   1.800   0.389 -0.0795 -0.2117 -0.4635
 5485TIP3    H138014   2.612   1.750   0.448  0.7357  1.7226  0.5067
 5485TIP3    H238015   2.490   1.840   0.447  1.8124  3.2055 -0.4361
 5486TIP3   OH238016   6.816   2.777   3.123 -0.4112 -0.0375 -0.0639
 5486TIP3    H138017   6.827   2.732   3.207  1.0914  0.5914  0.1070
 5486TIP3    H238018   6.740   2.735   3.083 -0.8744 -0.6637  1.4042
 5487TIP3   OH238019   4.222   4.492   0.315 -0.6407  0.6799 -0.1662
 5487TIP3    H138020   4.273   4.554   0.263 -0.4283  0.2113 -0.5199
 5487TIP3    H238021   4.248   4.406   0.282 -1.1785  0.4139  0.0994
 5488TIP3   OH238022   3.047   2.152   8.380 -0.3375 -0.3838 -1.0486
 5488TIP3    H138023   3.027   2.212   8.451 -0.1983 -1.5815  0.0509
 5488TIP3    H238024   2.968   2.151   8.326 -1.2140 -0.9417  0.2010
 5489TIP3   OH238025   6.847   6.744   1.717  0.1224 -0.6528  0.4661
 5489TIP3    H138026   6.874   6.804   1.786  1.4947  0.4380 -0.9699
 5489TIP3    H238027   6.782   6.793   1.666  0.9945 -0.4755 -0.5061
 5490TIP3   OH238028   3.833   0.429   1.536  0.6815 -0.6216 -0.0399
 5490TIP3    H138029   3.840   0.488   1.611 -1.4587 -0.8822  0.4256
 5490TIP3    H238030   3.883   0.473   1.467 -1.3999  2.2019  0.0557
 5491TIP3   OH238031   3.955   2.508   1.017  0.0459 -0.3776  0.1762
 5491TIP3    H138032   4.029   2.563   0.991 -0.4824 -0.2414 -1.1498
 5491TIP3    H238033   3.987   2.418   1.007  0.7704 -0.3522  1.9272
 5492TIP3   OH238034   1.650   5.895   7.662 -0.2318 -0.1765  0.2164
 5492TIP3    H138035   1.668   5.989   7.654  3.2451 -0.6662  0.8119
 5492TIP3    H238036   1.678   5.858   7.579 -2.6975 -0.6295 -0.4742
 5493TIP3   OH238037   2.990   3.441   3.239 -0.0576 -0.1980  0.0655
 5493TIP3    H138038   2.967   3.494   3.315 -0.6215  1.5828 -1.2769
 5493TIP3    H238039   2.906   3.416   3.201  0.1883  0.5141 -0.9945
 5494TIP3   OH238040   2.388   6.637   7.769  0.4660  0.2847  0.0947
 5494TIP3    H138041   2.385   6.669   7.860  1.5627  1.1028 -0.1404
 5494TIP3    H238042   2.480   6.621   7.752  0.5066  1.8127 -1.4166
 5495TIP3   OH238043   1.379   2.301   0.054  0.0746  0.9714 -0.2875
 5495TIP3    H138044   1.449   2.238   0.070 -0.8663 -0.3161 -1.1283
 5495TIP3    H238045   1.343   2.319   0.141  0.3349  0.3298 -0.0454
 5496TIP3   OH238046   6.206   2.610   1.173 -0.0677 -0.0506 -0.5323
 5496TIP3    H138047   6.256   2.654   1.105 -1.1939  0.0788 -1.3135
 5496TIP3    H238048   6.140   2.560   1.125 -1.0870  0.3004  0.4611
 5497TIP3   OH238049   4.031   5.418   7.901  0.4973  0.1408  0.3598
 5497TIP3    H138050   3.996   5.428   7.813 -0.4503  0.5696  0.7743
 5497TIP3    H238051   3.982   5.481   7.954 -0.1210 -1.2542  1.5224
 5498TIP3   OH238052   5.993   6.194   8.289 -0.0103  0.7748 -0.2485
 5498TIP3    H138053   6.013   6.229   8.202 -0.7526 -1.1468 -1.2683
 5498TIP3    H238054   5.897   6.192   8.292 -0.0369  2.0108  1.1793
 5499TIP3   OH238055   0.484   3.313   8.076 -0.0070 -0.7622  0.7870
 5499TIP3    H138056   0.477   3.375   8.149 -1.4749 -1.7624  1.5388
 5499TIP3    H238057   0.502   3.229   8.118  0.9132 -1.0436 -0.1489
 5500TIP3   OH238058   3.364   6.496   7.049  0.0839  0.3873  0.1358
 5500TIP3    H138059   3.426   6.523   7.116  0.8106  0.9542 -0.7313
 5500TIP3    H238060   3.387   6.405   7.031 -1.9796 -0.7335  2.6407
 5501TIP3   OH238061   3.405   6.172   1.953  0.2998  0.2930 -0.1111
 5501TIP3    H138062   3.480   6.121   1.924  0.4148  0.4354 -0.0620
 5501TIP3    H238063   3.440   6.232   2.019 -0.7259 -3.4995  4.4048
 5502TIP3   OH238064   2.222   3.823   1.590 -0.1203  0.3560  0.2010
 5502TIP3    H138065   2.255   3.912   1.578 -0.6475  0.8213  1.9471
 5502TIP3    H238066   2.258   3.774   1.516  0.3600  1.9550 -0.6769
 5503TIP3   OH238067   1.790   2.824   7.944 -0.1686  0.3653  0.0062
 5503TIP3    H138068   1.862   2.796   7.888  0.4048  0.7494  0.5447
 5503TIP3    H238069   1.796   2.919   7.946  1.1742  0.3021  2.4412
 5504TIP3   OH238070   3.821   1.349   0.780 -0.3385 -0.5458  0.1383
 5504TIP3    H138071   3.740   1.383   0.818 -0.4819  0.1749 -0.7687
 5504TIP3    H238072   3.858   1.423   0.731  0.0952 -1.2828 -0.6949
 5505TIP3   OH238073   5.895   5.637   0.473 -0.1178 -0.2399  0.2524
 5505TIP3    H138074   5.882   5.705   0.406 -1.4690 -0.0980  0.6229
 5505TIP3    H238075   5.962   5.673   0.531  0.8555 -0.2355 -0.8333
 5506TIP3   OH238076   1.436   4.323   0.946  0.1052  0.0578 -0.6844
 5506TIP3    H138077   1.440   4.246   0.889  0.5844  0.1246 -0.7500
 5506TIP3    H238078   1.354   4.313   0.995  0.5138 -0.8853 -0.1460
 5507TIP3   OH238079   0.348   3.694   0.196  0.2171  0.0373 -0.0264
 5507TIP3    H138080   0.386   3.714   0.281  0.6735  1.1097 -0.4623
 5507TIP3    H238081   0.272   3.640   0.215  0.9287 -0.6422  0.9863
 5508TIP3   OH238082   4.783   0.611   0.274  0.4738  0.3740  0.1707
 5508TIP3    H138083   4.869   0.642   0.244 -0.8744  2.5792 -1.7729
 5508TIP3    H238084   4.765   0.663   0.353  0.6954  0.2991  0.2706
 5509TIP3   OH238085   3.988   2.850   1.203  0.2842 -0.1967  0.0143
 5509TIP3    H138086   3.942   2.932   1.185  2.5177  1.2080  0.3088
 5509TIP3    H238087   3.997   2.809   1.117  0.1901  0.4824 -0.3338
 5510TIP3   OH238088   4.014   1.744   1.897 -0.5606  0.0250 -0.1283
 5510TIP3    H138089   3.985   1.771   1.810 -3.0946 -1.4473  0.1347
 5510TIP3    H238090   4.071   1.814   1.927 -0.2534  0.9525 -2.6365
 5511TIP3   OH238091   0.172   0.466   7.466  0.4309  0.0079 -0.0843
 5511TIP3    H138092   0.197   0.539   7.409  0.0343  0.2279  0.0184
 5511TIP3    H238093   0.082   0.485   7.491 -0.8769 -2.1489 -2.6747
 5512TIP3   OH238094   5.817   0.454   0.712  0.9233  0.6546  0.3424
 5512TIP3    H138095   5.888   0.440   0.650 -0.8551  0.6230 -1.8078
 5512TIP3    H238096   5.811   0.372   0.761  1.1517 -0.0531 -0.7762
 5513TIP3   OH238097   0.550   6.107   1.581 -0.0961  0.2357  0.3930
 5513TIP3    H138098   0.609   6.103   1.656  0.7213  1.0427 -0.1933
 5513TIP3    H238099   0.536   6.016   1.557  0.5263  0.0166  0.8399
 5514TIP3   OH238100   2.431   0.675   0.403 -0.3760 -0.2925 -0.4421
 5514TIP3    H138101   2.462   0.657   0.492  0.2111 -1.5370 -0.8709
 5514TIP3    H238102   2.387   0.760   0.409  2.7874  1.4691  0.3194
 5515TIP3   OH238103   6.098   1.152   1.706 -0.5224  0.0351  0.5851
 5515TIP3    H138104   6.124   1.075   1.755  0.4448 -0.8404 -1.2171
 5515TIP3    H238105   6.009   1.171   1.737  0.0669 -0.4136  2.6713
 5516TIP3   OH238106   3.451   5.634   7.938 -0.3065 -0.1368  0.7556
 5516TIP3    H138107   3.515   5.704   7.954  1.7857 -1.0450 -2.5342
 5516TIP3    H238108   3.498   5.553   7.958 -0.6998 -0.7871 -0.8165
 5517TIP3   OH238109   3.140   0.672   6.552 -0.0290 -0.0794 -0.7882
 5517TIP3    H138110   3.096   0.600   6.506  0.1160 -0.5748 -0.1562
 5517TIP3    H238111   3.168   0.634   6.635 -1.2010  1.0843  0.1738
 5518TIP3   OH238112   3.438   1.611   8.235  0.3080  0.1249 -0.0593
 5518TIP3    H138113   3.410   1.665   8.310  0.3661  1.6331 -1.0821
 5518TIP3    H238114   3.478   1.673   8.175  1.9690 -1.3512 -0.5443
 5519TIP3   OH238115   1.163   3.759   1.804 -0.5152 -0.1923  0.2021
 5519TIP3    H138116   1.171   3.696   1.733 -2.9335 -0.3277 -0.0255
 5519TIP3    H238117   1.071   3.787   1.802  0.1153  2.2488  1.2233
 5520TIP3   OH238118   5.155   5.044   1.928  0.3089  0.0996  0.3300
 5520TIP3    H138119   5.137   5.138   1.936 -3.8804 -0.5950  2.1270
 5520TIP3    H238120   5.199   5.021   2.010 -3.4637 -0.1285  2.5256
 5521TIP3   OH238121   4.340   1.839   7.481  0.0773 -0.2935 -0.1555
 5521TIP3    H138122   4.331   1.934   7.487  0.0922 -0.3213  0.3570
 5521TIP3    H238123   4.353   1.822   7.388  0.6791  0.2634 -0.1818
 5522TIP3   OH238124   2.985   6.912   0.920  0.0708 -0.1077 -0.0736
 5522TIP3    H138125   2.911   6.933   0.865 -0.6633 -2.9967 -0.3757
 5522TIP3    H238126   3.021   6.832   0.882  1.3571 -0.5561  1.9141
 5523TIP3   OH238127   0.586   3.401   8.353  0.6448  0.2704  0.3013
 5523TIP3    H138128   0.663   3.378   8.301  1.9660  0.8831  1.8851
 5523TIP3    H238129   0.557   3.485   8.316  0.1801 -0.3715 -0.8496
 5524TIP3   OH238130   6.227   5.540   1.183  0.0231 -0.0203 -0.1803
 5524TIP3    H138131   6.293   5.566   1.119 -0.3520  0.9432 -0.1805
 5524TIP3    H238132   6.143   5.556   1.140 -0.3002  2.6141  1.2262
 5525TIP3   OH238133   6.443   5.165   1.751  0.1257 -0.5153  0.3440
 5525TIP3    H138134   6.439   5.219   1.672  1.1642 -0.8789  0.0279
 5525TIP3    H238135   6.508   5.097   1.730 -0.0100 -0.9559  1.3043
 5526TIP3   OH238136   0.133   3.556   7.093  0.1875 -0.0398  0.3907
 5526TIP3    H138137   0.205   3.493   7.084 -1.3750 -2.3485  2.4327
 5526TIP3    H238138   0.161   3.613   7.165  0.9229  0.6414 -0.4024
 5527TIP3   OH238139   3.131   5.834   1.441  0.4825 -0.0227 -0.0128
 5527TIP3    H138140   3.170   5.908   1.489  0.4560 -0.6497  1.0062
 5527TIP3    H238141   3.045   5.866   1.415  0.9379  0.7269 -0.6518
 5528TIP3   OH238142   1.272   5.267   0.160 -0.4599  1.1530  0.1708
 5528TIP3    H138143   1.300   5.356   0.138 -1.5115  1.5951  0.5464
 5528TIP3    H238144   1.180   5.264   0.133  0.0555 -0.4631 -1.6639
 5529TIP3   OH238145   3.775   5.003   2.907 -0.1246 -0.7117 -0.7279
 5529TIP3    H138146   3.790   4.965   2.994 -0.9472  1.4743  0.4505
 5529TIP3    H238147   3.748   4.929   2.853 -1.1482 -1.9279  1.3042
 5530TIP3   OH238148   4.827   2.779   3.171 -0.3648 -0.3651 -0.4423
 5530TIP3    H138149   4.889   2.718   3.211 -0.3282 -0.7906 -1.1302
 5530TIP3    H238150   4.751   2.725   3.150  0.0349 -0.4087 -1.9261
 5531TIP3   OH238151   6.207   2.420   8.155  0.2515 -0.6615 -0.1574
 5531TIP3    H138152   6.295   2.442   8.125  0.5925  0.1624  1.3607
 5531TIP3    H238153   6.177   2.354   8.093  1.5145 -0.1753 -1.3356
 5532TIP3   OH238154   3.016   4.900   8.196 -0.6381  0.0951 -0.7105
 5532TIP3    H138155   2.971   4.888   8.112  0.6149 -0.4081 -1.3384
 5532TIP3    H238156   3.097   4.850   8.186 -0.3757  0.2096  0.7333
 5533TIP3   OH238157   1.542   5.370   7.498  0.6140  0.0710  0.0995
 5533TIP3    H138158   1.522   5.276   7.501  0.4495  0.1280  1.6802
 5533TIP3    H238159   1.473   5.408   7.444 -1.1358 -0.3424  1.9132
 5534TIP3   OH238160   0.673   5.279   1.819  0.0374  0.4201  0.1761
 5534TIP3    H138161   0.590   5.285   1.867  0.1019 -2.6310  0.8599
 5534TIP3    H238162   0.728   5.222   1.873  1.3264 -0.4266 -1.9047
 5535TIP3   OH238163   0.618   6.340   8.249  0.4840 -0.4137  0.5651
 5535TIP3    H138164   0.694   6.322   8.194  1.2582 -0.4270  1.5944
 5535TIP3    H238165   0.656   6.367   8.333 -0.6535  0.9221  0.6761
 5536TIP3   OH238166   0.756   3.862   1.026 -0.2730  0.1154  0.4701
 5536TIP3    H138167   0.744   3.846   1.119  1.5320 -0.0609  0.7053
 5536TIP3    H238168   0.783   3.954   1.021  1.0290 -0.2590  0.2830
 5537TIP3   OH238169   1.495   0.861   2.468 -0.1334  0.3494 -0.2263
 5537TIP3    H138170   1.423   0.904   2.421 -1.4046  0.4057  1.6948
 5537TIP3    H238171   1.459   0.840   2.554  1.5103 -1.5629  0.0552
 5538TIP3   OH238172   0.435   5.061   2.568  0.2322  0.1477  0.1184
 5538TIP3    H138173   0.398   5.092   2.650 -2.7283  1.1174 -1.4417
 5538TIP3    H238174   0.375   4.993   2.538  1.4187 -0.4041 -1.1093
 5539TIP3   OH238175   1.469   2.133   7.271 -0.0200 -0.0636 -0.1375
 5539TIP3    H138176   1.469   2.228   7.278 -1.6529  0.2845 -3.3281
 5539TIP3    H238177   1.390   2.105   7.317 -0.0239  0.1817  0.0053
 5540TIP3   OH238178   2.388   6.373   7.859 -0.1142  0.1213  0.6895
 5540TIP3    H138179   2.426   6.454   7.826 -1.2201  0.1351 -0.6621
 5540TIP3    H238180   2.462   6.315   7.873  0.4751  0.1737 -1.7626
 5541TIP3   OH238181   5.063   4.865   0.092  0.6251 -0.6660  0.0037
 5541TIP3    H138182   5.069   4.954   0.057  1.4814 -0.0670  1.5691
 5541TIP3    H238183   4.969   4.849   0.102  0.4747  0.1717 -0.0386
 5542TIP3   OH238184   5.323   2.770   2.124  0.0156  0.1339 -0.8326
 5542TIP3    H138185   5.318   2.831   2.198 -0.1736  0.6974 -1.3083
 5542TIP3    H238186   5.401   2.718   2.143 -0.5457 -0.3613  0.2376
 5543TIP3   OH238187   4.588   1.000   8.356 -0.0501 -0.1344 -0.4323
 5543TIP3    H138188   4.518   0.956   8.404 -0.6122 -0.1314 -1.2428
 5543TIP3    H238189   4.656   0.933   8.345 -0.6958 -0.6750 -1.2342
 5544TIP3   OH238190   4.723   1.630   0.347  0.5635 -0.0667 -0.0342
 5544TIP3    H138191   4.665   1.665   0.280 -0.2489 -0.2847  0.5516
 5544TIP3    H238192   4.811   1.645   0.311  0.1595  0.1506 -0.9785
 5545TIP3   OH238193   3.829   2.541   2.147  0.4762  0.1969  0.3114
 5545TIP3    H138194   3.794   2.462   2.106 -0.4664  1.3333 -1.1987
 5545TIP3    H238195   3.899   2.569   2.089 -1.4180  2.2903 -1.1492
 5546TIP3   OH238196   3.388   0.737   7.807 -0.2091 -0.0189 -0.6627
 5546TIP3    H138197   3.481   0.742   7.830  0.3780 -1.4298 -2.4920
 5546TIP3    H238198   3.349   0.684   7.877  0.4776  0.0847 -0.1916
 5547TIP3   OH238199   5.913   6.118   2.191  0.0788  0.2939 -0.2247
 5547TIP3    H138200   5.829   6.133   2.233 -0.8022  0.6946 -2.0326
 5547TIP3    H238201   5.974   6.105   2.263 -1.4658  0.2989  1.1321
 5548TIP3   OH238202   6.856   4.936   0.758 -0.6923 -0.9436 -0.0402
 5548TIP3    H138203   6.820   4.851   0.733 -0.8400 -1.7675  2.6442
 5548TIP3    H238204   6.780   4.992   0.768 -0.8000 -1.1622  0.4039
 5549TIP3   OH238205   3.600   1.249   0.485  0.6705 -0.3135  0.3729
 5549TIP3    H138206   3.521   1.286   0.526  0.6641 -0.6000  0.6221
 5549TIP3    H238207   3.644   1.325   0.447  0.2602 -0.1561  0.2092
 5550TIP3   OH238208   4.325   4.767   7.295 -0.2158  0.1657 -0.2091
 5550TIP3    H138209   4.270   4.692   7.272 -0.2353  0.1204 -0.0206
 5550TIP3    H238210   4.342   4.811   7.212 -0.8812  0.4180 -0.2183
 5551TIP3   OH238211   1.501   0.371   7.914  0.2148  0.4292  0.8944
 5551TIP3    H138212   1.467   0.305   7.974 -0.4774  1.0118  1.1490
 5551TIP3    H238213   1.536   0.439   7.971  1.0744  0.2289  0.6331
 5552TIP3   OH238214   3.398   1.650   2.721  0.3971  0.3502 -0.5681
 5552TIP3    H138215   3.335   1.617   2.657  0.2283  0.3206 -0.3867
 5552TIP3    H238216   3.483   1.619   2.690  0.2407 -0.2591 -0.3917
 5553TIP3   OH238217   5.796   2.281   2.354 -0.0526  0.1536 -0.5594
 5553TIP3    H138218   5.779   2.275   2.260 -0.6047  0.4990 -0.4881
 5553TIP3    H238219   5.728   2.340   2.387  0.3962  0.3766 -0.0112
 5554TIP3   OH238220   4.243   5.171   7.223 -0.0508 -0.3979 -0.3624
 5554TIP3    H138221   4.253   5.147   7.315  0.2845 -0.0045 -0.2925
 5554TIP3    H238222   4.148   5.173   7.208 -0.1192  0.0640  0.1165
 5555TIP3   OH238223   0.251   0.582   0.159  0.2656 -0.5475 -0.2447
 5555TIP3    H138224   0.290   0.631   0.231 -1.4484  0.5140  0.0312
 5555TIP3    H238225   0.210   0.506   0.200 -0.7030  0.0524 -0.0521
 5556TIP3   OH238226   4.454   1.855   0.569 -0.2232 -0.0563 -0.3798
 5556TIP3    H138227   4.437   1.928   0.510 -1.0898 -1.1546 -1.5323
 5556TIP3    H238228   4.549   1.856   0.582 -0.2522  1.4677 -0.0722
 5557TIP3   OH238229   2.394   1.229   2.219 -0.1161  0.0328  0.0657
 5557TIP3    H138230   2.459   1.280   2.172 -0.4001  2.7571  2.3269
 5557TIP3    H238231   2.444   1.163   2.266  1.1007  1.8115  1.4183
 5558TIP3   OH238232   4.819   0.968   2.860  0.0570  0.5636  0.3181
 5558TIP3    H138233   4.766   1.028   2.913  0.1496 -0.0940  1.1660
 5558TIP3    H238234   4.892   0.943   2.917 -0.2722 -0.7775  0.1844
 5559TIP3   OH238235   3.038   5.681   7.668  0.0789 -0.2653 -0.1227
 5559TIP3    H138236   3.009   5.594   7.698  0.7754  0.0785  1.6446
 5559TIP3    H238237   3.132   5.681   7.682 -0.1979  1.6217  2.2656
 5560TIP3   OH238238   2.611   4.745   2.362 -0.0553  0.2493 -0.2353
 5560TIP3    H138239   2.532   4.720   2.314 -0.3359  0.3359  0.1736
 5560TIP3    H238240   2.578   4.776   2.447  0.2904  1.6973 -0.5966
 5561TIP3   OH238241   5.430   2.668   1.798  0.0974 -0.1135  0.4604
 5561TIP3    H138242   5.337   2.670   1.779 -0.3863  0.4317  2.6789
 5561TIP3    H238243   5.448   2.576   1.817  0.5368 -0.6241 -2.0004
 5562TIP3   OH238244   5.668   6.599   1.978 -0.3917 -0.4271  0.4729
 5562TIP3    H138245   5.731   6.556   1.920 -0.9699  0.9494 -1.2736
 5562TIP3    H238246   5.583   6.563   1.952 -0.5219 -0.9198  1.5474
 5563TIP3   OH238247   4.959   6.656   2.316  0.9504  0.0925  0.2544
 5563TIP3    H138248   5.017   6.682   2.244  0.2237 -0.1551 -0.4431
 5563TIP3    H238249   5.007   6.679   2.395  1.5192  0.9324 -0.3126
 5564TIP3   OH238250   0.427   6.282   1.303 -0.3012 -0.0808  0.0159
 5564TIP3    H138251   0.409   6.375   1.289 -0.6029 -0.1069  0.2179
 5564TIP3    H238252   0.372   6.236   1.240 -0.1125 -0.1227 -0.1205
 5565TIP3   OH238253   4.266   5.566   0.717  0.2042  0.3588  0.3215
 5565TIP3    H138254   4.338   5.518   0.677  0.6851  1.1884  0.1718
 5565TIP3    H238255   4.297   5.586   0.806 -0.0083  0.3736  0.3941
 5566TIP3   OH238256   4.741   3.447   0.701  0.0997  0.1901  0.3456
 5566TIP3    H138257   4.649   3.457   0.722 -0.8365 -0.4974 -2.8641
 5566TIP3    H238258   4.764   3.526   0.652  0.8182 -0.2128 -0.0044
 5567TIP3   OH238259   1.194   3.773   8.045 -0.1988  0.2698  0.1372
 5567TIP3    H138260   1.221   3.856   8.084  0.4362  0.6142 -0.9994
 5567TIP3    H238261   1.276   3.730   8.021 -0.5659  0.4782 -1.6208
 5568TIP3   OH238262   6.290   0.017   0.114  0.6812  0.3188 -0.1232
 5568TIP3    H138263   6.377   0.047   0.143  0.1667  1.6867  0.0649
 5568TIP3    H238264   6.308  -0.062   0.062  1.8339 -0.7977  1.8606
 5569TIP3   OH238265   6.225   3.080   7.750 -0.1403  0.5624 -0.5418
 5569TIP3    H138266   6.270   3.156   7.714  1.2104  0.9251  1.7233
 5569TIP3    H238267   6.133   3.095   7.729  0.2888  1.9670 -1.5817
 5570TIP3   OH238268   0.802   1.250   1.917 -0.4908 -0.9107  0.3953
 5570TIP3    H138269   0.709   1.250   1.898 -0.5973 -3.1779  0.7155
 5570TIP3    H238270   0.840   1.191   1.852  0.6138 -0.5823  0.7215
 5571TIP3   OH238271   1.571   5.849   1.165 -0.5870 -0.0059  0.0272
 5571TIP3    H138272   1.588   5.943   1.176  1.8545 -0.4588  0.5579
 5571TIP3    H238273   1.581   5.834   1.071  1.9825 -0.1812  0.2564
 5572TIP3   OH238274   2.572   3.532   7.998  0.0216 -0.1306 -0.7132
 5572TIP3    H138275   2.613   3.453   7.963 -1.2057 -0.0597 -2.4493
 5572TIP3    H238276   2.488   3.503   8.032  0.3229  0.1647  0.3303
 5573TIP3   OH238277   4.529   0.427   2.010 -0.2890  0.5269 -0.0679
 5573TIP3    H138278   4.567   0.378   1.937 -0.2849  0.6006 -0.1146
 5573TIP3    H238279   4.544   0.519   1.988 -0.5782  0.5584 -0.1328
 5574TIP3   OH238280   0.576   3.704   7.489  0.2755  0.0798  0.1918
 5574TIP3    H138281   0.482   3.704   7.473 -0.1985  0.0637  2.5732
 5574TIP3    H238282   0.604   3.794   7.471 -0.1429  0.0526 -0.6424
 5575TIP3   OH238283   4.983   6.881   1.710 -0.4118  0.2981 -0.3941
 5575TIP3    H138284   5.046   6.912   1.645 -0.4777 -0.6689 -0.9285
 5575TIP3    H238285   5.036   6.831   1.773 -0.5702 -0.1162 -0.5860
 5576TIP3   OH238286   3.900   2.436   8.052 -0.1263  0.6037  0.8882
 5576TIP3    H138287   3.905   2.492   7.974  0.2744  1.6551  1.6437
 5576TIP3    H238288   3.985   2.448   8.096 -0.3359  0.0109  1.4739
 5577TIP3   OH238289   5.220   1.456   0.255 -0.5344 -0.1189 -0.1324
 5577TIP3    H138290   5.293   1.451   0.193 -1.0160 -0.7410 -0.6607
 5577TIP3    H238291   5.263   1.468   0.340  0.1210  0.9758 -0.5935
 5578TIP3   OH238292   3.372   4.403   1.640 -0.0323  0.3268  0.3523
 5578TIP3    H138293   3.397   4.446   1.558 -0.4604  0.8266  0.4776
 5578TIP3    H238294   3.438   4.335   1.652  1.1773  1.4799  0.5684
 5579TIP3   OH238295   6.285   5.788   0.927  0.1574 -0.4167 -0.2338
 5579TIP3    H138296   6.308   5.841   0.851 -0.2100 -1.1911 -0.8967
 5579TIP3    H238297   6.278   5.851   0.999  1.0789  0.2517 -0.7089
 5580TIP3   OH238298   1.667   5.407   0.207 -0.4545  0.2154  0.7801
 5580TIP3    H138299   1.639   5.396   0.116  0.0120 -1.4514  0.8022
 5580TIP3    H238300   1.697   5.497   0.212 -0.2532  0.2650 -0.7868
 5581TIP3   OH238301   4.292   1.981   2.810 -0.6298  0.1321  0.2044
 5581TIP3    H138302   4.256   2.069   2.799 -0.4070  0.2102  0.0912
 5581TIP3    H238303   4.237   1.925   2.755 -0.7043  0.2173  0.1929
 5582TIP3   OH238304   4.409   3.015   0.335 -0.3849 -0.3974  0.0337
 5582TIP3    H138305   4.463   3.037   0.411 -0.1829 -0.7116 -0.0186
 5582TIP3    H238306   4.372   2.929   0.356 -0.1480 -0.5876 -0.3185
 5583TIP3   OH238307   2.553   6.910   1.559  0.3507  0.0587 -0.1740
 5583TIP3    H138308   2.602   6.841   1.605 -1.4061  0.0231  1.7534
 5583TIP3    H238309   2.521   6.967   1.628 -0.7644  1.1262 -1.5266
 5584TIP3   OH238310   2.545   4.821   2.983 -0.3093  0.3988  0.8932
 5584TIP3    H138311   2.538   4.866   3.067 -0.5388  0.3357  0.9100
 5584TIP3    H238312   2.480   4.751   2.988 -0.0420  0.1417  0.8204
 5585TIP3   OH238313   0.935   1.853   0.695 -0.0434 -0.2054 -0.2697
 5585TIP3    H138314   0.909   1.822   0.781  1.9829  0.0498  0.4820
 5585TIP3    H238315   1.019   1.811   0.678  0.8945  1.7831 -0.9239
 5586TIP3   OH238316   3.496   3.783   0.964 -0.1620 -0.4291 -0.6494
 5586TIP3    H138317   3.430   3.817   1.025  0.4180  1.4991 -1.0168
 5586TIP3    H238318   3.476   3.690   0.957 -0.0563 -0.8526  2.7542
 5587TIP3   OH238319   5.090   4.982   0.606 -0.4879 -0.0637  0.3601
 5587TIP3    H138320   5.051   4.898   0.632  1.6968 -2.0985 -2.2658
 5587TIP3    H238321   5.178   4.980   0.645 -0.2800  0.8289 -0.0509
 5588TIP3   OH238322   3.301   5.572   7.660 -0.2333 -0.5080 -0.4287
 5588TIP3    H138323   3.381   5.596   7.706 -0.1714 -0.6194 -0.4763
 5588TIP3    H238324   3.275   5.489   7.699 -0.2190 -0.5680 -0.5444
 5589TIP3   OH238325   1.324   6.588   1.916  0.1949  0.0828  0.2551
 5589TIP3    H138326   1.356   6.678   1.917  3.2917 -0.9100  0.1350
 5589TIP3    H238327   1.365   6.548   1.839 -2.4961 -1.0402 -0.7295
 5590TIP3   OH238328   2.636   0.856   7.963  0.3893  0.0779  0.2870
 5590TIP3    H138329   2.633   0.794   7.890  0.4266 -1.1282  1.2845
 5590TIP3    H238330   2.707   0.825   8.019 -1.2448 -0.5549  2.1403
 5591TIP3   OH238331   0.558   5.081   0.860  0.0293 -0.1711 -0.4505
 5591TIP3    H138332   0.615   5.040   0.795 -1.7435 -1.8454 -1.0549
 5591TIP3    H238333   0.481   5.024   0.864 -1.3032  1.5936  0.8377
 5592TIP3   OH238334   2.372   4.495   1.604  0.0672  0.2708 -0.6639
 5592TIP3    H138335   2.281   4.521   1.613 -1.5197 -4.8092  1.2254
 5592TIP3    H238336   2.392   4.506   1.511 -2.6077  1.0106 -1.2166
 5593TIP3   OH238337   2.023   3.285   7.537 -0.0282  0.2439  0.0927
 5593TIP3    H138338   2.014   3.367   7.489 -0.4110  0.6090  0.7742
 5593TIP3    H238339   2.019   3.217   7.470 -0.0016  0.7655 -0.4461
 5594TIP3   OH238340   5.840   5.295   7.413 -0.2551  0.2295  0.4770
 5594TIP3    H138341   5.830   5.336   7.499 -1.2683  0.3629  0.3069
 5594TIP3    H238342   5.910   5.344   7.371  1.6485 -1.0712  1.9375
 5595TIP3   OH238343   5.767   3.298   2.589  0.3998  0.5087  0.5755
 5595TIP3    H138344   5.726   3.379   2.622 -1.3884 -0.1709  0.1537
 5595TIP3    H238345   5.773   3.312   2.494  1.2221  0.6125  0.6364
 5596TIP3   OH238346   3.232   1.676   7.583 -0.3137  0.4941 -0.1473
 5596TIP3    H138347   3.247   1.688   7.489 -1.6812 -0.5051 -0.5235
 5596TIP3    H238348   3.227   1.764   7.618 -1.2274  0.9252 -1.2850
 5597TIP3   OH238349   4.953   4.562   2.872  0.2078  0.4398 -0.1598
 5597TIP3    H138350   4.950   4.603   2.958  1.8739 -1.1056  0.6971
 5597TIP3    H238351   5.025   4.607   2.827  0.3477  0.2170 -0.1622
 5598TIP3   OH238352   3.031   1.464   0.494  0.0300  0.0945 -0.5390
 5598TIP3    H138353   3.048   1.536   0.433 -2.4805  0.7228 -0.6085
 5598TIP3    H238354   3.077   1.489   0.574  0.2289  1.1625 -0.9700
 5599TIP3   OH238355   1.437   1.647   0.730  0.0620 -0.3286 -0.1851
 5599TIP3    H138356   1.520   1.692   0.748 -0.1336  0.7395 -1.6997
 5599TIP3    H238357   1.457   1.554   0.740  0.3991 -0.0103  3.4733
 5600TIP3   OH238358   0.195   6.611   2.637  0.8706  0.0649  0.1725
 5600TIP3    H138359   0.214   6.684   2.578  1.3761  0.0524  0.3160
 5600TIP3    H238360   0.248   6.629   2.715  0.8249 -0.3414  0.2977
 5601TIP3   OH238361   4.424   4.519   0.512  0.6656 -0.4628 -0.8859
 5601TIP3    H138362   4.382   4.484   0.433  0.8544 -1.0196 -0.7418
 5601TIP3    H238363   4.356   4.513   0.580 -0.2331  1.9727 -1.4501
 5602TIP3   OH238364   1.609   0.312   2.293  0.3178 -0.0949 -0.2742
 5602TIP3    H138365   1.659   0.235   2.265  0.8574  0.3080 -0.4369
 5602TIP3    H238366   1.663   0.352   2.361  0.0163  0.1122 -0.1552
 5603TIP3   OH238367   0.398   1.838   3.073  0.4962 -0.0888 -0.1274
 5603TIP3    H138368   0.456   1.769   3.041 -0.9110 -1.7786  0.7531
 5603TIP3    H238369   0.328   1.791   3.119 -0.6320  1.9356  0.3646
 5604TIP3   OH238370   3.463   2.413   7.758 -0.0521 -0.2024 -0.5030
 5604TIP3    H138371   3.402   2.404   7.684  1.1909 -0.9127 -1.4970
 5604TIP3    H238372   3.416   2.377   7.833 -0.5541 -1.5854 -1.4352
 5605TIP3   OH238373   1.025   5.260   0.065 -0.0115  0.5853 -0.7068
 5605TIP3    H138374   0.995   5.297   0.148  1.2291 -0.2463  0.1590
 5605TIP3    H238375   1.028   5.334   0.004  0.1420  1.4367  0.3160
 5606TIP3   OH238376   4.548   0.274   0.481  0.0841 -0.7609 -0.7731
 5606TIP3    H138377   4.640   0.254   0.499  0.5407  0.6342 -1.3796
 5606TIP3    H238378   4.535   0.361   0.518 -0.8032 -0.6616 -1.2879
 5607TIP3   OH238379   1.961   5.054   8.306  0.3455 -0.0597  0.0892
 5607TIP3    H138380   1.951   5.146   8.329  2.5644 -0.0863  1.4504
 5607TIP3    H238381   1.929   5.007   8.384  1.1124 -0.3679  0.2235
 5608TIP3   OH238382   2.770   6.544   7.319 -0.4742 -0.9040  0.0579
 5608TIP3    H138383   2.720   6.621   7.294  0.9478  0.1841  0.4188
 5608TIP3    H238384   2.769   6.544   7.415  1.2130 -0.1285  0.1130
 5609TIP3   OH238385   5.708   4.326   0.096  0.6075 -0.0005  0.2134
 5609TIP3    H138386   5.763   4.304   0.170 -1.5591 -1.3758  1.5408
 5609TIP3    H238387   5.705   4.422   0.095  1.1932  0.0404  1.4813
 5610TIP3   OH238388   5.932   2.367   1.387  0.8253 -0.0259  0.0527
 5610TIP3    H138389   5.925   2.303   1.458 -1.1123 -0.4792 -0.4754
 5610TIP3    H238390   5.917   2.451   1.430  0.6535 -0.1996  0.3418
 5611TIP3   OH238391   1.390   6.530   8.143  0.7153 -0.8509  0.0337
 5611TIP3    H138392   1.394   6.596   8.075 -1.3124 -0.4541  0.2249
 5611TIP3    H238393   1.363   6.450   8.098 -3.0409 -0.0581  0.5306
 5612TIP3   OH238394   6.623   1.143   2.815  0.0575 -0.3567  0.2258
 5612TIP3    H138395   6.616   1.191   2.897  0.0803 -0.6227  0.3831
 5612TIP3    H238396   6.568   1.065   2.827  1.4923 -1.3289  0.6607
 5613TIP3   OH238397   4.679   6.046   0.825  0.8841 -0.5042 -0.0379
 5613TIP3    H138398   4.634   6.128   0.843 -0.6760 -1.0882 -1.1350
 5613TIP3    H238399   4.772   6.069   0.830  0.5464  1.8065 -2.2652
 5614TIP3   OH238400   6.642   5.505   2.764 -0.1979 -0.4243  0.5886
 5614TIP3    H138401   6.653   5.425   2.714 -0.2023  0.2424 -0.5149
 5614TIP3    H238402   6.609   5.476   2.849 -0.5585 -1.5554  0.0826
 5615TIP3   OH238403   4.456   3.532   1.367  0.2464 -0.4397 -0.3609
 5615TIP3    H138404   4.414   3.593   1.427 -2.0956 -0.6939 -1.6262
 5615TIP3    H238405   4.412   3.449   1.382 -0.7261 -0.4057 -2.6566
 5616TIP3   OH238406   0.424   4.197   2.265 -0.0755 -0.1172 -0.3685
 5616TIP3    H138407   0.483   4.272   2.255  2.0863 -1.5654  0.7379
 5616TIP3    H238408   0.337   4.235   2.269  0.8397  2.2256 -1.0570
 5617TIP3   OH238409   1.946   0.320   1.653 -0.1534 -0.3180 -0.1628
 5617TIP3    H138410   1.928   0.387   1.719  1.5885 -1.2159  1.2945
 5617TIP3    H238411   1.904   0.241   1.687 -1.8763 -0.1289 -1.6943
 5618TIP3   OH238412   5.678   6.629   2.672  0.5919  0.3604 -0.5592
 5618TIP3    H138413   5.615   6.655   2.605 -0.8448  0.7344  0.8911
 5618TIP3    H238414   5.650   6.674   2.751  1.5239 -1.0116  0.6058
 5619TIP3   OH238415   6.671   6.304   0.307 -0.2840 -0.1999 -0.4343
 5619TIP3    H138416   6.717   6.233   0.262 -1.0514 -0.9834 -0.0168
 5619TIP3    H238417   6.644   6.265   0.391 -1.3760  0.3395 -0.5158
 5620TIP3   OH238418   0.791   1.845   1.563  0.2585  0.8364 -0.7090
 5620TIP3    H138419   0.849   1.888   1.499  0.6126  0.1198 -0.8757
 5620TIP3    H238420   0.732   1.915   1.592  2.9771  2.3780  1.6269
 5621TIP3   OH238421   6.528   1.647   2.571 -0.0796  0.5315 -0.2115
 5621TIP3    H138422   6.596   1.586   2.599  0.6910  0.5316 -1.9329
 5621TIP3    H238423   6.575   1.725   2.543 -0.8176  0.7298 -0.9470
 5622TIP3   OH238424   1.362   2.184   2.044  0.3706 -0.1916  0.2563
 5622TIP3    H138425   1.450   2.218   2.059 -0.6935  1.7623  2.9622
 5622TIP3    H238426   1.328   2.166   2.132 -2.2406  0.0582 -0.6150
 5623TIP3   OH238427   2.478   1.739   6.959 -0.9217 -0.2767 -0.8071
 5623TIP3    H138428   2.465   1.651   6.993  0.7286  0.0656  0.8774
 5623TIP3    H238429   2.397   1.786   6.981 -0.2199 -0.2766  2.1507
 5624TIP3   OH238430   5.377   3.937   1.922 -0.2816  0.1366 -0.9268
 5624TIP3    H138431   5.321   3.957   1.996 -0.4714 -1.9130 -0.4679
 5624TIP3    H238432   5.375   3.842   1.915  1.1482  0.1737 -2.4661
 5625TIP3   OH238433   0.625   6.654   0.150 -0.1152 -0.3285  0.2566
 5625TIP3    H138434   0.659   6.717   0.087  0.7344 -1.8726 -0.9211
 5625TIP3    H238435   0.699   6.594   0.166 -1.0866 -1.4388  0.7482
 5626TIP3   OH238436   1.738   5.206   1.493 -0.1863 -0.3322  0.2288
 5626TIP3    H138437   1.696   5.271   1.436  1.2637  1.4534  1.0745
 5626TIP3    H238438   1.829   5.205   1.464  0.4836  0.2691  2.1557
 5627TIP3   OH238439   3.801   4.078   1.403 -0.5001  0.0422 -0.1470
 5627TIP3    H138440   3.708   4.099   1.410 -0.3784  0.4735  0.2558
 5627TIP3    H238441   3.835   4.143   1.341  0.0799  1.8044  1.8668
 5628TIP3   OH238442   2.481   6.623   7.307 -0.5150  0.5295 -0.2360
 5628TIP3    H138443   2.511   6.653   7.222 -0.6302  1.0278 -0.1035
 5628TIP3    H238444   2.401   6.574   7.288  0.3184 -0.7522 -0.5835
 5629TIP3   OH238445   6.655   3.236   7.733 -0.3812  0.2458 -0.4763
 5629TIP3    H138446   6.671   3.148   7.699  1.4384  0.4398 -0.1938
 5629TIP3    H238447   6.596   3.276   7.668 -0.1741 -0.7327 -1.2878
 5630TIP3   OH238448   3.641   3.174   0.584  0.5408 -0.6214  0.5555
 5630TIP3    H138449   3.708   3.136   0.640 -0.7433 -1.6519  1.4703
 5630TIP3    H238450   3.565   3.183   0.641 -0.6331 -1.1368 -0.8543
 5631TIP3   OH238451   3.878   4.917   2.321 -0.2631  0.1469 -0.5623
 5631TIP3    H138452   3.891   4.954   2.408 -0.9148 -0.5365 -0.1599
 5631TIP3    H238453   3.966   4.891   2.293 -0.1287 -0.2428  0.1818
 5632TIP3   OH238454   0.524   0.647   1.777  0.4706 -0.5877 -0.0431
 5632TIP3    H138455   0.587   0.717   1.796  0.5282 -0.0945 -1.9020
 5632TIP3    H238456   0.570   0.589   1.717  0.3163 -2.1250  1.2666
 5633TIP3   OH238457   4.373   4.916   2.057 -0.1809 -0.0573 -0.0354
 5633TIP3    H138458   4.373   4.831   2.101  0.2640  0.6693  1.4286
 5633TIP3    H238459   4.465   4.939   2.051 -0.3693  1.0741  1.1271
 5634TIP3   OH238460   2.766   4.376   1.281 -0.1871 -0.3515 -0.4039
 5634TIP3    H138461   2.728   4.295   1.314 -1.8522  0.8360  0.7394
 5634TIP3    H238462   2.748   4.375   1.187 -2.0648 -0.3810 -0.0745
 5635TIP3   OH238463   6.342   6.654   0.246 -0.0188  0.1201  0.1050
 5635TIP3    H138464   6.368   6.685   0.333 -0.2665 -1.5888  0.8231
 5635TIP3    H238465   6.257   6.613   0.259  0.0066 -0.2851 -0.9092
 5636TIP3   OH238466   3.758   0.959   2.884  0.4821  0.1963 -0.3448
 5636TIP3    H138467   3.806   0.893   2.934 -0.0924  0.3900  0.4843
 5636TIP3    H238468   3.674   0.918   2.865 -0.5301  1.2212  1.5849
 5637TIP3   OH238469   4.472   4.602   7.072  0.0645  0.0749  0.0177
 5637TIP3    H138470   4.509   4.576   7.156  0.3730 -2.0662 -0.7259
 5637TIP3    H238471   4.531   4.564   7.007 -0.4465  1.2706 -1.1889
 5638TIP3   OH238472   3.691   4.865   3.129 -0.0173 -0.4257  0.5429
 5638TIP3    H138473   3.613   4.810   3.144  0.2503 -1.1440 -0.5608
 5638TIP3    H238474   3.684   4.934   3.195 -2.4797  0.5169 -0.5560
 5639TIP3   OH238475   3.117   6.076   1.169  0.5268  0.0492 -0.3179
 5639TIP3    H138476   3.142   5.987   1.147  0.6293 -0.0739  0.2709
 5639TIP3    H238477   3.156   6.091   1.255 -1.1805 -0.0564  0.5260
 5640TIP3   OH238478   5.781   3.993   8.189  0.1866  0.2330  0.1575
 5640TIP3    H138479   5.703   4.049   8.179  0.8943  1.3407  0.6421
 5640TIP3    H238480   5.805   4.001   8.281  2.4239  2.0830 -0.4929
 5641TIP3   OH238481   1.795   5.992   2.487  0.0423 -0.4372 -0.0315
 5641TIP3    H138482   1.839   6.070   2.455 -0.2131  0.4101  1.6006
 5641TIP3    H238483   1.702   6.010   2.475  0.0014 -0.7901 -0.2807
 5642TIP3   OH238484   4.889   0.023   0.168 -0.1010 -0.3210  0.0815
 5642TIP3    H138485   4.797   0.034   0.192 -0.0021 -0.0038  0.3226
 5642TIP3    H238486   4.925  -0.033   0.236 -0.0365 -0.1683  0.1735
 5643TIP3   OH238487   5.263   2.157   2.880  0.8115 -0.6814  0.3566
 5643TIP3    H138488   5.261   2.220   2.808 -1.4922 -0.9290  0.1218
 5643TIP3    H238489   5.298   2.206   2.954  3.5629 -0.5055 -0.9155
 5644TIP3   OH238490   3.934   3.904   7.034  0.1823  1.1318  0.0381
 5644TIP3    H138491   4.018   3.910   7.079  0.0927  0.0396  0.3849
 5644TIP3    H238492   3.898   3.992   7.039  1.1437  1.5279  0.2007
 5645TIP3   OH238493   1.331   3.944   7.140 -0.2359  0.1456  0.1579
 5645TIP3    H138494   1.336   3.984   7.227  1.2003 -0.3298  0.3128
 5645TIP3    H238495   1.248   3.975   7.104 -1.0249  0.0800  1.8333
 5646TIP3   OH238496   6.362   0.351   8.013 -0.8351  0.1731  0.6461
 5646TIP3    H138497   6.340   0.271   8.060 -0.7439  0.1536  0.6557
 5646TIP3    H238498   6.369   0.324   7.921 -2.1991  0.4374  0.4477
 5647TIP3   OH238499   4.444   2.160   1.938  0.6299 -0.4878 -0.3027
 5647TIP3    H138500   4.499   2.228   1.898  2.2213  0.4724  3.1457
 5647TIP3    H238501   4.501   2.084   1.942  0.0421 -0.9784 -0.9041
 5648TIP3   OH238502   3.432   5.824   2.917 -0.1075 -0.3095 -0.8302
 5648TIP3    H138503   3.492   5.876   2.863  1.2000 -1.3280 -0.3993
 5648TIP3    H238504   3.448   5.734   2.891 -2.0356 -0.5747 -1.2455
 5649TIP3   OH238505   0.233   0.717   1.028  0.0161 -0.1476  0.1534
 5649TIP3    H138506   0.212   0.642   0.972 -0.6120  0.4198 -0.3878
 5649TIP3    H238507   0.164   0.717   1.094 -1.5069  1.4254 -1.3360
 5650TIP3   OH238508   6.091   3.616   0.210 -0.2802  0.3160 -0.7388
 5650TIP3    H138509   6.117   3.588   0.297  1.2196  0.4984 -1.1074
 5650TIP3    H238510   6.162   3.586   0.153 -1.0747  0.4917 -1.8524
 5651TIP3   OH238511   1.578   3.934   2.250  0.3580 -0.2054 -0.0566
 5651TIP3    H138512   1.568   4.024   2.219 -2.0500 -0.5986 -0.6852
 5651TIP3    H238513   1.536   3.933   2.336 -0.6936 -0.9374 -0.5530
 5652TIP3   OH238514   2.646   3.094   0.023  0.6718 -0.7243 -0.2350
 5652TIP3    H138515   2.740   3.109   0.017  0.8050 -1.4748 -0.0931
 5652TIP3    H238516   2.636   2.999   0.011 -0.0082 -0.7321  0.3487
 5653TIP3   OH238517   1.021   1.188   7.951  0.1061  0.4390 -0.2513
 5653TIP3    H138518   1.017   1.185   8.047 -1.4599 -1.4395 -0.3165
 5653TIP3    H238519   1.114   1.201   7.931  0.4745  0.7764  1.5042
 5654TIP3   OH238520   3.166   1.894   8.143 -0.4813  0.3436  0.2418
 5654TIP3    H138521   3.146   1.904   8.050 -0.0093  1.6696  0.2682
 5654TIP3    H238522   3.195   1.980   8.172  1.0571 -0.4445  1.2234
 5655TIP3   OH238523   2.154   2.089   1.464 -0.3097 -0.6472  0.2562
 5655TIP3    H138524   2.152   2.001   1.501 -0.0262 -1.0306 -0.6203
 5655TIP3    H238525   2.102   2.142   1.525  1.3207 -0.9312  2.0135
 5656TIP3   OH238526   2.162   1.295   2.344 -0.4059 -0.2884 -0.8877
 5656TIP3    H138527   2.243   1.288   2.292 -1.1325 -0.8498 -1.9863
 5656TIP3    H238528   2.190   1.336   2.426  0.7557  0.8689 -1.8061
 5657TIP3   OH238529   4.891   3.409   2.101 -0.2718  0.1130 -0.4689
 5657TIP3    H138530   4.908   3.501   2.121 -1.1514  0.3200 -0.6403
 5657TIP3    H238531   4.895   3.365   2.186  0.4593  0.2502 -0.4254
 5658TIP3   OH238532   2.740   0.839   1.734  0.0915  0.4390  0.2107
 5658TIP3    H138533   2.732   0.925   1.774 -0.2615  0.7183 -0.4431
 5658TIP3    H238534   2.823   0.804   1.766 -0.7107  0.1610  2.0965
 5659TIP3   OH238535   0.108   6.911   7.551 -0.4519 -0.0579  0.0724
 5659TIP3    H138536   0.104   6.898   7.456 -1.4193 -0.5649  0.1726
 5659TIP3    H238537   0.039   6.855   7.586  1.2465 -1.5426  1.2401
 5660TIP3   OH238538   3.816   0.204   0.497  0.5352  0.1281 -0.3951
 5660TIP3    H138539   3.851   0.165   0.417  1.9246 -1.0560  0.7281
 5660TIP3    H238540   3.721   0.210   0.482  0.0732 -4.3594 -0.4431
 5661TIP3   OH238541   3.576   2.394   7.263  0.0193  0.0895 -0.1317
 5661TIP3    H138542   3.644   2.363   7.203 -1.5490  0.2829 -2.1312
 5661TIP3    H238543   3.583   2.489   7.261 -0.6126  0.1300 -0.7508
 5662TIP3   OH238544   4.067   4.123   7.940  0.0961 -0.0903  0.1266
 5662TIP3    H138545   4.021   4.099   8.021 -0.1817  1.3344  0.4230
 5662TIP3    H238546   4.143   4.065   7.937 -0.6265 -1.0901  0.6938
 5663TIP3   OH238547   4.620   3.207   1.435  0.2003  0.4954 -0.5249
 5663TIP3    H138548   4.613   3.112   1.427 -0.3429  0.4441  0.4116
 5663TIP3    H238549   4.573   3.241   1.359 -1.1191  0.0200  0.0453
 5664TIP3   OH238550   1.384   4.709   3.277 -0.8835  0.1244 -0.1340
 5664TIP3    H138551   1.384   4.629   3.329  1.8798  1.3573  2.0521
 5664TIP3    H238552   1.469   4.708   3.232 -0.8921  1.6570 -0.2574
 5665TIP3   OH238553   3.457   2.657   7.059 -0.3018  0.3861 -0.5387
 5665TIP3    H138554   3.542   2.685   7.026  0.8189 -1.1279  0.9416
 5665TIP3    H238555   3.440   2.574   7.015 -1.5747  1.1965 -1.6554
 5666TIP3   OH238556   4.903   1.276   1.584  0.1947 -0.4367 -0.1504
 5666TIP3    H138557   4.852   1.219   1.642  1.4667 -1.4494  0.0209
 5666TIP3    H238558   4.886   1.243   1.496  0.4570 -0.6993 -0.1035
 5667TIP3   OH238559   3.032   0.419   6.465  0.3381 -0.1991  0.5077
 5667TIP3    H138560   2.972   0.397   6.394  0.7180 -0.5961  0.3062
 5667TIP3    H238561   3.087   0.341   6.476  0.9103  0.2059  0.5957
 5668TIP3   OH238562   4.206   0.883   0.547  0.2086  0.0854 -0.1374
 5668TIP3    H138563   4.239   0.935   0.474  0.6722  0.0889  0.0698
 5668TIP3    H238564   4.224   0.793   0.522 -1.0506 -0.0245 -0.7225
 5669TIP3   OH238565   4.895   0.684   7.905 -0.5324 -0.0068 -0.5531
 5669TIP3    H138566   4.917   0.709   7.816 -1.3118  0.2306 -0.6824
 5669TIP3    H238567   4.941   0.747   7.960 -1.6823  1.1184 -0.8500
 5670TIP3   OH238568   5.028   2.879   7.923  0.3540  0.2228 -0.9833
 5670TIP3    H138569   5.102   2.939   7.919 -0.2046  1.2169  1.6789
 5670TIP3    H238570   5.029   2.846   8.013 -1.4879 -0.9798 -1.3618
 5671TIP3   OH238571   6.931   5.606   3.359 -0.2217 -0.3044 -0.1889
 5671TIP3    H138572   6.983   5.526   3.362  2.0783  1.1373  0.5399
 5671TIP3    H238573   6.843   5.578   3.384  0.6310 -2.5114  0.5670
 5672TIP3   OH238574   2.522   0.250   0.353  0.6303  0.1655 -0.0453
 5672TIP3    H138575   2.545   0.296   0.434  0.9710 -0.3404  0.1504
 5672TIP3    H238576   2.603   0.207   0.326  0.6172  0.6304 -0.8598
 5673TIP3   OH238577   2.162   6.688   8.389  0.0846 -0.2251 -0.0915
 5673TIP3    H138578   2.237   6.695   8.330  0.6988 -1.2052  0.5352
 5673TIP3    H238579   2.200   6.695   8.476 -0.8716  1.6448  0.2205
 5674TIP3   OH238580   2.965   2.416   1.183  0.4300 -0.0877  0.0685
 5674TIP3    H138581   3.061   2.411   1.176  0.5068  1.0127  0.1613
 5674TIP3    H238582   2.950   2.460   1.267 -0.2004 -1.2648  0.6093
 5675TIP3   OH238583   5.081   5.366   7.947  0.8441  0.1315 -0.5580
 5675TIP3    H138584   5.111   5.342   7.860  1.1808 -0.9864 -0.1534
 5675TIP3    H238585   5.002   5.418   7.932 -0.6307 -2.2362 -1.5025
 5676TIP3   OH238586   2.749   4.992   1.109 -0.2075 -0.2985  0.7000
 5676TIP3    H138587   2.700   4.917   1.143 -0.4285 -0.4711  0.0051
 5676TIP3    H238588   2.709   5.068   1.151 -0.0937 -0.5522  1.2730
 5677TIP3   OH238589   1.414   6.369   2.187 -0.0414 -1.0481  0.1259
 5677TIP3    H138590   1.374   6.392   2.271 -0.7566 -0.5325 -0.3399
 5677TIP3    H238591   1.340   6.343   2.132  0.0229  1.1966 -1.1777
 5678TIP3   OH238592   5.588   1.881   7.867  0.2256  0.4252  0.2015
 5678TIP3    H138593   5.574   1.915   7.779 -0.9011  1.9920  0.9431
 5678TIP3    H238594   5.500   1.870   7.903  0.6688 -0.3163  1.0942
 5679TIP3   OH238595   4.696   5.841   7.978 -0.2500  0.0905  0.0066
 5679TIP3    H138596   4.684   5.746   7.969 -0.7733  0.0453  1.0448
 5679TIP3    H238597   4.773   5.849   8.035  0.0846  0.2977 -0.4732
 5680TIP3   OH238598   2.788   2.768   1.241  0.0917 -0.0609 -0.1129
 5680TIP3    H138599   2.829   2.755   1.326  0.4064 -0.8531 -0.3720
 5680TIP3    H238600   2.704   2.722   1.247 -0.3008  0.6712  0.0717
 5681TIP3   OH238601   4.631   3.752   8.050 -0.0773  0.7280 -1.0400
 5681TIP3    H138602   4.651   3.813   8.120 -0.0989 -0.7940  0.3544
 5681TIP3    H238603   4.682   3.783   7.975  0.4095  2.0495 -0.1871
 5682TIP3   OH238604   3.241   5.610   0.377  0.2129 -0.3150 -0.1821
 5682TIP3    H138605   3.210   5.554   0.306  0.7083 -1.4546  0.4836
 5682TIP3    H238606   3.264   5.692   0.334  1.3932 -1.2960 -1.4978
 5683TIP3   OH238607   0.805   6.884   1.384 -0.2740 -0.3835 -0.6370
 5683TIP3    H138608   0.806   6.798   1.342 -2.5654 -0.3974 -0.7802
 5683TIP3    H238609   0.747   6.937   1.329 -1.9420  0.1243  1.4568
 5684TIP3   OH238610   1.564   3.988   7.687  0.1804  0.0466  0.3395
 5684TIP3    H138611   1.565   3.986   7.782  0.3329  0.1255  0.3385
 5684TIP3    H238612   1.552   3.896   7.661 -0.5266  0.0997  0.4436
 5685TIP3   OH238613   3.185   5.501   1.225 -0.2065  0.3174  0.5784
 5685TIP3    H138614   3.200   5.409   1.203 -0.4421  0.3277  0.3730
 5685TIP3    H238615   3.129   5.498   1.302  0.7974  0.2781  1.3347
 5686TIP3   OH238616   1.075   4.518   0.789 -0.1146 -0.0515 -0.0381
 5686TIP3    H138617   1.128   4.525   0.868 -1.6928  0.5095  1.0076
 5686TIP3    H238618   1.073   4.424   0.771 -0.9327 -0.3653  1.4757
 5687TIP3   OH238619   5.951   5.513   8.010  0.3862 -0.0486  0.9163
 5687TIP3    H138620   5.953   5.438   8.070 -1.6260 -0.6640  0.3170
 5687TIP3    H238621   5.916   5.476   7.929 -0.5013  1.4969  0.5612
 5688TIP3   OH238622   1.420   6.135   0.129 -0.4972 -0.1343 -0.5266
 5688TIP3    H138623   1.391   6.155   0.040  0.5923 -1.0785 -1.1266
 5688TIP3    H238624   1.344   6.093   0.170 -1.3807  1.3239 -0.6153
 5689TIP3   OH238625   0.894   5.718   0.063 -0.2352  0.1303 -0.1590
 5689TIP3    H138626   0.804   5.726   0.032 -0.3788  0.1105  0.2404
 5689TIP3    H238627   0.937   5.661  -0.001 -0.2898  0.7968 -0.7971
 5690TIP3   OH238628   1.942   5.862   7.657 -0.3497 -0.6297 -0.9963
 5690TIP3    H138629   1.885   5.811   7.715  0.6246  2.5975  3.3696
 5690TIP3    H238630   1.897   5.947   7.650  0.7000 -0.1958 -3.2854
 5691TIP3   OH238631   4.671   4.403   0.527  0.0485 -0.2451 -0.7259
 5691TIP3    H138632   4.610   4.476   0.512  1.3340  0.7603 -1.2453
 5691TIP3    H238633   4.622   4.325   0.500 -1.1087  0.4984 -0.8439
 5692TIP3   OH238634   3.032   1.567   1.526 -0.4494 -0.0021 -0.1117
 5692TIP3    H138635   2.981   1.486   1.529  2.1167 -1.7193  0.2896
 5692TIP3    H238636   3.036   1.596   1.617 -1.6871  0.8564 -0.3021
 5693TIP3   OH238637   6.206   5.398   0.359 -0.1421  0.0718  0.4443
 5693TIP3    H138638   6.221   5.454   0.283  1.1160  1.4482  1.6584
 5693TIP3    H238639   6.294   5.374   0.389 -0.6410 -1.3821  0.8214
 5694TIP3   OH238640   3.724   1.110   0.705 -0.0865  0.1417  0.0086
 5694TIP3    H138641   3.783   1.182   0.726  1.2396 -0.4709 -1.4283
 5694TIP3    H238642   3.675   1.141   0.628  0.6467 -0.5372 -0.7551
 5695TIP3   OH238643   5.270   0.903   1.039 -0.0171 -0.2107 -0.0971
 5695TIP3    H138644   5.314   0.821   1.060  1.2674  0.3727 -0.4213
 5695TIP3    H238645   5.303   0.966   1.103 -2.4766 -0.3285  1.4296
 5696TIP3   OH238646   5.801   1.104   8.012 -0.2255 -0.1801 -0.1681
 5696TIP3    H138647   5.766   1.017   7.991  2.1352 -1.1021 -0.5660
 5696TIP3    H238648   5.745   1.164   7.962 -1.6174 -1.4746 -0.2683
 5697TIP3   OH238649   3.352   1.948   0.323  0.1374 -0.1292  0.1545
 5697TIP3    H138650   3.392   1.861   0.318  0.1759 -0.2126  1.5147
 5697TIP3    H238651   3.403   1.994   0.390  1.3932  1.6479 -1.8833
 5698TIP3   OH238652   3.995   5.693   0.665  0.2548 -0.1977  0.9575
 5698TIP3    H138653   4.062   5.739   0.616 -0.2193  2.2985  2.4998
 5698TIP3    H238654   4.025   5.602   0.667  2.2072  0.3500 -0.5947
 5699TIP3   OH238655   4.328   4.879   3.091  0.3121  0.2341  0.6717
 5699TIP3    H138656   4.337   4.799   3.039  0.2533  0.1270  0.8257
 5699TIP3    H238657   4.414   4.893   3.130  0.3626  0.3279  0.5265
 5700TIP3   OH238658   0.305   6.572   1.980  0.1665 -0.3250 -0.6602
 5700TIP3    H138659   0.337   6.609   2.063 -2.5306  1.1468 -0.1862
 5700TIP3    H238660   0.372   6.596   1.916  1.9181 -0.8082  0.8841
 5701TIP3   OH238661   1.100   6.554   2.116 -0.1625 -0.7474 -0.2914
 5701TIP3    H138662   1.124   6.605   2.193 -0.9364  0.7802 -1.0325
 5701TIP3    H238663   1.177   6.559   2.058 -0.4956  0.1702 -0.6585
 5702TIP3   OH238664   6.655   4.537   8.151 -0.2893 -0.1621  0.2013
 5702TIP3    H138665   6.724   4.489   8.105  0.1562  0.3452  0.3291
 5702TIP3    H238666   6.645   4.489   8.234 -0.8545 -0.8718 -0.2733
 5703TIP3   OH238667   2.215   4.114   3.723  0.0072 -0.7005 -0.1781
 5703TIP3    H138668   2.151   4.064   3.774  0.4779 -0.7967  0.3246
 5703TIP3    H238669   2.289   4.126   3.782  0.1090  0.1589 -0.4659
 5704TIP3   OH238670   2.440   1.014   0.179 -0.3498 -0.3521  0.0129
 5704TIP3    H138671   2.535   1.007   0.173 -0.4070 -0.2131 -3.6835
 5704TIP3    H238672   2.424   1.069   0.256  2.5773 -0.0045  0.4748
 5705TIP3   OH238673   2.984   4.467   2.637 -0.6886 -0.3088  0.0825
 5705TIP3    H138674   2.923   4.449   2.566  0.4528 -2.6719 -0.3960
 5705TIP3    H238675   2.929   4.472   2.715 -1.7181  0.0026 -0.6413
 5706TIP3   OH238676   6.016   3.192   2.706 -0.3525  0.0505 -0.4128
 5706TIP3    H138677   6.049   3.277   2.735  0.4018 -0.1145 -0.7630
 5706TIP3    H238678   5.930   3.211   2.668 -1.2525  0.3111  1.6312
 5707TIP3   OH238679   3.818   6.650   7.611  0.0482  0.2830  0.4347
 5707TIP3    H138680   3.856   6.736   7.590 -0.4731  0.1021 -1.3630
 5707TIP3    H238681   3.871   6.618   7.684  2.0018  0.9494 -0.6291
 5708TIP3   OH238682   0.766   5.039   1.401  0.4456  0.8004  0.1537
 5708TIP3    H138683   0.860   5.024   1.400  0.2617 -0.5410  0.8123
 5708TIP3    H238684   0.755   5.118   1.454  1.1898  0.9170  0.1452
 5709TIP3   OH238685   5.245   1.829   1.807  0.4310  0.0035  0.1849
 5709TIP3    H138686   5.252   1.772   1.730  1.0563 -2.6801  2.1127
 5709TIP3    H238687   5.151   1.839   1.821  0.1494  3.0668 -2.5345
 5710TIP3   OH238688   5.778   2.053   8.320 -1.0987 -0.2914 -0.6905
 5710TIP3    H138689   5.710   2.077   8.383  0.2339 -1.5313  1.3232
 5710TIP3    H238690   5.800   2.136   8.276 -0.8967  0.9945  1.6902
 5711TIP3   OH238691   6.483   4.240   2.498  0.0335  0.0720 -0.3904
 5711TIP3    H138692   6.464   4.288   2.579 -1.4591  1.7149 -1.6165
 5711TIP3    H238693   6.567   4.275   2.469 -0.9761  2.0170 -1.2086
 5712TIP3   OH238694   4.590   0.533   0.633 -0.0498  0.1788 -0.2218
 5712TIP3    H138695   4.498   0.551   0.652  0.1367  0.9033  0.0062
 5712TIP3    H238696   4.629   0.619   0.619  0.7978 -0.0549  0.6205
 5713TIP3   OH238697   1.842   4.210   7.899 -0.2967 -0.3612  0.1025
 5713TIP3    H138698   1.885   4.126   7.918  0.2257 -0.1052  0.0821
 5713TIP3    H238699   1.809   4.239   7.984  1.8332  0.6685  0.6589
 5714TIP3   OH238700   2.189   6.404   1.933  0.7089 -0.0670  0.1897
 5714TIP3    H138701   2.235   6.394   1.850 -0.6206 -0.8703 -0.4954
 5714TIP3    H238702   2.153   6.493   1.931 -0.5336 -0.5582 -0.7861
 5715TIP3   OH238703   1.209   3.575   0.238 -0.2417 -0.1502  0.0156
 5715TIP3    H138704   1.140   3.509   0.246 -2.3081  1.9932  0.8897
 5715TIP3    H238705   1.220   3.610   0.326 -1.3696  2.7111 -0.8889
 5716TIP3   OH238706   3.610   4.866   0.501  0.3060 -0.1829  0.3818
 5716TIP3    H138707   3.696   4.825   0.496 -0.0850 -1.1052  0.9410
 5716TIP3    H238708   3.570   4.828   0.580 -0.7975 -0.1572 -0.1443
 5717TIP3   OH238709   0.192   0.886   1.429  0.5014 -0.0493  0.1677
 5717TIP3    H138710   0.200   0.817   1.495 -2.1647 -0.7861 -0.1939
 5717TIP3    H238711   0.145   0.845   1.356 -2.6922  2.4891  0.5932
 5718TIP3   OH238712   2.305   1.818   0.175  0.8648 -0.5283 -0.0334
 5718TIP3    H138713   2.318   1.840   0.082 -2.1578 -1.0490 -0.6971
 5718TIP3    H238714   2.272   1.728   0.173 -0.6691 -0.0440  1.3966
 5719TIP3   OH238715   0.635   4.543   2.934 -0.3287 -0.2141  0.4100
 5719TIP3    H138716   0.726   4.557   2.909  0.1474 -3.0478  0.2795
 5719TIP3    H238717   0.638   4.525   3.028 -0.8039 -0.0386  0.4630
 5720TIP3   OH238718   2.399   0.176   7.751 -0.4109  0.1633  0.4375
 5720TIP3    H138719   2.384   0.091   7.794 -0.6362 -0.3613 -0.6242
 5720TIP3    H238720   2.425   0.153   7.662 -2.4589  1.2048 -0.5002
 5721TIP3   OH238721   6.467   4.428   1.112 -0.9504 -0.5328 -0.4530
 5721TIP3    H138722   6.380   4.464   1.093 -1.1052 -1.1774 -1.0016
 5721TIP3    H238723   6.525   4.504   1.114 -1.0505 -0.3294 -2.8336
 5722TIP3   OH238724   1.735   1.833   0.565 -0.1271 -0.1976  0.0261
 5722TIP3    H138725   1.756   1.907   0.622 -0.1030 -0.5160  0.4315
 5722TIP3    H238726   1.820   1.796   0.541 -0.1707 -0.6032  0.4969
 5723TIP3   OH238727   6.951   6.102   2.037  0.2755 -0.1492 -0.0757
 5723TIP3    H138728   6.948   6.029   1.975  1.1411 -0.8146  0.6384
 5723TIP3    H238729   6.920   6.065   2.119  1.6806  0.0136  0.5423
 5724TIP3   OH238730   6.459   6.560   0.939  0.3702 -0.1626 -0.2677
 5724TIP3    H138731   6.412   6.574   1.021 -0.6356 -1.9954 -0.4678
 5724TIP3    H238732   6.413   6.616   0.876 -0.7427 -0.9157 -0.1643
 5725TIP3   OH238733   1.396   0.937   0.860 -0.9152  0.0191 -0.3171
 5725TIP3    H138734   1.359   0.892   0.784  2.4863 -1.9022 -1.0169
 5725TIP3    H238735   1.389   1.030   0.837 -2.8578 -0.3443 -1.4733
 5726TIP3   OH238736   2.031   0.090   1.834 -0.1156 -0.2730  0.1851
 5726TIP3    H138737   2.014   0.155   1.901 -0.8113  0.9312 -1.1097
 5726TIP3    H238738   2.126   0.093   1.821 -0.1459  0.5407  0.0956
 5727TIP3   OH238739   6.323   1.148   0.209  0.8522  0.1239  0.1585
 5727TIP3    H138740   6.248   1.191   0.168  2.0021  0.6519 -1.4613
 5727TIP3    H238741   6.397   1.204   0.188  2.0799 -1.6059 -0.2624
 5728TIP3   OH238742   5.504   6.841   1.964  0.3224  0.4758  0.5597
 5728TIP3    H138743   5.549   6.772   2.014 -1.3674 -0.0731  1.4138
 5728TIP3    H238744   5.544   6.922   1.994  0.4111  0.0412  1.6949
 5729TIP3   OH238745   0.660   4.583   3.197 -0.1154 -0.6033  0.2021
 5729TIP3    H138746   0.626   4.571   3.286 -0.6439  1.0971  0.2660
 5729TIP3    H238747   0.753   4.604   3.210 -0.4085  0.6365  0.4580
 5730TIP3   OH238748   1.535   0.184   7.416 -0.7299  0.0228  0.1704
 5730TIP3    H138749   1.508   0.255   7.358  0.1494 -0.8519 -1.3844
 5730TIP3    H238750   1.574   0.119   7.357 -0.0822 -1.0453  1.7247
 5731TIP3   OH238751   2.456   6.766   0.130  0.1961 -0.4748  0.0271
 5731TIP3    H138752   2.427   6.857   0.141 -0.5367 -0.7429  0.3751
 5731TIP3    H238753   2.549   6.768   0.154 -0.2148 -0.1313  1.7537
 5732TIP3   OH238754   6.641   2.233   8.325 -0.2847 -0.4042 -0.1836
 5732TIP3    H138755   6.589   2.306   8.358  1.2225  0.9301 -0.6833
 5732TIP3    H238756   6.625   2.162   8.388 -1.0824  0.6120  0.7906
 5733TIP3   OH238757   0.032   3.793   8.113  0.3734  0.3395  0.4300
 5733TIP3    H138758  -0.029   3.802   8.040 -1.1885  0.0770  1.6359
 5733TIP3    H238759   0.082   3.875   8.113 -0.6561  0.9857 -0.0166
 5734TIP3   OH238760   4.602   6.292   7.754  0.1914  0.0293  0.2325
 5734TIP3    H138761   4.581   6.385   7.759 -1.5714 -0.1933 -1.6168
 5734TIP3    H238762   4.537   6.256   7.693  0.9785 -2.3702  0.7026
 5735TIP3   OH238763   5.772   6.284   2.764  0.0645  0.8171  0.2160
 5735TIP3    H138764   5.815   6.199   2.776 -0.7484  0.0270 -1.9208
 5735TIP3    H238765   5.838   6.338   2.721 -0.3225  0.3001 -1.0760
 5736TIP3   OH238766   1.941   1.015   2.091 -0.3788 -0.6817  0.7065
 5736TIP3    H138767   2.029   1.011   2.128 -0.3834  0.8740  0.9243
 5736TIP3    H238768   1.905   0.927   2.107  0.3152 -0.6742  2.6417
 5737TIP3   OH238769   5.063   0.239   0.087  0.3137 -0.8383  0.0438
 5737TIP3    H138770   5.010   0.165   0.119 -0.3749 -1.1544 -1.6695
 5737TIP3    H238771   5.030   0.315   0.135 -0.2229 -1.3704  0.5378
 5738TIP3   OH238772   4.384   2.123   1.356 -0.3633 -0.1917 -0.0744
 5738TIP3    H138773   4.468   2.078   1.368  0.6644  1.4718 -0.7201
 5738TIP3    H238774   4.404   2.196   1.297 -2.6153 -0.7132 -1.6148
 5739TIP3   OH238775   5.910   1.975   7.334 -0.4244 -0.2011 -0.5345
 5739TIP3    H138776   5.942   2.053   7.378  2.4306 -1.8331  0.5297
 5739TIP3    H238777   5.887   2.004   7.246  0.9234  1.7687 -0.2877
 5740TIP3   OH238778   5.693   1.384   8.247 -0.3809  0.0629  0.2001
 5740TIP3    H138779   5.747   1.371   8.169 -0.6625 -2.6312  0.3754
 5740TIP3    H238780   5.740   1.340   8.317 -2.2004 -1.3998  0.5804
 5741TIP3   OH238781   0.687   6.895   2.556  0.3279  0.4341  0.0342
 5741TIP3    H138782   0.614   6.849   2.597  1.5904 -0.4792  1.3726
 5741TIP3    H238783   0.676   6.878   2.462 -0.5695 -0.5854  0.2988
 5742TIP3   OH238784   3.277   4.599   7.002  0.1522 -0.0261 -0.2023
 5742TIP3    H138785   3.367   4.571   7.016 -0.0366 -1.2120 -1.2265
 5742TIP3    H238786   3.285   4.680   6.950  0.6234 -1.0817 -1.8539
 5743TIP3   OH238787   3.937   4.336   0.222 -0.2863  0.3987 -0.0163
 5743TIP3    H138788   3.888   4.258   0.195 -1.8626  1.2730  0.1606
 5743TIP3    H238789   3.984   4.363   0.143 -1.8678  0.7742 -0.8794
 5744TIP3   OH238790   1.002   4.652   2.136 -0.2976  0.1565 -0.5705
 5744TIP3    H138791   1.019   4.597   2.213 -0.5204  2.3818  1.1806
 5744TIP3    H238792   0.909   4.637   2.116  0.0188 -1.2269 -1.1276
 5745TIP3   OH238793   1.506   0.461   2.569  0.2590  0.4126 -0.2365
 5745TIP3    H138794   1.581   0.519   2.582  1.3384 -1.0645  0.5479
 5745TIP3    H238795   1.531   0.380   2.614 -0.7697 -1.0096 -2.0851
 5746TIP3   OH238796   0.859   2.120   3.028  0.2491 -0.2283 -0.5582
 5746TIP3    H138797   0.773   2.094   2.994 -0.0223  0.6160 -0.5258
 5746TIP3    H238798   0.840   2.181   3.099  0.8883  1.5267 -1.8328
 5747TIP3   OH238799   0.171   0.939   1.982 -0.6934  0.2434 -0.0002
 5747TIP3    H138800   0.220   0.878   2.036 -0.2219  0.5504 -0.0757
 5747TIP3    H238801   0.091   0.891   1.958 -0.2933 -0.3741 -0.1318
 5748TIP3   OH238802   6.325   3.201   8.117 -0.1420  0.4637  0.0409
 5748TIP3    H138803   6.251   3.248   8.078 -1.0609 -0.3997  0.6749
 5748TIP3    H238804   6.284   3.139   8.178  1.0599 -0.6501 -0.2431
 5749TIP3   OH238805   3.910   2.116   0.407 -0.3166 -0.1089 -0.2173
 5749TIP3    H138806   3.989   2.111   0.460 -0.8823  0.7317  0.7262
 5749TIP3    H238807   3.928   2.058   0.332 -0.3336 -3.1089  1.9261
 5750TIP3   OH238808   6.046   4.326   0.631 -0.0304 -0.2877 -0.2093
 5750TIP3    H138809   6.027   4.232   0.624 -2.6125  0.2021 -0.9075
 5750TIP3    H238810   6.045   4.344   0.725 -1.0023 -0.7300 -0.1211
 5751TIP3   OH238811   0.134   0.344   0.251 -0.3218  0.1996  0.6348
 5751TIP3    H138812   0.189   0.278   0.207  2.0273  1.9125  0.8095
 5751TIP3    H238813   0.125   0.311   0.340 -0.1992 -0.4941  0.3969
 5752TIP3   OH238814   5.855   0.729   1.573  0.1706 -1.1740 -0.2110
 5752TIP3    H138815   5.909   0.676   1.632  0.2723 -1.9073 -0.9463
 5752TIP3    H238816   5.881   0.701   1.485  0.8458  0.7130 -0.6534
 5753TIP3   OH238817   6.277   0.447   1.567  0.5595 -0.2299  0.6473
 5753TIP3    H138818   6.233   0.437   1.482  1.8528  1.7301 -0.3341
 5753TIP3    H238819   6.271   0.540   1.586  2.6026 -0.1970  1.3824
 5754TIP3   OH238820   2.925   3.901   2.031  0.6680  0.0283 -0.4294
 5754TIP3    H138821   2.883   3.827   1.987 -0.5261  0.5868 -0.2927
 5754TIP3    H238822   3.013   3.904   1.995  0.5216 -1.0599 -0.9145
 5755TIP3   OH238823   2.445   1.393   0.381 -0.2702  0.6701 -0.2905
 5755TIP3    H138824   2.400   1.310   0.364  2.0180 -0.4979 -1.0354
 5755TIP3    H238825   2.467   1.427   0.294 -1.6034  2.3663 -0.0167
 5756TIP3   OH238826   1.865   4.815   8.089  0.6576 -0.1028 -0.1279
 5756TIP3    H138827   1.815   4.843   8.012 -0.5432 -3.2175 -0.6298
 5756TIP3    H238828   1.799   4.799   8.156  1.2153 -1.6083  0.1006
 5757TIP3   OH238829   2.719   1.084   1.131  0.2788 -0.4009 -0.1727
 5757TIP3    H138830   2.679   1.008   1.088 -0.8426 -0.0848  0.2803
 5757TIP3    H238831   2.799   1.049   1.170 -0.1546 -1.3325 -0.0670
 5758TIP3   OH238832   3.535   3.502   0.400  0.6586  0.0771 -0.2055
 5758TIP3    H138833   3.492   3.561   0.463  0.2888  0.3434 -0.6959
 5758TIP3    H238834   3.469   3.437   0.380  1.4399 -1.2151  1.2105
 5759TIP3   OH238835   3.534   1.367   7.660  0.1088 -0.7409  0.5097
 5759TIP3    H138836   3.451   1.341   7.701 -0.5500  0.8097  0.2314
 5759TIP3    H238837   3.573   1.429   7.722  0.0867  0.0590 -0.2611
 5760TIP3   OH238838   5.196   2.217   1.724 -0.2693  0.1278 -0.1128
 5760TIP3    H138839   5.153   2.134   1.704  1.7336 -0.5133 -2.2486
 5760TIP3    H238840   5.169   2.276   1.654 -0.2448  0.7145  0.3656
 5761TIP3   OH238841   3.654   0.841   7.779 -0.7594 -0.1344  0.4413
 5761TIP3    H138842   3.611   0.866   7.697  0.3690 -1.0729 -0.4631
 5761TIP3    H238843   3.692   0.922   7.812  0.7502 -0.1209 -1.1775
 5762TIP3   OH238844   4.277   5.858   1.572 -0.3892  0.4194 -0.0943
 5762TIP3    H138845   4.372   5.851   1.567 -0.3891  0.9903 -3.3780
 5762TIP3    H238846   4.258   5.947   1.545 -1.8649 -0.6499 -3.1290
 5763TIP3   OH238847   5.763   6.562   1.342 -0.2182 -0.6523  0.6026
 5763TIP3    H138848   5.859   6.565   1.343 -0.0105 -3.1115 -1.8184
 5763TIP3    H238849   5.739   6.554   1.435  1.7303  1.7500  1.4257
 5764TIP3   OH238850   2.398   5.350   7.627  0.4990 -0.3376 -0.2522
 5764TIP3    H138851   2.355   5.306   7.553 -2.8208  2.9537 -0.5758
 5764TIP3    H238852   2.342   5.328   7.703  1.9053 -0.8979  0.6676
 5765TIP3   OH238853   0.106   1.176   2.206 -0.0932  0.7075 -0.0261
 5765TIP3    H138854   0.117   1.200   2.298  0.2648  0.8879 -0.1139
 5765TIP3    H238855   0.062   1.091   2.209 -0.7113  1.0331  0.2948
 5766TIP3   OH238856   6.878   1.180   2.477  0.0398  0.0899  0.2093
 5766TIP3    H138857   6.833   1.121   2.418 -0.8306  2.5664 -1.7996
 5766TIP3    H238858   6.971   1.164   2.462 -0.1760  0.1138 -1.2790
 5767TIP3   OH238859   2.884   4.061   0.366 -0.1426  0.5690  0.2462
 5767TIP3    H138860   2.962   4.007   0.353  0.1787  0.8240  1.0551
 5767TIP3    H238861   2.812   3.998   0.370  0.0926  0.2866  0.1021
 5768TIP3   OH238862   0.343   0.329   7.829 -0.0665  0.3563  0.1363
 5768TIP3    H138863   0.267   0.274   7.843 -0.0474  0.4370  0.5701
 5768TIP3    H238864   0.402   0.309   7.902  0.8510 -0.5766 -0.8259
 5769TIP3   OH238865   2.919   1.572   7.545 -0.2322  0.8936  0.5935
 5769TIP3    H138866   2.951   1.658   7.517 -2.0599  1.2015 -0.7021
 5769TIP3    H238867   2.895   1.527   7.464 -0.9330 -0.1809  1.3628
 5770TIP3   OH238868   5.129   4.924   7.541 -0.3744  0.0112 -0.0933
 5770TIP3    H138869   5.164   5.009   7.516 -1.3473  1.4628  3.0395
 5770TIP3    H238870   5.048   4.943   7.587 -0.8400 -2.6493  0.3692
 5771TIP3   OH238871   2.158   1.769   1.111 -0.4787 -0.6287  0.0771
 5771TIP3    H138872   2.130   1.859   1.095 -0.1532 -0.4687  0.3946
 5771TIP3    H238873   2.126   1.749   1.199 -0.3308 -0.7331  0.1085
 5772TIP3   OH238874   6.532   1.488   1.392  0.0213 -0.5076  0.3243
 5772TIP3    H138875   6.462   1.434   1.358 -1.0090  1.4838 -0.8997
 5772TIP3    H238876   6.518   1.490   1.487 -1.0062 -0.9056  0.1856
 5773TIP3   OH238877   6.338   5.510   2.856 -0.1288  0.6390 -0.4412
 5773TIP3    H138878   6.383   5.445   2.911  0.6619  0.8172 -0.8578
 5773TIP3    H238879   6.266   5.542   2.910 -0.1941 -0.1797 -0.0203
 5774TIP3   OH238880   4.593   1.319   2.104  0.2648 -0.4604 -0.7322
 5774TIP3    H138881   4.573   1.237   2.150  0.9402  0.6208  1.5772
 5774TIP3    H238882   4.570   1.388   2.165 -1.3270  1.2033 -3.0216
 5775TIP3   OH238883   5.870   5.674   7.560  0.1157 -0.2965 -0.5925
 5775TIP3    H138884   5.907   5.758   7.586 -1.4097 -0.0979  1.1448
 5775TIP3    H238885   5.917   5.651   7.480  0.4920  2.2583 -1.2006
 5776TIP3   OH238886   3.882   0.794   0.902  0.1688 -0.6148 -0.2405
 5776TIP3    H138887   3.913   0.778   0.813  0.8622 -0.3793 -0.0510
 5776TIP3    H238888   3.868   0.706   0.938 -0.3104 -0.7048 -0.6488
 5777TIP3   OH238889   1.831   3.721   1.552 -0.5110  0.2731  0.0149
 5777TIP3    H138890   1.857   3.795   1.498 -1.2122  0.4109 -0.1433
 5777TIP3    H238891   1.879   3.647   1.516  0.3389  0.6819  0.2943
 5778TIP3   OH238892   3.617   6.074   0.788  0.4677  0.4626 -0.1492
 5778TIP3    H138893   3.571   6.075   0.872  0.0683  0.0600 -0.3612
 5778TIP3    H238894   3.696   6.023   0.805  0.1175 -0.0891 -0.1547
 5779TIP3   OH238895   1.956   6.809   2.309  0.1287  0.5519  0.6327
 5779TIP3    H138896   1.962   6.715   2.326  1.2507  0.7781  1.6547
 5779TIP3    H238897   1.988   6.819   2.219  0.8785  0.0426  0.8271
 5780TIP3   OH238898   0.883   3.109   2.323 -0.1550  0.4243 -0.5701
 5780TIP3    H138899   0.831   3.146   2.251 -0.4681 -0.7705 -0.9728
 5780TIP3    H238900   0.818   3.071   2.382  0.2384 -1.1122 -1.0937
 5781TIP3   OH238901   2.953   0.138   7.340 -0.6342  0.0858 -0.3201
 5781TIP3    H138902   2.970   0.103   7.428 -0.2323 -0.6373 -0.6778
 5781TIP3    H238903   3.039   0.151   7.302 -0.8145 -0.2771 -0.8673
 5782TIP3   OH238904   0.647   1.325   7.820  0.6232  0.6090 -0.4179
 5782TIP3    H138905   0.560   1.351   7.788  0.0082  2.0203  2.1194
 5782TIP3    H238906   0.631   1.246   7.871  0.3596  1.9896  1.7813
 5783TIP3   OH238907   6.733   2.396   8.120  0.1316 -0.1266 -0.5388
 5783TIP3    H138908   6.700   2.346   8.045 -2.7707 -0.4865  0.8399
 5783TIP3    H238909   6.722   2.338   8.195  2.0308  0.5868  0.3407
 5784TIP3   OH238910   3.418   5.053   1.642 -0.0545 -0.0735 -0.4236
 5784TIP3    H138911   3.496   4.999   1.628  0.6839  0.4004  1.5778
 5784TIP3    H238912   3.355   4.993   1.682  0.9838  0.5560  2.4003
 5785TIP3   OH238913   2.422   1.208   7.788 -0.1419  0.2936  0.3242
 5785TIP3    H138914   2.409   1.114   7.772 -1.1553  0.3772  0.6058
 5785TIP3    H238915   2.517   1.217   7.797  0.3742 -0.1353 -3.1958
 5786TIP3   OH238916   6.290   5.442   7.442 -0.1493  0.5441  0.5147
 5786TIP3    H138917   6.278   5.383   7.516  1.9663 -1.6764 -0.7442
 5786TIP3    H238918   6.377   5.481   7.455  0.2026  0.2199 -0.6568
 5787TIP3   OH238919   0.723   4.914   2.176  0.3573 -0.8916  0.0884
 5787TIP3    H138920   0.743   4.875   2.091  0.5416  0.2735 -0.4265
 5787TIP3    H238921   0.628   4.913   2.182  0.3040 -0.2709 -0.4953
 5788TIP3   OH238922   2.739   5.306   2.617 -0.2775  0.0865  0.1827
 5788TIP3    H138923   2.645   5.322   2.628 -0.2971  0.0643  0.0479
 5788TIP3    H238924   2.781   5.380   2.660 -0.3705  0.5984 -0.5921
 5789TIP3   OH238925   1.513   0.954   0.099 -0.2736  0.4504 -0.2909
 5789TIP3    H138926   1.470   0.905   0.030  0.8001 -2.4050  0.9225
 5789TIP3    H238927   1.446   0.962   0.168 -0.4018  0.5664 -0.4279
 5790TIP3   OH238928   2.336   3.965   2.849 -0.0645 -0.3052  0.1915
 5790TIP3    H138929   2.402   3.934   2.788  0.3931 -0.2869  0.6702
 5790TIP3    H238930   2.253   3.949   2.805  0.2372 -0.7781 -0.2143
 5791TIP3   OH238931   4.475   2.552   1.107 -0.3848 -0.2221  0.0649
 5791TIP3    H138932   4.401   2.582   1.160 -0.3065 -1.0847  0.7022
 5791TIP3    H238933   4.439   2.482   1.053 -0.2085 -0.1217 -0.1804
 5792TIP3   OH238934   2.627   1.992   0.227  0.2023  0.1823  0.3527
 5792TIP3    H138935   2.597   1.926   0.290 -0.9695  0.7820  0.4458
 5792TIP3    H238936   2.596   1.960   0.142 -1.7230  1.3261  0.5691
 5793TIP3   OH238937   5.575   5.966   0.193  0.2148 -1.2389  0.5043
 5793TIP3    H138938   5.637   5.968   0.266  0.3141 -1.9582  0.4467
 5793TIP3    H238939   5.628   5.984   0.116 -0.0700  0.6568  0.7004
 5794TIP3   OH238940   2.296   0.725   1.237  0.0769 -0.1949 -0.2664
 5794TIP3    H138941   2.390   0.724   1.256  0.1634  1.3865 -0.4140
 5794TIP3    H238942   2.257   0.676   1.309  0.9467 -0.0815  0.3027
 5795TIP3   OH238943   5.516   1.075   0.934  0.0107 -0.0475  0.3382
 5795TIP3    H138944   5.556   1.014   0.995  0.6321  0.5413  0.5329
 5795TIP3    H238945   5.442   1.027   0.896  0.3445 -0.8253  0.6629
 5796TIP3   OH238946   2.886   6.115   0.621  0.1511  0.1326 -0.4970
 5796TIP3    H138947   2.907   6.073   0.705 -0.1541  0.3647 -0.3045
 5796TIP3    H238948   2.839   6.195   0.645 -0.6358 -0.1997 -0.9151
 5797TIP3   OH238949   4.338   0.058   1.707 -0.3963  0.1576 -0.0167
 5797TIP3    H138950   4.399   0.000   1.753  0.2279  1.6593  1.1103
 5797TIP3    H238951   4.277  -0.002   1.663  0.0760 -1.3460  1.2822
 5798TIP3   OH238952   3.587   5.537   1.574  0.7663  0.3720 -0.1653
 5798TIP3    H138953   3.612   5.445   1.582 -2.0265 -0.5179 -0.7538
 5798TIP3    H238954   3.493   5.536   1.559  0.7564  3.3137 -1.0245
 5799TIP3   OH238955   6.232   5.057   1.271 -0.0218  0.6540  0.1370
 5799TIP3    H138956   6.264   5.077   1.183  1.6217  0.2567  0.6031
 5799TIP3    H238957   6.263   4.968   1.288  0.1293  0.9134  1.2991
 5800TIP3   OH238958   1.895   0.602   7.554  0.6482  0.4278  0.0822
 5800TIP3    H138959   1.985   0.571   7.542  0.8585  0.8995  0.4025
 5800TIP3    H238960   1.895   0.640   7.642 -0.1585 -0.5604  0.5226
 5801TIP3   OH238961   6.205   4.263   7.794 -0.1933 -0.2894  0.2916
 5801TIP3    H138962   6.187   4.308   7.877 -0.4710 -1.4636  0.8939
 5801TIP3    H238963   6.297   4.237   7.800 -0.0642  0.0881 -0.0079
 5802TIP3   OH238964   2.553   4.904   8.268  0.2965 -0.3498  0.2809
 5802TIP3    H138965   2.499   4.831   8.240  0.6288 -1.0442  1.3999
 5802TIP3    H238966   2.621   4.865   8.323  1.6563  0.5533 -0.6603
 5803TIP3   OH238967   2.314   6.457   1.693 -0.2566  0.3289  0.2912
 5803TIP3    H138968   2.368   6.422   1.622 -1.3313  0.9286 -0.8748
 5803TIP3    H238969   2.300   6.549   1.669  0.2345  0.8510  1.8562
 5804TIP3   OH238970   1.082   2.394   8.007 -0.5384  0.0022 -0.1774
 5804TIP3    H138971   1.123   2.322   8.055 -0.7121  0.1572  0.1994
 5804TIP3    H238972   1.085   2.469   8.067  1.2520  0.8142 -1.1968
 5805TIP3   OH238973   5.337   5.036   1.496 -0.9021  0.7721  0.3268
 5805TIP3    H138974   5.384   4.986   1.562  1.2572  2.0281 -0.1852
 5805TIP3    H238975   5.369   5.125   1.505 -2.6390  1.5527 -0.5921
 5806TIP3   OH238976   5.676   0.330   2.902 -0.6196 -0.1914  0.5859
 5806TIP3    H138977   5.726   0.359   2.978  0.1374 -0.6560  0.2746
 5806TIP3    H238978   5.608   0.397   2.891  0.9612  1.4141 -0.0160
 5807TIP3   OH238979   0.448   6.499   0.965  0.0001  0.2578 -0.0444
 5807TIP3    H138980   0.470   6.408   0.944  0.6271 -0.0232  1.6680
 5807TIP3    H238981   0.367   6.493   1.016  0.5719  0.5496  0.9263
 5808TIP3   OH238982   0.280   3.943   2.171  0.1122 -0.3352 -0.2938
 5808TIP3    H138983   0.218   3.970   2.238 -0.5468 -0.7834 -0.7174
 5808TIP3    H238984   0.347   3.894   2.219  0.8373  1.2170  0.3441
 5809TIP3   OH238985   0.981   5.170   1.572 -0.0462  0.2531  0.0122
 5809TIP3    H138986   0.951   5.095   1.624 -1.4437  0.4882 -0.4135
 5809TIP3    H238987   0.903   5.224   1.561  0.6578  1.1492 -0.7604
 5810TIP3   OH238988   5.625   3.759   8.220  0.0367  0.5066 -0.2476
 5810TIP3    H138989   5.640   3.729   8.130  0.4689 -0.0821  0.0083
 5810TIP3    H238990   5.643   3.853   8.218  0.9594  0.3353 -0.5826
 5811TIP3   OH238991   0.691   1.108   7.600 -0.3043  0.0850 -0.1835
 5811TIP3    H138992   0.701   1.195   7.637 -0.4563  0.5994 -1.3295
 5811TIP3    H238993   0.644   1.121   7.518 -1.3730 -1.1958  0.1734
 5812TIP3   OH238994   5.160   6.795   1.016 -0.5588  0.7496 -0.1115
 5812TIP3    H138995   5.127   6.839   0.938  0.5811  0.5107 -0.7536
 5812TIP3    H238996   5.085   6.790   1.075 -1.7867 -0.1600 -1.6689
 5813TIP3   OH238997   3.594   6.342   1.469 -0.0475  0.2386 -0.7617
 5813TIP3    H138998   3.634   6.303   1.391  3.5552  2.1426 -0.0874
 5813TIP3    H238999   3.570   6.430   1.442 -0.2757  0.3736 -0.1337
 5814TIP3   OH239000   5.088   0.314   7.325 -0.4030 -0.2652 -0.1337
 5814TIP3    H139001   5.048   0.393   7.362 -1.4906 -0.5060 -0.7692
 5814TIP3    H239002   5.161   0.347   7.273 -0.4078  0.2656  0.1856
 5815TIP3   OH239003   2.421   2.854   7.612  0.0281 -0.1700 -0.3267
 5815TIP3    H139004   2.474   2.776   7.627  3.1639  1.4731 -1.9217
 5815TIP3    H239005   2.477   2.927   7.636 -1.8255  1.7100 -1.3361
 5816TIP3   OH239006   5.467   0.444   8.162  0.6289 -0.4434  0.6718
 5816TIP3    H139007   5.390   0.481   8.119  1.0887  0.6055  0.7088
 5816TIP3    H239008   5.457   0.349   8.153 -1.0782 -0.3748  1.3999
 5817TIP3   OH239009   1.651   1.792   0.913 -0.3444 -0.0978 -0.0925
 5817TIP3    H139010   1.746   1.786   0.923 -0.0340 -0.1878 -2.4738
 5817TIP3    H239011   1.615   1.739   0.985  1.4468 -1.2527  0.0035
 5818TIP3   OH239012   4.926   4.656   1.930 -0.0501  0.0290 -0.2000
 5818TIP3    H139013   4.862   4.597   1.890  1.2670 -2.0017  0.5659
 5818TIP3    H239014   5.005   4.645   1.877 -0.6558  3.8474 -2.2763
 5819TIP3   OH239015   2.582   2.579   0.678 -0.0137  0.3154  0.0322
 5819TIP3    H139016   2.625   2.615   0.756 -1.0623  1.5864  0.0582
 5819TIP3    H239017   2.585   2.484   0.692  0.4085  0.4873  1.3086
 5820TIP3   OH239018   5.764   4.751   2.146 -0.0732  0.0122  0.2802
 5820TIP3    H139019   5.787   4.841   2.123 -1.2053  0.1092 -0.6280
 5820TIP3    H239020   5.802   4.736   2.232 -0.1131  1.4682  0.5658
 5821TIP3   OH239021   5.664   5.371   2.884 -0.2979 -0.1407 -0.1630
 5821TIP3    H139022   5.613   5.341   2.809 -0.7764  0.2969 -0.0192
 5821TIP3    H239023   5.632   5.319   2.958 -0.3980 -0.0072 -0.1113
 5822TIP3   OH239024   4.913   2.323   7.461  0.4161  0.2532 -0.0679
 5822TIP3    H139025   4.860   2.390   7.506  0.6280 -0.5452  1.4538
 5822TIP3    H239026   4.973   2.373   7.406  1.0723  1.3963  1.5891
 5823TIP3   OH239027   5.721   4.843   1.304  0.5957 -0.0486 -0.6776
 5823TIP3    H139028   5.802   4.856   1.353  0.6444  0.4370 -0.8864
 5823TIP3    H239029   5.669   4.922   1.321 -0.5357 -1.0577  0.7953
 5824TIP3   OH239030   3.449   6.395   0.420  0.1705 -0.7101 -0.0486
 5824TIP3    H139031   3.437   6.310   0.462 -1.6869 -1.1286 -1.3046
 5824TIP3    H239032   3.365   6.413   0.378  0.2355  2.1552  0.8576
 5825TIP3   OH239033   5.107   3.047   2.514  0.0779 -0.1078  0.2303
 5825TIP3    H139034   5.132   3.102   2.440  0.7809 -0.8490 -0.0994
 5825TIP3    H239035   5.150   3.088   2.590 -1.6555  1.3857  0.4940
 5826TIP3   OH239036   2.476   5.294   1.523 -0.6305 -0.5781  0.5387
 5826TIP3    H139037   2.439   5.320   1.607 -2.2406 -1.0473 -0.0020
 5826TIP3    H239038   2.524   5.371   1.493  0.0977 -0.4580  1.9384
 5827TIP3   OH239039   6.736   6.018   7.621  0.4254  0.1447  0.2439
 5827TIP3    H139040   6.831   6.012   7.635  0.6361 -0.1253 -1.0846
 5827TIP3    H239041   6.727   6.079   7.547 -0.4955  0.8185  0.8910
 5828TIP3   OH239042   0.748   1.210   2.618 -0.0722 -0.1729  0.2335
 5828TIP3    H139043   0.808   1.278   2.587  0.0393  0.3211  1.4695
 5828TIP3    H239044   0.806   1.141   2.650 -0.1698 -0.2344  0.2760
 5829TIP3   OH239045   4.909   4.753   0.652  0.2421 -0.1002 -0.3846
 5829TIP3    H139046   4.858   4.770   0.573  0.3132 -0.0418 -0.4183
 5829TIP3    H239047   4.863   4.681   0.696  0.9016 -1.0083 -1.1292
 5830TIP3   OH239048   4.012   3.406   8.187 -0.0725  0.2703  0.2096
 5830TIP3    H139049   3.998   3.371   8.099  1.3253  2.4299 -0.9667
 5830TIP3    H239050   3.971   3.492   8.187 -0.1664  0.2699  1.7413
 5831TIP3   OH239051   5.282   2.634   8.294  0.2130  0.1216 -0.0728
 5831TIP3    H139052   5.363   2.603   8.334 -0.6003 -1.5468  0.3466
 5831TIP3    H239053   5.213   2.608   8.355 -0.7628  0.4206 -1.0121
 5832TIP3   OH239054   4.852   2.415   1.907 -0.3584 -0.3857 -0.3822
 5832TIP3    H139055   4.868   2.404   1.814 -0.5991 -1.2166 -0.3318
 5832TIP3    H239056   4.884   2.334   1.947 -0.3895 -0.0978  0.2381
 5833TIP3   OH239057   0.010   6.951   3.239 -0.2538  0.9984 -0.2329
 5833TIP3    H139058   0.049   6.957   3.152 -0.8497 -0.1990 -0.6109
 5833TIP3    H239059   0.083   6.964   3.300 -0.1332  3.7153 -0.8621
 5834TIP3   OH239060   5.360   0.607   6.801 -0.3101  0.5504 -0.1963
 5834TIP3    H139061   5.387   0.516   6.817 -0.2669  0.9100  2.0267
 5834TIP3    H239062   5.278   0.599   6.752 -0.1920 -0.6738 -0.2290
 5835TIP3   OH239063   0.972   3.440   0.264 -0.4190  0.3063 -0.0369
 5835TIP3    H139064   0.878   3.447   0.245 -0.1946 -0.1302 -1.4974
 5835TIP3    H239065   0.980   3.361   0.318 -0.9983  0.9538  1.0072
 5836TIP3   OH239066   3.853   3.194   1.239  0.0942 -0.0681 -0.2183
 5836TIP3    H139067   3.780   3.244   1.275  1.2814 -0.0884  2.4448
 5836TIP3    H239068   3.824   3.103   1.243 -0.0769 -0.0047  0.0266
 5837TIP3   OH239069   3.285   4.336   8.229  0.2398 -0.6432 -0.1517
 5837TIP3    H139070   3.370   4.318   8.189 -0.1237 -0.1476 -1.2051
 5837TIP3    H239071   3.288   4.293   8.314  1.9916  0.3575  0.3447
 5838TIP3   OH239072   3.450   0.276   1.002  0.2031 -0.0530  0.3485
 5838TIP3    H139073   3.521   0.227   0.960 -0.1990  0.3824 -0.8881
 5838TIP3    H239074   3.478   0.367   0.998  1.2281 -0.1654  3.1881
 5839TIP3   OH239075   6.676   2.609   0.402  0.0271 -0.0173 -0.6972
 5839TIP3    H139076   6.585   2.633   0.389  0.0954 -0.6469 -2.6295
 5839TIP3    H239077   6.701   2.653   0.483 -2.5832 -1.5924  1.1138
 5840TIP3   OH239078   4.311   4.438   7.404  0.5544 -0.2850 -0.0189
 5840TIP3    H139079   4.260   4.470   7.330  1.2635 -2.1706 -1.3720
 5840TIP3    H239080   4.336   4.349   7.380  1.2412 -0.7734  2.2787
 5841TIP3   OH239081   4.676   2.033   1.640 -0.2097 -0.8819  0.1730
 5841TIP3    H139082   4.646   2.046   1.550  0.8087  1.4659  0.1148
 5841TIP3    H239083   4.623   1.960   1.673 -1.3510 -1.0818 -1.9606
 5842TIP3   OH239084   5.361   1.450   1.837 -0.2125 -0.4922 -0.1781
 5842TIP3    H139085   5.432   1.509   1.812  0.2513 -1.2049 -0.5921
 5842TIP3    H239086   5.296   1.458   1.767 -1.2135  1.1938  0.8765
 5843TIP3   OH239087   5.256   1.434   8.157  1.0622 -0.1160  0.1561
 5843TIP3    H139088   5.163   1.427   8.180  0.3568  0.9976 -2.0450
 5843TIP3    H239089   5.291   1.497   8.220 -0.0333  0.5448  0.1378
 5844TIP3   OH239090   3.326   0.400   0.630  0.0873 -0.6302 -0.0212
 5844TIP3    H139091   3.379   0.321   0.635 -0.3753 -0.8707  1.7604
 5844TIP3    H239092   3.257   0.387   0.695  0.1840  1.3613  0.5433
 5845TIP3   OH239093   6.126   3.912   0.191  0.6175  0.0977  0.4450
 5845TIP3    H139094   6.088   3.832   0.227  0.8401  0.4437  1.4606
 5845TIP3    H239095   6.144   3.890   0.099 -0.9149 -0.4575  0.2537
 5846TIP3   OH239096   5.059   1.928   8.258  0.8271 -0.5278  0.4439
 5846TIP3    H139097   5.087   2.011   8.221  0.3805 -0.2198  0.7907
 5846TIP3    H239098   5.107   1.922   8.341 -0.3429  0.1582  1.2022
 5847TIP3   OH239099   4.984   0.673   1.891 -0.3121  0.0533 -0.3562
 5847TIP3    H139100   4.968   0.752   1.942 -0.3062  0.1157 -0.4510
 5847TIP3    H239101   5.005   0.606   1.956 -0.4513  0.0959 -0.2666
 5848TIP3   OH239102   5.206   1.518   1.148 -0.0890  0.1782  0.0516
 5848TIP3    H139103   5.214   1.495   1.055  1.8250  0.6852  0.0505
 5848TIP3    H239104   5.197   1.434   1.192 -2.5562 -0.0122 -0.6584
 5849TIP3   OH239105   4.002   4.635   8.273  0.2888 -0.3176  0.0566
 5849TIP3    H139106   3.990   4.594   8.187  1.4153 -2.2906  0.7674
 5849TIP3    H239107   4.089   4.675   8.268 -0.0659  0.4631 -0.0329
 5850TIP3   OH239108   1.597   4.862   2.443 -1.2241 -0.4315  0.6768
 5850TIP3    H139109   1.601   4.905   2.358 -0.7124 -1.6531  0.0655
 5850TIP3    H239110   1.680   4.815   2.451 -1.1210 -0.0706  2.0032
 5851TIP3   OH239111   2.448   6.340   2.379  0.0754 -0.0246 -0.0332
 5851TIP3    H139112   2.499   6.325   2.459  1.0651 -0.3909 -0.7156
 5851TIP3    H239113   2.357   6.330   2.407  0.4303 -0.8895  0.9012
 5852TIP3   OH239114   1.979   2.874   1.586 -0.2137 -0.1893  0.3100
 5852TIP3    H139115   1.947   2.843   1.502  0.5151 -0.8300  0.2524
 5852TIP3    H239116   1.901   2.897   1.636 -0.6238  1.0825 -0.8690
 5853TIP3   OH239117   6.644   3.750   2.444  0.2502  0.3213  0.4845
 5853TIP3    H139118   6.710   3.794   2.391 -0.1797 -0.4540 -0.7372
 5853TIP3    H239119   6.692   3.681   2.490  0.2209 -0.6190 -0.8489
 5854TIP3   OH239120   2.116   3.918   0.910  0.3906  0.1243 -0.3749
 5854TIP3    H139121   2.181   3.862   0.867  1.2001  1.0131 -0.3392
 5854TIP3    H239122   2.167   3.987   0.952 -0.5673  0.7712 -0.2332
 5855TIP3   OH239123   5.768   5.861   8.377 -0.2792 -0.0679  0.8182
 5855TIP3    H139124   5.746   5.921   8.305 -1.8988 -0.8154  0.6262
 5855TIP3    H239125   5.794   5.780   8.334 -1.1580 -0.4872  1.0503
 5856TIP3   OH239126   0.212   6.184   7.934  0.4421  0.7778 -0.1081
 5856TIP3    H139127   0.256   6.219   7.856  0.4897 -0.4036 -0.6377
 5856TIP3    H239128   0.250   6.097   7.946 -1.5846 -0.2172 -0.4730
 5857TIP3   OH239129   0.378   2.413   7.804 -0.1087  0.0721  0.0683
 5857TIP3    H139130   0.358   2.438   7.894  2.1923 -0.2657  0.7397
 5857TIP3    H239131   0.327   2.333   7.789  0.6997 -0.7815  1.6597
 5858TIP3   OH239132   5.143   0.134   7.808 -0.5841 -0.4036 -0.0692
 5858TIP3    H139133   5.108   0.073   7.742 -1.6177  0.4493 -0.3574
 5858TIP3    H239134   5.116   0.096   7.892 -0.5586 -0.7396 -0.2104
 5859TIP3   OH239135   0.946   3.190   0.362  0.3231  0.5225  0.1439
 5859TIP3    H139136   1.005   3.153   0.297 -0.5560 -0.2494 -0.2235
 5859TIP3    H239137   0.870   3.221   0.312  1.2285  3.3764  0.3461
 5860TIP3   OH239138   6.476   0.871   8.211  0.8737 -0.7654  0.0490
 5860TIP3    H139139   6.423   0.857   8.290  0.4156 -1.4974 -0.3842
 5860TIP3    H239140   6.549   0.811   8.221 -0.7514 -3.1733 -1.4956
 5861TIP3   OH239141   1.065   2.374   1.790  0.4692  0.2219 -0.1378
 5861TIP3    H139142   1.032   2.463   1.782 -1.1448 -0.3653 -0.3698
 5861TIP3    H239143   1.061   2.339   1.700  1.3283 -0.0215 -0.0947
 5862TIP3   OH239144   0.617   6.939   0.033 -0.1627 -0.8347  0.1197
 5862TIP3    H139145   0.596   6.882  -0.042  0.8029 -2.6136  1.1306
 5862TIP3    H239146   0.664   7.013  -0.006 -0.3494 -1.3326 -1.1151
 5863TIP3   OH239147   6.316   4.853   3.037 -0.5324  0.1905  0.1934
 5863TIP3    H139148   6.406   4.877   3.061  0.0806 -0.9419 -0.8639
 5863TIP3    H239149   6.296   4.906   2.960 -0.5960  0.1126  0.1554
 5864TIP3   OH239150   6.463   2.399   0.565 -0.0270 -0.0848 -0.0735
 5864TIP3    H139151   6.492   2.412   0.655  1.0543  1.4950 -0.6045
 5864TIP3    H239152   6.531   2.344   0.526  0.1594  0.2500 -0.2313
 5865TIP3   OH239153   5.546   4.236   1.350 -0.2563  0.2425  0.2826
 5865TIP3    H139154   5.587   4.297   1.289 -1.5370  1.9060  1.0301
 5865TIP3    H239155   5.576   4.263   1.436  0.6149 -1.3620  0.5112
 5866TIP3   OH239156   6.835   1.281   1.637 -0.1063  0.2386 -0.3444
 5866TIP3    H139157   6.931   1.272   1.636 -0.2317 -1.3019 -1.1606
 5866TIP3    H239158   6.807   1.232   1.714 -0.3176 -0.3330 -0.7817
 5867TIP3   OH239159   0.509   6.536   0.702 -0.0513 -0.1594  0.4691
 5867TIP3    H139160   0.505   6.535   0.798  0.8525  0.4642  0.5237
 5867TIP3    H239161   0.544   6.622   0.680  0.0216 -0.4012 -0.4109
 5868TIP3   OH239162   3.325   1.386   1.412 -0.0614  0.0088 -0.5165
 5868TIP3    H139163   3.376   1.461   1.383  1.2492 -0.0031  1.5359
 5868TIP3    H239164   3.300   1.407   1.502 -1.0765 -1.3199 -0.4440
 5869TIP3   OH239165   3.921   6.580   0.911 -0.1702  0.0483 -0.1582
 5869TIP3    H139166   3.993   6.633   0.877  0.5344 -1.7066 -1.5867
 5869TIP3    H239167   3.959   6.534   0.986 -0.5592  0.9610  0.6139
 5870TIP3   OH239168   3.765   6.896   1.786 -0.1245  0.6364 -0.3839
 5870TIP3    H139169   3.676   6.896   1.752  0.2366  1.4402 -1.3575
 5870TIP3    H239170   3.779   6.805   1.814 -1.7013  0.7867  1.0597
 5871TIP3   OH239171   6.122   3.738   2.197  0.4533 -0.8869 -0.2871
 5871TIP3    H139172   6.041   3.776   2.161 -0.7751  0.9736  3.7271
 5871TIP3    H239173   6.091   3.671   2.258  1.7818  0.0598  1.5504
 5872TIP3   OH239174   3.913   1.088   7.479 -0.9071  0.1874  0.4047
 5872TIP3    H139175   3.957   1.120   7.401  1.7574  0.6514  1.9628
 5872TIP3    H239176   3.877   1.003   7.453 -1.3582  0.9618 -1.6719
 5873TIP3   OH239177   4.962   0.918   0.574 -0.4462 -0.0972  0.3925
 5873TIP3    H139178   5.007   0.884   0.652  0.1998 -0.2646 -0.0449
 5873TIP3    H239179   4.952   1.012   0.591 -0.0128 -0.0743  0.5306
 5874TIP3   OH239180   6.669   6.753   0.229 -0.3441  0.1338 -0.1443
 5874TIP3    H139181   6.721   6.802   0.166  0.2659 -0.7900 -0.3825
 5874TIP3    H239182   6.584   6.740   0.186 -0.3142  0.4728 -0.3058
 5875TIP3   OH239183   1.640   0.801   1.296  0.0592 -0.6895 -0.0269
 5875TIP3    H139184   1.550   0.772   1.281 -0.3836  0.7859 -0.3870
 5875TIP3    H239185   1.631   0.889   1.331  1.3194 -1.3057  2.0461
 5876TIP3   OH239186   3.905   6.816   7.385 -0.1009 -0.0186  0.3289
 5876TIP3    H139187   3.861   6.897   7.412 -1.8771 -0.7653 -0.1792
 5876TIP3    H239188   3.835   6.751   7.381  1.4434 -1.9177  1.8881
 5877TIP3   OH239189   6.038   5.418   7.286 -0.0777 -0.1825  0.2872
 5877TIP3    H139190   6.124   5.421   7.326  0.1456 -0.4638 -0.1695
 5877TIP3    H239191   6.054   5.398   7.194 -0.5540  0.9098 -0.0599
 5878TIP3   OH239192   5.738   5.801   3.049 -0.0117  0.3002 -0.1436
 5878TIP3    H139193   5.796   5.873   3.074 -1.3294  0.6893  2.0339
 5878TIP3    H239194   5.785   5.722   3.078  0.1494  0.4949  0.1309
 5879TIP3   OH239195   1.636   0.693   2.689 -0.3330 -0.9335  0.3484
 5879TIP3    H139196   1.665   0.696   2.780  2.1067  2.3154 -0.3424
 5879TIP3    H239197   1.551   0.738   2.691  0.5233  0.7801  0.8871
 5880TIP3   OH239198   1.589   1.891   1.407  0.0534 -0.4393 -0.2826
 5880TIP3    H139199   1.521   1.867   1.470 -1.2474  1.1858 -0.9606
 5880TIP3    H239200   1.541   1.902   1.324  1.2808 -0.0476 -0.9643
 5881TIP3   OH239201   4.318   2.530   0.686 -0.0913  0.2206 -0.5275
 5881TIP3    H139202   4.374   2.453   0.674 -1.0246 -0.5834  0.1031
 5881TIP3    H239203   4.292   2.555   0.597 -0.3939 -0.6753 -0.7013
 5882TIP3   OH239204   5.858   5.294   1.414  0.3064  0.4628  0.1212
 5882TIP3    H139205   5.895   5.375   1.378 -1.8770  0.3960 -2.6220
 5882TIP3    H239206   5.851   5.236   1.338  0.9450 -2.0173  1.8495
 5883TIP3   OH239207   1.716   5.021   2.250 -0.4210 -0.2715  0.3982
 5883TIP3    H139208   1.700   5.067   2.168 -2.3622  0.8145  1.3023
 5883TIP3    H239209   1.755   5.087   2.307  1.1474 -1.0835  0.3283
 5884TIP3   OH239210   6.233   2.121   0.949 -0.0394 -0.9443 -0.4953
 5884TIP3    H139211   6.224   2.195   0.889 -0.4079 -1.3410 -0.9420
 5884TIP3    H239212   6.265   2.160   1.031 -0.9592 -0.1816 -0.4785
 5885TIP3   OH239213   0.704   3.897   0.505 -0.0140 -0.5173 -0.0193
 5885TIP3    H139214   0.672   3.862   0.588  1.1690 -2.3590 -0.2715
 5885TIP3    H239215   0.733   3.820   0.456  1.7706  0.7298 -1.0753
 5886TIP3   OH239216   3.481   2.770   2.430 -0.2654  0.7285  0.4041
 5886TIP3    H139217   3.574   2.748   2.439  0.2187  2.2249 -0.5015
 5886TIP3    H239218   3.437   2.713   2.493  1.4811  1.5030  2.4728
 5887TIP3   OH239219   5.762   6.042   8.164  0.2016  0.6848 -0.0509
 5887TIP3    H139220   5.675   6.082   8.171 -0.3790 -0.6811  1.2338
 5887TIP3    H239221   5.760   5.995   8.080 -0.4611  0.3714  0.1270
 5888TIP3   OH239222   5.446   0.150   8.155 -0.9248 -0.2696  0.3973
 5888TIP3    H139223   5.413   0.085   8.218 -2.0157 -0.4183 -0.3099
 5888TIP3    H239224   5.522   0.107   8.115 -1.8269 -1.2527 -0.2949
 5889TIP3   OH239225   5.920   6.483   2.654 -0.1655 -0.5045 -0.6019
 5889TIP3    H139226   5.846   6.541   2.667  0.5089  0.7735 -2.1446
 5889TIP3    H239227   5.996   6.535   2.680  0.3096 -1.3636 -0.2184
 5890TIP3   OH239228   0.292   4.238   8.364 -0.2549  0.6739  0.0129
 5890TIP3    H139229   0.271   4.145   8.360  0.2273  0.5319  0.7533
 5890TIP3    H239230   0.353   4.247   8.437  0.4728  1.4237 -0.6600
 5891TIP3   OH239231   5.876   3.472   2.074  0.4232  0.5579 -0.0405
 5891TIP3    H139232   5.950   3.430   2.031  0.0206 -1.4698  1.0838
 5891TIP3    H239233   5.803   3.411   2.060 -1.2545  2.7372 -1.5963
 5892TIP3   OH239234   1.372   6.858   1.896  0.2765 -0.0479 -0.0106
 5892TIP3    H139235   1.365   6.895   1.984 -1.3511 -2.3377  0.9354
 5892TIP3    H239236   1.441   6.909   1.854  0.5876  1.6265  2.3236
 5893TIP3   OH239237   2.136   4.142   8.124 -0.5755  0.2244  0.1697
 5893TIP3    H139238   2.118   4.213   8.186  0.0622  1.0871 -0.6167
 5893TIP3    H239239   2.138   4.063   8.178 -0.4419  0.9092  1.1816
 5894TIP3   OH239240   4.829   3.320   7.645 -0.2833  0.1524 -0.2119
 5894TIP3    H139241   4.907   3.356   7.686 -1.3275  1.6121  0.5958
 5894TIP3    H239242   4.756   3.357   7.695 -1.5008 -3.0086  0.5596
 5895TIP3   OH239243   6.902   5.980   8.290 -0.0825  0.9000  0.3661
 5895TIP3    H139244   6.942   5.968   8.205  0.4325  0.9586  0.5972
 5895TIP3    H239245   6.830   5.916   8.293 -0.4528  1.2754 -0.3208
 5896TIP3   OH239246   4.985   5.858   0.709 -0.3926  0.1604 -0.6639
 5896TIP3    H139247   4.908   5.809   0.738  0.2137 -0.2048  0.4033
 5896TIP3    H239248   4.978   5.942   0.753  0.3523 -0.2689  0.3282
 5897TIP3   OH239249   0.159   6.017   1.748 -0.2297  0.2251  0.0996
 5897TIP3    H139250   0.067   6.012   1.775 -0.3281  0.4429 -0.1899
 5897TIP3    H239251   0.159   5.988   1.657  0.4291 -2.7643  0.9485
 5898TIP3   OH239252   2.769   3.520   2.756 -0.1250  0.2849 -0.0412
 5898TIP3    H139253   2.847   3.493   2.707 -1.0528  1.1004 -2.0504
 5898TIP3    H239254   2.709   3.446   2.749  1.0153 -1.0852  3.0036
 5899TIP3   OH239255   0.135   6.384   2.525  0.0855 -0.0586  0.3736
 5899TIP3    H139256   0.163   6.463   2.571 -0.3110  0.6795 -0.6173
 5899TIP3    H239257   0.134   6.409   2.432 -2.8177 -0.3366  0.2311
 5900TIP3   OH239258   6.951   5.338   0.186  0.5776  0.5665  0.1426
 5900TIP3    H139259   7.006   5.412   0.160 -1.4107  2.3281  0.6520
 5900TIP3    H239260   6.942   5.346   0.281  0.7942 -0.6823  0.2829
 5901TIP3   OH239261   5.492   6.311   0.499  0.3536  0.2699  0.2530
 5901TIP3    H139262   5.488   6.284   0.408  0.8684  0.8698  0.0389
 5901TIP3    H239263   5.471   6.232   0.549  0.2670 -0.1134 -0.3791
 5902TIP3   OH239264   0.161   3.535   8.136  0.1243  0.1599  0.2825
 5902TIP3    H139265   0.179   3.511   8.045  0.6508  0.5533  0.2745
 5902TIP3    H239266   0.122   3.622   8.130  0.3439  0.2708  0.4367
 5903TIP3   OH239267   0.198   0.481   8.351 -0.2011 -0.2556  0.1918
 5903TIP3    H139268   0.148   0.423   8.409 -0.0217  1.0210  1.6672
 5903TIP3    H239269   0.255   0.531   8.409  0.6955  0.3924 -1.1877
 5904TIP3   OH239270   1.595   6.767   1.397 -0.3205  0.2856 -0.3154
 5904TIP3    H139271   1.579   6.762   1.302 -1.6594  0.9337 -0.1410
 5904TIP3    H239272   1.521   6.816   1.431  0.4324  0.5328  1.0137
 5905TIP3   OH239273   4.109   3.730   0.356  0.1396  0.0537  0.9872
 5905TIP3    H139274   4.026   3.720   0.402 -0.7418  0.6669 -0.3955
 5905TIP3    H239275   4.159   3.793   0.409 -0.7417  0.5574  1.2302
 5906TIP3   OH239276   0.328   0.548   2.163  0.0334  0.1103  0.0183
 5906TIP3    H139277   0.392   0.505   2.105 -0.3530  1.6392 -1.6373
 5906TIP3    H239278   0.346   0.641   2.154 -1.4229  0.4891  0.7544
 5907TIP3   OH239279   2.036   0.976   6.934  0.2840  0.0987  0.6573
 5907TIP3    H139280   1.970   0.909   6.951 -1.1101  0.9947 -0.8564
 5907TIP3    H239281   2.074   0.994   7.020 -0.0228 -1.8608  1.2518
 5908TIP3   OH239282   1.516   1.277   0.029 -0.6421  0.0279 -0.4408
 5908TIP3    H139283   1.473   1.362   0.022 -1.0150 -0.0454  0.7603
 5908TIP3    H239284   1.600   1.296   0.071 -0.7233 -0.1919 -0.1748
 5909TIP3   OH239285   6.763   1.085   7.324  0.0930 -0.5791  0.2558
 5909TIP3    H139286   6.794   1.088   7.415 -0.2658  0.7990  0.3511
 5909TIP3    H239287   6.703   1.159   7.317 -0.4267 -1.0983 -0.9182
 5910TIP3   OH239288   1.023   0.130   2.220 -0.0933 -0.5625  0.2334
 5910TIP3    H139289   1.089   0.200   2.213 -2.1591  1.6531  1.7183
 5910TIP3    H239290   1.032   0.097   2.309 -0.1243 -1.1937  0.0081
 5911TIP3   OH239291   3.895   1.649   2.430 -0.1370 -0.5701 -0.1580
 5911TIP3    H139292   3.924   1.632   2.520  1.1031 -0.8026 -0.5869
 5911TIP3    H239293   3.966   1.699   2.391 -1.5209  1.2647 -0.4537
 5912TIP3   OH239294   6.516   0.784   1.225 -0.4085  0.1820  0.1489
 5912TIP3    H139295   6.441   0.837   1.251  0.7213  0.9311  2.0875
 5912TIP3    H239296   6.485   0.734   1.149 -2.6063  0.9951  0.4392
 5913TIP3   OH239297   5.616   1.541   0.571 -0.2845  0.0408  0.3638
 5913TIP3    H139298   5.677   1.614   0.583  1.1473 -1.1366  0.5415
 5913TIP3    H239299   5.628   1.486   0.649 -0.7155 -0.8081 -0.1503
 5914TIP3   OH239300   6.042   5.235   1.844  0.1420 -0.0177  0.1308
 5914TIP3    H139301   5.948   5.215   1.846  0.1687 -0.0847  0.9240
 5914TIP3    H239302   6.053   5.289   1.766 -0.2985 -1.2584 -0.8391
 5915TIP3   OH239303   4.779   5.359   0.240 -0.5442 -0.1417  0.6022
 5915TIP3    H139304   4.778   5.448   0.205  0.3151 -0.3204  0.0930
 5915TIP3    H239305   4.741   5.367   0.327 -0.0318  0.8195  0.7565
 5916TIP3   OH239306   6.695   5.237   7.833  0.0431  0.5622  0.5403
 5916TIP3    H139307   6.647   5.187   7.768  1.7840  0.0873 -0.4546
 5916TIP3    H239308   6.664   5.204   7.917 -0.7734 -0.2601 -0.0674
 5917TIP3   OH239309   6.904   5.860   1.234 -0.0808  0.0389 -0.3989
 5917TIP3    H139310   6.902   5.938   1.178 -1.6074 -0.0069 -0.4390
 5917TIP3    H239311   6.954   5.796   1.182 -2.9931 -0.6307 -2.6541
 5918TIP3   OH239312   2.941   2.677   2.314 -0.1533 -0.2723 -0.1201
 5918TIP3    H139313   2.942   2.719   2.400 -2.0743 -0.6889  0.1586
 5918TIP3    H239314   2.880   2.604   2.324 -0.9584  0.0741 -1.9930
 5919TIP3   OH239315   5.264   5.230   3.138 -0.5691  0.5490 -0.0778
 5919TIP3    H139316   5.308   5.300   3.187 -1.9540  2.2870 -1.2181
 5919TIP3    H239317   5.283   5.151   3.189  1.6212  1.5943  0.9038
 5920TIP3   OH239318   0.378   0.825   2.104  0.4064  0.2027  0.2274
 5920TIP3    H139319   0.430   0.840   2.024  1.4346  0.8651  0.9995
 5920TIP3    H239320   0.442   0.828   2.175 -0.6102  0.3764  1.1578
 5921TIP3   OH239321   5.755   1.746   0.382  0.8141  0.0397 -0.5842
 5921TIP3    H139322   5.836   1.745   0.432 -0.3035 -1.2549  1.3194
 5921TIP3    H239323   5.753   1.662   0.337  0.9406  0.4570 -1.4009
 5922TIP3   OH239324   6.419   1.674   3.064  0.0438 -0.0025 -0.0161
 5922TIP3    H139325   6.352   1.714   3.009  1.2505 -0.6255 -2.0322
 5922TIP3    H239326   6.496   1.667   3.008  1.7538  0.4256  2.1261
 5923TIP3   OH239327   5.907   1.534   0.245 -0.2155  0.0868  0.0128
 5923TIP3    H139328   5.926   1.574   0.161  0.5079  1.1291  0.6449
 5923TIP3    H239329   5.959   1.453   0.246  1.1532  0.9330  0.1284
 5924TIP3   OH239330   5.474   1.310   1.064  0.2292  0.4798  0.9193
 5924TIP3    H139331   5.485   1.229   1.014  2.4903  1.0925  0.3275
 5924TIP3    H239332   5.410   1.287   1.132  1.7006 -2.1888  1.5410
 5925TIP3   OH239333   2.078   3.363   7.999  0.0356 -0.2574  0.2172
 5925TIP3    H139334   2.079   3.312   8.080 -1.4674  0.0487  0.4639
 5925TIP3    H239335   1.990   3.400   7.995  0.9533  2.0774 -0.1235
 5926TIP3   OH239336   4.035   1.794   2.865  0.1266 -0.7488  0.1264
 5926TIP3    H139337   4.032   1.874   2.918  0.5656 -0.6002 -0.0685
 5926TIP3    H239338   4.098   1.738   2.909  1.0203 -0.3543 -0.5912
 5927TIP3   OH239339   3.229   1.720   7.283 -0.0809 -0.3672  0.1107
 5927TIP3    H139340   3.321   1.729   7.307  0.6308 -1.1878 -2.0608
 5927TIP3    H239341   3.231   1.691   7.192 -2.5193  0.5323 -0.2997
 5928TIP3   OH239342   0.666   2.924   1.646 -0.3995  0.7867  0.7861
 5928TIP3    H139343   0.754   2.950   1.619 -0.5510 -0.0030 -0.5644
 5928TIP3    H239344   0.619   3.006   1.659  1.1595  1.3109  3.8830
 5929TIP3   OH239345   2.275   2.733   3.301 -0.1608 -0.5917 -0.0141
 5929TIP3    H139346   2.304   2.758   3.213 -1.2713 -1.4705 -0.6554
 5929TIP3    H239347   2.216   2.803   3.328 -0.2969 -0.6243 -0.2264
 5930TIP3   OH239348   2.615   3.862   8.422  0.3010 -0.0166 -0.0786
 5930TIP3    H139349   2.688   3.800   8.419  0.6119  0.3566 -0.9721
 5930TIP3    H239350   2.601   3.880   8.515  1.5989  0.1719  0.1028
 5931TIP3   OH239351   5.391   0.437   7.817 -0.0619 -0.5420  0.1264
 5931TIP3    H139352   5.442   0.356   7.811  0.1978 -0.4757  1.2878
 5931TIP3    H239353   5.322   0.419   7.880 -0.1230  0.0763  0.2486
 5932TIP3   OH239354   4.968   6.121   0.282 -0.1428 -0.2739 -0.5363
 5932TIP3    H139355   4.900   6.067   0.322  0.4048 -1.9035 -1.7011
 5932TIP3    H239356   4.921   6.192   0.240 -0.9957 -0.5544 -0.0781
 5933TIP3   OH239357   2.396   6.884   2.665 -0.3915 -0.4413  0.0298
 5933TIP3    H139358   2.487   6.903   2.687 -1.1781  2.0201  1.5315
 5933TIP3    H239359   2.352   6.875   2.749 -1.9792  0.9325 -0.5990
 5934TIP3   OH239360   6.929   5.652   1.621  0.1745  0.2701 -0.3576
 5934TIP3    H139361   6.946   5.726   1.563  1.2111 -0.4662 -1.0231
 5934TIP3    H239362   7.015   5.627   1.653 -0.1932 -0.5134  0.0305
 5935TIP3   OH239363   5.406   2.837   1.415 -0.3075 -0.3647  0.7423
 5935TIP3    H139364   5.339   2.903   1.396  0.4401  0.3654  0.5514
 5935TIP3    H239365   5.365   2.777   1.477 -1.6702 -0.8518 -0.5701
 5936TIP3   OH239366   3.756   0.408   1.847  0.4279 -0.4134  0.5014
 5936TIP3    H139367   3.785   0.497   1.824 -0.9256  0.2162  1.1023
 5936TIP3    H239368   3.669   0.401   1.809 -0.0545 -0.9535  1.6727
 5937TIP3   OH239369   1.047   5.688   1.662  0.1711  0.7304  0.4868
 5937TIP3    H139370   1.138   5.677   1.690 -0.1520 -0.6585  1.0750
 5937TIP3    H239371   1.001   5.614   1.702 -0.9303  0.5360 -1.0710
 5938TIP3   OH239372   3.718   1.026   1.762  0.3378  0.3545  0.0428
 5938TIP3    H139373   3.764   1.024   1.678  0.0629 -0.3261 -0.0916
 5938TIP3    H239374   3.628   1.000   1.741 -0.3280  2.3375  0.1870
 5939TIP3   OH239375   0.588   3.834   1.283  0.3705 -0.6407 -0.1107
 5939TIP3    H139376   0.594   3.911   1.340 -1.0946 -0.6230  0.0491
 5939TIP3    H239377   0.495   3.815   1.278  0.4457 -0.6915 -2.4603
 5940TIP3   OH239378   0.433   5.014   2.111 -0.1367  0.4074  0.2562
 5940TIP3    H139379   0.424   5.102   2.147  0.5355  1.4277 -1.8868
 5940TIP3    H239380   0.344   4.978   2.113 -0.0884  0.1614  3.2471
 5941TIP3   OH239381   0.256   0.237   1.948  0.3321  0.3132  0.5790
 5941TIP3    H139382   0.189   0.216   2.013  0.2549 -2.2131 -0.2292
 5941TIP3    H239383   0.339   0.221   1.992  0.3585  1.1008  0.8287
 5942TIP3   OH239384   0.752   0.286   1.966 -0.0845  0.0971  0.6782
 5942TIP3    H139385   0.663   0.301   1.998 -0.9309  1.9793 -2.1222
 5942TIP3    H239386   0.805   0.355   2.008 -0.6881  1.0385 -0.0450
 5943TIP3   OH239387   2.580   6.685   7.065 -0.3767 -0.1756  0.5332
 5943TIP3    H139388   2.627   6.659   6.986 -0.6671  1.4929 -0.2360
 5943TIP3    H239389   2.540   6.769   7.042 -4.1819 -1.6754  0.9432
 5944TIP3   OH239390   6.048   4.948   1.470 -0.7470 -0.6707 -0.3304
 5944TIP3    H139391   6.078   4.971   1.558 -1.9600  0.4431 -0.1757
 5944TIP3    H239392   6.103   5.001   1.412 -2.1167  1.1364 -0.0641
 5945TIP3   OH239393   2.259   5.134   1.473  0.5490 -0.0109  0.1024
 5945TIP3    H139394   2.331   5.187   1.506  0.7034 -0.9351  1.2989
 5945TIP3    H239395   2.253   5.060   1.534 -1.7038  0.2744  0.3116
 5946TIP3   OH239396   0.794   3.331   8.199 -0.6261  0.3161  0.0762
 5946TIP3    H139397   0.887   3.331   8.223 -0.7398  0.8103  0.5323
 5946TIP3    H239398   0.794   3.351   8.105 -0.1537 -2.0772 -0.5058
 5947TIP3   OH239399   4.243   6.883   2.894  0.2056  0.0484 -0.0687
 5947TIP3    H139400   4.211   6.820   2.829  2.2476 -0.2308 -0.8980
 5947TIP3    H239401   4.164   6.919   2.934 -1.1467 -0.0096 -2.4866
 5948TIP3   OH239402   4.618   0.043   0.231 -0.3294  0.0356  0.1427
 5948TIP3    H139403   4.568  -0.026   0.189 -3.2235  1.1547  1.4731
 5948TIP3    H239404   4.552   0.098   0.274  1.9675  2.4666  0.8585
 5949TIP3   OH239405   2.726   0.106   1.335  0.4404 -0.4910 -0.2745
 5949TIP3    H139406   2.647   0.138   1.290 -0.1868 -1.1357  0.3474
 5949TIP3    H239407   2.693   0.065   1.414  1.4146 -0.7801 -0.0093
 5950TIP3   OH239408   2.421   0.489   1.498  0.0171  0.5186  0.3860
 5950TIP3    H139409   2.435   0.541   1.578 -2.1060 -1.5971  2.2821
 5950TIP3    H239410   2.325   0.488   1.487  0.1717 -0.7345 -1.1458
 5951TIP3   OH239411   5.214   6.368   0.288  0.3299  0.3663 -0.0914
 5951TIP3    H139412   5.262   6.294   0.251  1.8101  2.6986 -3.3616
 5951TIP3    H239413   5.278   6.414   0.342 -0.0043  0.3437  0.3296
 5952TIP3   OH239414   3.508   5.054   7.353 -0.0039  0.0106  0.7186
 5952TIP3    H139415   3.483   5.145   7.334  3.3983  0.9645  0.0973
 5952TIP3    H239416   3.589   5.041   7.305  1.2406 -2.3797  3.1783
 5953TIP3   OH239417   6.606   2.035   0.826  0.0340 -0.0752  0.0413
 5953TIP3    H139418   6.599   2.028   0.921 -0.2713 -0.4989 -0.0105
 5953TIP3    H239419   6.699   2.020   0.807  0.1490  0.3248  0.2984
 5954TIP3   OH239420   1.497   3.854   0.264  0.3677 -0.0511  0.1004
 5954TIP3    H139421   1.558   3.836   0.335  0.1291  1.1496  0.6292
 5954TIP3    H239422   1.415   3.876   0.308  0.6833  2.4658 -0.4435
 5955TIP3   OH239423   1.198   3.801   8.412 -0.0255 -0.3176 -0.3601
 5955TIP3    H139424   1.194   3.731   8.477  1.3821 -0.4809 -0.4314
 5955TIP3    H239425   1.153   3.875   8.453  0.8093 -0.4326  0.7899
 5956TIP3   OH239426   2.725   6.869   1.122 -0.5915 -0.2560 -0.0010
 5956TIP3    H139427   2.690   6.807   1.058  0.9152 -0.2520 -0.8899
 5956TIP3    H239428   2.691   6.954   1.093  2.7462  0.2928 -3.0260
 5957TIP3   OH239429   4.594   6.097   7.179  0.2769 -0.1828  0.0249
 5957TIP3    H139430   4.567   6.184   7.206  1.8686  0.4286 -0.2414
 5957TIP3    H239431   4.594   6.045   7.259 -0.7755  0.0236  0.1680
 5958TIP3   OH239432   1.087   5.846   2.587  0.0370 -0.4672  0.0263
 5958TIP3    H139433   0.997   5.823   2.566  0.1254 -0.6930 -0.1001
 5958TIP3    H239434   1.126   5.765   2.619  0.4889 -0.6274 -0.8947
 5959TIP3   OH239435   1.633   6.395   1.274  0.4546 -0.1031 -0.3877
 5959TIP3    H139436   1.615   6.302   1.293 -0.9029  0.5999  2.3810
 5959TIP3    H239437   1.656   6.432   1.360  0.0020  2.3101 -1.2363
 5960TIP3   OH239438   4.829   1.840   1.261  0.3189  0.2849 -0.4842
 5960TIP3    H139439   4.866   1.928   1.253 -0.2366  0.6756  0.9934
 5960TIP3    H239440   4.786   1.826   1.177 -0.7938  2.0214 -0.2662
 5961TIP3   OH239441   0.277   1.494   0.443 -0.0549  0.0239  0.2719
 5961TIP3    H139442   0.243   1.405   0.437 -1.8374  0.7099 -0.3605
 5961TIP3    H239443   0.357   1.493   0.391 -0.5663 -0.9766 -0.5314
 5962TIP3   OH239444   6.454   5.540   1.727 -0.1259 -0.0836 -0.1058
 5962TIP3    H139445   6.484   5.613   1.673  1.4416 -0.1876  0.5673
 5962TIP3    H239446   6.454   5.465   1.668 -1.1639  0.3218 -0.6479
 5963TIP3   OH239447   1.851   1.817   1.962  0.4595  0.1619  0.1448
 5963TIP3    H139448   1.922   1.754   1.949  0.9840  0.7663  0.0464
 5963TIP3    H239449   1.866   1.853   2.049 -0.2081 -0.2992  0.4624
 5964TIP3   OH239450   4.296   3.298   0.357  0.2552  0.2981  0.4326
 5964TIP3    H139451   4.370   3.249   0.321 -0.4358 -0.4645  0.0044
 5964TIP3    H239452   4.222   3.273   0.301 -0.2353  1.3967  0.5732
 5965TIP3   OH239453   5.130   6.397   0.920 -0.4188  0.2980  0.1567
 5965TIP3    H139454   5.075   6.474   0.935  0.4430  0.7893  0.8862
 5965TIP3    H239455   5.075   6.338   0.869  0.0302  2.8616 -3.7333
 5966TIP3   OH239456   5.516   0.725   7.819  0.3373  0.0459  0.5402
 5966TIP3    H139457   5.592   0.691   7.772  0.4943  1.0720  0.0069
 5966TIP3    H239458   5.456   0.651   7.825  0.6805 -0.3429 -0.5246
 5967TIP3   OH239459   4.778   5.352   3.034 -0.1968  0.1536 -0.1472
 5967TIP3    H139460   4.797   5.426   2.976  3.8958 -0.6119 -0.0789
 5967TIP3    H239461   4.776   5.276   2.976 -2.4527  0.0364  0.0202
 5968TIP3   OH239462   1.948   5.108   2.093 -0.1549 -0.0863  0.6417
 5968TIP3    H139463   1.999   5.172   2.142 -0.0657  1.8247 -1.7312
 5968TIP3    H239464   2.007   5.034   2.080  0.3892  0.1178  1.8429
 5969TIP3   OH239465   2.537   6.009   1.281 -0.8933 -0.2775  0.0831
 5969TIP3    H139466   2.550   5.968   1.367  2.5496 -0.9070 -0.6166
 5969TIP3    H239467   2.558   6.101   1.295 -0.4915 -0.3491 -0.0405
 5970TIP3   OH239468   0.030   0.351   7.929  0.2049 -0.4497  0.3368
 5970TIP3    H139469   0.028   0.284   7.861 -1.5900  1.2364 -1.4338
 5970TIP3    H239470   0.038   0.302   8.011  0.3510 -2.6985 -0.9297
 5971TIP3   OH239471   3.474   0.943   1.353  0.4781 -0.0793 -0.5410
 5971TIP3    H139472   3.507   0.984   1.433  1.3314  0.9083 -1.3741
 5971TIP3    H239473   3.550   0.899   1.315  0.2304 -0.0070 -1.1349
 5972TIP3   OH239474   4.145   2.783   2.398  0.4893  0.9488 -0.7368
 5972TIP3    H139475   4.071   2.801   2.457  0.5307 -1.0170 -0.0343
 5972TIP3    H239476   4.115   2.814   2.313 -1.6002 -0.7165 -0.6830
 5973TIP3   OH239477   0.661   0.190   1.736 -0.1116  0.3349 -0.0584
 5973TIP3    H139478   0.652   0.096   1.723 -0.1090  0.5145 -1.4863
 5973TIP3    H239479   0.639   0.204   1.828 -0.5790 -0.9940  0.0471
 5974TIP3   OH239480   0.568   3.231   1.667 -0.2786 -0.2744  0.3244
 5974TIP3    H139481   0.588   3.313   1.712  2.5333 -0.1317 -0.9652
 5974TIP3    H239482   0.625   3.231   1.590 -1.1346 -2.8534 -0.4238
 5975TIP3   OH239483   2.182   1.351   1.280 -0.7492  0.1405  0.3020
 5975TIP3    H139484   2.095   1.389   1.294 -0.1197  2.2415 -0.9597
 5975TIP3    H239485   2.182   1.324   1.188  0.1923  0.9542  0.0477
 5976TIP3   OH239486   4.084   0.480   1.316 -0.2754 -0.2829 -0.0445
 5976TIP3    H139487   4.127   0.538   1.379  0.5073 -0.3030 -0.5439
 5976TIP3    H239488   4.116   0.393   1.339 -2.3460 -0.7274  1.4553
 5977TIP3   OH239489   6.275   5.172   2.988 -0.6322 -0.3296 -0.1294
 5977TIP3    H139490   6.242   5.114   2.920 -1.3978  0.2532 -0.2661
 5977TIP3    H239491   6.370   5.174   2.973 -0.8463  0.3713 -1.6676
 5978TIP3   OH239492   5.597   3.282   8.376 -0.8286  0.2288 -0.0624
 5978TIP3    H139493   5.643   3.365   8.390 -0.2427 -0.4542  2.8055
 5978TIP3    H239494   5.506   3.308   8.359 -0.0370  1.4998 -2.9807
 5979TIP3   OH239495   1.869   0.797   1.648  0.5872  0.1421  0.2452
 5979TIP3    H139496   1.868   0.886   1.611  0.9098  0.5577  1.2013
 5979TIP3    H239497   1.955   0.763   1.625  1.7345  1.2690  2.5277
 5980TIP3   OH239498   3.959   3.553   2.728  0.4120 -0.4184 -0.2520
 5980TIP3    H139499   3.999   3.490   2.668 -0.5456 -0.3928 -0.9409
 5980TIP3    H239500   3.930   3.501   2.802  0.1275 -0.7046 -0.5625
 5981TIP3   OH239501   0.229   5.608   1.671  0.0938 -0.1648  0.0654
 5981TIP3    H139502   0.299   5.647   1.619  1.0543  1.9363  2.7181
 5981TIP3    H239503   0.261   5.520   1.694  0.3667 -0.4734 -1.4068
 5982TIP3   OH239504   4.195   4.701   1.259  0.0670  0.5581  0.7291
 5982TIP3    H139505   4.135   4.748   1.201 -0.8305 -0.1044  1.0947
 5982TIP3    H239506   4.281   4.710   1.217 -0.5117  0.3300 -0.5612
 5983TIP3   OH239507   4.183   3.806   2.354 -0.5046  0.0483  0.1615
 5983TIP3    H139508   4.136   3.808   2.438 -0.6640  1.0871  0.0670
 5983TIP3    H239509   4.140   3.737   2.304  0.8109 -1.9369  1.5986
 5984TIP3   OH239510   3.752   5.809   0.546 -0.1827  0.0607  0.3133
 5984TIP3    H139511   3.702   5.753   0.487  1.7625 -0.1157 -1.3012
 5984TIP3    H239512   3.825   5.753   0.576 -0.3251  0.5996  1.7527
 5985TIP3   OH239513   4.949   2.271   2.757 -0.0343  0.4043  0.2126
 5985TIP3    H139514   4.893   2.317   2.695  0.2130  0.5085  0.0652
 5985TIP3    H239515   4.988   2.200   2.706 -0.4257  0.0175  0.4431
 5986TIP3   OH239516   4.510   4.948   0.773 -0.2035  0.1467 -0.5867
 5986TIP3    H139517   4.580   5.010   0.796 -0.4639  0.2074  0.0579
 5986TIP3    H239518   4.432   5.003   0.762 -1.0991 -0.2632  2.6965
 5987TIP3   OH239519   3.652   3.337   0.103 -0.1375 -0.0468  0.2746
 5987TIP3    H139520   3.584   3.404   0.099 -0.9788 -0.8774  0.3383
 5987TIP3    H239521   3.647   3.292   0.018  0.5476  0.0863  0.1558
 5988TIP3   OH239522   3.933   3.748   7.985  0.3498  0.3128 -0.1086
 5988TIP3    H139523   3.922   3.714   8.073  1.5314  1.1583  0.3979
 5988TIP3    H239524   3.873   3.823   7.981 -1.0092 -0.7533 -0.6573
 5989TIP3   OH239525   4.538   4.721   0.101 -0.6661  0.0772  0.0309
 5989TIP3    H139526   4.449   4.712   0.067 -0.4338 -0.9052 -0.3350
 5989TIP3    H239527   4.579   4.637   0.085  0.0453  0.2030  1.0646
 5990TIP3   OH239528   3.994   0.138   0.256 -0.8493  0.1494 -0.5225
 5990TIP3    H139529   4.068   0.189   0.287 -2.0284  1.0469  0.9648
 5990TIP3    H239530   4.014   0.120   0.164  1.4705 -0.1874  0.0090
 5991TIP3   OH239531   1.951   3.799   2.891  0.1249 -0.4587 -0.0999
 5991TIP3    H139532   1.915   3.754   2.968  1.1142  1.4936  1.5991
 5991TIP3    H239533   1.927   3.743   2.817 -1.2192 -2.2176  1.5689
 5992TIP3   OH239534   6.271   3.370   0.635  0.0205  0.1016  0.5501
 5992TIP3    H139535   6.271   3.279   0.664 -0.9978 -0.4222 -0.9902
 5992TIP3    H239536   6.308   3.419   0.709  1.5807 -1.6630  1.0082
 5993TIP3   OH239537   0.714   0.953   0.218  0.5381  0.1605  0.1647
 5993TIP3    H139538   0.738   0.865   0.189  0.4057  0.3398 -0.5040
 5993TIP3    H239539   0.618   0.954   0.215  0.5567  0.5141 -0.4035
 5994TIP3   OH239540   1.330   6.840   1.501 -0.7698  0.3598  0.0876
 5994TIP3    H139541   1.273   6.915   1.516 -1.6349 -0.7039  2.7128
 5994TIP3    H239542   1.311   6.812   1.411 -3.9086  0.5089  0.6070
 5995TIP3   OH239543   3.658   5.931   7.633  0.2512  0.1009 -0.6723
 5995TIP3    H139544   3.650   5.950   7.540 -1.3084  0.3154 -0.5131
 5995TIP3    H239545   3.618   6.006   7.676 -0.2080 -0.5937  0.1368
 5996TIP3   OH239546   6.569   0.455   7.722 -0.8903  0.2943  0.4344
 5996TIP3    H139547   6.499   0.392   7.708  0.0419 -0.6741 -0.0136
 5996TIP3    H239548   6.609   0.430   7.806 -0.0432 -0.2015 -0.0985
 5997TIP3   OH239549   0.504   4.047   1.449  0.2978 -0.2863 -0.7224
 5997TIP3    H139550   0.483   4.082   1.363  2.7331 -0.0091 -1.2865
 5997TIP3    H239551   0.456   4.102   1.510  1.8563  2.3439 -1.7250
 5998TIP3   OH239552   6.249   5.642   6.867  0.1492  0.0299 -0.5061
 5998TIP3    H139553   6.253   5.689   6.950 -2.4462 -0.1073 -0.2193
 5998TIP3    H239554   6.306   5.566   6.879 -1.6581 -1.0655  1.9457
 5999TIP3   OH239555   4.612   3.851   7.739 -0.1074 -0.1867  0.1482
 5999TIP3    H139556   4.582   3.906   7.666  1.7356  0.5994 -0.0786
 5999TIP3    H239557   4.595   3.762   7.710  0.5959  0.1096 -1.2751
 6000TIP3   OH239558   2.324   3.420   2.696  0.7022  0.1066  0.4304
 6000TIP3    H139559   2.232   3.395   2.705 -0.1419  2.5324 -0.5785
 6000TIP3    H239560   2.339   3.483   2.766  0.5519  2.2006 -1.3027
 6001TIP3   OH239561   0.761   4.067   2.950  0.4810  0.1093  0.0161
 6001TIP3    H139562   0.809   4.146   2.973  2.0578 -0.5653 -0.7535
 6001TIP3    H239563   0.812   3.996   2.988 -0.0321 -0.6319 -0.6332
 6002TIP3   OH239564   5.183   1.315   3.277 -1.0751 -0.5910  0.0689
 6002TIP3    H139565   5.203   1.231   3.319 -0.9808 -1.5391 -1.7556
 6002TIP3    H239566   5.267   1.361   3.275 -1.2344 -0.1979  1.5631
 6003TIP3   OH239567   6.804   3.161   7.069  0.1186 -0.1323  0.0252
 6003TIP3    H139568   6.712   3.181   7.089 -0.7286 -1.9964 -1.7026
 6003TIP3    H239569   6.808   3.158   6.974  1.7498 -1.1236  0.0915
 6004TIP3   OH239570   2.218   6.558   2.606 -0.4453 -0.1491 -0.4034
 6004TIP3    H139571   2.194   6.607   2.685 -3.6708  0.1658 -1.4453
 6004TIP3    H239572   2.263   6.480   2.639 -1.4831  0.0920  1.7441
 6005TIP3   OH239573   2.845   5.948   0.411  0.2732 -0.0632 -0.1791
 6005TIP3    H139574   2.792   6.004   0.354 -0.6404 -0.5534  0.1703
 6005TIP3    H239575   2.855   5.999   0.492  0.4294  0.0689 -0.2796
 6006TIP3   OH239576   5.677   6.805   1.738  0.3980 -0.4378  0.1518
 6006TIP3    H139577   5.685   6.898   1.715  0.0846 -0.7512 -1.3456
 6006TIP3    H239578   5.602   6.802   1.797 -1.8149 -0.0881 -2.4279
 6007TIP3   OH239579   2.137   3.198   8.188  0.0032  0.0641  0.1481
 6007TIP3    H139580   2.074   3.184   8.258 -0.6067  1.1189 -0.1727
 6007TIP3    H239581   2.129   3.120   8.133 -0.5088 -0.1390  0.5046
 6008TIP3   OH239582   1.780   6.197   1.047 -0.0613  0.0052  0.5417
 6008TIP3    H139583   1.765   6.110   1.010  0.0881  0.3441 -0.3430
 6008TIP3    H239584   1.732   6.256   0.989  0.3258  0.5733  0.7914
 6009TIP3   OH239585   3.941   1.394   7.724  0.1205 -0.0941 -0.0163
 6009TIP3    H139586   4.011   1.458   7.741  0.5397 -0.4817 -0.2764
 6009TIP3    H239587   3.870   1.447   7.688  0.8411  0.0899 -1.2245
 6010TIP3   OH239588   1.277   1.976   0.774  0.1892  0.3056  0.3987
 6010TIP3    H139589   1.234   2.038   0.832  0.4643 -0.7401  1.7996
 6010TIP3    H239590   1.256   1.890   0.812  1.0616 -0.3647 -0.5873
 6011TIP3   OH239591   0.197   0.400   2.327  0.2727  0.4678  0.4615
 6011TIP3    H139592   0.185   0.482   2.376  0.5035  1.0688 -0.4602
 6011TIP3    H239593   0.253   0.424   2.253 -0.4527 -0.3136 -0.3637
 6012TIP3   OH239594   1.345   5.781   0.561  0.4213  0.0094  0.2557
 6012TIP3    H139595   1.416   5.768   0.623  0.7935  1.9024  0.2805
 6012TIP3    H239596   1.388   5.805   0.479 -0.1447 -0.6660 -0.2650
 6013TIP3   OH239597   1.209   0.931   2.005 -0.5097  0.3260 -0.3621
 6013TIP3    H139598   1.251   1.015   2.025 -0.3900  0.4389 -1.0380
 6013TIP3    H239599   1.195   0.934   1.910 -0.8719 -0.2529 -0.3304
 6014TIP3   OH239600   2.410   3.232   2.497  0.3754  0.2640  0.1895
 6014TIP3    H139601   2.384   3.304   2.554 -0.2712 -1.2639  1.9408
 6014TIP3    H239602   2.389   3.153   2.547  1.1546 -1.1565 -1.5953
 6015TIP3   OH239603   2.621   5.731   8.148 -0.3140 -0.3202 -0.4168
 6015TIP3    H139604   2.683   5.689   8.207 -2.5831 -1.5525  1.2734
 6015TIP3    H239605   2.645   5.700   8.061  1.4620 -0.6514  0.1541
 6016TIP3   OH239606   3.494   1.999   2.861 -0.1358  0.0358 -0.7592
 6016TIP3    H139607   3.503   2.087   2.896  0.4540 -0.0294 -0.7369
 6016TIP3    H239608   3.402   1.977   2.873 -0.0523  0.2116  0.2711
 6017TIP3   OH239609   4.177   2.638   0.897 -0.1198  0.1609  1.0952
 6017TIP3    H139610   4.233   2.699   0.945  1.7218 -1.1070  0.6662
 6017TIP3    H239611   4.220   2.629   0.812 -2.9636  1.8892 -0.6940
 6018TIP3   OH239612   6.739   0.940   0.536  0.3403  0.3330  0.2750
 6018TIP3    H139613   6.807   0.989   0.583  0.6137  1.2567 -1.0186
 6018TIP3    H239614   6.785   0.867   0.495  0.3797  0.3956  0.2067
 6019TIP3   OH239615   2.987   4.231   3.492 -0.0422  0.2232 -0.2946
 6019TIP3    H139616   3.057   4.257   3.552  0.3671 -1.6460  0.0782
 6019TIP3    H239617   3.032   4.211   3.410 -0.7477  4.6478 -2.0805
 6020TIP3   OH239618   2.026   6.014   2.221  0.2152  0.5412  0.2490
 6020TIP3    H139619   1.975   6.093   2.238  0.3271  0.4956  0.8118
 6020TIP3    H239620   2.080   6.037   2.145 -0.3140  0.7377 -0.0759
 6021TIP3   OH239621   5.841   5.021   2.096 -0.0163 -0.0446  0.2134
 6021TIP3    H139622   5.865   5.088   2.160  0.4321 -0.6588  0.7088
 6021TIP3    H239623   5.805   5.069   2.022 -0.0740  0.7113  0.7296
 6022TIP3   OH239624   4.412   0.572   2.496  0.1332 -0.2249 -0.0851
 6022TIP3    H139625   4.467   0.518   2.553 -0.3492 -1.2925 -0.5835
 6022TIP3    H239626   4.351   0.615   2.555  0.1047 -0.7561  0.2834
 6023TIP3   OH239627   6.333   6.377   1.875 -0.0922 -0.5405 -0.4755
 6023TIP3    H139628   6.373   6.290   1.874  0.1215 -0.4436 -0.6775
 6023TIP3    H239629   6.306   6.390   1.965  1.4316 -0.1245 -0.0408
 6024TIP3   OH239630   4.402   1.910   0.835 -0.4665  0.2366 -0.0223
 6024TIP3    H139631   4.407   1.910   0.739 -0.7763 -0.3520 -0.0446
 6024TIP3    H239632   4.340   1.840   0.856 -1.5546  1.3471  0.5593
 6025TIP3   OH239633   5.258   1.292   1.274  0.6012  0.1344 -0.1536
 6025TIP3    H139634   5.302   1.293   1.360 -1.3125  0.1407  0.8695
 6025TIP3    H239635   5.212   1.208   1.273  0.4575  0.2211 -1.1256
 6026TIP3   OH239636   2.343   5.932   1.628  0.3440  0.1052  0.3706
 6026TIP3    H139637   2.285   5.961   1.699 -0.9730 -0.6301 -0.3696
 6026TIP3    H239638   2.308   5.847   1.601  1.7797 -0.3612 -0.1164
 6027TIP3   OH239639   0.400   1.145   2.063  0.7741  0.1608 -0.6940
 6027TIP3    H139640   0.330   1.080   2.068  0.4299  0.3484 -2.4534
 6027TIP3    H239641   0.471   1.107   2.115 -0.4442 -0.2354  0.7450
 6028TIP3   OH239642   1.795   4.907   1.340 -0.0753  0.6169 -0.2704
 6028TIP3    H139643   1.855   4.976   1.311 -0.6962  0.9617 -0.7412
 6028TIP3    H239644   1.810   4.835   1.278  2.1897 -0.5972  1.4932
 6029TIP3   OH239645   3.119   3.005   7.615  0.0913  0.1605  0.1571
 6029TIP3    H139646   3.106   3.070   7.684  0.4967  1.3274 -0.8360
 6029TIP3    H239647   3.031   2.987   7.582  0.0608  0.9361 -0.2006
 6030TIP3   OH239648   0.061   1.721   0.271 -0.6052 -0.2340  0.4317
 6030TIP3    H139649   0.154   1.700   0.276  0.1261  0.7690 -4.2321
 6030TIP3    H239650   0.020   1.640   0.241 -0.4263  0.3756 -1.6290
 6031TIP3   OH239651   1.769   4.833   2.746 -0.3315  0.6328 -0.1036
 6031TIP3    H139652   1.714   4.909   2.728  0.2481  1.2447  0.6285
 6031TIP3    H239653   1.814   4.816   2.663  0.1060  1.5748 -0.0738
 6032TIP3   OH239654   0.303   4.537   8.217 -0.1713  0.3777 -0.0000
 6032TIP3    H139655   0.325   4.462   8.273 -1.8105 -0.1730 -0.0437
 6032TIP3    H239656   0.361   4.607   8.247 -1.4770  0.3552  2.9654
 6033TIP3   OH239657   5.841   0.246   0.280 -0.3706 -0.6122 -0.5511
 6033TIP3    H139658   5.826   0.162   0.322  0.9858 -1.0380 -0.8508
 6033TIP3    H239659   5.769   0.256   0.217 -1.8601 -0.4222  1.1170
 6034TIP3   OH239660   2.979   0.272   8.376 -0.2926 -0.0977  0.0730
 6034TIP3    H139661   2.885   0.270   8.397 -0.4165 -0.6609 -0.4962
 6034TIP3    H239662   2.993   0.359   8.338 -0.2095  0.6582  1.7539
 6035TIP3   OH239663   2.007   4.317   0.507  0.4426 -0.1716 -0.0253
 6035TIP3    H139664   2.007   4.224   0.486 -1.6847  0.0378 -1.1860
 6035TIP3    H239665   2.089   4.350   0.471  0.8911 -1.4578 -0.2232
 6036TIP3   OH239666   2.884   4.809   7.957  0.2168  0.0532 -0.4553
 6036TIP3    H139667   2.897   4.903   7.944 -0.0323  0.0873 -0.4714
 6036TIP3    H239668   2.894   4.771   7.870  0.3603  0.0599 -0.4417
 6037TIP3   OH239669   2.438   3.846   2.627  0.2539 -0.0957 -0.0366
 6037TIP3    H139670   2.529   3.823   2.645 -0.0171  0.7965  3.1498
 6037TIP3    H239671   2.443   3.912   2.557  2.1213  0.4332  0.5446
 6038TIP3   OH239672   1.850   0.636   8.021 -0.3937  0.0620  0.3216
 6038TIP3    H139673   1.944   0.652   8.031 -0.3600  1.4891 -1.5635
 6038TIP3    H239674   1.845   0.565   7.957 -0.5568  1.2468 -1.0274
 6039TIP3   OH239675   3.006   4.129   2.639  0.2465 -0.1177 -0.0347
 6039TIP3    H139676   3.066   4.057   2.654  1.8026  0.7599 -1.7161
 6039TIP3    H239677   2.947   4.097   2.570 -0.0621 -0.3254  0.3224
 6040TIP3   OH239678   2.106   2.444   1.589 -0.0815 -0.4438  0.7605
 6040TIP3    H139679   2.068   2.412   1.508  1.1853  0.4617 -0.2297
 6040TIP3    H239680   2.036   2.433   1.654 -2.0685  1.1360 -0.9517
 6041TIP3   OH239681   1.622   0.651   1.579  0.0789  0.5524  0.1710
 6041TIP3    H139682   1.712   0.683   1.586 -0.5688  2.4481  0.5365
 6041TIP3    H239683   1.571   0.729   1.555 -1.6738 -0.1390  1.4398
 6042TIP3   OH239684   2.635   0.018   7.147 -0.4275  0.2510 -0.3722
 6042TIP3    H139685   2.685   0.051   7.073 -0.6355  1.4951  0.0215
 6042TIP3    H239686   2.694  -0.044   7.189  0.4089  0.9240 -0.5094
 6043TIP3   OH239687   6.459   3.043   7.450 -0.1898 -0.3937 -0.0963
 6043TIP3    H139688   6.379   3.003   7.416 -0.7429  0.4791  0.1319
 6043TIP3    H239689   6.428   3.118   7.501  0.8630  0.9344 -1.3450
 6044TIP3   OH239690   4.759   3.438   1.509  0.1633  0.5225  0.5822
 6044TIP3    H139691   4.678   3.394   1.482  0.8356 -0.3285 -0.1105
 6044TIP3    H239692   4.814   3.438   1.431  0.1693  2.7005  0.5466
 6045TIP3   OH239693   5.932   5.690   2.833  0.3203  0.6159  0.5660
 6045TIP3    H139694   6.004   5.731   2.881  1.5055  0.0595 -0.6977
 6045TIP3    H239695   5.943   5.596   2.848  1.5123  0.3197 -1.8112
 6046TIP3   OH239696   6.777   2.530   2.468  0.0506  0.4191 -0.1219
 6046TIP3    H139697   6.695   2.500   2.429 -0.0354  1.0832 -0.4472
 6046TIP3    H239698   6.759   2.619   2.498  0.9593  0.9764 -1.1583
 6047TIP3   OH239699   4.635   6.636   7.873  0.0049 -0.0466  0.1501
 6047TIP3    H139700   4.551   6.599   7.844 -0.0709  0.6352 -0.5385
 6047TIP3    H239701   4.667   6.685   7.797  1.5794 -1.2302  0.0015
 6048TIP3   OH239702   3.553   5.444   0.218  0.0227  0.4662 -0.7987
 6048TIP3    H139703   3.470   5.398   0.231  0.3453  0.3337  1.0586
 6048TIP3    H239704   3.571   5.435   0.124 -1.9884  0.4062 -1.2245
 6049TIP3   OH239705   6.687   2.566   1.425 -0.1345  0.3489 -0.0144
 6049TIP3    H139706   6.600   2.568   1.465  0.3794 -0.8783  1.2327
 6049TIP3    H239707   6.747   2.548   1.498  0.9651 -0.7418 -1.1344
 6050TIP3   OH239708   2.547   4.674   2.668 -0.2065 -0.1224  0.7985
 6050TIP3    H139709   2.521   4.678   2.760  1.7908 -0.5377  1.4414
 6050TIP3    H239710   2.551   4.766   2.641 -3.9479 -0.0157  0.0531
 6051TIP3   OH239711   3.203   2.169   2.170 -0.2838 -0.1669 -0.2905
 6051TIP3    H139712   3.269   2.100   2.173 -0.7422 -0.7364 -2.0310
 6051TIP3    H239713   3.170   2.175   2.260 -0.0909 -2.0820 -0.0461
 6052TIP3   OH239714   0.541   4.175   2.848  0.0535  0.0403  0.7447
 6052TIP3    H139715   0.575   4.263   2.833  0.5441 -0.2936 -0.1368
 6052TIP3    H239716   0.615   4.126   2.884 -0.3821  0.1267  1.8043
 6053TIP3   OH239717   5.150   5.257   1.556 -0.2743  0.0648 -0.2204
 6053TIP3    H139718   5.076   5.197   1.569 -0.6165  0.0587 -1.8843
 6053TIP3    H239719   5.207   5.212   1.494 -0.2241  1.1798 -1.0147
 6054TIP3   OH239720   4.868   4.599   1.544  0.1045  0.8683 -0.0404
 6054TIP3    H139721   4.835   4.538   1.477  0.5788  0.8748 -0.2844
 6054TIP3    H239722   4.958   4.618   1.517  0.2034  1.1017  0.4418
 6055TIP3   OH239723   3.689   6.844   6.997  0.7309  0.1078 -0.0592
 6055TIP3    H139724   3.644   6.907   7.052 -0.5323  0.0062 -0.9296
 6055TIP3    H239725   3.652   6.858   6.909  1.1228 -1.1773 -0.4522
 6056TIP3   OH239726   1.684   2.310   0.615  0.3850  0.3308  0.0990
 6056TIP3    H139727   1.610   2.276   0.564  0.3797 -0.3913  0.5804
 6056TIP3    H239728   1.690   2.251   0.690  2.0518 -0.2098 -0.4213
 6057TIP3   OH239729   6.813   1.853   7.167  0.1847  0.1584  0.1340
 6057TIP3    H139730   6.789   1.946   7.174  0.9590  0.2811  1.5859
 6057TIP3    H239731   6.902   1.854   7.131  0.4257  0.0254  0.7108
 6058TIP3   OH239732   1.237   0.105   1.348  0.1258 -0.2380  0.2705
 6058TIP3    H139733   1.228   0.196   1.374 -0.4526 -0.3064  0.3106
 6058TIP3    H239734   1.309   0.105   1.285  0.5243  0.1546  0.7152
 6059TIP3   OH239735   4.129   0.038   7.370  0.3892  0.5695 -0.0292
 6059TIP3    H139736   4.132  -0.050   7.332  1.1693  0.4327  0.3346
 6059TIP3    H239737   4.155   0.026   7.461  2.9524  1.4682 -0.5441
 6060TIP3   OH239738   4.639   6.865   6.780 -0.6323  0.2841  0.5501
 6060TIP3    H139739   4.704   6.919   6.734  0.9003 -1.8633  0.0672
 6060TIP3    H239740   4.569   6.851   6.715  0.3213 -0.6335 -0.3078
 6061TIP3   OH239741   0.574   2.815   8.037  0.7456 -0.1884 -0.1616
 6061TIP3    H139742   0.641   2.777   8.093  0.4586  0.3237  0.5422
 6061TIP3    H239743   0.507   2.748   8.031  0.8689 -0.3228 -0.0575
 6062TIP3   OH239744   5.769   2.956   3.212 -0.5610  0.5984  0.1584
 6062TIP3    H139745   5.694   2.909   3.175  0.6418  0.7444 -2.8054
 6062TIP3    H239746   5.826   2.887   3.247 -0.9759  0.2791  0.2032
 6063TIP3   OH239747   0.521   3.153   7.661  0.3309  0.1781  0.1837
 6063TIP3    H139748   0.466   3.164   7.739  0.1667  3.1445 -0.2207
 6063TIP3    H239749   0.608   3.133   7.695  0.0148  0.3258  1.0950
 6064TIP3   OH239750   4.413   1.487   8.068 -0.3891 -0.1864  0.1803
 6064TIP3    H139751   4.489   1.430   8.061  0.1617  0.3829  1.3140
 6064TIP3    H239752   4.449   1.576   8.063 -0.9509  0.0897  0.9078
 6065TIP3   OH239753   5.199   1.222   2.515 -0.5830  0.1996  0.3589
 6065TIP3    H139754   5.178   1.155   2.450  1.7875  1.4417 -1.8817
 6065TIP3    H239755   5.293   1.214   2.529 -0.8433  0.6865  2.9409
 6066TIP3   OH239756   2.495   5.220   0.562 -0.3074  0.1159  0.1059
 6066TIP3    H139757   2.561   5.154   0.583 -0.6728 -0.2454  0.1521
 6066TIP3    H239758   2.427   5.171   0.514 -0.2512  0.6015 -0.4814
 6067TIP3   OH239759   3.953   6.570   7.969  0.3725 -0.3299  0.9438
 6067TIP3    H139760   4.039   6.558   8.010  0.5888  0.6020  0.7872
 6067TIP3    H239761   3.952   6.508   7.897 -0.2107 -2.3769  2.6100
 6068TIP3   OH239762   1.725   3.234   3.112 -0.0497 -0.0566  0.1111
 6068TIP3    H139763   1.662   3.299   3.082  1.6068  1.2236 -0.7703
 6068TIP3    H239764   1.680   3.189   3.184 -0.7357  3.1918  1.9456
 6069TIP3   OH239765   5.569   1.790   0.781 -0.3050  0.1728  0.0380
 6069TIP3    H139766   5.516   1.712   0.795  1.3893 -1.1241 -0.3589
 6069TIP3    H239767   5.564   1.806   0.686 -1.4979  1.2046  0.2631
 6070TIP3   OH239768   3.780   4.361   0.709  0.4953 -0.0284  0.6288
 6070TIP3    H139769   3.837   4.410   0.650 -0.8305 -1.4349 -2.0071
 6070TIP3    H239770   3.838   4.297   0.750  1.0514 -0.8608 -1.3320
 6071TIP3   OH239771   4.582   4.905   8.149 -0.2186  0.3326  0.0735
 6071TIP3    H139772   4.627   4.989   8.152 -0.1713  0.4326 -2.2021
 6071TIP3    H239773   4.512   4.913   8.214 -0.9919  2.5947 -0.9548
 6072TIP3   OH239774   0.348   3.438   0.069 -0.0645  0.3146  0.5860
 6072TIP3    H139775   0.415   3.409   0.008 -1.6669  1.1268 -1.6735
 6072TIP3    H239776   0.340   3.532   0.054 -3.3461 -0.0966 -1.0504
 6073TIP3   OH239777   2.185   2.997   7.977 -0.0710 -0.0972 -0.2700
 6073TIP3    H139778   2.166   2.945   8.055  0.5154 -1.6585 -1.1378
 6073TIP3    H239779   2.280   2.996   7.970  0.4287  4.4381  1.8677
 6074TIP3   OH239780   3.469   4.801   7.818  0.3315 -0.0783 -0.5893
 6074TIP3    H139781   3.411   4.774   7.889  1.0968 -0.5289 -0.1265
 6074TIP3    H239782   3.529   4.864   7.858  0.5006 -0.0173 -0.9377
 6075TIP3   OH239783   5.565   4.819   7.063  0.0855  0.4372 -0.0305
 6075TIP3    H139784   5.484   4.815   7.013 -0.4609 -1.0250  0.9191
 6075TIP3    H239785   5.611   4.738   7.042  1.4901  1.3785 -0.7956
 6076TIP3   OH239786   5.757   1.758   2.512  0.0830 -0.1898 -0.3323
 6076TIP3    H139787   5.786   1.670   2.537 -1.8775 -0.9388 -0.5416
 6076TIP3    H239788   5.824   1.789   2.452 -0.2688 -2.4760 -2.0494
 6077TIP3   OH239789   6.520   0.189   0.208  0.2703 -0.0494  0.0937
 6077TIP3    H139790   6.608   0.161   0.234 -0.3275  0.3693  2.9227
 6077TIP3    H239791   6.525   0.285   0.206 -0.1590 -0.0126  0.5439
 6078TIP3   OH239792   0.990   3.801   0.660 -0.7689  0.3789  0.0552
 6078TIP3    H139793   0.961   3.724   0.709  2.5384 -0.2960  1.2105
 6078TIP3    H239794   0.916   3.821   0.602 -1.9583 -3.3950 -0.0371
 6079TIP3   OH239795   6.015   3.966   1.229 -0.0969  0.0865  0.5590
 6079TIP3    H139796   6.047   3.894   1.174 -1.3102 -0.5853  0.6989
 6079TIP3    H239797   6.037   3.941   1.318  0.8564  0.6359  0.4869
 6080TIP3   OH239798   4.721   0.707   0.879  0.0076 -0.1745 -0.4987
 6080TIP3    H139799   4.669   0.728   0.801  1.7536  2.5855 -1.0735
 6080TIP3    H239800   4.771   0.787   0.897 -0.0613 -0.8002  3.3077
 6081TIP3   OH239801   0.319   5.205   0.993 -0.4911 -0.0939  0.4768
 6081TIP3    H139802   0.386   5.272   0.983  0.1950 -0.2559  3.1647
 6081TIP3    H239803   0.280   5.195   0.906 -0.5417  3.6537 -0.0575
 6082TIP3   OH239804   3.114   6.457   8.383  0.3412  0.2075 -0.0713
 6082TIP3    H139805   3.063   6.478   8.304  2.1367  0.1229 -1.3041
 6082TIP3    H239806   3.165   6.380   8.359  1.0376  0.2721  1.1291
 6083TIP3   OH239807   3.507   2.263   3.044 -0.0912  0.3037 -0.1401
 6083TIP3    H139808   3.412   2.275   3.048 -0.2233 -0.5700 -0.4010
 6083TIP3    H239809   3.539   2.298   3.127 -0.3379  2.9601 -1.0418
 6084TIP3   OH239810   3.860   1.353   8.411 -0.6622 -0.5121  0.1667
 6084TIP3    H139811   3.897   1.353   8.323 -0.4374 -0.5478  0.2604
 6084TIP3    H239812   3.797   1.280   8.411 -1.7509  0.3911 -0.4125
 6085TIP3   OH239813   3.388   0.373   1.274 -0.2339  0.1526  0.1172
 6085TIP3    H139814   3.422   0.304   1.216  1.9016 -0.3077  1.8029
 6085TIP3    H239815   3.460   0.392   1.333 -1.2935  2.8136  0.6799
 6086TIP3   OH239816   3.216   1.034   1.026  0.2414  0.4972 -0.6995
 6086TIP3    H139817   3.286   0.989   0.978  0.0588  0.3582 -0.8378
 6086TIP3    H239818   3.258   1.111   1.064  0.3769  0.6364 -1.1312
 6087TIP3   OH239819   0.317   3.124   3.052 -0.1450  0.3650 -0.2944
 6087TIP3    H139820   0.301   3.030   3.061 -2.6364  0.8039  0.9857
 6087TIP3    H239821   0.407   3.136   3.082 -0.0164 -1.5358  0.2222
 6088TIP3   OH239822   3.336   5.640   1.459  0.1575 -0.5023  0.3046
 6088TIP3    H139823   3.401   5.694   1.413 -0.3631  0.3270  0.5075
 6088TIP3    H239824   3.253   5.685   1.444 -0.2042 -0.9129  1.0053
 6089TIP3   OH239825   3.847   0.536   2.144 -0.2596  0.4375 -0.3209
 6089TIP3    H139826   3.752   0.524   2.132 -0.4811  0.8557  0.8939
 6089TIP3    H239827   3.855   0.585   2.226  1.0558 -0.7817  0.3276
 6090TIP3   OH239828   1.433   3.113   2.102  0.3775  0.0128  0.4586
 6090TIP3    H139829   1.482   3.174   2.047  1.1272 -0.7071  0.3087
 6090TIP3    H239830   1.485   3.107   2.183 -0.2494  0.3822  0.8940
 6091TIP3   OH239831   2.518   6.297   8.160 -0.0045 -0.4753  0.3590
 6091TIP3    H139832   2.429   6.332   8.169 -0.1425 -0.9196  0.7584
 6091TIP3    H239833   2.573   6.375   8.150 -0.3600 -0.1607  0.7889
 6092TIP3   OH239834   0.832   1.921   7.979  0.4158  0.1174  0.5423
 6092TIP3    H139835   0.904   1.858   7.990  0.8360 -0.0220 -2.2568
 6092TIP3    H239836   0.831   1.970   8.061  2.2984 -1.2951  1.5062
 6093TIP3   OH239837   3.620   4.872   1.640 -0.0241  0.3913 -0.2848
 6093TIP3    H139838   3.571   4.828   1.570  0.5553  1.2538 -1.2619
 6093TIP3    H239839   3.711   4.865   1.612  0.3206 -0.1455  0.9168
 6094TIP3   OH239840   2.567   1.318   0.627 -0.1466  0.0372 -0.1439
 6094TIP3    H139841   2.656   1.351   0.616  0.3207 -0.8695  0.7922
 6094TIP3    H239842   2.522   1.344   0.547  1.2260 -0.3471 -1.0711
 6095TIP3   OH239843   6.713   6.727   1.258 -0.0771  0.0619 -0.3162
 6095TIP3    H139844   6.630   6.679   1.254 -1.3678  2.0976  0.4411
 6095TIP3    H239845   6.713   6.782   1.180 -0.4356  1.5133  0.6593
 6096TIP3   OH239846   4.433   4.234   0.357  0.0620 -0.2726 -0.1892
 6096TIP3    H139847   4.477   4.171   0.414  0.2977 -1.5518 -1.7303
 6096TIP3    H239848   4.340   4.220   0.374  0.1421  0.1969  0.7263
 6097TIP3   OH239849   2.982   3.567   1.645 -0.3656  0.0784  0.1182
 6097TIP3    H139850   2.892   3.573   1.676 -1.4860 -1.1716 -2.5072
 6097TIP3    H239851   2.990   3.636   1.580  0.6459  0.2834  0.4418
 6098TIP3   OH239852   3.681   0.285   7.779 -0.3250 -0.1847 -0.0522
 6098TIP3    H139853   3.731   0.206   7.801  0.0573 -0.1116 -0.6288
 6098TIP3    H239854   3.589   0.257   7.785 -0.2177 -0.4311  0.6087
 6099TIP3   OH239855   3.428   5.271   6.832 -0.1031  0.1574  0.3564
 6099TIP3    H139856   3.340   5.296   6.858  0.0346 -0.2885  1.2828
 6099TIP3    H239857   3.468   5.236   6.912  0.2860 -1.3607 -0.4515
 6100TIP3   OH239858   2.627   1.209   2.890  0.1170  0.6402  0.7984
 6100TIP3    H139859   2.717   1.232   2.913  0.6489 -0.4279 -0.0967
 6100TIP3    H239860   2.602   1.274   2.824  1.2219 -0.6054 -0.9307
 6101TIP3   OH239861   0.605   1.298   8.273  0.2985 -0.0945 -0.1523
 6101TIP3    H139862   0.640   1.366   8.216 -2.5234  0.2296 -1.6747
 6101TIP3    H239863   0.582   1.227   8.214  2.5693 -2.2410  1.3369
 6102TIP3   OH239864   0.359   0.067   2.840 -0.0817 -0.3155  0.8723
 6102TIP3    H139865   0.422   0.133   2.811  0.8658 -1.8806 -0.8081
 6102TIP3    H239866   0.326   0.027   2.759 -2.2845 -0.4427  1.7588
 6103TIP3   OH239867   4.493   6.908   7.040  0.3169  0.0608 -0.0164
 6103TIP3    H139868   4.541   6.873   6.965  1.5085 -0.9011  1.1591
 6103TIP3    H239869   4.522   6.999   7.047  1.8185 -0.4316  0.5243
 6104TIP3   OH239870   1.892   3.645   2.674  0.0378  0.6238 -0.1342
 6104TIP3    H139871   1.889   3.555   2.707 -1.1373  0.7652  0.1690
 6104TIP3    H239872   1.960   3.643   2.606  0.1763 -0.4335  0.0164
 6105TIP3   OH239873   2.899   5.848   7.973  0.0958  0.4468  0.1786
 6105TIP3    H139874   2.824   5.791   7.958  0.1932  0.6572 -1.2743
 6105TIP3    H239875   2.975   5.792   7.959  0.1981  0.5544  0.3019
 6106TIP3   OH239876   4.108   5.174   7.762  0.0146  0.7546  0.6617
 6106TIP3    H139877   4.191   5.136   7.788 -0.3925 -1.7530 -1.3640
 6106TIP3    H239878   4.092   5.243   7.827  1.7282 -1.2846  3.4812
 6107TIP3   OH239879   4.140   3.174   7.683  0.0904 -0.4087  0.6830
 6107TIP3    H139880   4.235   3.166   7.672  0.1806  0.4309  0.8537
 6107TIP3    H239881   4.107   3.192   7.595  0.1138 -0.4015  0.6756
 6108TIP3   OH239882   0.770   4.165   0.581  0.8112  0.2281  0.4719
 6108TIP3    H139883   0.765   4.073   0.555 -1.1280  0.4006  0.1076
 6108TIP3    H239884   0.682   4.187   0.610  0.7301  2.4773 -1.2014
 6109TIP3   OH239885   0.013   3.236   1.162 -0.1899  0.0744  0.3068
 6109TIP3    H139886   0.007   3.288   1.242  1.2222 -0.4390  0.7734
 6109TIP3    H239887   0.072   3.164   1.184 -1.1658 -1.0697 -0.6802
 6110TIP3   OH239888   6.443   2.554   1.577  0.4271  0.8421 -0.4846
 6110TIP3    H139889   6.489   2.505   1.645  0.9273 -0.0712 -1.4526
 6110TIP3    H239890   6.355   2.517   1.575  0.8419 -0.1234 -1.3001
 6111TIP3   OH239891   6.177   0.439   0.018 -0.0954  0.2338 -0.2231
 6111TIP3    H139892   6.124   0.378  -0.033 -1.5887  0.8673  0.5186
 6111TIP3    H239893   6.233   0.482  -0.047 -1.3725  0.4378 -1.2294
 6112TIP3   OH239894   2.520   6.317   0.647 -0.7521  0.1193 -0.1086
 6112TIP3    H139895   2.607   6.317   0.686 -0.6832 -2.3820 -0.1134
 6112TIP3    H239896   2.479   6.397   0.681  1.1335  0.7761  0.7757
 6113TIP3   OH239897   1.382   4.811   8.009 -0.0976 -0.3491 -0.1099
 6113TIP3    H139898   1.297   4.813   8.053 -0.2331 -0.5155 -0.3586
 6113TIP3    H239899   1.361   4.790   7.918  0.1819 -0.0554 -0.2447
 6114TIP3   OH239900   0.778   5.785   7.562 -0.3894 -0.3674 -0.2130
 6114TIP3    H139901   0.822   5.793   7.647 -0.8470  0.8937 -0.0801
 6114TIP3    H239902   0.780   5.691   7.543 -1.8455 -0.9353  2.0570
 6115TIP3   OH239903   6.881   6.156   1.685  0.1958 -0.1307  0.7566
 6115TIP3    H139904   6.811   6.173   1.749  0.5954 -1.1789  1.4993
 6115TIP3    H239905   6.950   6.217   1.708 -0.9556  1.9019 -0.8503
 6116TIP3   OH239906   6.213   2.471   0.489 -0.7051  0.1202 -0.1736
 6116TIP3    H139907   6.164   2.394   0.518  0.0041 -0.1946  0.2194
 6116TIP3    H239908   6.305   2.446   0.502 -0.3591  0.1098 -2.2830
 6117TIP3   OH239909   4.821   0.076   1.523 -0.2596  0.4983 -0.1810
 6117TIP3    H139910   4.866   0.120   1.452 -0.4681 -0.0796 -0.6788
 6117TIP3    H239911   4.890   0.035   1.575 -0.1315  0.6360 -0.2447
 6118TIP3   OH239912   1.098   3.293   1.001 -0.5393 -0.8005  0.7387
 6118TIP3    H139913   1.056   3.230   0.943  0.3966 -2.2901  1.5868
 6118TIP3    H239914   1.157   3.342   0.945 -1.6224 -0.3511 -0.0247
 6119TIP3   OH239915   0.849   4.246   7.350 -0.1404 -0.0602 -0.0405
 6119TIP3    H139916   0.820   4.331   7.318 -0.3199  0.4442  1.3674
 6119TIP3    H239917   0.899   4.267   7.429  0.3811 -1.2209 -0.0497
 6120TIP3   OH239918   2.077   2.491   0.327 -0.1157  0.3641 -0.0826
 6120TIP3    H139919   2.166   2.480   0.295 -0.6078 -0.4270 -1.2531
 6120TIP3    H239920   2.084   2.481   0.422  0.8558 -0.9953 -0.2718
 6121TIP3   OH239921   0.043   0.057   2.673  0.2941  0.2997  0.7010
 6121TIP3    H139922   0.097   0.122   2.629 -0.6792  0.4247 -0.3771
 6121TIP3    H239923   0.013   0.100   2.753  0.7079  0.6967  0.6447
 6122TIP3   OH239924   6.827   5.163   1.717  0.9244 -0.5585  0.0818
 6122TIP3    H139925   6.757   5.098   1.715  1.6805 -1.3794  0.0992
 6122TIP3    H239926   6.877   5.143   1.796  1.1702  0.0361  0.0826
 6123TIP3   OH239927   0.155   2.681   0.041  0.2781  0.5396  0.0014
 6123TIP3    H139928   0.126   2.680   0.132  0.8247  3.1895  0.3012
 6123TIP3    H239929   0.249   2.663   0.046  0.6622  2.4062  0.2110
 6124TIP3   OH239930   5.569   5.601   7.522  0.6312  0.4202 -0.3374
 6124TIP3    H139931   5.586   5.619   7.429 -0.0420  0.5285 -0.4472
 6124TIP3    H239932   5.653   5.614   7.565  0.8199  0.9465 -0.8518
 6125TIP3   OH239933   3.465   5.517   0.780  0.3829  0.2100 -0.3482
 6125TIP3    H139934   3.477   5.448   0.715  1.0006 -0.9675  0.9754
 6125TIP3    H239935   3.515   5.488   0.856  2.4873  3.1449 -0.4427
 6126TIP3   OH239936   6.764   4.330   7.235  0.3818  0.4055 -0.8407
 6126TIP3    H139937   6.733   4.249   7.275 -1.3272  0.3620 -2.1049
 6126TIP3    H239938   6.843   4.353   7.284  0.3200 -1.4500  0.2219
 6127TIP3   OH239939   3.673   2.358   2.057 -0.0304  0.1467  0.1708
 6127TIP3    H139940   3.661   2.412   1.979 -0.5718  0.6773  0.6073
 6127TIP3    H239941   3.594   2.373   2.109  1.1786  1.3619  1.7557
 6128TIP3   OH239942   3.015   1.013   7.130  0.6519  0.0298 -0.2008
 6128TIP3    H139943   3.078   0.957   7.176 -1.3437 -0.9865  1.4472
 6128TIP3    H239944   2.995   1.083   7.191 -0.7542 -0.3784 -0.1647
 6129TIP3   OH239945   5.065   2.731   8.146 -0.1449 -0.2298 -0.1525
 6129TIP3    H139946   5.143   2.674   8.147 -0.6746 -0.9751 -0.6602
 6129TIP3    H239947   5.089   2.804   8.204  0.4828 -1.0527  0.6691
 6130TIP3   OH239948   4.409   0.503   7.713  0.2257  0.0523  0.7907
 6130TIP3    H139949   4.331   0.556   7.728  0.1899 -0.6613  3.9220
 6130TIP3    H239950   4.483   0.563   7.726  0.3172  0.7251 -2.1615
 6131TIP3   OH239951   5.062   0.560   0.781 -0.3192 -0.2755  0.2159
 6131TIP3    H139952   4.983   0.507   0.794  0.0688 -1.1509 -0.7941
 6131TIP3    H239953   5.134   0.500   0.802  0.1261 -0.0816 -0.7076
 6132TIP3   OH239954   0.257   6.872   1.677 -0.0312  0.2414  0.1326
 6132TIP3    H139955   0.235   6.832   1.592  1.1852  0.6993 -0.4131
 6132TIP3    H239956   0.172   6.898   1.713 -0.4643  1.6128 -1.7310
 6133TIP3   OH239957   2.219   5.465   1.419  0.1817  0.3604 -0.4587
 6133TIP3    H139958   2.277   5.432   1.487 -0.6650 -0.7614 -0.2313
 6133TIP3    H239959   2.136   5.483   1.464 -0.5389 -0.8294 -1.2260
 6134TIP3   OH239960   2.627   2.579   1.731  0.4369  0.2497 -0.2557
 6134TIP3    H139961   2.541   2.537   1.732  1.0448 -1.0339  0.3583
 6134TIP3    H239962   2.684   2.516   1.775  1.9273  0.5767 -1.6443
 6135TIP3   OH239963   6.118   1.062   2.941 -0.3934  0.0178 -0.5140
 6135TIP3    H139964   6.133   1.157   2.935 -0.4557  0.1273  0.7801
 6135TIP3    H239965   6.184   1.032   3.004  0.2359 -0.9550 -1.6160
 6136TIP3   OH239966   4.167   1.327   7.995 -0.0131 -0.2155 -0.5205
 6136TIP3    H139967   4.165   1.391   7.924 -1.0598  1.1139  0.6380
 6136TIP3    H239968   4.251   1.343   8.039  1.1982 -1.8510 -2.0878
 6137TIP3   OH239969   5.341   2.404   0.584 -0.1346 -0.7602  0.3017
 6137TIP3    H139970   5.252   2.370   0.571 -0.3899 -0.1017  0.2616
 6137TIP3    H239971   5.398   2.329   0.569 -0.6584 -1.0621 -0.2158
 6138TIP3   OH239972   4.053   4.089   2.558  0.1776 -0.8253 -0.2320
 6138TIP3    H139973   3.997   4.061   2.630 -0.8116 -0.2435 -0.7514
 6138TIP3    H239974   3.992   4.129   2.495  1.1793 -0.2153 -0.8286
 6139TIP3   OH239975   1.714   1.414   7.822 -0.5355  0.2118  0.4441
 6139TIP3    H139976   1.669   1.426   7.906 -3.0144  0.8335 -0.8843
 6139TIP3    H239977   1.728   1.320   7.816 -0.1496  0.1719  1.6215
 6140TIP3   OH239978   4.860   0.034   7.922  0.0400 -0.1737  0.2832
 6140TIP3    H139979   4.797   0.103   7.941 -0.0058  0.0170 -0.5021
 6140TIP3    H239980   4.869  -0.015   8.003  0.5884  1.1792  1.0714
 6141TIP3   OH239981   3.771   4.996   0.313  0.6538 -0.2193  0.7319
 6141TIP3    H139982   3.755   4.908   0.348  1.3126 -1.2030 -1.2821
 6141TIP3    H239983   3.699   5.049   0.347 -0.9609 -2.0330  0.3168
 6142TIP3   OH239984   0.013   0.372   1.808  0.0657  0.7767 -0.2432
 6142TIP3    H139985   0.025   0.383   1.902  1.5834 -1.4932 -0.0721
 6142TIP3    H239986   0.101   0.353   1.775 -0.1827  2.9886 -2.4103
 6143TIP3   OH239987   5.471   1.207   1.810  0.1668 -0.2364  0.8526
 6143TIP3    H139988   5.519   1.177   1.887  1.9122  0.0695 -0.0714
 6143TIP3    H239989   5.458   1.301   1.825  2.1857  0.2265 -0.0292
 6144TIP3   OH239990   3.366   5.208   8.017 -0.3053  0.3802 -0.1174
 6144TIP3    H139991   3.303   5.262   8.065 -2.8550 -2.0287 -0.4884
 6144TIP3    H239992   3.382   5.133   8.074  0.0499 -0.3879 -1.1825
 6145TIP3   OH239993   2.479   1.449   2.720 -0.3967 -0.0584 -0.3423
 6145TIP3    H139994   2.509   1.522   2.666  1.4203 -0.5419 -0.0629
 6145TIP3    H239995   2.461   1.488   2.805 -0.4493  0.2364 -0.4874
 6146TIP3   OH239996   3.644   5.807   0.197 -0.0988  0.3755 -0.2810
 6146TIP3    H139997   3.728   5.766   0.218 -0.4928 -0.1828  0.2244
 6146TIP3    H239998   3.648   5.894   0.238  0.5377  0.6633 -0.9295
 6147TIP3   OH239999   0.454   2.322   1.952 -0.2577  0.5363 -0.3015
 6147TIP3    H140000   0.433   2.389   2.016 -0.4085 -0.3100  0.5533
 6147TIP3    H240001   0.373   2.272   1.942 -0.0274  0.2181 -0.6192
 6148TIP3   OH240002   2.747   5.561   3.357  0.2320 -0.1271 -0.1455
 6148TIP3    H140003   2.658   5.589   3.378  0.1299  0.2628 -1.0554
 6148TIP3    H240004   2.751   5.470   3.389 -1.5040 -1.2292 -2.7151
 6149TIP3   OH240005   1.452   0.347   7.217 -0.2457  0.2076  0.7792
 6149TIP3    H140006   1.514   0.367   7.148 -1.1385 -0.4935 -0.2663
 6149TIP3    H240007   1.402   0.428   7.230 -1.9414 -0.3928 -1.4175
 6150TIP3   OH240008   4.944   2.328   3.235 -0.5672  0.2365 -0.2318
 6150TIP3    H140009   4.860   2.306   3.275 -1.7824  1.7717 -1.7340
 6150TIP3    H240010   4.961   2.257   3.173 -0.8584  0.0064 -0.0490
 6151TIP3   OH240011   1.342   6.801   8.310 -0.2301  0.4599 -0.2595
 6151TIP3    H140012   1.349   6.727   8.250  0.3412 -0.6591  1.1082
 6151TIP3    H240013   1.256   6.791   8.351  0.1701  0.0641  0.5086
 6152TIP3   OH240014   5.194   3.949   0.291  0.2960  0.0785  0.1986
 6152TIP3    H140015   5.167   4.037   0.317  0.5160  0.3595 -0.4961
 6152TIP3    H240016   5.116   3.912   0.248 -0.0427 -0.3564  1.1629
 6153TIP3   OH240017   1.030   1.136   8.231 -0.8084  0.4252  0.0336
 6153TIP3    H140018   1.096   1.172   8.290  0.0658 -1.2179  0.1303
 6153TIP3    H240019   0.975   1.082   8.288 -0.1466 -0.9196 -0.5498
 6154TIP3   OH240020   1.135   6.025   1.115 -0.1268  0.3076 -0.7134
 6154TIP3    H140021   1.098   5.958   1.171 -0.4249  0.3346 -0.8787
 6154TIP3    H240022   1.209   6.060   1.165 -1.4781  1.6224  0.4792
 6155TIP3   OH240023   2.993   4.189   1.183 -0.5893 -0.0996  0.3077
 6155TIP3    H140024   3.034   4.217   1.265 -3.2216  0.5499  1.4866
 6155TIP3    H240025   2.942   4.265   1.154 -0.8462 -0.8039 -1.2015
 6156TIP3   OH240026   1.215   2.249   0.650 -0.5675  0.3953 -0.3945
 6156TIP3    H140027   1.294   2.298   0.671 -0.4511 -0.7298  2.1162
 6156TIP3    H240028   1.246   2.169   0.609 -0.4230  0.0963  0.2973
 6157TIP3   OH240029   2.837   4.483   2.115 -0.5235  0.0413 -0.7331
 6157TIP3    H140030   2.885   4.434   2.049  3.4756 -0.5907  2.2381
 6157TIP3    H240031   2.781   4.418   2.158  1.5061 -1.0786  0.3622
 6158TIP3   OH240032   6.190   6.455   2.152  0.0915  0.3330  0.2831
 6158TIP3    H140033   6.224   6.544   2.146 -0.3054  0.3868 -1.6798
 6158TIP3    H240034   6.102   6.465   2.190  0.1168  0.7632  0.2327
 6159TIP3   OH240035   2.138   6.857   7.789 -0.5924 -0.2805 -0.8932
 6159TIP3    H140036   2.087   6.867   7.709 -0.9431 -0.4908 -0.6983
 6159TIP3    H240037   2.080   6.810   7.849 -0.2261 -0.3862 -0.6173
 6160TIP3   OH240038   6.955   6.354   7.830 -0.5440  0.5933  0.8316
 6160TIP3    H140039   7.027   6.307   7.872  0.9719  3.0726  1.2653
 6160TIP3    H240040   6.890   6.367   7.899 -1.8040 -2.1884  0.2885
 6161TIP3   OH240041   3.140   6.145   1.950  0.3744  0.0478 -0.2099
 6161TIP3    H140042   3.234   6.161   1.946  0.2378  0.9369 -0.0757
 6161TIP3    H240043   3.114   6.128   1.859  0.1254  3.1403 -0.8198
 6162TIP3   OH240044   2.257   0.142   7.456  0.0988 -0.0905  0.3966
 6162TIP3    H140045   2.333   0.092   7.488  0.6977  0.3737 -0.2689
 6162TIP3    H240046   2.182   0.086   7.474  0.8187 -1.5481 -0.9518
 6163TIP3   OH240047   2.479   2.500   2.325 -0.3245 -0.1936 -0.0261
 6163TIP3    H140048   2.466   2.514   2.419 -0.8882  1.3846 -0.3026
 6163TIP3    H240049   2.396   2.464   2.294 -1.4620  2.5408 -0.4550
 6164TIP3   OH240050   3.596   5.001   7.627 -0.3581 -0.6134 -0.0517
 6164TIP3    H140051   3.598   5.033   7.537  1.5201 -2.5121 -0.7851
 6164TIP3    H240052   3.559   4.913   7.620 -0.4917 -0.6684  1.0983
 6165TIP3   OH240053   1.816   6.123   2.911 -0.2543  0.1204  0.0523
 6165TIP3    H140054   1.824   6.061   2.983 -0.4854 -1.2083 -1.0421
 6165TIP3    H240055   1.877   6.194   2.935  0.1580 -0.5926  1.2302
 6166TIP3   OH240056   6.589   0.769   1.589  0.0970  0.3446  0.4071
 6166TIP3    H140057   6.566   0.788   1.680 -0.5338  1.2848  0.0618
 6166TIP3    H240058   6.624   0.851   1.554  0.9279 -0.1800 -0.0291
 6167TIP3   OH240059   4.516   0.781   7.424  0.2900 -0.5631  0.6566
 6167TIP3    H140060   4.602   0.821   7.412 -0.5125  1.1646  0.3549
 6167TIP3    H240061   4.490   0.806   7.512 -0.8816  0.9681 -0.0877
 6168TIP3   OH240062   2.763   6.480   2.561 -0.2123  0.0174  0.1791
 6168TIP3    H140063   2.715   6.517   2.487  0.7686 -0.9416 -0.9910
 6168TIP3    H240064   2.767   6.386   2.542  2.3891  0.0984  0.0111
 6169TIP3   OH240065   6.626   1.661   7.782 -0.1263  1.0250 -0.1760
 6169TIP3    H140066   6.575   1.690   7.706  0.2218  1.0370 -0.4102
 6169TIP3    H240067   6.561   1.632   7.845 -0.4181  0.9357 -0.5144
 6170TIP3   OH240068   6.574   2.801   2.205 -0.5148 -0.0366  0.3259
 6170TIP3    H140069   6.515   2.767   2.273 -1.0791  0.2289 -0.0286
 6170TIP3    H240070   6.595   2.724   2.151 -1.6187  0.1144 -0.3459
 6171TIP3   OH240071   2.204   6.325   0.006  0.2070  0.5678  1.0940
 6171TIP3    H140072   2.250   6.409   0.009  0.4874  0.4732  0.0627
 6171TIP3    H240073   2.229   6.288  -0.079 -1.4562  0.3246  0.6804
 6172TIP3   OH240074   1.884   3.746   0.207  0.4783 -0.6568 -0.2412
 6172TIP3    H140075   1.824   3.719   0.276  0.2184  1.4995  0.4562
 6172TIP3    H240076   1.972   3.731   0.244  0.3540  1.0741  0.9023
 6173TIP3   OH240077   1.778   4.457   8.024  0.2630  0.4199 -0.0009
 6173TIP3    H140078   1.867   4.422   8.030  0.2107 -0.5886 -3.2956
 6173TIP3    H240079   1.786   4.531   7.964 -0.7572  2.0643  1.7689
 6174TIP3   OH240080   6.879   5.496   0.967  0.0420 -0.3598  0.3429
 6174TIP3    H140081   6.876   5.482   1.062  0.4506  3.5705  1.1414
 6174TIP3    H240082   6.789   5.519   0.944  0.3949  1.2805  0.4171
 6175TIP3   OH240083   2.870   2.187   8.165  0.5941 -0.1838 -0.2185
 6175TIP3    H140084   2.813   2.263   8.163  1.6996  0.6777 -1.8451
 6175TIP3    H240085   2.814   2.115   8.194 -0.0228  1.5326  3.2506
 6176TIP3   OH240086   0.307   0.204   1.665 -0.6142 -0.3096 -0.0395
 6176TIP3    H140087   0.318   0.235   1.755 -0.4158 -0.4825 -0.0033
 6176TIP3    H240088   0.277   0.113   1.675 -0.5204 -0.3525 -0.1457
 6177TIP3   OH240089   5.893   3.401   1.353 -0.1343  0.0233  0.1530
 6177TIP3    H140090   5.850   3.344   1.416  0.3009  0.5662  0.9534
 6177TIP3    H240091   5.823   3.431   1.295 -0.2791 -1.8166 -0.6928
 6178TIP3   OH240092   4.578   2.570   2.734  0.0945  0.0897 -0.2176
 6178TIP3    H140093   4.529   2.578   2.816 -0.6067 -0.1488 -0.6048
 6178TIP3    H240094   4.606   2.659   2.714 -1.9562  0.6099 -1.0489
 6179TIP3   OH240095   2.324   3.125   1.013  0.1775  0.3715 -0.1520
 6179TIP3    H140096   2.355   3.136   1.103 -3.8757 -0.4107  1.5308
 6179TIP3    H240097   2.256   3.191   1.002  0.4691  0.3687 -2.6575
 6180TIP3   OH240098   5.381   1.917   8.092  0.4934 -0.4460 -0.1529
 6180TIP3    H140099   5.394   1.991   8.032 -0.3981  1.5954  2.0116
 6180TIP3    H240100   5.455   1.923   8.153 -0.0134 -0.8158  0.5106
 6181TIP3   OH240101   5.528   5.258   1.517  0.2459  0.2109 -0.3585
 6181TIP3    H140102   5.591   5.198   1.556 -0.2161 -0.3896 -0.5252
 6181TIP3    H240103   5.557   5.267   1.426 -0.8226 -1.3670 -0.8981
 6182TIP3   OH240104   3.841   4.844   1.499  0.3170 -0.2950 -0.2651
 6182TIP3    H140105   3.934   4.859   1.520  0.5574  0.9363 -2.0237
 6182TIP3    H240106   3.828   4.751   1.517  1.4771 -0.1821  1.4411
 6183TIP3   OH240107   0.924   1.667   2.576  0.0930  0.4784  0.3130
 6183TIP3    H140108   0.860   1.665   2.504 -0.0037 -0.9831  0.4110
 6183TIP3    H240109   0.947   1.760   2.585  0.3823  0.6611 -1.8359
 6184TIP3   OH240110   2.935   6.215   0.182  0.1433  0.2722  0.0037
 6184TIP3    H140111   2.902   6.125   0.183 -1.4777  0.8198 -0.7537
 6184TIP3    H240112   3.016   6.211   0.131 -0.3779 -0.6098 -0.7758
 6185TIP3   OH240113   1.484   5.123   0.084 -0.3912  0.2955  0.6861
 6185TIP3    H140114   1.405   5.177   0.089  0.6842  1.8260  2.0273
 6185TIP3    H240115   1.546   5.176   0.036  0.3571 -0.2016  1.0864
 6186TIP3   OH240116   2.303   3.320   0.637  0.2706  0.0240  0.8341
 6186TIP3    H140117   2.235   3.371   0.680  0.3372 -0.1463  1.1409
 6186TIP3    H240118   2.336   3.377   0.567 -0.6388 -0.1369  0.2580
 6187TIP3   OH240119   0.018   1.888   1.826  0.1019  0.0561 -0.0766
 6187TIP3    H140120   0.033   1.882   1.921  1.6713  1.5989 -0.1943
 6187TIP3    H240121  -0.049   1.956   1.817  0.2630  0.2108 -0.1021
 6188TIP3   OH240122   4.864   2.272   8.043 -0.2555  0.7084 -0.7634
 6188TIP3    H140123   4.803   2.291   8.115  0.2067  2.7866 -0.8678
 6188TIP3    H240124   4.807   2.263   7.966 -0.8220 -2.2213 -0.1225
 6189TIP3   OH240125   2.066   5.330   2.252 -0.7573  0.6946  0.9459
 6189TIP3    H140126   2.124   5.268   2.296  1.7432  2.6123  0.5761
 6189TIP3    H240127   2.044   5.395   2.319  1.6858  2.6837  0.0100
 6190TIP3   OH240128   4.319   6.338   1.870 -0.2110  0.0112 -0.1352
 6190TIP3    H140129   4.363   6.379   1.795 -1.4440 -0.5974 -1.2281
 6190TIP3    H240130   4.227   6.365   1.862 -0.8729 -2.1563 -0.3459
 6191TIP3   OH240131   4.101   3.286   1.859  0.2182 -0.0015  0.7605
 6191TIP3    H140132   4.016   3.322   1.884  0.0572  0.9776 -1.0326
 6191TIP3    H240133   4.092   3.192   1.870 -1.5690 -0.0379 -0.6068
 6192TIP3   OH240134   5.541   5.312   1.203 -0.0375 -0.0757 -0.2574
 6192TIP3    H140135   5.548   5.217   1.197 -0.5517 -0.0985 -0.5884
 6192TIP3    H240136   5.580   5.344   1.121 -0.4660 -0.0373 -0.4500
 6193TIP3   OH240137   0.114   3.042   7.640  0.6070  0.4970  0.0127
 6193TIP3    H140138   0.184   3.006   7.585  0.9045  0.4985  0.3863
 6193TIP3    H240139   0.148   3.035   7.730  0.5063  1.3298  0.1265
 6194TIP3   OH240140   2.153   4.809   8.213  0.2325  0.2949 -0.1884
 6194TIP3    H140141   2.163   4.766   8.128  0.9207  1.7288 -0.8761
 6194TIP3    H240142   2.062   4.841   8.213  0.3648  0.6871 -0.6008
 6195TIP3   OH240143   2.719   5.229   7.718 -0.1762  0.1718 -0.2782
 6195TIP3    H140144   2.779   5.257   7.649 -0.3107 -1.2104 -0.9742
 6195TIP3    H240145   2.658   5.302   7.727 -0.0864  0.4230 -1.5410
 6196TIP3   OH240146   0.071   6.600   2.301 -0.7502 -0.1661  0.3447
 6196TIP3    H140147   0.093   6.522   2.250  0.7229 -0.0863  0.8177
 6196TIP3    H240148  -0.008   6.575   2.350 -0.3992 -1.3137  0.3688
 6197TIP3   OH240149   6.063   6.885   1.248  0.5304 -0.4033 -0.2911
 6197TIP3    H140150   6.155   6.858   1.253  1.2128  1.9406  2.8427
 6197TIP3    H240151   6.024   6.854   1.330 -0.9852  0.2608 -0.7230
 6198TIP3   OH240152   1.820   4.375   2.846  0.3273  0.3191  0.2222
 6198TIP3    H140153   1.894   4.361   2.787 -0.4743  1.3023 -1.0723
 6198TIP3    H240154   1.816   4.470   2.858 -2.1889  0.5906 -1.7875
 6199TIP3   OH240155   4.582   3.726   2.160  0.4646 -0.5260  0.4208
 6199TIP3    H140156   4.515   3.699   2.097 -1.4792  1.4446  1.5049
 6199TIP3    H240157   4.653   3.759   2.106  0.1535 -1.6823 -0.7582
 6200TIP3   OH240158   3.135   0.786   6.892  0.3756  0.2390 -0.2790
 6200TIP3    H140159   3.123   0.700   6.853  0.7122 -0.1209  0.3973
 6200TIP3    H240160   3.228   0.806   6.878 -0.2105  1.6834 -2.8048
 6201TIP3   OH240161   0.657   4.914   8.337  0.3919 -0.3697 -0.5463
 6201TIP3    H140162   0.698   4.975   8.398  0.7568 -0.6737 -0.4837
 6201TIP3    H240163   0.708   4.833   8.346 -0.5496 -0.9338 -0.0736
 6202TIP3   OH240164   6.542   4.354   0.491  0.6060 -0.1517  0.0285
 6202TIP3    H140165   6.517   4.428   0.436 -1.1572  0.3081  1.3492
 6202TIP3    H240166   6.630   4.330   0.462  1.3405  2.6092 -0.2723
 6203TIP3   OH240167   6.441   4.308   2.072  0.0878 -0.5984 -0.7661
 6203TIP3    H140168   6.413   4.333   1.984 -0.4045 -0.8952 -0.7001
 6203TIP3    H240169   6.528   4.269   2.060  0.7011  0.7651 -0.9123
 6204TIP3   OH240170   5.053   5.358   2.751 -0.6697  0.0279  0.6852
 6204TIP3    H140171   5.016   5.286   2.699 -0.8345 -1.1346  2.3065
 6204TIP3    H240172   5.119   5.315   2.806  1.4167  1.6501 -0.3960
 6205TIP3   OH240173   1.422   2.046   7.751  0.2660  0.1438  0.9550
 6205TIP3    H140174   1.493   2.022   7.691 -1.0863  0.3472 -0.8013
 6205TIP3    H240175   1.343   2.008   7.712 -0.8798  1.4880  1.8661
 6206TIP3   OH240176   6.018   6.679   0.037 -0.4855 -0.0471  0.3370
 6206TIP3    H140177   6.035   6.602   0.092  0.4764  0.5097  0.8527
 6206TIP3    H240178   6.072   6.666  -0.040  0.0394  0.3244  0.6368
 6207TIP3   OH240179   1.553   4.725   0.365 -0.2759 -0.0644  0.1760
 6207TIP3    H140180   1.640   4.741   0.326 -0.6343  1.2098 -0.1590
 6207TIP3    H240181   1.493   4.777   0.311 -0.9595  0.7517  1.6523
 6208TIP3   OH240182   4.737   3.741   0.717 -0.0230 -0.1699  0.5189
 6208TIP3    H140183   4.649   3.776   0.729  0.2876  0.4603  1.0224
 6208TIP3    H240184   4.745   3.727   0.623 -0.6866 -0.3088  0.4785
 6209TIP3   OH240185   5.468   2.967   1.115 -0.6354 -0.3360  0.1916
 6209TIP3    H140186   5.547   2.917   1.092 -1.7492 -2.5045  0.7929
 6209TIP3    H240187   5.499   3.032   1.178  0.6137 -1.4948  0.8302
 6210TIP3   OH240188   0.704   6.342   1.094 -0.3506 -0.6276 -0.6257
 6210TIP3    H140189   0.635   6.325   1.031  0.1356  0.5347 -1.5164
 6210TIP3    H240190   0.783   6.304   1.054 -0.1931 -0.5999 -0.3434
 6211TIP3   OH240191   0.195   0.232   2.531 -0.0253  0.0953  0.1152
 6211TIP3    H140192   0.168   0.250   2.441 -2.1687 -1.3685  0.4069
 6211TIP3    H240193   0.190   0.317   2.575 -1.3276  0.3972 -0.5823
 6212TIP3   OH240194   4.834   2.096   8.300 -0.1878 -0.1002 -0.1862
 6212TIP3    H140195   4.900   2.028   8.313  0.0995 -0.3476 -2.5541
 6212TIP3    H240196   4.870   2.152   8.231 -1.5715  0.9250 -0.1194
 6213TIP3   OH240197   6.822   6.223   8.402 -0.3642 -0.6160 -0.2214
 6213TIP3    H140198   6.877   6.174   8.341  1.2065  1.1582 -0.3140
 6213TIP3    H240199   6.814   6.166   8.479  0.6363 -1.3765 -0.6646
 6214TIP3   OH240200   0.447   5.375   2.427  0.0574  0.4105  0.1385
 6214TIP3    H140201   0.506   5.343   2.495  0.1581 -1.6185 -0.8056
 6214TIP3    H240202   0.482   5.459   2.401  0.7183  0.6645  1.7261
 6215TIP3   OH240203   1.236   3.902   1.189 -0.1962 -0.3287 -0.6685
 6215TIP3    H140204   1.238   3.835   1.257  2.3828 -1.3388 -1.5994
 6215TIP3    H240205   1.183   3.864   1.119 -0.1350 -0.6933 -0.5176
 6216TIP3   OH240206   6.190   2.640   2.117 -0.2435  0.0417 -0.1750
 6216TIP3    H140207   6.263   2.664   2.174 -0.3131 -1.6102  0.6542
 6216TIP3    H240208   6.113   2.677   2.160 -0.2459 -0.8493  0.6045
 6217TIP3   OH240209   3.243   4.578   8.352 -0.0796  0.2639 -0.9071
 6217TIP3    H140210   3.325   4.556   8.308  1.5664  0.4739  1.8539
 6217TIP3    H240211   3.185   4.505   8.332  0.8475 -0.0731 -2.6213
 6218TIP3   OH240212   2.909   6.230   1.493  0.5598 -0.5191  0.2819
 6218TIP3    H140213   2.905   6.324   1.474  0.5790 -0.4122  0.8013
 6218TIP3    H240214   2.878   6.222   1.583 -1.3524 -1.2132 -0.3771
 6219TIP3   OH240215   1.216   1.233   0.001 -0.4937  0.6569  0.2029
 6219TIP3    H140216   1.232   1.320  -0.035  1.0611 -0.5372 -2.2673
 6219TIP3    H240217   1.302   1.191   0.004 -1.3253 -1.1744  0.1970
 6220TIP3   OH240218   0.593   6.907   2.262  0.2987  0.1311  0.6595
 6220TIP3    H140219   0.665   6.891   2.202  0.1395  2.1332 -0.1522
 6220TIP3    H240220   0.516   6.915   2.206  0.0581  1.4792  1.1435
 6221TIP3   OH240221   0.508   5.737   2.558 -0.0595 -0.4197  0.5093
 6221TIP3    H140222   0.542   5.754   2.645 -1.1015 -2.1663  1.3151
 6221TIP3    H240223   0.570   5.674   2.520  0.6330  0.6591 -0.2252
 6222TIP3   OH240224   2.936   3.609   7.857  0.0055  0.6849  0.1952
 6222TIP3    H140225   2.885   3.672   7.907  0.7023  0.1626  1.5966
 6222TIP3    H240226   3.027   3.638   7.866  0.0496  1.4455 -2.0352
 6223TIP3   OH240227   6.345   3.768   7.629  0.2457 -0.5264  0.1008
 6223TIP3    H140228   6.315   3.692   7.579 -0.2039  0.1952 -0.7516
 6223TIP3    H240229   6.440   3.763   7.626  0.3276 -2.7733  2.7267
 6224TIP3   OH240230   2.313   0.458   8.138  0.4786 -0.2125  0.3658
 6224TIP3    H140231   2.315   0.538   8.191 -1.8438 -0.6423  1.2047
 6224TIP3    H240232   2.226   0.422   8.152  1.1515 -2.4321 -0.7290
 6225TIP3   OH240233   5.556   2.207   0.011  0.2204  0.2001  0.0605
 6225TIP3    H140234   5.470   2.234  -0.020  0.1776  0.5197  0.4572
 6225TIP3    H240235   5.541   2.175   0.100  0.5198  0.3004  0.1477
 6226TIP3   OH240236   5.086   6.560   7.827  0.2394 -0.0876  0.7669
 6226TIP3    H140237   5.092   6.470   7.860  0.7597 -0.6029 -0.6465
 6226TIP3    H240238   5.023   6.555   7.756 -0.1666  0.8044  1.0507
 6227TIP3   OH240239   4.210   2.216   1.806  0.7469 -0.1425 -0.3522
 6227TIP3    H140240   4.297   2.180   1.824  0.3333 -1.5548 -1.0278
 6227TIP3    H240241   4.150   2.147   1.833 -0.1557  0.7631 -0.0376
 6228TIP3   OH240242   2.460   6.860   2.403  0.4162  0.1390 -0.4556
 6228TIP3    H140243   2.414   6.942   2.385 -0.0530  0.2918  1.3147
 6228TIP3    H240244   2.457   6.850   2.498  2.4781 -0.7746 -0.4283
 6229TIP3   OH240245   6.159   1.227   7.578 -0.8353  0.1823  0.1642
 6229TIP3    H140246   6.155   1.278   7.497 -0.9076 -2.6275 -1.7792
 6229TIP3    H240247   6.252   1.227   7.601 -0.5385 -0.3395 -0.9356
 6230TIP3   OH240248   5.789   1.866   0.932  0.3229  0.7584  0.4466
 6230TIP3    H140249   5.709   1.822   0.901 -1.4139  4.1624 -0.3848
 6230TIP3    H240250   5.757   1.946   0.973  3.1647  0.5301  3.5207
 6231TIP3   OH240251   6.498   5.987   0.814 -0.0806  0.3515 -0.4453
 6231TIP3    H140252   6.478   6.065   0.867 -1.4423 -0.5817  0.4962
 6231TIP3    H240253   6.554   5.934   0.871  0.0945  0.2301 -0.7329
 6232TIP3   OH240254   3.180   3.804   8.161  0.1428 -0.2545 -0.2652
 6232TIP3    H140255   3.169   3.760   8.246 -2.1621 -0.9419 -0.8599
 6232TIP3    H240256   3.154   3.895   8.178 -4.3976 -1.2057 -0.9618
 6233TIP3   OH240257   0.553   5.548   2.173  0.5229 -0.0886 -0.4496
 6233TIP3    H140258   0.640   5.569   2.207  0.1949 -0.0362  0.3635
 6233TIP3    H240259   0.492   5.587   2.235 -0.0917 -1.1148 -0.3795
 6234TIP3   OH240260   0.046   1.627   2.790 -0.5865 -0.0795 -0.0765
 6234TIP3    H140261   0.057   1.717   2.821 -2.2211 -0.2449  1.0944
 6234TIP3    H240262   0.089   1.573   2.856  2.6639 -0.1473 -2.0148
 6235TIP3   OH240263   0.828   5.124   7.713  0.1449 -0.4507 -0.5724
 6235TIP3    H140264   0.795   5.195   7.658  0.3738  0.1065 -0.0126
 6235TIP3    H240265   0.812   5.154   7.802 -1.2418 -1.8223 -0.3201
 6236TIP3   OH240266   1.076   3.158   2.988  0.7021 -0.3387  0.0002
 6236TIP3    H140267   0.993   3.134   2.946  0.9483 -3.2864  0.9071
 6236TIP3    H240268   1.053   3.230   3.047 -0.5698  0.7853 -1.7704
 6237TIP3   OH240269   1.261   4.524   2.311  0.2245 -0.8011 -0.1245
 6237TIP3    H140270   1.272   4.437   2.273  0.6447 -0.7336 -0.1679
 6237TIP3    H240271   1.172   4.524   2.345  0.2442 -1.2740 -0.0596
 6238TIP3   OH240272   3.256   4.135   2.157 -0.1694  0.4244 -0.1827
 6238TIP3    H140273   3.255   4.111   2.250 -0.2669  1.6531  0.1450
 6238TIP3    H240274   3.274   4.052   2.112  1.9243  0.1533  1.0378
 6239TIP3   OH240275   4.791   2.832   1.640  0.0499  0.1870 -0.1910
 6239TIP3    H140276   4.865   2.825   1.701 -0.4504 -0.0521  0.3975
 6239TIP3    H240277   4.804   2.760   1.578 -0.4479 -0.7546  0.7608
 6240TIP3   OH240278   5.521   4.119   8.155 -0.2868 -0.0195  0.4190
 6240TIP3    H140279   5.465   4.043   8.142 -0.6430  0.4255 -0.7766
 6240TIP3    H240280   5.466   4.181   8.203 -0.7298  0.2806 -0.4475
 6241TIP3   OH240281   4.698   1.625   2.177 -0.1673 -0.0361  0.2381
 6241TIP3    H140282   4.731   1.582   2.256 -0.7265  2.2505  1.7870
 6241TIP3    H240283   4.775   1.667   2.139  0.0081 -0.7378 -0.2122
 6242TIP3   OH240284   2.261   2.258   0.870 -0.7926  0.3001 -0.6807
 6242TIP3    H140285   2.277   2.271   0.964  0.2505  0.6510 -0.8983
 6242TIP3    H240286   2.285   2.341   0.830 -0.3318 -0.1502 -1.3588
 6243TIP3   OH240287   2.733   1.388   8.163 -0.3638 -0.4369 -0.3233
 6243TIP3    H140288   2.782   1.343   8.094 -0.1120 -0.1698 -0.3227
 6243TIP3    H240289   2.794   1.453   8.196 -1.7041  2.0632 -2.4238
 6244TIP3   OH240290   4.627   0.865   3.115 -0.1477  0.2316  0.7462
 6244TIP3    H140291   4.587   0.779   3.123  0.2380 -0.0430 -0.1060
 6244TIP3    H240292   4.663   0.884   3.201 -0.8286 -0.1534  1.1231
 6245TIP3   OH240293   4.959   0.001   2.116 -0.4729 -0.5505 -0.3530
 6245TIP3    H140294   4.989  -0.072   2.062 -0.8417 -2.2685  1.6232
 6245TIP3    H240295   4.983   0.079   2.066  2.2806 -1.9325 -1.4084
 6246TIP3   OH240296   0.841   2.199   1.937  0.2649 -0.6132  0.4294
 6246TIP3    H140297   0.856   2.107   1.915  0.4278 -0.7453  1.0928
 6246TIP3    H240298   0.920   2.226   1.982 -0.1087 -0.3679  0.9417
 6247TIP3   OH240299   5.366   6.400   0.005  0.0485 -0.1058 -0.3215
 6247TIP3    H140300   5.436   6.465   0.008  0.8441 -0.9007 -1.2173
 6247TIP3    H240301   5.286   6.450   0.026  0.6186  1.1754 -1.1142
 6248TIP3   OH240302   2.991   6.561   2.892  0.0692  0.0439 -0.4247
 6248TIP3    H140303   3.022   6.472   2.906 -0.7350 -0.2272 -0.3763
 6248TIP3    H240304   2.900   6.560   2.919  0.4506  1.2555  1.0624
 6249TIP3   OH240305   3.825   0.647   2.880 -0.3998  0.4632  0.3637
 6249TIP3    H140306   3.760   0.670   2.813  0.5846  0.2478 -0.6938
 6249TIP3    H240307   3.791   0.687   2.960 -0.6104  2.4440 -0.6409
 6250TIP3   OH240308   3.589   1.398   8.197 -0.0634 -0.2869  0.1751
 6250TIP3    H140309   3.623   1.371   8.282 -2.1234  0.2528  1.2465
 6250TIP3    H240310   3.540   1.479   8.215 -2.0198 -1.0889 -1.1296
 6251TIP3   OH240311   3.566   1.169   1.019 -0.1970  0.4280  0.0975
 6251TIP3    H140312   3.506   1.205   1.084 -0.7244  1.1739 -0.7876
 6251TIP3    H240313   3.587   1.242   0.961 -0.4422 -0.4170 -1.1065
 6252TIP3   OH240314   2.083   2.020   2.110 -0.6068  0.3805 -0.5597
 6252TIP3    H140315   2.006   2.076   2.125 -0.4945  0.9885 -2.0132
 6252TIP3    H240316   2.155   2.081   2.097 -0.4059 -0.0809 -1.7932
 6253TIP3   OH240317   4.312   5.151   0.747 -0.0180 -0.3379  0.6081
 6253TIP3    H140318   4.293   5.139   0.654  1.1821  0.0040  0.3071
 6253TIP3    H240319   4.334   5.244   0.755 -0.2637 -0.3267  1.2769
 6254TIP3   OH240320   0.943   4.748   1.171  0.4197  0.3336 -0.1669
 6254TIP3    H140321   1.000   4.763   1.095 -0.4630  0.7369 -0.7690
 6254TIP3    H240322   0.966   4.817   1.233  0.9937  0.1373 -0.1563
 6255TIP3   OH240323   0.699   4.872   0.675 -0.5315 -0.2071 -0.0679
 6255TIP3    H140324   0.639   4.895   0.605 -2.2584 -1.3000  0.9912
 6255TIP3    H240325   0.723   4.781   0.658 -1.7424 -0.8017  1.2521
 6256TIP3   OH240326   0.136   4.910   2.394 -0.4823  0.0932 -0.0350
 6256TIP3    H140327   0.123   5.004   2.409  0.0647  0.6268 -2.4052
 6256TIP3    H240328   0.160   4.875   2.479  0.1710  2.2801  0.7537
 6257TIP3   OH240329   5.053   0.536   6.794 -0.6618 -0.0863  0.6899
 6257TIP3    H140330   4.967   0.526   6.752 -1.0633  1.0487  1.2103
 6257TIP3    H240331   5.062   0.457   6.848 -1.2870 -0.3145  0.4735
 6258TIP3   OH240332   0.992   0.911   7.940 -0.4505 -0.2440 -0.5273
 6258TIP3    H140333   1.034   0.994   7.961  0.1222  0.5736 -4.1953
 6258TIP3    H240334   0.899   0.933   7.931 -0.6381 -0.5147  0.5982
 6259TIP3   OH240335   0.928   1.685   1.805  0.1034  0.6559  0.3522
 6259TIP3    H140336   0.946   1.677   1.712 -1.2762 -0.3223  0.1354
 6259TIP3    H240337   0.851   1.630   1.820 -0.8750  2.2751  1.7071
 6260TIP3   OH240338   6.809   2.045   0.524 -0.4645 -0.0853  0.6558
 6260TIP3    H140339   6.872   1.996   0.577  0.4451 -1.6951 -1.6919
 6260TIP3    H240340   6.730   1.991   0.525 -1.2228  1.0054  2.1099
 6261TIP3   OH240341   5.491   2.033   3.047 -0.2731  0.5378  0.2761
 6261TIP3    H140342   5.465   1.970   3.115  1.3106  0.2484  0.6534
 6261TIP3    H240343   5.425   2.102   3.052 -1.8435 -0.8809  0.1153
 6262TIP3   OH240344   5.572   1.156   0.676  0.6990 -0.2279  0.6892
 6262TIP3    H140345   5.572   1.218   0.749 -0.5036  0.3007  0.2749
 6262TIP3    H240346   5.570   1.070   0.718  2.7121 -0.0212  1.2669
 6263TIP3   OH240347   5.446   6.909   2.767 -0.3168 -0.3867 -0.0335
 6263TIP3    H140348   5.422   7.001   2.779 -0.6931 -0.6787  1.7013
 6263TIP3    H240349   5.372   6.870   2.721  0.0041  0.2365 -1.1099
 6264TIP3   OH240350   3.532   2.017   8.213  0.3091  0.3852  0.7086
 6264TIP3    H140351   3.443   2.051   8.211  0.1365 -0.0911 -0.2237
 6264TIP3    H240352   3.537   1.957   8.138  1.5860  0.8573  0.3916
 6265TIP3   OH240353   0.675   5.938   8.396  0.5899  0.5894 -0.1914
 6265TIP3    H140354   0.620   6.015   8.416 -0.4972 -0.1332 -0.2962
 6265TIP3    H240355   0.763   5.965   8.422  0.2080  1.8115 -0.0599
 6266TIP3   OH240356   4.046   5.374   0.712 -0.5461  0.7337 -0.3974
 6266TIP3    H140357   4.098   5.397   0.635  0.5345 -1.1383 -0.2723
 6266TIP3    H240358   4.089   5.420   0.784 -0.3423  0.8957 -0.6197
 6267TIP3   OH240359   1.879   2.311   1.381  0.0040 -0.4579 -0.3840
 6267TIP3    H140360   1.975   2.305   1.376  0.2459  1.4238  0.6949
 6267TIP3    H240361   1.851   2.324   1.291  0.9823  0.7746 -0.5467
 6268TIP3   OH240362   0.265   5.027   1.645  0.1536  0.0024  0.4840
 6268TIP3    H140363   0.320   4.958   1.608 -2.0996 -1.7218  0.1618
 6268TIP3    H240364   0.204   5.050   1.574 -0.6722  0.6062  1.3623
 6269TIP3   OH240365   3.487   0.529   8.276  0.0778  0.1676  0.1418
 6269TIP3    H140366   3.484   0.445   8.322 -0.2607  0.5569  0.8396
 6269TIP3    H240367   3.575   0.562   8.291  0.1644  0.0033 -0.0094
 6270TIP3   OH240368   6.881   0.446   8.274 -0.0697 -0.1632  0.4838
 6270TIP3    H140369   6.964   0.491   8.259 -0.6342  0.5577 -0.6377
 6270TIP3    H240370   6.905   0.355   8.288  1.0708  0.3639  2.4069
 6271TIP3   OH240371   2.114   4.156   3.211  0.4958  0.0723 -0.3827
 6271TIP3    H140372   2.171   4.148   3.288  0.0700  0.6910  0.0025
 6271TIP3    H240373   2.047   4.218   3.237 -0.7576 -1.1438 -0.6094
 6272TIP3   OH240374   3.239   3.216   8.419  0.2499  0.3905  0.0750
 6272TIP3    H140375   3.260   3.123   8.432 -0.8789  0.2259  0.8454
 6272TIP3    H240376   3.255   3.231   8.326  0.1944 -0.6473 -0.1146
 6273TIP3   OH240377   2.110   5.542   2.556 -0.1833  0.2008  0.3130
 6273TIP3    H140378   2.035   5.598   2.534  0.5982  0.5188 -1.7457
 6273TIP3    H240379   2.171   5.601   2.599 -0.2915  0.4191  0.1714
 6274TIP3   OH240380   2.933   5.249   8.074  0.1909  0.2670  0.5208
 6274TIP3    H140381   2.860   5.234   8.134 -0.6918  1.1977 -0.2591
 6274TIP3    H240382   2.926   5.178   8.010 -0.5641  0.7959 -0.0126
 6275TIP3   OH240383   2.775   6.866   2.399 -0.1672 -0.5187 -0.3395
 6275TIP3    H140384   2.720   6.848   2.476 -1.6059  1.4563 -0.8247
 6275TIP3    H240385   2.742   6.805   2.333  0.3313 -1.4635  0.2552
 6276TIP3   OH240386   0.204   2.356   1.554  0.4434 -0.3202 -0.4534
 6276TIP3    H140387   0.298   2.346   1.570  0.4403  0.0273 -0.2117
 6276TIP3    H240388   0.171   2.266   1.549  0.4846 -0.4627  1.2766
 6277TIP3   OH240389   5.835   6.557   1.749  0.1770  0.0953  0.0928
 6277TIP3    H140390   5.914   6.609   1.737 -0.3652  0.8825 -0.1667
 6277TIP3    H240391   5.764   6.621   1.751 -0.3445 -0.4793  1.6758
 6278TIP3   OH240392   2.604   3.133   8.055 -0.3617  0.0326 -0.3705
 6278TIP3    H140393   2.604   3.156   8.148 -1.0214 -0.5712 -0.2029
 6278TIP3    H240394   2.634   3.211   8.010  0.8897  0.0230  0.4177
 6279TIP3   OH240395   5.514   1.447   0.120  0.2719 -0.1428 -0.0401
 6279TIP3    H140396   5.588   1.441   0.181 -0.4442 -1.0596  0.7662
 6279TIP3    H240397   5.551   1.425   0.035  1.0228 -0.1197  0.2695
 6280TIP3   OH240398   6.108   2.772   0.939 -0.1410  0.0895  0.9520
 6280TIP3    H140399   6.014   2.788   0.933  0.1250  1.7233  0.6915
 6280TIP3    H240400   6.131   2.729   0.856 -0.4802  0.6949  0.5389
 6281TIP3   OH240401   3.270   1.858   2.218 -0.3999 -0.7600 -0.2939
 6281TIP3    H140402   3.346   1.856   2.275 -0.7799 -0.9770  0.2137
 6281TIP3    H240403   3.195   1.856   2.278 -0.8210  1.0189 -0.7121
 6282TIP3   OH240404   5.709   1.353   2.344 -0.3671 -0.3573  0.0338
 6282TIP3    H140405   5.741   1.265   2.325 -1.0117 -0.6292  0.1901
 6282TIP3    H240406   5.654   1.376   2.270  1.8751  0.9991 -1.3350
 6283TIP3   OH240407   5.946   2.386   1.120  0.1782 -0.3696 -0.3783
 6283TIP3    H140408   5.932   2.405   1.213  1.6091  1.1662 -0.4221
 6283TIP3    H240409   5.952   2.291   1.115 -0.7728 -0.5268  0.9579
 6284TIP3   OH240410   1.552   3.249   7.744  0.2294 -0.2166  0.5193
 6284TIP3    H140411   1.603   3.329   7.734  1.1046 -0.5195  2.1082
 6284TIP3    H240412   1.612   3.179   7.720  0.1387 -0.4943  1.0769
 6285TIP3   OH240413   4.400   2.155   3.448  0.0369  0.0800 -0.3407
 6285TIP3    H140414   4.442   2.240   3.456 -0.0730  0.0640  0.4803
 6285TIP3    H240415   4.307   2.173   3.458  0.1039 -0.2868  1.2807
 6286TIP3   OH240416   2.173   4.192   7.609  0.2514  0.3654  0.6253
 6286TIP3    H140417   2.222   4.174   7.689  1.3229  1.3104  0.2156
 6286TIP3    H240418   2.236   4.179   7.539  0.3611  2.8935  0.1590
 6287TIP3   OH240419   0.482   2.965   2.052 -1.0018 -0.2381  0.0287
 6287TIP3    H140420   0.437   2.958   2.136  0.4632  0.5213  0.9319
 6287TIP3    H240421   0.477   2.877   2.015 -3.1862 -0.1780  0.0492
 6288TIP3   OH240422   4.788   1.484   1.121  1.1741  0.1366 -0.7066
 6288TIP3    H140423   4.840   1.446   1.191  1.8711  0.0655 -1.2468
 6288TIP3    H240424   4.744   1.559   1.161  2.6156  0.9044 -0.4982
 6289TIP3   OH240425   6.534   1.895   0.438  0.2730  0.4646 -0.5404
 6289TIP3    H140426   6.497   1.887   0.350 -1.9666 -1.4310  0.4615
 6289TIP3    H240427   6.483   1.964   0.480  0.0363  0.0701 -0.1674
 6290TIP3   OH240428   1.208   6.192   0.762  0.3550  0.5858 -0.2256
 6290TIP3    H140429   1.189   6.274   0.717 -1.0766  0.3356 -0.1165
 6290TIP3    H240430   1.287   6.210   0.813  0.2123  1.8111 -0.4129
 6291TIP3   OH240431   6.413   0.576   1.889 -0.5433  0.2893  0.1452
 6291TIP3    H140432   6.327   0.596   1.927  0.0799  0.6897  1.3852
 6291TIP3    H240433   6.399   0.582   1.795 -2.3662 -1.6178  0.2097
 6292TIP3   OH240434   1.794   2.111   0.972 -0.1584  0.3510 -0.3487
 6292TIP3    H140435   1.741   2.084   0.897 -0.7587  0.8509 -0.1119
 6292TIP3    H240436   1.753   2.192   1.003 -0.9174 -0.6732  1.5173
 6293TIP3   OH240437   6.729   0.685   8.242 -0.3406  0.2733 -0.0149
 6293TIP3    H140438   6.800   0.748   8.255 -0.0452 -0.0393 -0.1045
 6293TIP3    H240439   6.768   0.600   8.260 -1.0897  0.2108  1.4163
 6294TIP3   OH240440   2.517   4.787   7.858  0.5698 -0.2310 -0.1888
 6294TIP3    H140441   2.560   4.791   7.944 -1.3415 -0.7818  0.8490
 6294TIP3    H240442   2.438   4.840   7.868  0.1995 -0.4906 -1.5447
 6295TIP3   OH240443   3.717   5.317   1.864 -0.0215 -0.0357 -0.2939
 6295TIP3    H140444   3.667   5.398   1.872 -0.9683 -0.5704 -0.6597
 6295TIP3    H240445   3.694   5.283   1.777 -2.7990 -2.7182  1.2764
 6296TIP3   OH240446   3.110   3.240   2.512 -0.2590  0.2489 -0.8513
 6296TIP3    H140447   3.181   3.237   2.448  0.9070 -0.3639  0.4172
 6296TIP3    H240448   3.075   3.151   2.513  2.3214 -0.9258  2.0629
 6297TIP3   OH240449   1.693   1.567   8.361 -0.6798 -0.0090 -0.1806
 6297TIP3    H140450   1.782   1.600   8.346 -0.2465 -0.9468  0.2118
 6297TIP3    H240451   1.664   1.613   8.440 -0.0767 -0.5784  0.3781
 6298TIP3   OH240452   1.297   1.857   3.214  0.2659  0.4567 -0.2915
 6298TIP3    H140453   1.256   1.943   3.223 -1.0396 -0.2448  0.6984
 6298TIP3    H240454   1.244   1.799   3.267  0.0739 -1.3549 -2.3341
 6299TIP3   OH240455   1.323   3.153   7.852 -0.7995  0.1624 -0.1814
 6299TIP3    H140456   1.381   3.195   7.789  1.2791  1.3613  2.3167
 6299TIP3    H240457   1.338   3.059   7.840  1.5549  0.4284  0.1785
 6300TIP3   OH240458   3.516   5.230   7.088  0.4148  0.1343  0.5765
 6300TIP3    H140459   3.600   5.187   7.107  0.7585  0.7828  0.5680
 6300TIP3    H240460   3.481   5.252   7.175  0.0513 -0.5017  0.5962
 6301TIP3   OH240461   6.360   1.831   2.235  0.7013  0.3951 -0.2436
 6301TIP3    H140462   6.321   1.902   2.285 -1.8613 -0.4628 -0.8806
 6301TIP3    H240463   6.348   1.857   2.143  0.2194 -0.5999 -0.4753
 6302TIP3   OH240464   2.231   0.701   1.953  0.0877 -0.3648  0.1697
 6302TIP3    H140465   2.224   0.723   2.046 -0.7532 -0.0943  0.0514
 6302TIP3    H240466   2.306   0.752   1.922  0.2981 -0.3633  0.6720
 6303TIP3   OH240467   4.454   2.730   0.437 -0.0852 -0.0516  0.4734
 6303TIP3    H140468   4.373   2.680   0.451 -1.1643  1.5285  0.1214
 6303TIP3    H240469   4.462   2.786   0.514 -1.0491  2.0100 -0.8274
 6304TIP3   OH240470   2.885   0.181   1.059 -0.6834  0.8921 -0.0993
 6304TIP3    H140471   2.798   0.174   1.019 -0.9112 -0.9070  0.5728
 6304TIP3    H240472   2.927   0.097   1.037  0.2196  1.0343  1.0353
 6305TIP3   OH240473   3.409   5.786   2.006  0.4240 -0.6079  0.4840
 6305TIP3    H140474   3.437   5.694   2.003 -0.5647 -0.9002 -1.4673
 6305TIP3    H240475   3.390   5.808   1.915 -2.0946  0.6739  1.2189
 6306TIP3   OH240476   3.000   5.831   2.526  0.0503  0.5462  0.2220
 6306TIP3    H140477   2.966   5.888   2.457 -0.4845 -1.7451 -1.4957
 6306TIP3    H240478   3.065   5.885   2.572 -0.1591  2.3998 -1.5291
 6307TIP3   OH240479   2.927   1.630   2.458  0.3772  0.7513  0.3039
 6307TIP3    H140480   2.937   1.569   2.531  0.6344  1.8789  1.2416
 6307TIP3    H240481   2.832   1.632   2.441  0.0054  2.3213  2.2681
 6308TIP3   OH240482   5.096   5.592   0.227 -0.2948 -0.7444 -1.2073
 6308TIP3    H140483   5.021   5.647   0.250 -0.1285 -1.2862  0.8558
 6308TIP3    H240484   5.170   5.653   0.222  0.1550 -0.7599  2.3654
 6309TIP3   OH240485   0.017   3.006   7.194  0.1200  0.7710  0.0156
 6309TIP3    H140486   0.079   3.068   7.234 -1.9334  2.2698  1.0820
 6309TIP3    H240487  -0.029   3.058   7.129 -1.1040  0.1484  0.3634
 6310TIP3   OH240488   2.390   0.660   8.323  0.2590 -0.0962 -0.3734
 6310TIP3    H140489   2.470   0.689   8.366 -0.5069  0.8341  0.4542
 6310TIP3    H240490   2.354   0.592   8.381  1.2477 -1.6881 -1.5409
 6311TIP3   OH240491   3.875   1.656   8.054 -0.2767 -0.1373 -0.9096
 6311TIP3    H140492   3.801   1.696   8.101  1.4960  0.3845  1.6604
 6311TIP3    H240493   3.941   1.725   8.052  1.2300 -1.5158 -0.4244
 6312TIP3   OH240494   6.285   6.059   7.882  0.1450  0.1635  0.5453
 6312TIP3    H140495   6.215   6.100   7.833  0.2719  1.1675  1.1784
 6312TIP3    H240496   6.350   6.034   7.816 -0.1642  0.5135  0.1078
 6313TIP3   OH240497   0.423   4.865   1.474 -0.5280  0.1465 -0.5625
 6313TIP3    H140498   0.354   4.803   1.451  0.2018  0.1341 -2.9739
 6313TIP3    H240499   0.439   4.915   1.394 -1.3003  3.7755  1.2892
 6314TIP3   OH240500   1.235   2.698   1.406  0.6820 -0.5047 -0.2035
 6314TIP3    H140501   1.314   2.746   1.382  1.8160 -1.1055  2.0446
 6314TIP3    H240502   1.165   2.763   1.403  2.4876  2.3234  5.2041
 6315TIP3   OH240503   5.167   5.568   1.903 -0.1713  0.2438 -0.3038
 6315TIP3    H140504   5.101   5.575   1.834  1.4462  0.0731 -1.9330
 6315TIP3    H240505   5.170   5.656   1.942 -0.5393  0.5794 -1.0154
 6316TIP3   OH240506   1.574   5.874   2.782  0.2009 -0.0904 -0.7633
 6316TIP3    H140507   1.659   5.838   2.807  0.5860 -1.4259 -3.6022
 6316TIP3    H240508   1.582   5.968   2.800  1.4711 -0.4725  0.9544
 6317TIP3   OH240509   6.778   1.262   7.687 -0.0253  0.1106  0.1065
 6317TIP3    H140510   6.762   1.308   7.770 -0.1173  0.3545 -0.0443
 6317TIP3    H240511   6.847   1.199   7.708  0.7865  0.9761  0.0981
 6318TIP3   OH240512   3.118   2.116   1.216  0.1586  0.0286  0.2686
 6318TIP3    H140513   3.183   2.114   1.287  1.5283  1.8619 -0.8166
 6318TIP3    H240514   3.170   2.131   1.137 -1.3563 -1.5501 -1.1089
 6319TIP3   OH240515   4.404   4.851   6.854  0.0968  0.3781  0.0657
 6319TIP3    H140516   4.417   4.902   6.935  1.7170  0.3845 -0.1831
 6319TIP3    H240517   4.434   4.763   6.876  0.6426  0.4077 -0.5593
 6320TIP3   OH240518   1.898   4.835   7.534 -0.0057 -0.4100  0.0482
 6320TIP3    H140519   1.933   4.803   7.451  0.3883 -2.5591  0.9755
 6320TIP3    H240520   1.826   4.892   7.509 -0.1796 -1.3511 -1.7647
 6321TIP3   OH240521   6.080   6.208   6.911 -0.1334  0.2168  0.5451
 6321TIP3    H140522   6.035   6.132   6.873  0.1399  1.2378 -2.0268
 6321TIP3    H240523   6.009   6.261   6.949 -0.9266  0.7353 -1.5156
 6322TIP3   OH240524   1.160   5.314   2.423  0.0804  0.3582  0.4048
 6322TIP3    H140525   1.221   5.388   2.423  0.1151  0.3303  0.1099
 6322TIP3    H240526   1.089   5.342   2.364  0.6687 -0.3172 -0.6550
 6323TIP3   OH240527   3.218   3.277   0.947  0.4323 -0.2980  0.1307
 6323TIP3    H140528   3.175   3.237   1.023 -1.2345  1.4358  0.1620
 6323TIP3    H240529   3.165   3.354   0.927  1.8607  0.2719 -1.7184
 6324TIP3   OH240530   0.312   4.357   1.268  0.1549 -0.0534 -0.3630
 6324TIP3    H140531   0.386   4.406   1.303 -0.7021 -0.1935  1.8418
 6324TIP3    H240532   0.315   4.273   1.314 -0.5796 -0.6133 -1.2906
 6325TIP3   OH240533   2.606   3.569   2.151  0.3547  0.4497  0.1394
 6325TIP3    H140534   2.617   3.626   2.227  2.0627  0.0204  0.2566
 6325TIP3    H240535   2.563   3.491   2.185 -1.5579  1.3945  0.0670
 6326TIP3   OH240536   2.412   2.278   1.892  0.0485  0.3335  0.2126
 6326TIP3    H140537   2.480   2.212   1.879  0.5993  0.8249  0.5346
 6326TIP3    H240538   2.458   2.353   1.931 -0.4225  1.1887 -0.8336
 6327TIP3   OH240539   5.616   0.254   0.787  0.3130 -0.0162 -0.1673
 6327TIP3    H140540   5.683   0.260   0.855  0.6484 -1.3035 -0.3579
 6327TIP3    H240541   5.594   0.161   0.783  1.7044 -0.3338 -3.1314
 6328TIP3   OH240542   5.423   6.541   0.308 -0.2655 -0.4797 -0.5909
 6328TIP3    H140543   5.511   6.531   0.272  0.1663 -0.6177  0.4857
 6328TIP3    H240544   5.389   6.620   0.266  0.5986 -0.0740 -0.5448
 6329TIP3   OH240545   3.779   1.242   2.823 -0.0333 -0.3778 -0.7994
 6329TIP3    H140546   3.779   1.159   2.871 -0.9474  0.5545  0.9334
 6329TIP3    H240547   3.866   1.279   2.840 -0.1657 -0.2973 -0.2848
 6330TIP3   OH240548   0.529   2.101   7.783  0.4940 -0.0028  0.3833
 6330TIP3    H140549   0.481   2.160   7.726 -1.9534 -1.3712  0.8591
 6330TIP3    H240550   0.483   2.106   7.867  0.8180 -1.7642  0.7237
 6331TIP3   OH240551   6.070   3.596   6.983 -0.1285 -0.4755  0.5960
 6331TIP3    H140552   6.151   3.568   6.940 -1.2023 -0.4042 -1.6043
 6331TIP3    H240553   6.040   3.518   7.030  0.3437 -1.0137  0.0247
 6332TIP3   OH240554   5.370   3.401   7.898  0.2563 -0.4954  0.0603
 6332TIP3    H140555   5.377   3.482   7.948 -0.1094 -0.3041 -0.1881
 6332TIP3    H240556   5.432   3.412   7.826 -2.8278  1.5338 -2.5977
 6333TIP3   OH240557   5.573   5.404   2.279 -0.1758 -0.0587 -0.2133
 6333TIP3    H140558   5.629   5.423   2.204  0.2008  2.0051  0.5240
 6333TIP3    H240559   5.587   5.478   2.338 -0.6798 -1.4820  1.7744
 6334TIP3   OH240560   5.762   1.509   2.581 -0.2733 -0.0298 -0.2616
 6334TIP3    H140561   5.679   1.534   2.621 -0.2478 -0.0833 -0.1746
 6334TIP3    H240562   5.738   1.455   2.506 -0.3349  0.4224 -0.5700
 6335TIP3   OH240563   3.356   5.882   7.508  0.1033  0.0342 -1.0783
 6335TIP3    H140564   3.288   5.933   7.463 -0.1688  1.0025  0.3510
 6335TIP3    H240565   3.421   5.864   7.440 -1.7221 -1.2664 -2.5955
 6336TIP3   OH240566   3.234   5.937   7.748  0.2055  0.1987 -0.3891
 6336TIP3    H140567   3.208   5.869   7.810 -2.1653  0.1721 -1.3242
 6336TIP3    H240568   3.262   5.889   7.670  0.2509  0.2729 -0.4187
 6337TIP3   OH240569   5.383   1.217   7.998  0.2252 -0.6583 -0.9272
 6337TIP3    H140570   5.352   1.295   8.043  0.9757 -0.5203 -0.6268
 6337TIP3    H240571   5.478   1.231   7.990  0.2674 -1.2298 -1.4728
 6338TIP3   OH240572   0.225   4.541   2.493 -0.2643  0.1791 -0.9372
 6338TIP3    H140573   0.306   4.590   2.509  0.9457 -1.8536 -0.3505
 6338TIP3    H240574   0.162   4.578   2.554  1.7501 -1.5228  2.5161
 6339TIP3   OH240575   6.099   3.349   7.714  0.3063  0.1145  0.0030
 6339TIP3    H140576   6.139   3.373   7.797  2.5698  3.1233 -1.7109
 6339TIP3    H240577   6.173   3.337   7.654 -1.2458 -0.9717 -1.8242
 6340TIP3   OH240578   6.596   0.971   2.535  0.6169  0.3374 -0.4115
 6340TIP3    H140579   6.655   0.896   2.531 -0.4128 -0.5075 -0.1507
 6340TIP3    H240580   6.582   0.986   2.629  0.4936  0.5942 -0.4692
 6341TIP3   OH240581   3.141   2.928   1.807 -0.1053  0.6667  0.3616
 6341TIP3    H140582   3.075   2.936   1.738 -0.7719 -1.0858  0.7487
 6341TIP3    H240583   3.177   3.016   1.816  2.2060  0.5488 -4.3617
 6342TIP3   OH240584   2.626   3.553   1.233  0.6268  0.9875 -0.0743
 6342TIP3    H140585   2.557   3.489   1.247  2.0334 -0.1650  2.1931
 6342TIP3    H240586   2.639   3.554   1.138  1.0544 -2.7187 -0.1953
 6343TIP3   OH240587   1.489   5.253   0.994  0.2671  0.2215 -0.2948
 6343TIP3    H140588   1.571   5.301   0.990  0.0045  0.6129 -1.1565
 6343TIP3    H240589   1.507   5.169   0.952  0.3096  0.1813 -0.1963
 6344TIP3   OH240590   6.464   6.225   8.104 -0.1881  0.1029 -0.4602
 6344TIP3    H140591   6.523   6.272   8.046 -1.3180  0.0781 -1.6649
 6344TIP3    H240592   6.383   6.218   8.055 -1.2130  0.1612  1.1730
 6345TIP3   OH240593   4.837   0.191   0.554  0.0213 -0.3964 -0.3832
 6345TIP3    H140594   4.898   0.179   0.482 -0.4661  0.2727 -0.9217
 6345TIP3    H240595   4.889   0.176   0.633  0.6421 -0.7766 -0.8625
 6346TIP3   OH240596   2.643   3.189   1.585 -0.0028 -0.5054  0.2591
 6346TIP3    H140597   2.561   3.204   1.538  0.1246  0.9385  0.4468
 6346TIP3    H240598   2.617   3.141   1.664 -0.0588 -4.2072 -1.7978
 6347TIP3   OH240599   1.964   5.278   8.059  0.5162 -0.4969  0.0032
 6347TIP3    H140600   2.007   5.192   8.065  0.2252 -0.7319 -1.1207
 6347TIP3    H240601   1.896   5.266   7.993  0.2907  0.5304  0.0419
 6348TIP3   OH240602   0.781   5.943   2.695 -0.1584  0.2266  0.1513
 6348TIP3    H140603   0.752   5.873   2.637  0.8058  0.6514 -0.8658
 6348TIP3    H240604   0.818   5.897   2.771 -0.4745 -0.3382 -0.0289
 6349TIP3   OH240605   1.705   4.525   1.276 -0.4281 -0.4973 -0.2644
 6349TIP3    H140606   1.796   4.512   1.304 -0.4531  1.1855  0.7442
 6349TIP3    H240607   1.679   4.441   1.240  0.6685 -1.8470  1.9054
 6350TIP3   OH240608   6.369   2.846   0.442 -0.5989 -0.0435 -0.8892
 6350TIP3    H140609   6.343   2.887   0.526  1.0548  0.4729 -0.5985
 6350TIP3    H240610   6.293   2.859   0.386 -1.3934  0.4518  0.2436
 6351TIP3   OH240611   2.932   6.800   2.036  0.5102 -0.1977  0.7557
 6351TIP3    H140612   2.954   6.709   2.057 -0.5702 -0.2700  1.6397
 6351TIP3    H240613   2.996   6.852   2.084  1.2857 -0.4865  0.0547
 6352TIP3   OH240614   2.780   2.151   0.077  0.7446  0.5404  0.2545
 6352TIP3    H140615   2.724   2.091   0.127 -0.7705  0.4263 -1.4645
 6352TIP3    H240616   2.859   2.100   0.059 -0.0359 -0.5606 -0.1954
 6353TIP3   OH240617   3.795   6.245   1.254  0.3775 -0.1662 -0.4001
 6353TIP3    H140618   3.873   6.211   1.210  0.5850  1.6662 -1.5275
 6353TIP3    H240619   3.762   6.313   1.196 -0.7576  0.6607  1.1440
 6354TIP3   OH240620   2.065   5.176   0.483 -1.0271 -0.0045 -0.2313
 6354TIP3    H140621   1.975   5.146   0.472 -0.7159 -1.4097  0.8256
 6354TIP3    H240622   2.111   5.101   0.521  0.9308  0.1777 -2.0258
 6355TIP3   OH240623   1.560   4.046   7.959 -0.6169  0.7551  0.0546
 6355TIP3    H140624   1.549   4.048   8.054  0.1024 -1.7067  0.2469
 6355TIP3    H240625   1.652   4.025   7.946 -1.0290 -0.3969 -1.1530
 6356TIP3   OH240626   4.155   4.801   1.531 -0.0650  0.1730  0.1360
 6356TIP3    H140627   4.183   4.750   1.455 -1.9007  2.0235 -1.9153
 6356TIP3    H240628   4.117   4.736   1.590 -2.5197 -0.9921 -2.4663
 6357TIP3   OH240629   1.696   4.037   1.254  0.2680 -0.7772  0.1504
 6357TIP3    H140630   1.637   3.965   1.274  1.7590 -1.5499  2.0440
 6357TIP3    H240631   1.709   4.081   1.338 -0.3657  1.5747 -0.8899
 6358TIP3   OH240632   2.936   6.306   7.377 -0.8934  0.3337  0.2101
 6358TIP3    H140633   2.888   6.233   7.339  2.0042 -1.4549 -0.3293
 6358TIP3    H240634   3.005   6.325   7.314  0.7594  0.9360  2.0965
 6359TIP3   OH240635   4.378   0.895   1.556  0.6301  0.2543  0.2574
 6359TIP3    H140636   4.338   0.982   1.553  2.3134  1.0572  0.3521
 6359TIP3    H240637   4.386   0.875   1.649  1.2003  0.4624  0.2562
 6360TIP3   OH240638   3.197   4.610   1.339 -0.0172 -0.2103  0.2381
 6360TIP3    H140639   3.188   4.652   1.253  1.3288  0.7992  0.5621
 6360TIP3    H240640   3.107   4.591   1.365 -0.4421 -0.9467 -1.5757
 6361TIP3   OH240641   5.290   5.744   2.758  0.3810 -0.1105  0.5279
 6361TIP3    H140642   5.207   5.784   2.782  0.7995 -0.0708  2.0170
 6361TIP3    H240643   5.333   5.725   2.842  2.3664  0.9176 -0.1806
 6362TIP3   OH240644   3.216   2.254   1.469 -0.0306  0.3278 -0.2607
 6362TIP3    H140645   3.259   2.317   1.527 -0.4755  1.5196 -1.2117
 6362TIP3    H240646   3.123   2.267   1.484 -0.1448  0.6140 -1.2254
 6363TIP3   OH240647   3.723   6.906   2.861  0.4997 -0.1006  0.3533
 6363TIP3    H140648   3.728   6.958   2.942 -0.3294  2.7959 -1.3248
 6363TIP3    H240649   3.806   6.922   2.816  0.5229 -0.8454  0.1057
 6364TIP3   OH240650   3.249   1.341   1.725  0.7773  0.5166  0.1071
 6364TIP3    H140651   3.175   1.281   1.736 -0.1691  0.9581 -2.9215
 6364TIP3    H240652   3.320   1.284   1.695 -0.4500  0.8207 -3.9474
 6365TIP3   OH240653   0.221   6.850   0.494  0.6374 -0.0091 -0.1124
 6365TIP3    H140654   0.252   6.807   0.574  0.9294 -0.1361 -0.2922
 6365TIP3    H240655   0.253   6.794   0.423 -0.9355 -0.7603 -0.2756
 6366TIP3   OH240656   3.683   0.151   8.137  0.4509 -0.0662 -0.3112
 6366TIP3    H140657   3.683   0.089   8.210 -0.8487  1.5238  1.1316
 6366TIP3    H240658   3.767   0.196   8.143  0.3323  0.0871  0.2522
 6367TIP3   OH240659   3.228   6.429   0.249 -0.1966  0.0608 -0.2301
 6367TIP3    H140660   3.160   6.383   0.298  0.2498  0.3436  0.6920
 6367TIP3    H240661   3.185   6.456   0.168 -0.7254 -1.1412 -0.3733
 6368TIP3   OH240662   5.450   4.540   2.399 -1.1957  0.7152  0.1826
 6368TIP3    H140663   5.387   4.522   2.468 -0.8164 -2.0507 -0.0636
 6368TIP3    H240664   5.535   4.534   2.442 -0.9763  3.0796  0.2297
 6369TIP3   OH240665   6.213   4.205   2.433 -0.0478 -0.1671 -0.3693
 6369TIP3    H140666   6.208   4.276   2.368 -0.9875 -0.6911 -0.8803
 6369TIP3    H240667   6.301   4.214   2.471  0.5855  0.0522 -1.8289
 6370TIP3   OH240668   5.048   4.174   0.383  0.2406 -0.4791 -0.6113
 6370TIP3    H140669   5.002   4.119   0.447  0.7314 -0.4624 -0.2393
 6370TIP3    H240670   4.999   4.256   0.382 -0.4202 -0.8725 -1.0732
 6371TIP3   OH240671   5.843   2.273   8.127 -0.0418 -0.1493 -0.2787
 6371TIP3    H140672   5.916   2.290   8.067  0.6174 -0.5629  0.3957
 6371TIP3    H240673   5.813   2.185   8.104  0.1120 -0.2483 -0.0950
 6372TIP3   OH240674   4.502   0.247   0.885  0.3250 -0.0620 -0.0530
 6372TIP3    H140675   4.409   0.247   0.861  0.5622  0.5434 -1.0381
 6372TIP3    H240676   4.520   0.337   0.913  0.7262 -0.0399 -0.3641
 6373TIP3   OH240677   3.477   1.849   2.379 -0.4663  0.3635 -0.4730
 6373TIP3    H140678   3.547   1.789   2.355  0.5419  1.3323  0.0047
 6373TIP3    H240679   3.497   1.876   2.469  0.0558  2.6753 -1.2044
 6374TIP3   OH240680   1.429   5.194   7.110  0.1979  0.6704  0.0824
 6374TIP3    H140681   1.449   5.284   7.084 -0.6513  0.8341 -0.0424
 6374TIP3    H240682   1.383   5.158   7.035  0.1893  0.2513  0.2888
 6375TIP3   OH240683   6.411   4.023   2.671 -0.1263  0.3213  0.2073
 6375TIP3    H140684   6.366   4.091   2.721  1.4343  0.1755  1.9414
 6375TIP3    H240685   6.461   4.070   2.604 -0.3852  0.7395  0.3100
 6376TIP3   OH240686   1.180   0.141   1.898  0.1167 -0.0228  0.6754
 6376TIP3    H140687   1.226   0.068   1.940 -0.0715 -0.3403  0.3290
 6376TIP3    H240688   1.239   0.171   1.830 -0.4658 -0.8833 -0.2374
 6377TIP3   OH240689   2.091   5.638   1.139  0.0873  0.2342  0.0306
 6377TIP3    H140690   2.099   5.687   1.220  1.4973  1.0818 -0.5710
 6377TIP3    H240691   2.181   5.624   1.110 -0.3197  2.2027 -2.6604
 6378TIP3   OH240692   4.074   2.472   1.408 -0.6481 -0.1206  0.4888
 6378TIP3    H140693   3.982   2.450   1.417 -0.8288  0.5976  0.4358
 6378TIP3    H240694   4.120   2.406   1.460 -1.1887 -0.4573  0.5423
 6379TIP3   OH240695   5.437   0.236   1.331  0.3380 -0.1870 -0.0194
 6379TIP3    H140696   5.406   0.150   1.302  0.4058 -0.2259  0.0266
 6379TIP3    H240697   5.357   0.289   1.335 -0.2020 -1.0738  2.9906
 6380TIP3   OH240698   3.067   2.310   1.744  0.4188  0.3652  0.1632
 6380TIP3    H140699   2.976   2.292   1.768  0.3197  1.0330  0.3269
 6380TIP3    H240700   3.108   2.224   1.735 -0.0807  0.0715  0.6636
 6381TIP3   OH240701   3.696   5.550   2.310 -0.4092 -0.5886  0.5508
 6381TIP3    H140702   3.720   5.630   2.262 -0.6986 -0.7576  0.1162
 6381TIP3    H240703   3.676   5.580   2.398 -0.5084 -0.1814  0.3942
 6382TIP3   OH240704   2.920   0.625   2.969  0.2099 -0.0653 -0.0885
 6382TIP3    H140705   2.884   0.563   3.033 -0.9361  0.0450 -0.5984
 6382TIP3    H240706   2.905   0.711   3.009 -0.5596  0.0072 -0.5040
 6383TIP3   OH240707   6.487   6.219   0.969  0.3617 -0.0981  0.2872
 6383TIP3    H140708   6.494   6.281   0.896 -0.0445 -2.0362 -1.5108
 6383TIP3    H240709   6.556   6.244   1.029  0.1966  2.0819 -0.3556
 6384TIP3   OH240710   3.265   1.053   0.557 -0.1589 -0.5712  0.0733
 6384TIP3    H140711   3.215   1.037   0.477  1.9803 -0.5569 -1.3386
 6384TIP3    H240712   3.321   0.976   0.566  0.6196  0.0645  0.7752
 6385TIP3   OH240713   5.726   6.266   0.021  0.1936 -0.2122  0.3931
 6385TIP3    H140714   5.661   6.205  -0.012 -0.9319  1.3607 -0.4263
 6385TIP3    H240715   5.776   6.216   0.086  1.1693 -2.8503 -2.1551
 6386TIP3   OH240716   2.540   1.174   8.130  0.0380 -0.7871 -0.4736
 6386TIP3    H140717   2.582   1.255   8.158 -0.5552 -0.7838  0.4227
 6386TIP3    H240718   2.573   1.108   8.190 -0.6986 -0.9130 -0.2008
 6387TIP3   OH240719   1.466   2.259   1.346 -0.6977  0.1646 -0.2592
 6387TIP3    H140720   1.386   2.311   1.355 -0.6822  0.0095  0.9632
 6387TIP3    H240721   1.441   2.171   1.374 -0.3149 -0.1057 -0.7460
 6388TIP3   OH240722   2.553   2.606   1.179  0.0717  0.1210  0.0590
 6388TIP3    H140723   2.503   2.588   1.258  1.0151  0.0679  0.6614
 6388TIP3    H240724   2.540   2.529   1.124 -1.4844  0.6321 -0.3351
 6389TIP3   OH240725   3.452   1.612   1.195  0.3255 -0.1251  0.6210
 6389TIP3    H140726   3.492   1.634   1.279  0.8838  0.4633  0.2030
 6389TIP3    H240727   3.513   1.550   1.154  0.2787 -0.0547  0.4450
 6390TIP3   OH240728   6.716   3.290   2.023  0.2448  0.6963 -0.6607
 6390TIP3    H140729   6.674   3.330   1.947  0.0324  0.1133 -0.8552
 6390TIP3    H240730   6.787   3.237   1.986 -1.2473 -1.4046 -0.6720
 6391TIP3   OH240731   0.908   5.134   0.712  0.0882  0.6640 -0.1515
 6391TIP3    H140732   0.885   5.044   0.737  1.1162  0.0568 -1.2535
 6391TIP3    H240733   0.971   5.162   0.778 -1.2954  1.1310  1.0132
 6392TIP3   OH240734   1.700   5.714   7.039  0.6064 -0.9286  0.0686
 6392TIP3    H140735   1.707   5.736   6.946 -1.1911  0.8976  0.2991
 6392TIP3    H240736   1.785   5.738   7.076  0.0449  2.2400 -0.4462
 6393TIP3   OH240737   1.244   0.985   0.301  0.1641 -0.2530  0.2321
 6393TIP3    H140738   1.180   0.933   0.253  0.7193  1.1491 -2.1798
 6393TIP3    H240739   1.305   0.920   0.338 -0.4728 -1.4172 -0.6960
 6394TIP3   OH240740   6.383   4.652   2.035  0.2173 -0.5412 -0.0367
 6394TIP3    H140741   6.307   4.649   1.977 -0.3746 -1.3243  0.7482
 6394TIP3    H240742   6.359   4.716   2.102  0.8658  0.2994 -0.5838
 6395TIP3   OH240743   4.484   0.237   1.566 -0.3095 -0.3076  0.3287
 6395TIP3    H140744   4.422   0.185   1.617  0.6867 -1.2787  0.5818
 6395TIP3    H240745   4.537   0.173   1.519 -0.5337  0.5483 -1.1495
 6396TIP3   OH240746   5.347   0.247   0.081  0.1085  0.4438  0.1348
 6396TIP3    H140747   5.343   0.325   0.026 -1.3118 -0.7829 -1.6025
 6396TIP3    H240748   5.256   0.217   0.087  0.6640 -1.2814  0.4484
 6397TIP3   OH240749   2.809   0.551   2.734  0.3639  0.9551  0.3660
 6397TIP3    H140750   2.747   0.488   2.772  1.2021  1.0179  1.8877
 6397TIP3    H240751   2.859   0.584   2.808  0.5099  2.8181 -0.5094
 6398TIP3   OH240752   4.605   2.917   8.267 -0.0925 -0.2447  0.2149
 6398TIP3    H140753   4.557   2.937   8.347  1.1157 -0.6243  1.0778
 6398TIP3    H240754   4.545   2.939   8.196 -0.6152  1.6420  1.1752
 6399TIP3   OH240755   0.862   2.521   1.466  0.0328 -0.2770  0.3325
 6399TIP3    H140756   0.901   2.434   1.454  0.7169  0.2375 -1.5964
 6399TIP3    H240757   0.811   2.535   1.386  1.9511  2.0823 -0.5852
 6400TIP3   OH240758   4.158   4.193   0.317  0.0357 -0.2236 -0.0432
 6400TIP3    H140759   4.107   4.256   0.266 -0.7076 -0.8540 -0.0807
 6400TIP3    H240760   4.094   4.151   0.374  0.5254 -0.9535 -0.0252
 6401TIP3   OH240761   2.310   4.071   2.170  0.0353 -0.5648 -0.3248
 6401TIP3    H140762   2.293   4.102   2.081 -1.4121 -0.1395  0.0778
 6401TIP3    H240763   2.275   3.982   2.171  0.1001 -0.5882 -0.1891
 6402TIP3   OH240764   6.282   1.699   8.130  0.6130  0.0332 -0.3584
 6402TIP3    H140765   6.330   1.637   8.075 -0.8852  0.1947 -1.9035
 6402TIP3    H240766   6.194   1.700   8.094 -0.5309 -0.0250  2.2011
 6403TIP3   OH240767   5.227   6.028   0.917  0.2679 -1.3831  0.1978
 6403TIP3    H140768   5.269   5.960   0.970 -0.1618 -2.6943 -1.0640
 6403TIP3    H240769   5.136   6.000   0.911 -0.2469  0.0871  0.8209
 6404TIP3   OH240770   1.304   5.041   1.404 -0.4872 -0.3493 -0.0161
 6404TIP3    H140771   1.305   5.058   1.498  1.0946 -1.0858  0.1228
 6404TIP3    H240772   1.394   5.020   1.382 -0.8811 -0.4575 -1.6621
 6405TIP3   OH240773   5.672   3.270   7.266 -0.1178 -0.7713 -0.8242
 6405TIP3    H140774   5.632   3.184   7.250 -1.5039 -0.1459 -0.8530
 6405TIP3    H240775   5.604   3.333   7.243  0.1109  0.3012  1.2226
 6406TIP3   OH240776   4.184   2.418   8.068 -0.1827 -0.0757 -0.2300
 6406TIP3    H140777   4.205   2.507   8.098  0.8448 -0.3967  0.0600
 6406TIP3    H240778   4.212   2.417   7.977 -0.3088 -0.0684 -0.2691
 6407TIP3   OH240779   2.791   1.371   2.712  0.1719  0.1661  0.5603
 6407TIP3    H140780   2.717   1.424   2.681 -1.4962 -1.5898  1.3622
 6407TIP3    H240781   2.804   1.306   2.643  0.7514  0.2437  0.5923
 6408TIP3   OH240782   2.270   2.711   0.981  0.2054 -0.6261 -0.5192
 6408TIP3    H140783   2.357   2.751   0.982 -0.0679  0.1310  2.2256
 6408TIP3    H240784   2.258   2.679   1.071 -1.6385 -2.3819 -1.3133
 6409TIP3   OH240785   4.364   6.107   7.867 -0.7456 -0.2428  0.1921
 6409TIP3    H140786   4.327   6.086   7.781 -1.1128 -0.2780  0.3562
 6409TIP3    H240787   4.339   6.199   7.881 -0.1383 -0.0389 -0.0165
 6410TIP3   OH240788   6.527   6.757   7.254 -0.4780  0.1912  0.8182
 6410TIP3    H140789   6.474   6.830   7.284  0.0380  0.5756  0.8009
 6410TIP3    H240790   6.610   6.765   7.302  0.7138  1.3431 -1.2727
 6411TIP3   OH240791   5.964   0.893   0.467 -0.4507 -0.1518  0.0494
 6411TIP3    H140792   6.015   0.882   0.387 -0.6237  0.5187 -0.1575
 6411TIP3    H240793   5.905   0.818   0.469 -1.9423  0.8899 -1.5789
 6412TIP3   OH240794   4.818   1.189   2.342 -0.0075  0.3344 -0.0546
 6412TIP3    H140795   4.742   1.141   2.310 -0.0086 -0.4968  1.1299
 6412TIP3    H240796   4.882   1.185   2.270 -0.2232 -0.9668 -0.1908
 6413TIP3   OH240797   0.915   6.744   1.939 -0.1040 -0.2927 -0.2236
 6413TIP3    H140798   0.861   6.780   2.010 -0.5192 -1.4459  0.0658
 6413TIP3    H240799   0.965   6.674   1.980  1.8393  0.9068 -0.4395
 6414TIP3   OH240800   1.340   6.028   8.066  0.3106  0.4752  0.8554
 6414TIP3    H140801   1.353   6.077   8.148  0.0125 -1.1066  1.9041
 6414TIP3    H240802   1.419   6.045   8.015  0.1154  2.2192  1.0511
 6415TIP3   OH240803   4.783   6.600   2.014  0.3174 -0.3561 -0.5600
 6415TIP3    H140804   4.830   6.556   1.944  0.5254 -0.6649 -0.2255
 6415TIP3    H240805   4.850   6.649   2.062  0.0957  0.3102 -0.9088
 6416TIP3   OH240806   4.074   5.408   2.743 -0.1957  0.4865  0.1458
 6416TIP3    H140807   4.160   5.374   2.766  0.7663  0.0547 -3.4548
 6416TIP3    H240808   4.012   5.351   2.788  1.4086 -0.7418  0.8635
 6417TIP3   OH240809   2.927   0.284   1.447 -0.2745  0.3154  0.2909
 6417TIP3    H140810   2.860   0.225   1.413 -1.2031  2.3530 -1.6613
 6417TIP3    H240811   2.878   0.361   1.477  1.0927  1.7223 -0.8908
 6418TIP3   OH240812   4.335   1.978   3.178 -0.1030 -0.0650 -0.2899
 6418TIP3    H140813   4.242   1.962   3.190 -0.3886  0.9156 -1.0240
 6418TIP3    H240814   4.375   1.959   3.263 -1.2866  1.6200  0.6963
 6419TIP3   OH240815   0.085   2.455   7.736 -0.0326  0.3519 -0.2243
 6419TIP3    H140816   0.093   2.469   7.831 -0.1756  4.7374 -0.6565
 6419TIP3    H240817  -0.007   2.431   7.724 -0.0980  0.0652  0.7443
 6420TIP3   OH240818   1.124   2.775   7.747 -0.8356 -1.1703 -0.0746
 6420TIP3    H140819   1.110   2.682   7.735  1.8393 -1.8464  1.2501
 6420TIP3    H240820   1.119   2.788   7.842 -0.1456 -0.1674 -0.1577
 6421TIP3   OH240821   0.660   3.028   2.552 -0.1871 -0.4124 -0.5565
 6421TIP3    H140822   0.753   3.037   2.572 -0.4820  2.0644  0.0094
 6421TIP3    H240823   0.615   3.043   2.635 -1.1589  0.8630 -1.2768
 6422TIP3   OH240824   6.628   0.018   6.756  0.1589 -0.1009  0.0643
 6422TIP3    H140825   6.663   0.107   6.756  1.6823 -0.6429 -1.1998
 6422TIP3    H240826   6.583   0.010   6.840  0.1022  1.8045  0.2641
 6423TIP3   OH240827   4.032   5.818   1.362  0.0101  0.2605 -0.1584
 6423TIP3    H140828   4.019   5.761   1.438  0.0354  0.5569  0.0690
 6423TIP3    H240829   4.066   5.900   1.399 -1.9443  1.1685 -0.2308
 6424TIP3   OH240830   6.170   0.359   0.955  0.1019  0.4593 -0.0094
 6424TIP3    H140831   6.228   0.291   0.920  0.2346  0.8191 -0.4882
 6424TIP3    H240832   6.139   0.406   0.878 -1.5053 -0.2527  0.1700
 6425TIP3   OH240833   3.741   6.650   2.278  0.1424 -0.5483 -0.1239
 6425TIP3    H140834   3.791   6.572   2.302  0.5303 -0.5875 -1.0482
 6425TIP3    H240835   3.765   6.668   2.188 -1.6374 -0.6573 -0.6653
 6426TIP3   OH240836   3.192   0.321   0.888  0.3904  1.2624 -0.0430
 6426TIP3    H140837   3.125   0.352   0.948  0.0546 -0.9762  0.8441
 6426TIP3    H240838   3.260   0.284   0.944  1.4197  1.6508 -0.9856
 6427TIP3   OH240839   2.020   0.468   7.181 -0.0262 -0.0739  0.2662
 6427TIP3    H140840   2.019   0.393   7.241  0.8348 -1.2418 -1.1044
 6427TIP3    H240841   2.108   0.505   7.191  0.3554 -0.6867 -0.7369
 6428TIP3   OH240842   5.144   0.313   6.961  0.1710  0.1940  0.2758
 6428TIP3    H140843   5.194   0.385   6.999  1.2977 -1.0773  1.2566
 6428TIP3    H240844   5.196   0.235   6.977 -1.4731 -1.0030  0.0942
 6429TIP3   OH240845   4.037   2.015   7.632 -0.5584  0.9069 -0.3969
 6429TIP3    H140846   4.063   2.105   7.612  0.8057  0.7883  0.6939
 6429TIP3    H240847   3.990   1.986   7.554 -2.8462  3.1937 -0.0109
 6430TIP3   OH240848   0.836   4.075   2.670 -0.0254 -0.1298  0.2820
 6430TIP3    H140849   0.743   4.053   2.664  0.1098 -1.0526  1.2348
 6430TIP3    H240850   0.861   4.046   2.757  1.0235  0.6747  0.2632
 6431TIP3   OH240851   4.423   0.745   1.824 -0.1402  0.2324  0.6961
 6431TIP3    H140852   4.347   0.788   1.862  0.6319  1.3356  1.0159
 6431TIP3    H240853   4.403   0.651   1.830 -0.8856  0.4551  2.0252
 6432TIP3   OH240854   4.958   1.099   1.340  0.5182  0.0158 -0.6907
 6432TIP3    H140855   4.991   1.015   1.372 -0.5886 -0.1235  0.1434
 6432TIP3    H240856   5.001   1.111   1.255  1.4796 -0.8880 -0.3486
 6433TIP3   OH240857   1.105   6.567   7.918 -0.3701  0.4043  0.2234
 6433TIP3    H140858   1.124   6.476   7.896 -1.8446  0.2930 -0.7836
 6433TIP3    H240859   1.009   6.569   7.926 -0.3781  1.9309 -0.0646
 6434TIP3   OH240860   1.087   4.246   0.782  0.4405 -0.1669  0.4501
 6434TIP3    H140861   1.134   4.228   0.863  1.1283 -1.6041 -0.2226
 6434TIP3    H240862   1.005   4.196   0.789  0.9960 -1.2042 -0.1696
 6435TIP3   OH240863   3.461   4.282   2.374  0.1667 -0.3275 -0.1801
 6435TIP3    H140864   3.438   4.353   2.433  0.3781  0.1331 -0.6387
 6435TIP3    H240865   3.379   4.261   2.329  0.0430 -0.5631  0.1558
 6436TIP3   OH240866   3.290   3.880   7.610 -0.8305 -0.0036  0.3128
 6436TIP3    H140867   3.318   3.796   7.573 -0.2517  0.1561  0.3683
 6436TIP3    H240868   3.195   3.877   7.608 -0.8440  0.1771 -1.6368
 6437TIP3   OH240869   3.984   1.985   1.649 -0.2931 -0.4525  0.7038
 6437TIP3    H140870   3.985   1.921   1.577 -0.8972  0.0950  0.1887
 6437TIP3    H240871   4.073   1.984   1.683  0.4012  0.2422 -0.9535
 6438TIP3   OH240872   4.945   3.367   0.056  0.0454 -0.3471 -0.2144
 6438TIP3    H140873   5.039   3.348   0.053  0.0576 -0.2784 -0.2867
 6438TIP3    H240874   4.909   3.302   0.116 -0.0866 -1.3424 -1.3192
 6439TIP3   OH240875   1.906   2.809   2.153  0.3199  0.4921 -0.0626
 6439TIP3    H140876   1.883   2.860   2.074 -1.6934  1.5241  1.0820
 6439TIP3    H240877   1.995   2.837   2.174  0.4689  1.0680 -1.3193
 6440TIP3   OH240878   4.814   1.036   7.871 -0.4144 -0.0980  0.4841
 6440TIP3    H140879   4.820   1.071   7.959 -1.7979  0.2236  0.4641
 6440TIP3    H240880   4.772   1.105   7.820  0.9634  0.0010 -0.6049
 6441TIP3   OH240881   6.640   2.919   0.918  0.2072  0.4337 -0.5746
 6441TIP3    H140882   6.572   2.964   0.966 -0.3025 -0.9458  0.0521
 6441TIP3    H240883   6.722   2.959   0.949 -0.1611  0.1758  0.7881
 6442TIP3   OH240884   2.204   3.826   7.250  0.1101 -0.1348  0.6204
 6442TIP3    H140885   2.215   3.744   7.202 -2.3207 -0.0622 -0.2226
 6442TIP3    H240886   2.145   3.878   7.196 -0.3824  1.1618  2.2949
 6443TIP3   OH240887   4.723   4.895   7.478 -0.6958 -0.3017  0.0632
 6443TIP3    H140888   4.763   4.821   7.432  0.3411  0.5558 -0.4718
 6443TIP3    H240889   4.700   4.957   7.409  0.5272  0.8422  0.6303
 6444TIP3   OH240890   2.494   0.445   7.753  0.3062 -0.5049  0.3348
 6444TIP3    H140891   2.449   0.448   7.668 -0.3876 -1.0670  0.6758
 6444TIP3    H240892   2.508   0.351   7.769 -1.6860 -0.5781  1.9333
 6445TIP3   OH240893   6.706   6.573   0.586  0.2949  0.2095  0.4978
 6445TIP3    H140894   6.709   6.532   0.499 -0.3642 -2.1158  1.4979
 6445TIP3    H240895   6.667   6.659   0.570 -0.3928 -0.4051 -1.4264
 6446TIP3   OH240896   4.408   1.759   2.946 -0.5500 -0.0116  0.0196
 6446TIP3    H140897   4.398   1.782   3.038  0.2415  0.2700  0.0376
 6446TIP3    H240898   4.357   1.826   2.899 -3.0498 -1.5502  0.3341
 6447TIP3   OH240899   3.840   4.262   1.193  0.3422  0.2901 -0.1659
 6447TIP3    H140900   3.909   4.304   1.143  0.5683  1.1960  0.8639
 6447TIP3    H240901   3.783   4.221   1.128  1.6121 -0.1234 -1.0504
 6448TIP3   OH240902   4.157   2.865   0.471  0.5673  0.1427 -0.3438
 6448TIP3    H140903   4.114   2.790   0.511  1.3457 -0.5346 -0.7457
 6448TIP3    H240904   4.168   2.841   0.379  2.2521  0.0561 -0.1578
 6449TIP3   OH240905   3.193   6.708   7.028  0.8674 -0.2232  0.0093
 6449TIP3    H140906   3.221   6.775   6.966  1.4030 -0.1371  0.3387
 6449TIP3    H240907   3.256   6.637   7.017  0.7704 -0.3430  0.2174
 6450TIP3   OH240908   3.915   2.994   1.599  0.0399 -0.4251  0.3394
 6450TIP3    H140909   3.892   3.085   1.584 -0.2140 -0.7610 -1.5241
 6450TIP3    H240910   3.907   2.982   1.694 -1.9845  0.9211  0.3925
 6451TIP3   OH240911   1.555   3.124   0.501 -0.1713 -1.1981  0.2829
 6451TIP3    H140912   1.540   3.113   0.595  0.4294 -1.5156  0.3451
 6451TIP3    H240913   1.650   3.123   0.492 -0.0160  2.4890  0.1078
 6452TIP3   OH240914   3.855   3.897   2.519 -0.3060  0.0242  0.1417
 6452TIP3    H140915   3.791   3.839   2.561 -1.5632  1.7396  0.7177
 6452TIP3    H240916   3.940   3.857   2.538 -1.1191 -1.7486  0.2911
 6453TIP3   OH240917   3.865   3.210   7.675 -0.2557  0.0384  0.4995
 6453TIP3    H140918   3.907   3.156   7.609 -2.2148  0.2102 -0.9574
 6453TIP3    H240919   3.838   3.148   7.743 -0.4705 -0.5107 -0.0747
 6454TIP3   OH240920   2.354   0.450   0.238  0.6688 -0.0406  0.1604
 6454TIP3    H140921   2.407   0.379   0.274 -0.4348 -0.1036  1.7263
 6454TIP3    H240922   2.354   0.517   0.306 -0.6614  0.2503 -0.1022
 6455TIP3   OH240923   4.667   6.278   2.443 -0.4061  0.0197 -0.4171
 6455TIP3    H140924   4.714   6.356   2.472  0.0252 -0.3228 -0.1733
 6455TIP3    H240925   4.608   6.257   2.516  0.4544 -0.6611  0.1089
 6456TIP3   OH240926   3.762   5.503   1.351 -0.2037  0.3373 -0.7399
 6456TIP3    H140927   3.721   5.542   1.428 -0.9234 -0.0612 -0.9111
 6456TIP3    H240928   3.782   5.413   1.377 -2.0508 -0.3454 -1.5584
 6457TIP3   OH240929   6.346   3.271   0.293 -0.1051  0.3874 -0.0265
 6457TIP3    H140930   6.251   3.261   0.300  0.1880 -3.3796  0.7857
 6457TIP3    H240931   6.366   3.349   0.345 -2.4339 -1.0074  3.2724
 6458TIP3   OH240932   5.065   0.375   3.179 -0.2184 -0.1026  0.3295
 6458TIP3    H140933   5.100   0.363   3.267  0.1243 -1.1705  0.0633
 6458TIP3    H240934   5.140   0.403   3.127 -0.0838 -0.9039  0.0795
 6459TIP3   OH240935   6.484   5.223   1.023  0.8188 -1.0424  0.6430
 6459TIP3    H140936   6.516   5.161   1.088  0.0525  0.8037  2.9069
 6459TIP3    H240937   6.521   5.307   1.050 -0.6447  0.0108 -0.4879
 6460TIP3   OH240938   3.630   0.713   7.319  0.4823  0.5283 -0.1852
 6460TIP3    H140939   3.720   0.689   7.296  0.6178 -1.0976  1.7528
 6460TIP3    H240940   3.575   0.657   7.262  0.6873  1.1239 -0.9795
 6461TIP3   OH240941   1.313   5.705   1.166  0.0833 -0.5140 -0.2671
 6461TIP3    H140942   1.282   5.702   1.075 -0.5678  3.2198 -0.3284
 6461TIP3    H240943   1.395   5.753   1.161  0.5399 -1.1366  1.0412
 6462TIP3   OH240944   3.663   6.591   0.753 -0.4609 -0.3547 -0.6054
 6462TIP3    H140945   3.737   6.611   0.810 -0.6693 -1.7909  0.2315
 6462TIP3    H240946   3.587   6.632   0.796 -0.1012  1.6143 -1.7691
 6463TIP3   OH240947   2.956   4.055   0.933  0.0081 -0.1995 -0.4463
 6463TIP3    H140948   3.018   4.105   0.881 -0.6592 -0.6656 -1.7296
 6463TIP3    H240949   2.976   4.079   1.024  1.6415  0.1101 -0.8587
 6464TIP3   OH240950   0.698   4.723   1.310 -0.0664 -0.3491 -0.2445
 6464TIP3    H140951   0.770   4.754   1.256 -1.1301  0.9750 -0.9962
 6464TIP3    H240952   0.711   4.765   1.395  1.1967 -1.8361  0.3344
 6465TIP3   OH240953   5.331   2.259   2.140  0.2920  0.6346  0.1350
 6465TIP3    H140954   5.315   2.315   2.216  0.1830 -0.6265  1.0847
 6465TIP3    H240955   5.394   2.307   2.086  0.2567  1.6161  0.9560
 6466TIP3   OH240956   4.498   4.522   8.003 -0.0838 -0.1280  0.1468
 6466TIP3    H140957   4.508   4.429   8.022 -1.5839 -0.4237 -0.3199
 6466TIP3    H240958   4.489   4.527   7.908 -1.2950  0.3140  0.2598
 6467TIP3   OH240959   5.145   0.677   0.529 -0.1829  0.1441 -0.8848
 6467TIP3    H140960   5.057   0.651   0.555 -0.1546 -0.2321 -1.1555
 6467TIP3    H240961   5.197   0.671   0.609 -0.7411  1.9513 -0.3507
 6468TIP3   OH240962   0.025   3.571   0.847  0.3179  0.6381 -0.1595
 6468TIP3    H140963  -0.028   3.644   0.881 -1.3395  0.6370 -2.4581
 6468TIP3    H240964  -0.009   3.494   0.892  0.6750  1.0266  0.7990
 6469TIP3   OH240965   6.499   5.330   2.279  0.1576  0.1557 -0.0702
 6469TIP3    H140966   6.590   5.360   2.281  1.2543 -2.6876 -1.2630
 6469TIP3    H240967   6.489   5.290   2.193 -3.0619  2.4455 -0.9670
 6470TIP3   OH240968   2.907   4.160   2.114 -0.5703  0.0286  0.1426
 6470TIP3    H140969   2.993   4.178   2.073 -0.8244 -0.5071 -0.6539
 6470TIP3    H240970   2.890   4.069   2.093 -1.5294  0.2506 -0.0565
 6471TIP3   OH240971   0.713   1.450   0.376  0.1212  0.3784 -0.0572
 6471TIP3    H140972   0.642   1.385   0.373  1.6112 -1.3110 -1.3478
 6471TIP3    H240973   0.711   1.483   0.465 -3.0598  1.3591 -0.3685
 6472TIP3   OH240974   0.049   4.449   1.276  0.2384  0.9071  0.2549
 6472TIP3    H140975   0.044   4.494   1.192  2.8059  1.4966  0.3288
 6472TIP3    H240976   0.128   4.394   1.270  0.1994  0.5553  2.0848
 6473TIP3   OH240977   6.281   0.999   8.062  0.4000 -0.4515  0.4000
 6473TIP3    H140978   6.298   1.093   8.054  1.3302 -0.6475  0.0601
 6473TIP3    H240979   6.355   0.965   8.112  1.1051 -1.3230 -1.1779
 6474TIP3   OH240980   4.153   1.528   1.810 -0.0276  0.0277 -0.6051
 6474TIP3    H140981   4.100   1.604   1.835 -0.6667 -1.1524  1.9302
 6474TIP3    H240982   4.210   1.513   1.885  0.5263 -1.6439 -1.3081
 6475TIP3   OH240983   1.272   0.572   2.666  0.2407  0.9013 -0.0330
 6475TIP3    H140984   1.351   0.624   2.651  1.6969 -1.0703  0.2993
 6475TIP3    H240985   1.297   0.483   2.639 -0.8728 -0.4131  2.8653
 6476TIP3   OH240986   2.774   2.124   2.317  0.0407 -0.0063  0.1974
 6476TIP3    H140987   2.793   2.108   2.409 -1.6546  0.3776  0.6485
 6476TIP3    H240988   2.807   2.212   2.301 -1.0754  0.5648  0.9001
 6477TIP3   OH240989   6.012   1.341   0.848  0.2319 -0.5324  0.3351
 6477TIP3    H140990   6.104   1.367   0.854  0.3389 -0.7897 -0.0890
 6477TIP3    H240991   6.000   1.320   0.755  0.0458 -1.5902  0.5865
 6478TIP3   OH240992   2.260   6.660   2.895  0.0167 -0.0037 -0.0079
 6478TIP3    H140993   2.217   6.592   2.946 -0.4213  0.0974 -0.2416
 6478TIP3    H240994   2.330   6.693   2.952 -2.0594  1.9036  1.5795
 6479TIP3   OH240995   3.396   3.216   0.719  0.3261 -0.8966 -0.4254
 6479TIP3    H140996   3.344   3.259   0.787  0.5811 -0.5007 -0.4786
 6479TIP3    H240997   3.368   3.257   0.637  2.1965  0.8356 -0.2664
 6480TIP3   OH240998   0.965   1.588   1.495  0.6445  0.2167 -0.4002
 6480TIP3    H140999   0.884   1.614   1.453  0.7043  0.3970 -0.4044
 6480TIP3    H241000   0.943   1.508   1.543  0.6278 -0.1182 -0.9502
 6481TIP3   OH241001   0.773   3.670   0.373  0.1389  0.2955 -0.0189
 6481TIP3    H141002   0.765   3.587   0.421  1.0950 -0.1562 -0.6091
 6481TIP3    H241003   0.740   3.650   0.286 -0.9082  0.9198  0.2151
 6482TIP3   OH241004   6.807   0.471   2.937 -0.7262 -0.3987 -0.1233
 6482TIP3    H141005   6.825   0.447   3.028  0.0958 -1.9212 -0.6495
 6482TIP3    H241006   6.751   0.549   2.943  1.8217  1.4472  1.6427
 6483TIP3   OH241007   4.726   4.372   1.041 -0.1295  0.0049  0.3577
 6483TIP3    H141008   4.640   4.412   1.028 -0.8860 -1.8722 -0.6828
 6483TIP3    H241009   4.710   4.295   1.094  1.0608  0.0802  0.8707
 6484TIP3   OH241010   3.584   1.426   0.930  0.4309 -0.6499  0.3619
 6484TIP3    H141011   3.599   1.518   0.906  0.1546 -0.3633  1.2284
 6484TIP3    H241012   3.496   1.407   0.899  1.0434 -1.1138 -1.1928
 6485TIP3   OH241013   5.663   1.280   7.013  0.2750 -0.2443 -0.2109
 6485TIP3    H141014   5.638   1.360   7.058  1.8199 -0.8462  1.8929
 6485TIP3    H241015   5.582   1.231   7.002 -0.4005  0.7752  0.1723
 6486TIP3   OH241016   4.843   3.936   8.104 -0.2062 -0.2648  0.1771
 6486TIP3    H141017   4.872   4.021   8.138  0.4874 -1.2154  2.1066
 6486TIP3    H241018   4.872   3.935   8.012 -0.6416  1.7353 -0.0148
 6487TIP3   OH241019   4.923   1.516   2.870  0.0281 -0.7351  0.5475
 6487TIP3    H141020   4.869   1.592   2.891  0.4645 -0.3551  0.3211
 6487TIP3    H241021   4.865   1.441   2.882 -0.0963 -0.4517  1.8935
 6488TIP3   OH241022   3.711   3.140   8.017 -0.2162 -0.0373  0.0593
 6488TIP3    H141023   3.658   3.083   8.073  1.8877 -1.6707  0.5124
 6488TIP3    H241024   3.745   3.081   7.949  0.0720  1.2064 -0.9114
 6489TIP3   OH241025   0.901   3.844   1.781  0.4428 -0.0042 -0.6257
 6489TIP3    H141026   0.881   3.819   1.691  0.8171 -0.2103 -0.6519
 6489TIP3    H241027   0.823   3.891   1.811 -0.6244 -1.8973 -0.2894
 6490TIP3   OH241028   3.977   6.686   0.207 -0.3688  0.7590 -0.8425
 6490TIP3    H141029   4.041   6.618   0.184 -0.4569  0.7581 -1.0945
 6490TIP3    H241030   3.983   6.749   0.134  1.2302  2.1225  0.3813
 6491TIP3   OH241031   4.012   5.236   1.506  0.0630  0.9226 -0.0904
 6491TIP3    H141032   3.995   5.265   1.595  0.4062 -0.0390  0.3099
 6491TIP3    H241033   4.092   5.282   1.480 -0.5446  1.9074 -0.2572
 6492TIP3   OH241034   5.869   5.864   0.811 -0.5935 -0.1700  0.4936
 6492TIP3    H141035   5.795   5.898   0.759  0.1351  3.2681  1.4412
 6492TIP3    H241036   5.942   5.861   0.749 -1.1587 -2.4936 -0.1645
 6493TIP3   OH241037   6.914   2.812   1.557 -0.4754 -0.4912 -0.4367
 6493TIP3    H141038   6.864   2.731   1.568  0.2708 -0.8249  0.6765
 6493TIP3    H241039   7.001   2.792   1.593 -0.3644  0.8702  0.1199
 6494TIP3   OH241040   5.305   4.506   3.284  0.6104 -0.0499  0.2313
 6494TIP3    H141041   5.358   4.464   3.215 -1.1160 -0.0455 -1.1728
 6494TIP3    H241042   5.225   4.454   3.288 -1.2931  2.5186 -1.0284
 6495TIP3   OH241043   5.115   0.246   0.575  0.1156 -0.2009  0.3585
 6495TIP3    H141044   5.192   0.294   0.546 -1.2774  0.4636 -2.6477
 6495TIP3    H241045   5.117   0.164   0.525 -0.4897 -0.7348  1.1845
 6496TIP3   OH241046   4.239   0.685   2.671 -0.0905 -0.2102  0.1457
 6496TIP3    H141047   4.167   0.743   2.698  0.0738  0.2659 -0.4155
 6496TIP3    H241048   4.279   0.657   2.753 -0.2855  0.3315  0.4337
 6497TIP3   OH241049   4.131   6.762   6.745 -0.0156 -0.6075 -1.0451
 6497TIP3    H141050   4.190   6.820   6.696  0.1187  0.9108  0.8256
 6497TIP3    H241051   4.171   6.675   6.735  1.4983  0.0857 -1.4157
 6498TIP3   OH241052   6.566   3.126   2.197 -0.1866 -0.4487 -0.0638
 6498TIP3    H141053   6.595   3.037   2.176  0.0553 -1.2354  3.0699
 6498TIP3    H241054   6.619   3.182   2.140 -1.9610 -2.2271 -3.8470
 6499TIP3   OH241055   6.137   5.773   2.627  0.4656 -0.2997  0.0560
 6499TIP3    H141056   6.069   5.709   2.605 -0.0858 -0.0537  0.9875
 6499TIP3    H241057   6.114   5.802   2.716 -0.1584  2.2575 -0.8561
 6500TIP3   OH241058   4.335   5.897   6.843 -0.6980  0.3372 -0.3659
 6500TIP3    H141059   4.415   5.847   6.828  0.9468  1.7188  3.0188
 6500TIP3    H241060   4.266   5.830   6.842  0.8468 -1.3495 -0.4032
 6501TIP3   OH241061   1.094   3.625   2.132  0.1876 -0.8126 -0.2895
 6501TIP3    H141062   1.028   3.694   2.122 -1.1143 -2.2485 -2.3583
 6501TIP3    H241063   1.175   3.664   2.099  0.0851  0.4742  0.8736
 6502TIP3   OH241064   4.271   1.682   0.098  0.0882  0.6133  0.1641
 6502TIP3    H141065   4.355   1.639   0.116  0.8142  1.2938 -1.4586
 6502TIP3    H241066   4.206   1.624   0.138  1.1982 -0.9119 -0.1514
 6503TIP3   OH241067   4.576   0.438   8.140  0.2329 -0.5041 -0.3183
 6503TIP3    H141068   4.610   0.513   8.189  0.0899 -1.2333  0.9441
 6503TIP3    H241069   4.543   0.378   8.207 -1.9703 -0.6089 -1.4068
 6504TIP3   OH241070   5.995   6.548   1.129 -0.0049  0.0829  0.3671
 6504TIP3    H141071   5.929   6.618   1.131 -1.3322 -1.1429  1.0363
 6504TIP3    H241072   5.949   6.473   1.092  1.1248 -0.7214  0.5636
 6505TIP3   OH241073   0.013   1.544   2.226 -1.0658  0.1545 -0.2101
 6505TIP3    H141074  -0.060   1.584   2.272 -0.9221  0.1088  0.0576
 6505TIP3    H241075  -0.001   1.450   2.236 -0.6921  0.1483  0.2838
 6506TIP3   OH241076   1.936   6.254   8.322 -0.1184  0.3933 -0.5987
 6506TIP3    H141077   1.903   6.170   8.355 -0.6288  0.0124 -1.9995
 6506TIP3    H241078   2.020   6.265   8.366 -1.4807  0.7938  2.1323
 6507TIP3   OH241079   1.224   1.544   7.898  0.2800  0.1367 -0.2099
 6507TIP3    H141080   1.222   1.630   7.940 -0.3945 -0.3162  0.6969
 6507TIP3    H241081   1.244   1.563   7.806 -1.6280  1.4156 -0.4058
 6508TIP3   OH241082   4.595   4.268   1.654  0.1200  0.0801 -0.2903
 6508TIP3    H141083   4.629   4.305   1.573  1.2635  1.7730  0.9063
 6508TIP3    H241084   4.506   4.303   1.660  0.0970  0.1024 -0.7172
 6509TIP3   OH241085   1.961   5.777   8.073 -0.0488 -0.5660  0.0541
 6509TIP3    H141086   1.890   5.787   8.136 -0.3365 -0.6795 -0.2499
 6509TIP3    H241087   1.918   5.754   7.991  0.3891 -1.4866  0.0601
 6510TIP3   OH241088   0.086   1.566   0.858 -0.1759 -0.1128 -0.1862
 6510TIP3    H141089   0.169   1.575   0.811  0.3086 -0.7693  0.4983
 6510TIP3    H241090   0.094   1.625   0.933 -0.8108  0.6900 -0.7402
 6511TIP3   OH241091   5.336   0.945   1.890 -0.1539  0.3107  0.5760
 6511TIP3    H141092   5.382   1.022   1.924  0.2690  1.1845 -1.7713
 6511TIP3    H241093   5.284   0.978   1.817 -1.0306 -1.4290  0.3538
 6512TIP3   OH241094   0.174   5.411   0.870  0.1471  0.1834 -0.4304
 6512TIP3    H141095   0.090   5.450   0.893 -0.5275 -1.4679  0.0786
 6512TIP3    H241096   0.191   5.348   0.940  3.0949  2.2128  0.9040
 6513TIP3   OH241097   1.246   2.859   0.698 -0.6494  0.1120  0.7183
 6513TIP3    H141098   1.313   2.927   0.697  0.7545 -1.2079 -0.0125
 6513TIP3    H241099   1.226   2.845   0.605 -0.8975 -0.4943  0.8602
 6514TIP3   OH241100   6.642   3.276   0.824 -0.4884  0.0838  0.5890
 6514TIP3    H141101   6.567   3.237   0.869 -2.1889  1.7137 -0.7056
 6514TIP3    H241102   6.647   3.229   0.741 -1.6776  1.6196 -0.3860
 6515TIP3   OH241103   2.455   0.726   2.380 -0.0432  0.4745  0.0785
 6515TIP3    H141104   2.520   0.657   2.393  0.2334  0.7148 -0.0316
 6515TIP3    H241105   2.374   0.679   2.360 -0.1163  0.1412  1.0783
 6516TIP3   OH241106   1.731   2.451   7.361  0.5536 -0.0717  0.2506
 6516TIP3    H141107   1.745   2.401   7.442 -1.5595 -0.2627  0.5439
 6516TIP3    H241108   1.641   2.433   7.337  1.9357 -2.7314 -4.0578
 6517TIP3   OH241109   4.614   4.835   2.827 -0.3725 -0.2907  0.2341
 6517TIP3    H141110   4.606   4.835   2.922 -0.3761  3.8389  0.4166
 6517TIP3    H241111   4.673   4.908   2.808 -2.3588  0.7025 -2.9639
 6518TIP3   OH241112   2.176   5.966   1.850  0.2210 -0.0233  0.1778
 6518TIP3    H141113   2.101   6.008   1.807 -0.7416 -0.7177  1.1015
 6518TIP3    H241114   2.224   6.038   1.891  0.5832  0.5311 -1.1516
 6519TIP3   OH241115   1.228   3.695   1.361 -0.4027  0.1633  0.3768
 6519TIP3    H141116   1.266   3.659   1.442  2.0385  1.3077 -0.1577
 6519TIP3    H241117   1.230   3.622   1.299 -0.4434 -0.1863  0.7775
 6520TIP3   OH241118   1.434   2.002   8.428  0.5030 -0.1457  0.0127
 6520TIP3    H141119   1.394   1.973   8.510 -1.3789  2.7010  0.2237
 6520TIP3    H241120   1.360   2.010   8.367  1.4137  0.8026 -1.0047
 6521TIP3   OH241121   0.447   5.966   7.884  0.1252  0.2422  0.3893
 6521TIP3    H141122   0.501   6.015   7.823 -0.6273  0.8673  0.1938
 6521TIP3    H241123   0.504   5.898   7.920  1.0576  0.9634  0.2937
 6522TIP3   OH241124   4.226   0.935   1.277 -0.4725  0.0206 -0.0285
 6522TIP3    H141125   4.294   0.944   1.344  0.2518 -1.4769 -0.5147
 6522TIP3    H241126   4.225   1.019   1.232  0.1758  0.4855  0.8072
 6523TIP3   OH241127   0.213   2.179   7.720  0.0611  0.0229 -1.0332
 6523TIP3    H141128   0.142   2.139   7.770  1.7153  0.4990  1.9680
 6523TIP3    H241129   0.258   2.105   7.678  0.0260 -0.7233  0.2065
 6524TIP3   OH241130   4.354   4.793   0.417  0.2292 -0.0968 -0.0517
 6524TIP3    H141131   4.424   4.735   0.447 -0.2137 -0.7365 -0.2363
 6524TIP3    H241132   4.399   4.873   0.391  0.9304 -0.6358 -0.5257
 6525TIP3   OH241133   3.551   0.528   2.188  0.2118 -0.0790 -0.2402
 6525TIP3    H141134   3.499   0.481   2.123  1.1070  0.2974 -1.2570
 6525TIP3    H241135   3.488   0.553   2.255 -0.9372  0.3868 -1.4481
 6526TIP3   OH241136   6.102   4.323   1.995  0.0048 -0.5980 -0.4089
 6526TIP3    H141137   6.054   4.361   1.921 -0.3614 -0.0358  0.1033
 6526TIP3    H241138   6.034   4.292   2.055  0.3012 -1.5158 -0.5322
 6527TIP3   OH241139   4.772   1.232   7.689 -0.4178 -0.4396 -0.4640
 6527TIP3    H141140   4.840   1.182   7.644 -2.2460 -1.8737 -1.7802
 6527TIP3    H241141   4.797   1.324   7.676  2.1354 -0.9117  0.5876
 6528TIP3   OH241142   0.074   6.550   7.094  0.5934 -0.0119  0.5130
 6528TIP3    H141143   0.059   6.537   7.188 -0.8558 -1.6176  0.1174
 6528TIP3    H241144   0.001   6.606   7.066  0.5657 -0.1993  0.2055
 6529TIP3   OH241145   0.083   6.890   1.167  0.7391 -0.6419  0.7611
 6529TIP3    H141146   0.171   6.911   1.136 -0.4785 -0.0825 -2.8083
 6529TIP3    H241147   0.038   6.975   1.170  0.1053 -0.9984  1.8430
 6530TIP3   OH241148   3.150   0.523   7.210 -0.8560 -0.7604 -0.4883
 6530TIP3    H141149   3.201   0.470   7.271 -1.1448 -0.1177  0.3369
 6530TIP3    H241150   3.210   0.542   7.138 -0.2339 -0.8253  0.0023
 6531TIP3   OH241151   3.613   2.573   2.938  0.0699 -0.7178 -0.0813
 6531TIP3    H141152   3.634   2.484   2.912  0.0008 -0.4487 -1.1013
 6531TIP3    H241153   3.676   2.594   3.006  1.2498 -0.9230 -1.0866
 6532TIP3   OH241154   5.723   2.063   1.229  0.6561  0.4709  0.0579
 6532TIP3    H141155   5.693   2.154   1.232  0.4294  0.5222 -2.1157
 6532TIP3    H241156   5.794   2.064   1.164  0.2729 -0.9901 -0.4064
 6533TIP3   OH241157   6.442   3.413   1.150 -0.0662 -0.4952 -0.6479
 6533TIP3    H141158   6.496   3.420   1.230 -0.6170 -1.2150 -0.2051
 6533TIP3    H241159   6.484   3.344   1.099  0.6719  0.4117 -1.3045
 6534TIP3   OH241160   0.447   0.161   0.531 -0.4759 -0.4860  0.0033
 6534TIP3    H141161   0.478   0.125   0.448 -3.5459 -2.0537 -0.6210
 6534TIP3    H241162   0.419   0.250   0.510  0.2690 -0.3097 -0.2476
 6535TIP3   OH241163   4.950   2.553   0.399 -0.6634 -0.1877  0.0620
 6535TIP3    H141164   4.857   2.554   0.421 -0.5252  1.1812  0.6790
 6535TIP3    H241165   4.956   2.605   0.318 -0.3064  0.7345  0.6668
 6536TIP3   OH241166   6.104   6.696   1.636  0.3317 -0.5020 -0.3610
 6536TIP3    H141167   6.139   6.664   1.719  0.4745  0.0846 -0.1912
 6536TIP3    H241168   6.069   6.782   1.656  2.7149  0.8080 -1.4425
 6537TIP3   OH241169   1.953   4.060   2.368 -0.8216  0.2471 -0.2585
 6537TIP3    H141170   2.041   4.026   2.386 -2.1854 -3.4958  0.3043
 6537TIP3    H241171   1.912   4.064   2.454 -1.2325  2.1405 -0.4994
 6538TIP3   OH241172   6.480   3.335   8.317 -0.0204 -0.1081  0.2225
 6538TIP3    H141173   6.438   3.287   8.245 -0.2885 -1.2445  1.1113
 6538TIP3    H241174   6.458   3.285   8.396 -0.9015  1.8422  1.3020
 6539TIP3   OH241175   3.285   3.480   7.851 -0.0912 -0.0327 -0.0880
 6539TIP3    H141176   3.268   3.568   7.818  0.5811  0.1115 -0.0716
 6539TIP3    H241177   3.324   3.494   7.937  1.6477 -0.2703 -0.7980
 6540TIP3   OH241178   2.732   3.503   3.083 -0.1841 -0.1337  0.4796
 6540TIP3    H141179   2.672   3.462   3.019 -0.6578 -0.3729  1.0661
 6540TIP3    H241180   2.694   3.481   3.168  0.4825  0.1281  0.8473
 6541TIP3   OH241181   6.324   4.118   8.324 -0.1795  0.4920 -0.1475
 6541TIP3    H141182   6.296   4.027   8.315 -0.3873  0.2952  1.9977
 6541TIP3    H241183   6.246   4.169   8.304 -0.8922  0.0825  1.4484
 6542TIP3   OH241184   6.297   0.220   1.185 -0.0024 -0.2565  0.6117
 6542TIP3    H141185   6.231   0.288   1.194  1.9556  1.9369 -0.3269
 6542TIP3    H241186   6.289   0.190   1.095  2.3379  2.5451 -0.7083
 6543TIP3   OH241187   6.711   0.143   8.166  0.7849 -0.2145 -0.0135
 6543TIP3    H141188   6.674   0.153   8.078  1.2616  0.1183 -0.1790
 6543TIP3    H241189   6.656   0.076   8.207 -0.7904  1.1373  0.1881
 6544TIP3   OH241190   6.647   0.674   2.968 -0.6221  0.3454 -0.7968
 6544TIP3    H141191   6.555   0.649   2.961 -1.7296  3.3744  0.9526
 6544TIP3    H241192   6.646   0.751   3.025  3.0108  0.5688 -0.8383
 6545TIP3   OH241193   4.967   2.609   0.713 -0.0895  0.1410 -0.1418
 6545TIP3    H141194   4.900   2.611   0.645  0.6001  1.2651 -0.8260
 6545TIP3    H241195   5.030   2.676   0.686  0.3664  0.3840  1.4316
 6546TIP3   OH241196   3.638   2.998   2.002  0.8154  0.6769 -0.1360
 6546TIP3    H141197   3.665   2.908   2.019  1.0791  0.9219  0.8008
 6546TIP3    H241198   3.618   3.000   1.909 -3.0024 -1.3924  0.4158
 6547TIP3   OH241199   2.532   0.963   2.271 -0.3894  0.1383  0.3845
 6547TIP3    H141200   2.491   0.900   2.329  2.5536 -1.4179  0.9754
 6547TIP3    H241201   2.584   0.910   2.211  0.4303  1.9291 -0.5616
 6548TIP3   OH241202   6.877   2.432   2.130  0.0501  0.2098 -0.0876
 6548TIP3    H141203   6.883   2.337   2.134  0.3018  0.2481  0.5286
 6548TIP3    H241204   6.958   2.463   2.170  0.7369  0.6825 -1.7936
 6549TIP3   OH241205   3.895   2.647   7.897 -0.1709 -0.2041 -0.1141
 6549TIP3    H141206   3.803   2.670   7.906  0.7214  3.9282  0.8894
 6549TIP3    H241207   3.909   2.635   7.803 -1.7076 -1.0530 -0.2597
 6550TIP3   OH241208   1.076   0.790   2.645  0.6283 -0.2833 -0.0852
 6550TIP3    H141209   1.112   0.734   2.577  0.5563  1.1084 -1.3240
 6550TIP3    H241210   1.124   0.873   2.635  1.0887 -0.2381  1.9986
 6551TIP3   OH241211   5.806   6.488   3.211 -0.1168  1.1442  0.0848
 6551TIP3    H141212   5.843   6.403   3.237 -0.6485  0.9315  0.1597
 6551TIP3    H241213   5.742   6.467   3.144 -1.1134  1.3490  0.9411
 6552TIP3   OH241214   2.921   4.840   1.747 -0.3147 -0.1494  0.3260
 6552TIP3    H141215   2.841   4.859   1.795  0.5901 -0.9736  2.2726
 6552TIP3    H241216   2.919   4.746   1.732 -0.7482  0.1300 -1.6627
 6553TIP3   OH241217   5.555   2.590   0.524 -0.0516  0.2706  0.1284
 6553TIP3    H141218   5.590   2.665   0.573  0.0520 -0.5063  1.2940
 6553TIP3    H241219   5.491   2.551   0.583  0.1754 -0.7806 -0.2955
 6554TIP3   OH241220   4.270   2.542   1.711 -0.1568 -0.1998 -0.0552
 6554TIP3    H141221   4.330   2.472   1.683  0.3415  0.2268 -0.0812
 6554TIP3    H241222   4.183   2.510   1.688 -0.1465 -1.7465  1.8411
 6555TIP3   OH241223   5.817   1.129   0.533 -0.1953 -0.1387 -0.8339
 6555TIP3    H141224   5.730   1.126   0.573  0.2440 -1.4300  0.1105
 6555TIP3    H241225   5.844   1.037   0.528  1.8357  0.3103  0.5542
 6556TIP3   OH241226   1.818   5.214   7.853 -0.3887 -0.2261 -0.1319
 6556TIP3    H141227   1.730   5.195   7.819 -0.5381  0.4130 -0.1342
 6556TIP3    H241228   1.877   5.188   7.782 -0.4475 -2.2120  0.5126
 6557TIP3   OH241229   2.937   3.284   7.391 -0.3225 -0.3450  0.5896
 6557TIP3    H141230   3.009   3.277   7.328  0.5037  0.0025  1.4786
 6557TIP3    H241231   2.859   3.291   7.336  0.3996  0.2153 -0.4103
 6558TIP3   OH241232   4.615   6.037   2.344  0.2524  0.6830  0.2848
 6558TIP3    H141233   4.637   6.127   2.368 -0.3648  0.7409  0.6505
 6558TIP3    H241234   4.541   6.015   2.400  0.6038 -0.1662  0.4245
 6559TIP3   OH241235   0.315   6.777   7.703 -0.2038 -0.1351  0.2646
 6559TIP3    H141236   0.322   6.707   7.768  1.5845 -0.6894 -0.4788
 6559TIP3    H241237   0.230   6.762   7.661 -0.1896 -1.4037  0.6540
 6560TIP3   OH241238   2.076   5.357   2.742 -0.1182 -0.1992  0.4898
 6560TIP3    H141239   2.029   5.432   2.777 -2.6776 -1.1898 -0.5793
 6560TIP3    H241240   2.120   5.391   2.664 -0.9118  0.3038  0.2466
 6561TIP3   OH241241   3.201   4.733   7.507  0.4458 -0.5199 -0.2766
 6561TIP3    H141242   3.164   4.670   7.445  0.2429 -1.8843  1.1827
 6561TIP3    H241243   3.282   4.693   7.538  1.9281  1.3178 -1.5249
 6562TIP3   OH241244   4.277   0.003   0.213 -0.2805 -0.2367 -0.2953
 6562TIP3    H141245   4.268   0.055   0.293  0.6996  1.8130 -1.4359
 6562TIP3    H241246   4.349  -0.057   0.231 -0.4033 -0.1519  0.5082
 6563TIP3   OH241247   3.642   3.412   0.858 -0.6009 -0.4620  0.8777
 6563TIP3    H141248   3.552   3.443   0.864 -0.6782 -0.6484  0.6958
 6563TIP3    H241249   3.642   3.328   0.903 -0.3859 -0.1927  1.3906
 6564TIP3   OH241250   6.151   1.323   2.948  0.5863 -0.4266  0.0431
 6564TIP3    H141251   6.212   1.372   2.894  1.6793 -0.2476  1.3683
 6564TIP3    H241252   6.146   1.374   3.030 -2.9761  0.7049 -0.7248
 6565TIP3   OH241253   6.292   1.459   1.199 -0.5324 -0.3772  0.1711
 6565TIP3    H141254   6.264   1.529   1.257 -0.0452 -0.2171  0.2079
 6565TIP3    H241255   6.209   1.420   1.168 -0.8670  1.2730 -1.1567
 6566TIP3   OH241256   1.831   6.755   7.277 -0.0975  0.2660  0.2065
 6566TIP3    H141257   1.925   6.738   7.270 -0.3013 -0.7810 -0.2674
 6566TIP3    H241258   1.790   6.677   7.239 -1.2168 -0.5227  2.7889
 6567TIP3   OH241259   5.922   2.201   1.794  0.6870 -0.5694  0.7159
 6567TIP3    H141260   5.828   2.194   1.774  0.4475 -0.9956  1.8771
 6567TIP3    H241261   5.948   2.111   1.813  1.3755 -0.4722  0.2429
 6568TIP3   OH241262   4.640   3.116   2.365  0.2178 -0.5346 -0.2525
 6568TIP3    H141263   4.681   3.034   2.339  0.7582 -0.1085 -0.7921
 6568TIP3    H241264   4.585   3.094   2.440  0.1068 -1.4431 -0.5979
 6569TIP3   OH241265   5.584   5.628   0.210 -0.4512 -0.1768  0.2002
 6569TIP3    H141266   5.632   5.704   0.241  0.0130 -0.4059  0.0490
 6569TIP3    H241267   5.537   5.596   0.287  1.1000 -1.0581  0.8304
 6570TIP3   OH241268   4.882   2.955   8.315  1.0809 -0.3749 -0.2894
 6570TIP3    H141269   4.901   2.972   8.408  0.8310  1.6102 -0.5604
 6570TIP3    H241270   4.787   2.965   8.308  1.0249 -1.0958 -0.6750
 6571TIP3   OH241271   0.409   2.431   1.080  0.3639  0.4078  0.3189
 6571TIP3    H141272   0.403   2.403   1.171 -0.2154  0.4340  0.2915
 6571TIP3    H241273   0.460   2.512   1.083  3.4630 -1.3681  0.2418
 6572TIP3   OH241274   3.834   6.061   7.983 -0.1114  1.0568 -0.3110
 6572TIP3    H141275   3.882   6.114   8.047 -0.8359  0.8336  0.4424
 6572TIP3    H241276   3.836   6.113   7.903 -0.3467  1.9838  0.2675
 6573TIP3   OH241277   1.918   4.158   7.534  0.0328  0.8270 -0.4462
 6573TIP3    H141278   1.858   4.189   7.602 -0.2424  1.0048 -0.7662
 6573TIP3    H241279   2.004   4.190   7.561  0.5087 -1.7749  1.5027
 6574TIP3   OH241280   1.343   6.118   1.240 -0.2871 -0.0612  0.3111
 6574TIP3    H141281   1.292   6.124   1.321 -0.6142  0.1270  0.0947
 6574TIP3    H241282   1.434   6.114   1.269 -0.4249 -0.4487  0.7057
 6575TIP3   OH241283   6.818   3.953   1.674 -0.1938 -0.4045  0.2053
 6575TIP3    H141284   6.753   4.023   1.684  0.1125  0.0735 -0.9601
 6575TIP3    H241285   6.791   3.906   1.595 -1.0042 -2.3011  1.5493
 6576TIP3   OH241286   4.818   2.064   7.757  0.2502 -0.5470  0.3582
 6576TIP3    H141287   4.788   2.155   7.766  0.2427 -0.2529 -1.9337
 6576TIP3    H241288   4.913   2.070   7.756  0.2969 -0.1066 -2.5400
 6577TIP3   OH241289   2.985   0.332   0.263 -0.3264 -0.0482  0.3387
 6577TIP3    H141290   2.912   0.346   0.202  0.3813  2.2607 -0.0660
 6577TIP3    H241291   2.954   0.369   0.346  0.3950  1.0279  0.1390
 6578TIP3   OH241292   0.024   3.173   2.060 -0.2622  0.4075 -0.0334
 6578TIP3    H141293   0.094   3.219   2.013 -0.2787  0.4469 -0.0189
 6578TIP3    H241294   0.058   3.163   2.149  0.3067 -0.7942 -0.3706
 6579TIP3   OH241295   3.671   4.050   0.079  0.4136  0.0149  0.1363
 6579TIP3    H141296   3.633   4.138   0.080  1.2911  0.3953  0.3518
 6579TIP3    H241297   3.634   4.008   0.157  0.3462  0.3431  0.2831
 6580TIP3   OH241298   5.769   3.036   7.850  0.9139  1.2965  0.2364
 6580TIP3    H141299   5.826   3.081   7.788  1.2884  0.7532  0.1839
 6580TIP3    H241300   5.681   3.047   7.814  1.1451  0.8549 -0.4707
 6581TIP3   OH241301   3.626   5.235   1.624  0.2779 -0.6408 -0.1739
 6581TIP3    H141302   3.540   5.193   1.619  0.3239 -0.6087 -2.3935
 6581TIP3    H241303   3.674   5.199   1.549  1.1630  1.5248 -0.7177
 6582TIP3   OH241304   2.642   0.494   2.392  0.2520 -0.4639 -0.1222
 6582TIP3    H141305   2.635   0.459   2.303  1.2878 -0.5800 -0.1742
 6582TIP3    H241306   2.732   0.474   2.418  0.9846  2.2884 -0.2212
 6583TIP3   OH241307   0.845   5.397   0.716  0.5586 -0.0274  0.2831
 6583TIP3    H141308   0.749   5.391   0.721  0.5856  0.3854  1.6000
 6583TIP3    H241309   0.873   5.306   0.704 -0.0116 -0.1068 -0.5404
 6584TIP3   OH241310   3.617   1.199   1.463 -0.0180 -0.1095  0.1674
 6584TIP3    H141311   3.706   1.167   1.451  0.3062  1.4131 -2.1900
 6584TIP3    H241312   3.628   1.292   1.484 -1.0215  0.5281 -1.8864
 6585TIP3   OH241313   2.724   3.323   3.309 -0.3480  0.5747 -0.2926
 6585TIP3    H141314   2.628   3.320   3.304 -0.4855 -0.0015  1.8211
 6585TIP3    H241315   2.751   3.232   3.303  0.1824  0.8039 -1.8958
 6586TIP3   OH241316   3.822   3.019   0.731  0.8477 -0.0500 -0.2500
 6586TIP3    H141317   3.841   2.928   0.753 -0.4171 -0.4419 -0.6425
 6586TIP3    H241318   3.868   3.070   0.796  2.0934 -0.9472 -0.3963
 6587TIP3   OH241319   3.981   6.143   0.169  0.0142  0.1228 -0.4170
 6587TIP3    H141320   3.890   6.128   0.196 -0.1398  0.3705 -0.7956
 6587TIP3    H241321   3.997   6.235   0.191 -0.5111  0.6986 -2.2797
 6588TIP3   OH241322   1.888   3.275   2.172 -0.0059 -0.3610  0.6966
 6588TIP3    H141323   1.954   3.229   2.224 -0.5928 -0.4453  1.3652
 6588TIP3    H241324   1.883   3.362   2.211  2.1881  0.8873 -1.4580
 6589TIP3   OH241325   1.649   3.125   2.282  0.3083  0.2266  0.0922
 6589TIP3    H141326   1.718   3.187   2.259  1.8815  0.1556  3.8563
 6589TIP3    H241327   1.692   3.061   2.339 -1.9227 -2.6088 -1.1610
 6590TIP3   OH241328   4.555   5.053   1.652 -0.4695 -0.0197  0.0379
 6590TIP3    H141329   4.478   5.014   1.612 -0.3427  1.7348 -2.1470
 6590TIP3    H241330   4.622   4.984   1.649 -0.7627 -0.2671 -1.9912
 6591TIP3   OH241331   0.818   5.484   8.206 -0.8117  0.3508 -0.1569
 6591TIP3    H141332   0.730   5.470   8.173 -0.1721 -0.2304 -1.7046
 6591TIP3    H241333   0.875   5.470   8.131  0.7120 -0.5610  1.0899
 6592TIP3   OH241334   6.231   5.245   7.690  0.0987 -0.9871  0.3567
 6592TIP3    H141335   6.286   5.204   7.623  2.4529 -0.3580  1.7861
 6592TIP3    H241336   6.278   5.230   7.772 -0.8949  1.2378  1.4222
 6593TIP3   OH241337   0.339   2.977   7.487 -0.5693  0.9358  0.1500
 6593TIP3    H141338   0.418   3.019   7.521  0.6683 -0.2410 -1.1626
 6593TIP3    H241339   0.305   3.038   7.422  0.8601  0.2544 -1.2891
 6594TIP3   OH241340   5.272   5.483   7.663 -0.2742  0.1246  0.1270
 6594TIP3    H141341   5.331   5.462   7.590  0.1102 -1.3691  0.8382
 6594TIP3    H241342   5.331   5.503   7.736 -0.6602  0.6175  0.3055
 6595TIP3   OH241343   0.064   5.564   8.368  0.2660 -0.0177  0.0437
 6595TIP3    H141344   0.038   5.554   8.276 -1.5153  2.2643  0.2000
 6595TIP3    H241345   0.159   5.580   8.365  0.4742 -1.3054 -1.2393
 6596TIP3   OH241346   2.564   0.642   1.998 -0.2454  0.2901 -0.3774
 6596TIP3    H141347   2.501   0.669   2.065  0.6657  1.1780  0.1490
 6596TIP3    H241348   2.626   0.715   1.993  1.5753 -1.1560  0.1524
 6597TIP3   OH241349   2.816   6.937   0.717  0.0885 -0.3746 -1.0421
 6597TIP3    H141350   2.859   6.941   0.632 -0.4366 -0.4706 -1.3163
 6597TIP3    H241351   2.740   6.995   0.708  0.4693  0.2413 -0.3833
 6598TIP3   OH241352   1.487   3.073   2.885  0.8627  0.0099  0.1835
 6598TIP3    H141353   1.521   3.093   2.798  0.4210  1.0304  0.2181
 6598TIP3    H241354   1.565   3.057   2.939  1.1235 -0.9042 -0.4539
 6599TIP3   OH241355   1.428   5.689   1.613 -0.3521  0.3481 -0.0767
 6599TIP3    H141356   1.385   5.773   1.595  0.7694  0.6808 -1.4010
 6599TIP3    H241357   1.393   5.662   1.698 -1.7906  1.4637 -0.2674
 6600TIP3   OH241358   2.172   2.827   8.187  0.3505 -0.4813 -0.6370
 6600TIP3    H141359   2.119   2.814   8.266  1.7366 -1.1623  0.2177
 6600TIP3    H241360   2.219   2.745   8.176  1.3852  0.1688 -1.2309
 6601TIP3   OH241361   0.264   5.873   1.092 -0.0474  0.5652  0.0458
 6601TIP3    H141362   0.241   5.861   1.000 -0.9264  3.7890 -0.3078
 6601TIP3    H241363   0.245   5.790   1.134 -1.8693 -0.2803 -2.2844
 6602TIP3   OH241364   3.885   0.623   7.231 -0.3769  0.0707 -0.5784
 6602TIP3    H141365   3.979   0.639   7.240 -0.5707  0.6250  0.6981
 6602TIP3    H241366   3.869   0.627   7.137  1.0717 -1.2742 -0.9171
 6603TIP3   OH241367   6.247   3.474   0.925 -0.6813 -0.3351  0.2231
 6603TIP3    H141368   6.154   3.483   0.945 -1.0788 -1.8055 -0.7956
 6603TIP3    H241369   6.289   3.465   1.011 -1.5841 -0.4845  0.6564
 6604TIP3   OH241370   0.512   0.190   2.049 -0.3043 -0.5217 -0.0714
 6604TIP3    H141371   0.530   0.220   2.138  0.3893  0.6655 -0.5884
 6604TIP3    H241372   0.513   0.095   2.055 -4.4334 -0.6973  2.0431
 6605TIP3   OH241373   6.804   3.494   1.513 -0.0153 -0.1286  0.4302
 6605TIP3    H141374   6.854   3.420   1.477  0.3299 -0.1174  0.8730
 6605TIP3    H241375   6.870   3.560   1.533 -0.3144  0.2576  0.1403
 6606TIP3   OH241376   2.916   1.361   1.645 -0.4688 -0.3931  0.4252
 6606TIP3    H141377   2.959   1.303   1.708  0.6147  0.0693  0.1406
 6606TIP3    H241378   2.830   1.379   1.683  0.2812  0.1581  1.9481
 6607TIP3   OH241379   2.014   4.893   2.338  0.1409  0.2607 -0.3728
 6607TIP3    H141380   1.960   4.956   2.291 -0.6384 -0.7577 -0.8632
 6607TIP3    H241381   2.078   4.862   2.273 -0.2504 -0.3464 -0.4750
 6608TIP3   OH241382   1.028   3.235   3.285  0.4113  0.5565  0.4467
 6608TIP3    H141383   1.086   3.261   3.356  0.2141 -0.1079  0.8624
 6608TIP3    H241384   0.977   3.314   3.265 -0.1904  0.5083  1.6977
 6609TIP3   OH241385   3.835   6.942   2.111  0.5567 -0.2745 -0.3408
 6609TIP3    H141386   3.842   6.910   2.021  1.3679 -1.1035 -0.0052
 6609TIP3    H241387   3.839   7.038   2.103  2.6902 -0.3669 -1.0701
 6610TIP3   OH241388   2.931   5.278   1.228  0.4389  0.1893  0.1493
 6610TIP3    H141389   2.843   5.292   1.265 -0.2182 -1.1002 -0.8408
 6610TIP3    H241390   2.931   5.329   1.148  0.3539 -0.3193 -0.1781
 6611TIP3   OH241391   4.492   5.736   0.600  0.0972 -0.0299 -0.3326
 6611TIP3    H141392   4.510   5.778   0.516  1.4212  2.5757  1.1366
 6611TIP3    H241393   4.396   5.733   0.605 -0.0268  1.4544 -1.1688
 6612TIP3   OH241394   6.646   5.872   8.090 -0.8188 -0.4145 -0.0513
 6612TIP3    H141395   6.690   5.957   8.086 -1.9490  0.1487 -0.9633
 6612TIP3    H241396   6.704   5.814   8.040 -0.9654  0.2717 -1.0700
 6613TIP3   OH241397   1.635   2.855   0.834 -0.0259  0.1704 -0.7835
 6613TIP3    H141398   1.626   2.879   0.741  1.5312  1.0089 -0.7615
 6613TIP3    H241399   1.729   2.864   0.851  0.0641 -2.2856  0.2840
 6614TIP3   OH241400   4.622   5.384   7.689 -0.1100 -0.2826  0.2649
 6614TIP3    H141401   4.562   5.313   7.711 -0.2930 -0.2101 -0.0022
 6614TIP3    H241402   4.605   5.403   7.597 -2.5182  2.4329  1.1188
 6615TIP3   OH241403   3.204   1.863   1.930  0.0905  0.0990  0.3838
 6615TIP3    H141404   3.231   1.867   2.022  1.7664  1.1867 -0.1149
 6615TIP3    H241405   3.259   1.795   1.891 -0.0566  0.1864  0.0156
 6616TIP3   OH241406   0.134   6.144   3.005 -0.3102 -0.0215 -0.0933
 6616TIP3    H141407   0.221   6.118   2.975  0.6207  2.5999  0.0654
 6616TIP3    H241408   0.074   6.095   2.948  1.3185  0.2071 -2.1535
 6617TIP3   OH241409   2.329   4.119   1.894  0.2892  0.6971 -0.0122
 6617TIP3    H141410   2.305   4.207   1.864  0.0596  0.8809  0.6790
 6617TIP3    H241411   2.407   4.097   1.843  0.2229  1.2165 -0.3494
 6618TIP3   OH241412   0.771   4.838   0.330  0.0535 -0.4905 -0.0106
 6618TIP3    H141413   0.860   4.847   0.363 -0.5992 -0.0111  1.7446
 6618TIP3    H241414   0.739   4.928   0.324 -1.4354 -0.7264  2.7951
 6619TIP3   OH241415   0.810   4.453   1.517  1.0643  0.1872 -0.0284
 6619TIP3    H141416   0.875   4.440   1.449 -0.0593  1.2622 -1.3733
 6619TIP3    H241417   0.777   4.542   1.502 -0.1821 -0.0571  1.0487
 6620TIP3   OH241418   5.090   6.933   2.362  0.3127 -0.1653 -0.1466
 6620TIP3    H141419   5.076   7.022   2.329 -0.7686 -0.2870 -0.0597
 6620TIP3    H241420   5.101   6.879   2.283  1.9671  0.1746 -0.1818
 6621TIP3   OH241421   6.823   6.883   7.835  0.7033  0.1017 -0.0610
 6621TIP3    H141422   6.838   6.824   7.762 -0.9183 -0.5961  0.1263
 6621TIP3    H241423   6.811   6.969   7.794  0.1619 -0.2206 -0.6000
 6622TIP3   OH241424   2.706   5.896   1.895 -0.3653 -0.4172  0.7134
 6622TIP3    H141425   2.698   5.801   1.885 -0.1540 -0.4299  0.6591
 6622TIP3    H241426   2.796   5.909   1.924 -0.4269 -0.2405  0.8258
 6623TIP3   OH241427   3.626   3.315   1.682  0.3842  0.1274 -0.0553
 6623TIP3    H141428   3.643   3.353   1.768  0.4001 -0.3478  0.1527
 6623TIP3    H241429   3.537   3.344   1.660 -0.2270 -1.0110  0.8082
 6624TIP3   OH241430   3.444   1.241   6.890 -0.0880 -0.1456  0.0322
 6624TIP3    H141431   3.497   1.311   6.927 -0.5386 -0.3135  1.0283
 6624TIP3    H241432   3.503   1.166   6.882 -0.6446 -1.0772  3.3558
 6625TIP3   OH241433   2.337   4.720   7.523 -0.1650  0.0147  0.6925
 6625TIP3    H141434   2.285   4.665   7.465  2.1338  0.6268 -2.1962
 6625TIP3    H241435   2.293   4.805   7.522  0.4575  0.3570 -1.2176
 6626TIP3   OH241436   2.935   0.565   2.082 -0.6940  0.0719  0.6900
 6626TIP3    H141437   2.937   0.607   2.168 -0.3618 -0.7008  1.0674
 6626TIP3    H241438   2.890   0.482   2.098 -2.4606  0.7891 -0.2799
 6627TIP3   OH241439   0.204   4.912   0.474 -0.0742 -0.3420 -0.0633
 6627TIP3    H141440   0.188   4.832   0.523 -1.3191 -0.0763 -0.0091
 6627TIP3    H241441   0.152   4.979   0.519 -2.6133 -0.3995 -2.6518
 6628TIP3   OH241442   6.205   5.712   6.621  0.6909  0.4476  0.3725
 6628TIP3    H141443   6.200   5.626   6.579  2.6094  0.9106 -0.9180
 6628TIP3    H241444   6.229   5.693   6.712 -0.9875 -0.4356  0.6737
 6629TIP3   OH241445   6.496   4.493   2.260  0.0168 -0.1908 -0.1589
 6629TIP3    H141446   6.478   4.408   2.220 -1.2881 -0.0351  0.0484
 6629TIP3    H241447   6.459   4.557   2.199  0.9369  0.2298 -0.2879
 6630TIP3   OH241448   1.498   0.756   7.684 -0.2724 -0.4378 -0.1159
 6630TIP3    H141449   1.546   0.677   7.657 -2.3662 -0.7544 -3.3870
 6630TIP3    H241450   1.550   0.828   7.649 -0.4824 -0.5935 -0.7515
 6631TIP3   OH241451   5.079   3.936   2.070 -0.3063 -0.0918  0.1208
 6631TIP3    H141452   5.144   3.951   2.139 -0.6427  1.5683  0.1000
 6631TIP3    H241453   4.995   3.948   2.114 -0.5332  0.5195 -0.4784
 6632TIP3   OH241454   6.371   1.030   3.120  0.2733  0.0374  0.6841
 6632TIP3    H141455   6.340   1.077   3.197 -0.2465  0.6684  0.0926
 6632TIP3    H241456   6.463   1.010   3.140  0.2444  0.5100  1.3117
 6633TIP3   OH241457   4.108   3.112   0.536 -0.2663 -0.1980 -0.2314
 6633TIP3    H141458   4.165   3.147   0.604 -0.4383 -1.4934  0.6224
 6633TIP3    H241459   4.119   3.017   0.542 -3.2735 -0.5921  0.6983
 6634TIP3   OH241460   0.680   1.412   2.815 -0.1971 -0.2276 -0.3733
 6634TIP3    H141461   0.629   1.331   2.819 -0.8758  0.2385  1.8186
 6634TIP3    H241462   0.763   1.386   2.776 -0.3370 -2.0203  0.4360
 6635TIP3   OH241463   3.471   5.998   2.223 -0.2465  0.1139 -0.0050
 6635TIP3    H141464   3.513   6.081   2.200  0.3289 -0.0687  0.3505
 6635TIP3    H241465   3.480   5.944   2.144 -1.5444  0.7305 -0.5992
 6636TIP3   OH241466   6.792   2.124   1.825 -0.3168  0.1418 -0.2987
 6636TIP3    H141467   6.702   2.112   1.855 -0.3016 -0.6546 -0.5340
 6636TIP3    H241468   6.841   2.149   1.903 -0.2058 -2.2297  0.4779
 6637TIP3   OH241469   2.253   5.056   1.794  0.4730  0.0376 -0.1154
 6637TIP3    H141470   2.280   5.066   1.885  0.6356  1.8252 -0.3266
 6637TIP3    H241471   2.255   5.144   1.758  0.6140 -0.6435 -1.9190
 6638TIP3   OH241472   2.560   4.788   1.539 -0.2984  0.4586 -0.3049
 6638TIP3    H141473   2.609   4.706   1.537  0.0403  0.6586 -0.2624
 6638TIP3    H241474   2.483   4.769   1.593 -0.8191 -0.1611 -1.2393
 6639TIP3   OH241475   3.934   1.268   1.906  0.0685 -0.7585 -0.8203
 6639TIP3    H141476   3.904   1.325   1.977 -0.0301 -0.5185 -1.0547
 6639TIP3    H241477   3.857   1.215   1.884  0.5755 -2.1311  0.4835
 6640TIP3   OH241478   0.676   2.563   1.282  0.0704  0.1262  0.1247
 6640TIP3    H141479   0.599   2.516   1.313  0.1540  0.3168  0.6304
 6640TIP3    H241480   0.641   2.642   1.240 -0.0097  0.2298  0.3851
 6641TIP3   OH241481   2.088   4.294   1.711  0.5595 -0.1511  0.3041
 6641TIP3    H141482   2.129   4.346   1.780  0.3241  1.0658 -0.4547
 6641TIP3    H241483   1.997   4.323   1.710  0.6687  0.2070 -0.8354
 6642TIP3   OH241484   1.901   2.894   0.873  0.1429 -0.3719 -0.9069
 6642TIP3    H141485   1.984   2.876   0.917 -0.1798  2.5089  1.1028
 6642TIP3    H241486   1.920   2.967   0.814 -1.4239  2.5407  1.8793
 6643TIP3   OH241487   1.813   4.737   1.131  0.0527 -0.7666 -0.4042
 6643TIP3    H141488   1.825   4.750   1.037  0.2034 -0.5853 -0.3609
 6643TIP3    H241489   1.757   4.659   1.137  1.0065 -1.4943 -0.6252
 6644TIP3   OH241490   1.574   2.077   0.829 -0.2686  0.1219  0.1178
 6644TIP3    H141491   1.483   2.100   0.846 -0.2367  0.1939  0.1902
 6644TIP3    H241492   1.571   1.983   0.808 -0.4375  0.2515 -0.4787
 6645TIP3   OH241493   1.005   0.109   3.243 -0.6842  0.1830 -0.0384
 6645TIP3    H141494   1.069   0.092   3.312 -1.1615 -1.1585  0.1059
 6645TIP3    H241495   0.967   0.023   3.224 -0.6297  0.5236 -1.9192
 6646TIP3   OH241496   4.857   6.277   7.517 -0.0644 -0.3170 -0.0980
 6646TIP3    H141497   4.768   6.275   7.552 -0.0073 -0.4115  0.0385
 6646TIP3    H241498   4.845   6.270   7.422 -0.3103  1.3859 -0.2319
 6647TIP3   OH241499   0.085   4.633   1.075 -0.1355  0.3817  0.3666
 6647TIP3    H141500   0.064   4.707   1.133 -1.4321  0.3065  0.0328
 6647TIP3    H241501   0.057   4.662   0.988  0.8099  0.0860 -0.0463
 6648TIP3   OH241502   1.597   6.957   1.764  0.5386 -0.5209 -0.3143
 6648TIP3    H141503   1.620   7.018   1.695 -1.1916 -0.3751 -0.8236
 6648TIP3    H241504   1.638   6.874   1.739 -0.5248 -0.6244 -1.8610
 6649TIP3   OH241505   3.416   4.835   6.931 -0.2618  0.0328  0.2495
 6649TIP3    H141506   3.505   4.827   6.896  0.4152  1.7614  1.4863
 6649TIP3    H241507   3.370   4.892   6.869 -0.1656  0.0774  0.2194
 6650TIP3   OH241508   1.100   2.639   0.320 -0.4402 -0.3567 -0.3647
 6650TIP3    H141509   1.052   2.679   0.393 -2.5446 -2.8470 -0.2506
 6650TIP3    H241510   1.102   2.546   0.341 -0.5405 -1.0627 -3.1477
 6651TIP3   OH241511   0.616   1.632   3.020 -0.7711 -0.0578  0.7883
 6651TIP3    H141512   0.645   1.577   2.948  0.1781 -0.6406  1.5850
 6651TIP3    H241513   0.656   1.593   3.098  0.8291  2.3274  1.2765
 6652TIP3   OH241514   4.801   5.934   0.408 -0.8147  0.2291 -0.5351
 6652TIP3    H141515   4.858   5.939   0.484  0.2378 -2.9227 -0.9792
 6652TIP3    H241516   4.771   5.843   0.406 -1.4275  0.3856 -3.4312
 6653TIP3   OH241517   2.668   5.607   6.973  0.2591  0.0767 -0.3949
 6653TIP3    H141518   2.627   5.670   6.914 -0.6937  0.0693  0.2233
 6653TIP3    H241519   2.701   5.538   6.916  0.8457  0.8652 -1.0387
 6654TIP3   OH241520   4.560   1.802   1.742  0.7734 -0.2126 -0.0542
 6654TIP3    H141521   4.566   1.806   1.837 -0.4922  0.1659  0.0273
 6654TIP3    H241522   4.482   1.748   1.725 -0.1039  1.2450 -0.8420
 6655TIP3   OH241523   6.125   4.206   1.305 -0.0257  0.2645 -0.3236
 6655TIP3    H141524   6.142   4.201   1.399 -0.0296  2.0691 -0.1946
 6655TIP3    H241525   6.057   4.141   1.290  1.4725 -1.6000  0.5104
 6656TIP3   OH241526   4.356   6.656   0.761 -0.5703  0.6118 -0.5252
 6656TIP3    H141527   4.367   6.751   0.752  0.3497  0.5712 -0.0088
 6656TIP3    H241528   4.373   6.621   0.674  1.0904  0.7834 -0.3064
 6657TIP3   OH241529   2.570   5.793   2.760 -0.1033 -0.1555 -0.1970
 6657TIP3    H141530   2.486   5.747   2.752 -1.1924  1.4760  1.0972
 6657TIP3    H241531   2.597   5.778   2.850  0.2102  0.5870 -0.1587
 6658TIP3   OH241532   4.253   5.280   6.726  0.1109  0.3193  0.7360
 6658TIP3    H141533   4.241   5.187   6.709  0.0325  0.5203 -0.4097
 6658TIP3    H241534   4.166   5.318   6.713  0.5164  0.8130 -0.7928
 6659TIP3   OH241535   3.864   5.091   1.062  0.1236  0.2005 -0.6253
 6659TIP3    H141536   3.789   5.124   1.014 -1.0432 -1.8912 -0.3848
 6659TIP3    H241537   3.936   5.093   0.999 -1.0356 -1.1574 -2.0958
 6660TIP3   OH241538   1.938   0.753   8.313  0.5404  0.2597 -0.2621
 6660TIP3    H141539   1.874   0.773   8.381 -0.5895  0.6185 -1.3930
 6660TIP3    H241540   1.934   0.657   8.304  0.7660  0.2012  0.2346
 6661TIP3   OH241541   4.107   1.043   1.688  0.0357  0.3568  0.5230
 6661TIP3    H141542   4.081   1.119   1.637 -0.8261  0.3538  0.9369
 6661TIP3    H241543   4.156   1.079   1.762 -1.4541  0.6475  1.4121
 6662TIP3   OH241544   4.973   6.288   7.810 -0.0136  0.1613 -0.1731
 6662TIP3    H141545   4.932   6.205   7.784 -0.7208 -0.5183  2.7635
 6662TIP3    H241546   4.907   6.331   7.865  1.4998  1.1970  0.9119
 6663TIP3   OH241547   4.502   0.162   3.174  0.2754  0.1153  0.0912
 6663TIP3    H141548   4.591   0.146   3.204 -0.0479 -0.2392  0.8760
 6663TIP3    H241549   4.471   0.235   3.227  0.0970  0.2473 -0.1884
 6664TIP3   OH241550   0.118   2.502   2.280 -0.4466 -0.2773  0.0430
 6664TIP3    H141551   0.147   2.581   2.325  1.9757 -0.7146 -0.6025
 6664TIP3    H241552   0.100   2.440   2.351  2.4515 -0.6690  0.5789
 6665TIP3   OH241553   3.084   3.654   2.194  0.5591 -0.7580 -0.0912
 6665TIP3    H141554   3.167   3.689   2.161  0.3334  0.8987  0.9773
 6665TIP3    H241555   3.047   3.726   2.246 -2.2887 -0.8879 -1.7452
 6666TIP3   OH241556   0.840   6.643   7.934 -0.2714  0.3724  0.1071
 6666TIP3    H141557   0.902   6.713   7.910  1.7012 -1.3935 -0.2561
 6666TIP3    H241558   0.787   6.681   8.004 -0.5372  2.8311 -1.2940
 6667TIP3   OH241559   1.116   4.515   0.342 -0.5233  0.7047 -0.2419
 6667TIP3    H141560   1.023   4.519   0.366 -1.1007  1.9107 -2.3871
 6667TIP3    H241561   1.163   4.536   0.422 -2.0186 -1.3056  1.2566
 6668TIP3   OH241562   4.800   6.668   0.494  0.1490 -0.2971  0.3375
 6668TIP3    H141563   4.748   6.613   0.435 -0.1342  1.2529 -0.9177
 6668TIP3    H241564   4.885   6.623   0.498 -0.3423 -1.2944  0.0723
 6669TIP3   OH241565   1.328   5.077   2.336 -0.1931 -0.2124  0.6444
 6669TIP3    H141566   1.296   5.147   2.392  0.4311  0.1263  0.5901
 6669TIP3    H241567   1.266   5.005   2.349 -0.6153  0.2099  1.0011
 6670TIP3   OH241568   6.369   6.246   1.634  0.3953  0.6010  0.0640
 6670TIP3    H141569   6.370   6.179   1.702 -2.8574  1.1096  0.7487
 6670TIP3    H241570   6.379   6.328   1.681 -1.4039  0.9245 -0.0730
 6671TIP3   OH241571   2.757   1.275   0.010  0.2656 -0.0160  0.1148
 6671TIP3    H141572   2.772   1.268  -0.084 -0.8593 -1.2043  0.0006
 6671TIP3    H241573   2.833   1.324   0.042  1.0782 -0.2897 -1.2822
 6672TIP3   OH241574   1.589   0.200   1.565 -0.2588  0.5328 -0.3068
 6672TIP3    H141575   1.643   0.152   1.502  0.9273  0.1978  0.9179
 6672TIP3    H241576   1.593   0.291   1.536  1.2986  0.5731 -0.0286
 6673TIP3   OH241577   4.925   3.396   8.225  0.1046  0.5783  0.2168
 6673TIP3    H141578   4.951   3.407   8.316 -0.5223  1.9426  0.2688
 6673TIP3    H241579   4.839   3.355   8.229  1.6390 -3.0049  0.0723
 6674TIP3   OH241580   1.332   1.281   7.612  0.4341  0.0706 -0.1970
 6674TIP3    H141581   1.238   1.298   7.614  0.4706  0.2121  2.0929
 6674TIP3    H241582   1.346   1.236   7.528 -1.6919 -0.1605 -0.4806
 6675TIP3   OH241583   1.446   6.902   1.187  0.2011  0.6120  0.3792
 6675TIP3    H141584   1.389   6.866   1.119 -0.9509 -0.6282  1.9151
 6675TIP3    H241585   1.491   6.976   1.145 -0.7858  0.1713 -1.5606
 6676TIP3   OH241586   2.393   6.092   0.581  0.1299 -0.5775  0.5685
 6676TIP3    H141587   2.443   6.046   0.513 -0.3354  0.1043 -0.2521
 6676TIP3    H241588   2.446   6.169   0.603 -0.1755 -0.2761  0.2658
 6677TIP3   OH241589   5.572   6.293   2.595 -0.0796  0.3531  0.1401
 6677TIP3    H141590   5.650   6.275   2.649 -1.0520 -0.4089  1.3597
 6677TIP3    H241591   5.603   6.351   2.526  1.8269 -0.8433 -0.0749
 6678TIP3   OH241592   6.165   6.143   0.634  0.0573 -0.1314  0.4466
 6678TIP3    H141593   6.257   6.162   0.616  0.0353 -1.3068 -1.1323
 6678TIP3    H241594   6.165   6.054   0.667 -0.6135 -0.7122 -1.0169
 6679TIP3   OH241595   1.053   5.003   2.958  0.1952  0.4524  0.0796
 6679TIP3    H141596   1.018   4.925   3.002 -2.1290 -0.5546 -3.1905
 6679TIP3    H241597   1.009   5.076   3.002  1.0966 -0.1277  2.0555
 6680TIP3   OH241598   3.760   3.745   2.957  0.6300 -0.2833 -0.3559
 6680TIP3    H141599   3.851   3.765   2.978  0.3818  0.3974  0.1028
 6680TIP3    H241600   3.753   3.650   2.968  0.7702 -0.0930  1.6512
 6681TIP3   OH241601   1.055   6.558   2.469 -0.2370  0.4235  0.3213
 6681TIP3    H141602   1.041   6.650   2.445 -3.4435 -0.6259 -2.6238
 6681TIP3    H241603   1.041   6.556   2.564  1.4666  3.1194  0.7496
 6682TIP3   OH241604   3.548   0.581   6.601 -0.4177 -0.2613  0.0325
 6682TIP3    H141605   3.541   0.613   6.691 -1.0598  1.0754 -0.4680
 6682TIP3    H241606   3.471   0.616   6.557 -1.2944 -2.6949 -0.5561
 6683TIP3   OH241607   5.000   4.294   2.089 -0.5350  0.1237 -0.1634
 6683TIP3    H141608   5.065   4.237   2.049  0.8455  2.5477 -1.6219
 6683TIP3    H241609   5.027   4.302   2.180 -1.2820 -2.1729  0.3122
 6684TIP3   OH241610   4.910   6.353   8.314 -0.0141  0.1840  0.2287
 6684TIP3    H141611   4.833   6.406   8.294 -0.0201  0.0288 -0.1629
 6684TIP3    H241612   4.903   6.277   8.255 -0.5525 -0.7826  1.4845
 6685TIP3   OH241613   1.539   1.474   1.868  0.4436  0.4256  0.1455
 6685TIP3    H141614   1.613   1.427   1.906  0.3744  1.1761  1.2758
 6685TIP3    H241615   1.552   1.565   1.896 -1.5581  0.3701  1.4552
 6686TIP3   OH241616   3.995   2.745   2.795  0.6103 -0.3807  0.1173
 6686TIP3    H141617   4.070   2.688   2.779  0.7935 -0.6685  1.8035
 6686TIP3    H241618   3.980   2.739   2.889  1.3098  3.1573  0.5962
 6687TIP3   OH241619   4.857   0.179   2.953  0.0327  0.1814  0.0719
 6687TIP3    H141620   4.873   0.110   2.889  0.7543 -0.6217  1.0930
 6687TIP3    H241621   4.811   0.136   3.024  0.3285  0.7889  0.6426
 6688TIP3   OH241622   6.509   0.287   6.886  0.3468  0.7691 -0.1137
 6688TIP3    H141623   6.459   0.210   6.913 -0.9331  1.7081  0.2980
 6688TIP3    H241624   6.469   0.359   6.935 -0.0974  2.0874 -2.2965
 6689TIP3   OH241625   5.306   1.546   2.245  0.2707 -0.0986  0.6661
 6689TIP3    H141626   5.332   1.555   2.336  3.6728  0.8306 -0.2518
 6689TIP3    H241627   5.316   1.633   2.208 -1.3982 -0.3770 -0.5523
 6690TIP3   OH241628   1.979   4.657   0.549 -0.2462 -0.0795  0.0477
 6690TIP3    H141629   2.009   4.596   0.616  0.7810 -0.4538 -0.7254
 6690TIP3    H241630   1.891   4.627   0.527 -0.5466 -0.0213  1.1264
 6691TIP3   OH241631   0.567   5.724   2.828  0.1895  0.1432  0.4271
 6691TIP3    H141632   0.554   5.664   2.901 -1.5166  0.1325  0.1682
 6691TIP3    H241633   0.628   5.790   2.861  0.1388 -0.3536  1.5593
 6692TIP3   OH241634   0.180   0.500   6.784  0.2409 -0.2260 -0.6062
 6692TIP3    H141635   0.186   0.574   6.845  2.5920 -1.9159  1.4607
 6692TIP3    H241636   0.197   0.538   6.698  0.8715  1.7186  0.3103
 6693TIP3   OH241637   3.894   2.930   2.611 -0.3252  0.1022 -0.0132
 6693TIP3    H141638   3.915   3.022   2.631 -3.1550  0.7628  0.4011
 6693TIP3    H241639   3.917   2.882   2.690  0.2163  0.6195  0.1522
 6694TIP3   OH241640   6.746   4.047   7.373 -0.1477 -0.2855  0.0239
 6694TIP3    H141641   6.753   3.956   7.345 -0.5191 -0.4432  0.4337
 6694TIP3    H241642   6.711   4.042   7.462  1.1116  0.2061  0.5562
 6695TIP3   OH241643   6.620   2.568   2.050 -0.2457  0.6316  0.0351
 6695TIP3    H141644   6.697   2.528   2.090  0.4530 -0.6973 -2.4244
 6695TIP3    H241645   6.655   2.638   1.994 -0.4250 -1.3830 -2.8452
 6696TIP3   OH241646   2.094   1.319   1.777  0.6861  0.3338 -0.2007
 6696TIP3    H141647   2.009   1.288   1.808  0.9855 -0.1748  0.1265
 6696TIP3    H241648   2.073   1.391   1.717  0.0495  0.5216  0.2400
 6697TIP3   OH241649   1.357   0.789   8.408 -0.1414  0.1593  0.2711
 6697TIP3    H141650   1.344   0.821   8.319  1.2094 -1.6762 -0.6372
 6697TIP3    H241651   1.270   0.795   8.449 -0.8876  0.5698 -1.3040
 6698TIP3   OH241652   2.365   5.663   1.038 -0.0563 -0.0792 -0.1944
 6698TIP3    H141653   2.451   5.627   1.014  0.0846 -0.6823  1.1274
 6698TIP3    H241654   2.382   5.755   1.058 -0.0072  0.1901 -1.4278
 6699TIP3   OH241655   3.794   3.165   2.316 -0.0250  0.0189  0.3143
 6699TIP3    H141656   3.835   3.079   2.324  0.8777  0.3373 -0.6731
 6699TIP3    H241657   3.700   3.146   2.314  0.1525 -0.9302  0.2570
 6700TIP3   OH241658   4.770   0.916   7.430  0.1096 -0.1146 -0.9782
 6700TIP3    H141659   4.772   0.880   7.518  0.3545 -1.5840 -1.5578
 6700TIP3    H241660   4.860   0.904   7.398  0.3174  1.4337 -1.0480
 6701TIP3   OH241661   2.700   5.675   7.890 -0.1008  0.2423 -0.3500
 6701TIP3    H141662   2.631   5.612   7.871  1.6113 -1.3188 -1.8273
 6701TIP3    H241663   2.778   5.622   7.904  1.6955  1.9533 -2.8722
 6702TIP3   OH241664   6.329   0.310   2.632 -0.2311  0.3121  0.1910
 6702TIP3    H141665   6.402   0.274   2.581  0.1424 -0.4391  1.1962
 6702TIP3    H241666   6.371   0.372   2.692 -0.1054 -1.3099  1.9091
 6703TIP3   OH241667   2.498   2.833   1.019 -0.2452 -0.2705  0.5856
 6703TIP3    H141668   2.546   2.767   1.070 -0.0069 -0.4889  0.0926
 6703TIP3    H241669   2.544   2.915   1.035  0.8893 -0.6406 -0.6157
 6704TIP3   OH241670   5.074   0.702   0.261 -0.0219  0.4282 -0.4137
 6704TIP3    H141671   5.110   0.626   0.216 -1.4943 -0.4562 -0.1924
 6704TIP3    H241672   5.111   0.696   0.350  1.7242  1.3456 -1.0433
 6705TIP3   OH241673   2.120   6.000   7.942 -0.2712 -0.2375  0.2725
 6705TIP3    H141674   2.055   5.937   7.973 -0.8080  0.9047  1.5548
 6705TIP3    H241675   2.068   6.076   7.916  0.5390  0.7065  1.3459
 6706TIP3   OH241676   5.385   0.124   1.667 -0.0016 -0.4831  0.0908
 6706TIP3    H141677   5.382   0.202   1.612  1.2466 -0.9724 -0.7168
 6706TIP3    H241678   5.478   0.102   1.673 -0.3419 -2.1300 -0.0155
 6707TIP3   OH241679   0.592   1.093   2.277 -0.3186  0.0232  0.3034
 6707TIP3    H141680   0.544   1.149   2.338  0.1298 -1.2943  1.9266
 6707TIP3    H241681   0.587   1.006   2.315  0.2512 -0.7966 -1.4112
 6708TIP3   OH241682   3.215   1.211   6.425  0.8526  0.2826  0.0478
 6708TIP3    H141683   3.206   1.274   6.496  1.0108  0.8366 -0.4110
 6708TIP3    H241684   3.305   1.223   6.394  0.3609  1.0861 -1.1806
 6709TIP3   OH241685   5.280   5.480   0.909  0.0875  0.1333  0.2999
 6709TIP3    H141686   5.308   5.417   0.975  1.6880 -1.7063 -1.9586
 6709TIP3    H241687   5.188   5.459   0.893 -0.1873  0.3071  1.5727
 6710TIP3   OH241688   5.376   2.553   2.577 -0.4738  1.0950  0.9022
 6710TIP3    H141689   5.471   2.566   2.581 -0.2331 -0.6048  1.7207
 6710TIP3    H241690   5.341   2.637   2.546  1.3166  1.6321  0.2196
 6711TIP3   OH241691   0.068   3.289   0.650 -0.1320  0.0041  0.4229
 6711TIP3    H141692   0.072   3.381   0.678  0.5541  0.2295 -0.3652
 6711TIP3    H241693   0.092   3.292   0.557  0.1340 -0.9989  0.4529
 6712TIP3   OH241694   2.579   0.775   1.283  0.2135 -0.6323 -0.1544
 6712TIP3    H141695   2.575   0.865   1.316  2.5483  0.1360 -1.7450
 6712TIP3    H241696   2.646   0.733   1.337  2.7462  0.1181 -2.5144
 6713TIP3   OH241697   1.933   3.010   1.955 -0.6262  0.2355 -0.1776
 6713TIP3    H141698   2.028   3.010   1.966 -0.7659 -1.8528  1.9859
 6713TIP3    H241699   1.910   3.102   1.941  1.7392  0.7084 -1.5309
 6714TIP3   OH241700   3.607   4.026   2.280 -0.1341  0.0509 -0.3053
 6714TIP3    H141701   3.558   3.944   2.276  1.2291 -0.8576  0.6011
 6714TIP3    H241702   3.550   4.086   2.326 -1.2508 -0.2998 -1.1849
 6715TIP3   OH241703   6.380   2.604   0.263 -0.0297 -0.2956 -0.1407
 6715TIP3    H141704   6.317   2.532   0.269  0.8516 -0.9431  3.3613
 6715TIP3    H241705   6.361   2.659   0.339 -1.4724  4.0629 -3.2415
 6716TIP3   OH241706   4.729   5.222   2.488 -0.1172  0.3925  0.4311
 6716TIP3    H141707   4.719   5.154   2.421  0.1153  0.8776 -0.1062
 6716TIP3    H241708   4.643   5.228   2.529 -1.0286  1.8003 -1.5024
 6717TIP3   OH241709   5.269   5.544   2.553  0.1636 -0.2567 -0.1458
 6717TIP3    H141710   5.322   5.580   2.624  0.1842 -0.4955 -0.0384
 6717TIP3    H241711   5.183   5.527   2.594  0.3677 -0.9918 -0.0115
 6718TIP3   OH241712   5.198   6.584   1.778  0.3367 -0.2922  0.3816
 6718TIP3    H141713   5.220   6.572   1.870 -1.3302  0.8548  0.9782
 6718TIP3    H241714   5.243   6.664   1.752 -0.5856  0.3490  0.7193
 6719TIP3   OH241715   3.543   2.047   7.547 -0.6032 -0.6440 -0.1866
 6719TIP3    H141716   3.550   2.040   7.452  0.4175 -0.7159 -0.1191
 6719TIP3    H241717   3.582   2.133   7.568  2.1415 -1.9110  0.4043
 6720TIP3   OH241718   0.317   0.885   0.827 -0.1127  0.2061 -0.1914
 6720TIP3    H141719   0.273   0.814   0.874 -0.5474  0.5476 -0.0847
 6720TIP3    H241720   0.290   0.874   0.736 -1.5080  1.2241  0.0817
 6721TIP3   OH241721   1.085   6.531   8.311  0.9367  0.1359  0.0529
 6721TIP3    H141722   1.094   6.512   8.218  2.0469 -0.4765  0.2628
 6721TIP3    H241723   1.165   6.495   8.351 -0.4599 -1.5613  1.5419
 6722TIP3   OH241724   4.243   2.289   1.534 -0.0316 -0.2878 -0.8570
 6722TIP3    H141725   4.297   2.215   1.504  1.3915 -0.2620  1.4290
 6722TIP3    H241726   4.208   2.260   1.618  2.0524  2.2204  1.0407
 6723TIP3   OH241727   3.346   0.699   1.924 -0.1682 -0.7604  0.5869
 6723TIP3    H141728   3.327   0.715   1.831  2.8351 -1.8228 -0.3344
 6723TIP3    H241729   3.308   0.774   1.969  1.8115  2.0211 -1.9860
 6724TIP3   OH241730   6.840   3.784   0.961 -0.1777  0.1835  0.3264
 6724TIP3    H141731   6.746   3.792   0.947 -0.7330  0.2877  3.5119
 6724TIP3    H241732   6.868   3.871   0.989  0.0976 -0.6308  2.8627
 6725TIP3   OH241733   3.203   5.132   7.139 -0.0756 -0.3105 -0.2159
 6725TIP3    H141734   3.271   5.153   7.203  0.3235 -0.0313 -0.7252
 6725TIP3    H241735   3.202   5.036   7.135  0.1994 -0.3161 -0.1133
 6726TIP3   OH241736   2.678   3.776   2.751 -0.2949 -0.4913  0.2331
 6726TIP3    H141737   2.712   3.686   2.756 -0.2049 -0.5223 -0.7951
 6726TIP3    H241738   2.642   3.793   2.838  2.1005 -0.5516  1.2954
 6727TIP3   OH241739   2.619   6.939   8.199  0.3947 -0.0254 -0.3015
 6727TIP3    H141740   2.621   7.014   8.258  0.9196 -0.0558 -0.2768
 6727TIP3    H241741   2.679   6.963   8.128 -0.2046  0.0032 -0.8179
 6728TIP3   OH241742   4.262   6.051   7.622  0.0626 -0.0868  0.4934
 6728TIP3    H141743   4.291   6.015   7.539 -0.9266  0.1479  0.0248
 6728TIP3    H241744   4.170   6.025   7.628 -0.6477  2.1649  0.2178
 6729TIP3   OH241745   5.883   4.226   3.389  0.4758 -0.9135 -0.1059
 6729TIP3    H141746   5.943   4.270   3.329  0.9587  1.0265  1.6620
 6729TIP3    H241747   5.796   4.245   3.354  0.7603 -0.1383 -0.4306
 6730TIP3   OH241748   2.246   3.908   1.275  0.0344 -0.2034  0.4221
 6730TIP3    H141749   2.216   3.999   1.282 -0.3970 -0.3351  0.2947
 6730TIP3    H241750   2.334   3.909   1.313 -0.7277 -0.1183  2.2908
 6731TIP3   OH241751   2.382   1.474   8.013 -0.2525  0.3242  0.8260
 6731TIP3    H141752   2.360   1.459   7.921  0.7965 -1.1027  0.7826
 6731TIP3    H241753   2.454   1.538   8.010  0.1621 -0.1444  0.6124
 6732TIP3   OH241754   5.705   0.516   7.803  0.1041  0.5259 -0.4737
 6732TIP3    H141755   5.782   0.493   7.854 -0.4394 -0.4201 -0.0479
 6732TIP3    H241756   5.641   0.448   7.824 -0.2788  0.3480 -2.1075
 6733TIP3   OH241757   2.611   0.306   8.306  0.2022 -0.1211  0.1673
 6733TIP3    H141758   2.593   0.324   8.214 -0.1370  0.3995  0.3349
 6733TIP3    H241759   2.539   0.249   8.333  0.5127 -0.5956  0.0132
 6734TIP3   OH241760   0.508   2.246   1.576 -0.0563 -0.3056  0.2291
 6734TIP3    H141761   0.570   2.292   1.633  0.1965 -1.2090  0.7125
 6734TIP3    H241762   0.525   2.153   1.593 -0.7147 -0.5764 -0.5397
 6735TIP3   OH241763   2.426   3.520   0.190  0.2665  0.4187  0.2545
 6735TIP3    H141764   2.422   3.440   0.242 -0.0117 -0.7306 -1.4713
 6735TIP3    H241765   2.371   3.582   0.238 -1.6704 -1.2406  0.3053
 6736TIP3   OH241766   1.053   2.875   1.983 -0.3384 -0.2177 -0.0924
 6736TIP3    H141767   1.101   2.943   1.934  0.6915 -1.3447 -0.7029
 6736TIP3    H241768   1.047   2.910   2.072  2.6877 -0.4686  0.3205
 6737TIP3   OH241769   1.836   6.424   2.737  0.2539 -0.0296 -0.6131
 6737TIP3    H141770   1.869   6.431   2.647  0.5307  1.5894 -0.4342
 6737TIP3    H241771   1.898   6.365   2.781  1.7645  1.3054 -0.8260
 6738TIP3   OH241772   4.908   5.610   3.179  0.6877 -0.2429  0.2531
 6738TIP3    H141773   4.880   5.654   3.099  2.1733  0.3116  0.0187
 6738TIP3    H241774   4.906   5.517   3.157  1.4366 -0.0732 -0.5481
 6739TIP3   OH241775   4.239   5.708   1.201  0.5495  0.0735  0.8368
 6739TIP3    H141776   4.312   5.698   1.262  0.4124 -0.6052  0.8980
 6739TIP3    H241777   4.162   5.715   1.257  0.3998 -0.7538  0.7441
 6740TIP3   OH241778   6.200   3.089   3.324  0.2202  0.2074  0.0428
 6740TIP3    H141779   6.248   3.010   3.303 -2.4030 -0.7667 -3.1886
 6740TIP3    H241780   6.261   3.160   3.306  1.3823 -1.0054 -0.9685
 6741TIP3   OH241781   3.292   5.195   1.977 -0.1615 -0.1791  0.3517
 6741TIP3    H141782   3.214   5.241   1.946  0.1914  0.7828  0.8507
 6741TIP3    H241783   3.263   5.105   1.992 -1.0373  0.0390  0.0046
 6742TIP3   OH241784   5.690   6.013   0.454  0.0952  0.3963  0.1344
 6742TIP3    H141785   5.633   5.962   0.512  0.0611  1.1958  0.8099
 6742TIP3    H241786   5.746   6.063   0.513  1.2013 -0.0212 -0.5196
 6743TIP3   OH241787   6.561   0.639   7.318  0.3837  0.0687  0.5122
 6743TIP3    H141788   6.584   0.708   7.257  0.8409 -0.9626 -0.5200
 6743TIP3    H241789   6.474   0.611   7.291  0.2265  0.1945  0.8848
 6744TIP3   OH241790   6.638   3.701   1.884 -0.6822  0.1609 -0.1354
 6744TIP3    H141791   6.582   3.761   1.833 -1.4202  0.5348  1.0519
 6744TIP3    H241792   6.654   3.748   1.966  1.0464 -0.1336 -0.2715
 6745TIP3   OH241793   4.445   5.595   2.052 -0.4020 -0.1314 -0.1614
 6745TIP3    H141794   4.447   5.577   1.958  1.0304 -0.5012 -0.0777
 6745TIP3    H241795   4.371   5.544   2.084 -1.9805  1.2846 -1.3102
 6746TIP3   OH241796   5.725   5.899   1.205  0.1452  0.1663 -0.1960
 6746TIP3    H141797   5.772   5.916   1.124 -0.4676  3.2220 -0.0674
 6746TIP3    H241798   5.697   5.986   1.235 -3.1114 -1.1736  1.2118
 6747TIP3   OH241799   6.515   1.899   7.149  0.1352  0.5207 -0.1779
 6747TIP3    H141800   6.430   1.933   7.178 -0.0569 -1.0345  1.2738
 6747TIP3    H241801   6.493   1.823   7.095  0.5854  1.1645 -1.2830
 6748TIP3   OH241802   5.940   5.151   2.769  0.1406  0.4346  0.3159
 6748TIP3    H141803   5.997   5.226   2.786  0.7536 -0.1996  1.1397
 6748TIP3    H241804   5.925   5.112   2.855 -0.3191 -0.2928 -0.0788
 6749TIP3   OH241805   1.306   2.390   7.674  0.5342 -0.5661 -0.2109
 6749TIP3    H141806   1.259   2.442   7.608 -1.2606  0.7796  1.9794
 6749TIP3    H241807   1.295   2.439   7.756  2.7451 -2.1110  1.1302
 6750TIP3   OH241808   2.904   5.053   2.113 -0.0848  0.3455  0.0705
 6750TIP3    H141809   2.992   5.017   2.110 -0.7598 -1.5639  1.2728
 6750TIP3    H241810   2.847   4.976   2.120 -1.9415  1.4522 -1.7889
 6751TIP3   OH241811   5.452   1.364   3.182 -0.1747  0.2481  0.4530
 6751TIP3    H141812   5.496   1.299   3.127 -1.1996  0.2810 -0.4255
 6751TIP3    H241813   5.432   1.436   3.122 -1.0307  0.4191  0.9367
 6752TIP3   OH241814   4.866   6.073   7.285 -0.1650 -0.2816 -0.9217
 6752TIP3    H141815   4.819   6.151   7.257  1.4655  0.9042 -0.4537
 6752TIP3    H241816   4.898   6.033   7.204 -0.6386 -0.2578 -1.1266
 6753TIP3   OH241817   6.035   2.831   2.278  0.5444  0.1086  0.1865
 6753TIP3    H141818   6.029   2.750   2.329 -0.3094  0.0448  0.0094
 6753TIP3    H241819   6.038   2.900   2.344  0.7591 -0.0422  0.3369
 6754TIP3   OH241820   0.673   4.330   0.293 -0.2734  0.5700  0.0359
 6754TIP3    H141821   0.593   4.294   0.332  0.3255 -0.1421  0.6246
 6754TIP3    H241822   0.642   4.383   0.220 -1.4763  2.4027  1.7760
 6755TIP3   OH241823   4.569   2.773   1.455 -0.3259  0.3390 -0.0426
 6755TIP3    H141824   4.634   2.829   1.499  0.3278  0.5400 -1.2124
 6755TIP3    H241825   4.486   2.798   1.493  0.0159  1.7849 -0.1908
 6756TIP3   OH241826   0.416   3.588   8.245 -0.0171 -0.0772 -0.0169
 6756TIP3    H141827   0.423   3.679   8.217 -3.8995  1.2345  2.4866
 6756TIP3    H241828   0.335   3.557   8.205  0.1416 -1.7468  0.8638
 6757TIP3   OH241829   3.618   4.745   8.094  0.2504  0.0454 -0.2451
 6757TIP3    H141830   3.665   4.779   8.170  0.7526  0.2332 -0.6355
 6757TIP3    H241831   3.680   4.752   8.022  0.0860 -0.9680 -0.5005
 6758TIP3   OH241832   2.563   0.351   2.160  0.2274 -0.5478  0.4159
 6758TIP3    H141833   2.644   0.302   2.143  1.7783  0.8583  3.0787
 6758TIP3    H241834   2.555   0.410   2.085  1.0786 -1.3894 -0.3795
 6759TIP3   OH241835   6.641   2.995   7.975 -0.4646  0.6055 -0.2933
 6759TIP3    H141836   6.687   2.954   7.902  0.8758 -0.9234  1.3223
 6759TIP3    H241837   6.702   3.061   8.008 -0.4373  0.2668  0.3480
 6760TIP3   OH241838   2.426   6.344   2.687  0.1554  0.2570  0.4942
 6760TIP3    H141839   2.493   6.278   2.670  0.3728 -0.2559  2.9032
 6760TIP3    H241840   2.369   6.304   2.753 -2.2261  0.9001 -1.0530
 6761TIP3   OH241841   2.952   1.119   2.031 -0.0047  0.5338  0.1563
 6761TIP3    H141842   2.919   1.072   2.107  1.6779 -1.3566 -0.1997
 6761TIP3    H241843   2.978   1.204   2.065 -1.1384  0.4699  1.2660
 6762TIP3   OH241844   5.716   3.396   0.603 -0.1003 -0.0549 -0.5264
 6762TIP3    H141845   5.756   3.312   0.581  1.2007  0.0993  1.0310
 6762TIP3    H241846   5.777   3.462   0.569 -0.0152  0.2203  0.1466
 6763TIP3   OH241847   2.539   4.332   2.039  0.0824 -0.2009  0.1637
 6763TIP3    H141848   2.551   4.418   1.999  0.9513 -0.8403 -1.0273
 6763TIP3    H241849   2.466   4.293   1.991 -1.4367  0.4755  1.8194
 6764TIP3   OH241850   3.925   3.715   7.709  0.7272 -0.2169  0.1944
 6764TIP3    H141851   3.876   3.797   7.717 -0.7039 -1.0712  0.7378
 6764TIP3    H241852   3.928   3.681   7.799  2.4201 -0.1737  0.1867
 6765TIP3   OH241853   4.837   6.362   0.620  0.3072  0.3831  0.3274
 6765TIP3    H141854   4.878   6.284   0.583 -0.8825  0.5880 -1.5594
 6765TIP3    H241855   4.885   6.435   0.580  0.2928  0.6213  0.7415
 6766TIP3   OH241856   3.642   5.988   1.929  0.0485  0.0906  0.1365
 6766TIP3    H141857   3.659   6.078   1.900  0.9455 -0.1587 -0.1399
 6766TIP3    H241858   3.622   5.940   1.849  0.3744 -0.1312  0.1871
 6767TIP3   OH241859   4.282   5.344   1.112 -0.4696  0.4428  0.0681
 6767TIP3    H141860   4.307   5.350   1.204  0.0960 -0.5887 -0.0100
 6767TIP3    H241861   4.361   5.311   1.068 -0.9974  0.1352 -0.6602
 6768TIP3   OH241862   2.307   1.840   1.972 -0.2630  0.1381 -0.1856
 6768TIP3    H141863   2.263   1.903   2.029  0.1835  1.7594 -1.5395
 6768TIP3    H241864   2.247   1.765   1.969 -0.9338  0.5664  1.2871
 6769TIP3   OH241865   5.225   0.835   2.096  0.0643 -0.5116 -0.5143
 6769TIP3    H141866   5.279   0.759   2.115  0.4387 -0.0924  0.1255
 6769TIP3    H241867   5.274   0.884   2.030  1.1524  0.5712  1.0436
 6770TIP3   OH241868   5.415   5.539   0.406 -0.0905  0.1967  0.3429
 6770TIP3    H141869   5.408   5.444   0.415 -0.4673  0.2488  0.6034
 6770TIP3    H241870   5.331   5.573   0.437  0.6927  0.7316  1.9978
 6771TIP3   OH241871   3.612   0.871   0.743  0.0539  0.0724 -0.5561
 6771TIP3    H141872   3.665   0.951   0.747 -1.0583  0.9561 -2.1684
 6771TIP3    H241873   3.613   0.846   0.651 -0.4175 -1.2354 -0.2321
 6772TIP3   OH241874   4.611   0.402   1.719 -0.2222  0.3570 -0.2515
 6772TIP3    H141875   4.700   0.367   1.729 -0.8715 -1.3049  0.1250
 6772TIP3    H241876   4.577   0.358   1.640 -0.9723  0.3562  0.0605
 6773TIP3   OH241877   4.921   5.495   0.537 -0.2088 -0.7779  0.1338
 6773TIP3    H141878   4.864   5.544   0.477  2.3167  1.6319 -0.5261
 6773TIP3    H241879   4.959   5.426   0.482 -0.3634 -0.5999 -0.2029
 6774TIP3   OH241880   6.423   6.460   2.653  0.0142 -0.0581  0.3569
 6774TIP3    H141881   6.507   6.452   2.606 -1.2825  1.6230 -2.5321
 6774TIP3    H241882   6.447   6.497   2.738  2.3359 -1.4696  0.4319
 6775TIP3   OH241883   0.167   2.355   0.787 -0.2137  0.5427  0.3513
 6775TIP3    H141884   0.087   2.404   0.767  0.2848  1.3397  0.2836
 6775TIP3    H241885   0.173   2.358   0.883  1.0722  2.6974  0.2591
 6776TIP3   OH241886   5.168   1.181   0.104  0.0728 -0.5230  0.2861
 6776TIP3    H141887   5.164   1.101   0.157 -1.7526 -0.4088  0.3749
 6776TIP3    H241888   5.166   1.252   0.168 -1.3773 -0.3964  0.1381
 6777TIP3   OH241889   0.010   0.837   0.828  0.6613  0.0681 -0.3874
 6777TIP3    H141890   0.036   0.929   0.820 -0.5934  0.3419 -1.6864
 6777TIP3    H241891   0.053   0.794   0.754  1.1218 -0.3782  0.1312
 6778TIP3   OH241892   0.256   4.429   2.243 -0.4060  0.7439  0.0165
 6778TIP3    H141893   0.242   4.448   2.335  2.5366 -0.2526  0.7804
 6778TIP3    H241894   0.305   4.504   2.210 -0.4250  0.5725 -0.4149
 6779TIP3   OH241895   4.391   0.047   2.015 -0.1130  0.0805 -0.1651
 6779TIP3    H141896   4.352   0.123   2.060 -1.5710  0.0282 -1.2804
 6779TIP3    H241897   4.355  -0.029   2.061  0.4805  0.0551  0.2561
 6780TIP3   OH241898   5.182   2.121   0.855  0.5388  0.1881  0.5347
 6780TIP3    H141899   5.114   2.187   0.868  0.8590  1.4219 -3.0077
 6780TIP3    H241900   5.255   2.151   0.909 -0.7364  0.3132  2.2776
 6781TIP3   OH241901   5.137   2.865   7.356  0.5844  0.0627  0.7147
 6781TIP3    H141902   5.049   2.830   7.346  0.5740  0.0111  0.9773
 6781TIP3    H241903   5.138   2.901   7.445  0.7773  0.2060  0.6547
 6782TIP3   OH241904   2.246   2.920   0.793  0.3818  0.3299  0.0623
 6782TIP3    H141905   2.233   2.854   0.861 -0.5457 -0.0564 -0.4667
 6782TIP3    H241906   2.310   2.981   0.830 -0.2061  0.2056  1.3448
 6783TIP3   OH241907   0.218   1.316   0.857 -0.0693  0.2902 -0.5976
 6783TIP3    H141908   0.313   1.317   0.866 -0.0173  1.4274 -1.0595
 6783TIP3    H241909   0.192   1.408   0.871 -0.8109  0.5818 -3.3676
 6784TIP3   OH241910   0.896   5.265   1.202  0.5274 -0.1360 -0.0909
 6784TIP3    H141911   0.877   5.172   1.195 -1.4414  0.2046  0.1084
 6784TIP3    H241912   0.945   5.275   1.283 -1.2303 -0.7721  1.1128
 6785TIP3   OH241913   5.039   0.251   2.384 -0.2315  0.8876  0.2107
 6785TIP3    H141914   5.006   0.211   2.465 -0.4062  2.4553  0.9639
 6785TIP3    H241915   4.970   0.311   2.357 -1.8861 -2.1937 -3.2555
 6786TIP3   OH241916   2.980   6.581   0.184 -0.2608 -0.0021  0.1510
 6786TIP3    H141917   2.891   6.550   0.197  0.2606 -1.6577  0.0132
 6786TIP3    H241918   3.012   6.532   0.108  0.6878  0.7653  0.0185
 6787TIP3   OH241919   0.114   1.164   8.300 -0.1236  0.3098 -0.0237
 6787TIP3    H141920   0.127   1.210   8.383 -0.0368 -1.5037  1.0237
 6787TIP3    H241921   0.192   1.109   8.291 -1.7788 -2.3565  0.6732
 6788TIP3   OH241922   0.868   4.100   2.093 -0.5722  0.3639 -0.4208
 6788TIP3    H141923   0.817   4.181   2.090  0.9276  1.4393  0.8673
 6788TIP3    H241924   0.951   4.122   2.051  0.7006  0.2177  1.8580
 6789TIP3   OH241925   4.090   6.327   1.507 -0.7267 -0.0238 -0.6407
 6789TIP3    H141926   4.042   6.384   1.568  1.5176  0.5363  0.7339
 6789TIP3    H241927   4.130   6.388   1.444 -1.2324 -0.4231 -1.3648
 6790TIP3   OH241928   4.277   6.322   7.685  0.1738  0.3890 -0.2294
 6790TIP3    H141929   4.333   6.399   7.675  0.0785  0.3504 -1.2058
 6790TIP3    H241930   4.326   6.251   7.645 -0.0985  0.1227 -0.0962
 6791TIP3   OH241931   1.618   6.397   7.851 -0.2151  0.3002 -0.6039
 6791TIP3    H141932   1.619   6.389   7.947 -0.6944 -0.4931 -0.6530
 6791TIP3    H241933   1.709   6.383   7.825 -0.2326 -0.3834 -0.3211
 6792TIP3   OH241934   0.394   6.692   2.243  0.0668 -0.0280 -0.5714
 6792TIP3    H141935   0.455   6.763   2.225 -0.7485  0.7127 -0.5065
 6792TIP3    H241936   0.366   6.707   2.333  2.6636 -2.5853  0.8456
 6793TIP3   OH241937   5.968   6.835   2.499 -0.0116 -0.8678  0.6342
 6793TIP3    H141938   5.996   6.830   2.408  1.1132  0.2049  0.8963
 6793TIP3    H241939   5.882   6.876   2.496  1.1742  1.7529  0.1915
 6794TIP3   OH241940   6.333   4.177   0.535 -0.2039 -0.0187  0.0789
 6794TIP3    H141941   6.407   4.237   0.521 -0.0604  0.0346  0.9692
 6794TIP3    H241942   6.268   4.204   0.471  0.2065  0.5173 -0.1238
 6795TIP3   OH241943   5.917   5.907   6.864 -0.1709  0.1099 -0.1532
 6795TIP3    H141944   5.932   5.845   6.936 -0.4370 -1.9485 -1.7646
 6795TIP3    H241945   5.850   5.967   6.898  0.5194 -0.0999  1.6877
 6796TIP3   OH241946   0.008   0.793   7.285 -0.2912  0.0055 -0.0220
 6796TIP3    H141947  -0.017   0.752   7.368 -0.1022 -0.4723 -0.1924
 6796TIP3    H241948   0.035   0.719   7.230  1.4338  0.4857  0.1301
 6797TIP3   OH241949   0.017   2.679   2.812  0.0749  0.0895 -0.0867
 6797TIP3    H141950  -0.054   2.615   2.812 -1.3648  1.5106 -2.4488
 6797TIP3    H241951   0.058   2.669   2.898 -1.9670 -1.8735  0.7912
 6798TIP3   OH241952   1.285   0.058   0.856  0.1867  0.5085 -0.2426
 6798TIP3    H141953   1.275  -0.024   0.905 -1.7402  1.1182  0.4856
 6798TIP3    H241954   1.359   0.042   0.798  0.0187 -1.6663  0.0457
 6799TIP3   OH241955   2.385   5.071   1.162 -0.1255  0.0335  0.7019
 6799TIP3    H141956   2.361   4.979   1.167 -0.9394  0.1580 -0.5557
 6799TIP3    H241957   2.311   5.113   1.117  1.8448  0.6477 -2.2166
 6800TIP3   OH241958   5.726   0.730   2.724  0.4282  0.1589 -1.3487
 6800TIP3    H141959   5.770   0.712   2.807  1.0609  0.7111 -1.5487
 6800TIP3    H241960   5.725   0.826   2.719 -1.0296  0.1704 -1.2394
 6801TIP3   OH241961   5.910   4.814   2.381  0.2245  0.5559 -0.4411
 6801TIP3    H141962   5.902   4.743   2.445 -3.3103  1.0438 -0.1301
 6801TIP3    H241963   5.918   4.893   2.434 -1.3111  0.8352 -0.5945
 6802TIP3   OH241964   6.709   5.867   2.147  0.0838 -0.1120 -0.0257
 6802TIP3    H141965   6.792   5.820   2.148  0.5420  0.6546 -0.4592
 6802TIP3    H241966   6.648   5.810   2.193  1.1285 -0.1603  1.3553
 6803TIP3   OH241967   5.263   0.565   2.222  0.0330 -0.0360  0.4969
 6803TIP3    H141968   5.277   0.502   2.152 -1.3751 -2.7133  2.4160
 6803TIP3    H241969   5.345   0.565   2.272 -0.5359 -1.8644  1.5198
 6804TIP3   OH241970   4.801   2.444   2.610  0.2173 -0.5395  0.3310
 6804TIP3    H141971   4.717   2.465   2.650  0.6875  0.0259  1.0483
 6804TIP3    H241972   4.788   2.462   2.517 -0.3699 -0.2009  0.4718
 6805TIP3   OH241973   3.634   3.726   1.586  0.1148  0.4853  0.2553
 6805TIP3    H141974   3.661   3.691   1.501 -1.8751 -1.6734  0.3940
 6805TIP3    H241975   3.588   3.653   1.628 -0.0455  1.8742  2.6821
 6806TIP3   OH241976   4.721   6.558   8.290  0.4444 -0.4492 -0.0101
 6806TIP3    H141977   4.766   6.622   8.346 -0.2640  0.6059 -0.6092
 6806TIP3    H241978   4.660   6.610   8.238 -1.4456 -1.7968  0.7088
 6807TIP3   OH241979   1.448   3.285   1.163  0.5453 -0.1914 -0.9111
 6807TIP3    H141980   1.366   3.249   1.197 -0.2447  0.6988 -1.8070
 6807TIP3    H241981   1.485   3.215   1.109  1.4962 -1.3901  1.1607
 6808TIP3   OH241982   2.744   4.856   3.201  0.2570  0.2247  0.4942
 6808TIP3    H141983   2.716   4.947   3.187 -0.1904  0.3659  2.0908
 6808TIP3    H241984   2.711   4.834   3.288  0.4970 -1.4296  0.1986
 6809TIP3   OH241985   0.052   0.716   1.235 -0.5284  0.2511  0.5162
 6809TIP3    H141986   0.018   0.638   1.279  0.5656 -0.8046 -0.4014
 6809TIP3    H241987  -0.025   0.761   1.202 -1.1954 -0.4550  1.0796
 6810TIP3   OH241988   4.492   5.261   1.444  0.0860  0.1490 -0.3142
 6810TIP3    H141989   4.579   5.228   1.424  0.2890  0.3297  0.2434
 6810TIP3    H241990   4.441   5.183   1.467  0.5028  0.1746  0.7823
 6811TIP3   OH241991   0.179   6.331   1.579  0.3362 -0.0952 -0.1337
 6811TIP3    H141992   0.155   6.410   1.627  2.6379  1.0800 -0.7990
 6811TIP3    H241993   0.101   6.312   1.526  0.3109  2.8547 -1.3706
 6812TIP3   OH241994   4.780   1.105   0.346 -0.7046 -0.8988  0.0320
 6812TIP3    H141995   4.833   1.089   0.424 -1.8005  0.9442  1.2520
 6812TIP3    H241996   4.697   1.061   0.364 -0.8502 -0.7257 -0.2031
 6813TIP3   OH241997   6.921   1.464   2.531 -0.4995  0.3284 -0.1090
 6813TIP3    H141998   6.861   1.528   2.570 -1.3957 -0.0703 -0.8136
 6813TIP3    H241999   6.869   1.384   2.523  0.2467 -0.1410 -0.3810
 6814TIP3   OH242000   3.906   0.176   1.796  0.2406  0.5819 -0.1182
 6814TIP3    H142001   3.855   0.230   1.857  1.1591 -1.0829  2.2287
 6814TIP3    H242002   3.854   0.096   1.786  0.9944  0.0716 -0.0170
 6815TIP3   OH242003   5.631   0.058   2.112 -0.1470  0.3119 -0.9055
 6815TIP3    H142004   5.629   0.084   2.204 -2.3821 -1.3815 -0.3990
 6815TIP3    H242005   5.715   0.092   2.079  0.5372  1.2778  1.6280
 6816TIP3   OH242006   3.226   0.147   0.134  0.3113 -0.1439 -0.1355
 6816TIP3    H142007   3.143   0.172   0.094  1.1748  0.4188 -1.6627
 6816TIP3    H242008   3.216   0.168   0.227 -1.2756 -0.1924 -0.2729
 6817TIP3   OH242009   5.279   6.578   2.076 -0.4930  0.4141 -0.2487
 6817TIP3    H142010   5.354   6.562   2.133  0.2989  0.2177 -1.3331
 6817TIP3    H242011   5.212   6.518   2.109 -0.6634  1.5070  1.5614
 6818TIP3   OH242012   3.886   4.947   7.456 -0.8468 -0.0461 -0.4498
 6818TIP3    H142013   3.899   4.933   7.363 -1.1493 -0.7416 -0.3914
 6818TIP3    H242014   3.945   4.884   7.498 -0.0152  0.8912 -0.1535
 6819TIP3   OH242015   6.276   4.804   1.285  0.2614  0.0822 -0.0531
 6819TIP3    H142016   6.316   4.739   1.342  0.8491 -0.2774 -0.8570
 6819TIP3    H242017   6.335   4.810   1.210 -0.9769 -0.1754 -1.0857
 6820TIP3   OH242018   6.219   5.259   0.057  0.0843  0.2782  0.0657
 6820TIP3    H142019   6.246   5.179   0.102 -0.9772  0.2397  0.6709
 6820TIP3    H242020   6.301   5.302   0.033  0.6809 -1.3384 -0.9293
 6821TIP3   OH242021   5.148   4.158   0.908  0.0963  0.2498  0.7246
 6821TIP3    H142022   5.202   4.143   0.831 -0.7538 -2.8126  0.5630
 6821TIP3    H242023   5.088   4.227   0.883 -0.4906 -1.0137 -1.6090
 6822TIP3   OH242024   4.527   2.349   0.291  0.2765 -0.1538 -0.1797
 6822TIP3    H142025   4.572   2.398   0.223 -0.1877  0.8355  0.1946
 6822TIP3    H242026   4.435   2.349   0.264 -0.2615  2.0150  1.3916
 6823TIP3   OH242027   0.301   2.248   2.718 -0.6823 -0.2900  0.2891
 6823TIP3    H142028   0.258   2.289   2.793 -0.6343  1.7331 -0.7326
 6823TIP3    H242029   0.393   2.244   2.743 -0.7325 -0.0437  0.5212
 6824TIP3   OH242030   1.060   4.635   8.365 -0.1708  0.2925  0.4890
 6824TIP3    H142031   1.081   4.669   8.452 -1.7863  0.5087  0.8331
 6824TIP3    H242032   1.029   4.546   8.381  0.1145  0.1146  0.0616
 6825TIP3   OH242033   2.887   5.509   7.958 -0.1155 -0.2059 -0.4834
 6825TIP3    H142034   2.904   5.439   8.022  2.6711  1.7149  1.0949
 6825TIP3    H242035   2.924   5.475   7.876  3.1187  0.0498  0.7339
 6826TIP3   OH242036   5.642   5.589   3.344 -0.1431  0.0879  0.6672
 6826TIP3    H142037   5.626   5.682   3.333  0.5302  0.3487  1.7264
 6826TIP3    H242038   5.736   5.579   3.328  0.1182 -0.1187  2.1265
 6827TIP3   OH242039   3.796   3.984   7.741 -0.3623  0.1120  0.2220
 6827TIP3    H142040   3.854   4.031   7.681  0.3939 -1.0973 -0.0208
 6827TIP3    H242041   3.720   4.042   7.751  0.5165  1.3596 -0.0887
 6828TIP3   OH242042   6.827   2.490   1.843 -0.0578 -0.4957  0.2534
 6828TIP3    H142043   6.816   2.584   1.850  2.9783  0.0577 -0.9263
 6828TIP3    H242044   6.885   2.466   1.916  1.8970 -0.8101 -1.3196
 6829TIP3   OH242045   3.103   2.088   3.104 -0.1183  0.7098  0.3950
 6829TIP3    H142046   3.172   2.028   3.076  1.1035  2.1057  0.2849
 6829TIP3    H242047   3.139   2.175   3.088 -2.0653  1.5015 -0.0344
 6830TIP3   OH242048   3.321   3.279   8.141  0.2450 -0.2031  0.0056
 6830TIP3    H142049   3.355   3.367   8.155  0.0542  0.0637 -1.1364
 6830TIP3    H242050   3.241   3.291   8.089  0.9038 -1.1101 -1.2760
 6831TIP3   OH242051   6.406   2.686   1.029 -0.0129  0.5995  0.1806
 6831TIP3    H142052   6.444   2.668   0.944 -0.1436 -1.1144  0.4416
 6831TIP3    H242053   6.423   2.778   1.045  2.1624  0.3835 -0.6339
 6832TIP3   OH242054   4.342   1.159   1.483 -0.1069 -0.0661  0.2983
 6832TIP3    H142055   4.422   1.173   1.433 -1.4049  0.1261 -1.8146
 6832TIP3    H242056   4.349   1.220   1.557  0.8826  1.2427 -0.8279
 6833TIP3   OH242057   5.713   0.135   7.787  0.4613  0.0925 -0.3612
 6833TIP3    H142058   5.620   0.133   7.764  0.4640  0.1273 -0.3760
 6833TIP3    H242059   5.757   0.099   7.711  0.3960 -0.7139 -0.0259
 6834TIP3   OH242060   1.702   3.596   0.415  0.2299  0.3674  0.2757
 6834TIP3    H142061   1.684   3.655   0.488  3.2041  1.1230  0.5368
 6834TIP3    H242062   1.623   3.600   0.361 -1.0170  1.8565  2.0771
 6835TIP3   OH242063   2.245   4.336   0.353  0.3791  0.4754 -0.2532
 6835TIP3    H142064   2.303   4.411   0.343  1.9283 -0.3656  1.6676
 6835TIP3    H242065   2.302   4.260   0.342 -0.7939 -0.4159 -0.3865
 6836TIP3   OH242066   2.068   0.836   0.670  0.7237 -0.2820 -0.7553
 6836TIP3    H142067   2.061   0.809   0.761 -0.0189 -0.3554 -0.8321
 6836TIP3    H242068   1.987   0.806   0.629  1.4720 -1.1420 -1.6733
 6837TIP3   OH242069   3.652   1.462   1.605  0.4771  0.0145 -0.0225
 6837TIP3    H142070   3.739   1.436   1.636 -0.0017 -0.6998  0.7506
 6837TIP3    H242071   3.638   1.549   1.642  0.0425 -0.6984  1.5662
 6838TIP3   OH242072   0.322   1.896   0.024  0.1767 -0.3983  0.2137
 6838TIP3    H142073   0.298   1.897   0.116 -0.4344 -0.7070  0.0602
 6838TIP3    H242074   0.397   1.837   0.019  0.0426 -0.5893  0.4711
 6839TIP3   OH242075   2.960   6.531   2.075  0.0782  0.1380  0.2279
 6839TIP3    H142076   2.918   6.486   2.002  1.8299  0.2729 -0.9593
 6839TIP3    H242077   3.043   6.484   2.087  0.9628  1.6680  0.3973
 6840TIP3   OH242078   5.323   0.261   0.347  0.1069 -0.2283  0.0635
 6840TIP3    H142079   5.331   0.255   0.251 -1.2117 -0.0195 -0.0805
 6840TIP3    H242080   5.324   0.354   0.365  1.8920 -0.2897  0.4309
 6841TIP3   OH242081   3.822   1.465   2.080  0.2510 -0.0439  0.0716
 6841TIP3    H142082   3.827   1.426   2.167 -1.3755  1.3236  0.8462
 6841TIP3    H242083   3.849   1.556   2.093  1.1415 -0.1210 -1.1056
 6842TIP3   OH242084   6.045   2.175   2.912 -0.1590 -0.0624  0.4930
 6842TIP3    H142085   5.986   2.230   2.861 -0.9610  1.5054  2.9162
 6842TIP3    H242086   6.010   2.086   2.903 -1.2432  0.4354 -0.3163
 6843TIP3   OH242087   0.269   0.484   1.339  0.2087 -0.1554 -0.6295
 6843TIP3    H142088   0.191   0.512   1.292 -2.1144 -0.5766  2.6083
 6843TIP3    H242089   0.261   0.525   1.426  2.5913 -1.7679  0.4763
 6844TIP3   OH242090   5.573   2.482   1.440  0.1226  0.5020 -0.0534
 6844TIP3    H142091   5.619   2.566   1.435 -0.5704  0.8740 -0.3494
 6844TIP3    H242092   5.484   2.505   1.467 -0.2062 -0.0885 -0.6017
 6845TIP3   OH242093   0.004   4.509   2.728  0.4169  0.1333  0.6162
 6845TIP3    H142094   0.017   4.603   2.738  0.9950  0.1680 -0.3683
 6845TIP3    H242095  -0.086   4.500   2.697  1.1891  0.5944 -2.0068
 6846TIP3   OH242096   4.688   0.241   1.190 -0.4554 -0.0339 -0.4475
 6846TIP3    H142097   4.648   0.169   1.238  0.9166  1.0367  2.5699
 6846TIP3    H242098   4.620   0.307   1.183 -0.5288 -0.0021  0.5260
 6847TIP3   OH242099   2.056   0.280   1.414  0.2339 -0.3989  0.3631
 6847TIP3    H142100   2.005   0.317   1.486  1.8035 -1.8679  2.3528
 6847TIP3    H242101   2.133   0.336   1.408 -0.4220  0.4037 -1.0195
 6848TIP3   OH242102   3.018   5.408   7.738  0.3393  0.1874 -0.4831
 6848TIP3    H142103   3.102   5.371   7.763  1.0553  1.0216 -1.5749
 6848TIP3    H242104   2.992   5.359   7.661 -0.2356 -0.1261 -0.1011
 6849TIP3   OH242105   3.380   0.915   1.738  0.0366  0.0946 -0.1824
 6849TIP3    H142106   3.291   0.887   1.722  0.0232  0.6123 -1.1065
 6849TIP3    H242107   3.381   1.008   1.713  0.9982 -0.0871 -0.8926
 6850TIP3   OH242108   6.620   5.490   8.160  0.5942  0.0420  0.0683
 6850TIP3    H142109   6.667   5.505   8.242  0.9877 -2.3408  0.3476
 6850TIP3    H242110   6.678   5.435   8.109 -0.1733  0.4941 -1.3322
 6851TIP3   OH242111   4.732   1.809   2.611  0.3910  0.0887  0.1903
 6851TIP3    H142112   4.712   1.715   2.617 -1.2111  0.4733  1.6485
 6851TIP3    H242113   4.795   1.824   2.682 -1.5152  0.5898  1.8391
 6852TIP3   OH242114   1.483   6.519   2.561  0.0833 -0.3034  0.5494
 6852TIP3    H142115   1.517   6.504   2.649 -1.5554  0.1698  1.3051
 6852TIP3    H242116   1.398   6.475   2.560 -0.0286 -0.1091 -0.7288
 6853TIP3   OH242117   3.074   3.448   1.205  0.5559  0.5420  0.0159
 6853TIP3    H142118   3.062   3.358   1.175 -1.8661  1.2750 -1.5635
 6853TIP3    H242119   3.036   3.450   1.293 -1.0119  0.3379 -0.6217
 6854TIP3   OH242120   6.466   3.363   7.902  0.2032  0.7073  0.1416
 6854TIP3    H142121   6.500   3.285   7.859  1.0875  0.3124  1.4962
 6854TIP3    H242122   6.406   3.330   7.969 -1.0802  1.3054 -0.6717
 6855TIP3   OH242123   0.565   3.079   0.438  0.2412  0.1581  0.2306
 6855TIP3    H142124   0.500   3.108   0.501 -0.1563 -1.4696  0.6094
 6855TIP3    H242125   0.533   3.112   0.354 -0.3804  0.4720  0.5818
 6856TIP3   OH242126   3.524   4.387   7.533  0.1818 -0.1144 -0.3751
 6856TIP3    H142127   3.460   4.447   7.572  0.5670  0.7955 -1.1168
 6856TIP3    H242128   3.540   4.422   7.445  0.3935 -1.3247 -0.8439
 6857TIP3   OH242129   2.957   4.630   3.615  0.5003 -0.0407 -0.0852
 6857TIP3    H142130   2.971   4.723   3.596 -0.7119  0.6539  2.1039
 6857TIP3    H242131   2.949   4.589   3.528 -0.2513  2.1214 -1.1083
 6858TIP3   OH242132   5.737   2.366   0.233  0.0713 -0.3938  0.2741
 6858TIP3    H142133   5.706   2.322   0.154  0.6550  0.1164 -0.2512
 6858TIP3    H242134   5.826   2.333   0.246  0.6411  0.8470 -0.3146
 6859TIP3   OH242135   4.857   2.953   2.540  0.9743 -0.3676 -0.1710
 6859TIP3    H142136   4.936   2.998   2.511  1.3863 -0.9743 -0.0160
 6859TIP3    H242137   4.881   2.860   2.540  0.1892 -0.5777 -0.3479
 6860TIP3   OH242138   6.721   2.582   8.386  0.3529  0.0787 -0.0860
 6860TIP3    H142139   6.796   2.539   8.343  0.3064  0.3430 -0.4336
 6860TIP3    H242140   6.672   2.622   8.314  0.4009  0.7252  0.2304
 6861TIP3   OH242141   5.362   5.872   0.331 -0.3142  0.3129 -0.3147
 6861TIP3    H142142   5.302   5.946   0.330  1.3976  1.7890  0.3667
 6861TIP3    H242143   5.432   5.897   0.271  0.8146 -0.2786  0.7102
 6862TIP3   OH242144   1.013   1.954   2.341  0.3133 -0.2583 -0.0348
 6862TIP3    H142145   1.014   1.869   2.296 -0.5634  0.6662 -1.9385
 6862TIP3    H242146   0.993   1.933   2.432  0.1824 -2.0900 -0.4426
 6863TIP3   OH242147   2.846   4.083   7.987 -0.5788  0.3725  0.3699
 6863TIP3    H142148   2.829   4.156   7.928  1.2806 -0.1177 -0.8479
 6863TIP3    H242149   2.806   4.109   8.070 -1.4779  1.9735 -0.5204
 6864TIP3   OH242150   2.027   2.300   0.705 -0.1858  0.0666 -0.4878
 6864TIP3    H142151   2.096   2.274   0.766 -0.7383 -1.0385 -0.3050
 6864TIP3    H242152   2.065   2.373   0.656  0.6061  0.3627  0.5300
 6865TIP3   OH242153   0.210   0.306   0.573  0.2282 -0.4553 -0.2205
 6865TIP3    H142154   0.291   0.318   0.623  1.0895 -1.7238 -1.2574
 6865TIP3    H242155   0.184   0.216   0.592 -0.9416 -0.0643  0.0722
 6866TIP3   OH242156   1.558   5.051   2.640 -0.0202 -0.3414 -0.0102
 6866TIP3    H142157   1.567   4.999   2.560 -1.1272  0.0435 -0.3910
 6866TIP3    H242158   1.475   5.098   2.630  1.1849  1.9626  0.0610
 6867TIP3   OH242159   1.071   2.091   0.950 -0.4759  0.1527 -0.5036
 6867TIP3    H142160   0.976   2.085   0.960 -0.2448 -1.3870  1.2129
 6867TIP3    H242161   1.103   2.006   0.979  1.5215  1.0934  0.1752
 6868TIP3   OH242162   5.263   4.310   0.470 -0.1912  0.1336  0.0072
 6868TIP3    H142163   5.195   4.259   0.426 -0.0131  1.0321 -1.3480
 6868TIP3    H242164   5.344   4.286   0.425 -0.3465  2.9984 -2.0135
 6869TIP3   OH242165   6.497   6.383   0.700  0.0554  0.2365 -0.2104
 6869TIP3    H142166   6.508   6.309   0.641  1.7316  0.1584  0.1532
 6869TIP3    H242167   6.537   6.457   0.653  1.4707  0.1578  0.7962
 6870TIP3   OH242168   4.175   5.223   8.345  0.1914 -0.2102  0.2410
 6870TIP3    H142169   4.092   5.256   8.311  0.0282 -0.6755  0.1755
 6870TIP3    H242170   4.151   5.144   8.393  0.3984  0.4784  1.5404
 6871TIP3   OH242171   6.392   3.747   2.085  0.1072 -0.2305 -0.1602
 6871TIP3    H142172   6.302   3.770   2.106 -0.0622  0.7121 -1.7339
 6871TIP3    H242173   6.410   3.669   2.138 -1.0643  0.5161  1.3979
 6872TIP3   OH242174   6.480   0.273   7.297  0.6294 -0.3990  0.4051
 6872TIP3    H142175   6.446   0.206   7.356  0.2046  0.8823  1.6624
 6872TIP3    H242176   6.404   0.305   7.249  1.0383 -1.7524 -1.2288
 6873TIP3   OH242177   3.115   6.262   0.524 -0.3084  0.0176  0.1940
 6873TIP3    H142178   3.187   6.258   0.588  0.9229  1.7123 -0.9840
 6873TIP3    H242179   3.097   6.171   0.503 -0.2302 -0.5584  2.3660
 6874TIP3   OH242180   0.768   0.742   1.154 -0.1026 -0.0056 -0.3976
 6874TIP3    H142181   0.687   0.724   1.200  0.0721 -1.0858 -0.4750
 6874TIP3    H242182   0.743   0.747   1.062  0.0252 -1.2800 -0.5265
 6875TIP3   OH242183   5.438   0.807   6.977  0.4493  0.1828  0.4192
 6875TIP3    H142184   5.533   0.806   6.968  0.3062  0.3065 -1.4190
 6875TIP3    H242185   5.406   0.745   6.911 -0.7270 -0.7569  1.7800
 6876TIP3   OH242186   4.851   0.008   6.638  0.0182  0.4229  0.0903
 6876TIP3    H142187   4.896   0.079   6.684 -1.8132  0.9728  1.1417
 6876TIP3    H242188   4.802   0.053   6.568  0.5197 -0.0721 -0.5915
 6877TIP3   OH242189   0.312   1.718   7.471  0.2050  0.2164 -0.1243
 6877TIP3    H142190   0.229   1.691   7.431 -0.9910  1.9526  1.0392
 6877TIP3    H242191   0.364   1.751   7.398 -0.4328 -0.1623 -0.7617
 6878TIP3   OH242192   4.778   2.008   0.166  0.2286 -0.5750  0.3575
 6878TIP3    H142193   4.786   1.944   0.095 -0.4326  0.4348 -0.6689
 6878TIP3    H242194   4.742   1.958   0.239 -2.8165 -0.9080 -1.2105
 6879TIP3   OH242195   5.585   2.433   2.317 -0.2615  0.2237 -0.6919
 6879TIP3    H142196   5.579   2.520   2.354  1.1280 -0.3003  0.9011
 6879TIP3    H242197   5.500   2.392   2.335 -0.4327  0.7846 -0.2262
 6880TIP3   OH242198   0.932   0.135   0.667 -0.0880 -0.5139 -0.0389
 6880TIP3    H142199   0.897   0.064   0.720  1.6761 -1.8757 -0.5724
 6880TIP3    H242200   0.925   0.104   0.577 -0.5678  0.6003 -0.4003
 6881TIP3   OH242201   1.619   5.667   8.287 -0.5129  0.5005 -0.3809
 6881TIP3    H142202   1.530   5.635   8.304 -0.5554  0.4946 -0.6177
 6881TIP3    H242203   1.676   5.599   8.323 -0.6026  0.4433 -0.3462
 6882TIP3   OH242204   0.023   6.290   1.091 -0.1159  0.0089 -0.2081
 6882TIP3    H142205  -0.064   6.320   1.064  0.4512  1.5272 -0.4562
 6882TIP3    H242206   0.081   6.317   1.019  1.1865  2.7358  1.6988
 6883TIP3   OH242207   2.282   5.288   0.036 -0.3798 -0.0826  0.7433
 6883TIP3    H142208   2.320   5.292   0.124  2.4431 -0.3800 -0.3670
 6883TIP3    H242209   2.284   5.195   0.013 -2.6144 -0.2257  0.9007
 6884TIP3   OH242210   2.729   3.333   7.950 -0.5681 -0.7162  0.2708
 6884TIP3    H142211   2.771   3.274   7.887 -0.1400 -0.3676  0.2320
 6884TIP3    H242212   2.801   3.374   7.998 -0.7854  0.9880 -0.7800
 6885TIP3   OH242213   4.304   0.735   7.877  0.1294 -0.3478 -0.2269
 6885TIP3    H142214   4.274   0.803   7.937  0.2983 -0.1419 -0.3725
 6885TIP3    H242215   4.300   0.654   7.928  0.4476 -0.1467  0.1261
 6886TIP3   OH242216   2.165   4.828   1.533 -0.7154  0.5577  0.5442
 6886TIP3    H142217   2.149   4.737   1.557  0.1773  0.5939  1.3556
 6886TIP3    H242218   2.077   4.866   1.524 -1.1910 -1.0070 -2.5588
 6887TIP3   OH242219   2.588   3.964   7.895  0.5155  0.0029  0.2827
 6887TIP3    H142220   2.616   3.948   7.805  0.4354  1.8933 -0.1245
 6887TIP3    H242221   2.643   4.037   7.924 -0.1078  0.0235  1.4513
 6888TIP3   OH242222   5.835   3.688   0.166  0.4291  0.2152 -0.1486
 6888TIP3    H142223   5.821   3.746   0.241  0.0901  0.8188 -0.6669
 6888TIP3    H242224   5.929   3.671   0.166  0.4502  0.3101  0.3454
 6889TIP3   OH242225   6.452   0.977   2.109  0.0092 -0.7338  0.1270
 6889TIP3    H142226   6.367   1.016   2.088  0.7473 -0.0034 -1.7845
 6889TIP3    H242227   6.431   0.887   2.135 -1.3743 -0.4577  0.0581
 6890TIP3   OH242228   5.149   5.483   2.268 -0.0430 -0.1374 -0.4753
 6890TIP3    H142229   5.068   5.505   2.314 -0.6484  1.5278 -2.2600
 6890TIP3    H242230   5.144   5.388   2.256 -0.9596 -0.2806  0.8077
 6891TIP3   OH242231   6.113   4.170   1.579 -0.8242  0.1912  0.0931
 6891TIP3    H142232   6.059   4.122   1.643 -0.2788  0.8557  1.0831
 6891TIP3    H242233   6.170   4.225   1.633 -0.8273  1.2901 -0.9943
 6892TIP3   OH242234   1.806   6.120   7.579 -0.4092  0.4198  0.2366
 6892TIP3    H142235   1.762   6.201   7.552 -0.0880  0.7083  0.5680
 6892TIP3    H242236   1.882   6.149   7.629 -0.2668 -0.0883  0.3252
 6893TIP3   OH242237   2.776   5.538   8.257  0.2929 -0.7180 -0.2414
 6893TIP3    H142238   2.707   5.490   8.212  0.2994 -0.7658 -0.1997
 6893TIP3    H242239   2.798   5.484   8.333 -2.2963  1.0257  1.9633
 6894TIP3   OH242240   0.816   0.000   7.581  0.2641  0.0025  1.0426
 6894TIP3    H142241   0.893   0.056   7.591  0.7649 -0.5143  0.2353
 6894TIP3    H242242   0.774   0.032   7.501 -0.0650 -0.0689  1.1835
 6895TIP3   OH242243   1.311   0.201   2.374  0.6788  0.0851 -0.4117
 6895TIP3    H142244   1.400   0.226   2.351  1.0107 -1.0000 -0.3757
 6895TIP3    H242245   1.281   0.270   2.434  1.5861  0.3207 -0.2127
 6896TIP3   OH242246   1.391   3.648   1.135 -0.3856 -0.4537  0.4071
 6896TIP3    H142247   1.404   3.743   1.145 -1.1867  0.0442 -2.2338
 6896TIP3    H242248   1.477   3.610   1.151  0.3287  0.9192  0.0257
 6897TIP3   OH242249   4.322   1.559   7.056 -0.2023 -0.0971 -0.2768
 6897TIP3    H142250   4.411   1.557   7.020 -0.8862 -0.1279 -2.0818
 6897TIP3    H242251   4.266   1.540   6.981 -1.5956 -3.8433  1.4416
 6898TIP3   OH242252   0.466   2.272   7.516 -0.2895 -0.1555 -0.1345
 6898TIP3    H142253   0.380   2.312   7.503 -0.3829 -0.6509 -1.0762
 6898TIP3    H242254   0.520   2.307   7.445  0.5335  0.8049  0.9338
 6899TIP3   OH242255   1.805   2.084   7.715  0.0027  0.0141 -0.4157
 6899TIP3    H142256   1.738   2.040   7.663 -0.5706 -0.9010  1.0525
 6899TIP3    H242257   1.761   2.109   7.796  0.8310  1.5619 -0.3887
 6900TIP3   OH242258   2.679   1.637   2.305  0.1664  0.1497 -0.4501
 6900TIP3    H142259   2.646   1.553   2.275 -0.2828 -0.0339  0.5276
 6900TIP3    H242260   2.699   1.685   2.225 -2.8529  0.4293 -1.1719
 6901TIP3   OH242261   2.276   4.679   0.853 -0.1322  0.1324  0.2977
 6901TIP3    H142262   2.245   4.768   0.868  0.4418 -0.1186  3.7358
 6901TIP3    H242263   2.224   4.648   0.778 -1.6410  2.6945  0.1573
 6902TIP3   OH242264   0.992   6.479   1.757 -0.0335 -0.3340  0.3645
 6902TIP3    H142265   1.006   6.398   1.805  0.1252  0.9259  2.5967
 6902TIP3    H242266   1.080   6.506   1.729 -0.1441 -1.1486 -0.8441
 6903TIP3   OH242267   5.168   2.524   7.848  0.2701  0.4140 -0.3006
 6903TIP3    H142268   5.247   2.516   7.901 -1.3900  1.8367  2.6700
 6903TIP3    H242269   5.171   2.613   7.813 -0.5768  0.9851  0.9826
 6904TIP3   OH242270   0.302   3.282   0.912 -0.6729 -0.4026  0.1971
 6904TIP3    H142271   0.253   3.209   0.874 -0.1574 -0.2973 -0.7034
 6904TIP3    H242272   0.246   3.314   0.983 -1.3160 -1.0962  0.0187
 6905TIP3   OH242273   3.225   3.407   1.928  0.1158  0.1481 -0.8225
 6905TIP3    H142274   3.134   3.376   1.934 -0.0896  1.0090  1.3725
 6905TIP3    H242275   3.274   3.348   1.985  0.1238  2.2174  1.4868
 6906TIP3   OH242276   4.930   5.920   1.439 -0.5705 -0.0398  0.1018
 6906TIP3    H142277   4.955   5.830   1.418 -1.7652 -0.0864 -1.2635
 6906TIP3    H242278   5.013   5.966   1.450  0.0679 -1.0466 -0.3650
 6907TIP3   OH242279   1.967   2.183   1.643  0.0779  0.0262  0.1300
 6907TIP3    H142280   1.886   2.234   1.633  0.0191 -0.1393 -0.2686
 6907TIP3    H242281   1.956   2.137   1.726  0.8310  1.8937  1.3291
 6908TIP3   OH242282   1.422   3.298   0.759 -0.0240 -0.4215  0.2934
 6908TIP3    H142283   1.348   3.347   0.723 -0.0328 -0.9780 -0.4729
 6908TIP3    H242284   1.463   3.358   0.821 -0.8014  0.0805  0.3221
 6909TIP3   OH242285   1.381   0.720   1.212 -0.4689  0.2223  0.1145
 6909TIP3    H142286   1.347   0.772   1.139 -0.6544  2.5209  1.7257
 6909TIP3    H242287   1.303   0.697   1.263 -0.2404 -0.4660  0.1648
 6910TIP3   OH242288   0.509   5.058   0.253 -0.4552 -0.1335  0.1269
 6910TIP3    H142289   0.557   5.055   0.171 -1.5130  1.1402 -0.5744
 6910TIP3    H242290   0.423   5.094   0.230 -1.1040 -0.6052  1.6406
 6911TIP3   OH242291   4.766   1.509   8.085  0.1079 -0.8536  0.5748
 6911TIP3    H142292   4.696   1.453   8.052 -0.2728  0.9359 -2.0144
 6911TIP3    H242293   4.815   1.536   8.007  0.9859  1.4143  1.7838
 6912TIP3   OH242294   1.163   0.446   1.924 -1.0615  0.6433  0.3436
 6912TIP3    H142295   1.202   0.361   1.902  1.6699  1.6021  1.0556
 6912TIP3    H242296   1.127   0.478   1.841 -0.7546 -0.5351 -0.2687
 6913TIP3   OH242297   1.278   4.413   2.693 -0.4587 -0.4017  0.5588
 6913TIP3    H142298   1.371   4.389   2.697 -0.1431  0.5269 -0.5228
 6913TIP3    H242299   1.241   4.357   2.626 -0.7979 -1.0772  1.2942
 6914TIP3   OH242300   3.981   0.246   8.188  0.2408  0.3708  0.7052
 6914TIP3    H142301   3.987   0.204   8.273 -2.0840  1.3770  1.4314
 6914TIP3    H242302   4.072   0.250   8.156  0.7496 -4.1338  1.0176
 6915TIP3   OH242303   4.243   0.303   1.417 -0.4061 -0.1261  0.0323
 6915TIP3    H142304   4.325   0.282   1.461  0.0906 -0.8612 -1.1911
 6915TIP3    H242305   4.178   0.247   1.461 -0.2912  0.4815  1.0238
 6916TIP3   OH242306   6.008   1.960   8.149 -0.2042 -0.0271  0.0808
 6916TIP3    H142307   6.066   1.900   8.196  0.3123  0.7324  0.4301
 6916TIP3    H242308   5.923   1.951   8.192 -0.6722 -1.9500 -1.1115
 6917TIP3   OH242309   0.244   3.870   7.947 -0.1731  0.0329 -0.6856
 6917TIP3    H142310   0.303   3.941   7.972 -1.5587  0.5440  1.3706
 6917TIP3    H242311   0.298   3.791   7.954  0.3363  0.4940  1.1040
 6918TIP3   OH242312   5.694   0.529   7.540  0.1799 -0.0745  0.0752
 6918TIP3    H142313   5.710   0.526   7.634 -1.0519 -1.0033  0.2704
 6918TIP3    H242314   5.653   0.614   7.525 -1.4460 -0.7190  0.7062
 6919TIP3   OH242315   1.387   0.504   2.318  0.2425  0.3084 -0.5189
 6919TIP3    H142316   1.431   0.505   2.403  3.6983  2.9132 -2.1163
 6919TIP3    H242317   1.449   0.461   2.260 -0.6280  1.4039 -2.3320
 6920TIP3   OH242318   0.936   1.924   1.942 -0.2064  0.3299 -0.2418
 6920TIP3    H142319   0.918   1.854   1.879 -0.3084  1.5084 -1.5729
 6920TIP3    H242320   0.984   1.881   2.013 -0.3815 -1.1023 -0.9587
 6921TIP3   OH242321   3.234   5.095   3.111  0.8486 -0.2408  0.5124
 6921TIP3    H142322   3.143   5.088   3.140 -0.0226 -3.6425 -2.2878
 6921TIP3    H242323   3.246   5.188   3.092 -2.6051  0.1631 -0.4222
 6922TIP3   OH242324   6.449   4.923   1.090 -0.6104  0.1544 -0.2941
 6922TIP3    H142325   6.454   4.918   0.994 -0.6807 -1.2865 -0.2443
 6922TIP3    H242326   6.534   4.889   1.119 -0.4412  0.9428  0.1707
 6923TIP3   OH242327   2.222   2.084   8.381  0.1114 -0.4218  0.2020
 6923TIP3    H142328   2.241   2.002   8.336  1.1766  0.5666 -1.2680
 6923TIP3    H242329   2.296   2.097   8.440 -0.4225 -0.8666  0.9788
 6924TIP3   OH242330   0.181   4.144   1.044 -0.3003 -0.1952  0.1009
 6924TIP3    H142331   0.192   4.097   0.961  0.3585 -1.1142  0.6830
 6924TIP3    H242332   0.131   4.222   1.021 -0.3929 -0.5860 -1.1076
 6925TIP3   OH242333   4.085   3.779   2.640  0.6565  0.0790 -0.2113
 6925TIP3    H142334   4.121   3.805   2.724 -0.0674 -0.2604  0.2185
 6925TIP3    H242335   4.037   3.698   2.659 -0.1072  0.3798 -0.8026
 6926TIP3   OH242336   3.317   5.331   0.215 -0.1670 -0.4175 -0.1980
 6926TIP3    H142337   3.339   5.265   0.281  1.1099  0.7196  0.5738
 6926TIP3    H242338   3.224   5.317   0.198 -0.8370 -0.0892  2.6508
 6927TIP3   OH242339   4.387   4.983   7.111  0.5586 -0.1622  0.6215
 6927TIP3    H142340   4.475   5.021   7.118  0.9426 -0.8643 -0.2164
 6927TIP3    H242341   4.329   5.053   7.141  1.4603 -0.0777  2.3252
 6928TIP3   OH242342   4.303   2.579   1.316  1.0017 -0.4233 -0.3440
 6928TIP3    H142343   4.219   2.554   1.354  1.0624 -1.0705 -0.6197
 6928TIP3    H242344   4.299   2.675   1.310  0.3768 -0.4325 -0.1474
 6929TIP3   OH242345   3.434   5.485   2.125 -0.0827 -0.1496 -0.0426
 6929TIP3    H142346   3.495   5.418   2.158  1.5670  0.3395 -1.8729
 6929TIP3    H242347   3.446   5.559   2.184 -0.9654 -0.9594  1.2231
 6930TIP3   OH242348   3.244   0.828   1.208 -0.6333 -0.1366  0.0541
 6930TIP3    H142349   3.218   0.878   1.131 -0.3000 -2.3687 -1.6290
 6930TIP3    H242350   3.333   0.859   1.228 -0.9665  0.9150 -0.0396
 6931TIP3   OH242351   0.379   6.429   7.234  0.3420  0.2472  0.0917
 6931TIP3    H142352   0.293   6.447   7.273 -1.0333  0.0923 -2.6214
 6931TIP3    H242353   0.391   6.500   7.171  1.7558 -0.3011 -0.2886
 6932TIP3   OH242354   5.466   2.161   0.585  0.3538 -1.0267 -0.1616
 6932TIP3    H142355   5.399   2.101   0.618 -0.1591 -0.6530 -0.5018
 6932TIP3    H242356   5.548   2.112   0.593  0.3936 -0.6761  2.4151
 6933TIP3   OH242357   2.216   3.558   0.522 -0.3945  0.1208 -0.2477
 6933TIP3    H142358   2.233   3.609   0.443  0.6029  0.1215 -0.0372
 6933TIP3    H242359   2.195   3.623   0.589  1.3588  0.3112  0.1456
 6934TIP3   OH242360   1.677   3.139   0.001  0.2607 -0.2851  0.4200
 6934TIP3    H142361   1.598   3.142  -0.053 -0.2820  0.5483  1.2315
 6934TIP3    H242362   1.652   3.183   0.082  2.1403  1.8529 -0.0747
 6935TIP3   OH242363   2.785   6.121   0.920 -0.3199 -0.3005 -0.1780
 6935TIP3    H142364   2.863   6.176   0.916 -0.3668 -0.2183  0.0612
 6935TIP3    H242365   2.814   6.041   0.963 -0.2219 -0.5159 -0.6359
 6936TIP3   OH242366   2.564   2.979   0.392  0.0444  0.8286  0.5519
 6936TIP3    H142367   2.555   2.944   0.481 -1.6086  1.7992  0.8008
 6936TIP3    H242368   2.475   2.982   0.358  0.4439  2.1943 -0.4659
 6937TIP3   OH242369   6.953   2.932   0.298 -0.0696  0.3032  0.3308
 6937TIP3    H142370   6.916   2.906   0.213  1.3138  1.6084 -0.7146
 6937TIP3    H242371   7.046   2.908   0.292  0.3607  1.7534  0.8961
 6938TIP3   OH242372   4.706   5.846   2.995  0.1605  0.3535 -0.1248
 6938TIP3    H142373   4.738   5.933   3.018  1.1291  0.0340 -0.1819
 6938TIP3    H242374   4.639   5.826   3.060  0.5522  0.7845  0.4156
 6939TIP3   OH242375   5.871   3.190   1.557  0.1475 -0.3247  0.3637
 6939TIP3    H142376   5.849   3.152   1.642  1.3378 -0.5818  0.5758
 6939TIP3    H242377   5.868   3.115   1.496 -1.1500 -0.0629  0.0666
 6940TIP3   OH242378   2.032   5.356   1.202  0.1909  0.2947 -0.0075
 6940TIP3    H142379   2.017   5.426   1.139 -3.0266  0.5950  0.9105
 6940TIP3    H242380   2.112   5.382   1.248  1.0563  1.4768 -2.0642
 6941TIP3   OH242381   5.731   3.377   7.628  0.3246 -0.2033 -0.5205
 6941TIP3    H142382   5.643   3.363   7.592  0.4562 -1.1786 -0.4802
 6941TIP3    H242383   5.784   3.307   7.589  0.2426 -2.0608  2.3877
 6942TIP3   OH242384   6.719   1.878   7.928 -0.1098  0.2298  0.3774
 6942TIP3    H142385   6.631   1.901   7.959  0.3569  1.3536  0.9372
 6942TIP3    H242386   6.705   1.809   7.863 -1.5525  1.6734 -0.9058
 6943TIP3   OH242387   2.242   4.835   1.271 -0.3992 -0.0232  0.4435
 6943TIP3    H142388   2.199   4.920   1.267 -0.1881  0.0708  0.1495
 6943TIP3    H242389   2.244   4.813   1.365 -1.3931 -0.1933  0.4348
 6944TIP3   OH242390   3.473   4.523   1.428  0.0373  0.3048  0.2542
 6944TIP3    H142391   3.442   4.611   1.407 -0.3918 -0.1499 -1.1430
 6944TIP3    H242392   3.521   4.495   1.349  1.6777 -0.0575  1.3387
 6945TIP3   OH242393   6.876   5.930   1.843  0.3160  0.5359 -0.3921
 6945TIP3    H142394   6.857   5.948   1.751 -0.3515  0.0737 -0.3507
 6945TIP3    H242395   6.840   5.843   1.859  2.6957 -0.5351 -0.3667
 6946TIP3   OH242396   3.577   2.878   8.157 -0.2066  0.3797 -0.2856
 6946TIP3    H142397   3.619   2.875   8.243 -0.6918  0.4411 -0.0402
 6946TIP3    H242398   3.485   2.855   8.175 -0.0673 -0.7720 -0.9546
 6947TIP3   OH242399   4.981   1.658   1.419 -0.3150  0.2793  0.0042
 6947TIP3    H142400   5.055   1.706   1.380 -1.4290  1.4733 -0.7093
 6947TIP3    H242401   4.906   1.715   1.405 -1.1246 -0.1760  2.1606
 6948TIP3   OH242402   3.244   2.468   1.252  0.1274 -0.3500  0.4073
 6948TIP3    H142403   3.308   2.469   1.180  0.5110 -1.2773  0.7145
 6948TIP3    H242404   3.273   2.396   1.308 -0.3717  0.1378  1.3121
 6949TIP3   OH242405   1.602   6.868   0.145  0.0203 -0.1163  0.9167
 6949TIP3    H142406   1.550   6.936   0.188 -1.4958 -0.8307  0.2929
 6949TIP3    H242407   1.590   6.884   0.052  0.8912 -0.3483  0.7517
 6950TIP3   OH242408   0.954   0.042   0.131  0.3499 -0.0697  0.3070
 6950TIP3    H142409   1.000  -0.031   0.090  2.2039 -0.0029  2.1113
 6950TIP3    H242410   0.888   0.068   0.067  1.2155 -1.7754 -1.3704
 6951TIP3   OH242411   1.847   4.221   2.184  0.3620  0.2558  0.6221
 6951TIP3    H142412   1.886   4.152   2.237  0.1897 -0.5136 -0.2374
 6951TIP3    H242413   1.909   4.294   2.192  1.7572 -0.7645 -0.2905
 6952TIP3   OH242414   5.162   3.307   7.581 -0.0142  0.0806  0.3013
 6952TIP3    H142415   5.114   3.337   7.659 -0.7039  0.2761 -0.1898
 6952TIP3    H242416   5.126   3.220   7.563  1.5204 -0.8155  1.3351
 6953TIP3   OH242417   2.463   6.836   0.548 -0.0453  0.2566 -0.2633
 6953TIP3    H142418   2.548   6.801   0.524 -0.3242 -0.6055 -0.0007
 6953TIP3    H242419   2.430   6.777   0.615 -2.3157 -1.4546 -2.6894
 6954TIP3   OH242420   2.147   2.990   7.605 -0.1011 -0.6612 -0.2786
 6954TIP3    H142421   2.115   3.016   7.519  0.0056  2.6166  0.5250
 6954TIP3    H242422   2.221   2.933   7.586  0.0587  0.1378 -2.3969
 6955TIP3   OH242423   6.017   2.418   7.861  0.0825 -0.5440 -0.3310
 6955TIP3    H142424   5.977   2.422   7.774  1.2280 -0.6961 -0.8773
 6955TIP3    H242425   6.055   2.331   7.866 -0.1022 -0.5856  0.3821
 6956TIP3   OH242426   3.980   4.639   0.249 -0.2991  0.5884  0.0016
 6956TIP3    H142427   4.011   4.697   0.179 -0.5498 -0.8908 -1.3887
 6956TIP3    H242428   4.059   4.599   0.284 -0.1356  1.6333  0.8848
 6957TIP3   OH242429   1.662   0.867   0.917  0.1201  0.0773 -0.0385
 6957TIP3    H142430   1.642   0.773   0.910  0.0807 -0.0522  1.5493
 6957TIP3    H242431   1.578   0.910   0.906 -0.1876 -0.1895  1.1608
 6958TIP3   OH242432   1.113   1.727   2.004 -0.0699 -0.0861  0.0781
 6958TIP3    H142433   1.056   1.697   1.934 -0.5260  2.9229 -0.9960
 6958TIP3    H242434   1.163   1.650   2.030  0.6471 -1.2096 -4.0373
 6959TIP3   OH242435   0.409   1.724   1.505 -0.1122  0.3196  1.0011
 6959TIP3    H142436   0.471   1.734   1.577 -0.6190 -1.2916  1.7089
 6959TIP3    H242437   0.425   1.635   1.472 -0.5868  0.6672 -0.2136
 6960TIP3   OH242438   1.349   5.426   2.140 -0.2741  0.5225 -0.3131
 6960TIP3    H142439   1.416   5.495   2.138  0.1482  0.1372  0.1499
 6960TIP3    H242440   1.267   5.472   2.124 -0.0930  1.2582  0.7160
 6961TIP3   OH242441   2.813   1.610   0.786  0.0966 -0.1041 -0.1046
 6961TIP3    H142442   2.838   1.697   0.819  0.3460  0.2329 -1.1364
 6961TIP3    H242443   2.896   1.562   0.780  0.1456  0.0664 -0.8678
 6962TIP3   OH242444   6.909   0.938   2.212 -0.3158  0.0334  0.5071
 6962TIP3    H142445   6.876   0.871   2.152  0.0120  0.5553 -0.2731
 6962TIP3    H242446   6.830   0.979   2.248 -0.5691  1.0614 -1.1074
 6963TIP3   OH242447   1.113   6.831   1.252  0.3240  0.3438 -0.8061
 6963TIP3    H142448   1.176   6.900   1.274 -0.3258  0.8236 -0.4445
 6963TIP3    H242449   1.066   6.814   1.333  0.3164 -0.3691 -0.9523
 6964TIP3   OH242450   3.653   3.488   7.235 -0.3416 -0.5254  0.2099
 6964TIP3    H142451   3.677   3.397   7.219 -0.0098 -0.7742  1.8902
 6964TIP3    H242452   3.587   3.484   7.304 -2.0316  0.4104 -1.2699
 6965TIP3   OH242453   2.017   0.177   2.330  0.0116  0.1324 -0.5595
 6965TIP3    H142454   2.001   0.267   2.303  1.3052 -0.1643 -2.4609
 6965TIP3    H242455   2.063   0.185   2.414 -1.4661  1.1509  0.2061
 6966TIP3   OH242456   3.878   5.000   2.575  0.4879 -0.0438 -0.8478
 6966TIP3    H142457   3.895   5.087   2.611  2.7264 -0.2281 -1.3548
 6966TIP3    H242458   3.800   4.970   2.622  0.7190  1.5026  0.6288
 6967TIP3   OH242459   2.655   3.234   0.614  0.1271  0.2954  0.5294
 6967TIP3    H142460   2.659   3.145   0.577 -0.8191 -0.2512  1.6844
 6967TIP3    H242461   2.575   3.234   0.666  0.5103  1.6074  1.1412
 6968TIP3   OH242462   1.902   4.800   0.883  0.2003  0.6399 -0.1732
 6968TIP3    H142463   1.984   4.790   0.932  0.4937  1.0737 -0.5611
 6968TIP3    H242464   1.902   4.892   0.856 -1.7935  1.4510  2.2239
 6969TIP3   OH242465   4.939   0.396   2.101 -0.3380 -0.0157  0.1706
 6969TIP3    H142466   4.992   0.321   2.129  2.8994  1.7310 -0.7077
 6969TIP3    H242467   4.917   0.378   2.010  1.5061  0.5615 -0.4268
 6970TIP3   OH242468   2.087   1.945   0.300 -0.2890  0.5668  0.2163
 6970TIP3    H142469   2.055   1.879   0.363  0.4296  1.2054  1.2837
 6970TIP3    H242470   2.165   1.906   0.262  0.7029  1.1495  1.5661
 6971TIP3   OH242471   4.209   3.534   2.981 -0.4052  0.5152  0.4153
 6971TIP3    H142472   4.170   3.446   2.985  0.3787  0.2051  2.0830
 6971TIP3    H242473   4.282   3.525   2.921 -0.2554 -0.0239  0.6702
 6972TIP3   OH242474   3.285   3.916   0.050 -0.0942  0.3010  0.2619
 6972TIP3    H142475   3.191   3.911   0.032 -0.1089  0.1392  0.3841
 6972TIP3    H242476   3.298   3.860   0.126 -0.0249  0.9725  0.7594
 6973TIP3   OH242477   4.359   0.473   1.772 -0.0174 -0.5812 -0.2926
 6973TIP3    H142478   4.442   0.430   1.750  0.3972 -0.0764  0.2258
 6973TIP3    H242479   4.305   0.403   1.808  0.5205 -0.7578  0.2077
 6974TIP3   OH242480   5.503   5.660   0.781  0.7898 -0.4039 -0.0252
 6974TIP3    H142481   5.412   5.685   0.801  0.9696 -0.4195  0.8693
 6974TIP3    H242482   5.542   5.642   0.867  1.8679  0.3628 -0.3374
 6975TIP3   OH242483   4.343   3.053   1.258  0.1870  0.5883  0.3244
 6975TIP3    H142484   4.403   3.072   1.186  1.9737  1.2014  1.8687
 6975TIP3    H242485   4.270   3.112   1.246 -0.7502 -0.9634 -2.2647
 6976TIP3   OH242486   4.690   3.208   0.114  0.0275  0.0855  0.1125
 6976TIP3    H142487   4.605   3.165   0.122 -0.3802  0.7552 -0.5228
 6976TIP3    H242488   4.683   3.261   0.035  1.7818 -1.5503 -1.2527
 6977TIP3   OH242489   1.330   3.581   8.322  0.4318 -0.2843 -0.2597
 6977TIP3    H142490   1.298   3.669   8.307 -0.0086  0.0398  2.1448
 6977TIP3    H242491   1.253   3.532   8.351  0.5514 -1.6437 -2.0740
 6978TIP3   OH242492   3.003   5.744   1.757 -0.2436  0.2404  0.4628
 6978TIP3    H142493   3.051   5.711   1.834 -1.1904  1.8198  1.8000
 6978TIP3    H242494   3.057   5.719   1.682  1.6843  0.2857  1.7720
 6979TIP3   OH242495   1.021   6.834   7.057 -0.4478 -0.0677 -0.0779
 6979TIP3    H142496   0.926   6.838   7.054 -0.6113 -1.7473  1.1656
 6979TIP3    H242497   1.049   6.925   7.055 -2.1727  0.5520  1.1930
 6980TIP3   OH242498   4.281   4.668   8.148  0.0317 -0.3795 -0.2817
 6980TIP3    H142499   4.344   4.610   8.105 -1.3215 -1.5003 -0.7940
 6980TIP3    H242500   4.223   4.696   8.077 -1.3482 -1.0869  0.5404
 6981TIP3   OH242501   0.134   6.868   2.136  0.1136 -0.2458  0.4697
 6981TIP3    H142502   0.118   6.782   2.174 -0.6021 -0.4566 -0.2865
 6981TIP3    H242503   0.095   6.929   2.199  0.3101 -0.4889  0.8327
 6982TIP3   OH242504   1.156   0.648   1.341  0.3608  0.0050  0.0228
 6982TIP3    H142505   1.161   0.675   1.433 -0.7018  0.5137 -0.0457
 6982TIP3    H242506   1.096   0.712   1.301 -0.2194 -0.9767 -0.7260
 6983TIP3   OH242507   1.332   4.941   0.267  0.1034 -1.0113 -0.2957
 6983TIP3    H142508   1.264   4.986   0.316 -0.6947 -1.1439 -1.2557
 6983TIP3    H242509   1.376   5.010   0.218 -0.3312 -1.1073 -0.8324
 6984TIP3   OH242510   2.883   0.412   7.988  0.9375  0.3380  0.5918
 6984TIP3    H142511   2.814   0.440   8.046  1.0954  0.1513  0.8740
 6984TIP3    H242512   2.838   0.363   7.919  0.8094  0.0104  0.9022
 6985TIP3   OH242513   5.311   4.538   2.629 -0.7614 -0.1228 -0.4394
 6985TIP3    H142514   5.367   4.532   2.706 -0.8543 -1.0545 -0.4297
 6985TIP3    H242515   5.238   4.593   2.657 -0.2102  0.5193 -0.2369
 6986TIP3   OH242516   5.358   0.798   2.779 -0.3613  0.0783  0.5683
 6986TIP3    H142517   5.407   0.719   2.756  3.1592  2.3258 -0.4850
 6986TIP3    H242518   5.335   0.787   2.871 -2.5073 -3.2466 -0.1946
 6987TIP3   OH242519   1.075   6.790   0.018 -0.0883 -0.2784  0.5095
 6987TIP3    H142520   1.103   6.739   0.094 -0.9666 -0.8750  0.4478
 6987TIP3    H242521   1.054   6.725  -0.049  1.4457  0.2550 -0.5446
 6988TIP3   OH242522   4.138   6.902   1.549 -0.2058 -0.0888 -0.3181
 6988TIP3    H142523   4.182   6.895   1.465 -0.2952  1.0737 -0.4743
 6988TIP3    H242524   4.077   6.975   1.538  1.8827  2.1170  1.6474
 6989TIP3   OH242525   2.074   6.533   0.536 -0.2777  0.1840  0.1344
 6989TIP3    H142526   2.033   6.589   0.602 -1.0212 -1.7354  1.3887
 6989TIP3    H242527   2.067   6.445   0.572  2.2960 -0.5751 -1.0313
 6990TIP3   OH242528   1.950   4.086   3.530 -0.4610  0.4022  0.3254
 6990TIP3    H142529   1.917   4.157   3.475 -0.6465  1.2410  1.4717
 6990TIP3    H242530   2.024   4.125   3.577 -0.2263 -0.3290  0.5815
 6991TIP3   OH242531   1.499   6.124   0.398  0.4256 -0.7950  0.0216
 6991TIP3    H142532   1.504   6.028   0.398  0.7468 -0.7818 -0.4551
 6991TIP3    H242533   1.513   6.149   0.307 -1.4599 -0.3760 -0.1854
 6992TIP3   OH242534   2.174   0.421   7.804 -0.2165  0.6858 -0.0029
 6992TIP3    H142535   2.240   0.378   7.750 -1.3175 -0.9697 -0.1103
 6992TIP3    H242536   2.090   0.393   7.766 -0.9953  1.7302  0.8782
 6993TIP3   OH242537   2.194   1.678   7.703 -0.1804  0.2006 -0.2548
 6993TIP3    H142538   2.117   1.726   7.675  0.1709  2.3379  2.1142
 6993TIP3    H242539   2.161   1.613   7.766 -0.1918  0.1489 -0.3139
 6994TIP3   OH242540   2.702   2.707   0.237 -0.5182 -0.0799 -0.2927
 6994TIP3    H142541   2.742   2.788   0.270 -0.5598 -0.8275  1.7673
 6994TIP3    H242542   2.692   2.722   0.143 -1.4263  2.6846  0.1412
 6995TIP3   OH242543   2.034   1.101   0.450 -0.4570  0.0972 -0.5527
 6995TIP3    H142544   2.019   1.123   0.542 -1.0193  0.2651 -0.6774
 6995TIP3    H242545   1.988   1.018   0.438 -0.4157  0.0937 -0.6864
 6996TIP3   OH242546   6.500   1.320   2.971  0.2090 -0.1388  0.3097
 6996TIP3    H142547   6.439   1.332   2.898 -0.9694 -1.2946  1.0642
 6996TIP3    H242548   6.444   1.294   3.045  1.6139 -1.2972  1.0146
 6997TIP3   OH242549   4.040   6.490   1.146  0.4498 -0.0160 -0.0321
 6997TIP3    H142550   4.106   6.452   1.088  1.4715  0.6183  0.6770
 6997TIP3    H242551   4.087   6.505   1.229 -0.3918  1.1087  0.2636
 6998TIP3   OH242552   0.746   0.179   0.877  0.4543  0.2749  0.2997
 6998TIP3    H142553   0.807   0.248   0.902  1.8208 -0.1591 -1.6143
 6998TIP3    H242554   0.785   0.098   0.911  0.0688  0.1667  0.5007
 6999TIP3   OH242555   4.568   2.930   0.884  0.3936 -0.4010  0.1698
 6999TIP3    H142556   4.607   2.892   0.963 -0.3693 -0.0279  0.7389
 6999TIP3    H242557   4.642   2.948   0.827  0.9981 -0.2842  0.9758
 7000TIP3   OH242558   0.399   4.749   7.765 -0.3639  0.0957 -0.0242
 7000TIP3    H142559   0.387   4.840   7.793 -1.1515 -0.5296  1.8550
 7000TIP3    H242560   0.311   4.719   7.744 -0.2338 -0.5064  0.2881
 7001TIP3   OH242561   6.834   3.042   1.859 -0.3279  0.3251  0.2185
 7001TIP3    H142562   6.882   3.062   1.778 -1.3403 -0.0361 -0.4945
 7001TIP3    H242563   6.896   3.060   1.929  1.2832 -1.3446 -0.7021
 7002TIP3   OH242564   4.144   3.940   2.013 -0.3740  0.8001 -0.0596
 7002TIP3    H142565   4.191   3.959   2.094 -0.6082  0.6563  0.1099
 7002TIP3    H242566   4.123   3.847   2.018  1.2795  0.3314 -1.1559
 7003TIP3   OH242567   4.133   5.648   6.891 -0.5707 -0.0372  0.3574
 7003TIP3    H142568   4.183   5.667   6.971  0.5637  0.4703 -0.4567
 7003TIP3    H242569   4.127   5.553   6.889 -2.1071 -0.0411  1.9261
 7004TIP3   OH242570   4.367   4.794   1.764  0.0538 -0.0192 -0.3887
 7004TIP3    H142571   4.282   4.788   1.719  0.6130 -1.9302 -1.2744
 7004TIP3    H242572   4.350   4.852   1.839 -1.8133  0.3001 -1.0071
 7005TIP3   OH242573   6.517   0.853   6.936  0.0635 -0.2866 -0.2864
 7005TIP3    H142574   6.455   0.925   6.927  2.2000  1.5649 -1.0596
 7005TIP3    H242575   6.568   0.875   7.014  0.2125 -1.4098 -0.0485
 7006TIP3   OH242576   2.123   5.118   1.091 -0.0117 -0.3014 -0.7591
 7006TIP3    H142577   2.088   5.163   1.013 -1.2158 -1.6528 -1.0376
 7006TIP3    H242578   2.143   5.189   1.152  2.7003  0.9788 -2.9173
 7007TIP3   OH242579   0.703   4.523   7.430 -0.0527 -0.2366  0.0935
 7007TIP3    H142580   0.689   4.617   7.434  0.6485  0.0068 -2.0921
 7007TIP3    H242581   0.798   4.513   7.429  0.0144 -0.6180 -3.6520
 7008TIP3   OH242582   3.281   5.027   0.226 -0.1788  0.7782 -0.2509
 7008TIP3    H142583   3.235   4.978   0.295  1.2257  0.2956  0.3692
 7008TIP3    H242584   3.213   5.045   0.162 -1.3721  0.5831  0.9026
 7009TIP3   OH242585   5.354   5.394   1.688 -0.1314 -0.1727 -0.5758
 7009TIP3    H142586   5.268   5.352   1.682  0.5883 -1.8126  0.1273
 7009TIP3    H242587   5.398   5.369   1.606  0.6864 -1.7804  0.3012
 7010TIP3   OH242588   3.020   3.311   1.764 -0.1572 -0.2035  0.2411
 7010TIP3    H142589   3.099   3.313   1.709 -0.2683  0.4645  0.0979
 7010TIP3    H242590   2.992   3.402   1.769 -1.3625 -0.5251 -0.3395
 7011TIP3   OH242591   5.991   4.012   1.788  0.5510 -0.1844 -0.5389
 7011TIP3    H142592   5.980   4.076   1.859  1.4140 -0.2964 -0.2937
 7011TIP3    H242593   5.969   3.928   1.828 -1.0915 -0.0109 -0.9971
 7012TIP3   OH242594   0.203   5.109   3.293 -0.6972 -0.5854  0.0247
 7012TIP3    H142595   0.130   5.164   3.265 -0.4348  0.2853  0.9928
 7012TIP3    H242596   0.162   5.041   3.346 -1.1312 -1.9279 -1.9232
 7013TIP3   OH242597   4.786   0.040   2.346  0.0559 -0.3984 -0.1422
 7013TIP3    H142598   4.832   0.121   2.368 -0.1340  0.0613 -1.3373
 7013TIP3    H242599   4.838   0.002   2.275  1.0178 -2.1517  1.4262
 7014TIP3   OH242600   6.248   6.720   0.756  0.3117 -0.3315  0.2038
 7014TIP3    H142601   6.245   6.805   0.713  1.9619 -0.1036  0.4698
 7014TIP3    H242602   6.184   6.727   0.827 -0.6548  0.1378 -0.6934
 7015TIP3   OH242603   3.517   5.123   2.093  0.3780  0.3453 -0.1396
 7015TIP3    H142604   3.431   5.162   2.082 -0.1214 -0.2282  1.4825
 7015TIP3    H242605   3.537   5.084   2.008 -0.6864  1.0052 -0.7072
 7016TIP3   OH242606   5.163   0.211   0.849  0.0063  0.3815  0.1225
 7016TIP3    H142607   5.160   0.212   0.753 -1.8631 -0.5165  0.1304
 7016TIP3    H242608   5.072   0.198   0.876  0.4291  1.0480  2.0467
 7017TIP3   OH242609   1.787   5.469   7.655  0.3188  0.1745  0.3595
 7017TIP3    H142610   1.697   5.458   7.624  1.5198 -2.0926 -2.9378
 7017TIP3    H242611   1.823   5.380   7.654  2.0844  0.6886  3.6961
 7018TIP3   OH242612   3.115   4.193   0.773  0.3444 -0.0313  0.4986
 7018TIP3    H142613   3.145   4.269   0.823  1.6660 -0.5188  0.4856
 7018TIP3    H242614   3.185   4.128   0.783  0.1483 -0.5382 -1.0962
 7019TIP3   OH242615   1.534   2.128   8.150 -0.3095 -0.1250 -0.5782
 7019TIP3    H142616   1.577   2.107   8.067  2.5715  0.5872  0.6204
 7019TIP3    H242617   1.520   2.223   8.146  1.2065  0.1662  0.2787
 7020TIP3   OH242618   3.584   6.532   7.658  0.3792 -0.0784  0.2216
 7020TIP3    H142619   3.667   6.566   7.626 -0.0938  1.5097  0.5960
 7020TIP3    H242620   3.529   6.610   7.670 -0.4868 -0.8989  1.9301
 7021TIP3   OH242621   1.102   2.049   7.180  0.7170  1.0062 -0.3638
 7021TIP3    H142622   1.178   2.058   7.238  0.6759 -0.9530  0.0502
 7021TIP3    H242623   1.109   1.960   7.145 -0.5121  1.3670 -1.5981
 7022TIP3   OH242624   5.995   2.569   0.318  0.0501 -0.0286 -0.1014
 7022TIP3    H142625   6.082   2.546   0.351  0.4715  1.6333  0.0044
 7022TIP3    H242626   5.937   2.558   0.394  0.7939  2.4254  0.9221
 7023TIP3   OH242627   4.512   3.596   0.481 -0.0895  0.2392  0.7534
 7023TIP3    H142628   4.434   3.609   0.427 -0.1284  0.8454  0.9437
 7023TIP3    H242629   4.575   3.660   0.449  0.2651 -0.1116  0.7337
 7024TIP3   OH242630   6.848   4.092   0.114  0.7124  0.1984 -0.0054
 7024TIP3    H142631   6.866   4.054   0.028 -1.9314 -1.1540 -0.0729
 7024TIP3    H242632   6.836   4.017   0.171  0.3757  1.0482  1.0640
 7025TIP3   OH242633   0.663   2.047   0.763  0.2058  0.4706  0.1982
 7025TIP3    H142634   0.675   2.028   0.856  0.4985 -0.3642 -0.0058
 7025TIP3    H242635   0.570   2.031   0.747  0.2598  0.1153  0.2353
 7026TIP3   OH242636   0.865   3.437   1.680 -0.4155 -0.2587 -0.0331
 7026TIP3    H142637   0.785   3.488   1.691 -0.4480 -0.1723 -0.6037
 7026TIP3    H242638   0.928   3.500   1.643 -0.1957 -0.4152  0.0723
 7027TIP3   OH242639   5.897   3.611   8.051  0.1363  0.4700  0.7549
 7027TIP3    H142640   5.915   3.607   7.957 -0.6762  0.9550  0.5637
 7027TIP3    H242641   5.920   3.524   8.084 -1.6326 -0.4738 -0.3142
 7028TIP3   OH242642   4.779   0.823   8.320  0.1294 -0.1161  0.0347
 7028TIP3    H142643   4.849   0.834   8.386  0.2337 -3.3214  0.6016
 7028TIP3    H242644   4.826   0.821   8.237  0.5361 -0.5750  0.2662
 7029TIP3   OH242645   1.035   0.169   1.146 -0.3511  0.6550  0.0939
 7029TIP3    H142646   0.989   0.215   1.216 -1.4555 -0.5850  0.2222
 7029TIP3    H242647   1.078   0.096   1.189  0.2967  0.8044 -0.2905
 7030TIP3   OH242648   0.765   2.041   1.024 -0.7051 -0.2772  0.6206
 7030TIP3    H142649   0.703   2.100   1.067 -0.6355 -1.4921  2.4900
 7030TIP3    H242650   0.787   1.977   1.091  1.0876 -1.0173 -0.6208
 7031TIP3   OH242651   4.739   6.263   1.331 -0.5633  0.3411 -0.2275
 7031TIP3    H142652   4.727   6.233   1.421 -0.0178  1.2889  0.1753
 7031TIP3    H242653   4.652   6.285   1.301 -0.9707 -1.4634 -0.4884
 7032TIP3   OH242654   2.966   3.882   1.515  0.3593  0.1566 -0.1090
 7032TIP3    H142655   2.908   3.827   1.462  2.2848 -0.8706 -1.2792
 7032TIP3    H242656   2.914   3.960   1.535 -2.4900 -1.9683  1.5866
 7033TIP3   OH242657   1.949   4.262   1.057 -0.5810  0.5357 -0.2107
 7033TIP3    H142658   1.922   4.241   0.967 -1.8025  0.9128  0.0376
 7033TIP3    H242659   1.877   4.315   1.091 -2.3984 -3.1819  2.4560
 7034TIP3   OH242660   1.713   5.426   1.940 -0.3070 -0.1559  0.2048
 7034TIP3    H142661   1.712   5.490   1.869 -0.6644  1.5516  1.6800
 7034TIP3    H242662   1.805   5.411   1.959 -0.2051  1.0489  0.7723
 7035TIP3   OH242663   2.174   1.850   1.619  0.2468  0.4123 -0.4090
 7035TIP3    H142664   2.254   1.798   1.626  1.5460  2.1887 -1.0717
 7035TIP3    H242665   2.111   1.806   1.675  1.9450 -0.6121  0.7850
 7036TIP3   OH242666   6.743   6.064   0.174  0.1684  0.0813 -0.0255
 7036TIP3    H142667   6.704   5.995   0.229  0.4460 -0.4226 -0.4584
 7036TIP3    H242668   6.675   6.086   0.111  0.0056  0.3507  0.2437
 7037TIP3   OH242669   4.402   5.881   0.863 -0.2082  0.2576 -0.0036
 7037TIP3    H142670   4.418   5.787   0.857 -0.4668  0.0279  2.1604
 7037TIP3    H242671   4.450   5.908   0.941 -3.0023  1.1986  1.5138
 7038TIP3   OH242672   3.891   1.725   2.138 -0.2568 -0.7032  0.2159
 7038TIP3    H142673   3.926   1.725   2.049 -1.1341  0.7350 -0.1704
 7038TIP3    H242674   3.968   1.731   2.195  0.2839 -1.1823 -0.4551
 7039TIP3   OH242675   2.457   4.148   0.278 -0.2474 -0.0755 -0.3430
 7039TIP3    H142676   2.505   4.162   0.197  0.3043  0.8012  0.1110
 7039TIP3    H242677   2.517   4.099   0.334 -0.2761  0.1216 -0.1383
 7040TIP3   OH242678   3.497   6.902   7.790 -0.4898 -0.0585 -0.2911
 7040TIP3    H142679   3.544   6.949   7.721 -1.4718 -0.2281 -1.1133
 7040TIP3    H242680   3.548   6.822   7.805  0.5278  0.6834  0.2443
 7041TIP3   OH242681   0.595   5.861   1.434  0.2037  0.5532 -0.6119
 7041TIP3    H142682   0.668   5.799   1.425 -0.0266  0.1351  0.2612
 7041TIP3    H242683   0.623   5.938   1.384  2.3308  1.3284  1.5600
 7042TIP3   OH242684   5.428   1.974   2.751  0.3678  0.0979 -0.1329
 7042TIP3    H142685   5.375   2.020   2.815 -0.4838  1.4745 -1.7476
 7042TIP3    H242686   5.439   1.886   2.787 -1.5826  0.2960  1.0358
 7043TIP3   OH242687   1.634   0.509   7.562  0.5878 -0.0984  0.4360
 7043TIP3    H142688   1.721   0.551   7.566 -0.1019  1.3651  0.9513
 7043TIP3    H242689   1.593   0.546   7.484  0.3192 -0.5499  0.3642
 7044TIP3   OH242690   0.577   2.628   0.873 -0.8226 -0.1318  0.2866
 7044TIP3    H142691   0.535   2.649   0.956 -0.5801  1.5769  0.0006
 7044TIP3    H242692   0.622   2.545   0.890 -1.2337 -0.0997  1.6770
 7045TIP3   OH242693   6.381   2.900   7.954 -0.2471  0.2565 -0.3456
 7045TIP3    H142694   6.449   2.950   7.997 -0.3471 -0.6769  0.9602
 7045TIP3    H242695   6.328   2.965   7.908  0.0050  1.2684  0.7502
 7046TIP3   OH242696   2.566   2.215   0.424  0.6925  0.5498 -0.0277
 7046TIP3    H142697   2.601   2.168   0.348  2.0483  0.7909  0.4096
 7046TIP3    H242698   2.543   2.146   0.486 -0.6839  0.3396 -0.7428
 7047TIP3   OH242699   0.222   5.022   0.226  0.3025  0.5555  0.3669
 7047TIP3    H142700   0.238   5.112   0.256  1.6992 -0.1561  1.9258
 7047TIP3    H242701   0.240   4.968   0.303 -3.0610 -0.9541  0.2629
 7048TIP3   OH242702   1.441   3.594   0.649 -0.0342  0.3591 -0.1638
 7048TIP3    H142703   1.381   3.548   0.708  0.0244  0.0575 -0.3381
 7048TIP3    H242704   1.529   3.569   0.680  0.0081  1.0127  0.2610
 7049TIP3   OH242705   3.712   6.682   0.269 -0.1670  0.8330 -0.2405
 7049TIP3    H142706   3.807   6.679   0.262 -0.0482  2.2640  0.4081
 7049TIP3    H242707   3.691   6.623   0.341  0.6372  3.4432  2.3138
 7050TIP3   OH242708   4.137   4.629   1.744 -0.8947 -0.0221 -0.6322
 7050TIP3    H142709   4.092   4.604   1.825  0.4607 -1.1168 -0.1805
 7050TIP3    H242710   4.159   4.546   1.702 -0.3277  0.5112 -1.4165
 7051TIP3   OH242711   5.707   6.522   0.154 -0.2134 -0.4568  0.5330
 7051TIP3    H142712   5.656   6.561   0.083  0.3531  0.8852  0.8350
 7051TIP3    H242713   5.715   6.429   0.129 -0.0415 -0.0314 -1.1499
 7052TIP3   OH242714   4.433   5.299   1.906  0.6891 -0.3250  0.2955
 7052TIP3    H142715   4.485   5.236   1.857 -1.1248 -1.0580 -0.7901
 7052TIP3    H242716   4.413   5.255   1.988  2.2805  0.2281  1.0199
 7053TIP3   OH242717   4.418   1.786   8.300 -0.2099  0.2219 -0.1195
 7053TIP3    H142718   4.381   1.758   8.384 -1.9401  1.7529 -0.3004
 7053TIP3    H242719   4.494   1.729   8.287  0.5220  0.3702  2.7811
 7054LIG     O142720   3.068   0.267   6.081 -0.7963  0.5021  0.0892
 7054LIG     O242721   3.310   0.204   6.180  0.2020  0.0781 -0.2800
 7054LIG     O342722   2.988  -0.005   6.144  0.1451  0.8920  0.0289
 7054LIG     O442723   3.463   0.294   6.325 -0.2583 -0.2347  0.1938
 7054LIG     O542724   3.222   0.200   6.530 -0.2161  0.0448 -0.2026
 7054LIG     O642725   3.338  -0.076   6.479 -0.3982 -0.4139  0.0044
 7054LIG     O742726   3.622  -0.038   6.408 -0.2189  0.5945 -0.2115
 7054LIG     O842727   3.670   0.278   6.129 -0.0089 -0.0510  0.2085
 7054LIG     O942728   3.737   0.075   6.200 -0.4025 -0.1189 -0.2422
 7054LIG      N42729   3.150   0.425   5.613  0.7120 -0.0480 -0.6835
 7054LIG     C142730   3.163   0.340   5.885  0.0881 -0.4319  0.9971
 7054LIG     C242731   3.288   0.327   5.805  0.0266  0.1269  0.3887
 7054LIG     C342732   3.179   0.352   6.040 -0.1180 -0.0483  0.4272
 7054LIG     C442733   3.242   0.307   5.654  0.1341 -0.5009 -0.1664
 7054LIG     C542734   3.046   0.434   5.838  0.6143 -0.3769  1.0433
 7054LIG     C642735   3.101   0.205   5.861 -0.1684 -1.0107 -0.6044
 7054LIG     C742736   3.184   0.167   5.634  0.4915 -0.2390 -0.0736
 7054LIG     C842737   3.016   0.429   5.678 -0.6953  0.4385 -0.0819
 7054LIG     C942738   3.321   0.303   6.081 -0.3788 -0.5106  0.0767
 7054LIG    C1042739   3.105   0.119   5.754 -0.5199 -0.1968  0.3324
 7054LIG    C1142740   3.389   0.233   5.862 -0.4269 -0.4158  0.6004
 7054LIG    C1242741   3.058   0.163   5.987  0.0072  0.5921  0.1697
 7054LIG    C1342742   3.409   0.220   5.991 -0.1184 -1.1320 -0.7575
 7054LIG    C1442743   3.213   0.546   5.590 -0.3769 -0.0944 -0.2133
 7054LIG    C1542744   3.074  -0.023   5.778 -0.1913 -0.0394 -0.7673
 7054LIG    C1642745   3.025   0.023   6.014 -0.5154  0.0964 -0.5602
 7054LIG    C1742746   3.036  -0.068   5.911  0.2091  0.5082  0.4944
 7054LIG    C1842747   3.329   0.247   6.313 -0.1025 -0.7825 -0.5374
 7054LIG    C1942748   3.288   0.144   6.417  0.7250  0.5622 -0.2635
 7054LIG    C2042749   3.396   0.050   6.465 -0.2465 -0.3705  0.2610
 7054LIG    C2142750   3.518   0.047   6.368  0.2805 -0.2243  0.3965
 7054LIG    C2242751   3.566   0.183   6.336 -0.4440 -0.1500 -1.0274
 7054LIG    C2342752   3.667   0.172   6.225  0.0251  0.3055  0.5713
 7054LIG     H142753   3.324   0.431   5.810 -1.5837  0.6801  1.4448
 7054LIG     H242754   3.160   0.457   6.071 -4.3741 -0.9617  1.5646
 7054LIG     H342755   3.338   0.323   5.600 -1.1594  3.2098 -1.6482
 7054LIG     H442756   3.074   0.540   5.857 -4.4155  1.0650  1.8336
 7054LIG     H542757   2.950   0.424   5.893  0.0754 -0.3456  0.1348
 7054LIG     H642758   3.270   0.098   5.621 -0.2814 -1.0809 -0.8450
 7054LIG     H742759   3.125   0.157   5.541  1.5704  0.2274 -0.8212
 7054LIG     H842760   2.959   0.335   5.664  1.6210 -1.6038  2.8623
 7054LIG     H942761   2.952   0.514   5.647 -0.7308  0.1462 -0.8091
 7054LIG    H1042762   3.375   0.392   6.120 -1.4522 -0.4299  1.4741
 7054LIG    H1142763   3.462   0.190   5.791  0.9618  0.5858  1.3781
 7054LIG    H1242764   3.484   0.150   6.032  1.9232  1.2464 -0.1962
 7054LIG    H1342765   3.158   0.613   5.521 -0.1955  3.0178  2.4440
 7054LIG    H1442766   3.312   0.531   5.542 -0.4658  0.8614 -0.7207
 7054LIG    H1542767   3.234   0.607   5.681  1.3383  0.9595 -1.2523
 7054LIG    H1642768   3.098  -0.091   5.697  0.3985 -1.0892  0.2530
 7054LIG    H1742769   3.028  -0.174   5.931  0.2059  0.5957  0.9632
 7054LIG    H1842770   3.262   0.335   6.313 -1.3613 -1.6946  0.0481
 7054LIG    H1942771   3.213   0.084   6.360  1.7767  1.6368 -2.9771
 7054LIG    H2042772   3.433   0.094   6.560 -1.1206  2.9116 -0.7578
 7054LIG    H2142773   2.956   0.071   6.193  0.3060  1.2829 -0.4701
 7054LIG    H2242774   3.476   0.002   6.275  0.7522  1.3454 -0.6109
 7054LIG    H2342775   3.633   0.212   6.420 -2.0994 -0.2496  0.3903
 7054LIG    H2442776   3.174   0.136   6.583  0.9527  0.2767  1.2018
 7054LIG    H2542777   3.414  -0.128   6.505 -1.3336 -2.2378 -0.7389
 7054LIG    H2642778   3.695  -0.047   6.345  1.4149  1.4546  1.4680
 7054LIG    H2742779   3.730   0.262   6.055  1.4005 -3.4821  1.8338
   6.95907   6.95907   8.43085
