Title
42779
    1SAPS     N    1   1.898   6.696   8.062  0.1769 -0.1403  0.1000
    1SAPS   HN1    2   1.863   6.620   8.000  0.1223 -0.1930  0.1942
    1SAPS   HN2    3   1.933   6.656   8.152  0.3842  0.2774  0.2051
    1SAPS   HN3    4   1.813   6.749   8.090  0.0876 -0.3322  0.1973
    1SAPS   C12    5   1.998   6.779   7.990  0.0590  0.3151  0.0045
    1SAPS  H12A    6   2.001   6.862   8.059 -2.0501 -0.0950  0.6797
    1SAPS   C13    7   2.134   6.722   7.969 -0.4186  0.7177 -0.1479
    1SAPS  O13A    8   2.170   6.608   8.018 -0.0956  0.2211 -0.7014
    1SAPS  O13B    9   2.208   6.791   7.895  0.0252 -0.0950  0.5197
    1SAPS   C11   10   1.935   6.848   7.863 -0.1940  0.1212  0.1777
    1SAPS  H11A   11   2.017   6.903   7.812 -2.0237  3.7267  0.7719
    1SAPS  H11B   12   1.857   6.920   7.898  0.4850  0.4835  0.9810
    1SAPS     P   13   1.824   6.777   7.642  0.1678 -0.3049  0.4367
    1SAPS   O13   14   1.732   6.664   7.598  0.3528  0.0635  0.0051
    1SAPS   O14   15   1.766   6.917   7.637  0.0148 -0.5143 -0.2498
    1SAPS   O12   16   1.877   6.748   7.789  0.0133  1.0920  0.4781
    1SAPS   O11   17   1.962   6.775   7.570  0.1556  0.6208 -0.8841
    1SAPS    C1   18   2.056   6.671   7.575  0.5780 -0.6867 -0.3508
    1SAPS    HA   19   2.124   6.679   7.663 -0.3477 -1.7692  0.4863
    1SAPS    HB   20   2.007   6.571   7.581  0.8664 -0.8272 -0.2718
    1SAPS    C2   21   2.136   6.665   7.438 -0.1006 -0.5303  0.6541
    1SAPS    HS   22   2.218   6.740   7.432 -1.6106  1.0901 -2.0170
    1SAPS   O21   23   2.035   6.692   7.331 -0.1332  0.2165  0.0620
    1SAPS   C21   24   2.066   6.780   7.242  0.0409 -0.2545  0.4045
    1SAPS   O22   25   2.183   6.811   7.212 -0.3739 -0.2296 -0.2834
    1SAPS   C22   26   1.945   6.845   7.171 -0.5415 -0.4121 -0.0534
    1SAPS   H2R   27   1.850   6.806   7.213 -1.5115  1.3881 -0.4782
    1SAPS   H2S   28   1.948   6.952   7.198 -0.4239 -0.2040 -0.8690
    1SAPS    C3   29   2.203   6.525   7.411  0.3171 -0.1828  0.2391
    1SAPS    HX   30   2.262   6.495   7.500 -1.7275  0.5605  1.9124
    1SAPS    HY   31   2.272   6.561   7.331 -0.9587  1.3030 -0.2412
    1SAPS   O31   32   2.103   6.426   7.373 -0.4309 -0.2106  0.2140
    1SAPS   C31   33   2.139   6.349   7.269 -0.1286 -0.0966  0.1020
    1SAPS   O32   34   2.240   6.369   7.198  0.1786  0.4702 -0.1981
    1SAPS   C32   35   2.031   6.248   7.240  0.2303 -0.5972  0.2307
    1SAPS   H2X   36   1.938   6.308   7.237  0.3860 -0.3290  0.6134
    1SAPS   H2Y   37   2.017   6.175   7.323 -1.1495 -1.0749 -0.3947
    1SAPS   C23   38   1.959   6.843   7.018  0.4395 -0.2436 -0.1775
    1SAPS   H3R   39   2.060   6.870   6.979  0.1810  0.3962 -0.4252
    1SAPS   H3S   40   1.890   6.922   6.980 -1.1846 -1.3221  0.4321
    1SAPS   C24   41   1.918   6.699   6.962 -0.2169  0.1395  0.0902
    1SAPS   H4R   42   1.808   6.694   6.952 -0.2051 -2.3208  0.6173
    1SAPS   H4S   43   1.946   6.619   7.033  2.2120  0.6009 -0.2401
    1SAPS   C25   44   1.988   6.649   6.838 -0.9313 -0.3775  0.0682
    1SAPS   H5R   45   2.098   6.655   6.844 -1.0751  2.2763  2.1552
    1SAPS   C26   46   1.933   6.604   6.729  0.3457  0.4117  0.3250
    1SAPS   H6R   47   1.995   6.575   6.643 -2.3586 -1.1857 -1.2364
    1SAPS   C27   48   1.787   6.606   6.691  0.5801  0.1657 -0.1023
    1SAPS   H7R   49   1.726   6.652   6.772 -0.8184 -1.4415 -0.1781
    1SAPS   H7S   50   1.753   6.502   6.674  0.3131  0.1819  0.3064
    1SAPS   C28   51   1.753   6.697   6.577 -0.4003  0.3517  0.6488
    1SAPS   H8R   52   1.700   6.791   6.601  0.0750  0.7849  0.0162
    1SAPS   C29   53   1.767   6.662   6.449  0.4451 -0.2833 -0.2411
    1SAPS   H9R   54   1.734   6.748   6.390  1.3851  1.8866  2.1930
    1SAPS  C210   55   1.825   6.536   6.389  0.2906 -0.6861 -0.0965
    1SAPS  H10R   56   1.739   6.473   6.357  1.0177 -0.8248 -1.9403
    1SAPS  H10S   57   1.879   6.473   6.462 -0.7401 -2.0762 -0.4794
    1SAPS  C211   58   1.898   6.547   6.254  0.2746 -0.3376  0.2689
    1SAPS  H11R   59   2.007   6.534   6.254  0.1918 -1.0931  0.3262
    1SAPS  C212   60   1.839   6.578   6.130 -0.5366 -0.0622  0.1532
    1SAPS  H12R   61   1.911   6.586   6.048  1.1136 -0.1775  1.5426
    1SAPS  C213   62   1.700   6.604   6.096  1.5750 -0.1837  0.3683
    1SAPS  H13R   63   1.630   6.594   6.182  0.1451  0.4961 -0.6637
    1SAPS  H13S   64   1.663   6.524   6.029  2.3137 -1.5304  1.5101
    1SAPS  C214   65   1.696   6.746   6.048  0.3960  0.0196  0.0510
    1SAPS  H14R   66   1.735   6.811   6.128  0.7572 -0.3975  0.2210
    1SAPS  C215   67   1.671   6.792   5.926 -0.5518  0.1685 -0.4008
    1SAPS  H15R   68   1.677   6.899   5.900 -1.7975  0.9433  2.2233
    1SAPS  C216   69   1.616   6.708   5.814 -0.0950  0.4152  0.4946
    1SAPS  H16R   70   1.535   6.765   5.764  0.1047  3.0685  2.9186
    1SAPS  H16S   71   1.571   6.610   5.840  1.5364 -0.1322  1.4307
    1SAPS  C217   72   1.716   6.677   5.704 -0.0029 -0.1037 -0.5972
    1SAPS  H17R   73   1.791   6.758   5.718  0.0926 -0.2138 -0.4712
    1SAPS  H17S   74   1.677   6.694   5.601  1.2482  2.3986 -0.7462
    1SAPS  C218   75   1.787   6.539   5.706 -0.4300 -0.5911 -0.2010
    1SAPS  H18R   76   1.714   6.457   5.723 -0.2035 -0.8093 -0.2797
    1SAPS  H18S   77   1.847   6.545   5.800  1.1130  2.6359 -1.2387
    1SAPS  C219   78   1.880   6.511   5.590  0.8796 -1.0256  0.2223
    1SAPS  H19R   79   1.806   6.496   5.509 -2.4350  1.8116  2.4295
    1SAPS  H19S   80   1.932   6.416   5.617  0.1071 -1.3900  0.4604
    1SAPS  C220   81   1.965   6.632   5.551 -0.1858 -0.0990  0.1438
    1SAPS  H20R   82   2.049   6.597   5.487  0.5554  2.6490 -0.5442
    1SAPS  H20S   83   2.010   6.694   5.631  1.0580  1.0251 -1.3619
    1SAPS  H20T   84   1.894   6.699   5.497 -1.5146 -0.3808  1.4661
    1SAPS   C33   85   2.027   6.173   7.108  0.3727 -0.0012  1.3085
    1SAPS   H3X   86   1.941   6.103   7.117  0.7195 -0.7293 -0.4966
    1SAPS   H3Y   87   2.114   6.106   7.088 -0.6701 -0.9810 -0.1752
    1SAPS   C34   88   2.012   6.261   6.985 -0.2850 -0.7743 -0.1165
    1SAPS   H4X   89   2.086   6.344   6.993 -1.0231 -0.2057  1.2476
    1SAPS   H4Y   90   1.920   6.323   6.990  1.0262  1.2269  0.3866
    1SAPS   C35   91   2.025   6.180   6.852 -0.0336  0.2043 -0.3098
    1SAPS   H5X   92   1.957   6.092   6.863  0.5065 -0.4877 -2.0889
    1SAPS   H5Y   93   2.130   6.145   6.838  0.2745  1.6388 -1.8218
    1SAPS   C36   94   1.996   6.257   6.720 -0.4681  0.7939 -0.0560
    1SAPS   H6X   95   2.062   6.346   6.711 -1.1036  1.0263 -3.6923
    1SAPS   H6Y   96   1.894   6.296   6.739 -0.7163  0.2706 -0.2901
    1SAPS   C37   97   2.016   6.159   6.598  0.0831  0.0150 -0.0537
    1SAPS   H7X   98   1.964   6.062   6.612 -1.1507  0.4133 -1.6959
    1SAPS   H7Y   99   2.125   6.139   6.591 -0.2400 -1.1599 -2.6567
    1SAPS   C38  100   1.969   6.210   6.464  0.5344  0.5100 -0.2550
    1SAPS   H8X  101   2.023   6.305   6.444  0.9907  0.0451 -1.3186
    1SAPS   H8Y  102   1.859   6.223   6.461  0.3679 -0.7876 -0.5558
    1SAPS   C39  103   2.004   6.111   6.353 -0.0851 -0.0248 -0.0813
    1SAPS   H9X  104   1.940   6.020   6.358  0.9142 -0.6823  1.0346
    1SAPS   H9Y  105   2.112   6.086   6.360 -0.1609 -0.0483  1.2247
    1SAPS  C310  106   1.974   6.181   6.222 -0.0949 -0.1818 -0.0604
    1SAPS  H10X  107   2.038   6.272   6.212  1.2750 -1.2487 -1.8017
    1SAPS  H10Y  108   1.871   6.223   6.226  0.2246  0.7599 -1.1283
    1SAPS  C311  109   1.986   6.097   6.095  0.7743 -0.6248  0.6183
    1SAPS  H11X  110   1.903   6.023   6.094  0.0117  0.2236  0.3190
    1SAPS  H11Y  111   2.085   6.044   6.095  1.7779  1.1403 -1.0159
    1SAPS  C312  112   1.974   6.182   5.969  0.3809  0.3803 -0.1674
    1SAPS  H12X  113   2.061   6.250   5.956  1.2716 -0.5964  0.4835
    1SAPS  H12Y  114   1.882   6.241   5.989 -0.2009 -0.7049  0.5335
    1SAPS  C313  115   1.960   6.097   5.845  0.1496 -0.4540  0.4763
    1SAPS  H13X  116   1.896   6.011   5.873 -0.9288  1.1131  3.1714
    1SAPS  H13Y  117   2.063   6.063   5.822  0.5519  0.7970  0.3278
    1SAPS  C314  118   1.896   6.172   5.730  0.1536  0.3715 -0.3548
    1SAPS  H14X  119   1.966   6.254   5.705  1.3503 -0.1872  1.0363
    1SAPS  H14Y  120   1.799   6.215   5.765  0.5682  1.0151  0.0231
    1SAPS  C315  121   1.857   6.077   5.618 -0.3499  0.0506 -0.4386
    1SAPS  H15X  122   1.825   5.976   5.652 -0.1533  0.5568  1.3230
    1SAPS  H15Y  123   1.952   6.039   5.573 -0.4143 -0.9950  0.2811
    1SAPS  C316  124   1.770   6.145   5.511 -1.2691 -0.3239  0.4713
    1SAPS  H16X  125   1.820   6.235   5.471 -0.5150 -0.9394 -0.0026
    1SAPS  H16Y  126   1.679   6.178   5.567 -0.2453  1.7679  0.9800
    1SAPS  C317  127   1.739   6.048   5.395  0.1100 -0.2445 -1.1548
    1SAPS  H17X  128   1.657   6.092   5.334  0.7006  2.6188 -0.0560
    1SAPS  H17Y  129   1.709   5.949   5.434 -2.3385  0.9193  0.1624
    1SAPS  C318  130   1.865   6.028   5.304  0.4828 -0.3885 -0.4745
    1SAPS  H18X  131   1.878   6.132   5.265  2.0353 -0.6635 -0.7603
    1SAPS  H18Y  132   1.850   5.960   5.218  0.0589 -0.4279 -0.3739
    1SAPS  H18Z  133   1.943   5.989   5.372  0.1350 -0.3397 -0.0399
    2SAPS     N  134   3.693   1.974   7.571  0.6612 -0.4690 -0.1102
    2SAPS   HN1  135   3.706   1.872   7.585 -2.2367 -0.9260 -0.0498
    2SAPS   HN2  136   3.601   1.981   7.523 -0.7212  2.0471  2.5797
    2SAPS   HN3  137   3.768   2.020   7.515 -0.6518  1.2170 -0.5739
    2SAPS   C12  138   3.663   2.036   7.712  0.2559 -1.0753  0.3279
    2SAPS  H12A  139   3.575   2.098   7.700  3.6948  4.6650  1.2081
    2SAPS   C13  140   3.651   1.941   7.822  0.2328  0.8201  1.0829
    2SAPS  O13A  141   3.644   1.819   7.785 -0.2469 -0.0719 -0.0274
    2SAPS  O13B  142   3.637   1.987   7.935 -0.1277 -0.3538 -0.0961
    2SAPS   C11  143   3.791   2.128   7.747  0.4953  0.4632 -0.3157
    2SAPS  H11A  144   3.874   2.055   7.740  1.1768  1.2905 -0.9862
    2SAPS  H11B  145   3.780   2.175   7.848  0.8386 -0.7309  0.2928
    2SAPS     P  146   3.760   2.365   7.640 -0.4797  0.1722  0.2459
    2SAPS   O13  147   3.642   2.349   7.552  0.1118 -0.0664 -0.1107
    2SAPS   O14  148   3.741   2.415   7.777 -0.7461 -0.0505 -0.0585
    2SAPS   O12  149   3.826   2.227   7.649  0.0737  0.1452 -0.5343
    2SAPS   O11  150   3.870   2.458   7.569  0.0587  0.0222  0.1255
    2SAPS    C1  151   3.951   2.407   7.462 -0.5105  0.8501 -0.0716
    2SAPS    HA  152   4.054   2.446   7.481 -1.0359  1.5040  1.6122
    2SAPS    HB  153   3.961   2.296   7.468 -1.4905  0.7242 -0.6204
    2SAPS    C2  154   3.901   2.439   7.322  0.5692  0.7796 -0.8227
    2SAPS    HS  155   3.975   2.409   7.244  0.0766 -1.7318 -0.4001
    2SAPS   O21  156   3.866   2.578   7.320  0.1485  0.6204 -0.2904
    2SAPS   C21  157   3.961   2.668   7.296 -0.2064  0.6106  0.6467
    2SAPS   O22  158   4.075   2.645   7.284 -0.3659  0.2091  0.3392
    2SAPS   C22  159   3.890   2.800   7.306 -0.2510 -0.2467  0.1783
    2SAPS   H2R  160   3.815   2.790   7.387 -1.8049 -1.4600 -1.3490
    2SAPS   H2S  161   3.963   2.881   7.331 -1.9793  2.0688 -1.7818
    2SAPS    C3  162   3.778   2.360   7.269  0.5410 -0.0933  0.1196
    2SAPS    HX  163   3.681   2.398   7.308 -0.7878 -0.3691 -2.6670
    2SAPS    HY  164   3.778   2.259   7.313  1.8493  1.1028  3.1411
    2SAPS   O31  165   3.777   2.367   7.127 -0.5387 -0.2073 -0.1231
    2SAPS   C31  166   3.860   2.284   7.063  0.2478 -0.2343 -0.1327
    2SAPS   O32  167   3.935   2.202   7.113 -0.4801 -0.1430 -0.1518
    2SAPS   C32  168   3.849   2.307   6.919 -0.2849  0.4985  0.0734
    2SAPS   H2X  169   3.876   2.414   6.904  2.6766 -0.0924  0.5128
    2SAPS   H2Y  170   3.744   2.296   6.885  0.0202  1.0673 -1.0960
    2SAPS   C23  171   3.815   2.843   7.175  0.1258 -0.3456  0.4234
    2SAPS   H3R  172   3.761   2.936   7.204 -1.1577 -1.0789  0.4859
    2SAPS   H3S  173   3.749   2.757   7.150 -1.0659  0.4455  0.7619
    2SAPS   C24  174   3.898   2.877   7.052 -0.5500  0.0476  0.1725
    2SAPS   H4R  175   3.950   2.788   7.011 -0.4729  2.0169 -4.5567
    2SAPS   H4S  176   3.974   2.951   7.087 -0.2856  1.7723 -3.6377
    2SAPS   C25  177   3.816   2.925   6.940 -0.2374 -1.4965 -0.2532
    2SAPS   H5R  178   3.770   3.021   6.967 -0.6549 -1.9434  0.6706
    2SAPS   C26  179   3.809   2.874   6.818  0.0292  0.6950  0.1291
    2SAPS   H6R  180   3.742   2.916   6.741 -1.7324  0.7317  1.6183
    2SAPS   C27  181   3.876   2.737   6.772 -0.6074  0.3803  0.2881
    2SAPS   H7R  182   3.816   2.689   6.692  1.6198 -1.2974 -0.4772
    2SAPS   H7S  183   3.872   2.662   6.854  0.8552 -1.1982 -1.0161
    2SAPS   C28  184   4.023   2.759   6.733  0.4491  0.1658  0.2003
    2SAPS   H8R  185   4.084   2.818   6.803  0.5385  1.1437 -0.6757
    2SAPS   C29  186   4.078   2.713   6.612 -0.0192  0.3818 -0.1374
    2SAPS   H9R  187   4.183   2.736   6.588 -0.3099  0.4969 -1.3248
    2SAPS  C210  188   4.005   2.634   6.507 -0.0051 -0.1707 -0.0185
    2SAPS  H10R  189   3.953   2.715   6.451  1.5236  2.4837  2.1926
    2SAPS  H10S  190   3.928   2.563   6.545 -0.2266  1.1227  2.0557
    2SAPS  C211  191   4.097   2.574   6.409  0.8151  0.5759  0.3615
    2SAPS  H11R  192   4.121   2.471   6.436  0.6255  0.5974  0.6056
    2SAPS  C212  193   4.157   2.620   6.303 -0.4719 -0.3572  0.3013
    2SAPS  H12R  194   4.212   2.555   6.233 -3.0876 -2.3005 -0.0992
    2SAPS  C213  195   4.148   2.759   6.262 -0.0155 -0.5893 -0.5964
    2SAPS  H13R  196   4.139   2.830   6.347 -1.0847  2.2396 -2.9063
    2SAPS  H13S  197   4.050   2.772   6.211 -1.3523  1.3579  2.1904
    2SAPS  C214  198   4.261   2.812   6.182  0.3955  0.0190 -0.3793
    2SAPS  H14R  199   4.361   2.789   6.220  0.1107 -0.4204  0.1094
    2SAPS  C215  200   4.251   2.892   6.073  0.5748 -0.1778  0.1088
    2SAPS  H15R  201   4.347   2.925   6.030  1.5467 -1.1251  1.4624
    2SAPS  C216  202   4.128   2.953   6.007  0.5836  0.5601 -0.8406
    2SAPS  H16R  203   4.115   3.061   6.028  0.8909  0.4158  0.1380
    2SAPS  H16S  204   4.033   2.909   6.045  0.7375  0.4038 -0.6351
    2SAPS  C217  205   4.132   2.926   5.862 -0.1208  1.1036  0.0990
    2SAPS  H17R  206   4.133   2.817   5.841  1.1314  0.7749  1.6945
    2SAPS  H17S  207   4.222   2.975   5.819  0.3753  1.7009  1.7554
    2SAPS  C218  208   4.010   2.959   5.775 -0.2104 -0.0296 -0.0435
    2SAPS  H18R  209   3.927   2.900   5.819 -0.2634 -0.2827 -0.4767
    2SAPS  H18S  210   4.028   2.926   5.671 -1.2690  0.6814 -0.4616
    2SAPS  C219  211   3.976   3.106   5.772  0.0585  0.4322 -0.5190
    2SAPS  H19R  212   4.066   3.158   5.733  0.6578  0.2436  0.5790
    2SAPS  H19S  213   3.951   3.148   5.872 -1.5517 -0.1948 -0.6146
    2SAPS  C220  214   3.873   3.148   5.668 -0.1205  0.2911 -0.6139
    2SAPS  H20R  215   3.885   3.086   5.576  1.3789 -0.9114  0.3385
    2SAPS  H20S  216   3.884   3.255   5.642 -1.5373  0.4903 -0.4708
    2SAPS  H20T  217   3.769   3.136   5.706  0.3809 -1.6292  0.2816
    2SAPS   C33  218   3.935   2.216   6.823  0.1492  0.1201 -0.3401
    2SAPS   H3X  219   3.900   2.112   6.836 -0.0582  0.2908  0.5902
    2SAPS   H3Y  220   4.041   2.232   6.854 -0.1953 -1.6742  2.1044
    2SAPS   C34  221   3.925   2.273   6.680  0.8880  0.2681  0.0985
    2SAPS   H4X  222   3.989   2.364   6.678  0.3261  0.6548 -0.6132
    2SAPS   H4Y  223   3.822   2.306   6.657  0.4525 -1.9591 -1.5214
    2SAPS   C35  224   3.976   2.179   6.575 -0.0070  0.0063  0.7392
    2SAPS   H5X  225   3.918   2.085   6.589  1.0344 -0.6408  0.7954
    2SAPS   H5Y  226   4.086   2.168   6.582  0.0149  0.5219  1.3616
    2SAPS   C36  227   3.935   2.233   6.433 -1.0696 -0.2891 -1.0104
    2SAPS   H6X  228   4.009   2.311   6.405  1.4181 -2.3921 -0.6327
    2SAPS   H6Y  229   3.836   2.284   6.440 -0.4689  0.7489  0.6655
    2SAPS   C37  230   3.940   2.124   6.324 -0.3957 -0.2717  0.0567
    2SAPS   H7X  231   3.868   2.041   6.339 -1.7035  1.2425  2.8858
    2SAPS   H7Y  232   4.041   2.078   6.325 -1.1034 -1.9489  1.6646
    2SAPS   C38  233   3.915   2.180   6.179 -0.1835 -0.0855  0.3570
    2SAPS   H8X  234   3.996   2.242   6.134 -1.1407  0.1582 -1.0891
    2SAPS   H8Y  235   3.814   2.223   6.161 -0.6517 -1.6065 -0.7901
    2SAPS   C39  236   3.915   2.068   6.080  0.0732 -0.1247 -0.9845
    2SAPS   H9X  237   3.823   2.008   6.093  0.0472  0.4619  2.3618
    2SAPS   H9Y  238   4.000   2.005   6.112 -0.6691  0.1725  1.8217
    2SAPS  C310  239   3.932   2.100   5.931  0.9556  0.1978  0.1120
    2SAPS  H10X  240   4.027   2.152   5.904 -0.6840  2.1340 -2.4018
    2SAPS  H10Y  241   3.841   2.155   5.900  0.3767 -0.9670 -0.3437
    2SAPS  C311  242   3.917   1.962   5.854 -0.1000  0.2735  0.2210
    2SAPS  H11X  243   3.819   1.915   5.875  0.0027 -1.0751 -1.9850
    2SAPS  H11Y  244   3.995   1.890   5.887 -1.2190 -1.9307 -1.6853
    2SAPS  C312  245   3.911   1.984   5.699  0.7937  0.5141 -0.3305
    2SAPS  H12X  246   3.921   1.889   5.643  0.8171  1.4988 -2.0814
    2SAPS  H12Y  247   3.991   2.057   5.674  1.6999  0.7791  2.9382
    2SAPS  C313  248   3.780   2.042   5.643  0.3058  0.0297  0.1472
    2SAPS  H13X  249   3.759   2.144   5.681  0.8958 -0.0408  0.6622
    2SAPS  H13Y  250   3.693   1.989   5.688 -2.4361  2.6409 -1.6519
    2SAPS  C314  251   3.780   2.053   5.488  0.5650 -0.4376  0.3084
    2SAPS  H14X  252   3.781   1.950   5.446  0.5995  0.1828 -1.2810
    2SAPS  H14Y  253   3.876   2.098   5.456 -0.2244 -0.5433 -2.4748
    2SAPS  C315  254   3.659   2.138   5.426  1.1885  0.0144  0.0635
    2SAPS  H15X  255   3.689   2.245   5.427 -0.7279  0.6077 -1.6606
    2SAPS  H15Y  256   3.570   2.138   5.492  1.6023  1.2739  0.6654
    2SAPS  C316  257   3.620   2.089   5.290  0.0616  0.3394 -0.1721
    2SAPS  H16X  258   3.537   2.159   5.264  1.1993  2.1171  0.7596
    2SAPS  H16Y  259   3.583   1.984   5.290 -0.9661  0.6866 -0.2268
    2SAPS  C317  260   3.732   2.099   5.178  0.2549  0.1467 -0.0143
    2SAPS  H17X  261   3.822   2.043   5.212  0.4918  1.3991  1.5350
    2SAPS  H17Y  262   3.767   2.204   5.172 -1.4714  0.8009  0.6888
    2SAPS  C318  263   3.677   2.044   5.043  0.2255  0.4457 -0.3142
    2SAPS  H18X  264   3.578   2.087   5.015 -0.3743  0.0996  1.1789
    2SAPS  H18Y  265   3.667   1.934   5.055 -1.5724  0.6611  0.5666
    2SAPS  H18Z  266   3.748   2.065   4.961  0.9273 -0.1466  0.1326
    3SAPS     N  267   3.475   1.544   8.085 -0.9448  0.3089 -0.4221
    3SAPS   HN1  268   3.389   1.511   8.133 -2.1692  1.1048 -1.9462
    3SAPS   HN2  269   3.556   1.546   8.150 -1.1634  0.2076 -0.1460
    3SAPS   HN3  270   3.460   1.640   8.045 -0.8399  1.4207  2.0609
    3SAPS   C12  271   3.521   1.461   7.966  0.4781  0.2481  1.1256
    3SAPS  H12A  272   3.570   1.528   7.897 -0.3707 -0.3942 -0.1333
    3SAPS   C13  273   3.618   1.342   7.985  0.8220  0.5771  0.4982
    3SAPS  O13A  274   3.659   1.311   8.099  0.4405 -0.1209  0.3574
    3SAPS  O13B  275   3.632   1.259   7.891 -0.7346  0.2035 -0.3207
    3SAPS   C11  276   3.388   1.405   7.896 -0.1773 -0.2758  0.6170
    3SAPS  H11A  277   3.357   1.316   7.954  2.1791  0.2310  2.8598
    3SAPS  H11B  278   3.421   1.355   7.802 -2.8399 -1.4094  0.2066
    3SAPS     P  279   3.199   1.526   7.759  0.2843  0.1537 -0.1468
    3SAPS   O13  280   3.120   1.402   7.735 -0.1901  0.3742 -0.0489
    3SAPS   O14  281   3.125   1.658   7.761 -0.8652  0.5423 -0.1630
    3SAPS   O12  282   3.287   1.507   7.886  0.3282  0.3929  0.5957
    3SAPS   O11  283   3.305   1.529   7.643 -0.5933 -0.3754 -0.4085
    3SAPS    C1  284   3.289   1.438   7.527  0.3864 -0.5024 -0.4022
    3SAPS    HA  285   3.298   1.332   7.560  1.4850 -0.7695 -1.4554
    3SAPS    HB  286   3.195   1.443   7.467  1.5798 -0.8859 -2.4214
    3SAPS    C2  287   3.404   1.452   7.424  0.4584 -0.3960  0.6571
    3SAPS    HS  288   3.502   1.420   7.465  0.6708 -1.0882 -0.3419
    3SAPS   O21  289   3.415   1.590   7.372  0.2533 -0.9161 -0.3159
    3SAPS   C21  290   3.533   1.612   7.318 -0.1240  0.1591 -0.2594
    3SAPS   O22  291   3.633   1.539   7.321  0.1098 -0.2238  0.2176
    3SAPS   C22  292   3.522   1.752   7.262  0.0525  0.2003  0.7135
    3SAPS   H2R  293   3.415   1.767   7.237  0.5720  0.8550 -1.2846
    3SAPS   H2S  294   3.558   1.818   7.344  1.9365 -1.4875  1.3361
    3SAPS    C3  295   3.369   1.357   7.302  0.2930 -0.1072  0.1633
    3SAPS    HX  296   3.347   1.254   7.336 -1.1032  0.0774 -0.1248
    3SAPS    HY  297   3.454   1.353   7.231 -1.5981 -0.0394 -2.2275
    3SAPS   O31  298   3.242   1.408   7.243  0.9233 -0.0075  0.0634
    3SAPS   C31  299   3.265   1.485   7.130 -0.1199  0.2232 -0.1787
    3SAPS   O32  300   3.378   1.502   7.086 -0.2621 -0.2366  0.3684
    3SAPS   C32  301   3.138   1.538   7.068 -0.2998  0.2039 -0.0101
    3SAPS   H2X  302   3.140   1.649   7.055 -1.0835  0.2105 -0.0894
    3SAPS   H2Y  303   3.053   1.511   7.134 -1.1129  0.3679 -0.9726
    3SAPS   C23  304   3.608   1.759   7.135  0.3913  0.3669 -0.2229
    3SAPS   H3R  305   3.540   1.716   7.058 -1.9015 -1.9470  2.8489
    3SAPS   H3S  306   3.702   1.701   7.139  0.6909  0.8918  1.0221
    3SAPS   C24  307   3.658   1.903   7.103 -0.3565 -0.2649  0.7818
    3SAPS   H4R  308   3.716   1.903   7.008 -1.8217 -1.3298 -0.1556
    3SAPS   H4S  309   3.731   1.930   7.183  1.2736  0.4229 -0.8677
    3SAPS   C25  310   3.556   2.009   7.083  0.5347  0.3728  0.4245
    3SAPS   H5R  311   3.501   2.032   7.175 -1.2488 -2.1194  0.0676
    3SAPS   C26  312   3.503   2.043   6.964 -0.2272  0.3752  0.7624
    3SAPS   H6R  313   3.418   2.113   6.965  0.7101  1.5948 -0.4493
    3SAPS   C27  314   3.543   2.007   6.819 -1.0427  0.1343  0.3525
    3SAPS   H7R  315   3.653   2.019   6.810 -1.1506  0.3467 -0.8774
    3SAPS   H7S  316   3.508   2.082   6.745 -1.0162 -0.9650 -0.8019
    3SAPS   C28  317   3.512   1.866   6.786  0.1389 -0.3967  0.0756
    3SAPS   H8R  318   3.428   1.826   6.845 -0.6037 -0.1351 -0.7764
    3SAPS   C29  319   3.569   1.788   6.687 -0.9586  0.4754 -0.1341
    3SAPS   H9R  320   3.552   1.680   6.678 -3.3036  0.6673  1.2328
    3SAPS  C210  321   3.689   1.837   6.605 -0.1065 -0.3642 -0.5695
    3SAPS  H10R  322   3.782   1.808   6.659 -1.0152 -0.8756  0.7595
    3SAPS  H10S  323   3.696   1.947   6.617 -0.2309 -0.2968 -1.0762
    3SAPS  C211  324   3.693   1.793   6.461  0.5893 -0.2666 -0.6615
    3SAPS  H11R  325   3.771   1.718   6.442  0.4705 -0.6734  0.3425
    3SAPS  C212  326   3.614   1.834   6.362 -0.1762 -0.6523  0.0791
    3SAPS  H12R  327   3.641   1.792   6.264  0.1220  0.0891 -0.1663
    3SAPS  C213  328   3.499   1.935   6.360 -0.5012  0.5635  0.4182
    3SAPS  H13R  329   3.444   1.939   6.457 -0.3298  2.1583  0.4892
    3SAPS  H13S  330   3.422   1.907   6.286 -0.1948  2.1195 -0.5362
    3SAPS  C214  331   3.565   2.070   6.329  0.5707  0.1026 -0.0532
    3SAPS  H14R  332   3.642   2.105   6.400  2.6384  1.0811 -2.6325
    3SAPS  C215  333   3.558   2.127   6.206 -0.0280 -0.0235  0.0799
    3SAPS  H15R  334   3.616   2.219   6.194 -0.9297  0.6560  0.7393
    3SAPS  C216  335   3.470   2.080   6.089 -0.1699  0.9718  0.2530
    3SAPS  H16R  336   3.391   2.009   6.121  0.7283 -0.4337 -0.5561
    3SAPS  H16S  337   3.538   2.029   6.017 -0.5032 -0.8379  1.1639
    3SAPS  C217  338   3.402   2.190   5.994 -0.3200 -0.1833  0.1667
    3SAPS  H17R  339   3.477   2.267   5.966 -1.4803  1.3439  1.0653
    3SAPS  H17S  340   3.330   2.250   6.054  0.6803 -0.3208  1.5527
    3SAPS  C218  341   3.335   2.145   5.859  0.2582  0.6034  0.2787
    3SAPS  H18R  342   3.268   2.063   5.892  0.9018  0.7364  2.0120
    3SAPS  H18S  343   3.416   2.097   5.799 -0.2998  0.9619 -0.7869
    3SAPS  C219  344   3.262   2.258   5.778 -0.4599 -0.1148 -0.0789
    3SAPS  H19R  345   3.182   2.227   5.707  1.0274  1.2739 -2.5003
    3SAPS  H19S  346   3.220   2.323   5.858  1.2500  0.4533  0.3919
    3SAPS  C220  347   3.363   2.348   5.701 -0.1979  0.3317 -0.0770
    3SAPS  H20R  348   3.407   2.296   5.614  0.0064  0.7136 -0.2017
    3SAPS  H20S  349   3.440   2.386   5.772  0.4076  0.6667 -0.9054
    3SAPS  H20T  350   3.301   2.434   5.669  1.1752  0.7556 -1.7553
    3SAPS   C33  351   3.112   1.485   6.923 -0.0592  0.4467 -0.3449
    3SAPS   H3X  352   3.009   1.519   6.897  0.1937  0.7398 -0.9920
    3SAPS   H3Y  353   3.112   1.374   6.929 -0.3256  0.5023  1.0357
    3SAPS   C34  354   3.205   1.545   6.814 -0.2542 -0.1405  0.5042
    3SAPS   H4X  355   3.313   1.546   6.840 -0.1274 -2.1314  0.1875
    3SAPS   H4Y  356   3.173   1.649   6.791 -2.3136 -1.2641 -2.2288
    3SAPS   C35  357   3.189   1.460   6.689 -0.0638  0.1051  0.6646
    3SAPS   H5X  358   3.216   1.355   6.717  0.1023 -0.5346 -1.7302
    3SAPS   H5Y  359   3.082   1.454   6.661  0.0663  0.6628  0.0536
    3SAPS   C36  360   3.286   1.495   6.579  0.0236 -1.1093 -0.3919
    3SAPS   H6X  361   3.283   1.409   6.508 -1.2083 -1.4499  0.0476
    3SAPS   H6Y  362   3.394   1.494   6.603  0.0976 -0.5127 -0.6982
    3SAPS   C37  363   3.251   1.625   6.503  0.2387  0.6815 -0.3380
    3SAPS   H7X  364   3.334   1.649   6.434  1.2528 -0.0099  0.6024
    3SAPS   H7Y  365   3.230   1.709   6.573 -0.2177 -0.3336  0.7791
    3SAPS   C38  366   3.127   1.599   6.418 -0.1991 -0.3338 -0.6962
    3SAPS   H8X  367   3.041   1.599   6.489 -0.2506  1.6118 -0.7134
    3SAPS   H8Y  368   3.135   1.503   6.363 -0.6129 -0.8124  0.0646
    3SAPS   C39  369   3.099   1.705   6.311 -0.4155  0.2661 -0.3415
    3SAPS   H9X  370   3.090   1.805   6.359 -0.5891 -0.2611  0.7688
    3SAPS   H9Y  371   3.010   1.663   6.260  1.1166 -2.4765 -0.9974
    3SAPS  C310  372   3.202   1.701   6.201  0.0031 -0.8396 -0.1343
    3SAPS  H10X  373   3.197   1.595   6.169 -0.7584 -0.8763  0.0729
    3SAPS  H10Y  374   3.301   1.719   6.248  0.7635  1.1426 -2.3136
    3SAPS  C311  375   3.182   1.806   6.092  0.6063  0.0719 -0.7004
    3SAPS  H11X  376   3.259   1.792   6.014 -0.3180  0.1366 -1.6483
    3SAPS  H11Y  377   3.198   1.900   6.149 -2.6375 -0.2437  1.0001
    3SAPS  C312  378   3.040   1.815   6.033  0.5844  0.2713 -0.2213
    3SAPS  H12X  379   2.961   1.826   6.110  0.3962  1.2768 -0.5527
    3SAPS  H12Y  380   3.029   1.715   5.985  1.6427  0.2099 -0.3619
    3SAPS  C313  381   3.017   1.917   5.924  0.8586 -0.0532  0.4497
    3SAPS  H13X  382   3.097   1.911   5.847  0.4258 -2.2110  0.0829
    3SAPS  H13Y  383   3.027   2.019   5.966  0.3198  0.3462 -0.3773
    3SAPS  C314  384   2.881   1.896   5.848 -0.1564 -0.6891  0.0559
    3SAPS  H14X  385   2.802   1.883   5.924  0.0072 -0.9511  0.1809
    3SAPS  H14Y  386   2.902   1.800   5.796 -2.8398 -1.0437 -0.5291
    3SAPS  C315  387   2.845   2.004   5.745  0.0629  0.2675  0.4585
    3SAPS  H15X  388   2.875   2.100   5.793  1.8389 -0.4137  0.7994
    3SAPS  H15Y  389   2.736   2.006   5.724 -0.1951  1.5271  1.7731
    3SAPS  C316  390   2.926   1.995   5.613 -0.0841 -0.0369  0.1790
    3SAPS  H16X  391   2.904   1.898   5.563 -0.7795 -0.0474  0.4923
    3SAPS  H16Y  392   3.035   2.001   5.636  0.1570  0.9845 -1.1232
    3SAPS  C317  393   2.884   2.099   5.509  0.0517 -0.8101 -0.2416
    3SAPS  H17X  394   2.888   2.200   5.555  2.2434 -0.9617  0.0033
    3SAPS  H17Y  395   2.779   2.092   5.473 -0.0934  1.7940 -0.5402
    3SAPS  C318  396   2.978   2.090   5.393 -1.1701 -0.0401 -0.0300
    3SAPS  H18X  397   2.937   2.141   5.303  0.4897 -2.0226 -2.0092
    3SAPS  H18Y  398   2.999   1.986   5.362  1.3411  0.2176  0.5845
    3SAPS  H18Z  399   3.072   2.143   5.418 -0.5092 -1.1833 -0.0553
    4SAPS     N  400   1.606   6.443   7.732 -0.6291  0.1632  0.2048
    4SAPS   HN1  401   1.672   6.515   7.694  0.5795 -1.2828 -0.5291
    4SAPS   HN2  402   1.657   6.354   7.721 -0.9252 -0.0434  0.4900
    4SAPS   HN3  403   1.520   6.428   7.677  0.4158  1.0683 -1.7722
    4SAPS   C12  404   1.575   6.467   7.881 -0.7594  0.2410 -0.0328
    4SAPS  H12A  405   1.524   6.380   7.919  1.1095 -0.0487  2.0604
    4SAPS   C13  406   1.704   6.470   7.981  0.6638 -0.1879 -0.0271
    4SAPS  O13A  407   1.819   6.483   7.925 -0.2300  0.4558 -0.1885
    4SAPS  O13B  408   1.687   6.497   8.101  0.1203 -0.0868  0.0660
    4SAPS   C11  409   1.496   6.604   7.886  0.0175  0.2550 -0.0115
    4SAPS  H11A  410   1.571   6.679   7.854 -1.3236  0.6219 -2.5033
    4SAPS  H11B  411   1.471   6.633   7.991  0.9007  1.9383 -0.2224
    4SAPS     P  412   1.266   6.704   7.808  0.0551  0.4420 -0.0431
    4SAPS   O13  413   1.150   6.639   7.741  0.6795 -0.1575 -0.2475
    4SAPS   O14  414   1.248   6.744   7.950 -0.6378 -0.2015  0.3975
    4SAPS   O12  415   1.382   6.604   7.796 -0.1098 -0.5942 -0.6930
    4SAPS   O11  416   1.315   6.837   7.722 -0.2431 -0.0415  0.3838
    4SAPS    C1  417   1.424   6.830   7.628 -0.9399  0.2369 -0.1659
    4SAPS    HA  418   1.480   6.926   7.626  0.7282 -0.5593  2.8399
    4SAPS    HB  419   1.491   6.744   7.650 -2.4100 -1.3214 -1.4866
    4SAPS    C2  420   1.387   6.807   7.480  0.5256 -0.2688 -0.1031
    4SAPS    HS  421   1.329   6.891   7.437 -0.0015 -1.9215 -2.8140
    4SAPS   O21  422   1.312   6.688   7.474 -0.0485 -0.2183 -0.0192
    4SAPS   C21  423   1.233   6.664   7.370  0.1446 -0.5356  0.3843
    4SAPS   O22  424   1.201   6.746   7.290  0.4794  0.2780  0.4499
    4SAPS   C22  425   1.173   6.526   7.374 -0.0960 -0.2635 -0.8317
    4SAPS   H2R  426   1.260   6.457   7.364  0.6210  0.3150  1.0246
    4SAPS   H2S  427   1.120   6.513   7.471  1.5810  0.7619  0.2865
    4SAPS    C3  428   1.512   6.791   7.397  0.3228  0.4163  0.6575
    4SAPS    HX  429   1.565   6.707   7.446 -0.4217  0.3604  1.3776
    4SAPS    HY  430   1.582   6.877   7.401  2.4038 -1.2372  1.7072
    4SAPS   O31  431   1.470   6.767   7.259  0.2249  0.1349  0.7876
    4SAPS   C31  432   1.440   6.865   7.180 -0.2254 -0.3090  0.2074
    4SAPS   O32  433   1.437   6.986   7.205  0.2685 -0.4789 -0.2817
    4SAPS   C32  434   1.408   6.800   7.047  0.5112 -0.6881 -0.1556
    4SAPS   H2X  435   1.311   6.747   7.051  1.1156 -1.7219  2.0491
    4SAPS   H2Y  436   1.480   6.717   7.036  0.2491 -0.9095 -0.2029
    4SAPS   C23  437   1.065   6.505   7.255  0.1148 -0.2029  0.2434
    4SAPS   H3R  438   1.113   6.535   7.159  0.4229  0.3056  0.5542
    4SAPS   H3S  439   0.983   6.576   7.281 -1.1346 -1.4145 -0.2527
    4SAPS   C24  440   1.021   6.360   7.247  0.2238 -0.0267  0.4589
    4SAPS   H4R  441   0.957   6.332   7.333 -2.2797  0.7084 -1.0748
    4SAPS   H4S  442   1.107   6.289   7.247  0.8060  0.6715  0.1127
    4SAPS   C25  443   0.944   6.339   7.125 -0.2303  0.7814 -0.0339
    4SAPS   H5R  444   0.859   6.408   7.124 -0.3714  0.6286  0.6598
    4SAPS   C26  445   0.974   6.278   7.009 -0.0464 -0.1430 -0.3433
    4SAPS   H6R  446   0.892   6.273   6.936 -1.6258 -0.7167  1.3908
    4SAPS   C27  447   1.091   6.190   6.981 -0.3461  0.7935  0.0201
    4SAPS   H7R  448   1.169   6.203   7.059 -3.3496  0.2127  3.3699
    4SAPS   H7S  449   1.121   6.219   6.877 -1.6667  2.4041  0.0453
    4SAPS   C28  450   1.043   6.045   6.972 -0.7980 -0.2151  0.2326
    4SAPS   H8R  451   1.042   5.999   7.072  1.2003  1.0074  0.8861
    4SAPS   C29  452   1.009   5.978   6.856 -0.4573  0.1187 -0.2329
    4SAPS   H9R  453   0.964   5.878   6.868 -1.4298  0.4143 -1.3199
    4SAPS  C210  454   1.014   6.028   6.721 -0.6149  0.2571 -0.1247
    4SAPS  H10R  455   0.958   6.123   6.710 -0.1726  0.3412 -2.0641
    4SAPS  H10S  456   0.953   5.956   6.662 -0.9027 -1.2239  1.8516
    4SAPS  C211  457   1.145   6.052   6.650 -0.3394  0.1197  0.2512
    4SAPS  H11R  458   1.186   6.154   6.663 -0.7362  0.0417  2.6376
    4SAPS  C212  459   1.215   5.956   6.588 -0.7000  0.2829 -0.4314
    4SAPS  H12R  460   1.312   5.975   6.541 -0.4597  0.3594  0.0893
    4SAPS  C213  461   1.168   5.814   6.594  0.4039  0.2646 -0.5635
    4SAPS  H13R  462   1.059   5.808   6.572  0.2694  0.9131 -0.0857
    4SAPS  H13S  463   1.180   5.775   6.697  3.9285 -1.0178 -1.3235
    4SAPS  C214  464   1.236   5.715   6.507  0.4813 -0.2300  0.6177
    4SAPS  H14R  465   1.305   5.643   6.555  1.1199 -1.5689 -2.1011
    4SAPS  C215  466   1.210   5.692   6.376 -0.6875  0.0183 -0.4297
    4SAPS  H15R  467   1.271   5.624   6.315  0.5118 -0.8410  1.6340
    4SAPS  C216  468   1.112   5.772   6.294  0.2439 -0.4124  0.6268
    4SAPS  H16R  469   1.084   5.866   6.347 -0.1671  0.6531 -1.3658
    4SAPS  H16S  470   1.016   5.725   6.266  1.1442 -2.0541  0.1839
    4SAPS  C217  471   1.178   5.808   6.162  0.1195 -0.0406 -0.4519
    4SAPS  H17R  472   1.277   5.850   6.193  1.0813 -2.1668 -0.4408
    4SAPS  H17S  473   1.132   5.887   6.100 -0.7574 -1.1356 -1.2126
    4SAPS  C218  474   1.200   5.685   6.063 -0.4596 -0.6145  0.4503
    4SAPS  H18R  475   1.237   5.597   6.121 -1.4245 -1.7896 -0.6527
    4SAPS  H18S  476   1.285   5.710   5.996 -0.0671  1.5116  1.6649
    4SAPS  C219  477   1.070   5.649   5.991  0.2507 -0.1552 -0.6369
    4SAPS  H19R  478   1.039   5.728   5.920 -0.6320  2.6937  2.6644
    4SAPS  H19S  479   0.987   5.663   6.063  0.6912  1.6252 -0.4474
    4SAPS  C220  480   1.069   5.513   5.927 -0.0331 -0.1027 -0.6756
    4SAPS  H20R  481   1.170   5.478   5.897 -0.2864 -0.7383 -0.7871
    4SAPS  H20S  482   1.000   5.513   5.840 -0.4022  1.2495 -0.4149
    4SAPS  H20T  483   1.021   5.444   5.999  2.1351 -2.3345 -1.2373
    4SAPS   C33  484   1.401   6.894   6.924  0.9102 -0.6263  0.3862
    4SAPS   H3X  485   1.494   6.949   6.898  0.9314 -1.0876 -0.5819
    4SAPS   H3Y  486   1.324   6.972   6.939  0.9503 -0.4763 -0.1498
    4SAPS   C34  487   1.373   6.817   6.791  0.2065 -0.5187  0.2449
    4SAPS   H4X  488   1.276   6.766   6.808  0.0505 -0.3362 -0.0910
    4SAPS   H4Y  489   1.451   6.742   6.766  0.4657 -0.4601  0.8567
    4SAPS   C35  490   1.345   6.913   6.670 -0.3721 -1.1987  0.4307
    4SAPS   H5X  491   1.441   6.968   6.664 -2.2416  2.4530  0.9696
    4SAPS   H5Y  492   1.268   6.991   6.687  1.1739  0.3392  0.6382
    4SAPS   C36  493   1.308   6.833   6.537  0.2436 -0.2242 -0.3969
    4SAPS   H6X  494   1.225   6.763   6.560 -1.1402  0.7805 -2.1567
    4SAPS   H6Y  495   1.390   6.768   6.498  0.7683  0.8410 -1.1436
    4SAPS   C37  496   1.267   6.940   6.438 -0.1902  0.6283 -0.3716
    4SAPS   H7X  497   1.359   6.996   6.411  0.6291  0.3371  1.6829
    4SAPS   H7Y  498   1.182   7.001   6.474 -0.6785 -0.5165  0.4625
    4SAPS   C38  499   1.219   6.883   6.305 -0.0393 -0.1444  0.8658
    4SAPS   H8X  500   1.198   6.959   6.227  0.2920  1.1388  1.9950
    4SAPS   H8Y  501   1.118   6.837   6.314  0.1947 -1.4255 -1.8899
    4SAPS   C39  502   1.312   6.777   6.236 -0.0013 -0.4582 -0.0086
    4SAPS   H9X  503   1.313   6.699   6.315  0.5316 -0.5137 -0.0648
    4SAPS   H9Y  504   1.410   6.827   6.219 -1.0883  1.0992 -2.1468
    4SAPS  C310  505   1.250   6.707   6.119  0.8290 -0.3634  0.8138
    4SAPS  H10X  506   1.147   6.672   6.138  0.7079 -0.5667 -0.1877
    4SAPS  H10Y  507   1.302   6.611   6.098 -0.2927 -0.7820 -0.1136
    4SAPS  C311  508   1.254   6.794   5.990 -0.1956  0.3822 -0.8068
    4SAPS  H11X  509   1.355   6.822   5.952 -0.9244  1.8786 -1.7426
    4SAPS  H11Y  510   1.213   6.893   6.018 -0.5257 -0.0051  0.1164
    4SAPS  C312  511   1.167   6.740   5.870 -0.1306  0.0130 -0.2243
    4SAPS  H12X  512   1.174   6.811   5.785  0.0190 -0.8564 -0.9490
    4SAPS  H12Y  513   1.059   6.731   5.891 -0.4796  1.6461 -1.1915
    4SAPS  C313  514   1.225   6.612   5.801  0.2627 -0.5407 -0.1540
    4SAPS  H13X  515   1.232   6.529   5.875 -0.4480 -1.4714 -1.1050
    4SAPS  H13Y  516   1.326   6.651   5.775  0.7158 -0.0653  2.0918
    4SAPS  C314  517   1.139   6.575   5.683 -0.4729  0.7487  0.0975
    4SAPS  H14X  518   1.035   6.555   5.718 -0.4354  0.1262 -0.1418
    4SAPS  H14Y  519   1.181   6.484   5.636 -0.5217  0.3797  0.7569
    4SAPS  C315  520   1.127   6.688   5.575 -0.8636  0.1672  0.1366
    4SAPS  H15X  521   1.064   6.774   5.605  0.7964  2.6418 -2.8614
    4SAPS  H15Y  522   1.096   6.644   5.478  1.6812  0.7100 -0.9840
    4SAPS  C316  523   1.263   6.751   5.540  0.2183  0.2047 -0.3610
    4SAPS  H16X  524   1.333   6.666   5.519 -0.1297  0.2116 -1.6124
    4SAPS  H16Y  525   1.307   6.804   5.628  0.5710  0.4717 -0.6931
    4SAPS  C317  526   1.261   6.850   5.427 -0.1810 -0.1896 -0.6809
    4SAPS  H17X  527   1.180   6.924   5.445  0.0066 -0.1127 -0.1518
    4SAPS  H17Y  528   1.239   6.783   5.341 -0.5172 -0.8986 -0.0540
    4SAPS  C318  529   1.400   6.912   5.403  0.5046  0.0004 -0.4816
    4SAPS  H18X  530   1.478   6.857   5.347  1.2676 -0.7693  1.2677
    4SAPS  H18Y  531   1.444   6.937   5.502  2.9460 -2.8272 -0.7084
    4SAPS  H18Z  532   1.393   7.009   5.349  1.2074  1.1414  1.4023
    5SAPS     N  533   4.912   0.195   7.480 -0.1971 -0.6077 -0.3650
    5SAPS   HN1  534   4.893   0.283   7.532 -2.5171  0.3629 -2.6683
    5SAPS   HN2  535   5.011   0.192   7.448 -1.0658 -0.6745 -3.3205
    5SAPS   HN3  536   4.849   0.200   7.398 -0.1829  0.5238 -0.3234
    5SAPS   C12  537   4.884   0.080   7.569  0.2598  0.3066 -0.5713
    5SAPS  H12A  538   4.956   0.088   7.649  0.1239  0.3931 -0.4560
    5SAPS   C13  539   4.739   0.072   7.635 -0.3389 -0.6534  0.2003
    5SAPS  O13A  540   4.642   0.137   7.596  0.0173 -1.0460  0.1269
    5SAPS  O13B  541   4.731  -0.018   7.720 -0.2170 -0.6405  0.6790
    5SAPS   C11  542   4.915  -0.059   7.505 -0.0457  0.1631 -0.3711
    5SAPS  H11A  543   4.844  -0.078   7.422 -1.2133  0.5366  0.5230
    5SAPS  H11B  544   4.896  -0.133   7.586 -3.0905  0.2740 -0.8774
    5SAPS     P  545   5.106  -0.188   7.354 -0.1354  0.5072 -0.3985
    5SAPS   O13  546   5.256  -0.192   7.382  0.3869  0.2630  0.2836
    5SAPS   O14  547   5.030  -0.309   7.393 -0.2067 -0.0867  0.6509
    5SAPS   O12  548   5.046  -0.073   7.448  1.1383 -0.6469  0.0183
    5SAPS   O11  549   5.066  -0.145   7.204 -0.1687  0.1071  0.4828
    5SAPS    C1  550   5.078  -0.003   7.178 -0.1746  0.1525 -0.0635
    5SAPS    HA  551   5.016   0.060   7.246  0.7772 -0.9918  1.9682
    5SAPS    HB  552   5.181   0.035   7.197 -0.0843 -1.0717  2.2793
    5SAPS    C2  553   5.056   0.029   7.026 -0.0372 -0.0987 -0.0196
    5SAPS    HS  554   5.054   0.140   7.024 -0.4937 -0.1016  0.1259
    5SAPS   O21  555   4.946  -0.038   6.958  0.8512 -0.0114 -0.4820
    5SAPS   C21  556   4.837   0.036   6.943 -0.0853  0.1382  0.1973
    5SAPS   O22  557   4.819   0.152   6.978 -0.0337  0.6242 -0.5131
    5SAPS   C22  558   4.714  -0.044   6.892  0.9522 -0.9318 -0.1491
    5SAPS   H2R  559   4.729  -0.124   6.817 -1.7189 -0.6261 -1.1390
    5SAPS   H2S  560   4.686  -0.106   6.980 -1.9714  0.2959 -0.0896
    5SAPS    C3  561   5.188  -0.000   6.945 -0.0521 -0.3822  0.1055
    5SAPS    HX  562   5.229  -0.096   6.984 -0.7768 -0.3933  0.8568
    5SAPS    HY  563   5.257   0.080   6.978 -1.6185  0.3564  1.7756
    5SAPS   O31  564   5.165   0.003   6.802 -0.2078 -0.2676  0.4890
    5SAPS   C31  565   5.246  -0.075   6.737 -0.8425 -0.7885  0.7141
    5SAPS   O32  566   5.324  -0.155   6.788  0.3782 -0.0937 -0.3128
    5SAPS   C32  567   5.232  -0.056   6.587  0.2429 -0.1214 -0.4286
    5SAPS   H2X  568   5.182   0.040   6.561  0.0624  0.0227  0.4255
    5SAPS   H2Y  569   5.166  -0.140   6.557  2.4711 -1.1330 -2.9181
    5SAPS   C23  570   4.590   0.042   6.864  0.3418  0.1390  0.4506
    5SAPS   H3R  571   4.561   0.089   6.960 -1.5287 -1.2165  0.5984
    5SAPS   H3S  572   4.502  -0.020   6.839  0.0278  0.1402  1.5106
    5SAPS   C24  573   4.604   0.153   6.759  0.2634  0.6728  0.1163
    5SAPS   H4R  574   4.659   0.236   6.809  1.0351  0.4583 -0.3649
    5SAPS   H4S  575   4.503   0.177   6.718  0.2021  1.8797  0.9112
    5SAPS   C25  576   4.694   0.124   6.637  0.4361 -0.0374 -0.5304
    5SAPS   H5R  577   4.792   0.084   6.665  0.4506 -0.4993 -1.2210
    5SAPS   C26  578   4.672   0.179   6.518 -0.7066 -0.1466 -0.4069
    5SAPS   H6R  579   4.744   0.157   6.438 -1.3413 -1.8794 -0.5396
    5SAPS   C27  580   4.549   0.248   6.470 -0.4379  0.2345  0.0006
    5SAPS   H7R  581   4.576   0.347   6.427 -0.0682  0.4723  0.7462
    5SAPS   H7S  582   4.476   0.266   6.552  2.5993 -2.2374  3.6424
    5SAPS   C28  583   4.472   0.158   6.372  0.3153 -0.1040  0.0429
    5SAPS   H8R  584   4.418   0.073   6.417  0.9980  0.3831  1.8974
    5SAPS   C29  585   4.477   0.162   6.230 -0.5046 -0.1372  0.5932
    5SAPS   H9R  586   4.412   0.091   6.176  1.5716 -0.6485 -1.4039
    5SAPS  C210  587   4.575   0.242   6.147 -0.5772 -0.3491  1.0475
    5SAPS  H10R  588   4.660   0.176   6.123 -0.3981  0.4582 -0.6439
    5SAPS  H10S  589   4.610   0.326   6.211 -0.4581 -0.3443  0.9755
    5SAPS  C211  590   4.507   0.289   6.031 -0.5914  0.0658 -1.1190
    5SAPS  H11R  591   4.457   0.385   6.048 -0.3028  0.0163  0.0720
    5SAPS  C212  592   4.495   0.231   5.906  0.6157 -0.0087 -0.1472
    5SAPS  H12R  593   4.435   0.285   5.831 -1.1006 -2.1599 -0.4135
    5SAPS  C213  594   4.548   0.099   5.861  0.1223  0.4332  0.2111
    5SAPS  H13R  595   4.611   0.052   5.939 -0.2556  0.7764  0.7274
    5SAPS  H13S  596   4.620   0.098   5.776  1.9035  0.4426  1.6574
    5SAPS  C214  597   4.435   0.002   5.832 -0.2421 -0.2199 -0.0016
    5SAPS  H14R  598   4.415  -0.064   5.918  1.7323  1.4884  1.8992
    5SAPS  C215  599   4.381  -0.013   5.712 -0.2649 -0.2819  0.1766
    5SAPS  H15R  600   4.305  -0.091   5.692  1.0638 -1.9764  1.3670
    5SAPS  C216  601   4.397   0.082   5.597 -0.3668  0.4684 -1.0505
    5SAPS  H16R  602   4.445   0.176   5.631  1.0954 -0.9532  1.0180
    5SAPS  H16S  603   4.297   0.111   5.557  0.6145  0.2180 -3.8659
    5SAPS  C217  604   4.460   0.033   5.464 -0.5413  0.3101 -0.1278
    5SAPS  H17R  605   4.564   0.003   5.490  0.0013 -0.7182 -3.0281
    5SAPS  H17S  606   4.473   0.125   5.404 -2.2040  0.9791  0.5005
    5SAPS  C218  607   4.391  -0.083   5.390 -0.2050  0.6259 -0.2651
    5SAPS  H18R  608   4.289  -0.059   5.352  0.2763 -0.2116 -2.2487
    5SAPS  H18S  609   4.383  -0.168   5.461 -2.1354  1.0474  0.1009
    5SAPS  C219  610   4.472  -0.129   5.265 -0.1654  0.3980  0.0093
    5SAPS  H19R  611   4.580  -0.132   5.291  0.0887 -0.0256 -1.0376
    5SAPS  H19S  612   4.468  -0.058   5.180 -1.3874 -0.7987 -0.9827
    5SAPS  C220  613   4.441  -0.265   5.207  0.6728  0.5357  0.6711
    5SAPS  H20R  614   4.341  -0.256   5.159  1.6962  0.6423 -1.6131
    5SAPS  H20S  615   4.426  -0.335   5.291  3.1111  0.4993  1.1462
    5SAPS  H20T  616   4.518  -0.308   5.139  1.4707  1.2790  1.0819
    5SAPS   C33  617   5.364  -0.055   6.507 -0.5648  0.6618 -0.2380
    5SAPS   H3X  618   5.419  -0.152   6.513  1.0050  1.5763  0.8807
    5SAPS   H3Y  619   5.430   0.023   6.551 -0.2177 -0.9187  2.2680
    5SAPS   C34  620   5.330  -0.028   6.358  0.5492 -0.1541 -0.5484
    5SAPS   H4X  621   5.267   0.063   6.344  1.0011  0.0034 -1.6453
    5SAPS   H4Y  622   5.279  -0.120   6.323  1.6352 -0.5875 -1.0159
    5SAPS   C35  623   5.459  -0.012   6.274  0.5061  0.0028  0.1765
    5SAPS   H5X  624   5.512  -0.110   6.275  0.1541 -0.2129 -0.7482
    5SAPS   H5Y  625   5.534   0.060   6.312  2.0284 -1.2231 -0.3670
    5SAPS   C36  626   5.432   0.039   6.132 -0.2908  0.2911 -0.1144
    5SAPS   H6X  627   5.534   0.057   6.091 -0.1817  1.1910  0.5291
    5SAPS   H6Y  628   5.369   0.131   6.133 -1.8231 -0.6691 -1.4404
    5SAPS   C37  629   5.345  -0.060   6.043 -0.4573 -1.0623  0.2416
    5SAPS   H7X  630   5.244  -0.083   6.083  0.2730 -3.7373  0.7203
    5SAPS   H7Y  631   5.399  -0.156   6.032  3.6185  1.1410 -0.8307
    5SAPS   C38  632   5.318   0.000   5.911 -0.1438 -0.5796 -0.3576
    5SAPS   H8X  633   5.412   0.032   5.861 -0.0134  1.2040  0.9464
    5SAPS   H8Y  634   5.268   0.099   5.917  2.4345  0.7382  1.3574
    5SAPS   C39  635   5.236  -0.093   5.816 -0.0789  0.0107 -0.1508
    5SAPS   H9X  636   5.129  -0.083   5.842 -0.5301  2.3132 -2.5298
    5SAPS   H9Y  637   5.272  -0.198   5.824  0.0248 -0.0484 -1.2416
    5SAPS  C310  638   5.261  -0.054   5.671  0.4885  0.1219 -0.6264
    5SAPS  H10X  639   5.367  -0.047   5.639  0.2073  0.2125 -1.5715
    5SAPS  H10Y  640   5.211   0.042   5.648 -1.9994 -0.7167  0.8597
    5SAPS  C311  641   5.186  -0.137   5.569  0.2523  0.4439  0.4438
    5SAPS  H11X  642   5.077  -0.142   5.590 -0.2754 -0.8885 -2.1920
    5SAPS  H11Y  643   5.211  -0.245   5.565 -0.2509  0.3642 -2.3794
    5SAPS  C312  644   5.199  -0.093   5.423 -0.0637  0.0663  0.6941
    5SAPS  H12X  645   5.307  -0.083   5.397 -0.6099  0.3011 -1.6574
    5SAPS  H12Y  646   5.155   0.007   5.405 -0.0109  0.0994  0.7491
    5SAPS  C313  647   5.132  -0.181   5.315  0.7887  0.2885 -0.2429
    5SAPS  H13X  648   5.162  -0.288   5.326  1.3601  0.4882  0.1550
    5SAPS  H13Y  649   5.154  -0.149   5.211  0.9808 -0.9447 -0.5977
    5SAPS  C314  650   4.977  -0.180   5.330 -1.1145 -0.0853 -0.0289
    5SAPS  H14X  651   4.938  -0.233   5.419 -0.9674 -0.9410 -0.4640
    5SAPS  H14Y  652   4.938  -0.240   5.245 -1.7220 -1.1760  0.9913
    5SAPS  C315  653   4.911  -0.049   5.321 -0.2061 -0.0160  0.1851
    5SAPS  H15X  654   4.929   0.010   5.414 -1.3450  1.6897 -0.6241
    5SAPS  H15Y  655   4.804  -0.074   5.310  0.3325 -3.3789  1.4267
    5SAPS  C316  656   4.964   0.049   5.206  0.2151  0.1283  0.4160
    5SAPS  H16X  657   4.931   0.008   5.108 -0.8138 -0.4957  1.0025
    5SAPS  H16Y  658   5.074   0.061   5.203  0.3285 -0.8532  0.2906
    5SAPS  C317  659   4.897   0.191   5.242  0.2062  0.5599 -1.0082
    5SAPS  H17X  660   4.957   0.272   5.196  0.2389  1.1549  0.0461
    5SAPS  H17Y  661   4.898   0.219   5.350 -2.5102  0.0480 -0.7918
    5SAPS  C318  662   4.756   0.200   5.192  0.6413 -0.3419  0.2431
    5SAPS  H18X  663   4.686   0.136   5.250  1.9673 -0.4857  1.7472
    5SAPS  H18Y  664   4.759   0.168   5.085  3.5854  3.0677 -0.8656
    5SAPS  H18Z  665   4.719   0.304   5.194  2.7579  0.4574  2.9344
    6SAPS     N  666   6.642   2.316   7.865  0.4041  0.5930  0.0861
    6SAPS   HN1  667   6.744   2.302   7.846  0.1389 -0.0605 -0.9041
    6SAPS   HN2  668   6.607   2.350   7.773  1.6946  0.6733 -0.3975
    6SAPS   HN3  669   6.617   2.382   7.941  1.0013 -0.0061  0.8168
    6SAPS   C12  670   6.588   2.179   7.876 -0.5433 -0.3550 -0.1133
    6SAPS  H12A  671   6.610   2.139   7.973  2.1604  1.1527 -0.0060
    6SAPS   C13  672   6.435   2.173   7.874 -0.1712 -0.3466  0.1211
    6SAPS  O13A  673   6.365   2.279   7.865 -0.1075  0.0615  0.0306
    6SAPS  O13B  674   6.381   2.069   7.928  0.2624 -0.3004 -0.0853
    6SAPS   C11  675   6.637   2.086   7.754  0.7513 -0.6364 -0.3120
    6SAPS  H11A  676   6.617   2.149   7.665  1.7872  0.0120 -0.1073
    6SAPS  H11B  677   6.579   1.991   7.750 -0.8993  0.1212  2.4978
    6SAPS     P  678   6.829   1.932   7.850  0.5303  0.4048 -0.4438
    6SAPS   O13  679   6.867   1.982   7.978 -0.5989 -0.9121  0.2250
    6SAPS   O14  680   6.726   1.821   7.849  0.6855  0.2222  0.3451
    6SAPS   O12  681   6.777   2.054   7.759 -0.7434 -0.4755  0.0593
    6SAPS   O11  682   6.958   1.888   7.774 -0.2245 -0.3324 -0.8257
    6SAPS    C1  683   6.939   1.812   7.660  0.0982  0.1706  1.0898
    6SAPS    HA  684   7.006   1.723   7.663  0.0152 -0.0312 -1.0977
    6SAPS    HB  685   6.840   1.766   7.643  0.1596 -0.2068  1.7331
    6SAPS    C2  686   6.986   1.885   7.525  0.1378  0.2775 -0.1235
    6SAPS    HS  687   6.988   1.797   7.456  0.0271 -0.9873  1.4278
    6SAPS   O21  688   7.114   1.948   7.524 -0.2520  0.1515  0.3628
    6SAPS   C21  689   7.211   1.872   7.471 -1.0163  0.3055 -0.7919
    6SAPS   O22  690   7.202   1.758   7.424  0.2256 -0.3805  0.5029
    6SAPS   C22  691   7.343   1.934   7.511 -0.8630 -0.6010 -0.1194
    6SAPS   H2R  692   7.335   1.974   7.614  0.0110 -1.5459  0.3359
    6SAPS   H2S  693   7.416   1.850   7.519 -0.7701 -0.6596 -1.4406
    6SAPS    C3  694   6.883   1.993   7.481  0.3570  0.1955 -0.3083
    6SAPS    HX  695   6.898   2.078   7.551 -2.5001  0.5971 -0.0909
    6SAPS    HY  696   6.783   1.954   7.507 -0.0065  1.4143  0.2178
    6SAPS   O31  697   6.888   2.032   7.346 -0.3569  0.2735  0.3112
    6SAPS   C31  698   6.975   2.122   7.309  0.1307 -0.0739 -0.4498
    6SAPS   O32  699   7.038   2.189   7.389  0.2681 -0.3420  0.6259
    6SAPS   C32  700   6.986   2.127   7.150  0.1960 -0.3249  0.7367
    6SAPS   H2X  701   6.887   2.156   7.110  0.7998  0.7009 -0.0756
    6SAPS   H2Y  702   7.020   2.028   7.113  1.6704 -0.6047  2.6825
    6SAPS   C23  703   7.401   2.058   7.428  0.0349 -0.6013  0.1325
    6SAPS   H3R  704   7.508   2.051   7.458  0.2745  0.8884 -0.2915
    6SAPS   H3S  705   7.364   2.152   7.475  1.3663 -0.2290  0.4994
    6SAPS   C24  706   7.376   2.041   7.284  0.0029  0.3890  0.0598
    6SAPS   H4R  707   7.266   2.037   7.274 -0.1850 -2.0710  2.0210
    6SAPS   H4S  708   7.409   1.941   7.249 -4.6270 -0.1239 -3.7863
    6SAPS   C25  709   7.433   2.148   7.189  0.1651  0.4613 -1.0164
    6SAPS   H5R  710   7.453   2.249   7.228 -2.2769  0.9674 -0.9128
    6SAPS   C26  711   7.478   2.121   7.066  0.4569 -0.0602  0.4537
    6SAPS   H6R  712   7.519   2.205   7.007 -0.7526 -0.4674 -1.0205
    6SAPS   C27  713   7.473   1.993   6.988  0.4185  0.1895  0.0957
    6SAPS   H7R  714   7.393   1.997   6.912  0.3622 -1.7516 -0.0045
    6SAPS   H7S  715   7.443   1.905   7.050  1.7667 -1.0208 -0.9179
    6SAPS   C28  716   7.598   1.958   6.921 -0.1440 -0.4018 -0.2767
    6SAPS   H8R  717   7.661   1.889   6.980 -0.3863  1.2517  2.0662
    6SAPS   C29  718   7.643   2.000   6.799 -0.0791 -0.2233  0.4223
    6SAPS   H9R  719   7.744   1.975   6.764 -0.5345  1.2980 -2.2234
    6SAPS  C210  720   7.570   2.104   6.716  0.2824 -0.3887 -0.2664
    6SAPS  H10R  721   7.488   2.146   6.777  2.8501  1.7825  1.9052
    6SAPS  H10S  722   7.526   2.057   6.625  1.9835 -1.4998 -0.5862
    6SAPS  C211  723   7.661   2.225   6.698 -0.5920  0.7099  0.4429
    6SAPS  H11R  724   7.698   2.278   6.787  0.2299  0.7310  0.1057
    6SAPS  C212  725   7.679   2.290   6.579 -0.9276 -1.2584  0.9835
    6SAPS  H12R  726   7.741   2.380   6.587 -0.8920 -1.3729  2.0723
    6SAPS  C213  727   7.628   2.260   6.437 -0.5697 -0.6425  0.2826
    6SAPS  H13R  728   7.681   2.167   6.407 -0.8919 -0.9961  0.7785
    6SAPS  H13S  729   7.657   2.344   6.372  1.8709  0.7751  2.9608
    6SAPS  C214  730   7.479   2.228   6.419  0.0832 -1.0727  0.6276
    6SAPS  H14R  731   7.414   2.226   6.508  0.8698 -1.7759  1.2067
    6SAPS  C215  732   7.418   2.205   6.299 -0.0298 -0.5875  0.2266
    6SAPS  H15R  733   7.309   2.190   6.303 -0.2375  0.9482  1.0020
    6SAPS  C216  734   7.477   2.199   6.160 -0.2482  0.4316  0.5352
    6SAPS  H16R  735   7.444   2.102   6.116 -2.2375  1.9866 -1.6510
    6SAPS  H16S  736   7.588   2.197   6.162 -0.2174 -1.5468 -0.6025
    6SAPS  C217  737   7.425   2.297   6.051  0.3649 -0.3897  0.0056
    6SAPS  H17R  738   7.503   2.297   5.972  1.1299  0.9134  0.7317
    6SAPS  H17S  739   7.423   2.398   6.097 -0.3789 -0.6090  0.4758
    6SAPS  C218  740   7.282   2.262   6.001  0.0761  0.8438 -0.1477
    6SAPS  H18R  741   7.207   2.244   6.081 -1.1356 -0.7594 -1.5817
    6SAPS  H18S  742   7.284   2.166   5.945 -2.2496  1.1419 -0.8064
    6SAPS  C219  743   7.229   2.370   5.897  0.1157 -0.0444  0.0452
    6SAPS  H19R  744   7.181   2.460   5.940  0.0340  1.0104 -2.1605
    6SAPS  H19S  745   7.141   2.321   5.852  0.4204 -0.4482 -0.1245
    6SAPS  C220  746   7.333   2.413   5.790 -0.2259  0.4332 -0.0885
    6SAPS  H20R  747   7.407   2.483   5.836  1.0443 -0.8009 -0.2059
    6SAPS  H20S  748   7.278   2.461   5.706  2.9550 -0.0599 -2.6428
    6SAPS  H20T  749   7.389   2.330   5.743  1.0468  1.8430 -1.1878
    6SAPS   C33  750   7.084   2.246   7.100  0.0649  0.2389 -0.1303
    6SAPS   H3X  751   7.174   2.241   7.165 -0.3657  2.0764  0.6580
    6SAPS   H3Y  752   7.041   2.343   7.132  2.2446  1.0439  0.5434
    6SAPS   C34  753   7.114   2.239   6.951 -0.6113 -0.0819  0.7626
    6SAPS   H4X  754   7.028   2.208   6.888 -0.6248  0.6672  0.4023
    6SAPS   H4Y  755   7.194   2.161   6.949 -0.9753 -0.4602  0.9735
    6SAPS   C35  756   7.174   2.371   6.900  0.0163 -0.5346  0.3094
    6SAPS   H5X  757   7.276   2.386   6.941  0.9827 -1.0501 -1.7785
    6SAPS   H5Y  758   7.111   2.454   6.938 -0.1047 -0.4917  0.0197
    6SAPS   C36  759   7.172   2.385   6.745 -0.4352  0.0148  0.3507
    6SAPS   H6X  760   7.068   2.363   6.714  0.0648 -3.7167  0.7712
    6SAPS   H6Y  761   7.236   2.309   6.696  0.9081  0.5703  1.1922
    6SAPS   C37  762   7.202   2.519   6.680 -0.0867 -0.1613  0.8279
    6SAPS   H7X  763   7.311   2.534   6.692  0.3861 -2.1071 -0.5223
    6SAPS   H7Y  764   7.140   2.598   6.729 -0.3804 -1.2144  2.2163
    6SAPS   C38  765   7.174   2.509   6.522  0.2476 -0.1727 -0.0834
    6SAPS   H8X  766   7.066   2.487   6.507  0.6101 -1.8879 -0.3410
    6SAPS   H8Y  767   7.245   2.430   6.490  1.4467  1.1571 -0.7957
    6SAPS   C39  768   7.202   2.639   6.448  0.8799  0.9346  0.9890
    6SAPS   H9X  769   7.309   2.665   6.461  1.4495 -1.5507  1.8237
    6SAPS   H9Y  770   7.126   2.710   6.486  0.4239  1.1059 -0.1964
    6SAPS  C310  771   7.160   2.634   6.298  0.3127  0.0200 -0.0048
    6SAPS  H10X  772   7.050   2.619   6.290  0.0625  1.8868 -0.5854
    6SAPS  H10Y  773   7.221   2.557   6.246  1.2226  1.6367 -1.4455
    6SAPS  C311  774   7.210   2.761   6.213 -0.4156  0.2925  0.2568
    6SAPS  H11X  775   7.307   2.777   6.265  0.2835 -0.5559 -0.7604
    6SAPS  H11Y  776   7.161   2.857   6.239  0.5361  1.2400 -1.3338
    6SAPS  C312  777   7.228   2.730   6.066  0.2386 -0.1146  0.3796
    6SAPS  H12X  778   7.259   2.623   6.062  0.1973 -0.2507  2.5375
    6SAPS  H12Y  779   7.318   2.790   6.041 -0.3747  0.6568 -0.0399
    6SAPS  C313  780   7.119   2.768   5.966  0.4266 -0.5340 -0.1846
    6SAPS  H13X  781   7.085   2.873   5.975  2.9778  0.4978 -1.5607
    6SAPS  H13Y  782   7.033   2.710   6.005  0.8185 -0.0590  1.4537
    6SAPS  C314  783   7.149   2.744   5.817 -0.2154 -0.2187 -0.3538
    6SAPS  H14X  784   7.188   2.641   5.810 -0.9006 -0.4190 -1.4661
    6SAPS  H14Y  785   7.232   2.811   5.786 -0.8259  1.0397  0.6192
    6SAPS  C315  786   7.031   2.778   5.722 -0.2552  0.0635 -0.1466
    6SAPS  H15X  787   7.028   2.888   5.706  2.1404  0.0282 -1.1441
    6SAPS  H15Y  788   6.943   2.736   5.776 -0.0453  0.0760  0.2108
    6SAPS  C316  789   7.058   2.717   5.573 -0.1167 -0.1895 -0.4953
    6SAPS  H16X  790   6.969   2.751   5.516 -0.4202  0.9491  0.6168
    6SAPS  H16Y  791   7.054   2.606   5.574  0.4422 -0.2335 -1.4964
    6SAPS  C317  792   7.181   2.776   5.513 -0.1719 -0.3051  1.1012
    6SAPS  H17X  793   7.277   2.731   5.547  0.6786  2.3114  2.5461
    6SAPS  H17Y  794   7.184   2.884   5.540 -0.8001  0.1796 -0.6802
    6SAPS  C318  795   7.181   2.765   5.365  0.2125 -0.1665  0.1838
    6SAPS  H18X  796   7.269   2.823   5.330  1.3992 -0.9008  1.8361
    6SAPS  H18Y  797   7.092   2.813   5.318 -1.2104 -2.6971  0.1106
    6SAPS  H18Z  798   7.184   2.660   5.329 -2.8434  0.6799 -3.2158
    7SAPS     N  799   4.150   3.595   8.396 -0.6978 -0.0705  0.8439
    7SAPS   HN1  800   4.231   3.595   8.331 -2.8657  1.1238 -2.0904
    7SAPS   HN2  801   4.112   3.690   8.411  0.7961  0.4920  1.2305
    7SAPS   HN3  802   4.187   3.560   8.487 -0.0752 -0.5365  0.4179
    7SAPS   C12  803   4.044   3.497   8.349 -0.0855 -0.8082  0.1220
    7SAPS  H12A  804   4.076   3.401   8.385  4.5445 -0.3741 -2.0945
    7SAPS   C13  805   3.905   3.513   8.405  0.5445  0.2874 -0.6841
    7SAPS  O13A  806   3.874   3.589   8.499  0.4922 -0.6489 -0.0360
    7SAPS  O13B  807   3.832   3.420   8.370  0.4946  0.0260  0.2849
    7SAPS   C11  808   4.040   3.517   8.195 -0.3587 -0.3462 -0.7441
    7SAPS  H11A  809   4.003   3.620   8.176  2.3829  0.5092 -1.9298
    7SAPS  H11B  810   3.959   3.451   8.156 -2.7066  1.5237  0.6991
    7SAPS     P  811   4.171   3.347   8.049 -0.2700 -0.1995 -0.1099
    7SAPS   O13  812   4.315   3.321   8.023  0.1631  0.0718 -0.1334
    7SAPS   O14  813   4.096   3.240   8.128  0.0041  0.5164 -0.5963
    7SAPS   O12  814   4.165   3.482   8.130 -0.3957  0.2017 -0.3085
    7SAPS   O11  815   4.102   3.371   7.912 -0.1770 -0.3226 -0.1229
    7SAPS    C1  816   4.104   3.502   7.855 -0.1977  0.0566  0.0731
    7SAPS    HA  817   4.001   3.536   7.835 -0.0139 -0.2718 -1.6077
    7SAPS    HB  818   4.148   3.575   7.926  0.3647 -1.0761  0.9261
    7SAPS    C2  819   4.187   3.507   7.725 -0.3020 -0.3636 -0.2409
    7SAPS    HS  820   4.151   3.595   7.667 -1.9042  0.4836  1.9080
    7SAPS   O21  821   4.173   3.388   7.653  0.4483  0.3540  0.0844
    7SAPS   C21  822   4.052   3.372   7.589  0.1398 -0.1062 -0.4346
    7SAPS   O22  823   3.974   3.463   7.569 -0.0440  0.2381  0.2978
    7SAPS   C22  824   4.031   3.221   7.570 -0.2499  0.2981 -0.8862
    7SAPS   H2R  825   4.120   3.166   7.534  0.0137  0.4694 -0.5088
    7SAPS   H2S  826   4.003   3.181   7.670  0.7993  0.4392 -0.5243
    7SAPS    C3  827   4.342   3.531   7.758 -0.2526  0.3838  1.0868
    7SAPS    HX  828   4.376   3.456   7.832 -0.1906 -0.5956  0.0971
    7SAPS    HY  829   4.345   3.635   7.798  0.8209  0.8548 -0.1512
    7SAPS   O31  830   4.425   3.516   7.640 -0.5108  0.2706 -0.3934
    7SAPS   C31  831   4.436   3.619   7.566 -0.1163  0.0526 -0.2619
    7SAPS   O32  832   4.398   3.732   7.589  0.5344  0.4530 -0.0911
    7SAPS   C32  833   4.490   3.579   7.424  0.3821  0.3493 -0.4594
    7SAPS   H2X  834   4.589   3.533   7.445 -0.8603 -2.1789  0.1891
    7SAPS   H2Y  835   4.509   3.672   7.366  0.1741 -0.3392 -1.6784
    7SAPS   C23  836   3.910   3.190   7.488 -0.0635  0.5176  0.1440
    7SAPS   H3R  837   3.814   3.239   7.517 -1.6336 -0.6009 -2.7640
    7SAPS   H3S  838   3.882   3.083   7.504 -0.3352  0.8122  1.9043
    7SAPS   C24  839   3.944   3.203   7.334  0.8160 -0.5646  0.5409
    7SAPS   H4R  840   3.866   3.156   7.271 -0.5698  2.9855 -0.6737
    7SAPS   H4S  841   4.030   3.136   7.317  0.7897  0.0674 -2.7960
    7SAPS   C25  842   3.958   3.337   7.273  0.0497 -0.5851  0.5361
    7SAPS   H5R  843   3.999   3.407   7.347  0.1118 -0.8114  0.7174
    7SAPS   C26  844   3.933   3.378   7.146  0.0827  0.3305 -0.1199
    7SAPS   H6R  845   3.936   3.487   7.135  1.7866  0.5710  1.9963
    7SAPS   C27  846   3.893   3.300   7.024 -0.8247 -0.2275  0.1227
    7SAPS   H7R  847   3.903   3.191   7.043  3.5818  0.0968  0.6888
    7SAPS   H7S  848   3.969   3.316   6.945 -0.3292 -2.1260  0.1643
    7SAPS   C28  849   3.752   3.329   6.978  0.1198  0.0973  0.4219
    7SAPS   H8R  850   3.681   3.350   7.059 -1.1634 -0.7321 -0.4576
    7SAPS   C29  851   3.703   3.315   6.852  0.1724  0.6545 -0.0081
    7SAPS   H9R  852   3.596   3.330   6.833  0.5806  2.8776 -0.9757
    7SAPS  C210  853   3.783   3.261   6.737 -0.1754  0.1006  0.2772
    7SAPS  H10R  854   3.800   3.154   6.761  2.2188  0.0751 -1.2270
    7SAPS  H10S  855   3.886   3.301   6.736  0.4176 -1.3787 -0.4314
    7SAPS  C211  856   3.719   3.261   6.600 -0.2466  0.3477  0.3609
    7SAPS  H11R  857   3.650   3.344   6.581 -0.2164  0.3359  0.1972
    7SAPS  C212  858   3.740   3.180   6.490 -0.0791 -0.2851 -0.1350
    7SAPS  H12R  859   3.678   3.211   6.405 -0.7267 -0.2380  0.3424
    7SAPS  C213  860   3.832   3.067   6.465 -0.2784  0.0509 -0.6290
    7SAPS  H13R  861   3.897   3.060   6.554  1.4917  2.5099 -1.6169
    7SAPS  H13S  862   3.904   3.103   6.388  1.1990  1.5030  1.3362
    7SAPS  C214  863   3.748   2.950   6.422 -0.3688  0.4372 -0.1079
    7SAPS  H14R  864   3.726   2.879   6.502  0.5330 -0.9199 -1.0255
    7SAPS  C215  865   3.708   2.925   6.291 -0.3125 -0.3084  0.1141
    7SAPS  H15R  866   3.641   2.844   6.257 -0.5961 -0.3956  0.8683
    7SAPS  C216  867   3.732   3.017   6.176 -0.2750  0.6539  0.3131
    7SAPS  H16R  868   3.752   2.946   6.092 -1.8497  0.2087  0.2902
    7SAPS  H16S  869   3.821   3.082   6.184  0.3347  0.0827 -1.3068
    7SAPS  C217  870   3.617   3.105   6.137 -0.2022 -0.7971  0.4600
    7SAPS  H17R  871   3.583   3.174   6.217  0.2597 -1.5823  1.3573
    7SAPS  H17S  872   3.523   3.052   6.112 -1.9061  1.7226  1.1670
    7SAPS  C218  873   3.661   3.189   6.013 -0.0937  0.0754  0.4949
    7SAPS  H18R  874   3.734   3.131   5.953 -1.2612 -2.3328  1.2739
    7SAPS  H18S  875   3.730   3.270   6.044  2.1490 -1.6825  0.3607
    7SAPS  C219  876   3.541   3.229   5.921 -0.0535 -0.3529 -0.0110
    7SAPS  H19R  877   3.471   3.143   5.912  1.5669 -1.8458  1.1796
    7SAPS  H19S  878   3.577   3.254   5.819  0.2732 -0.9691 -0.0501
    7SAPS  C220  879   3.464   3.350   5.982 -0.0741 -0.7869  0.5640
    7SAPS  H20R  880   3.399   3.311   6.064  0.4576 -2.3254  0.2919
    7SAPS  H20S  881   3.404   3.404   5.906  0.5028 -0.9402 -0.0121
    7SAPS  H20T  882   3.545   3.413   6.023  1.9734 -2.1204 -1.2015
    7SAPS   C33  883   4.392   3.478   7.359  0.4110 -0.0235  0.0048
    7SAPS   H3X  884   4.378   3.392   7.428 -0.0895 -0.0090 -0.0758
    7SAPS   H3Y  885   4.434   3.442   7.263 -0.4697  2.4081 -1.3848
    7SAPS   C34  886   4.261   3.536   7.309 -0.4420 -0.1148 -0.1006
    7SAPS   H4X  887   4.206   3.592   7.387 -1.7557  0.8890 -1.6825
    7SAPS   H4Y  888   4.188   3.455   7.284 -0.3742 -0.1851 -0.0719
    7SAPS   C35  889   4.289   3.635   7.188  0.0917  0.9404 -0.2138
    7SAPS   H5X  890   4.347   3.585   7.107 -2.8930 -1.1369 -1.2267
    7SAPS   H5Y  891   4.344   3.723   7.228 -0.4859  0.6010  1.3991
    7SAPS   C36  892   4.167   3.696   7.121 -0.4676  0.1894  0.1711
    7SAPS   H6X  893   4.111   3.745   7.204 -0.9420  1.6529 -0.9752
    7SAPS   H6Y  894   4.115   3.606   7.082 -0.2607 -0.6082  1.6709
    7SAPS   C37  895   4.195   3.785   6.998 -0.1517  0.0359 -0.2607
    7SAPS   H7X  896   4.258   3.729   6.925  1.0202  0.7559  0.1538
    7SAPS   H7Y  897   4.251   3.879   7.020 -1.6936  0.7593  0.7553
    7SAPS   C38  898   4.055   3.813   6.930 -0.3543  1.2066 -0.4908
    7SAPS   H8X  899   3.982   3.847   7.006 -0.9905 -1.8002  0.3448
    7SAPS   H8Y  900   4.011   3.718   6.892  0.7798  0.2079  0.6187
    7SAPS   C39  901   4.053   3.917   6.827  0.5574  0.0080 -1.1612
    7SAPS   H9X  902   4.137   3.915   6.754  1.2105 -1.9041 -0.4281
    7SAPS   H9Y  903   4.047   4.015   6.879 -2.7827 -1.2182  1.1216
    7SAPS  C310  904   3.925   3.918   6.747 -0.1028  0.2114  0.3809
    7SAPS  H10X  905   3.850   3.942   6.825  0.0110  1.7857  0.0465
    7SAPS  H10Y  906   3.899   3.819   6.704 -0.1355  1.2112 -2.0700
    7SAPS  C311  907   3.920   4.022   6.640 -0.3092 -0.4664  0.5517
    7SAPS  H11X  908   3.963   4.115   6.683 -2.3109  1.0274 -0.5077
    7SAPS  H11Y  909   3.816   4.045   6.607 -0.1153 -1.4011 -0.7862
    7SAPS  C312  910   4.015   3.989   6.524 -0.3439  0.2195  0.6640
    7SAPS  H12X  911   3.975   3.904   6.464 -0.0515  0.6270 -0.1213
    7SAPS  H12Y  912   4.114   3.954   6.558 -0.3157 -1.6209 -1.0980
    7SAPS  C313  913   4.019   4.108   6.430  0.4534  0.2124  0.5463
    7SAPS  H13X  914   4.064   4.196   6.481  0.4541  0.1529  0.6487
    7SAPS  H13Y  915   3.913   4.131   6.404  0.3873 -2.0486 -1.6156
    7SAPS  C314  916   4.107   4.097   6.309  0.4393 -0.3577  0.3415
    7SAPS  H14X  917   4.078   4.007   6.250 -1.6588  0.9182 -0.6975
    7SAPS  H14Y  918   4.211   4.079   6.344  0.3894  0.6859  1.0644
    7SAPS  C315  919   4.091   4.220   6.221  0.2273  0.0403 -0.0206
    7SAPS  H15X  920   4.109   4.317   6.273  0.2163  0.3917 -0.6498
    7SAPS  H15Y  921   3.985   4.235   6.191 -0.3724  0.7606  2.2344
    7SAPS  C316  922   4.193   4.236   6.100  0.1863  0.8141 -0.2921
    7SAPS  H16X  923   4.157   4.157   6.030 -0.7566 -1.0678  2.1498
    7SAPS  H16Y  924   4.291   4.202   6.139 -0.0367  0.9183  0.3638
    7SAPS  C317  925   4.201   4.361   6.018  0.6423  0.0118 -0.2493
    7SAPS  H17X  926   4.124   4.368   5.938 -0.5821  0.3484  0.9089
    7SAPS  H17Y  927   4.296   4.349   5.962  0.5809 -0.7517 -0.1979
    7SAPS  C318  928   4.210   4.488   6.102  0.1702 -0.5835 -0.6239
    7SAPS  H18X  929   4.294   4.475   6.173  0.5704  0.1204 -0.9632
    7SAPS  H18Y  930   4.114   4.496   6.158  0.8543 -1.0026  0.6371
    7SAPS  H18Z  931   4.231   4.575   6.036 -0.3976 -1.1962 -1.6482
    8SAPS     N  932   2.195   2.872   7.645  0.2181 -0.1107 -0.1735
    8SAPS   HN1  933   2.186   2.970   7.677  0.2568  0.1221 -0.8707
    8SAPS   HN2  934   2.107   2.833   7.685  0.0065  1.5410  1.0821
    8SAPS   HN3  935   2.275   2.823   7.690  0.0505 -1.5648 -1.3660
    8SAPS   C12  936   2.183   2.838   7.499 -0.0920 -0.2881 -0.1038
    8SAPS  H12A  937   2.076   2.830   7.491 -0.2441 -0.9589  2.0377
    8SAPS   C13  938   2.243   2.942   7.398 -0.4208  0.1604 -0.5848
    8SAPS  O13A  939   2.243   2.909   7.277  0.6164  0.7363  0.5881
    8SAPS  O13B  940   2.305   3.039   7.444  0.1752 -0.5826 -1.0306
    8SAPS   C11  941   2.235   2.693   7.476 -0.2565 -0.2445  0.6435
    8SAPS  H11A  942   2.342   2.685   7.506  0.1601  2.2442  0.0792
    8SAPS  H11B  943   2.229   2.674   7.367 -0.0653 -0.7878  0.7239
    8SAPS     P  944   2.168   2.446   7.495 -0.6456  0.1151 -0.3805
    8SAPS   O13  945   2.307   2.414   7.455 -0.2816  0.2234 -0.4697
    8SAPS   O14  946   2.104   2.360   7.598 -0.3708  0.5893  0.3594
    8SAPS   O12  947   2.158   2.597   7.549 -0.0051 -0.2811 -0.3535
    8SAPS   O11  948   2.077   2.466   7.358 -0.2153  0.1130 -0.3484
    8SAPS    C1  949   2.037   2.351   7.292 -0.0613  0.4179  0.1651
    8SAPS    HA  950   2.011   2.271   7.364 -1.4864  0.9448  0.2715
    8SAPS    HB  951   1.947   2.371   7.229  0.4012  1.7573 -0.1053
    8SAPS    C2  952   2.143   2.293   7.200  1.0649 -0.0607  0.3418
    8SAPS    HS  953   2.217   2.239   7.263  2.9915  2.1242  0.0908
    8SAPS   O21  954   2.197   2.414   7.143  0.1392  0.7173  0.0093
    8SAPS   C21  955   2.324   2.403   7.107  0.2706  0.3063  0.0362
    8SAPS   O22  956   2.397   2.304   7.130  0.5502  0.3527 -0.3081
    8SAPS   C22  957   2.374   2.534   7.045 -0.0582 -0.1109  0.4970
    8SAPS   H2R  958   2.409   2.606   7.122 -0.9658  1.4679 -0.5129
    8SAPS   H2S  959   2.469   2.506   6.994 -0.4669 -0.5668 -0.0186
    8SAPS    C3  960   2.073   2.207   7.088 -0.5516 -1.1231  0.4508
    8SAPS    HX  961   2.010   2.271   7.023 -1.6191 -2.3008  0.2938
    8SAPS    HY  962   1.988   2.147   7.128 -1.7563 -1.2619 -2.1115
    8SAPS   O31  963   2.164   2.136   6.999 -0.0323  0.6890 -0.4560
    8SAPS   C31  964   2.219   2.030   7.052  0.0165  0.1948 -0.0131
    8SAPS   O32  965   2.206   1.990   7.165  0.6944 -0.2639  0.2248
    8SAPS   C32  966   2.315   1.955   6.946 -0.0734  0.0947 -0.3701
    8SAPS   H2X  967   2.340   1.862   7.001 -0.1225  1.4805  2.1128
    8SAPS   H2Y  968   2.401   2.024   6.930 -0.0892 -0.2057 -1.9616
    8SAPS   C23  969   2.267   2.600   6.957  0.1890  0.4906  0.7005
    8SAPS   H3R  970   2.189   2.660   7.009  1.3398  2.3143  0.4396
    8SAPS   H3S  971   2.219   2.517   6.902  0.4095  0.1215  1.0588
    8SAPS   C24  972   2.320   2.695   6.849  0.2385 -0.0932  0.4270
    8SAPS   H4R  973   2.227   2.739   6.808 -0.0806 -0.7613  0.4242
    8SAPS   H4S  974   2.386   2.647   6.774  1.5632  2.7714 -0.3819
    8SAPS   C25  975   2.383   2.814   6.908 -1.2229  0.2029  0.4787
    8SAPS   H5R  976   2.348   2.842   7.009  0.5696 -1.0643  1.4996
    8SAPS   C26  977   2.491   2.881   6.854  0.1538  0.6230 -0.0502
    8SAPS   H6R  978   2.515   2.975   6.906 -1.2932  1.4848 -0.8545
    8SAPS   C27  979   2.560   2.838   6.726 -0.1427  0.4084  0.4704
    8SAPS   H7R  980   2.498   2.782   6.652  0.4445  2.2115 -1.4946
    8SAPS   H7S  981   2.645   2.769   6.744 -2.2679 -2.0852  1.6869
    8SAPS   C28  982   2.607   2.956   6.646 -0.1137  0.3484 -0.1106
    8SAPS   H8R  983   2.648   3.038   6.706  1.7478  0.4261 -1.4185
    8SAPS   C29  984   2.593   2.981   6.517  0.4015 -0.2990  0.4679
    8SAPS   H9R  985   2.625   3.081   6.486  0.9245 -0.2702  1.0905
    8SAPS  C210  986   2.519   2.890   6.415  0.5060  0.4329 -1.1165
    8SAPS  H10R  987   2.414   2.924   6.410  0.1851 -0.4272 -0.4783
    8SAPS  H10S  988   2.511   2.785   6.452  1.3029  0.4710 -0.8109
    8SAPS  C211  989   2.586   2.896   6.279  0.2994 -0.3091  0.2736
    8SAPS  H11R  990   2.689   2.857   6.283  0.3159 -0.1964  1.0040
    8SAPS  C212  991   2.530   2.920   6.160  0.8967 -0.0056  0.4156
    8SAPS  H12R  992   2.595   2.905   6.073  1.2488 -0.3860  0.7396
    8SAPS  C213  993   2.387   2.954   6.128 -0.4825  0.1003 -0.3790
    8SAPS  H13R  994   2.307   2.911   6.192 -1.0995 -1.0142 -1.8420
    8SAPS  H13S  995   2.357   2.919   6.027 -0.9703  2.6896 -1.2226
    8SAPS  C214  996   2.380   3.104   6.105  0.2261 -0.0469 -0.7115
    8SAPS  H14R  997   2.460   3.145   6.041 -0.5379  1.3529 -0.8086
    8SAPS  C215  998   2.282   3.187   6.154  1.0143  0.4655  0.8579
    8SAPS  H15R  999   2.278   3.292   6.120 -2.2885  0.1307 -0.1901
    8SAPS  C216 1000   2.174   3.143   6.249  0.1398  0.3016  0.0327
    8SAPS  H16R 1001   2.181   3.197   6.346 -0.0952 -0.7701  0.6669
    8SAPS  H16S 1002   2.197   3.040   6.283 -0.3103 -0.2052 -1.1561
    8SAPS  C217 1003   2.027   3.162   6.210  0.3632  0.0619  0.3555
    8SAPS  H17R 1004   2.001   3.265   6.178  0.8640  0.6133  1.6620
    8SAPS  H17S 1005   1.960   3.145   6.297 -0.9962  0.9633 -0.4771
    8SAPS  C218 1006   1.992   3.055   6.100 -0.1799 -0.2662 -0.5843
    8SAPS  H18R 1007   2.019   2.955   6.140  2.6258  0.4905 -0.3818
    8SAPS  H18S 1008   2.052   3.066   6.007  1.6474 -0.1692  0.5656
    8SAPS  C219 1009   1.840   3.040   6.077 -0.3606 -0.1361  0.0298
    8SAPS  H19R 1010   1.789   3.034   6.175  1.4546 -1.1180  0.9459
    8SAPS  H19S 1011   1.817   2.950   6.016  1.0050 -0.1012 -0.5658
    8SAPS  C220 1012   1.760   3.149   6.014  0.2472 -0.5322 -0.1816
    8SAPS  H20R 1013   1.794   3.248   6.053 -2.7562  0.9627 -1.0478
    8SAPS  H20S 1014   1.655   3.152   6.051  0.0617  3.3115 -0.6422
    8SAPS  H20T 1015   1.785   3.138   5.907  4.1391  1.8394  0.2876
    8SAPS   C33 1016   2.236   1.927   6.817 -0.2022 -0.2845  0.9136
    8SAPS   H3X 1017   2.213   2.018   6.758  0.7653 -2.2026 -2.7325
    8SAPS   H3Y 1018   2.144   1.876   6.852 -0.1756 -0.0040  1.4089
    8SAPS   C34 1019   2.298   1.828   6.719  0.0467 -0.0135 -0.5557
    8SAPS   H4X 1020   2.319   1.736   6.778 -2.2945 -1.1661 -1.3427
    8SAPS   H4Y 1021   2.387   1.862   6.663 -0.2859  0.8350 -0.5781
    8SAPS   C35 1022   2.202   1.798   6.607 -0.1571 -0.1760 -0.4194
    8SAPS   H5X 1023   2.104   1.754   6.637 -1.0025  1.9316  0.0760
    8SAPS   H5Y 1024   2.237   1.711   6.547  0.1133 -1.4299  1.4691
    8SAPS   C36 1025   2.179   1.913   6.513  0.4085 -0.3115 -0.5269
    8SAPS   H6X 1026   2.270   1.974   6.499 -0.4558  2.0149  2.7368
    8SAPS   H6Y 1027   2.108   1.983   6.562  0.7954 -0.0278 -0.3618
    8SAPS   C37 1028   2.112   1.883   6.383 -0.7857  0.5119  0.6231
    8SAPS   H7X 1029   2.183   1.808   6.345 -2.9688 -0.8969 -0.8912
    8SAPS   H7Y 1030   2.108   1.977   6.324  1.6409  1.6335  2.1136
    8SAPS   C38 1031   1.976   1.815   6.393 -0.0662  0.0339 -0.1252
    8SAPS   H8X 1032   1.894   1.875   6.437  2.0126  0.6741  3.2326
    8SAPS   H8Y 1033   1.996   1.726   6.456 -2.8378  0.4689  1.5267
    8SAPS   C39 1034   1.933   1.745   6.264 -0.5643  0.7496  0.0340
    8SAPS   H9X 1035   1.833   1.698   6.269  0.3123 -1.0637  1.3914
    8SAPS   H9Y 1036   2.010   1.669   6.239 -0.1209  1.6751 -1.5540
    8SAPS  C310 1037   1.930   1.842   6.141 -0.1889 -0.7678 -0.8897
    8SAPS  H10X 1038   2.033   1.884   6.135  0.4882 -2.3148 -0.4825
    8SAPS  H10Y 1039   1.869   1.930   6.170  1.9316 -0.2103  2.3731
    8SAPS  C311 1040   1.888   1.773   6.012  0.7842  1.2588 -0.3181
    8SAPS  H11X 1041   1.797   1.711   6.027  0.3654  1.4913 -1.7118
    8SAPS  H11Y 1042   1.964   1.693   6.003 -0.7422 -0.1147 -1.4291
    8SAPS  C312 1043   1.867   1.871   5.886  0.0947  0.4515  0.2438
    8SAPS  H12X 1044   1.788   1.945   5.912  1.5697  1.6052  1.6606
    8SAPS  H12Y 1045   1.838   1.806   5.801  0.7049 -3.0640  2.4890
    8SAPS  C313 1046   1.986   1.955   5.850 -0.2299 -0.1071 -0.3581
    8SAPS  H13X 1047   2.023   2.013   5.938  1.2769  1.0635 -1.7172
    8SAPS  H13Y 1048   1.960   2.040   5.784 -1.0451  1.3840  1.7559
    8SAPS  C314 1049   2.106   1.878   5.788  0.2634 -0.2074  0.6972
    8SAPS  H14X 1050   2.119   1.777   5.834  2.4181  0.7802  2.4350
    8SAPS  H14Y 1051   2.194   1.943   5.808 -0.2152  0.9230 -0.6670
    8SAPS  C315 1052   2.082   1.860   5.630  0.0056  0.0913  0.1626
    8SAPS  H15X 1053   2.078   1.964   5.591  2.8771 -0.5499 -2.2374
    8SAPS  H15Y 1054   1.989   1.802   5.614  2.2956 -3.4542 -1.9152
    8SAPS  C316 1055   2.204   1.798   5.557 -0.7209 -0.0089  0.2363
    8SAPS  H16X 1056   2.231   1.706   5.614 -0.1095  0.3284  0.5010
    8SAPS  H16Y 1057   2.295   1.863   5.554  0.7704 -2.0190 -0.3325
    8SAPS  C317 1058   2.164   1.755   5.419 -0.1082  0.3043  0.1101
    8SAPS  H17X 1059   2.139   1.844   5.358 -1.4697 -1.2839 -1.8227
    8SAPS  H17Y 1060   2.084   1.677   5.423  1.1031 -0.9704  0.2269
    8SAPS  C318 1061   2.286   1.702   5.340 -0.2098 -0.2221 -0.0173
    8SAPS  H18X 1062   2.257   1.642   5.251 -3.0259  1.0430 -0.0489
    8SAPS  H18Y 1063   2.346   1.635   5.405  1.4772  1.5549  0.3436
    8SAPS  H18Z 1064   2.361   1.776   5.305  0.4169 -0.8088  0.0680
    9SAPS     N 1065   6.288   2.359   7.618 -0.3888 -0.0966 -0.1501
    9SAPS   HN1 1066   6.340   2.293   7.557 -0.8259 -1.7571  1.2161
    9SAPS   HN2 1067   6.323   2.331   7.712 -0.7862  2.8475  0.9983
    9SAPS   HN3 1068   6.185   2.342   7.625 -0.5429  0.6714 -0.3902
    9SAPS   C12 1069   6.317   2.502   7.607  0.3052  0.1230  0.2114
    9SAPS  H12A 1070   6.256   2.548   7.683  0.3821  0.5086  0.0443
    9SAPS   C13 1071   6.464   2.545   7.636  0.3683 -1.0198 -0.7173
    9SAPS  O13A 1072   6.551   2.453   7.646 -0.4850  0.2932  0.0786
    9SAPS  O13B 1073   6.476   2.655   7.701 -0.8346  0.6036  0.2563
    9SAPS   C11 1074   6.275   2.546   7.459 -0.4386 -0.7425  1.0583
    9SAPS  H11A 1075   6.167   2.524   7.447 -0.6066  0.4300  0.2005
    9SAPS  H11B 1076   6.337   2.481   7.394 -0.4326  1.4309 -1.2448
    9SAPS     P 1077   6.204   2.798   7.454  0.0494  0.1219 -0.2258
    9SAPS   O13 1078   6.100   2.754   7.544 -0.2679 -0.1230  0.5116
    9SAPS   O14 1079   6.282   2.921   7.481 -0.6675  0.0876  0.0624
    9SAPS   O12 1080   6.311   2.686   7.438  0.3676 -0.3465  0.6967
    9SAPS   O11 1081   6.151   2.800   7.306  0.5633 -0.3877  0.4986
    9SAPS    C1 1082   6.224   2.878   7.208  0.0760 -0.4119  0.3423
    9SAPS    HA 1083   6.333   2.857   7.214  0.4369  1.5656  2.1634
    9SAPS    HB 1084   6.193   2.844   7.107  1.3031 -0.8584  0.0947
    9SAPS    C2 1085   6.209   3.030   7.219  0.1112  0.8205 -0.3433
    9SAPS    HS 1086   6.283   3.044   7.301  1.9537 -0.5624 -1.6929
    9SAPS   O21 1087   6.072   3.064   7.248  0.0308 -0.0314  0.4326
    9SAPS   C21 1088   6.057   3.176   7.314  1.3655  0.1716  0.8496
    9SAPS   O22 1089   6.142   3.250   7.351 -0.1324 -0.1697  0.6219
    9SAPS   C22 1090   5.909   3.204   7.326  0.6622  0.3607 -0.4643
    9SAPS   H2R 1091   5.855   3.167   7.236 -0.5020 -1.3800  0.8748
    9SAPS   H2S 1092   5.873   3.139   7.408  1.4489 -0.7427 -0.9558
    9SAPS    C3 1093   6.260   3.115   7.100  0.6447  0.2847 -1.0186
    9SAPS    HX 1094   6.364   3.086   7.073  0.2326 -2.1480 -0.2794
    9SAPS    HY 1095   6.263   3.218   7.140  0.9809 -0.2870  0.4745
    9SAPS   O31 1096   6.164   3.108   6.995  0.0843 -0.2186  0.1034
    9SAPS   C31 1097   6.205   3.046   6.887  0.0298  0.1831 -0.4366
    9SAPS   O32 1098   6.316   2.992   6.878 -0.5635 -0.1132 -0.7090
    9SAPS   C32 1099   6.091   3.046   6.783  0.1226 -0.7427 -0.0098
    9SAPS   H2X 1100   6.068   3.153   6.765 -0.6110 -0.6406  1.3613
    9SAPS   H2Y 1101   6.010   2.985   6.829 -0.4463 -2.0267 -2.5244
    9SAPS   C23 1102   5.873   3.351   7.350 -0.6423  0.4294  0.2881
    9SAPS   H3R 1103   5.936   3.393   7.432  1.5120  2.6807 -2.3369
    9SAPS   H3S 1104   5.769   3.364   7.386 -0.6050  1.3813  0.0792
    9SAPS   C24 1105   5.896   3.449   7.232 -0.6034  0.4632  0.0937
    9SAPS   H4R 1106   5.996   3.421   7.194 -0.2708  0.7022  0.7745
    9SAPS   H4S 1107   5.901   3.556   7.262  1.1246  0.8144 -1.3200
    9SAPS   C25 1108   5.789   3.435   7.130  0.5513  0.0491 -0.4871
    9SAPS   H5R 1109   5.694   3.482   7.160  0.4603 -0.1816 -0.4067
    9SAPS   C26 1110   5.801   3.404   7.002  1.2768  0.9331  0.4440
    9SAPS   H6R 1111   5.724   3.415   6.924  3.4593 -0.1915 -2.0224
    9SAPS   C27 1112   5.926   3.370   6.923  0.0753  0.0185  0.0748
    9SAPS   H7R 1113   5.903   3.300   6.840 -0.8316 -4.0106  3.4086
    9SAPS   H7S 1114   5.981   3.306   6.996  1.0037 -0.3546 -0.9153
    9SAPS   C28 1115   6.010   3.496   6.897  1.3229 -0.0356  0.0429
    9SAPS   H8R 1116   6.040   3.553   6.987 -0.0387  1.3010 -0.3016
    9SAPS   C29 1117   6.053   3.538   6.777  0.2556  0.7053 -0.3892
    9SAPS   H9R 1118   6.106   3.634   6.770  3.2986 -0.7558  0.6561
    9SAPS  C210 1119   6.035   3.468   6.646 -0.2971 -0.3195  0.5827
    9SAPS  H10R 1120   5.943   3.406   6.656 -0.6397  0.3730  1.9187
    9SAPS  H10S 1121   6.127   3.407   6.632  1.4450  1.8943  1.7676
    9SAPS  C211 1122   6.044   3.563   6.521 -0.3861  0.3898  0.0543
    9SAPS  H11R 1123   6.122   3.641   6.522 -0.1759  0.2021 -0.8535
    9SAPS  C212 1124   6.005   3.534   6.394 -0.2452  0.5172  0.1758
    9SAPS  H12R 1125   6.023   3.618   6.326 -0.3244  0.7831  0.4780
    9SAPS  C213 1126   5.917   3.418   6.348 -0.5411  0.2901 -0.5510
    9SAPS  H13R 1127   5.930   3.335   6.421 -0.3731  1.9311  1.3686
    9SAPS  H13S 1128   5.965   3.383   6.254  0.8465 -0.8455  0.5454
    9SAPS  C214 1129   5.769   3.459   6.341 -0.0928  0.4295  0.0989
    9SAPS  H14R 1130   5.724   3.518   6.422 -0.8168  1.2520 -0.8791
    9SAPS  C215 1131   5.689   3.432   6.237 -0.3429  0.3870  1.2683
    9SAPS  H15R 1132   5.584   3.462   6.249 -0.4990 -0.2039  1.4014
    9SAPS  C216 1133   5.725   3.364   6.105 -0.6870 -0.5588  0.6102
    9SAPS  H16R 1134   5.665   3.271   6.094  0.4137 -1.2468  0.1772
    9SAPS  H16S 1135   5.831   3.332   6.118 -0.0656  1.3712  0.5898
    9SAPS  C217 1136   5.716   3.463   5.986 -0.1875  0.4654  0.7108
    9SAPS  H17R 1137   5.804   3.527   6.007  0.5779  0.0048 -0.9357
    9SAPS  H17S 1138   5.621   3.520   5.993 -0.7487 -0.0404 -1.7806
    9SAPS  C218 1139   5.733   3.401   5.849 -0.3082  0.3837 -0.0615
    9SAPS  H18R 1140   5.655   3.326   5.823 -0.4000  0.0141  1.2252
    9SAPS  H18S 1141   5.829   3.346   5.845  0.1081  0.3638  4.5259
    9SAPS  C219 1142   5.731   3.515   5.740 -0.0900 -0.1803  0.3187
    9SAPS  H19R 1143   5.819   3.581   5.760 -0.7553  1.7585 -2.4844
    9SAPS  H19S 1144   5.639   3.574   5.759 -1.6996 -2.4792  0.1205
    9SAPS  C220 1145   5.749   3.466   5.593 -0.7134  0.2839 -0.3063
    9SAPS  H20R 1146   5.805   3.371   5.590 -1.4557 -0.1302 -2.3587
    9SAPS  H20S 1147   5.801   3.541   5.530  2.0178 -1.7812 -0.6691
    9SAPS  H20T 1148   5.650   3.435   5.552 -0.8348  0.8706 -0.4699
    9SAPS   C33 1149   6.108   2.977   6.648 -0.1354 -0.4077  0.6709
    9SAPS   H3X 1150   6.013   2.982   6.590  0.8216 -0.6570 -0.9837
    9SAPS   H3Y 1151   6.128   2.869   6.663  1.6232 -0.2387 -0.1504
    9SAPS   C34 1152   6.228   3.031   6.568  0.0372 -0.8908 -0.4499
    9SAPS   H4X 1153   6.324   3.010   6.619  1.8160  1.9988 -2.3093
    9SAPS   H4Y 1154   6.213   3.141   6.574 -0.9598 -0.8542 -2.4718
    9SAPS   C35 1155   6.217   2.979   6.425 -0.5156  0.1003 -0.3514
    9SAPS   H5X 1156   6.184   2.873   6.416  0.5751 -0.4964  1.9588
    9SAPS   H5Y 1157   6.321   2.985   6.386 -1.0300 -0.2595 -1.8437
    9SAPS   C36 1158   6.133   3.065   6.338 -0.7039  0.1284  0.4583
    9SAPS   H6X 1159   6.136   3.173   6.366 -0.7117  0.1240  0.4763
    9SAPS   H6Y 1160   6.024   3.050   6.353 -0.9929 -0.5293 -1.8852
    9SAPS   C37 1161   6.178   3.057   6.186 -0.6281 -0.5662 -0.3306
    9SAPS   H7X 1162   6.182   2.952   6.152  3.9158 -0.6164 -0.1807
    9SAPS   H7Y 1163   6.285   3.084   6.182 -1.0179  1.8003  1.9462
    9SAPS   C38 1164   6.102   3.162   6.099  0.3545 -0.2024 -0.5211
    9SAPS   H8X 1165   6.113   3.267   6.133  2.3235 -0.2733 -0.7994
    9SAPS   H8Y 1166   5.993   3.145   6.088  0.3782 -1.0086  0.3733
    9SAPS   C39 1167   6.149   3.165   5.952 -0.0631  0.7716  0.0421
    9SAPS   H9X 1168   6.099   3.081   5.900  1.9947 -0.1675 -0.5343
    9SAPS   H9Y 1169   6.257   3.141   5.946 -0.1073  0.6000 -0.0692
    9SAPS  C310 1170   6.143   3.306   5.886  0.5764  0.3974  0.2603
    9SAPS  H10X 1171   6.184   3.388   5.949  0.7868  0.2304  0.3416
    9SAPS  H10Y 1172   6.036   3.325   5.861 -0.9506 -2.9333  3.4721
    9SAPS  C311 1173   6.222   3.320   5.748  0.5184 -0.2036 -0.2412
    9SAPS  H11X 1174   6.187   3.247   5.672 -0.4982  0.3322 -0.2965
    9SAPS  H11Y 1175   6.324   3.294   5.784  0.2889  1.4889  1.8181
    9SAPS  C312 1176   6.228   3.458   5.685  0.0786 -0.0817 -0.4446
    9SAPS  H12X 1177   6.303   3.472   5.604 -0.1956 -1.0572 -0.8897
    9SAPS  H12Y 1178   6.242   3.525   5.773  2.8133 -1.0722 -0.0295
    9SAPS  C313 1179   6.094   3.495   5.613  0.2516  0.3837  0.1962
    9SAPS  H13X 1180   6.014   3.501   5.689 -0.4394  3.2517 -0.6168
    9SAPS  H13Y 1181   6.062   3.413   5.545 -0.0767  0.6884 -0.0232
    9SAPS  C314 1182   6.097   3.634   5.549  0.3261 -0.0788  0.4219
    9SAPS  H14X 1183   6.165   3.703   5.603  1.3332 -2.1499  1.9665
    9SAPS  H14Y 1184   5.992   3.669   5.554 -1.3946 -4.6598  2.8728
    9SAPS  C315 1185   6.140   3.632   5.396  0.6536 -0.4352 -0.1033
    9SAPS  H15X 1186   6.067   3.567   5.343  1.7247 -1.2536 -0.6110
    9SAPS  H15Y 1187   6.245   3.599   5.381  1.3527  0.6151  2.0958
    9SAPS  C316 1188   6.128   3.770   5.340 -0.1580 -0.2290  0.1988
    9SAPS  H16X 1189   6.178   3.849   5.400 -0.5943  1.2041 -1.2581
    9SAPS  H16Y 1190   6.023   3.805   5.333  0.4660  1.3643 -2.2555
    9SAPS  C317 1191   6.195   3.776   5.204  0.4877 -0.2743  0.4744
    9SAPS  H17X 1192   6.299   3.739   5.216  0.1912 -2.0245 -1.5628
    9SAPS  H17Y 1193   6.207   3.879   5.164  4.1863 -1.1293 -1.0321
    9SAPS  C318 1194   6.122   3.701   5.094 -0.6375 -0.2400 -0.6896
    9SAPS  H18X 1195   6.016   3.734   5.086 -0.9823  0.2356  3.5640
    9SAPS  H18Y 1196   6.117   3.592   5.116 -1.3647 -0.1596 -0.4048
    9SAPS  H18Z 1197   6.170   3.715   4.995 -0.0728  0.6877 -0.2991
   10SAPS     N 1198   1.934   2.482   7.767  0.6008  0.3291 -0.3634
   10SAPS   HN1 1199   2.003   2.518   7.836  1.3772  1.8953 -1.8833
   10SAPS   HN2 1200   1.908   2.384   7.793  0.6716  0.9605  2.4758
   10SAPS   HN3 1201   1.988   2.486   7.678 -0.4009  2.0102 -0.9451
   10SAPS   C12 1202   1.813   2.566   7.754 -0.1621 -0.5971 -0.6051
   10SAPS  H12A 1203   1.763   2.545   7.847  1.4428 -0.2775  0.3607
   10SAPS   C13 1204   1.846   2.717   7.749 -0.0542 -0.2040  0.0241
   10SAPS  O13A 1205   1.960   2.753   7.771 -0.0422  0.1926  0.8350
   10SAPS  O13B 1206   1.759   2.798   7.700  0.0239 -0.8230 -0.2850
   10SAPS   C11 1207   1.760   2.526   7.615  0.0808  0.2818 -0.4813
   10SAPS  H11A 1208   1.812   2.579   7.533 -0.8250 -0.1677 -1.3665
   10SAPS  H11B 1209   1.664   2.580   7.602  0.6751  1.4380 -0.2289
   10SAPS     P 1210   1.595   2.318   7.583  0.0047  0.0640 -0.0280
   10SAPS   O13 1211   1.610   2.175   7.558 -0.1316 -0.6107  0.1206
   10SAPS   O14 1212   1.511   2.347   7.696 -0.4177 -0.4143  0.3945
   10SAPS   O12 1213   1.736   2.383   7.597 -0.1472 -0.5865 -0.2209
   10SAPS   O11 1214   1.540   2.380   7.442 -0.1022  0.4586  0.8298
   10SAPS    C1 1215   1.627   2.373   7.325  0.1093  0.4313 -0.0844
   10SAPS    HA 1216   1.716   2.438   7.337  0.1522  0.3425  0.0843
   10SAPS    HB 1217   1.669   2.270   7.314  0.8003  0.4704  1.8053
   10SAPS    C2 1218   1.544   2.411   7.200 -0.5630  0.1734 -0.2820
   10SAPS    HS 1219   1.520   2.315   7.151 -1.3547  0.0866  0.2614
   10SAPS   O21 1220   1.625   2.494   7.119  0.2657 -0.1017  0.4009
   10SAPS   C21 1221   1.731   2.443   7.062 -1.1991 -0.4177 -0.0045
   10SAPS   O22 1222   1.764   2.326   7.071 -0.2495  0.7650 -0.4962
   10SAPS   C22 1223   1.812   2.542   6.975 -0.3194 -0.1051 -0.0961
   10SAPS   H2R 1224   1.824   2.630   7.042 -0.2437 -0.2104  0.0285
   10SAPS   H2S 1225   1.909   2.493   6.953 -0.4715 -1.2389  1.6080
   10SAPS    C3 1226   1.414   2.486   7.229 -0.2940  0.0901 -0.1175
   10SAPS    HX 1227   1.442   2.564   7.302 -0.3187  1.6355 -1.7068
   10SAPS    HY 1228   1.341   2.418   7.279 -0.3395 -0.0082 -0.3149
   10SAPS   O31 1229   1.363   2.547   7.107 -0.3034 -0.1599  0.2288
   10SAPS   C31 1230   1.241   2.596   7.117  0.7394  0.1759  0.1345
   10SAPS   O32 1231   1.170   2.575   7.210 -0.1725  0.4370 -0.8742
   10SAPS   C32 1232   1.200   2.680   6.994  0.1947 -0.2361  0.2335
   10SAPS   H2X 1233   1.217   2.786   7.022 -1.3321 -0.0797  0.6477
   10SAPS   H2Y 1234   1.091   2.661   6.977  0.5188 -1.9447 -0.1371
   10SAPS   C23 1235   1.742   2.584   6.845 -0.1306 -0.2482  0.8736
   10SAPS   H3R 1236   1.797   2.668   6.798 -0.0267 -0.4190  0.6843
   10SAPS   H3S 1237   1.643   2.631   6.864  0.8305  1.1095  2.9384
   10SAPS   C24 1238   1.750   2.472   6.739  0.8418  0.0547  0.7476
   10SAPS   H4R 1239   1.729   2.381   6.799 -0.3191  0.1541  0.5184
   10SAPS   H4S 1240   1.857   2.477   6.709  1.3767  0.3336  2.5898
   10SAPS   C25 1241   1.639   2.502   6.638  0.0496  0.0143 -0.2975
   10SAPS   H5R 1242   1.537   2.472   6.666 -0.4283 -0.4415 -2.3802
   10SAPS   C26 1243   1.649   2.554   6.512 -0.9078  0.6420 -0.0687
   10SAPS   H6R 1244   1.560   2.587   6.456 -0.8667 -0.2338 -0.6664
   10SAPS   C27 1245   1.780   2.584   6.449 -0.0502 -0.4797 -0.0992
   10SAPS   H7R 1246   1.809   2.514   6.368  1.2707  1.7455 -1.6507
   10SAPS   H7S 1247   1.865   2.576   6.520 -0.1956 -1.5539 -0.0190
   10SAPS   C28 1248   1.778   2.724   6.405  0.3517  0.2966  0.6662
   10SAPS   H8R 1249   1.839   2.798   6.459  2.2851 -0.1551 -0.7770
   10SAPS   C29 1250   1.717   2.774   6.297  0.7362 -0.1955 -0.8311
   10SAPS   H9R 1251   1.716   2.884   6.305 -2.2270 -0.2564  1.3438
   10SAPS  C210 1252   1.630   2.714   6.192  0.1244 -0.1630 -0.3066
   10SAPS  H10R 1253   1.557   2.791   6.159 -0.9693 -0.9646  0.1683
   10SAPS  H10S 1254   1.573   2.630   6.238 -1.8812  1.2079 -0.1457
   10SAPS  C211 1255   1.694   2.649   6.073  0.0761 -0.4269  0.4202
   10SAPS  H11R 1256   1.800   2.628   6.091  0.1173 -1.7507 -1.0800
   10SAPS  C212 1257   1.631   2.616   5.951 -0.0362 -0.3007 -0.0587
   10SAPS  H12R 1258   1.686   2.561   5.874  1.9162  1.6874 -0.1780
   10SAPS  C213 1259   1.487   2.632   5.917  0.0849  0.2911  0.3634
   10SAPS  H13R 1260   1.436   2.680   6.003  0.2637 -1.0531  1.2508
   10SAPS  H13S 1261   1.441   2.531   5.906  0.0318  0.4810 -1.5907
   10SAPS  C214 1262   1.454   2.710   5.791 -0.2976 -0.3711 -0.6418
   10SAPS  H14R 1263   1.527   2.791   5.773  0.1757  0.0600  2.5663
   10SAPS  C215 1264   1.349   2.714   5.705 -0.3901 -0.4311  0.5853
   10SAPS  H15R 1265   1.347   2.791   5.627 -1.1436 -0.7955  0.2344
   10SAPS  C216 1266   1.222   2.630   5.719 -0.4258  0.2037  0.1316
   10SAPS  H16R 1267   1.140   2.704   5.712  0.4936  1.1346 -1.1067
   10SAPS  H16S 1268   1.224   2.578   5.818  0.1657  2.0477  1.1323
   10SAPS  C217 1269   1.187   2.528   5.609 -0.1434 -0.4228  0.0740
   10SAPS  H17R 1270   1.268   2.452   5.611 -0.5538 -1.1686 -3.6983
   10SAPS  H17S 1271   1.191   2.578   5.510  1.8141  0.7413  0.6711
   10SAPS  C218 1272   1.054   2.450   5.617 -0.7767 -0.3551 -0.2235
   10SAPS  H18R 1273   1.014   2.423   5.517  0.2477 -1.5444 -0.3438
   10SAPS  H18S 1274   0.985   2.527   5.657  1.2641  2.8445 -2.3695
   10SAPS  C219 1275   1.067   2.318   5.696  0.3221  0.2441 -0.6494
   10SAPS  H19R 1276   0.965   2.297   5.735 -0.2292  2.3734 -0.7687
   10SAPS  H19S 1277   1.128   2.335   5.788 -0.6681  0.8855 -0.0808
   10SAPS  C220 1278   1.130   2.201   5.616  0.3379 -0.8786  0.0498
   10SAPS  H20R 1279   1.134   2.106   5.673 -0.2729 -0.8866  0.0810
   10SAPS  H20S 1280   1.232   2.220   5.577  0.7485 -0.9837  1.0608
   10SAPS  H20T 1281   1.070   2.182   5.524  0.7937  0.3065 -0.5191
   10SAPS   C33 1282   1.275   2.650   6.864  0.8582  0.2842  0.2568
   10SAPS   H3X 1283   1.273   2.539   6.856 -2.7746  0.3597 -1.9306
   10SAPS   H3Y 1284   1.379   2.687   6.876  0.4354  2.0926 -1.2015
   10SAPS   C34 1285   1.220   2.706   6.732  0.2510 -0.1518 -0.0394
   10SAPS   H4X 1286   1.203   2.815   6.740 -0.7283 -0.2261 -0.8834
   10SAPS   H4Y 1287   1.123   2.653   6.719  1.2938 -2.7943  1.9154
   10SAPS   C35 1288   1.306   2.669   6.611 -0.0373 -0.1915 -0.7005
   10SAPS   H5X 1289   1.338   2.563   6.607  2.3430  0.4509 -0.0877
   10SAPS   H5Y 1290   1.396   2.732   6.598 -0.9605  1.4253  0.3415
   10SAPS   C36 1291   1.222   2.676   6.486  0.2558  0.2029  0.1739
   10SAPS   H6X 1292   1.192   2.783   6.486  1.5338  0.5992  1.7944
   10SAPS   H6Y 1293   1.137   2.604   6.491 -0.4687  0.8024 -2.1798
   10SAPS   C37 1294   1.301   2.638   6.361 -0.6784 -0.5451 -0.3368
   10SAPS   H7X 1295   1.329   2.532   6.378 -0.8787 -0.3792  1.2268
   10SAPS   H7Y 1296   1.396   2.696   6.363 -1.8953  1.5787 -1.0873
   10SAPS   C38 1297   1.219   2.675   6.241 -0.4422 -0.1525  0.1701
   10SAPS   H8X 1298   1.117   2.636   6.257 -1.1563  1.6527  0.3027
   10SAPS   H8Y 1299   1.256   2.627   6.148 -0.7407  3.8931 -2.3123
   10SAPS   C39 1300   1.207   2.819   6.210 -0.4167  0.1136 -0.0747
   10SAPS   H9X 1301   1.303   2.860   6.171  0.1774  0.2777  1.4908
   10SAPS   H9Y 1302   1.176   2.871   6.303  0.0910 -1.3773  0.9672
   10SAPS  C310 1303   1.109   2.862   6.100  0.1067  0.7351  0.6093
   10SAPS  H10X 1304   1.006   2.847   6.138  0.4228 -3.2922  0.3344
   10SAPS  H10Y 1305   1.106   2.799   6.009  0.0335 -0.5894  1.5008
   10SAPS  C311 1306   1.115   3.016   6.077 -0.0332  0.2574 -0.5842
   10SAPS  H11X 1307   1.122   3.066   6.175  0.2008  0.1050 -0.5217
   10SAPS  H11Y 1308   1.024   3.035   6.015  0.2712  0.8024 -0.8717
   10SAPS  C312 1309   1.234   3.057   5.987  0.2017 -0.6316 -0.0438
   10SAPS  H12X 1310   1.247   2.976   5.913  0.3356  1.4936 -2.5020
   10SAPS  H12Y 1311   1.324   3.057   6.053  0.4472  1.2413 -0.3218
   10SAPS  C313 1312   1.205   3.185   5.910  0.0607  0.8772 -0.0061
   10SAPS  H13X 1313   1.205   3.280   5.967 -2.7132  1.2115 -0.4482
   10SAPS  H13Y 1314   1.110   3.178   5.854 -0.1242  2.0427  0.1406
   10SAPS  C314 1315   1.313   3.222   5.803  0.0285 -0.2104  0.4107
   10SAPS  H14X 1316   1.397   3.273   5.856 -0.5189 -0.5054  1.5920
   10SAPS  H14Y 1317   1.267   3.301   5.740  0.4354 -0.5615 -0.3378
   10SAPS  C315 1318   1.367   3.116   5.718  0.4163  0.0560  0.0660
   10SAPS  H15X 1319   1.277   3.067   5.676  0.2613  0.6981 -0.3644
   10SAPS  H15Y 1320   1.420   3.047   5.787  1.5674  1.2104  0.3941
   10SAPS  C316 1321   1.460   3.167   5.612 -0.3571 -0.1373 -0.3771
   10SAPS  H16X 1322   1.407   3.219   5.529  0.2692 -0.1698 -0.8079
   10SAPS  H16Y 1323   1.511   3.089   5.551  0.8253 -1.8898  2.6604
   10SAPS  C317 1324   1.584   3.248   5.660  0.7232  0.4320  0.0716
   10SAPS  H17X 1325   1.629   3.186   5.741 -1.9454 -0.0541  1.3049
   10SAPS  H17Y 1326   1.550   3.341   5.709  0.1522  0.3804 -0.2180
   10SAPS  C318 1327   1.678   3.295   5.550  0.1233  0.3851 -0.3391
   10SAPS  H18X 1328   1.754   3.365   5.591  0.5975  1.0521 -2.2826
   10SAPS  H18Y 1329   1.617   3.339   5.468 -0.0702 -2.2609 -1.7067
   10SAPS  H18Z 1330   1.738   3.209   5.514  0.1675  0.5618 -0.6882
   11SAPS     N 1331   0.944   0.510   3.143 -0.1651 -0.0788 -0.3747
   11SAPS   HN1 1332   0.868   0.500   3.213  1.8296  2.4702  2.4399
   11SAPS   HN2 1333   1.025   0.559   3.186 -1.8405  1.7170  0.9095
   11SAPS   HN3 1334   0.904   0.571   3.069  0.8789  2.2204  0.8355
   11SAPS   C12 1335   0.986   0.374   3.110 -0.3954  0.6437 -0.2882
   11SAPS  H12A 1336   0.907   0.328   3.052 -1.5527  1.1143  0.8586
   11SAPS   C13 1337   1.108   0.357   3.022  0.4458 -0.6731 -0.4250
   11SAPS  O13A 1338   1.176   0.457   2.993 -0.4071 -0.1941  0.2296
   11SAPS  O13B 1339   1.132   0.243   2.979  0.6305  0.6365  0.2394
   11SAPS   C11 1340   1.002   0.280   3.238  0.3208 -1.1641  0.3601
   11SAPS  H11A 1341   1.097   0.315   3.285  0.5708 -0.7097 -0.4653
   11SAPS  H11B 1342   1.013   0.174   3.206 -0.0348 -1.4896  1.2781
   11SAPS     P 1343   0.769   0.190   3.318 -0.1789 -0.0267 -0.1572
   11SAPS   O13 1344   0.644   0.251   3.377  0.3575  0.3819  0.0471
   11SAPS   O14 1345   0.752   0.134   3.184 -0.4511  0.3616 -0.1910
   11SAPS   O12 1346   0.893   0.300   3.327  0.9573  0.6255  0.5662
   11SAPS   O11 1347   0.798   0.066   3.410 -0.4228 -0.3733 -0.0254
   11SAPS    C1 1348   0.918   0.043   3.486 -0.0621 -0.0734  0.0366
   11SAPS    HA 1349   0.959  -0.053   3.449 -0.3283 -0.5476  0.9532
   11SAPS    HB 1350   1.000   0.114   3.463  1.1582 -1.7215 -0.8639
   11SAPS    C2 1351   0.894   0.042   3.636  0.7068 -0.5596  0.2018
   11SAPS    HS 1352   0.824  -0.044   3.642 -1.4562  0.9652 -1.5927
   11SAPS   O21 1353   0.829   0.166   3.676 -0.3143 -0.2073 -0.4246
   11SAPS   C21 1354   0.729   0.152   3.764 -0.0613  0.2586  0.3252
   11SAPS   O22 1355   0.682   0.044   3.797 -0.1073 -0.0467 -0.3706
   11SAPS   C22 1356   0.681   0.284   3.808  0.9770 -0.3047  0.2283
   11SAPS   H2R 1357   0.721   0.371   3.753  1.1926 -1.7930 -2.1169
   11SAPS   H2S 1358   0.572   0.295   3.792  0.8617 -0.9193  0.5371
   11SAPS    C3 1359   1.020   0.008   3.714 -0.8401 -0.4299 -0.4798
   11SAPS    HX 1360   1.071   0.105   3.695 -1.6206  0.5889  2.2116
   11SAPS    HY 1361   1.059  -0.079   3.657 -2.2819 -0.1181 -2.0229
   11SAPS   O31 1362   1.004   0.002   3.857 -0.0186  0.4906  0.0720
   11SAPS   C31 1363   0.967  -0.120   3.899  0.5245 -0.1552 -0.0416
   11SAPS   O32 1364   0.941  -0.217   3.822 -0.1458 -0.3013  0.1699
   11SAPS   C32 1365   0.943  -0.117   4.055  0.1621 -0.0071 -0.4086
   11SAPS   H2X 1366   0.841  -0.086   4.087  0.9287  0.9543  1.2774
   11SAPS   H2Y 1367   1.006  -0.031   4.089 -2.7792  1.6238  1.4211
   11SAPS   C23 1368   0.701   0.313   3.958  0.2351 -0.7137 -0.2942
   11SAPS   H3R 1369   0.694   0.217   4.012  1.4209 -0.4834  0.3225
   11SAPS   H3S 1370   0.618   0.379   3.990  0.4153 -0.8393  0.4528
   11SAPS   C24 1371   0.834   0.381   4.003  0.0695  0.6191 -0.0528
   11SAPS   H4R 1372   0.811   0.416   4.106 -1.7216  0.5048 -0.3794
   11SAPS   H4S 1373   0.835   0.471   3.937  0.0371 -0.0151 -0.9320
   11SAPS   C25 1374   0.960   0.299   3.998 -0.6688 -0.5870  0.1262
   11SAPS   H5R 1375   1.013   0.305   3.902 -2.3314 -2.1823 -0.9658
   11SAPS   C26 1376   1.037   0.255   4.103  0.2345  0.1476 -0.2032
   11SAPS   H6R 1377   1.136   0.220   4.068 -0.3179  1.1444 -3.0878
   11SAPS   C27 1378   1.007   0.251   4.251 -0.5982 -0.2800  0.9002
   11SAPS   H7R 1379   1.096   0.213   4.307  0.0236  0.6429  0.5795
   11SAPS   H7S 1380   0.936   0.169   4.272 -0.3336 -0.9761 -0.7457
   11SAPS   C28 1381   0.973   0.386   4.318 -0.0923  0.8098  0.0528
   11SAPS   H8R 1382   1.045   0.466   4.296  1.7085 -0.6069  0.5098
   11SAPS   C29 1383   0.886   0.412   4.423  0.1693  0.0953 -0.0107
   11SAPS   H9R 1384   0.880   0.516   4.457 -1.8872  0.8036 -2.2466
   11SAPS  C210 1385   0.775   0.318   4.480 -0.5000  0.1481  0.6811
   11SAPS  H10R 1386   0.747   0.246   4.400  1.9060 -0.0044 -0.1021
   11SAPS  H10S 1387   0.678   0.372   4.479  0.1292  1.3209 -0.2538
   11SAPS  C211 1388   0.811   0.244   4.604  0.1297 -0.1278  0.5166
   11SAPS  H11R 1389   0.882   0.159   4.604  0.8701  0.4357 -1.4028
   11SAPS  C212 1390   0.773   0.263   4.733  0.1485 -0.4501 -0.5874
   11SAPS  H12R 1391   0.802   0.195   4.815 -1.3528  0.8828  1.1217
   11SAPS  C213 1392   0.680   0.368   4.776 -0.4289 -0.5734 -0.2666
   11SAPS  H13R 1393   0.584   0.314   4.781 -1.0612  0.3258 -1.8916
   11SAPS  H13S 1394   0.675   0.454   4.706 -0.5467  0.7925  1.3569
   11SAPS  C214 1395   0.722   0.425   4.907 -0.3720  0.7562 -0.0194
   11SAPS  H14R 1396   0.770   0.524   4.901  0.8144  0.2909  1.3390
   11SAPS  C215 1397   0.716   0.378   5.037 -0.0521  0.2740  0.1214
   11SAPS  H15R 1398   0.756   0.443   5.117  0.8948  0.4463 -0.4775
   11SAPS  C216 1399   0.650   0.252   5.100  0.5090  0.0133  1.2527
   11SAPS  H16R 1400   0.612   0.183   5.022  1.0445  1.4314 -0.3255
   11SAPS  H16S 1401   0.561   0.291   5.154  0.3129 -1.9417  2.4402
   11SAPS  C217 1402   0.731   0.169   5.196 -0.0754 -0.0914 -0.3863
   11SAPS  H17R 1403   0.663   0.091   5.239 -0.8900  0.2152 -1.0783
   11SAPS  H17S 1404   0.765   0.227   5.284  1.5758  0.1718 -1.1600
   11SAPS  C218 1405   0.841   0.097   5.123 -0.4187 -0.1198  0.3099
   11SAPS  H18R 1406   0.915   0.173   5.091  1.1919 -0.3266  3.2032
   11SAPS  H18S 1407   0.790   0.051   5.036 -0.6875 -1.1442  0.9791
   11SAPS  C219 1408   0.931  -0.002   5.207  0.4230 -0.3425 -0.3673
   11SAPS  H19R 1409   0.866  -0.080   5.254  1.8031 -0.7039  1.0475
   11SAPS  H19S 1410   0.956   0.040   5.306 -2.3598  0.0697  0.2545
   11SAPS  C220 1411   1.037  -0.074   5.130  0.7975  0.1279  0.1889
   11SAPS  H20R 1412   1.013  -0.084   5.022 -0.8052 -0.6125  0.5898
   11SAPS  H20S 1413   1.068  -0.173   5.169 -0.9761  0.1730  1.8749
   11SAPS  H20T 1414   1.123  -0.004   5.126 -0.0347  1.1444 -0.6745
   11SAPS   C33 1415   0.987  -0.238   4.151  0.3257  0.5012  0.4244
   11SAPS   H3X 1416   1.017  -0.188   4.246  1.5242 -1.8590  1.3738
   11SAPS   H3Y 1417   1.075  -0.293   4.112  0.2274 -0.1294  1.0600
   11SAPS   C34 1418   0.868  -0.336   4.170  0.0842 -0.4862  0.5673
   11SAPS   H4X 1419   0.901  -0.439   4.196  2.7187  0.3685  0.8730
   11SAPS   H4Y 1420   0.811  -0.341   4.075  0.3820 -1.4103  0.4361
   11SAPS   C35 1421   0.772  -0.291   4.280  0.2048  0.0357 -0.1621
   11SAPS   H5X 1422   0.715  -0.197   4.265 -1.1880 -0.7262  0.1899
   11SAPS   H5Y 1423   0.831  -0.279   4.373 -1.7128  1.4305  0.9675
   11SAPS   C36 1424   0.678  -0.408   4.322  0.0289  0.3400  0.8977
   11SAPS   H6X 1425   0.735  -0.502   4.338  0.4931 -0.2406 -3.1015
   11SAPS   H6Y 1426   0.621  -0.437   4.231  0.2469 -0.6498  1.0709
   11SAPS   C37 1427   0.590  -0.382   4.441  0.3270  0.1182  0.2183
   11SAPS   H7X 1428   0.530  -0.289   4.433 -0.2844 -0.2326  0.6496
   11SAPS   H7Y 1429   0.653  -0.359   4.530  0.2731  0.6854  0.1178
   11SAPS   C38 1430   0.500  -0.506   4.474 -0.2780 -0.1128 -0.2492
   11SAPS   H8X 1431   0.568  -0.591   4.496  0.4899  0.5300 -0.0512
   11SAPS   H8Y 1432   0.444  -0.539   4.384 -0.1764 -0.3461 -0.2283
   11SAPS   C39 1433   0.402  -0.482   4.595 -0.7385  0.1826  0.3220
   11SAPS   H9X 1434   0.325  -0.561   4.589  1.1001 -1.8681  2.0244
   11SAPS   H9Y 1435   0.344  -0.389   4.575  1.4598  1.6130  0.2508
   11SAPS  C310 1436   0.472  -0.485   4.731  0.1823  0.4480  0.4544
   11SAPS  H10X 1437   0.551  -0.407   4.733  0.4074  0.2187  0.5038
   11SAPS  H10Y 1438   0.530  -0.577   4.755 -0.6523 -0.5459 -1.1646
   11SAPS  C311 1439   0.373  -0.470   4.840 -0.0738  0.1238 -0.3367
   11SAPS  H11X 1440   0.285  -0.534   4.818 -0.5205  0.2918  0.8938
   11SAPS  H11Y 1441   0.338  -0.365   4.849 -1.9756 -0.4405 -0.6995
   11SAPS  C312 1442   0.431  -0.509   4.981 -0.1884  0.8769 -0.7095
   11SAPS  H12X 1443   0.542  -0.512   4.980 -0.0984  0.3152  2.0866
   11SAPS  H12Y 1444   0.396  -0.614   4.993  1.0345  0.6105  0.7724
   11SAPS  C313 1445   0.376  -0.438   5.103 -0.3399 -0.5718  0.2981
   11SAPS  H13X 1446   0.265  -0.441   5.104 -0.3921  0.5558 -0.1222
   11SAPS  H13Y 1447   0.421  -0.337   5.092 -0.9397 -0.4895 -1.9492
   11SAPS  C314 1448   0.429  -0.500   5.234  0.7105 -0.5747 -0.3468
   11SAPS  H14X 1449   0.538  -0.495   5.217  0.4334  1.6600 -1.9701
   11SAPS  H14Y 1450   0.392  -0.603   5.252  0.7852 -0.9758 -2.3673
   11SAPS  C315 1451   0.379  -0.412   5.354 -0.3217 -0.5202  0.2159
   11SAPS  H15X 1452   0.268  -0.409   5.355 -0.3104  0.0050  0.1167
   11SAPS  H15Y 1453   0.425  -0.311   5.348  2.3637 -1.7541 -1.4220
   11SAPS  C316 1454   0.424  -0.465   5.492 -1.3722  0.1802  0.3657
   11SAPS  H16X 1455   0.534  -0.468   5.485 -1.4579  0.1016 -1.1630
   11SAPS  H16Y 1456   0.388  -0.570   5.496 -1.6078  0.2715  0.7907
   11SAPS  C317 1457   0.381  -0.395   5.617  0.3447  0.0812 -0.2524
   11SAPS  H17X 1458   0.275  -0.409   5.649  0.4796  1.7746  1.0755
   11SAPS  H17Y 1459   0.401  -0.287   5.598  1.2403  0.0663  0.5340
   11SAPS  C318 1460   0.450  -0.443   5.741  0.4773  0.4798 -0.0467
   11SAPS  H18X 1461   0.557  -0.432   5.713  0.0807 -0.2638 -1.9956
   11SAPS  H18Y 1462   0.432  -0.550   5.766  1.8583  0.8842  3.3223
   11SAPS  H18Z 1463   0.418  -0.389   5.832  1.4480 -0.0795  0.6512
   12SAPS     N 1464   0.443   2.987   2.718  0.5363  0.1528  0.1032
   12SAPS   HN1 1465   0.410   3.064   2.657  0.7676  0.5066  0.4176
   12SAPS   HN2 1466   0.390   2.901   2.693  0.9629 -0.3031  0.7388
   12SAPS   HN3 1467   0.418   3.019   2.814 -0.4854  1.0361 -0.4401
   12SAPS   C12 1468   0.586   2.951   2.709  0.3134 -0.3692  0.6547
   12SAPS  H12A 1469   0.595   2.872   2.782 -0.2721  1.8680  3.3422
   12SAPS   C13 1470   0.628   2.890   2.570  0.4049 -0.3405 -0.2169
   12SAPS  O13A 1471   0.552   2.908   2.469 -0.3157 -0.1254  0.2750
   12SAPS  O13B 1472   0.740   2.843   2.548  0.4906 -0.6767 -0.9577
   12SAPS   C11 1473   0.677   3.071   2.747  0.3810  0.3242  0.0257
   12SAPS  H11A 1474   0.674   3.148   2.667 -1.0301  0.0419 -0.2038
   12SAPS  H11B 1475   0.775   3.018   2.751  0.6170  0.7874  0.8549
   12SAPS     P 1476   0.739   3.220   2.945 -0.5901 -0.2611  0.3738
   12SAPS   O13 1477   0.828   3.133   3.023  0.0362  0.0184 -0.3025
   12SAPS   O14 1478   0.812   3.306   2.849 -0.2739  0.1629  0.0657
   12SAPS   O12 1479   0.639   3.130   2.870  0.1467  0.3350 -0.0491
   12SAPS   O11 1480   0.639   3.301   3.037 -0.0328  0.2117 -0.8075
   12SAPS    C1 1481   0.627   3.257   3.176  0.2719  0.0342 -0.1624
   12SAPS    HA 1482   0.527   3.209   3.182  0.2059  0.1433 -0.3832
   12SAPS    HB 1483   0.697   3.175   3.205 -0.0049 -0.5319 -1.0345
   12SAPS    C2 1484   0.649   3.369   3.276  0.5793  0.3921 -0.1895
   12SAPS    HS 1485   0.556   3.430   3.277  0.6531  0.5113  1.2454
   12SAPS   O21 1486   0.772   3.447   3.244  0.0745  0.0848 -0.1946
   12SAPS   C21 1487   0.747   3.577   3.210  0.3604  1.0942 -0.2699
   12SAPS   O22 1488   0.636   3.626   3.218  0.0067 -0.9355  0.0326
   12SAPS   C22 1489   0.879   3.634   3.154 -0.8356  0.4917  0.0804
   12SAPS   H2R 1490   0.957   3.558   3.177 -0.5473  1.1280  1.2551
   12SAPS   H2S 1491   0.874   3.644   3.044 -2.1857 -1.8028 -0.1302
   12SAPS    C3 1492   0.662   3.314   3.419 -0.3485 -0.9712 -0.5053
   12SAPS    HX 1493   0.750   3.245   3.422 -0.3508 -0.9484  0.2604
   12SAPS    HY 1494   0.577   3.251   3.452  0.9096 -1.3404  2.3470
   12SAPS   O31 1495   0.671   3.418   3.521 -0.6120  0.1573  0.0159
   12SAPS   C31 1496   0.550   3.481   3.555 -0.8010  0.7501 -1.0208
   12SAPS   O32 1497   0.443   3.459   3.506 -0.0051 -0.5877  0.3373
   12SAPS   C32 1498   0.567   3.568   3.677  0.8200 -1.1321 -0.0121
   12SAPS   H2X 1499   0.573   3.497   3.761 -2.7400 -1.9705 -0.3002
   12SAPS   H2Y 1500   0.468   3.618   3.689  1.5870  0.8596 -1.4323
   12SAPS   C23 1501   0.912   3.774   3.213  0.5939 -0.5574  0.6518
   12SAPS   H3R 1502   0.819   3.835   3.211  1.5230  0.9251  1.1761
   12SAPS   H3S 1503   0.991   3.823   3.152 -0.3608 -1.9297 -1.8510
   12SAPS   C24 1504   0.964   3.759   3.354 -0.2055 -0.0099 -0.6249
   12SAPS   H4R 1505   0.886   3.721   3.423  0.9352 -1.4679 -0.0737
   12SAPS   H4S 1506   0.986   3.862   3.390  0.4289 -0.2743 -0.2380
   12SAPS   C25 1507   1.094   3.687   3.366  0.0060  0.1986  0.5184
   12SAPS   H5R 1508   1.165   3.700   3.284 -1.1864 -0.9508 -0.7321
   12SAPS   C26 1509   1.131   3.615   3.476 -0.6397  0.0122  0.0477
   12SAPS   H6R 1510   1.229   3.566   3.469 -1.6148 -2.0677  0.1212
   12SAPS   C27 1511   1.054   3.588   3.603  0.1996  0.3563  0.0326
   12SAPS   H7R 1512   0.947   3.603   3.576  0.3353 -0.6246 -1.1286
   12SAPS   H7S 1513   1.085   3.674   3.667  1.7628 -0.0310 -0.1529
   12SAPS   C28 1514   1.068   3.447   3.661  0.2023 -1.1464  0.3062
   12SAPS   H8R 1515   1.123   3.371   3.603  0.5181 -0.6758 -0.0132
   12SAPS   C29 1516   1.017   3.408   3.777 -0.2993 -0.0231 -0.7275
   12SAPS   H9R 1517   1.029   3.304   3.809 -3.3877  0.7309  3.7441
   12SAPS  C210 1518   0.949   3.504   3.880  0.4408  0.1976 -0.0948
   12SAPS  H10R 1519   0.865   3.547   3.822 -1.1036 -0.9102  1.2297
   12SAPS  H10S 1520   1.012   3.584   3.925  0.4688  0.2197 -0.1738
   12SAPS  C211 1521   0.882   3.422   3.987 -0.0863  0.0604 -0.2342
   12SAPS  H11R 1522   0.885   3.312   3.986  0.5549  0.0725 -0.0837
   12SAPS  C212 1523   0.807   3.481   4.085  0.4102  0.2607 -0.0081
   12SAPS  H12R 1524   0.746   3.413   4.145  0.8349  0.6224  0.8524
   12SAPS  C213 1525   0.791   3.622   4.112 -0.0272  0.4918 -0.8498
   12SAPS  H13R 1526   0.848   3.685   4.041 -0.4072  4.3851  1.9936
   12SAPS  H13S 1527   0.832   3.647   4.212 -0.4669 -2.9533  0.3561
   12SAPS  C214 1528   0.643   3.664   4.118 -0.4887 -0.4721  0.9386
   12SAPS  H14R 1529   0.607   3.651   4.015 -1.8203 -0.8108  1.4303
   12SAPS  C215 1530   0.569   3.703   4.224  0.0246 -0.5810  0.0364
   12SAPS  H15R 1531   0.468   3.738   4.199  0.2938  0.4492  0.3502
   12SAPS  C216 1532   0.610   3.708   4.370  0.0428 -0.8378  1.1228
   12SAPS  H16R 1533   0.581   3.808   4.407  0.1848 -0.4962  0.3265
   12SAPS  H16S 1534   0.720   3.699   4.383  0.5101  1.8549 -0.3550
   12SAPS  C217 1535   0.536   3.599   4.451  0.3835 -0.8596 -0.4953
   12SAPS  H17R 1536   0.581   3.503   4.420  1.1496 -1.9396  3.3738
   12SAPS  H17S 1537   0.430   3.594   4.419  0.7906 -0.3877 -1.9896
   12SAPS  C218 1538   0.563   3.610   4.599 -0.0305  0.2322  0.1038
   12SAPS  H18R 1539   0.489   3.680   4.645 -1.0136 -0.8822  0.2634
   12SAPS  H18S 1540   0.670   3.636   4.610 -0.2521  2.3463 -1.8182
   12SAPS  C219 1541   0.549   3.479   4.678  0.9382  0.0004  0.2231
   12SAPS  H19R 1542   0.591   3.393   4.622 -0.7855  0.1125 -1.3391
   12SAPS  H19S 1543   0.441   3.457   4.681  0.2822  2.8465  0.7024
   12SAPS  C220 1544   0.608   3.484   4.818  0.4606  0.0579  0.3231
   12SAPS  H20R 1545   0.715   3.482   4.789  0.3177  0.4633 -0.2553
   12SAPS  H20S 1546   0.574   3.402   4.884 -2.2846  0.6200 -0.2595
   12SAPS  H20T 1547   0.592   3.585   4.861  0.0703  0.7679 -1.3845
   12SAPS   C33 1548   0.671   3.686   3.661 -0.2368 -0.4845  0.2282
   12SAPS   H3X 1549   0.723   3.666   3.565  1.2983 -0.3612  1.0020
   12SAPS   H3Y 1550   0.747   3.692   3.742 -0.4647  0.9503  0.3597
   12SAPS   C34 1551   0.608   3.823   3.652 -0.4618 -0.1652  0.1214
   12SAPS   H4X 1552   0.575   3.849   3.755  0.2111  1.2385 -0.0017
   12SAPS   H4Y 1553   0.518   3.815   3.587 -1.0789  1.1230  0.7826
   12SAPS   C35 1554   0.698   3.942   3.611 -0.0389 -1.2346 -0.0834
   12SAPS   H5X 1555   0.646   4.038   3.632  0.3659 -0.8468 -0.7950
   12SAPS   H5Y 1556   0.712   3.947   3.501 -1.4144  1.3891 -0.2255
   12SAPS   C36 1557   0.833   3.956   3.680 -0.0732 -0.0097  0.0639
   12SAPS   H6X 1558   0.889   4.046   3.648  1.1423 -1.4260 -1.9603
   12SAPS   H6Y 1559   0.896   3.868   3.659 -1.1211 -1.3388  2.0628
   12SAPS   C37 1560   0.808   3.980   3.834 -0.0763 -1.0689  0.0027
   12SAPS   H7X 1561   0.753   3.894   3.878 -1.1168 -1.6896 -2.3728
   12SAPS   H7Y 1562   0.743   4.070   3.843  0.1446 -0.9486  0.4268
   12SAPS   C38 1563   0.929   4.012   3.920  0.1318 -0.0713 -0.2973
   12SAPS   H8X 1564   0.984   4.101   3.882  1.1198 -0.0022  1.1980
   12SAPS   H8Y 1565   1.007   3.933   3.926  1.2228  1.0457  1.4418
   12SAPS   C39 1566   0.887   4.030   4.065 -0.7674  0.4422 -0.3830
   12SAPS   H9X 1567   0.814   3.952   4.094 -0.2252  0.2743  0.5898
   12SAPS   H9Y 1568   0.833   4.127   4.069  0.7895  1.3856 -1.1243
   12SAPS  C310 1569   0.994   4.047   4.163  0.0490  0.0364  0.4828
   12SAPS  H10X 1570   1.074   4.108   4.118 -0.2600 -0.7189 -1.1541
   12SAPS  H10Y 1571   1.045   3.951   4.186 -1.0532 -0.6813  0.0206
   12SAPS  C311 1572   0.947   4.112   4.301 -0.0049 -0.1712  0.4371
   12SAPS  H11X 1573   0.874   4.035   4.332 -0.2742  0.6724  2.0195
   12SAPS  H11Y 1574   0.888   4.206   4.294 -0.3300 -0.0912  3.1553
   12SAPS  C312 1575   1.058   4.123   4.407 -0.3886 -0.3435  0.7189
   12SAPS  H12X 1576   1.139   4.190   4.369 -0.9517  0.1796  0.4140
   12SAPS  H12Y 1577   1.111   4.029   4.433  0.6604  0.0696  0.1716
   12SAPS  C313 1578   1.000   4.199   4.532  0.1390  0.1150  0.4715
   12SAPS  H13X 1579   0.936   4.129   4.590  0.4043  1.5535  2.6033
   12SAPS  H13Y 1580   0.944   4.290   4.500 -0.8657  0.0971  2.0383
   12SAPS  C314 1581   1.106   4.250   4.631 -0.7095 -0.4372 -0.3892
   12SAPS  H14X 1582   1.161   4.338   4.591  1.4821 -1.9478 -0.9102
   12SAPS  H14Y 1583   1.180   4.167   4.633 -1.9824 -1.5958 -0.0111
   12SAPS  C315 1584   1.065   4.276   4.775 -0.4726 -0.0103 -0.4022
   12SAPS  H15X 1585   1.027   4.178   4.813 -0.1496  0.0018 -0.0348
   12SAPS  H15Y 1586   0.987   4.354   4.785  0.7476  1.0851  0.8970
   12SAPS  C316 1587   1.186   4.315   4.861  0.3138  0.1754 -0.2000
   12SAPS  H16X 1588   1.220   4.405   4.804 -0.6156 -0.9650 -2.7049
   12SAPS  H16Y 1589   1.269   4.243   4.847  1.2128  1.2045 -0.2506
   12SAPS  C317 1590   1.143   4.335   5.008 -0.2164 -0.1591 -0.1481
   12SAPS  H17X 1591   1.221   4.389   5.065  3.1562 -2.5325 -2.0791
   12SAPS  H17Y 1592   1.139   4.231   5.048  0.0590 -0.1223 -0.0244
   12SAPS  C318 1593   1.017   4.419   5.025 -0.0093 -0.5910  0.4427
   12SAPS  H18X 1594   0.926   4.356   5.009 -0.4372  0.0959  0.1504
   12SAPS  H18Y 1595   1.009   4.503   4.954 -1.9265 -3.5236 -3.1488
   12SAPS  H18Z 1596   1.014   4.460   5.128  0.0880 -0.6420  0.4659
   13SAPS     N 1597   4.003   5.785   3.060 -0.5717  0.4296 -0.7048
   13SAPS   HN1 1598   4.015   5.769   2.958  1.3506 -0.2774 -0.4102
   13SAPS   HN2 1599   4.028   5.696   3.108 -0.7402  0.6503 -0.1953
   13SAPS   HN3 1600   3.906   5.810   3.088 -0.3681  1.0705 -0.5568
   13SAPS   C12 1601   4.089   5.895   3.109  0.2046  0.6525 -0.2165
   13SAPS  H12A 1602   4.192   5.865   3.096  0.4215  1.1946  0.1932
   13SAPS   C13 1603   4.072   6.033   3.030 -0.4228  0.6082 -0.4905
   13SAPS  O13A 1604   4.006   6.038   2.926  0.9344 -0.6294  0.2127
   13SAPS  O13B 1605   4.116   6.141   3.079 -0.3258  0.3480 -0.0384
   13SAPS   C11 1606   4.060   5.912   3.276  0.0161  0.3107 -0.5245
   13SAPS  H11A 1607   3.957   5.953   3.278 -0.4638 -0.8226  2.5750
   13SAPS  H11B 1608   4.130   5.984   3.323  2.4682 -2.0798 -0.2243
   13SAPS     P 1609   4.192   5.739   3.427 -0.3996  0.2378  0.9038
   13SAPS   O13 1610   4.187   5.591   3.426 -0.3674  0.2689  0.1097
   13SAPS   O14 1611   4.303   5.801   3.355  0.3522 -0.1793 -0.4439
   13SAPS   O12 1612   4.060   5.792   3.355 -0.0989 -0.6412 -0.8600
   13SAPS   O11 1613   4.178   5.797   3.571 -0.5170 -0.9731  0.5225
   13SAPS    C1 1614   4.287   5.790   3.662  0.1099 -0.3587  0.0026
   13SAPS    HA 1615   4.388   5.804   3.619 -0.8996  2.4088 -1.7288
   13SAPS    HB 1616   4.275   5.875   3.733 -0.0810 -1.7644  1.7332
   13SAPS    C2 1617   4.292   5.658   3.753  0.7320 -0.8946  0.0222
   13SAPS    HS 1618   4.305   5.575   3.680 -1.8319 -1.3143 -0.0550
   13SAPS   O21 1619   4.161   5.657   3.811 -0.0449 -0.2584 -0.1117
   13SAPS   C21 1620   4.086   5.553   3.784 -0.7248  0.4240  0.4539
   13SAPS   O22 1621   4.110   5.461   3.702 -0.3822 -0.0599  0.6071
   13SAPS   C22 1622   3.970   5.555   3.877  0.2406  0.2875  0.1465
   13SAPS   H2R 1623   4.020   5.513   3.968 -0.0577  0.9623  0.6276
   13SAPS   H2S 1624   3.944   5.659   3.906 -0.3810 -0.0090  0.6829
   13SAPS    C3 1625   4.406   5.661   3.860  1.0594 -0.5042 -0.0495
   13SAPS    HX 1626   4.388   5.748   3.927  1.1890 -0.5763  0.0801
   13SAPS    HY 1627   4.492   5.682   3.792  1.9802 -0.0005  1.2219
   13SAPS   O31 1628   4.414   5.535   3.922  0.2353 -0.3646  0.3204
   13SAPS   C31 1629   4.426   5.541   4.051  0.4848 -0.4381  0.3012
   13SAPS   O32 1630   4.449   5.638   4.113  0.5520  0.2862  0.0028
   13SAPS   C32 1631   4.394   5.401   4.108 -0.2899 -0.3677 -0.6348
   13SAPS   H2X 1632   4.478   5.331   4.087 -0.7439 -1.9546  2.3100
   13SAPS   H2Y 1633   4.302   5.371   4.054 -2.1579  2.6256  0.6589
   13SAPS   C23 1634   3.842   5.476   3.831 -0.8377 -1.0066  0.0634
   13SAPS   H3R 1635   3.884   5.376   3.809  0.9299 -0.0533 -1.2313
   13SAPS   H3S 1636   3.800   5.521   3.738  2.2943  2.0416 -0.0822
   13SAPS   C24 1637   3.731   5.459   3.941 -0.8788 -0.1580 -0.6114
   13SAPS   H4R 1638   3.768   5.401   4.029  1.1528  1.3820 -0.3811
   13SAPS   H4S 1639   3.650   5.397   3.896 -0.5311 -1.8370  0.9341
   13SAPS   C25 1640   3.671   5.591   3.980  0.3549  0.6225  0.9870
   13SAPS   H5R 1641   3.628   5.640   3.891 -0.3257  1.0801  1.5505
   13SAPS   C26 1642   3.664   5.641   4.107  0.1422 -0.1670  0.4245
   13SAPS   H6R 1643   3.616   5.739   4.119  0.8060  0.5279 -1.9388
   13SAPS   C27 1644   3.743   5.584   4.224  0.6920 -0.1869  1.2266
   13SAPS   H7R 1645   3.834   5.647   4.232  2.0490 -1.7940 -0.6174
   13SAPS   H7S 1646   3.776   5.478   4.219  1.0975 -0.0389  0.7116
   13SAPS   C28 1647   3.662   5.593   4.351 -0.0889 -0.4186 -0.0434
   13SAPS   H8R 1648   3.553   5.588   4.341 -0.1815 -0.0844  0.7702
   13SAPS   C29 1649   3.709   5.596   4.476  0.3838 -0.1824 -0.7201
   13SAPS   H9R 1650   3.629   5.587   4.550 -1.3947 -0.5683 -2.5857
   13SAPS  C210 1651   3.858   5.595   4.520 -0.3261  0.6838 -0.0712
   13SAPS  H10R 1652   3.912   5.662   4.451  0.1149  1.1743  0.7297
   13SAPS  H10S 1653   3.898   5.493   4.506  1.4496  1.2351  0.7269
   13SAPS  C211 1654   3.875   5.648   4.660  0.1616 -0.8328  0.1035
   13SAPS  H11R 1655   3.907   5.753   4.671  0.5821 -0.9910  0.4343
   13SAPS  C212 1656   3.857   5.572   4.777 -0.2282  0.0351  0.4814
   13SAPS  H12R 1657   3.866   5.613   4.879 -1.4518 -0.3920  0.7782
   13SAPS  C213 1658   3.819   5.426   4.774 -0.1743  0.4697 -0.7913
   13SAPS  H13R 1659   3.906   5.360   4.797  0.9346  1.9009 -0.7610
   13SAPS  H13S 1660   3.763   5.383   4.688  1.2170 -1.5009 -0.7719
   13SAPS  C214 1661   3.732   5.399   4.888 -0.2782 -0.1107 -0.5699
   13SAPS  H14R 1662   3.626   5.424   4.871 -0.4368  1.4654  2.2299
   13SAPS  C215 1663   3.762   5.351   5.011 -0.2593  0.3728 -0.4601
   13SAPS  H15R 1664   3.680   5.328   5.080  0.3672  1.1520  0.5713
   13SAPS  C216 1665   3.902   5.304   5.063 -0.5306 -0.9842  0.1855
   13SAPS  H16R 1666   3.984   5.300   4.989 -1.7028 -2.2730 -1.0995
   13SAPS  H16S 1667   3.891   5.198   5.092  2.1060 -1.3612  0.0433
   13SAPS  C217 1668   3.950   5.392   5.181 -0.0137 -0.7360  0.1370
   13SAPS  H17R 1669   3.935   5.501   5.168 -0.8417 -0.8606  0.0335
   13SAPS  H17S 1670   4.056   5.372   5.208 -0.0453 -0.4467  0.4765
   13SAPS  C218 1671   3.863   5.362   5.299  0.2665 -0.0156  0.0917
   13SAPS  H18R 1672   3.864   5.253   5.321  2.3516  0.3128  1.9879
   13SAPS  H18S 1673   3.757   5.394   5.297  1.0166  3.0669  2.3927
   13SAPS  C219 1674   3.912   5.412   5.432 -0.1987 -0.0877 -0.1709
   13SAPS  H19R 1675   3.952   5.515   5.419 -0.2541 -0.2265 -1.5461
   13SAPS  H19S 1676   4.003   5.359   5.469 -1.4401 -2.6841 -0.6443
   13SAPS  C220 1677   3.813   5.397   5.548 -0.6795 -0.2092  0.1218
   13SAPS  H20R 1678   3.729   5.466   5.529 -0.3046  0.4679  0.8925
   13SAPS  H20S 1679   3.851   5.419   5.650  1.8693  1.2318 -1.0643
   13SAPS  H20T 1680   3.773   5.293   5.552 -0.3033 -0.4540 -1.7187
   13SAPS   C33 1681   4.375   5.406   4.260  0.0224  0.0140 -0.4691
   13SAPS   H3X 1682   4.446   5.477   4.307 -0.5028  0.2711 -0.0421
   13SAPS   H3Y 1683   4.404   5.306   4.298  0.1041  0.8456  1.7914
   13SAPS   C34 1684   4.231   5.437   4.308  0.2044 -0.2549  0.6907
   13SAPS   H4X 1685   4.161   5.371   4.253  0.5767 -0.3109  0.2759
   13SAPS   H4Y 1686   4.203   5.534   4.263 -1.8642 -1.9317 -1.9478
   13SAPS   C35 1687   4.208   5.415   4.462  0.6197  0.0852  0.2729
   13SAPS   H5X 1688   4.232   5.307   4.476 -1.4582 -0.7288 -1.7200
   13SAPS   H5Y 1689   4.097   5.421   4.475  0.6288 -2.1260  2.0127
   13SAPS   C36 1690   4.295   5.490   4.567 -0.3470  0.1707  0.7416
   13SAPS   H6X 1691   4.275   5.596   4.542  1.1385  0.3581  0.2625
   13SAPS   H6Y 1692   4.401   5.462   4.549 -0.7109 -0.0884 -1.3706
   13SAPS   C37 1693   4.256   5.462   4.709 -0.3975  0.0169  0.5201
   13SAPS   H7X 1694   4.261   5.352   4.727 -1.9222 -0.1728 -0.0891
   13SAPS   H7Y 1695   4.148   5.483   4.726 -0.7386 -0.3480 -1.0437
   13SAPS   C38 1696   4.346   5.530   4.809 -0.4733  0.1686  0.6021
   13SAPS   H8X 1697   4.331   5.640   4.802  0.1320  0.2285  0.1270
   13SAPS   H8Y 1698   4.454   5.520   4.785 -0.3966 -1.3514  1.5167
   13SAPS   C39 1699   4.320   5.488   4.953  0.1511  0.1698 -0.0382
   13SAPS   H9X 1700   4.335   5.378   4.961 -0.5435  0.0451 -0.3869
   13SAPS   H9Y 1701   4.213   5.506   4.974  0.4715  1.3747  0.6442
   13SAPS  C310 1702   4.399   5.556   5.063 -0.4774  0.0415 -0.3730
   13SAPS  H10X 1703   4.390   5.667   5.067  0.5343  0.1014  0.8748
   13SAPS  H10Y 1704   4.508   5.541   5.046 -0.4908 -1.7279  0.7758
   13SAPS  C311 1705   4.358   5.502   5.201  0.2280  0.0692  0.1425
   13SAPS  H11X 1706   4.437   5.430   5.232  1.9142  1.2228 -1.2758
   13SAPS  H11Y 1707   4.269   5.438   5.188 -1.2100  2.0971 -0.5574
   13SAPS  C312 1708   4.335   5.614   5.306 -0.2959 -0.1440  0.4931
   13SAPS  H12X 1709   4.232   5.654   5.293 -0.8820 -0.6578  3.0208
   13SAPS  H12Y 1710   4.420   5.686   5.296  0.2942 -0.7633  0.9825
   13SAPS  C313 1711   4.350   5.564   5.452  0.0732  0.9481 -0.2922
   13SAPS  H13X 1712   4.456   5.545   5.479  0.6734  1.5651 -2.1028
   13SAPS  H13Y 1713   4.295   5.470   5.475  1.6117  0.6125  2.4679
   13SAPS  C314 1714   4.307   5.656   5.568  0.1965 -1.1103  0.0522
   13SAPS  H14X 1715   4.209   5.702   5.544  1.9074  4.3429  2.0095
   13SAPS  H14Y 1716   4.376   5.743   5.568 -0.9247 -0.1894  0.1930
   13SAPS  C315 1717   4.306   5.609   5.708  0.8154  0.4980  0.0092
   13SAPS  H15X 1718   4.405   5.568   5.734 -0.4179 -2.6325  0.2126
   13SAPS  H15Y 1719   4.242   5.518   5.716  1.1642  0.3041  0.5879
   13SAPS  C316 1720   4.259   5.719   5.807  0.5094  0.5272 -0.5465
   13SAPS  H16X 1721   4.312   5.817   5.795 -2.0652  2.1527  0.4511
   13SAPS  H16Y 1722   4.277   5.682   5.910 -2.4168  0.2196 -0.0615
   13SAPS  C317 1723   4.105   5.722   5.816 -0.4811  0.1253 -0.1441
   13SAPS  H17X 1724   4.070   5.617   5.823  0.4605 -0.6156 -3.9614
   13SAPS  H17Y 1725   4.064   5.762   5.721 -1.5766  2.4888  1.2442
   13SAPS  C318 1726   4.049   5.809   5.925  0.8551 -0.6605  0.0755
   13SAPS  H18X 1727   3.940   5.824   5.911  1.0976  2.1265  0.6034
   13SAPS  H18Y 1728   4.101   5.907   5.929 -0.9817  0.4677 -1.8123
   13SAPS  H18Z 1729   4.061   5.755   6.021 -1.0914  0.8336  1.2090
   14SAPS     N 1730   1.661   5.522   2.873 -0.0357 -0.5315 -0.0058
   14SAPS   HN1 1731   1.579   5.585   2.866  1.3683  1.6249  1.7665
   14SAPS   HN2 1732   1.630   5.427   2.843  0.2015  0.3131 -3.2557
   14SAPS   HN3 1733   1.706   5.509   2.966 -1.7248 -4.2714  0.4710
   14SAPS   C12 1734   1.764   5.572   2.769  0.1940  0.1474  0.5142
   14SAPS  H12A 1735   1.862   5.565   2.813  0.0752  1.7165  1.0896
   14SAPS   C13 1736   1.761   5.493   2.625 -0.1420 -0.1208  0.0458
   14SAPS  O13A 1737   1.680   5.400   2.607  0.5023 -0.0030  0.2685
   14SAPS  O13B 1738   1.855   5.523   2.541 -0.0798 -0.1575 -0.1869
   14SAPS   C11 1739   1.721   5.719   2.748 -0.5218 -0.5633  0.5738
   14SAPS  H11A 1740   1.623   5.728   2.697 -1.2442  2.1665  2.2545
   14SAPS  H11B 1741   1.808   5.761   2.692 -0.3493  2.0892  2.6379
   14SAPS     P 1742   1.670   5.951   2.850  0.1179 -0.3157 -0.4901
   14SAPS   O13 1743   1.731   6.001   2.727 -0.1539  0.3563 -0.0134
   14SAPS   O14 1744   1.525   5.968   2.873  0.1678 -0.0160 -0.1607
   14SAPS   O12 1745   1.712   5.799   2.865 -0.3163 -0.4916  0.1175
   14SAPS   O11 1746   1.729   6.024   2.972  0.1430 -0.4376 -0.1275
   14SAPS    C1 1747   1.814   5.955   3.066  0.3506  0.7826  0.3389
   14SAPS    HA 1748   1.787   5.849   3.087  2.0864  0.6453  2.1316
   14SAPS    HB 1749   1.914   5.939   3.019  0.5898 -0.1226  1.1222
   14SAPS    C2 1750   1.833   6.030   3.198  0.2155 -0.4406 -0.0982
   14SAPS    HS 1751   1.882   6.127   3.177  0.4721 -0.1012  1.8336
   14SAPS   O21 1752   1.911   5.944   3.291  0.1026 -0.4549 -0.0022
   14SAPS   C21 1753   2.040   5.965   3.274 -1.2598  0.6290 -0.3703
   14SAPS   O22 1754   2.098   6.041   3.197  0.1321 -0.0183  0.0112
   14SAPS   C22 1755   2.118   5.864   3.362  0.3550 -0.2702 -0.5116
   14SAPS   H2R 1756   2.126   5.914   3.461 -0.8985  0.3747 -0.7146
   14SAPS   H2S 1757   2.051   5.776   3.370 -2.4870  1.9260  2.3874
   14SAPS    C3 1758   1.694   6.055   3.262 -0.9776  0.6161 -0.4161
   14SAPS    HX 1759   1.644   5.956   3.270 -0.1203  0.0529 -1.6891
   14SAPS    HY 1760   1.639   6.122   3.193  1.4810  3.3928  0.0990
   14SAPS   O31 1761   1.716   6.120   3.392 -0.1436 -0.1893  0.8870
   14SAPS   C31 1762   1.604   6.186   3.444 -0.6847 -0.0852 -0.3819
   14SAPS   O32 1763   1.507   6.204   3.381  0.6834 -0.1018  0.0757
   14SAPS   C32 1764   1.629   6.240   3.583 -0.4304 -0.6019  0.0637
   14SAPS   H2X 1765   1.690   6.331   3.565 -0.9170  0.4772  3.3362
   14SAPS   H2Y 1766   1.691   6.173   3.646  1.0929 -1.0000 -1.7621
   14SAPS   C23 1767   2.264   5.825   3.312 -0.0755  0.1280 -0.1823
   14SAPS   H3R 1768   2.324   5.918   3.314  1.9914 -1.1384  0.1132
   14SAPS   H3S 1769   2.256   5.792   3.206  0.2456  0.3742 -0.2830
   14SAPS   C24 1770   2.339   5.724   3.405 -0.1726  0.3682 -0.0757
   14SAPS   H4R 1771   2.433   5.701   3.350 -0.4946 -0.7000 -0.2113
   14SAPS   H4S 1772   2.278   5.631   3.401  0.3565 -0.0467 -4.9313
   14SAPS   C25 1773   2.354   5.772   3.546  0.0403  0.0571  0.1102
   14SAPS   H5R 1774   2.264   5.811   3.596 -0.4684  0.2362 -0.9055
   14SAPS   C26 1775   2.468   5.790   3.613 -0.0727 -0.2841  0.4220
   14SAPS   H6R 1776   2.457   5.845   3.707 -1.7553  1.1669 -0.5652
   14SAPS   C27 1777   2.607   5.752   3.573  0.4824 -0.0849  0.2188
   14SAPS   H7R 1778   2.616   5.762   3.462  1.5908 -0.2141  0.2818
   14SAPS   H7S 1779   2.628   5.644   3.587  0.7228 -0.1107 -0.2932
   14SAPS   C28 1780   2.706   5.843   3.636  0.1587 -0.0210  0.0920
   14SAPS   H8R 1781   2.664   5.944   3.638 -1.9624 -0.8260 -0.7917
   14SAPS   C29 1782   2.814   5.818   3.710  0.6650  0.2341 -0.0767
   14SAPS   H9R 1783   2.876   5.904   3.739  0.5586  2.3617 -5.0802
   14SAPS  C210 1784   2.874   5.683   3.736  0.0784  0.0396 -0.7248
   14SAPS  H10R 1785   2.985   5.676   3.727  0.0492 -0.8446 -0.4565
   14SAPS  H10S 1786   2.838   5.614   3.657  0.4588 -1.0047 -0.0082
   14SAPS  C211 1787   2.843   5.634   3.874 -0.1740  0.6516 -0.2114
   14SAPS  H11R 1788   2.745   5.585   3.882 -0.3646  1.0408 -0.1414
   14SAPS  C212 1789   2.926   5.643   3.981 -0.6304 -0.3248 -0.2787
   14SAPS  H12R 1790   2.903   5.607   4.083  2.2603  0.7790  0.8703
   14SAPS  C213 1791   3.059   5.720   3.978  0.1176  0.3661  0.1853
   14SAPS  H13R 1792   3.057   5.794   4.061  1.8614 -0.7557  1.2849
   14SAPS  H13S 1793   3.065   5.788   3.890 -0.4552  0.7996  0.4732
   14SAPS  C214 1794   3.179   5.625   3.979  0.0635  0.2005 -0.2108
   14SAPS  H14R 1795   3.227   5.595   3.884  0.6792  3.5839 -1.1294
   14SAPS  C215 1796   3.240   5.591   4.095  0.7213  0.5613 -0.4585
   14SAPS  H15R 1797   3.310   5.507   4.088 -0.4003 -0.5888  1.4289
   14SAPS  C216 1798   3.204   5.629   4.238 -0.2602 -0.2067 -0.1092
   14SAPS  H16R 1799   3.213   5.542   4.306 -0.1330 -0.0249  0.1102
   14SAPS  H16S 1800   3.099   5.663   4.250  0.2766  1.2311  0.7113
   14SAPS  C217 1801   3.295   5.741   4.296 -0.3503 -0.0136  0.7559
   14SAPS  H17R 1802   3.248   5.839   4.270  1.6598  0.8108  0.0254
   14SAPS  H17S 1803   3.392   5.749   4.243 -2.4136  0.3139 -3.3232
   14SAPS  C218 1804   3.302   5.723   4.447 -0.0231  0.4168 -0.1054
   14SAPS  H18R 1805   3.345   5.625   4.476  1.0991  1.1087  0.7010
   14SAPS  H18S 1806   3.202   5.733   4.495 -1.2319  1.8284 -2.7598
   14SAPS  C219 1807   3.387   5.826   4.518  0.1992  0.5479  0.6419
   14SAPS  H19R 1808   3.357   5.933   4.521  1.3302  0.8483  2.2567
   14SAPS  H19S 1809   3.483   5.828   4.462 -0.3345 -2.2550 -0.5119
   14SAPS  C220 1810   3.405   5.788   4.657  0.1553 -0.7566 -0.4376
   14SAPS  H20R 1811   3.490   5.846   4.700 -1.6716  1.5933  0.2629
   14SAPS  H20S 1812   3.412   5.679   4.674 -1.3649 -0.7328  0.5576
   14SAPS  H20T 1813   3.309   5.807   4.710  1.1240  0.3183  1.0038
   14SAPS   C33 1814   1.503   6.284   3.660  0.6151 -0.6067  0.1375
   14SAPS   H3X 1815   1.455   6.186   3.677  1.3106 -0.7264  1.4691
   14SAPS   H3Y 1816   1.449   6.353   3.591  0.1808  0.5248  1.5623
   14SAPS   C34 1817   1.531   6.355   3.792  0.5569 -0.2811  0.2678
   14SAPS   H4X 1818   1.593   6.445   3.771 -0.1920 -0.0564 -1.1285
   14SAPS   H4Y 1819   1.580   6.283   3.861 -1.6414 -0.4934  1.6734
   14SAPS   C35 1820   1.399   6.402   3.852 -0.7736  1.1590  0.2840
   14SAPS   H5X 1821   1.347   6.304   3.844  0.1266  0.4841  2.0054
   14SAPS   H5Y 1822   1.367   6.486   3.787  0.0796 -0.5302 -2.4942
   14SAPS   C36 1823   1.397   6.451   3.998  0.0225 -0.2456 -0.1549
   14SAPS   H6X 1824   1.289   6.471   4.015  0.0064 -0.0192 -0.5037
   14SAPS   H6Y 1825   1.469   6.532   4.021  0.4195 -0.6025 -0.1328
   14SAPS   C37 1826   1.434   6.332   4.088 -0.0085 -0.1975 -0.9638
   14SAPS   H7X 1827   1.541   6.306   4.072  0.9206  1.4187  1.9057
   14SAPS   H7Y 1828   1.382   6.238   4.060 -2.3784  0.5958  0.4739
   14SAPS   C38 1829   1.414   6.344   4.243 -0.2186  0.4991 -0.0961
   14SAPS   H8X 1830   1.488   6.420   4.277  0.0586  0.2318 -0.1010
   14SAPS   H8Y 1831   1.448   6.244   4.278 -0.3580 -0.9669 -3.7197
   14SAPS   C39 1832   1.272   6.376   4.288 -0.3324 -0.5934 -0.5062
   14SAPS   H9X 1833   1.201   6.304   4.243 -0.5443 -0.4660 -0.3763
   14SAPS   H9Y 1834   1.245   6.476   4.250  1.7229 -0.0583 -0.6595
   14SAPS  C310 1835   1.262   6.378   4.444 -0.1184  0.1765  0.0326
   14SAPS  H10X 1836   1.323   6.452   4.499 -0.7613  1.2789 -0.7152
   14SAPS  H10Y 1837   1.291   6.284   4.497  3.1129  0.0086 -1.7919
   14SAPS  C311 1838   1.108   6.405   4.477 -0.2728  0.3485 -1.2372
   14SAPS  H11X 1839   1.038   6.328   4.438 -0.5397  0.2079 -0.4856
   14SAPS  H11Y 1840   1.090   6.503   4.428  3.0914  1.9730  0.4605
   14SAPS  C312 1841   1.084   6.412   4.632 -0.4810  0.0066  0.5188
   14SAPS  H12X 1842   1.123   6.510   4.666 -2.2148  1.1671 -0.6861
   14SAPS  H12Y 1843   1.156   6.341   4.679 -0.0503  1.3335  1.9463
   14SAPS  C313 1844   0.944   6.398   4.680 -0.5521  0.1612 -0.4666
   14SAPS  H13X 1845   0.917   6.291   4.692 -1.2784  0.2662 -1.1255
   14SAPS  H13Y 1846   0.871   6.446   4.612 -0.0431  2.4500  0.5056
   14SAPS  C314 1847   0.913   6.447   4.825 -0.5851  0.3137 -0.0478
   14SAPS  H14X 1848   0.991   6.424   4.901 -0.1380 -0.0459 -0.6080
   14SAPS  H14Y 1849   0.829   6.383   4.857 -0.6631 -0.8366 -2.3899
   14SAPS  C315 1850   0.892   6.599   4.837  0.6095  0.0938  0.1960
   14SAPS  H15X 1851   0.991   6.643   4.858 -0.1792  1.9949  0.1633
   14SAPS  H15Y 1852   0.825   6.623   4.922 -1.6644 -2.9232 -0.5683
   14SAPS  C316 1853   0.824   6.670   4.718 -0.2569 -0.4210 -0.1126
   14SAPS  H16X 1854   0.727   6.616   4.716 -0.4384 -0.3512  2.9426
   14SAPS  H16Y 1855   0.888   6.677   4.627  0.4031 -1.2633  0.2644
   14SAPS  C317 1856   0.775   6.814   4.747  0.3599 -0.4008 -0.0439
   14SAPS  H17X 1857   0.743   6.859   4.650 -3.1889  0.9359  1.5791
   14SAPS  H17Y 1858   0.847   6.890   4.784  0.9401  0.6154 -2.9367
   14SAPS  C318 1859   0.658   6.831   4.848  0.8261  0.4732 -0.0439
   14SAPS  H18X 1860   0.581   6.763   4.807  1.2848 -0.5868  0.8178
   14SAPS  H18Y 1861   0.610   6.931   4.860 -0.4352  0.0073 -1.0381
   14SAPS  H18Z 1862   0.680   6.798   4.952 -1.6256  0.2955  0.4732
   15SAPS     N 1863   1.348   5.795   3.018 -0.6030  0.2324  0.2751
   15SAPS   HN1 1864   1.299   5.852   3.090  0.6135  0.6582  0.7913
   15SAPS   HN2 1865   1.395   5.715   3.066 -1.8128 -0.7276 -0.0699
   15SAPS   HN3 1866   1.421   5.853   2.972 -0.8502  1.4802  1.3930
   15SAPS   C12 1867   1.250   5.743   2.923 -0.4257 -0.1318 -0.4851
   15SAPS  H12A 1868   1.196   5.824   2.878  0.2257  1.2689  1.1410
   15SAPS   C13 1869   1.310   5.651   2.819 -0.3346 -0.8536  0.3803
   15SAPS  O13A 1870   1.434   5.621   2.819  0.4407 -0.0078 -0.5932
   15SAPS  O13B 1871   1.231   5.615   2.725  0.3114  0.6077 -0.6922
   15SAPS   C11 1872   1.156   5.661   3.006  1.2345  0.3362 -0.0100
   15SAPS  H11A 1873   1.207   5.582   3.065  1.1172  0.7022  0.5966
   15SAPS  H11B 1874   1.082   5.610   2.941  1.0832  1.9533 -1.1421
   15SAPS     P 1875   0.943   5.717   3.143 -0.0527  0.3696 -0.0337
   15SAPS   O13 1876   0.850   5.773   3.042 -0.0043  0.0650  0.0301
   15SAPS   O14 1877   0.930   5.575   3.168 -0.8987 -0.2074  0.2452
   15SAPS   O12 1878   1.093   5.740   3.103  0.2184  0.3585 -1.0486
   15SAPS   O11 1879   0.939   5.793   3.278 -0.1646 -0.5483  0.4663
   15SAPS    C1 1880   1.048   5.876   3.318  0.3894  1.4731 -0.1834
   15SAPS    HA 1881   1.135   5.814   3.349  0.0178 -0.2319 -2.2992
   15SAPS    HB 1882   1.075   5.945   3.236 -0.4091  0.3257 -1.4638
   15SAPS    C2 1883   1.014   5.978   3.434 -0.0916 -0.0402  0.2147
   15SAPS    HS 1884   1.107   6.036   3.451  0.1574 -0.1583 -0.6919
   15SAPS   O21 1885   0.968   5.906   3.554  0.5009  0.4179  0.6869
   15SAPS   C21 1886   1.068   5.841   3.621  0.2730  0.9607  0.2926
   15SAPS   O22 1887   1.185   5.852   3.594  0.2394 -0.2477  0.3856
   15SAPS   C22 1888   1.018   5.761   3.737 -0.2004 -0.3891  0.2276
   15SAPS   H2R 1889   1.084   5.672   3.732 -0.9081 -0.8635 -2.0857
   15SAPS   H2S 1890   1.029   5.828   3.824 -0.6220  0.8162 -0.6138
   15SAPS    C3 1891   0.898   6.065   3.383 -0.5991 -0.4227 -0.2110
   15SAPS    HX 1892   0.831   5.997   3.325  1.3739 -3.0671  0.4089
   15SAPS    HY 1893   0.940   6.129   3.303 -0.8376 -0.6691 -0.5382
   15SAPS   O31 1894   0.826   6.142   3.485 -0.4646  0.2219  0.1973
   15SAPS   C31 1895   0.725   6.073   3.538 -0.4421  0.0209  0.6225
   15SAPS   O32 1896   0.663   5.981   3.485 -0.6606  0.4448 -0.0556
   15SAPS   C32 1897   0.694   6.126   3.677 -0.0775  0.0820  0.1753
   15SAPS   H2X 1898   0.714   6.236   3.672  0.6158 -0.0965 -1.9693
   15SAPS   H2Y 1899   0.760   6.083   3.756 -1.2077 -2.5557 -0.2189
   15SAPS   C23 1900   0.874   5.699   3.717  0.3856  0.2106 -0.0164
   15SAPS   H3R 1901   0.874   5.645   3.621 -0.1334  1.9087 -1.0151
   15SAPS   H3S 1902   0.790   5.772   3.711  1.3087  1.1662 -2.2424
   15SAPS   C24 1903   0.855   5.615   3.840  0.4481 -0.1624 -0.0188
   15SAPS   H4R 1904   0.939   5.544   3.856  0.0583 -0.5055  0.5138
   15SAPS   H4S 1905   0.765   5.551   3.824  0.9182 -0.5234 -1.3714
   15SAPS   C25 1906   0.827   5.694   3.969  0.3556 -0.1937 -0.1979
   15SAPS   H5R 1907   0.735   5.753   3.971  0.3088 -0.2877  1.1772
   15SAPS   C26 1908   0.890   5.674   4.082  0.3623  0.6134 -1.1265
   15SAPS   H6R 1909   0.869   5.729   4.175 -0.1621 -1.6813  0.2082
   15SAPS   C27 1910   1.008   5.586   4.097  0.4080 -0.2894 -0.5305
   15SAPS   H7R 1911   1.067   5.628   4.182 -0.6769 -1.4294  0.8526
   15SAPS   H7S 1912   1.071   5.583   4.006  1.0997 -0.8309 -0.0494
   15SAPS   C28 1913   0.965   5.445   4.132 -0.5344  0.8780 -0.0518
   15SAPS   H8R 1914   0.897   5.400   4.058 -1.0828  0.5465  0.6369
   15SAPS   C29 1915   1.008   5.361   4.228  1.0565  0.4788  0.0046
   15SAPS   H9R 1916   0.960   5.263   4.244  2.7833 -0.3805  0.1985
   15SAPS  C210 1917   1.115   5.393   4.326  1.1908  0.1978  0.5988
   15SAPS  H10R 1918   1.201   5.434   4.270  0.9581  0.8869  0.7300
   15SAPS  H10S 1919   1.150   5.293   4.359  1.2289 -0.7261 -2.0172
   15SAPS  C211 1920   1.074   5.473   4.449  0.0674  0.7249 -0.2377
   15SAPS  H11R 1921   1.076   5.581   4.428  0.8832  0.3676 -2.2102
   15SAPS  C212 1922   1.064   5.431   4.579 -0.4837 -0.5063  0.3000
   15SAPS  H12R 1923   1.038   5.502   4.659 -1.1235 -0.5460  0.1309
   15SAPS  C213 1924   1.072   5.287   4.623  0.6168 -0.6105  0.2998
   15SAPS  H13R 1925   1.060   5.223   4.534  1.4951  1.6974 -1.6023
   15SAPS  H13S 1926   0.995   5.261   4.699  1.3802 -1.3003  0.8581
   15SAPS  C214 1927   1.206   5.255   4.682  0.4933 -0.2716  0.1426
   15SAPS  H14R 1928   1.281   5.213   4.614 -0.7463  0.1772 -1.5856
   15SAPS  C215 1929   1.238   5.275   4.810  0.0645 -0.2791  0.0382
   15SAPS  H15R 1930   1.339   5.250   4.846 -0.2027  1.0781  1.9052
   15SAPS  C216 1931   1.162   5.352   4.917  0.2829  0.5847  0.0701
   15SAPS  H16R 1932   1.058   5.314   4.912  0.2317  0.2951  2.3960
   15SAPS  H16S 1933   1.154   5.462   4.900 -3.0458  0.2408 -1.2362
   15SAPS  C217 1934   1.206   5.323   5.062 -0.3213 -0.3654 -0.0692
   15SAPS  H17R 1935   1.306   5.361   5.093 -1.4651  1.5552  1.4803
   15SAPS  H17S 1936   1.223   5.213   5.066  0.2608 -0.2318  2.2246
   15SAPS  C218 1937   1.094   5.354   5.159 -0.0569  0.4000 -0.7176
   15SAPS  H18R 1938   1.013   5.283   5.135  1.1520 -0.2473 -3.3138
   15SAPS  H18S 1939   1.062   5.460   5.159  1.7066  0.9955  1.4210
   15SAPS  C219 1940   1.147   5.314   5.302  0.1227 -0.2325  0.0132
   15SAPS  H19R 1941   1.240   5.372   5.317  2.4869 -3.3939 -1.4227
   15SAPS  H19S 1942   1.185   5.210   5.303  0.5647 -0.0709 -0.0941
   15SAPS  C220 1943   1.054   5.358   5.420  0.3267 -0.4366  1.0966
   15SAPS  H20R 1944   1.087   5.316   5.518  0.0437  3.4350  3.0364
   15SAPS  H20S 1945   0.954   5.313   5.402  0.1471 -0.2792  1.6852
   15SAPS  H20T 1946   1.053   5.469   5.427 -2.4606 -0.2623 -0.6840
   15SAPS   C33 1947   0.547   6.090   3.720 -0.5462  0.3403 -0.5277
   15SAPS   H3X 1948   0.540   5.980   3.708  2.4791  0.0118 -0.1475
   15SAPS   H3Y 1949   0.475   6.151   3.662 -0.3408  0.3036 -0.8243
   15SAPS   C34 1950   0.520   6.111   3.873 -0.4573  0.0408 -0.0591
   15SAPS   H4X 1951   0.523   6.221   3.884 -0.3744  0.0697 -0.3612
   15SAPS   H4Y 1952   0.602   6.067   3.934  0.6242 -0.4592 -1.8009
   15SAPS   C35 1953   0.386   6.064   3.924  0.2067  0.3647 -0.0947
   15SAPS   H5X 1954   0.388   5.954   3.937 -0.0446  0.3709 -0.0071
   15SAPS   H5Y 1955   0.308   6.095   3.851  0.7263 -0.0276 -0.8322
   15SAPS   C36 1956   0.355   6.114   4.069  0.4263 -0.1663 -0.0927
   15SAPS   H6X 1957   0.343   6.224   4.068  1.2928 -0.0521  0.9950
   15SAPS   H6Y 1958   0.448   6.106   4.130  0.3781  0.5772  0.0908
   15SAPS   C37 1959   0.243   6.027   4.136  0.2666 -0.2515  0.5176
   15SAPS   H7X 1960   0.273   5.921   4.139  3.1230  0.4340 -0.3970
   15SAPS   H7Y 1961   0.153   6.030   4.071 -0.3119 -1.4265  1.2311
   15SAPS   C38 1962   0.209   6.082   4.280  0.0151  0.1675 -0.0743
   15SAPS   H8X 1963   0.102   6.061   4.302  0.0610  0.5482  0.5214
   15SAPS   H8Y 1964   0.217   6.192   4.277 -0.4473  0.1864 -0.8783
   15SAPS   C39 1965   0.294   6.023   4.392 -0.1865 -0.2895  0.2990
   15SAPS   H9X 1966   0.402   6.038   4.372 -0.0461 -0.9710  0.5178
   15SAPS   H9Y 1967   0.284   5.914   4.370 -1.2040 -0.0695 -0.4099
   15SAPS  C310 1968   0.251   6.048   4.540  1.0820  0.0193 -0.6688
   15SAPS  H10X 1969   0.291   6.142   4.582  1.2378 -0.5326  0.4795
   15SAPS  H10Y 1970   0.301   5.970   4.602  1.1791  0.7488  0.1898
   15SAPS  C311 1971   0.100   6.037   4.565  0.2302  0.3819 -0.3241
   15SAPS  H11X 1972   0.062   5.949   4.508 -0.4438  0.2858  0.2580
   15SAPS  H11Y 1973   0.052   6.128   4.524  0.8811  1.8776  2.0082
   15SAPS  C312 1974   0.063   6.038   4.719 -0.1575 -0.7074 -0.2826
   15SAPS  H12X 1975   0.101   6.133   4.762 -0.4004 -0.3072 -0.9294
   15SAPS  H12Y 1976   0.112   5.950   4.765  3.1191  0.9300 -0.3420
   15SAPS  C313 1977  -0.083   6.018   4.765  0.0700  0.3360  0.0481
   15SAPS  H13X 1978  -0.138   5.943   4.704  1.1250  0.4152 -1.0397
   15SAPS  H13Y 1979  -0.143   6.111   4.766 -2.2465 -1.0846 -0.4038
   15SAPS  C314 1980  -0.083   5.980   4.911 -0.3892  0.7217  0.4203
   15SAPS  H14X 1981   0.006   6.016   4.968  2.5226 -1.6052 -2.2421
   15SAPS  H14Y 1982  -0.068   5.870   4.914 -0.5106  0.6661 -0.6949
   15SAPS  C315 1983  -0.213   6.015   4.990 -0.0286  0.0996  0.0178
   15SAPS  H15X 1984  -0.289   5.967   4.925  0.9379  0.9625 -1.8274
   15SAPS  H15Y 1985  -0.231   6.125   4.992 -1.3147 -0.0602 -1.3660
   15SAPS  C316 1986  -0.220   5.937   5.126  0.5766  0.2136  0.0431
   15SAPS  H16X 1987  -0.209   5.830   5.101 -1.9851 -0.3240  0.9704
   15SAPS  H16Y 1988  -0.317   5.960   5.175  0.2597  2.1117 -1.3595
   15SAPS  C317 1989  -0.121   5.999   5.226  0.3206 -0.2864  0.2795
   15SAPS  H17X 1990  -0.153   6.102   5.251  0.9773 -0.2449  0.9965
   15SAPS  H17Y 1991  -0.019   5.996   5.184 -0.8794 -1.8032 -2.9040
   15SAPS  C318 1992  -0.119   5.919   5.352 -0.3728  0.0524 -0.1518
   15SAPS  H18X 1993  -0.092   5.814   5.331 -0.1901  0.0206  0.2372
   15SAPS  H18Y 1994  -0.215   5.914   5.407  0.0574  0.7139  0.6815
   15SAPS  H18Z 1995  -0.046   5.971   5.418 -0.2032  1.0562 -1.0937
   16SAPS     N 1996   1.559   0.174   3.025  0.3412  0.2491  0.4111
   16SAPS   HN1 1997   1.507   0.085   3.037  1.3612 -0.3239  0.7593
   16SAPS   HN2 1998   1.547   0.236   3.108  0.4699  1.6755 -0.5990
   16SAPS   HN3 1999   1.526   0.227   2.943  1.1819  0.2435  0.0622
   16SAPS   C12 2000   1.711   0.138   3.004  0.3782 -0.1158 -0.9436
   16SAPS  H12A 2001   1.739   0.073   3.085 -2.7760 -0.6816 -0.1558
   16SAPS   C13 2002   1.741   0.072   2.867  0.2192 -0.1922  0.2710
   16SAPS  O13A 2003   1.664   0.052   2.774  0.8919  0.0048  0.0563
   16SAPS  O13B 2004   1.863   0.036   2.861  0.5100  0.1600  0.3496
   16SAPS   C11 2005   1.794   0.270   3.012 -0.1972 -0.1307  0.2766
   16SAPS  H11A 2006   1.749   0.337   2.935 -0.1745 -1.3663 -0.8387
   16SAPS  H11B 2007   1.900   0.250   2.985  0.2296  1.6855  0.4626
   16SAPS     P 2008   1.912   0.391   3.211  0.2350  0.0772 -0.0121
   16SAPS   O13 2009   1.985   0.455   3.104 -0.3847  0.0932  0.3202
   16SAPS   O14 2010   1.874   0.471   3.331 -0.0120 -0.2885 -0.1627
   16SAPS   O12 2011   1.775   0.330   3.148  0.3353  0.0583 -0.9476
   16SAPS   O11 2012   1.998   0.264   3.247  0.1663  0.5812  0.1208
   16SAPS    C1 2013   1.929   0.154   3.320  0.0352 -0.4130 -0.4556
   16SAPS    HA 2014   1.821   0.159   3.298  0.0158 -0.2340 -0.3221
   16SAPS    HB 2015   1.977   0.058   3.292  3.6963  1.1522 -0.1569
   16SAPS    C2 2016   1.952   0.167   3.475 -0.4702 -0.8114 -0.2568
   16SAPS    HS 2017   1.936   0.273   3.506 -1.0293 -0.8315 -0.4763
   16SAPS   O21 2018   2.087   0.119   3.501  0.7391 -0.3483  0.6232
   16SAPS   C21 2019   2.156   0.204   3.584 -0.0138  0.4009  0.5678
   16SAPS   O22 2020   2.125   0.308   3.633 -0.4628  0.5895 -0.3866
   16SAPS   C22 2021   2.295   0.134   3.607  0.1062  0.0755  0.3369
   16SAPS   H2R 2022   2.311   0.060   3.526  1.1322  0.2065  0.4008
   16SAPS   H2S 2023   2.376   0.210   3.613  0.3926 -0.3076  1.6786
   16SAPS    C3 2024   1.843   0.094   3.570 -0.4485 -0.3573  0.3475
   16SAPS    HX 2025   1.860  -0.015   3.559 -0.1143 -0.4451  1.5608
   16SAPS    HY 2026   1.747   0.118   3.520  0.4016  0.1238 -1.1060
   16SAPS   O31 2027   1.853   0.134   3.706  0.4411 -0.0024 -0.1939
   16SAPS   C31 2028   1.785   0.247   3.730 -0.2296  0.3400  0.0419
   16SAPS   O32 2029   1.717   0.314   3.652  0.2241 -0.1930  0.5281
   16SAPS   C32 2030   1.790   0.271   3.879 -0.7695  0.0152  0.4759
   16SAPS   H2X 2031   1.892   0.251   3.919  0.2197  0.1373 -1.8385
   16SAPS   H2Y 2032   1.721   0.202   3.931  1.2561 -1.9731  0.6637
   16SAPS   C23 2033   2.289   0.075   3.748  0.5543 -0.5157 -0.1142
   16SAPS   H3R 2034   2.211  -0.003   3.762  1.1466 -0.8975  1.3530
   16SAPS   H3S 2035   2.256   0.152   3.821 -0.1736 -0.5203 -0.4382
   16SAPS   C24 2036   2.422   0.020   3.810 -0.4783  0.0170 -0.3915
   16SAPS   H4R 2037   2.410  -0.013   3.915  3.4784 -0.3499  0.0828
   16SAPS   H4S 2038   2.503   0.095   3.817 -0.1672 -0.4421  1.4914
   16SAPS   C25 2039   2.493  -0.093   3.726 -0.2272 -0.4639 -0.1534
   16SAPS   H5R 2040   2.513  -0.053   3.625 -0.7782 -0.1835 -0.1583
   16SAPS   C26 2041   2.520  -0.218   3.763  0.0120  0.6560  0.0736
   16SAPS   H6R 2042   2.583  -0.274   3.692 -0.6988  1.6026 -1.3424
   16SAPS   C27 2043   2.502  -0.276   3.903 -0.0386 -0.3899  0.3129
   16SAPS   H7R 2044   2.514  -0.193   3.976  1.8827 -0.0054 -0.3705
   16SAPS   H7S 2045   2.581  -0.343   3.944  1.9847  2.2656  1.0703
   16SAPS   C28 2046   2.366  -0.332   3.925  1.2740 -0.2208  0.8779
   16SAPS   H8R 2047   2.285  -0.311   3.853  0.5273 -1.0311  1.4611
   16SAPS   C29 2048   2.330  -0.403   4.033  0.3628  0.5598 -0.4221
   16SAPS   H9R 2049   2.225  -0.431   4.045  0.2618  1.7013  1.7760
   16SAPS  C210 2050   2.422  -0.428   4.153 -0.7125 -0.0474 -0.2692
   16SAPS  H10R 2051   2.475  -0.332   4.175 -0.4149 -0.5705  1.4036
   16SAPS  H10S 2052   2.501  -0.504   4.134  0.1241  0.5017  0.8901
   16SAPS  C211 2053   2.347  -0.456   4.280  0.0635 -0.4471  0.0613
   16SAPS  H11R 2054   2.351  -0.564   4.299  0.0657 -0.3861  0.4122
   16SAPS  C212 2055   2.273  -0.375   4.357 -0.5333 -0.4101  0.0963
   16SAPS  H12R 2056   2.215  -0.411   4.443 -0.8159  2.2496  1.1268
   16SAPS  C213 2057   2.265  -0.229   4.326 -0.3526 -0.2485  0.4213
   16SAPS  H13R 2058   2.164  -0.203   4.362  0.1423  2.1568  0.2588
   16SAPS  H13S 2059   2.261  -0.191   4.221  0.8688 -1.9845 -0.3070
   16SAPS  C214 2060   2.373  -0.157   4.413 -0.4996 -0.0454 -0.1604
   16SAPS  H14R 2061   2.477  -0.158   4.378 -0.3168  0.9266  0.3181
   16SAPS  C215 2062   2.348  -0.088   4.527  0.2880  0.3707  0.0174
   16SAPS  H15R 2063   2.429  -0.034   4.579  0.3490  0.2183  0.0806
   16SAPS  C216 2064   2.219  -0.059   4.604  0.3803  0.1784  0.1565
   16SAPS  H16R 2065   2.147  -0.127   4.554  2.8665 -0.0360 -3.5278
   16SAPS  H16S 2066   2.191   0.047   4.587  0.6834  0.2938  0.3556
   16SAPS  C217 2067   2.226  -0.101   4.750 -0.0726 -0.0733 -0.8726
   16SAPS  H17R 2068   2.303  -0.037   4.799 -1.8545  1.1012  0.5177
   16SAPS  H17S 2069   2.266  -0.202   4.775 -1.8199 -1.1033 -2.0306
   16SAPS  C218 2070   2.097  -0.075   4.831  0.4127  0.2511  0.3535
   16SAPS  H18R 2071   2.011  -0.131   4.788 -0.4241  1.5941  0.2485
   16SAPS  H18S 2072   2.070   0.032   4.829  1.4836  0.5572 -2.4424
   16SAPS  C219 2073   2.111  -0.125   4.977  0.2437  0.0368 -0.2146
   16SAPS  H19R 2074   2.213  -0.094   5.008 -0.5800  1.0658  1.5984
   16SAPS  H19S 2075   2.100  -0.235   4.982  1.0725  0.0142  2.1592
   16SAPS  C220 2076   2.015  -0.069   5.078  0.6771 -0.4443  0.2329
   16SAPS  H20R 2077   2.046   0.035   5.100  1.6723 -0.6979  0.0574
   16SAPS  H20S 2078   2.023  -0.134   5.168 -0.5748  0.9428  1.4016
   16SAPS  H20T 2079   1.912  -0.078   5.036 -0.0753  0.1374  1.8555
   16SAPS   C33 2080   1.751   0.415   3.918 -0.2098  0.2908 -0.1538
   16SAPS   H3X 2081   1.657   0.429   3.859  0.5215 -0.9025 -1.6743
   16SAPS   H3Y 2082   1.817   0.500   3.893 -0.2673  0.7308  1.1249
   16SAPS   C34 2083   1.713   0.428   4.062  0.9958 -0.6275  0.0412
   16SAPS   H4X 2084   1.682   0.531   4.090 -1.2215 -0.9796 -0.8847
   16SAPS   H4Y 2085   1.788   0.398   4.138  1.5810  1.3814  0.3180
   16SAPS   C35 2086   1.574   0.357   4.091  0.1205 -0.0468 -0.1287
   16SAPS   H5X 2087   1.586   0.247   4.100  0.1689  0.1037  2.3056
   16SAPS   H5Y 2088   1.506   0.391   4.010  0.2609  2.6808  0.7621
   16SAPS   C36 2089   1.516   0.406   4.227 -0.2982  0.3117 -0.3873
   16SAPS   H6X 2090   1.469   0.505   4.210 -0.9725  0.6000  2.6139
   16SAPS   H6Y 2091   1.595   0.430   4.301 -1.4767 -2.3955  1.9255
   16SAPS   C37 2092   1.430   0.300   4.295 -0.6172 -0.5825  0.9081
   16SAPS   H7X 2093   1.493   0.213   4.324  0.6277 -0.6877 -1.8432
   16SAPS   H7Y 2094   1.357   0.266   4.219 -0.9102  2.4441 -0.3200
   16SAPS   C38 2095   1.355   0.352   4.417 -0.0453 -0.2868  0.2865
   16SAPS   H8X 2096   1.261   0.300   4.446 -1.3175  1.5696 -0.3653
   16SAPS   H8Y 2097   1.320   0.455   4.398 -0.2113 -0.5876 -1.1980
   16SAPS   C39 2098   1.427   0.362   4.549  0.5143  0.2007  0.6059
   16SAPS   H9X 2099   1.482   0.458   4.556  0.2713  0.3915 -0.0198
   16SAPS   H9Y 2100   1.510   0.289   4.558  0.7370  0.6676  2.9269
   16SAPS  C310 2101   1.325   0.343   4.666  0.1903 -0.1109  0.3487
   16SAPS  H10X 2102   1.365   0.351   4.769 -2.1187 -2.5792  1.5559
   16SAPS  H10Y 2103   1.273   0.247   4.649  0.5427  0.0534 -2.1053
   16SAPS  C311 2104   1.215   0.450   4.672  0.7349 -0.5653  0.2777
   16SAPS  H11X 2105   1.200   0.499   4.574  2.3491  0.7309  0.6299
   16SAPS  H11Y 2106   1.266   0.528   4.732 -0.7200 -0.5024  1.5035
   16SAPS  C312 2107   1.083   0.399   4.728 -0.6447  0.0093  0.4308
   16SAPS  H12X 2108   1.033   0.326   4.660 -0.0458  1.2504 -1.4029
   16SAPS  H12Y 2109   1.020   0.490   4.736 -0.1558  0.4200 -0.3087
   16SAPS  C313 2110   1.092   0.337   4.868  0.2938 -0.0042 -0.2360
   16SAPS  H13X 2111   1.161   0.250   4.877 -1.0247 -0.8554  3.8981
   16SAPS  H13Y 2112   0.988   0.303   4.888 -0.7736  3.6946  1.3632
   16SAPS  C314 2113   1.118   0.441   4.980 -0.1091  0.5212 -0.2388
   16SAPS  H14X 2114   1.044   0.522   4.966 -0.9737 -0.3679 -0.9609
   16SAPS  H14Y 2115   1.223   0.475   4.966  0.3662 -1.5330 -2.2634
   16SAPS  C315 2116   1.096   0.382   5.120 -0.2054  0.1166  0.0317
   16SAPS  H15X 2117   1.158   0.290   5.111 -0.7991 -0.2338 -0.5667
   16SAPS  H15Y 2118   0.988   0.358   5.131  0.2035 -1.0617  1.9063
   16SAPS  C316 2119   1.155   0.475   5.227 -0.0284  0.3499 -0.8134
   16SAPS  H16X 2120   1.138   0.581   5.196  0.4679  0.0179 -2.3231
   16SAPS  H16Y 2121   1.265   0.460   5.214 -0.4255 -2.5987 -1.2997
   16SAPS  C317 2122   1.097   0.455   5.365 -0.3365  0.4359  0.0562
   16SAPS  H17X 2123   0.988   0.450   5.349 -0.2897  0.1927 -0.1801
   16SAPS  H17Y 2124   1.115   0.539   5.436 -3.7052  0.3160  1.2145
   16SAPS  C318 2125   1.128   0.322   5.437  0.2426  0.3662 -0.3609
   16SAPS  H18X 2126   1.084   0.242   5.372 -0.1065 -0.4481  0.8479
   16SAPS  H18Y 2127   1.078   0.323   5.536  1.7579 -1.3437  0.4624
   16SAPS  H18Z 2128   1.236   0.305   5.451  0.2057 -0.5669 -1.1071
   17SAPS     N 2129   4.555   5.795   3.248  0.8598  0.6638  0.6744
   17SAPS   HN1 2130   4.466   5.793   3.301  1.6646 -0.8012  2.0612
   17SAPS   HN2 2131   4.585   5.698   3.227 -1.8148 -0.2165  0.5907
   17SAPS   HN3 2132   4.622   5.833   3.318 -0.0764  1.8207  0.9716
   17SAPS   C12 2133   4.542   5.882   3.138  0.2661  0.4404  0.5611
   17SAPS  H12A 2134   4.635   5.876   3.084  0.5621 -1.9321  1.2086
   17SAPS   C13 2135   4.438   5.850   3.026 -0.1250  0.2142  0.0602
   17SAPS  O13A 2136   4.413   5.727   3.015 -0.3166  0.0137  0.3584
   17SAPS  O13B 2137   4.432   5.927   2.927 -0.0420 -0.4450  0.0403
   17SAPS   C11 2138   4.511   6.029   3.183 -0.2076 -0.3946  0.1851
   17SAPS  H11A 2139   4.412   6.017   3.232 -1.2629  0.1701 -1.7410
   17SAPS  H11B 2140   4.506   6.101   3.099  0.5657  2.0069  2.0792
   17SAPS     P 2141   4.662   6.208   3.306 -0.1303  0.0177 -0.6082
   17SAPS   O13 2142   4.780   6.192   3.395 -0.2517  0.2084  1.2729
   17SAPS   O14 2143   4.685   6.276   3.171  0.3649 -0.0618 -0.7936
   17SAPS   O12 2144   4.609   6.069   3.282  0.4989  0.3179 -0.3001
   17SAPS   O11 2145   4.538   6.276   3.392 -0.0229  0.9576  0.4845
   17SAPS    C1 2146   4.506   6.211   3.515  0.0624  0.3985  0.0209
   17SAPS    HA 2147   4.396   6.200   3.508  0.1950  0.1316 -3.1628
   17SAPS    HB 2148   4.546   6.108   3.530  2.7702  1.0465 -1.9267
   17SAPS    C2 2149   4.555   6.302   3.629  0.5419 -0.5793 -0.0340
   17SAPS    HS 2150   4.666   6.301   3.635  0.5444  1.6087  2.2049
   17SAPS   O21 2151   4.506   6.254   3.753  0.1742  0.5561 -0.0231
   17SAPS   C21 2152   4.570   6.147   3.799  0.4098 -0.1654 -0.2213
   17SAPS   O22 2153   4.661   6.096   3.741 -0.7404  0.2318  0.0881
   17SAPS   C22 2154   4.500   6.092   3.927 -0.0561 -0.7038  0.3848
   17SAPS   H2R 2155   4.437   6.172   3.972 -0.4869 -1.4948  1.2201
   17SAPS   H2S 2156   4.439   6.004   3.897 -1.2463 -0.2854  1.5091
   17SAPS    C3 2157   4.508   6.450   3.601  0.0120 -0.4555 -0.4747
   17SAPS    HX 2158   4.400   6.446   3.575  0.3808  1.2649 -2.4962
   17SAPS    HY 2159   4.567   6.495   3.519 -3.4673  1.6545 -2.0561
   17SAPS   O31 2160   4.548   6.543   3.710  0.4842  0.0145 -0.3035
   17SAPS   C31 2161   4.489   6.662   3.704 -0.2262 -0.1596 -0.1795
   17SAPS   O32 2162   4.423   6.702   3.612  0.7381 -0.0336  0.6961
   17SAPS   C32 2163   4.528   6.743   3.827  0.5140 -0.0687 -0.3613
   17SAPS   H2X 2164   4.554   6.846   3.796 -0.0782 -0.9758 -4.5847
   17SAPS   H2Y 2165   4.618   6.694   3.871  0.2545 -0.8853 -0.7177
   17SAPS   C23 2166   4.601   6.040   4.030 -0.2836 -0.8107 -0.1628
   17SAPS   H3R 2167   4.672   6.123   4.050 -0.0292 -0.7487 -1.2980
   17SAPS   H3S 2168   4.667   5.963   3.984  0.3957  0.8491 -2.0807
   17SAPS   C24 2169   4.533   5.983   4.155  0.2834 -0.0916 -0.4926
   17SAPS   H4R 2170   4.466   5.903   4.115  0.6477 -0.4907 -0.3161
   17SAPS   H4S 2171   4.460   6.050   4.205  1.2097 -0.1057  0.9261
   17SAPS   C25 2172   4.627   5.912   4.256 -0.1661 -0.3061 -0.4589
   17SAPS   H5R 2173   4.666   5.822   4.207 -0.5739  1.1560 -3.6992
   17SAPS   C26 2174   4.648   5.943   4.384  0.2449  0.0862  0.4976
   17SAPS   H6R 2175   4.703   5.868   4.442 -1.1637 -1.0925  0.3621
   17SAPS   C27 2176   4.589   6.057   4.471  0.0553  0.0744  0.2179
   17SAPS   H7R 2177   4.591   6.036   4.580  0.0710  1.7215  0.5648
   17SAPS   H7S 2178   4.481   6.068   4.447  0.3876  1.1354 -0.9410
   17SAPS   C28 2179   4.652   6.191   4.434  0.3248 -0.4950  0.5564
   17SAPS   H8R 2180   4.681   6.206   4.329 -1.7366 -0.1196 -0.0092
   17SAPS   C29 2181   4.671   6.298   4.509 -0.0411 -0.1050 -0.2415
   17SAPS   H9R 2182   4.720   6.387   4.467 -1.0256  0.8562  0.5801
   17SAPS  C210 2183   4.634   6.317   4.659  0.1918  0.3957 -0.2433
   17SAPS  H10R 2184   4.539   6.264   4.677 -1.6907  3.8166  0.7078
   17SAPS  H10S 2185   4.612   6.424   4.678  1.6898  1.0109 -1.6706
   17SAPS  C211 2186   4.724   6.250   4.758 -0.2522  0.1792  0.5275
   17SAPS  H11R 2187   4.786   6.167   4.721  0.3350 -0.1668  2.2003
   17SAPS  C212 2188   4.728   6.276   4.889  0.1281 -0.0576  0.4714
   17SAPS  H12R 2189   4.797   6.217   4.952 -1.8463 -1.9996  0.9384
   17SAPS  C213 2190   4.646   6.385   4.954 -0.0630  0.7356  0.0059
   17SAPS  H13R 2191   4.571   6.327   5.012  1.1060 -1.0355 -0.1750
   17SAPS  H13S 2192   4.590   6.443   4.877  0.3099  0.5772 -0.3911
   17SAPS  C214 2193   4.725   6.475   5.044 -0.9238  0.4997  0.1261
   17SAPS  H14R 2194   4.771   6.421   5.128  1.9063  0.4651 -1.3318
   17SAPS  C215 2195   4.759   6.603   5.016  0.3098  0.0185  0.7573
   17SAPS  H15R 2196   4.810   6.664   5.092  1.3640 -1.4966  1.3238
   17SAPS  C216 2197   4.710   6.677   4.890  0.6520  0.1026 -1.1364
   17SAPS  H16R 2198   4.647   6.765   4.916  0.5284 -0.2485 -0.2104
   17SAPS  H16S 2199   4.645   6.613   4.826  1.9845 -2.5157  0.0157
   17SAPS  C217 2200   4.824   6.725   4.801 -0.2478  0.8057 -0.6736
   17SAPS  H17R 2201   4.770   6.766   4.713 -0.5653  0.7944 -0.4838
   17SAPS  H17S 2202   4.889   6.639   4.774 -1.8747 -0.5707 -0.3472
   17SAPS  C218 2203   4.928   6.819   4.865  0.5611 -0.8458 -0.1567
   17SAPS  H18R 2204   4.977   6.768   4.951 -1.1979  1.3935  2.3308
   17SAPS  H18S 2205   4.878   6.906   4.913 -0.4378 -1.3164 -0.3243
   17SAPS  C219 2206   5.032   6.874   4.765 -0.0645 -0.4302  0.0472
   17SAPS  H19R 2207   4.985   6.935   4.685 -1.7936 -0.7337  0.7702
   17SAPS  H19S 2208   5.080   6.786   4.718  3.9219  0.9145  1.1833
   17SAPS  C220 2209   5.135   6.965   4.825 -0.3386 -0.1579  0.4513
   17SAPS  H20R 2210   5.179   6.942   4.924 -0.3693  0.9956  0.7504
   17SAPS  H20S 2211   5.088   7.066   4.831  0.8399  0.5349 -1.0913
   17SAPS  H20T 2212   5.222   6.978   4.757 -2.2477  3.9139 -1.6394
   17SAPS   C33 2213   4.419   6.742   3.942  0.0645 -0.0437 -0.0833
   17SAPS   H3X 2214   4.355   6.652   3.941 -0.4443  0.3043 -1.3537
   17SAPS   H3Y 2215   4.346   6.821   3.914  1.6008  1.5155  0.1501
   17SAPS   C34 2216   4.464   6.781   4.076  0.4389  0.2177 -0.4415
   17SAPS   H4X 2217   4.518   6.878   4.085 -0.3834  0.9216 -2.4828
   17SAPS   H4Y 2218   4.532   6.700   4.111 -0.1058 -1.2742 -2.6122
   17SAPS   C35 2219   4.346   6.789   4.180  0.0490 -0.1270 -0.1812
   17SAPS   H5X 2220   4.288   6.696   4.161 -0.7110  0.7832 -2.9327
   17SAPS   H5Y 2221   4.274   6.873   4.165  1.3292  1.2255  0.9238
   17SAPS   C36 2222   4.383   6.796   4.332 -0.5621 -0.4666  0.5695
   17SAPS   H6X 2223   4.444   6.885   4.358  0.1520 -1.1620  1.3418
   17SAPS   H6Y 2224   4.450   6.711   4.358  0.2161  0.8509  3.1188
   17SAPS   C37 2225   4.263   6.810   4.423  0.0312 -0.5022  0.0218
   17SAPS   H7X 2226   4.191   6.727   4.405  0.9435 -1.4774  0.7544
   17SAPS   H7Y 2227   4.209   6.906   4.408  0.2853 -0.5254 -1.1541
   17SAPS   C38 2228   4.314   6.805   4.567  0.4126  0.4557 -0.3164
   17SAPS   H8X 2229   4.234   6.841   4.636  1.3775  2.4095 -0.1675
   17SAPS   H8Y 2230   4.396   6.879   4.569  1.8627 -1.1007  0.7228
   17SAPS   C39 2231   4.392   6.674   4.608  0.0676 -0.7659  0.3720
   17SAPS   H9X 2232   4.497   6.706   4.590 -0.5053  0.0028 -2.0031
   17SAPS   H9Y 2233   4.359   6.585   4.552 -0.1041  0.7686 -2.1306
   17SAPS  C310 2234   4.375   6.636   4.759  0.0196  0.4923  0.8107
   17SAPS  H10X 2235   4.384   6.731   4.817 -2.9022  0.6691  1.1506
   17SAPS  H10Y 2236   4.452   6.561   4.786 -1.6201 -1.3351  0.5999
   17SAPS  C311 2237   4.237   6.572   4.799  0.1335 -0.2526 -0.9862
   17SAPS  H11X 2238   4.186   6.542   4.705  1.3195 -2.4266 -1.0160
   17SAPS  H11Y 2239   4.184   6.646   4.863 -0.3054 -0.7786 -0.7309
   17SAPS  C312 2240   4.243   6.429   4.865  0.3212 -0.6831 -0.0314
   17SAPS  H12X 2241   4.315   6.439   4.949 -0.0037  0.5920  0.1288
   17SAPS  H12Y 2242   4.287   6.361   4.789  0.4261  0.7169 -1.2803
   17SAPS  C313 2243   4.104   6.380   4.912 -0.1531  0.1970  0.6629
   17SAPS  H13X 2244   4.119   6.285   4.968 -1.7045  0.2484  1.1994
   17SAPS  H13Y 2245   4.053   6.352   4.817 -0.3602  1.1219  0.4952
   17SAPS  C314 2246   4.014   6.470   4.990 -0.4480  0.3358  0.5362
   17SAPS  H14X 2247   3.991   6.564   4.935 -2.9820  2.0638  4.0678
   17SAPS  H14Y 2248   4.060   6.498   5.088  1.2475  0.0656 -0.1541
   17SAPS  C315 2249   3.881   6.414   5.030 -0.0171  0.1191  0.6806
   17SAPS  H15X 2250   3.901   6.317   5.080 -0.6380  0.2259  1.1352
   17SAPS  H15Y 2251   3.825   6.401   4.935  1.7388  1.4681 -0.6128
   17SAPS  C316 2252   3.793   6.504   5.112  0.2360  0.2423  0.6418
   17SAPS  H16X 2253   3.691   6.463   5.119 -0.0644  0.1757 -2.5693
   17SAPS  H16Y 2254   3.787   6.604   5.064  1.3873 -0.3974 -0.9396
   17SAPS  C317 2255   3.833   6.509   5.261  0.3311  0.6598  0.2331
   17SAPS  H17X 2256   3.941   6.530   5.278  0.4041 -0.2326  0.9328
   17SAPS  H17Y 2257   3.823   6.407   5.304 -0.5187  0.6833  0.1126
   17SAPS  C318 2258   3.752   6.604   5.359 -0.0219  0.8999 -0.0084
   17SAPS  H18X 2259   3.743   6.711   5.330  2.8614  0.9376 -1.0913
   17SAPS  H18Y 2260   3.807   6.604   5.455 -1.6307  0.7942  0.9494
   17SAPS  H18Z 2261   3.645   6.574   5.362  0.3190 -1.1385 -3.1058
   18SAPS     N 2262   4.407   5.460   3.099  0.4544 -0.0942  0.1666
   18SAPS   HN1 2263   4.505   5.496   3.096  0.4195  0.0544  0.6201
   18SAPS   HN2 2264   4.346   5.532   3.055  2.3123  1.1491 -0.5333
   18SAPS   HN3 2265   4.386   5.458   3.201 -0.7397 -0.9507 -0.0799
   18SAPS   C12 2266   4.398   5.333   3.032  0.0378  0.4135 -0.8573
   18SAPS  H12A 2267   4.299   5.311   2.994  0.6763 -1.8196 -1.3872
   18SAPS   C13 2268   4.490   5.323   2.915  0.1494  0.3466 -0.3162
   18SAPS  O13A 2269   4.548   5.422   2.862  0.0871 -0.2916  0.0153
   18SAPS  O13B 2270   4.502   5.205   2.867  0.2282 -0.2321  0.0738
   18SAPS   C11 2271   4.442   5.214   3.134  0.6875 -0.2082 -0.8613
   18SAPS  H11A 2272   4.551   5.225   3.155  0.8517 -0.7118 -1.4311
   18SAPS  H11B 2273   4.413   5.124   3.076  0.6890  0.3039 -1.6755
   18SAPS     P 2274   4.203   5.179   3.245  0.0927  0.2571 -0.1168
   18SAPS   O13 2275   4.130   5.300   3.293  0.1448  0.2466 -0.5966
   18SAPS   O14 2276   4.168   5.124   3.114 -0.1750  0.0351 -0.2827
   18SAPS   O12 2277   4.365   5.204   3.256  0.1069 -0.1113  0.1949
   18SAPS   O11 2278   4.181   5.064   3.351  0.1725  0.3806  0.6521
   18SAPS    C1 2279   4.280   4.969   3.376 -0.1120 -0.6130 -0.1440
   18SAPS    HA 2280   4.291   4.885   3.304 -2.6679 -0.9811 -0.1880
   18SAPS    HB 2281   4.377   5.021   3.395  1.1999 -2.9325 -0.0346
   18SAPS    C2 2282   4.251   4.893   3.517  0.2590  0.1272  0.2981
   18SAPS    HS 2283   4.159   4.832   3.511  0.8957 -0.8529  0.2240
   18SAPS   O21 2284   4.237   4.983   3.623  0.2595  0.0041 -0.5495
   18SAPS   C21 2285   4.144   4.954   3.715  0.2286  0.2057 -0.3203
   18SAPS   O22 2286   4.064   4.861   3.715 -0.3882 -0.4338  0.4364
   18SAPS   C22 2287   4.153   5.062   3.832  0.0285  0.2483 -0.4913
   18SAPS   H2R 2288   4.250   5.115   3.818  0.6322 -1.0013 -1.2138
   18SAPS   H2S 2289   4.073   5.137   3.817  0.5122  0.8774 -0.0018
   18SAPS    C3 2290   4.378   4.804   3.544 -0.2949 -0.2576 -0.3328
   18SAPS    HX 2291   4.462   4.874   3.561  1.4582 -2.0361 -1.3291
   18SAPS    HY 2292   4.408   4.744   3.455  0.9189  2.0000 -1.5494
   18SAPS   O31 2293   4.348   4.721   3.662 -0.2961 -0.5647 -0.2151
   18SAPS   C31 2294   4.367   4.590   3.649  0.4615 -1.0929 -0.1694
   18SAPS   O32 2295   4.400   4.534   3.546  0.3913  0.5426  0.3560
   18SAPS   C32 2296   4.362   4.511   3.780 -0.0740 -0.5463 -0.2057
   18SAPS   H2X 2297   4.466   4.486   3.811 -0.2895 -0.2184  0.8599
   18SAPS   H2Y 2298   4.291   4.426   3.782 -1.5240  0.6089  1.6770
   18SAPS   C23 2299   4.147   4.993   3.967  0.0248  0.1109 -0.2998
   18SAPS   H3R 2300   4.240   4.933   3.975 -0.1228 -0.3786 -1.9313
   18SAPS   H3S 2301   4.060   4.926   3.979  0.5587 -0.6424 -0.5527
   18SAPS   C24 2302   4.133   5.097   4.080 -0.9841 -0.2074 -0.5679
   18SAPS   H4R 2303   4.213   5.173   4.064 -0.1312 -0.4336  2.1244
   18SAPS   H4S 2304   4.163   5.044   4.173 -0.9621  2.3276  0.9661
   18SAPS   C25 2305   3.996   5.172   4.095 -0.4210 -0.3409  0.1639
   18SAPS   H5R 2306   3.966   5.232   4.007  1.4211  1.8525  0.9135
   18SAPS   C26 2307   3.915   5.143   4.198 -0.3557 -0.2096  0.3321
   18SAPS   H6R 2308   3.818   5.192   4.208  0.2398  1.0919 -0.1277
   18SAPS   C27 2309   3.935   5.048   4.317 -0.0641  0.0114 -0.7440
   18SAPS   H7R 2310   3.971   4.947   4.291  0.5594  0.1103 -0.2755
   18SAPS   H7S 2311   3.839   5.015   4.363  0.0426  1.3015  0.4968
   18SAPS   C28 2312   4.027   5.110   4.423  0.2194 -0.5147  0.5082
   18SAPS   H8R 2313   4.132   5.126   4.396  0.5085  1.0293  2.3007
   18SAPS   C29 2314   3.987   5.124   4.552 -0.1809  0.5880  0.2377
   18SAPS   H9R 2315   4.066   5.148   4.625  0.4954 -1.6586  0.3154
   18SAPS  C210 2316   3.857   5.094   4.611 -0.3413 -0.0480  0.2087
   18SAPS  H10R 2317   3.776   5.139   4.550 -1.7047  1.6439  3.0398
   18SAPS  H10S 2318   3.854   5.152   4.706  1.3471  1.1322 -0.4040
   18SAPS  C211 2319   3.846   4.945   4.636 -0.6541  0.5183  0.2152
   18SAPS  H11R 2320   3.788   4.891   4.559 -2.4904  2.4530  0.1575
   18SAPS  C212 2321   3.889   4.878   4.742  0.1141 -0.4460 -0.0318
   18SAPS  H12R 2322   3.855   4.774   4.757  1.6708 -0.8704  0.8118
   18SAPS  C213 2323   3.953   4.940   4.867  0.0301  0.0395  0.4398
   18SAPS  H13R 2324   3.917   5.045   4.877 -0.5722 -0.1912  0.7455
   18SAPS  H13S 2325   4.062   4.949   4.847  0.1176  1.2842  1.3684
   18SAPS  C214 2326   3.943   4.863   4.995  0.0942 -0.0669 -0.3001
   18SAPS  H14R 2327   4.042   4.827   5.028 -0.1449  0.2526  0.8188
   18SAPS  C215 2328   3.833   4.834   5.063  0.0976 -0.0834  0.3251
   18SAPS  H15R 2329   3.843   4.769   5.151  1.4310  0.2742  0.4573
   18SAPS  C216 2330   3.693   4.888   5.037 -0.1010 -1.1528 -0.2879
   18SAPS  H16R 2331   3.629   4.808   4.996 -0.7467 -1.5521  1.4219
   18SAPS  H16S 2332   3.705   4.956   4.949  1.3665 -1.8625 -0.6737
   18SAPS  C217 2333   3.631   4.982   5.150 -0.2293 -0.0094 -0.0211
   18SAPS  H17R 2334   3.529   5.012   5.118  0.3066  0.7896 -1.0284
   18SAPS  H17S 2335   3.691   5.075   5.152 -0.6740  0.3056 -1.0552
   18SAPS  C218 2336   3.615   4.912   5.287  0.3382 -0.1786  0.5621
   18SAPS  H18R 2337   3.716   4.871   5.309  0.8865  0.5758 -0.4663
   18SAPS  H18S 2338   3.554   4.819   5.281 -0.0799  0.1885 -1.3044
   18SAPS  C219 2339   3.562   5.021   5.384  0.4418 -0.3395  0.3659
   18SAPS  H19R 2340   3.465   5.066   5.351  1.4995  1.6876 -0.1823
   18SAPS  H19S 2341   3.639   5.101   5.389  0.4140 -0.2190 -0.8546
   18SAPS  C220 2342   3.530   4.959   5.519 -0.4984  0.4935 -0.1718
   18SAPS  H20R 2343   3.622   4.916   5.563  1.1546  2.1902 -1.7788
   18SAPS  H20S 2344   3.439   4.894   5.516 -1.1993  1.4637 -0.4816
   18SAPS  H20T 2345   3.496   5.047   5.577 -2.0430  1.6842 -2.6951
   18SAPS   C33 2346   4.330   4.610   3.900  0.3647  0.6813  0.6046
   18SAPS   H3X 2347   4.232   4.660   3.890 -0.0896 -0.3951 -0.7731
   18SAPS   H3Y 2348   4.414   4.683   3.898  0.3440  0.7723 -2.7306
   18SAPS   C34 2349   4.330   4.534   4.035  0.2669 -0.3077  0.0147
   18SAPS   H4X 2350   4.427   4.481   4.049 -0.6442 -1.8113  0.8815
   18SAPS   H4Y 2351   4.265   4.444   4.034  1.8423 -1.4988 -0.8772
   18SAPS   C35 2352   4.288   4.622   4.157 -0.3055 -0.3230 -0.7048
   18SAPS   H5X 2353   4.183   4.658   4.149 -0.5636 -1.1527 -1.1150
   18SAPS   H5Y 2354   4.358   4.708   4.161  2.8147 -2.7305  0.9370
   18SAPS   C36 2355   4.281   4.550   4.291  0.6669 -0.2618  0.2050
   18SAPS   H6X 2356   4.385   4.540   4.330  0.3226 -0.0728  1.2073
   18SAPS   H6Y 2357   4.236   4.449   4.278 -1.6157  0.4183  2.0718
   18SAPS   C37 2358   4.195   4.620   4.405  0.1572 -0.6944  0.5803
   18SAPS   H7X 2359   4.086   4.615   4.382  0.5675 -1.8764 -1.2689
   18SAPS   H7Y 2360   4.210   4.730   4.412 -1.9874 -0.3800  1.1274
   18SAPS   C38 2361   4.226   4.552   4.539  0.2224  0.4861  0.3766
   18SAPS   H8X 2362   4.337   4.556   4.541  0.3988 -2.2317  0.0412
   18SAPS   H8Y 2363   4.198   4.445   4.533  0.3430  0.4430  0.6114
   18SAPS   C39 2364   4.148   4.615   4.651 -0.2624 -0.1814  0.0333
   18SAPS   H9X 2365   4.041   4.622   4.619 -0.4250 -2.0923  0.0726
   18SAPS   H9Y 2366   4.197   4.713   4.670 -1.2922  0.5256 -0.8470
   18SAPS  C310 2367   4.168   4.542   4.783 -0.2753 -0.1541 -0.5079
   18SAPS  H10X 2368   4.138   4.435   4.786 -1.0946  0.0818  0.3307
   18SAPS  H10Y 2369   4.086   4.578   4.848 -1.4851 -1.4392 -1.2633
   18SAPS  C311 2370   4.307   4.564   4.850  0.4652  0.2842 -0.0120
   18SAPS  H11X 2371   4.340   4.670   4.859  1.6798 -0.2161  1.8122
   18SAPS  H11Y 2372   4.395   4.521   4.797 -0.7337 -1.5765 -0.6030
   18SAPS  C312 2373   4.308   4.503   4.994 -0.1728  0.6250  0.1470
   18SAPS  H12X 2374   4.416   4.518   5.015  1.4233 -2.0413 -4.5737
   18SAPS  H12Y 2375   4.281   4.395   4.994  0.6841  0.4002  1.0619
   18SAPS  C313 2376   4.229   4.586   5.091 -0.1539 -0.1240 -0.9059
   18SAPS  H13X 2377   4.119   4.573   5.078 -0.2217 -0.2327 -0.2521
   18SAPS  H13Y 2378   4.256   4.693   5.078 -0.3721 -0.0465 -0.7302
   18SAPS  C314 2379   4.260   4.572   5.244 -0.0336  1.2210 -0.1085
   18SAPS  H14X 2380   4.363   4.613   5.236  1.3294 -1.9381 -0.1733
   18SAPS  H14Y 2381   4.265   4.462   5.252 -0.1513  1.1358 -1.1450
   18SAPS  C315 2382   4.168   4.650   5.341  0.5282 -0.1836  0.1441
   18SAPS  H15X 2383   4.164   4.758   5.317 -1.3967  0.0030  1.0819
   18SAPS  H15Y 2384   4.224   4.641   5.436  3.3985 -3.8049 -1.6167
   18SAPS  C316 2385   4.030   4.583   5.350  0.7865 -0.0245 -0.1387
   18SAPS  H16X 2386   4.033   4.475   5.378  1.1331  0.6711  2.8587
   18SAPS  H16Y 2387   3.984   4.597   5.250  0.2077  1.4392  0.3028
   18SAPS  C317 2388   3.920   4.633   5.451 -0.2907  0.3391  0.0055
   18SAPS  H17X 2389   3.825   4.577   5.435  0.3964 -0.8906  0.0731
   18SAPS  H17Y 2390   3.906   4.742   5.437  0.9202  0.9660  3.0107
   18SAPS  C318 2391   3.975   4.601   5.596  0.4740 -0.4177  0.3206
   18SAPS  H18X 2392   4.071   4.656   5.607  0.0683  0.5096 -0.6516
   18SAPS  H18Y 2393   4.005   4.496   5.617 -1.8322 -1.1753  0.0726
   18SAPS  H18Z 2394   3.906   4.626   5.679 -0.2162 -1.3383  0.0404
   19SAPS     N 2395   2.058   0.671   2.951 -0.1577 -0.3244  0.7913
   19SAPS   HN1 2396   2.030   0.591   3.011  1.9805  0.0640  2.3936
   19SAPS   HN2 2397   1.990   0.750   2.948 -0.3543 -0.4852  0.9511
   19SAPS   HN3 2398   2.061   0.634   2.853  1.5276 -0.9376  1.0405
   19SAPS   C12 2399   2.192   0.720   2.992 -0.1173 -0.0136 -0.1733
   19SAPS  H12A 2400   2.249   0.630   3.012 -1.9594 -1.3826 -0.8254
   19SAPS   C13 2401   2.263   0.814   2.885 -0.1618  0.1953  0.2666
   19SAPS  O13A 2402   2.200   0.845   2.779  0.0048 -0.5034 -0.2109
   19SAPS  O13B 2403   2.374   0.860   2.913 -1.1980 -0.5096 -0.2421
   19SAPS   C11 2404   2.181   0.796   3.130  0.0483 -0.4291 -0.0862
   19SAPS  H11A 2405   2.278   0.837   3.165 -1.0411  2.5657 -0.2566
   19SAPS  H11B 2406   2.136   0.725   3.203 -1.5400  0.6062 -0.0082
   19SAPS     P 2407   2.116   1.021   3.230 -0.4976 -0.0384 -0.1842
   19SAPS   O13 2408   2.243   1.093   3.191  0.2545 -0.3846 -0.4734
   19SAPS   O14 2409   2.003   1.110   3.217 -0.1186  0.0969 -0.2841
   19SAPS   O12 2410   2.086   0.901   3.138  0.4497  0.0347  0.6076
   19SAPS   O11 2411   2.132   0.966   3.376 -0.2146 -0.8766  0.2229
   19SAPS    C1 2412   2.006   0.899   3.427  0.7182 -0.4065 -0.3486
   19SAPS    HA 2413   1.917   0.955   3.388  0.1068 -1.3094 -0.2683
   19SAPS    HB 2414   1.992   0.794   3.394  1.6318 -0.5962 -0.1351
   19SAPS    C2 2415   1.986   0.905   3.584 -0.0985  0.9016  0.3450
   19SAPS    HS 2416   1.912   0.828   3.613  1.5626 -1.1351 -0.5871
   19SAPS   O21 2417   1.963   1.032   3.640  0.6218  0.0625  0.6393
   19SAPS   C21 2418   1.827   1.078   3.620 -0.5230 -0.1268  0.4617
   19SAPS   O22 2419   1.749   1.024   3.553  0.3959  0.1617  0.1423
   19SAPS   C22 2420   1.819   1.218   3.679  0.4549  0.1630  0.8613
   19SAPS   H2R 2421   1.884   1.286   3.620 -0.2423  1.8496  1.9584
   19SAPS   H2S 2422   1.713   1.245   3.661 -0.2838 -2.1051  1.5111
   19SAPS    C3 2423   2.110   0.844   3.649 -0.3637 -0.4190 -0.0318
   19SAPS    HX 2424   2.206   0.895   3.623 -0.7743 -1.7176 -4.9561
   19SAPS    HY 2425   2.127   0.740   3.615  0.0501 -0.1213 -0.7607
   19SAPS   O31 2426   2.108   0.856   3.789  0.0679 -0.4929 -0.4577
   19SAPS   C31 2427   2.036   0.779   3.863  0.3895  0.5904 -0.8825
   19SAPS   O32 2428   1.970   0.684   3.822  0.7970  0.2237 -0.1020
   19SAPS   C32 2429   2.046   0.819   4.009 -0.4286  0.1327  0.1154
   19SAPS   H2X 2430   2.015   0.924   4.030 -0.2991 -0.2989  2.8429
   19SAPS   H2Y 2431   2.152   0.802   4.039 -1.0014 -1.8175  1.2144
   19SAPS   C23 2432   1.860   1.241   3.832  0.4965 -0.0445  0.6562
   19SAPS   H3R 2433   1.856   1.350   3.852 -0.9832 -0.0124  0.3168
   19SAPS   H3S 2434   1.967   1.212   3.842  0.2598 -1.0516  0.3720
   19SAPS   C24 2435   1.754   1.179   3.927 -0.6340 -0.0466 -0.2997
   19SAPS   H4R 2436   1.793   1.178   4.031 -1.4124  0.0599  0.0011
   19SAPS   H4S 2437   1.735   1.078   3.885 -2.1503 -0.7132  1.7800
   19SAPS   C25 2438   1.620   1.244   3.934 -0.6150  0.1849  0.1093
   19SAPS   H5R 2439   1.567   1.249   3.838  2.1133 -2.0094 -1.6747
   19SAPS   C26 2440   1.582   1.327   4.037 -0.2152 -0.8957  0.3606
   19SAPS   H6R 2441   1.484   1.376   4.029 -0.4455 -1.3004  0.6521
   19SAPS   C27 2442   1.666   1.361   4.160 -0.2911  0.1183  0.1970
   19SAPS   H7R 2443   1.643   1.467   4.183  2.4952  0.4600  1.9404
   19SAPS   H7S 2444   1.777   1.367   4.154 -0.3344  0.5263 -0.1915
   19SAPS   C28 2445   1.626   1.272   4.279  0.4678  0.5268  0.2513
   19SAPS   H8R 2446   1.591   1.172   4.249 -1.8178  1.2464  0.2857
   19SAPS   C29 2447   1.619   1.308   4.408  0.0829  0.3550  0.3282
   19SAPS   H9R 2448   1.574   1.239   4.481 -0.1254  0.6926  0.5208
   19SAPS  C210 2449   1.670   1.434   4.465 -0.2155  0.5943 -0.3391
   19SAPS  H10R 2450   1.768   1.467   4.424  0.5145  2.0830  2.3665
   19SAPS  H10S 2451   1.699   1.415   4.571 -0.1606  1.6599 -0.1503
   19SAPS  C211 2452   1.573   1.551   4.455 -0.1332 -0.7741  0.3809
   19SAPS  H11R 2453   1.530   1.579   4.358 -0.9291 -2.8685  0.0817
   19SAPS  C212 2454   1.552   1.647   4.553  0.5984  0.2975  0.0530
   19SAPS  H12R 2455   1.473   1.722   4.537 -0.8512 -0.9519  1.0996
   19SAPS  C213 2456   1.627   1.659   4.681  0.1261 -0.7449 -0.5803
   19SAPS  H13R 2457   1.607   1.759   4.725  1.4093 -0.8510  0.3253
   19SAPS  H13S 2458   1.737   1.666   4.666  0.0536  4.2936 -0.4709
   19SAPS  C214 2459   1.575   1.553   4.783  0.6557  0.4594  1.0201
   19SAPS  H14R 2460   1.614   1.451   4.772 -0.5674  0.0522  0.1709
   19SAPS  C215 2461   1.490   1.579   4.879  0.8426  0.0791 -0.2622
   19SAPS  H15R 2462   1.449   1.496   4.938  0.3385  1.0086  0.7193
   19SAPS  C216 2463   1.426   1.711   4.908 -0.0432  0.1159 -0.1820
   19SAPS  H16R 2464   1.320   1.696   4.937 -0.2265  1.5283 -0.0844
   19SAPS  H16S 2465   1.428   1.767   4.812  0.4550  3.3975  1.5891
   19SAPS  C217 2466   1.491   1.802   5.013 -0.1705 -0.5450  0.3958
   19SAPS  H17R 2467   1.590   1.836   4.976 -0.7933  1.0378  0.1150
   19SAPS  H17S 2468   1.509   1.726   5.092  0.7022  0.1308  0.8735
   19SAPS  C218 2469   1.406   1.911   5.073  0.4459  0.4007  0.6656
   19SAPS  H18R 2470   1.300   1.879   5.078 -0.1579  2.4560  2.5967
   19SAPS  H18S 2471   1.419   2.010   5.023 -0.8210 -0.0476 -0.6109
   19SAPS  C219 2472   1.445   1.927   5.227 -0.6949 -0.5655  0.1028
   19SAPS  H19R 2473   1.547   1.969   5.229 -2.3387  4.0123  0.8184
   19SAPS  H19S 2474   1.444   1.826   5.274 -0.3119 -0.6442 -0.0538
   19SAPS  C220 2475   1.342   2.010   5.305  0.4639 -0.9651 -0.0980
   19SAPS  H20R 2476   1.242   1.962   5.303  0.1223 -0.4968  2.3840
   19SAPS  H20S 2477   1.319   2.113   5.270 -2.6184 -1.0549  1.3435
   19SAPS  H20T 2478   1.383   2.028   5.407  0.4560  2.8963 -0.6123
   19SAPS   C33 2479   1.958   0.722   4.098 -0.4187  0.0818  0.4991
   19SAPS   H3X 2480   2.000   0.619   4.098  2.3989  1.1019 -1.2234
   19SAPS   H3Y 2481   1.850   0.720   4.071 -0.6783  1.0867  1.4303
   19SAPS   C34 2482   1.960   0.760   4.244 -0.0683 -0.1639 -0.1502
   19SAPS   H4X 2483   1.917   0.858   4.272 -0.1578 -0.0345 -0.7386
   19SAPS   H4Y 2484   2.065   0.767   4.279 -0.3404 -0.5823  0.7836
   19SAPS   C35 2485   1.891   0.636   4.315  0.1393  0.2608  0.2097
   19SAPS   H5X 2486   1.926   0.540   4.271 -0.6278  0.3507 -0.6140
   19SAPS   H5Y 2487   1.782   0.639   4.295  0.4532  0.7422 -1.5359
   19SAPS   C36 2488   1.913   0.632   4.464 -0.1914 -0.5870  0.1073
   19SAPS   H6X 2489   1.861   0.721   4.505  0.5151  0.3163 -0.9156
   19SAPS   H6Y 2490   2.019   0.635   4.498  0.5062  0.7812 -2.0471
   19SAPS   C37 2491   1.846   0.508   4.533 -0.1718 -0.1918 -0.3616
   19SAPS   H7X 2492   1.905   0.418   4.506 -0.2468 -0.0827 -0.9076
   19SAPS   H7Y 2493   1.744   0.491   4.492  0.0598 -1.9128 -0.2856
   19SAPS   C38 2494   1.840   0.519   4.684  0.2766  0.3551 -0.5574
   19SAPS   H8X 2495   1.753   0.456   4.710 -0.4296  0.8251 -1.7065
   19SAPS   H8Y 2496   1.812   0.626   4.695  1.3795  0.7826 -1.6577
   19SAPS   C39 2497   1.965   0.478   4.755 -1.1043 -0.0803 -0.1617
   19SAPS   H9X 2498   2.052   0.523   4.703 -0.6833 -0.4699  0.1874
   19SAPS   H9Y 2499   1.974   0.367   4.750 -0.5083 -0.1254  1.3206
   19SAPS  C310 2500   1.963   0.515   4.906  0.5428  0.4670 -0.0036
   19SAPS  H10X 2501   1.863   0.486   4.943  1.4443  0.4775  2.6789
   19SAPS  H10Y 2502   1.971   0.625   4.922 -1.2618  0.4609  1.1839
   19SAPS  C311 2503   2.058   0.440   5.003 -0.2660 -1.3272 -0.1201
   19SAPS  H11X 2504   2.166   0.446   4.978  0.1155 -0.6249  1.5128
   19SAPS  H11Y 2505   2.029   0.334   4.990  0.2418 -1.4033 -0.6993
   19SAPS  C312 2506   2.055   0.483   5.153 -0.0283  0.3907 -0.2078
   19SAPS  H12X 2507   1.956   0.459   5.197  0.2544 -0.9651 -0.2540
   19SAPS  H12Y 2508   2.080   0.590   5.170 -0.0655  0.4329 -0.4067
   19SAPS  C313 2509   2.154   0.407   5.236  0.1976  0.5409  0.2119
   19SAPS  H13X 2510   2.253   0.442   5.198 -0.3808  0.3272 -1.6021
   19SAPS  H13Y 2511   2.131   0.300   5.216 -0.0127 -0.0025  3.0250
   19SAPS  C314 2512   2.143   0.430   5.384 -0.6283 -0.3920  0.0263
   19SAPS  H14X 2513   2.042   0.396   5.417 -0.9428  0.6393  0.1659
   19SAPS  H14Y 2514   2.160   0.539   5.400 -2.1530  0.2301 -2.2105
   19SAPS  C315 2515   2.247   0.364   5.472  0.8313 -0.8861  0.3551
   19SAPS  H15X 2516   2.244   0.390   5.580  1.6058  0.4210  0.0794
   19SAPS  H15Y 2517   2.350   0.385   5.435  0.9025 -0.5692  0.7332
   19SAPS  C316 2518   2.229   0.208   5.480  0.3957  0.3862  0.1413
   19SAPS  H16X 2519   2.228   0.155   5.382 -0.6576 -2.8829  1.7628
   19SAPS  H16Y 2520   2.133   0.178   5.527 -0.0462  1.6183  0.0558
   19SAPS  C317 2521   2.344   0.142   5.565  0.2758 -0.4325 -0.4314
   19SAPS  H17X 2522   2.359   0.216   5.647 -1.8861 -0.0325 -0.3295
   19SAPS  H17Y 2523   2.427   0.128   5.494  1.4293  1.8087  0.3752
   19SAPS  C318 2524   2.317  -0.006   5.604 -0.3361 -1.2917 -0.7830
   19SAPS  H18X 2525   2.288  -0.071   5.519 -0.8851 -1.8359 -0.1907
   19SAPS  H18Y 2526   2.232  -0.019   5.674 -0.2050 -0.2382 -0.4187
   19SAPS  H18Z 2527   2.395  -0.061   5.662 -1.1115 -0.3103  1.2838
   20SAPS     N 2528   3.060   2.509   3.047  0.2136 -0.3520  0.2951
   20SAPS   HN1 2529   3.010   2.493   3.136  1.7865  0.6256  1.4121
   20SAPS   HN2 2530   2.995   2.559   2.984 -0.3605 -0.4954  0.7664
   20SAPS   HN3 2531   3.075   2.412   3.011  0.2740 -0.6346  1.0529
   20SAPS   C12 2532   3.189   2.569   3.095  0.9701  0.7178  0.7081
   20SAPS  H12A 2533   3.244   2.575   3.003 -1.9134 -1.8379 -1.3925
   20SAPS   C13 2534   3.178   2.708   3.165  0.5308 -0.0878 -0.2396
   20SAPS  O13A 2535   3.078   2.781   3.150 -0.1853  0.1530  0.0310
   20SAPS  O13B 2536   3.287   2.766   3.185 -0.0286 -0.0212 -0.6558
   20SAPS   C11 2537   3.254   2.466   3.195 -0.6876  0.1870  0.2112
   20SAPS  H11A 2538   3.197   2.455   3.290  0.3156 -0.8049  0.7199
   20SAPS  H11B 2539   3.348   2.513   3.231  0.5629  0.6677 -3.2556
   20SAPS     P 2540   3.399   2.316   3.038 -0.0977  0.6307  0.1289
   20SAPS   O13 2541   3.432   2.168   3.039  0.7392 -0.5934  0.0753
   20SAPS   O14 2542   3.387   2.379   2.906  0.0486 -0.0422  0.1476
   20SAPS   O12 2543   3.275   2.340   3.133  0.2426  0.0120  0.0609
   20SAPS   O11 2544   3.515   2.388   3.107  0.1469 -0.2598 -0.1471
   20SAPS    C1 2545   3.646   2.323   3.127 -0.1652  0.5512 -0.8897
   20SAPS    HA 2546   3.665   2.233   3.065 -1.8228 -0.4509 -0.0248
   20SAPS    HB 2547   3.728   2.391   3.096 -1.7169  2.2497 -1.4330
   20SAPS    C2 2548   3.677   2.288   3.273  0.4006 -0.3473  0.1359
   20SAPS    HS 2549   3.783   2.258   3.289  0.2437 -0.7469  0.4362
   20SAPS   O21 2550   3.595   2.181   3.319  0.0461 -0.4780 -0.5066
   20SAPS   C21 2551   3.616   2.063   3.258  0.9219  0.6206  0.2482
   20SAPS   O22 2552   3.713   2.036   3.190 -0.1513 -0.2194  0.3671
   20SAPS   C22 2553   3.514   1.966   3.303 -0.2345  0.8074  0.1508
   20SAPS   H2R 2554   3.418   2.020   3.317 -0.8951 -0.6494  1.6339
   20SAPS   H2S 2555   3.496   1.897   3.217 -2.8717  0.7955  0.6404
   20SAPS    C3 2556   3.643   2.415   3.365  0.3262 -0.7664  0.1786
   20SAPS    HX 2557   3.582   2.367   3.445  1.6976 -0.3052  1.5342
   20SAPS    HY 2558   3.573   2.480   3.308  1.0099 -1.5651 -1.6688
   20SAPS   O31 2559   3.761   2.489   3.406  0.9953  0.2173  0.2981
   20SAPS   C31 2560   3.724   2.612   3.453 -0.1428  0.9486  0.7901
   20SAPS   O32 2561   3.607   2.643   3.472 -0.1950  0.3306  0.3131
   20SAPS   C32 2562   3.842   2.697   3.504 -0.6756 -0.2377  0.1004
   20SAPS   H2X 2563   3.916   2.700   3.421  0.3840  0.2081  1.0343
   20SAPS   H2Y 2564   3.896   2.634   3.578 -1.2978 -0.3600  0.4537
   20SAPS   C23 2565   3.573   1.875   3.414  0.1312 -0.3418 -0.3301
   20SAPS   H3R 2566   3.640   1.792   3.385  1.2241 -0.1161  1.4132
   20SAPS   H3S 2567   3.491   1.819   3.465  0.5183 -0.9248 -0.3362
   20SAPS   C24 2568   3.645   1.953   3.533  0.3332 -0.3032 -0.4107
   20SAPS   H4R 2569   3.735   2.007   3.496  1.3158 -0.8795  1.0506
   20SAPS   H4S 2570   3.695   1.877   3.597 -1.6127 -1.4107 -0.1298
   20SAPS   C25 2571   3.557   2.047   3.620  0.7562 -0.1063 -0.1533
   20SAPS   H5R 2572   3.546   2.149   3.582  0.4655 -0.8538 -2.1652
   20SAPS   C26 2573   3.484   2.017   3.736 -0.2209  0.3868  0.0650
   20SAPS   H6R 2574   3.426   2.098   3.782  0.0466  1.1193 -0.8740
   20SAPS   C27 2575   3.460   1.882   3.800 -0.2824 -0.5746 -0.0950
   20SAPS   H7R 2576   3.539   1.885   3.878 -0.0394 -0.9945 -0.3191
   20SAPS   H7S 2577   3.486   1.793   3.739  2.2342  1.4313 -2.1907
   20SAPS   C28 2578   3.330   1.862   3.873 -0.3912  0.1458  0.0230
   20SAPS   H8R 2579   3.251   1.844   3.799 -0.5248  0.3770  0.1066
   20SAPS   C29 2580   3.308   1.856   4.007  0.7050 -0.0574 -0.4744
   20SAPS   H9R 2581   3.202   1.843   4.033  1.3290  0.1427  2.5254
   20SAPS  C210 2582   3.396   1.866   4.127  0.4443  0.4552 -0.0699
   20SAPS  H10R 2583   3.488   1.804   4.111 -0.3190 -1.6918  2.8731
   20SAPS  H10S 2584   3.334   1.819   4.206 -2.1176 -0.2776 -2.3436
   20SAPS  C211 2585   3.426   2.000   4.175  0.3925  0.5521  0.0654
   20SAPS  H11R 2586   3.445   2.072   4.094  4.0084  0.3869  0.5968
   20SAPS  C212 2587   3.455   2.033   4.302  0.1713  0.7013 -0.3015
   20SAPS  H12R 2588   3.458   2.141   4.320 -1.8534  1.1673 -2.3656
   20SAPS  C213 2589   3.443   1.945   4.426 -0.2922 -0.8278 -0.2204
   20SAPS  H13R 2590   3.444   1.836   4.405  0.9832 -0.9989  0.6112
   20SAPS  H13S 2591   3.339   1.960   4.464 -1.3589 -1.0236 -2.8204
   20SAPS  C214 2592   3.549   1.969   4.532  0.7374  0.0979  0.1770
   20SAPS  H14R 2593   3.639   1.907   4.526 -0.3115 -1.3703 -1.6776
   20SAPS  C215 2594   3.535   2.051   4.636  0.2064 -0.0653  0.0235
   20SAPS  H15R 2595   3.630   2.059   4.692  0.5981  3.1707 -0.9205
   20SAPS  C216 2596   3.415   2.151   4.656 -0.5366 -0.8656  0.4808
   20SAPS  H16R 2597   3.318   2.119   4.613 -0.5994  1.5776 -1.3741
   20SAPS  H16S 2598   3.442   2.244   4.601 -0.7868  1.0902  3.4143
   20SAPS  C217 2599   3.394   2.185   4.799  0.3957 -0.0186 -0.2664
   20SAPS  H17R 2600   3.483   2.204   4.863 -0.0560  3.1916 -0.4275
   20SAPS  H17S 2601   3.345   2.098   4.848 -2.0113  2.9973  3.1948
   20SAPS  C218 2602   3.322   2.319   4.811  0.0088  0.1479 -0.1132
   20SAPS  H18R 2603   3.234   2.320   4.742 -0.1641 -1.1314  0.0535
   20SAPS  H18S 2604   3.382   2.402   4.770 -1.3339  1.5095  0.5717
   20SAPS  C219 2605   3.247   2.351   4.940 -0.1849 -0.2614  0.1433
   20SAPS  H19R 2606   3.178   2.265   4.951 -0.0051 -0.6486 -1.4648
   20SAPS  H19S 2607   3.193   2.447   4.922 -0.0793  0.1047  1.6480
   20SAPS  C220 2608   3.331   2.364   5.059 -0.2083 -0.1199 -0.0171
   20SAPS  H20R 2609   3.396   2.274   5.068  2.9745  1.7962 -1.8802
   20SAPS  H20S 2610   3.282   2.399   5.153  1.1200 -1.6681  1.3096
   20SAPS  H20T 2611   3.414   2.437   5.047  1.7674 -1.8479  2.2270
   20SAPS   C33 2612   3.807   2.837   3.562 -0.5908  0.0135  0.1679
   20SAPS   H3X 2613   3.726   2.882   3.502 -2.1851 -1.2030  1.3181
   20SAPS   H3Y 2614   3.902   2.894   3.566  0.2255 -1.3168  0.4818
   20SAPS   C34 2615   3.742   2.836   3.702 -0.0941  0.1521 -0.2058
   20SAPS   H4X 2616   3.819   2.858   3.779 -0.8836  0.6402  0.4560
   20SAPS   H4Y 2617   3.698   2.737   3.726 -0.0130 -0.6937 -3.0570
   20SAPS   C35 2618   3.626   2.926   3.715  0.6334 -0.0070 -0.7677
   20SAPS   H5X 2619   3.554   2.915   3.632 -0.2983  1.0737 -0.1411
   20SAPS   H5Y 2620   3.669   3.028   3.706  0.2751  0.2035 -0.1392
   20SAPS   C36 2621   3.557   2.913   3.857  0.1422  0.3856  0.4044
   20SAPS   H6X 2622   3.500   2.817   3.851  1.5353 -0.4919  0.7847
   20SAPS   H6Y 2623   3.474   2.988   3.858  1.3139  1.7125  1.7147
   20SAPS   C37 2624   3.652   2.934   3.972  0.3473 -0.0160 -0.4942
   20SAPS   H7X 2625   3.703   3.031   3.956  1.8068  0.0870  3.5969
   20SAPS   H7Y 2626   3.729   2.857   3.992  0.3048  0.0678  0.0200
   20SAPS   C38 2627   3.579   2.952   4.101  0.5893  0.7995 -0.3442
   20SAPS   H8X 2628   3.537   2.851   4.123  1.9449 -0.0738 -1.6227
   20SAPS   H8Y 2629   3.495   3.025   4.090 -0.2711 -0.1567 -0.3252
   20SAPS   C39 2630   3.672   2.997   4.209  0.3017  0.0684 -0.1207
   20SAPS   H9X 2631   3.706   3.101   4.188  0.3377 -0.4206 -2.8635
   20SAPS   H9Y 2632   3.766   2.939   4.197 -0.7306 -1.3973 -1.5272
   20SAPS  C310 2633   3.627   2.985   4.356  0.0724  0.8024  0.5055
   20SAPS  H10X 2634   3.631   2.877   4.381 -0.9414  1.1214  2.2147
   20SAPS  H10Y 2635   3.523   3.020   4.372  0.1581  1.6420 -0.6003
   20SAPS  C311 2636   3.704   3.065   4.461  1.1804  0.0067  0.3882
   20SAPS  H11X 2637   3.710   3.175   4.446 -2.2211  0.2028 -0.4532
   20SAPS  H11Y 2638   3.811   3.034   4.463  0.5391 -2.6007  4.0293
   20SAPS  C312 2639   3.655   3.034   4.602  0.4301  0.6844 -0.3132
   20SAPS  H12X 2640   3.644   2.924   4.592  1.3073  0.4833  0.6832
   20SAPS  H12Y 2641   3.558   3.082   4.624 -0.9376 -1.3647 -1.4849
   20SAPS  C313 2642   3.754   3.061   4.713  0.4426  0.3385  0.8124
   20SAPS  H13X 2643   3.780   3.169   4.721  2.2739 -0.0498  0.5066
   20SAPS  H13Y 2644   3.852   3.016   4.687  0.5091  1.3095 -0.7058
   20SAPS  C314 2645   3.698   3.022   4.848 -0.0050  0.3478  0.5895
   20SAPS  H14X 2646   3.659   2.918   4.851 -0.2238  0.3490 -1.2728
   20SAPS  H14Y 2647   3.612   3.089   4.869 -1.3335 -0.6312 -1.4035
   20SAPS  C315 2648   3.796   3.045   4.959 -0.7078 -0.5112  0.1704
   20SAPS  H15X 2649   3.839   3.146   4.948 -0.4067 -0.8124 -1.8856
   20SAPS  H15Y 2650   3.889   2.989   4.936  0.3117  1.7627 -1.5509
   20SAPS  C316 2651   3.749   3.025   5.098  0.1297  0.0965  1.1283
   20SAPS  H16X 2652   3.757   2.916   5.119 -1.2240 -0.1567  0.4160
   20SAPS  H16Y 2653   3.643   3.049   5.118 -0.3463 -2.2363  1.7065
   20SAPS  C317 2654   3.832   3.110   5.201 -0.3715  0.3024 -0.6539
   20SAPS  H17X 2655   3.778   3.093   5.297  0.3954 -0.6960 -0.3784
   20SAPS  H17Y 2656   3.812   3.216   5.172 -3.0236  0.3975  1.1455
   20SAPS  C318 2657   3.979   3.076   5.225 -0.8631 -0.0595  0.6308
   20SAPS  H18X 2658   4.017   3.129   5.315 -0.8438  1.3430 -0.1801
   20SAPS  H18Y 2659   4.024   3.114   5.131  0.5729  0.8740  1.6390
   20SAPS  H18Z 2660   3.992   2.967   5.245  1.8787 -0.3360 -1.9188
   21CHL1    C3 2661   0.253   6.786   7.128 -0.8547  0.4339  0.6968
   21CHL1    H3 2662   0.210   6.888   7.133  1.4314  1.4977 -0.0095
   21CHL1    O3 2663   0.253   6.720   7.256 -0.0664 -0.3892  0.2220
   21CHL1   H3' 2664   0.296   6.636   7.238 -0.8562 -1.0128  1.1328
   21CHL1    C4 2665   0.162   6.693   7.044 -0.6261 -0.2589  0.1009
   21CHL1   H4A 2666   0.188   6.587   7.062  2.4432  0.8185  3.1968
   21CHL1   H4B 2667   0.055   6.707   7.073 -1.1400 -0.9794 -1.3537
   21CHL1    C5 2668   0.172   6.736   6.897  0.4906 -0.8547 -0.3880
   21CHL1    C6 2669   0.063   6.771   6.831 -0.2003 -0.1953  0.0190
   21CHL1    H6 2670  -0.034   6.780   6.882  0.7556 -0.2118  1.9293
   21CHL1    C7 2671   0.053   6.791   6.685  0.2850  0.0218 -0.5938
   21CHL1   H7A 2672  -0.037   6.734   6.653 -0.0774 -0.2773  0.8925
   21CHL1   H7B 2673   0.036   6.897   6.659 -0.4900 -0.5209 -2.4909
   21CHL1    C8 2674   0.182   6.742   6.618 -0.0780 -0.2584 -0.8971
   21CHL1    H8 2675   0.190   6.632   6.622  0.5782 -0.2228 -1.0852
   21CHL1   C14 2676   0.187   6.783   6.479  0.4159 -0.7093  0.9629
   21CHL1   H14 2677   0.174   6.893   6.482 -1.7545 -0.9292  2.3133
   21CHL1   C15 2678   0.062   6.733   6.391 -0.4063  0.1659  0.3661
   21CHL1  H15A 2679   0.050   6.625   6.410 -1.0845  0.0234 -0.8045
   21CHL1  H15B 2680  -0.031   6.785   6.420  0.3153  1.2149  0.8928
   21CHL1   C16 2681   0.112   6.760   6.245  0.2575 -0.5206 -0.3898
   21CHL1  H16A 2682   0.113   6.663   6.192  1.0685 -0.6891 -0.0954
   21CHL1  H16B 2683   0.053   6.833   6.186  2.7384  1.2422 -0.8860
   21CHL1   C17 2684   0.260   6.820   6.251 -0.2157 -0.2440 -0.1509
   21CHL1   H17 2685   0.245   6.929   6.269  0.0231 -0.5118  1.9513
   21CHL1   C13 2686   0.313   6.764   6.384  0.0080  0.3896  0.3063
   21CHL1   C18 2687   0.342   6.610   6.371  0.9629  0.1242 -0.8487
   21CHL1  H18A 2688   0.428   6.597   6.302  1.3494 -0.4077 -0.2816
   21CHL1  H18B 2689   0.363   6.560   6.468 -0.4505 -0.7695 -0.9763
   21CHL1  H18C 2690   0.255   6.555   6.328  0.3535  1.1575 -0.9655
   21CHL1   C12 2691   0.421   6.844   6.453 -0.8136  0.4652 -0.3513
   21CHL1  H12A 2692   0.516   6.826   6.399  0.5312  1.7700  1.4722
   21CHL1  H12B 2693   0.398   6.953   6.451 -3.0306  0.0819 -3.1364
   21CHL1   C11 2694   0.438   6.799   6.597 -0.3359 -0.0911 -0.0724
   21CHL1  H11A 2695   0.489   6.701   6.596  0.1406  0.1322  1.1421
   21CHL1  H11B 2696   0.507   6.875   6.639 -0.2533  1.8761 -3.4140
   21CHL1    C9 2697   0.306   6.795   6.685 -0.0111 -0.2600  0.2730
   21CHL1    H9 2698   0.293   6.905   6.699  1.4172  0.2220 -1.7861
   21CHL1   C10 2699   0.314   6.740   6.827  0.0696 -0.3590 -0.3616
   21CHL1   C19 2700   0.365   6.596   6.827 -0.1075  0.2016 -0.2914
   21CHL1  H19A 2701   0.369   6.545   6.925  0.9923  0.8110 -0.0093
   21CHL1  H19B 2702   0.296   6.534   6.766 -1.4649  1.6629 -0.2949
   21CHL1  H19C 2703   0.465   6.586   6.780 -0.4548 -0.8580 -0.8332
   21CHL1    C1 2704   0.406   6.824   6.916 -0.3263 -0.9118 -0.0579
   21CHL1   H1A 2705   0.509   6.801   6.880 -0.6092 -1.5879 -0.4734
   21CHL1   H1B 2706   0.390   6.933   6.906 -0.4819 -0.7857  1.3966
   21CHL1    C2 2707   0.401   6.793   7.070 -0.3440 -0.7795  0.0301
   21CHL1   H2A 2708   0.465   6.860   7.131 -2.1189  0.3884  0.6888
   21CHL1   H2B 2709   0.446   6.693   7.085  2.3523 -0.1554 -2.7307
   21CHL1   C20 2710   0.340   6.803   6.121  0.1815 -0.6300  0.4323
   21CHL1   H20 2711   0.338   6.693   6.104 -1.3507 -0.8816  1.9746
   21CHL1   C21 2712   0.491   6.834   6.119 -0.0355  0.0627  0.1091
   21CHL1  H21A 2713   0.511   6.939   6.150 -2.0854  0.6617 -0.4549
   21CHL1  H21B 2714   0.543   6.815   6.023  1.7854  2.4946  0.5262
   21CHL1  H21C 2715   0.543   6.764   6.188 -2.7811 -1.3800  0.8534
   21CHL1   C22 2716   0.271   6.871   5.992  0.0305  0.2424 -0.6712
   21CHL1  H22A 2717   0.177   6.922   6.022  0.3263  0.0896  0.5672
   21CHL1  H22B 2718   0.337   6.953   5.957 -1.1231  1.2942 -0.4724
   21CHL1   C23 2719   0.242   6.767   5.885  0.1933 -0.5177  0.0361
   21CHL1  H23A 2720   0.338   6.716   5.860 -1.1594 -3.0334 -0.3718
   21CHL1  H23B 2721   0.187   6.682   5.930 -0.0080  0.0292  0.8423
   21CHL1   C24 2722   0.180   6.809   5.751  0.1672  0.3600  0.0913
   21CHL1  H24A 2723   0.236   6.898   5.715 -0.5540 -0.6439 -4.0434
   21CHL1  H24B 2724   0.190   6.727   5.677  0.7677 -1.8732  2.4955
   21CHL1   C25 2725   0.035   6.856   5.770 -0.1942 -0.3968 -0.4047
   21CHL1   H25 2726   0.055   6.949   5.828  2.3836 -1.2362  0.1992
   21CHL1   C26 2727  -0.025   6.892   5.639 -0.0108  0.4147  0.2380
   21CHL1  H26A 2728   0.029   6.976   5.590  1.7656 -1.0352 -0.4201
   21CHL1  H26B 2729  -0.013   6.813   5.562 -0.1335  0.8610 -0.2477
   21CHL1  H26C 2730  -0.127   6.930   5.659 -0.5664 -1.8259  2.0151
   21CHL1   C27 2731  -0.049   6.755   5.854  0.0863 -0.9623  0.6727
   21CHL1  H27A 2732  -0.010   6.747   5.958 -1.0635  3.0008  1.6133
   21CHL1  H27B 2733  -0.154   6.790   5.863  0.1583 -1.1315  2.5362
   21CHL1  H27C 2734  -0.053   6.657   5.804 -1.6078 -1.6374  2.0125
   22CHL1    C3 2735   0.637   4.839   6.868 -0.4180 -0.4487  0.1412
   22CHL1    H3 2736   0.652   4.738   6.824  0.5198  0.4178 -1.6480
   22CHL1    O3 2737   0.682   4.833   7.005  0.3581 -0.2321  0.3578
   22CHL1   H3' 2738   0.627   4.897   7.052  0.6418  0.3821 -0.1302
   22CHL1    C4 2739   0.731   4.944   6.790  0.4800  0.4630 -0.6609
   22CHL1   H4A 2740   0.747   5.037   6.849  0.9700 -0.1314  0.1584
   22CHL1   H4B 2741   0.829   4.892   6.788  1.3387  1.8370  1.5959
   22CHL1    C5 2742   0.682   4.968   6.647  0.0878 -0.4291 -0.1783
   22CHL1    C6 2743   0.761   4.955   6.534  0.1327  0.2608 -0.0784
   22CHL1    H6 2744   0.866   4.923   6.544  0.6116  1.5264 -0.8116
   22CHL1    C7 2745   0.710   4.971   6.389 -0.0705 -0.5263 -0.2737
   22CHL1   H7A 2746   0.781   5.032   6.330  0.8264 -0.7885  0.4901
   22CHL1   H7B 2747   0.712   4.870   6.341 -0.9189 -0.1822 -1.0511
   22CHL1    C8 2748   0.570   5.036   6.386 -0.4746  0.1421  0.9870
   22CHL1    H8 2749   0.573   5.146   6.397 -3.1170  0.2870  0.8998
   22CHL1   C14 2750   0.513   5.008   6.242  0.6563 -0.5505 -0.2230
   22CHL1   H14 2751   0.477   4.902   6.241  0.1223 -0.3759  0.0285
   22CHL1   C15 2752   0.602   5.046   6.125  0.3090 -0.3822  0.4809
   22CHL1  H15A 2753   0.641   5.147   6.145 -0.8172 -0.3097  2.5563
   22CHL1  H15B 2754   0.688   4.977   6.110 -2.2538 -3.7315 -0.0225
   22CHL1   C16 2755   0.506   5.044   6.000  0.0945  0.5490 -0.5090
   22CHL1  H16A 2756   0.510   5.141   5.946  0.2877  0.8028 -0.0395
   22CHL1  H16B 2757   0.532   4.956   5.937 -0.0499 -0.3076  0.5875
   22CHL1   C17 2758   0.359   5.029   6.056  0.5418  0.7785 -0.0807
   22CHL1   H17 2759   0.333   4.921   6.051  1.8476  0.4839 -1.7004
   22CHL1   C13 2760   0.371   5.075   6.203 -0.5787  0.3845 -0.3779
   22CHL1   C18 2761   0.377   5.231   6.218 -0.3719 -1.6250  0.1167
   22CHL1  H18A 2762   0.372   5.266   6.323  1.0157  0.2616 -0.3827
   22CHL1  H18B 2763   0.471   5.281   6.185 -0.7424 -0.8835  0.1643
   22CHL1  H18C 2764   0.290   5.267   6.159 -0.0745 -3.1079 -1.2972
   22CHL1   C12 2765   0.274   5.014   6.307 -0.2634 -0.9656 -0.9563
   22CHL1  H12A 2766   0.183   5.077   6.306  0.0149 -0.4122  1.6309
   22CHL1  H12B 2767   0.248   4.911   6.273  1.7066 -1.6417 -0.5680
   22CHL1   C11 2768   0.327   5.031   6.457 -0.4214 -0.3182  0.0238
   22CHL1  H11A 2769   0.310   5.140   6.472  0.4002 -0.2606  0.6143
   22CHL1  H11B 2770   0.260   4.972   6.524  0.9717  0.0000  1.7923
   22CHL1    C9 2771   0.476   4.982   6.485  0.0171 -0.1099 -0.3764
   22CHL1    H9 2772   0.459   4.874   6.464 -0.7312 -0.1359  0.2844
   22CHL1   C10 2773   0.531   5.001   6.634 -0.1178 -0.2360 -0.2261
   22CHL1   C19 2774   0.503   5.149   6.663  0.0341 -0.1607  0.0025
   22CHL1  H19A 2775   0.544   5.229   6.598  0.9827 -0.3240  0.3733
   22CHL1  H19B 2776   0.394   5.161   6.677  0.1012  3.4776 -1.4553
   22CHL1  H19C 2777   0.550   5.175   6.760  0.6337  0.5790 -0.4712
   22CHL1    C1 2778   0.447   4.901   6.727  0.0155 -0.2753  0.5260
   22CHL1   H1A 2779   0.339   4.926   6.718  0.1379  0.6599  1.4442
   22CHL1   H1B 2780   0.469   4.806   6.675  0.6599 -0.6194  1.4238
   22CHL1    C2 2781   0.492   4.883   6.868 -0.2395  0.2506  0.0760
   22CHL1   H2A 2782   0.437   4.799   6.916  0.4222 -1.2342 -1.6825
   22CHL1   H2B 2783   0.490   4.981   6.921  2.5479  0.9245 -0.9006
   22CHL1   C20 2784   0.251   5.082   5.962  0.1936  0.2242  0.2548
   22CHL1   H20 2785   0.255   5.192   5.950 -0.7118  0.0597 -2.0486
   22CHL1   C21 2786   0.111   5.058   6.027 -0.5826 -0.0227  0.1130
   22CHL1  H21A 2787   0.034   5.102   5.961  1.2960  2.0460 -0.8298
   22CHL1  H21B 2788   0.102   5.118   6.121 -2.2752  2.8482 -1.7454
   22CHL1  H21C 2789   0.099   4.950   6.051 -3.2099 -0.0037 -0.7762
   22CHL1   C22 2790   0.255   5.028   5.824  0.1088 -0.1802  0.1731
   22CHL1  H22A 2791   0.356   5.017   5.779  0.4550  1.3666  0.5175
   22CHL1  H22B 2792   0.198   4.933   5.826  0.6336 -0.4977  0.1836
   22CHL1   C23 2793   0.168   5.105   5.721  0.4897 -0.2118 -0.3763
   22CHL1  H23A 2794   0.064   5.093   5.758  0.1806 -1.4324 -1.6038
   22CHL1  H23B 2795   0.192   5.214   5.725  3.4578 -0.7985  0.4290
   22CHL1   C24 2796   0.180   5.048   5.581  0.2660 -0.2742  0.4495
   22CHL1  H24A 2797   0.279   5.076   5.538  0.7295 -2.6783 -0.2013
   22CHL1  H24B 2798   0.192   4.938   5.583 -1.8780 -0.5290  1.1439
   22CHL1   C25 2799   0.063   5.085   5.486  0.4064 -0.2702 -0.3275
   22CHL1   H25 2800   0.067   5.194   5.464 -0.8712 -0.6845 -3.0048
   22CHL1   C26 2801   0.075   5.016   5.353  0.1019 -0.0708  0.0593
   22CHL1  H26A 2802   0.040   5.077   5.267 -0.4679  1.2859  1.2040
   22CHL1  H26B 2803   0.185   5.012   5.336  0.6175  3.5393  1.4869
   22CHL1  H26C 2804   0.021   4.921   5.369 -0.6255  0.4847  1.0589
   22CHL1   C27 2805  -0.078   5.057   5.538 -0.1770  0.3224 -0.3865
   22CHL1  H27A 2806  -0.151   5.079   5.457 -0.1367 -1.9357 -1.0837
   22CHL1  H27B 2807  -0.102   4.951   5.558 -2.1306  0.8637  0.3625
   22CHL1  H27C 2808  -0.110   5.123   5.622 -1.8797  0.0258 -0.7644
   23CHL1    C3 2809   6.648   1.142   7.429  0.0571 -0.1404 -0.0287
   23CHL1    H3 2810   6.649   1.247   7.465 -1.3564 -0.0537 -0.1885
   23CHL1    O3 2811   6.638   1.061   7.545 -0.0381  0.0930  0.0726
   23CHL1   H3' 2812   6.568   1.099   7.599  1.5486  0.0635  2.2822
   23CHL1    C4 2813   6.521   1.133   7.350 -0.5409  0.1818  0.4031
   23CHL1   H4A 2814   6.489   1.032   7.317 -1.4824  0.7479 -0.4634
   23CHL1   H4B 2815   6.439   1.182   7.406 -1.5772 -2.6045  1.4736
   23CHL1    C5 2816   6.537   1.212   7.222 -1.0970  0.6377 -0.5896
   23CHL1    C6 2817   6.458   1.317   7.201 -0.1580  0.0608 -0.0031
   23CHL1    H6 2818   6.383   1.337   7.279 -0.1807 -2.3669  0.6890
   23CHL1    C7 2819   6.470   1.401   7.080  0.1769  0.0559 -0.0009
   23CHL1   H7A 2820   6.367   1.426   7.048  0.8528  0.2197 -2.2269
   23CHL1   H7B 2821   6.507   1.503   7.101  1.7048 -0.6967  1.1677
   23CHL1    C8 2822   6.532   1.330   6.954 -0.3028  1.1421 -0.3574
   23CHL1    H8 2823   6.468   1.244   6.925  4.1804 -2.3142 -1.1414
   23CHL1   C14 2824   6.555   1.426   6.842 -0.1922  0.7843 -0.4559
   23CHL1   H14 2825   6.624   1.501   6.885 -0.2203 -0.4884  2.0245
   23CHL1   C15 2826   6.439   1.502   6.789  0.6947 -0.2080  0.6832
   23CHL1  H15A 2827   6.346   1.448   6.764 -0.5717  2.6323 -1.2271
   23CHL1  H15B 2828   6.417   1.580   6.865 -1.9344  0.6659 -0.8667
   23CHL1   C16 2829   6.492   1.558   6.651 -0.7901  0.1980  0.1488
   23CHL1  H16A 2830   6.422   1.529   6.570  0.9216 -0.7734 -1.0468
   23CHL1  H16B 2831   6.511   1.665   6.670  1.4278 -0.2928  1.0127
   23CHL1   C17 2832   6.634   1.489   6.630  0.0586 -0.6491 -0.6372
   23CHL1   H17 2833   6.718   1.557   6.656  0.0821 -1.1764  0.7068
   23CHL1   C13 2834   6.634   1.366   6.728  0.6495 -0.0928  0.3880
   23CHL1   C18 2835   6.565   1.243   6.658  0.2032 -0.3198 -0.3651
   23CHL1  H18A 2836   6.548   1.163   6.733  2.1424  1.3593  2.0029
   23CHL1  H18B 2837   6.465   1.275   6.620  1.2016  1.7857 -1.3466
   23CHL1  H18C 2838   6.608   1.200   6.565 -1.4845  0.3183 -1.4865
   23CHL1   C12 2839   6.782   1.329   6.788 -0.1104 -0.2796  0.3610
   23CHL1  H12A 2840   6.840   1.295   6.699 -1.8715  3.1700 -2.4041
   23CHL1  H12B 2841   6.819   1.430   6.818 -2.7790  0.2903  1.9600
   23CHL1   C11 2842   6.770   1.235   6.904 -0.2033 -0.3492  0.5934
   23CHL1  H11A 2843   6.741   1.137   6.860  0.2398  0.0105 -0.5214
   23CHL1  H11B 2844   6.875   1.216   6.936  0.3229  0.8263 -0.3917
   23CHL1    C9 2845   6.669   1.283   7.011 -0.0405 -0.9134  0.1688
   23CHL1    H9 2846   6.718   1.363   7.071 -0.9222 -3.0190  4.0316
   23CHL1   C10 2847   6.656   1.183   7.129 -1.0114  0.1681  0.0244
   23CHL1   C19 2848   6.625   1.040   7.077 -0.1532 -0.7922 -0.6283
   23CHL1  H19A 2849   6.613   0.966   7.159 -0.1067  0.7158  0.7992
   23CHL1  H19B 2850   6.535   1.031   7.013 -0.9873 -0.6171  0.4854
   23CHL1  H19C 2851   6.709   1.008   7.012 -1.0058 -0.6522 -1.8282
   23CHL1    C1 2852   6.783   1.189   7.208  0.7591  0.0354 -0.1585
   23CHL1   H1A 2853   6.861   1.143   7.144  0.7137 -1.4109  0.7675
   23CHL1   H1B 2854   6.824   1.291   7.227  0.2634  0.0863  0.6982
   23CHL1    C2 2855   6.775   1.110   7.341  0.7048 -0.5016  0.7513
   23CHL1   H2A 2856   6.864   1.142   7.399  2.0043 -2.4507 -0.0943
   23CHL1   H2B 2857   6.788   1.001   7.322  1.5677 -0.4607  1.0849
   23CHL1   C20 2858   6.661   1.462   6.483 -0.0819  0.3880 -0.1323
   23CHL1   H20 2859   6.590   1.389   6.440 -0.2320  0.8677 -0.7067
   23CHL1   C21 2860   6.800   1.400   6.459  0.0217  0.3066 -1.2844
   23CHL1  H21A 2861   6.837   1.414   6.355  0.8800 -1.3806 -1.2526
   23CHL1  H21B 2862   6.800   1.292   6.484  1.1666  0.4994 -0.3361
   23CHL1  H21C 2863   6.874   1.451   6.525 -0.6071 -1.1410  0.6549
   23CHL1   C22 2864   6.661   1.592   6.392  0.3802  0.2246 -0.3971
   23CHL1  H22A 2865   6.601   1.672   6.439  0.8486  0.0771  0.4705
   23CHL1  H22B 2866   6.762   1.638   6.389 -0.5443  2.3209 -1.1100
   23CHL1   C23 2867   6.641   1.559   6.240  0.7169 -0.5032  0.1652
   23CHL1  H23A 2868   6.734   1.515   6.198  1.4845 -2.2787  3.4136
   23CHL1  H23B 2869   6.551   1.493   6.236 -1.4558  2.2237  0.5866
   23CHL1   C24 2870   6.621   1.684   6.159  0.1696  0.6267  0.1870
   23CHL1  H24A 2871   6.535   1.750   6.183  0.3222  0.8364  0.1540
   23CHL1  H24B 2872   6.709   1.750   6.172  0.1584  0.4014  1.6316
   23CHL1   C25 2873   6.616   1.652   6.007  0.1500  0.1744 -0.9364
   23CHL1   H25 2874   6.694   1.579   5.973  0.3074 -0.6401  1.0319
   23CHL1   C26 2875   6.483   1.604   5.971 -0.5697  0.0045 -0.1824
   23CHL1  H26A 2876   6.405   1.680   5.991 -0.1276  0.5700 -0.5642
   23CHL1  H26B 2877   6.473   1.583   5.862 -1.0208 -0.0795 -0.1275
   23CHL1  H26C 2878   6.466   1.507   6.024  0.5140 -0.7899 -1.2248
   23CHL1   C27 2879   6.636   1.786   5.926 -0.0490 -0.2517 -0.6204
   23CHL1  H27A 2880   6.555   1.860   5.941  1.0312  1.2285 -1.7321
   23CHL1  H27B 2881   6.729   1.842   5.949 -0.9417  1.6195 -1.3472
   23CHL1  H27C 2882   6.626   1.767   5.817 -1.2491 -1.2179 -0.3669
   24CHL1    C3 2883   0.741   0.616   7.279  0.3598 -0.3464 -0.0631
   24CHL1    H3 2884   0.782   0.693   7.210 -2.6567  2.4618  1.0299
   24CHL1    O3 2885   0.790   0.623   7.416  0.5677  0.3587 -0.0195
   24CHL1   H3' 2886   0.728   0.565   7.461 -0.8025  0.5690 -1.5432
   24CHL1    C4 2887   0.583   0.609   7.257 -0.2674  0.1430  0.5035
   24CHL1   H4A 2888   0.542   0.524   7.316  0.3573 -0.7550 -0.3201
   24CHL1   H4B 2889   0.536   0.701   7.298 -0.6845  0.8005 -1.3368
   24CHL1    C5 2890   0.541   0.598   7.109 -0.3047 -0.4444  0.0009
   24CHL1    C6 2891   0.463   0.683   7.049  0.5683  0.9678  0.5789
   24CHL1    H6 2892   0.410   0.763   7.103  1.2223  0.9241  1.2946
   24CHL1    C7 2893   0.428   0.669   6.901 -1.0409  0.5244  0.4463
   24CHL1   H7A 2894   0.323   0.684   6.869 -0.6743 -2.2085 -2.4459
   24CHL1   H7B 2895   0.494   0.739   6.846 -0.1937  0.2600  1.1100
   24CHL1    C8 2896   0.461   0.536   6.835 -0.0602 -0.2576  0.5202
   24CHL1    H8 2897   0.380   0.469   6.870  0.4288 -0.2911  1.6315
   24CHL1   C14 2898   0.465   0.551   6.683 -0.0721 -0.4564  0.1706
   24CHL1   H14 2899   0.541   0.629   6.662 -0.2506  0.3082  2.1260
   24CHL1   C15 2900   0.338   0.597   6.610  0.6768  0.1537 -0.1570
   24CHL1  H15A 2901   0.247   0.550   6.653  2.0311 -2.3316  0.1902
   24CHL1  H15B 2902   0.326   0.706   6.626 -1.1086  0.0108 -0.3510
   24CHL1   C16 2903   0.348   0.548   6.467  0.0153 -0.4560 -0.0560
   24CHL1  H16A 2904   0.263   0.483   6.436 -0.3524 -0.0165  0.0231
   24CHL1  H16B 2905   0.371   0.622   6.387 -0.1488 -0.1113  0.2175
   24CHL1   C17 2906   0.478   0.456   6.467 -0.5243  0.2983 -1.1173
   24CHL1   H17 2907   0.562   0.525   6.444  0.5310 -1.5510 -3.1891
   24CHL1   C13 2908   0.497   0.415   6.610 -0.5605  0.1638 -0.1553
   24CHL1   C18 2909   0.386   0.307   6.647  0.3899  0.0673  0.6265
   24CHL1  H18A 2910   0.365   0.293   6.756  2.3608  0.4316  1.0934
   24CHL1  H18B 2911   0.289   0.335   6.600  2.3399  1.5908 -2.8145
   24CHL1  H18C 2912   0.419   0.210   6.603 -1.4562 -0.7720  0.9869
   24CHL1   C12 2913   0.637   0.373   6.654  0.3121  0.2296 -0.8127
   24CHL1  H12A 2914   0.676   0.277   6.614  1.4491 -0.4537  1.6948
   24CHL1  H12B 2915   0.705   0.454   6.621 -0.8881  2.2295  1.2926
   24CHL1   C11 2916   0.647   0.361   6.805  0.0276 -0.4936 -0.6940
   24CHL1  H11A 2917   0.589   0.271   6.836  2.0967 -1.7720 -0.3172
   24CHL1  H11B 2918   0.747   0.327   6.838 -0.5437  0.2056  2.0014
   24CHL1    C9 2919   0.602   0.491   6.884 -0.1295 -0.7395  0.1240
   24CHL1    H9 2920   0.669   0.574   6.853  0.8605 -0.4486  2.7989
   24CHL1   C10 2921   0.609   0.478   7.035 -0.0724 -0.0274  0.4844
   24CHL1   C19 2922   0.543   0.346   7.084 -0.5728  0.3634  0.1047
   24CHL1  H19A 2923   0.611   0.262   7.060  1.3378  1.6490  0.7045
   24CHL1  H19B 2924   0.534   0.346   7.194  1.3708  1.1489  0.3020
   24CHL1  H19C 2925   0.440   0.340   7.043 -0.0631 -0.2213 -1.1442
   24CHL1    C1 2926   0.763   0.474   7.074 -0.3554 -0.1076  0.6371
   24CHL1   H1A 2927   0.803   0.379   7.031  1.3335  0.4085  1.0250
   24CHL1   H1B 2928   0.812   0.561   7.027  0.2026 -0.2160  1.0127
   24CHL1    C2 2929   0.796   0.485   7.220 -0.5565 -0.0568 -0.6509
   24CHL1   H2A 2930   0.904   0.474   7.239 -1.0379 -1.1390  1.8365
   24CHL1   H2B 2931   0.738   0.408   7.275 -1.0766  1.2014  0.6427
   24CHL1   C20 2932   0.470   0.352   6.351 -0.5431 -1.6232 -0.1931
   24CHL1   H20 2933   0.377   0.293   6.364 -2.1037  0.4351 -1.4008
   24CHL1   C21 2934   0.585   0.253   6.341 -0.0671  1.0094 -0.3489
   24CHL1  H21A 2935   0.675   0.301   6.298  1.0906 -0.5699  0.2304
   24CHL1  H21B 2936   0.563   0.161   6.284 -0.4193  0.1616  1.0925
   24CHL1  H21C 2937   0.618   0.212   6.439  0.1551  3.1964  0.5618
   24CHL1   C22 2938   0.457   0.419   6.212  0.4651 -0.0782  0.3856
   24CHL1  H22A 2939   0.445   0.529   6.224  0.4580 -0.1642  1.2047
   24CHL1  H22B 2940   0.551   0.395   6.159 -0.7789 -0.3281 -1.8523
   24CHL1   C23 2941   0.335   0.365   6.138 -0.2581  0.0990 -0.2199
   24CHL1  H23A 2942   0.354   0.268   6.086  0.5656  0.8825 -1.4414
   24CHL1  H23B 2943   0.249   0.345   6.204 -0.7051  2.7607  0.0869
   24CHL1   C24 2944   0.280   0.471   6.038 -0.4324  0.1798 -0.4082
   24CHL1  H24A 2945   0.197   0.415   5.989 -0.9238  1.6357 -1.2967
   24CHL1  H24B 2946   0.246   0.560   6.094 -0.8342 -1.9314  3.0239
   24CHL1   C25 2947   0.388   0.501   5.934 -0.0782  0.3960  0.2463
   24CHL1   H25 2948   0.477   0.531   5.993  0.8373 -0.2566 -0.7686
   24CHL1   C26 2949   0.414   0.376   5.844  0.0663 -0.0984 -0.0976
   24CHL1  H26A 2950   0.314   0.348   5.805 -1.2190  1.1892  2.0476
   24CHL1  H26B 2951   0.474   0.406   5.756 -1.4059  0.0169 -1.1055
   24CHL1  H26C 2952   0.458   0.292   5.902  0.8877  1.1465  1.1581
   24CHL1   C27 2953   0.339   0.612   5.847 -0.6113  0.6287 -0.2159
   24CHL1  H27A 2954   0.325   0.700   5.913  0.7069  0.1527  0.7684
   24CHL1  H27B 2955   0.414   0.634   5.768  0.8737  0.9991  1.2218
   24CHL1  H27C 2956   0.246   0.591   5.791  1.5453  1.4371 -4.5606
   25CHL1    C3 2957   5.632   1.701   6.773  0.0844  0.0736 -0.6030
   25CHL1    H3 2958   5.562   1.787   6.772 -0.3300 -0.2630 -0.5029
   25CHL1    O3 2959   5.631   1.645   6.903  0.2294 -0.2722  0.2222
   25CHL1   H3' 2960   5.655   1.713   6.967  1.6449 -1.0553  0.5735
   25CHL1    C4 2961   5.583   1.593   6.673  0.0345 -0.4148  0.2058
   25CHL1   H4A 2962   5.626   1.497   6.709 -1.1109  0.2147  3.5947
   25CHL1   H4B 2963   5.474   1.579   6.691  0.0776  0.2832  1.0638
   25CHL1    C5 2964   5.617   1.628   6.526  0.2046 -0.1674 -0.1530
   25CHL1    C6 2965   5.523   1.622   6.434  0.0717  0.0638 -0.3832
   25CHL1    H6 2966   5.425   1.582   6.464  0.3579 -1.5382 -1.4201
   25CHL1    C7 2967   5.543   1.618   6.289 -0.0415  0.9563  0.6022
   25CHL1   H7A 2968   5.485   1.543   6.230 -1.8810  2.1904  0.7502
   25CHL1   H7B 2969   5.512   1.712   6.239  0.9941  0.3681 -1.2670
   25CHL1    C8 2970   5.694   1.609   6.254 -0.7705 -0.2076  0.8799
   25CHL1    H8 2971   5.724   1.504   6.272 -0.4115 -0.2338  0.1473
   25CHL1   C14 2972   5.729   1.646   6.112 -0.2809 -0.2858 -0.2884
   25CHL1   H14 2973   5.722   1.757   6.110  1.6973 -0.1187  0.0421
   25CHL1   C15 2974   5.641   1.593   6.001  0.2611 -0.1469  0.3150
   25CHL1  H15A 2975   5.626   1.486   6.029 -0.9699  0.3402  1.6123
   25CHL1  H15B 2976   5.539   1.636   5.995  0.0451 -0.6157  0.5778
   25CHL1   C16 2977   5.730   1.612   5.881 -0.4202  0.1966  0.1166
   25CHL1  H16A 2978   5.739   1.532   5.804 -0.2806  1.5977 -1.3880
   25CHL1  H16B 2979   5.688   1.698   5.823 -0.1256 -0.9655 -1.9286
   25CHL1   C17 2980   5.870   1.663   5.927 -0.6453 -0.3220  0.3712
   25CHL1   H17 2981   5.863   1.774   5.923  2.9482 -0.0227 -1.0153
   25CHL1   C13 2982   5.876   1.619   6.073 -0.4482  0.2351 -0.1794
   25CHL1   C18 2983   5.919   1.468   6.065 -0.3426 -0.0597 -0.3200
   25CHL1  H18A 2984   6.015   1.465   6.009  0.2393 -1.8305  0.6824
   25CHL1  H18B 2985   5.931   1.432   6.169  1.2449 -0.8276 -0.7381
   25CHL1  H18C 2986   5.836   1.411   6.017 -1.3657 -0.3073  1.6588
   25CHL1   C12 2987   5.972   1.701   6.165  0.4658  0.1725 -0.0932
   25CHL1  H12A 2988   6.079   1.688   6.142  0.1406 -0.0055 -1.5864
   25CHL1  H12B 2989   5.938   1.804   6.142 -1.2666  0.2195  2.2604
   25CHL1   C11 2990   5.943   1.681   6.318  0.2919 -0.2251 -0.6706
   25CHL1  H11A 2991   5.977   1.577   6.339  1.2028  0.5395  2.1309
   25CHL1  H11B 2992   5.994   1.739   6.398  0.3414 -0.1673 -0.7443
   25CHL1    C9 2993   5.789   1.685   6.351  0.1207 -0.6931 -0.0059
   25CHL1    H9 2994   5.756   1.790   6.339 -0.4408 -1.0691 -2.1220
   25CHL1   C10 2995   5.764   1.643   6.504  0.5552  0.1558  0.5986
   25CHL1   C19 2996   5.833   1.510   6.536  0.3852  0.1848 -0.1738
   25CHL1  H19A 2997   5.817   1.474   6.640 -0.3707  0.1111 -0.3106
   25CHL1  H19B 2998   5.808   1.425   6.470  1.1430  0.5896 -0.9965
   25CHL1  H19C 2999   5.944   1.513   6.530  0.3870 -1.1637 -1.4331
   25CHL1    C1 3000   5.812   1.753   6.600 -0.4437 -0.2327 -0.0966
   25CHL1   H1A 3001   5.923   1.751   6.593 -0.3382 -2.1882  1.3459
   25CHL1   H1B 3002   5.758   1.841   6.559 -1.0746 -1.6508 -2.4544
   25CHL1    C2 3003   5.780   1.733   6.753 -0.4044  0.4663 -0.0027
   25CHL1   H2A 3004   5.824   1.814   6.816  0.8593  1.3387 -1.9131
   25CHL1   H2B 3005   5.844   1.645   6.775 -0.4116 -0.0594 -1.9797
   25CHL1   C20 3006   5.976   1.620   5.817  0.2935  0.2520  0.1643
   25CHL1   H20 3007   5.992   1.510   5.816 -0.7684  0.0827 -1.4705
   25CHL1   C21 3008   6.106   1.697   5.847  0.1097  0.0432  0.7129
   25CHL1  H21A 3009   6.186   1.687   5.770  0.2740  1.0378  0.7422
   25CHL1  H21B 3010   6.131   1.657   5.948  1.6142 -2.0136 -0.4003
   25CHL1  H21C 3011   6.092   1.807   5.851  0.7226  0.1859 -0.5650
   25CHL1   C22 3012   5.939   1.662   5.667  0.5750  0.2608 -0.3480
   25CHL1  H22A 3013   5.840   1.619   5.642 -0.0659  1.9299 -0.7797
   25CHL1  H22B 3014   5.933   1.771   5.648 -1.1494  0.1058 -0.8088
   25CHL1   C23 3015   6.032   1.605   5.556 -0.6189  0.0027 -0.0949
   25CHL1  H23A 3016   6.138   1.628   5.577 -0.8225  1.5339 -0.6476
   25CHL1  H23B 3017   6.018   1.495   5.561 -0.4257 -0.0385 -0.4128
   25CHL1   C24 3018   5.997   1.674   5.417 -0.3437 -1.1525 -0.3068
   25CHL1  H24A 3019   5.890   1.671   5.390 -0.6684 -1.7187  0.9900
   25CHL1  H24B 3020   6.019   1.781   5.439 -0.6410 -1.2425  0.4398
   25CHL1   C25 3021   6.071   1.620   5.297  0.3434 -0.6707  0.5326
   25CHL1   H25 3022   6.052   1.511   5.297 -1.1708 -0.4254  0.3636
   25CHL1   C26 3023   6.019   1.680   5.170  0.6293 -0.3297 -0.2970
   25CHL1  H26A 3024   6.030   1.791   5.168  0.8958 -0.3580 -0.4083
   25CHL1  H26B 3025   6.075   1.651   5.079 -2.2926  0.9146 -2.6702
   25CHL1  H26C 3026   5.913   1.656   5.147  1.2248 -1.6725 -1.8667
   25CHL1   C27 3027   6.217   1.648   5.303 -0.1227  0.6937  0.0017
   25CHL1  H27A 3028   6.242   1.755   5.289  2.0612  0.2287 -0.0879
   25CHL1  H27B 3029   6.254   1.633   5.407 -0.8309 -0.2818  0.1210
   25CHL1  H27C 3030   6.272   1.586   5.229 -1.9722  0.9136 -1.6147
   26CHL1    C3 3031   0.902   6.877   7.026  0.5248 -0.2751 -0.0067
   26CHL1    H3 3032   0.988   6.924   6.974 -1.5145  0.4762 -2.9288
   26CHL1    O3 3033   0.867   6.951   7.144  0.2302 -0.2160  0.9300
   26CHL1   H3' 3034   0.788   6.903   7.173  1.2491 -1.2558  2.1202
   26CHL1    C4 3035   0.788   6.889   6.922 -0.7686 -0.3689  0.6232
   26CHL1   H4A 3036   0.703   6.827   6.958  0.7127 -3.1882 -0.3671
   26CHL1   H4B 3037   0.734   6.985   6.909 -0.4242 -0.2134  0.3434
   26CHL1    C5 3038   0.821   6.821   6.789 -0.7568  0.1102  0.5457
   26CHL1    C6 3039   0.803   6.886   6.676 -0.0557  0.3741 -0.4062
   26CHL1    H6 3040   0.770   6.991   6.676  0.6851  0.6447  1.2478
   26CHL1    C7 3041   0.833   6.827   6.542 -0.2856 -0.6698 -0.2964
   26CHL1   H7A 3042   0.745   6.862   6.483  0.5638  2.0862 -0.0847
   26CHL1   H7B 3043   0.924   6.873   6.497 -0.9251 -0.0525 -0.9942
   26CHL1    C8 3044   0.849   6.673   6.536 -0.0358 -0.5304  0.9200
   26CHL1    H8 3045   0.750   6.629   6.559 -0.1118  0.2450  2.1230
   26CHL1   C14 3046   0.894   6.624   6.398  0.0913 -0.6158 -0.3148
   26CHL1   H14 3047   0.986   6.677   6.366  1.1959 -2.1069  0.2618
   26CHL1   C15 3048   0.798   6.645   6.278 -0.3794 -0.6502  0.2465
   26CHL1  H15A 3049   0.699   6.599   6.295 -0.3773 -1.0006 -0.6500
   26CHL1  H15B 3050   0.785   6.753   6.256 -0.6645 -1.0302 -1.6165
   26CHL1   C16 3051   0.852   6.555   6.174 -0.2568  0.3091 -0.0184
   26CHL1  H16A 3052   0.765   6.505   6.126  0.0746  0.5152 -0.8431
   26CHL1  H16B 3053   0.915   6.603   6.097  0.7728  0.4511  0.8753
   26CHL1   C17 3054   0.947   6.456   6.255  0.1110 -0.5051  0.3437
   26CHL1   H17 3055   1.050   6.496   6.240 -0.4515  0.2631 -1.8826
   26CHL1   C13 3056   0.924   6.477   6.407 -0.5587 -0.1023 -0.0380
   26CHL1   C18 3057   0.797   6.401   6.448 -0.0751  0.6691  0.4402
   26CHL1  H18A 3058   0.710   6.415   6.380 -1.1437  1.3976  1.8959
   26CHL1  H18B 3059   0.818   6.292   6.459 -2.6056  0.1789  1.0921
   26CHL1  H18C 3060   0.761   6.437   6.547  1.6579  1.0459  0.9685
   26CHL1   C12 3061   1.037   6.457   6.508 -0.1437  0.0394 -0.7594
   26CHL1  H12A 3062   1.079   6.355   6.523  2.2377  0.9723 -0.7174
   26CHL1  H12B 3063   1.123   6.523   6.486  3.6173 -3.1523  2.6855
   26CHL1   C11 3064   1.004   6.493   6.653 -0.7141 -0.2100 -1.0917
   26CHL1  H11A 3065   0.932   6.423   6.700  0.5323 -0.2500  0.8716
   26CHL1  H11B 3066   1.100   6.499   6.708 -0.3902  1.3552 -1.7502
   26CHL1    C9 3067   0.936   6.637   6.664  0.4879 -0.3952  0.6208
   26CHL1    H9 3068   1.022   6.702   6.637  0.1267 -0.2190 -0.1548
   26CHL1   C10 3069   0.878   6.676   6.805  0.2903 -0.0253  0.4281
   26CHL1   C19 3070   0.764   6.582   6.847  0.4555  0.2331 -0.0758
   26CHL1  H19A 3071   0.800   6.479   6.866 -0.6820 -1.3987 -5.2120
   26CHL1  H19B 3072   0.709   6.629   6.931 -1.6959  0.4601 -1.5311
   26CHL1  H19C 3073   0.695   6.564   6.762 -1.3970 -0.2776  1.4714
   26CHL1    C1 3074   0.989   6.674   6.917 -0.0760 -0.1543  0.6019
   26CHL1   H1A 3075   1.024   6.569   6.927 -1.6259 -0.6714  0.8842
   26CHL1   H1B 3076   1.076   6.735   6.886  0.0877  0.4120  2.1079
   26CHL1    C2 3077   0.941   6.733   7.053  0.1630  0.2871  0.1450
   26CHL1   H2A 3078   1.025   6.743   7.125  1.3917  0.3644 -1.2556
   26CHL1   H2B 3079   0.859   6.666   7.087 -0.1287  0.0397 -1.0160
   26CHL1   C20 3080   0.946   6.313   6.199 -0.6192 -0.3445  0.4446
   26CHL1   H20 3081   0.844   6.271   6.210  0.0282 -1.9693  0.5055
   26CHL1   C21 3082   1.036   6.215   6.283  0.3036  0.1539 -0.3602
   26CHL1  H21A 3083   1.038   6.114   6.236 -1.8590 -1.1749  2.1247
   26CHL1  H21B 3084   0.994   6.188   6.383 -2.3024  2.1628 -0.8219
   26CHL1  H21C 3085   1.139   6.255   6.286  0.5325 -0.4536  0.7267
   26CHL1   C22 3086   0.990   6.299   6.048 -0.3616 -0.1372 -0.4260
   26CHL1  H22A 3087   0.945   6.386   5.994  2.5609  0.2279 -2.5289
   26CHL1  H22B 3088   1.100   6.314   6.049 -0.3157 -0.4719  1.0837
   26CHL1   C23 3089   0.959   6.169   5.978 -0.7881 -0.3374 -0.1746
   26CHL1  H23A 3090   1.017   6.086   6.024 -1.4407 -0.2248  0.8812
   26CHL1  H23B 3091   0.852   6.142   5.991 -1.0172 -1.2159 -3.0486
   26CHL1   C24 3092   0.997   6.192   5.834 -0.3976  0.8580  0.2154
   26CHL1  H24A 3093   0.924   6.265   5.794  0.9955  1.9514 -0.4153
   26CHL1  H24B 3094   1.099   6.230   5.812 -0.5496  0.0933 -2.1427
   26CHL1   C25 3095   0.983   6.066   5.749 -0.1969 -0.3426  0.3562
   26CHL1   H25 3096   0.877   6.033   5.740 -0.3303  0.5625 -5.8446
   26CHL1   C26 3097   1.013   6.088   5.594 -0.0858  0.3696 -0.3286
   26CHL1  H26A 3098   1.120   6.103   5.570  0.2846 -0.0699  0.9802
   26CHL1  H26B 3099   0.990   5.989   5.549 -0.2020  0.8215 -1.2966
   26CHL1  H26C 3100   0.939   6.159   5.551  1.3897  1.2696 -1.4935
   26CHL1   C27 3101   1.074   5.958   5.800  0.2752  0.1986  0.0704
   26CHL1  H27A 3102   1.095   5.879   5.725  0.0627  0.1770  0.0331
   26CHL1  H27B 3103   1.175   5.999   5.823  0.5596  0.8895 -2.1919
   26CHL1  H27C 3104   1.035   5.916   5.895  1.1584 -2.8902 -0.8236
   27CHL1    C3 3105   6.295   6.630   7.006 -0.1299  0.2209  0.3515
   27CHL1    H3 3106   6.299   6.520   6.993  0.2657  0.4151 -1.4186
   27CHL1    O3 3107   6.291   6.671   7.139 -0.5208 -0.6840 -0.0173
   27CHL1   H3' 3108   6.295   6.767   7.128 -1.7205 -0.7715 -1.6492
   27CHL1    C4 3109   6.428   6.690   6.941  0.3308 -0.1091 -0.0973
   27CHL1   H4A 3110   6.413   6.800   6.950 -0.9129 -0.2781  0.0035
   27CHL1   H4B 3111   6.521   6.653   6.990 -0.2941 -0.5052  0.8180
   27CHL1    C5 3112   6.437   6.661   6.791 -0.1231  0.1236  0.2565
   27CHL1    C6 3113   6.549   6.599   6.741 -0.6755  1.4779 -0.3306
   27CHL1    H6 3114   6.630   6.553   6.799 -0.9196 -0.6591 -1.5628
   27CHL1    C7 3115   6.564   6.573   6.592 -0.0689  0.3669  0.1703
   27CHL1   H7A 3116   6.668   6.567   6.554 -0.0907  1.7673 -0.1609
   27CHL1   H7B 3117   6.530   6.468   6.574  3.3143 -0.4902 -2.3084
   27CHL1    C8 3118   6.472   6.668   6.509  0.4267 -0.7003 -0.1611
   27CHL1    H8 3119   6.510   6.770   6.528 -2.2113  0.3159  0.0063
   27CHL1   C14 3120   6.482   6.630   6.366 -0.2516 -0.6751  0.5852
   27CHL1   H14 3121   6.455   6.522   6.365  0.8554 -0.9682  0.8570
   27CHL1   C15 3122   6.625   6.625   6.295 -0.4426 -0.1081  0.5916
   27CHL1  H15A 3123   6.685   6.709   6.336 -0.9194  1.3129 -1.4998
   27CHL1  H15B 3124   6.684   6.534   6.322  1.1374  0.9020  0.6488
   27CHL1   C16 3125   6.599   6.637   6.141 -0.3587 -0.3013 -0.1476
   27CHL1  H16A 3126   6.641   6.735   6.109  0.1310 -0.0036  1.3252
   27CHL1  H16B 3127   6.661   6.569   6.079  0.8669  0.4542  0.2213
   27CHL1   C17 3128   6.443   6.639   6.127  0.1697 -0.4848 -0.3233
   27CHL1   H17 3129   6.416   6.532   6.131  0.7795 -0.5976  1.9177
   27CHL1   C13 3130   6.389   6.699   6.266  0.3594 -0.0133 -0.0822
   27CHL1   C18 3131   6.410   6.856   6.258 -0.1827  0.6609 -0.0357
   27CHL1  H18A 3132   6.332   6.900   6.193  0.1849 -0.2354 -1.1135
   27CHL1  H18B 3133   6.393   6.899   6.359 -1.0040  0.6281 -0.1497
   27CHL1  H18C 3134   6.509   6.882   6.215 -0.3826  0.3589 -0.7001
   27CHL1   C12 3135   6.243   6.671   6.307  0.2870 -0.4849 -0.5540
   27CHL1  H12A 3136   6.171   6.725   6.242  0.4981  2.3550  1.3901
   27CHL1  H12B 3137   6.221   6.562   6.301  0.4314 -0.5128 -0.5906
   27CHL1   C11 3138   6.217   6.705   6.462 -0.5414  0.0582 -0.1326
   27CHL1  H11A 3139   6.211   6.816   6.463  2.9954  0.3661  1.3231
   27CHL1  H11B 3140   6.119   6.662   6.494 -1.5798  2.0038 -0.5412
   27CHL1    C9 3141   6.325   6.652   6.557 -0.1301  0.1417 -0.1854
   27CHL1    H9 3142   6.299   6.544   6.562 -0.7097  0.2738 -0.2298
   27CHL1   C10 3143   6.312   6.703   6.706 -0.4302 -0.0947  0.6283
   27CHL1   C19 3144   6.310   6.854   6.704 -0.6067  0.5659  0.5984
   27CHL1  H19A 3145   6.411   6.896   6.687 -0.4210  0.2854  1.0157
   27CHL1  H19B 3146   6.229   6.904   6.646 -0.9412 -0.6319  0.0100
   27CHL1  H19C 3147   6.279   6.897   6.802  0.0187  2.8710 -0.1459
   27CHL1    C1 3148   6.176   6.653   6.778  0.4821  0.1900  0.0751
   27CHL1   H1A 3149   6.092   6.701   6.725 -0.0123  0.0616  0.7364
   27CHL1   H1B 3150   6.173   6.542   6.770  2.0380  0.2653 -2.9875
   27CHL1    C2 3151   6.166   6.689   6.934 -1.3804  0.4682  0.2439
   27CHL1   H2A 3152   6.088   6.635   6.991  0.9667  1.4010  4.8431
   27CHL1   H2B 3153   6.161   6.799   6.950 -2.2705  0.2986  1.1731
   27CHL1   C20 3154   6.386   6.695   5.995 -0.1298  0.5114 -0.1831
   27CHL1   H20 3155   6.387   6.806   5.997 -0.7151  0.5362 -0.9262
   27CHL1   C21 3156   6.245   6.635   5.982  0.7303 -0.8176 -0.1431
   27CHL1  H21A 3157   6.201   6.645   5.880  0.4533 -0.9500 -0.0384
   27CHL1  H21B 3158   6.170   6.689   6.044  4.6080  1.5302  2.9513
   27CHL1  H21C 3159   6.232   6.528   6.007 -3.4466 -0.1842  1.1885
   27CHL1   C22 3160   6.469   6.642   5.874 -0.0390  0.1915 -0.5388
   27CHL1  H22A 3161   6.579   6.651   5.889 -0.1375  2.2886 -0.8300
   27CHL1  H22B 3162   6.439   6.535   5.871  0.8999 -0.1467  0.9101
   27CHL1   C23 3163   6.443   6.713   5.738  0.3421  0.1611 -0.7280
   27CHL1  H23A 3164   6.479   6.646   5.658  1.9494 -3.3911  2.6345
   27CHL1  H23B 3165   6.332   6.718   5.735  0.2767  0.4290  0.9805
   27CHL1   C24 3166   6.513   6.854   5.731 -0.4061 -0.0742 -0.4106
   27CHL1  H24A 3167   6.505   6.911   5.826 -0.4178  0.8417 -0.9495
   27CHL1  H24B 3168   6.623   6.841   5.725 -0.4694 -2.1033  1.5723
   27CHL1   C25 3169   6.462   6.946   5.616  0.3406  1.0567 -1.3691
   27CHL1   H25 3170   6.351   6.951   5.627  0.5148  1.0728  0.9091
   27CHL1   C26 3171   6.519   7.087   5.637  0.2928 -0.2696  0.5357
   27CHL1  H26A 3172   6.630   7.080   5.639  0.2525 -0.7491  1.2868
   27CHL1  H26B 3173   6.486   7.145   5.548  2.2535  1.2588  0.7500
   27CHL1  H26C 3174   6.469   7.135   5.723 -1.8310  2.1531 -1.8746
   27CHL1   C27 3175   6.499   6.909   5.480  0.0297  0.3360 -0.0487
   27CHL1  H27A 3176   6.450   6.812   5.460 -0.1703  0.3420  0.3878
   27CHL1  H27B 3177   6.601   6.926   5.441 -0.5403 -2.5960 -3.2482
   27CHL1  H27C 3178   6.435   6.963   5.407  0.2022  0.6152  0.0014
   28CHL1    C3 3179   3.056   1.077   7.111  0.0110 -0.2929  0.4536
   28CHL1    H3 3180   3.118   1.169   7.109 -0.5008  0.1448 -3.2050
   28CHL1    O3 3181   3.052   1.028   7.248  0.1754 -0.0403  0.0500
   28CHL1   H3' 3182   3.027   1.110   7.292 -1.5116  1.4926 -3.2870
   28CHL1    C4 3183   2.913   1.105   7.074  0.4949  0.0001 -0.5565
   28CHL1   H4A 3184   2.863   1.008   7.092  3.2846 -1.6121 -0.8347
   28CHL1   H4B 3185   2.868   1.174   7.148 -0.9178 -1.0537 -0.3997
   28CHL1    C5 3186   2.890   1.141   6.930 -0.6617 -0.4049  0.4372
   28CHL1    C6 3187   2.817   1.251   6.899  0.6972 -0.5292 -0.3929
   28CHL1    H6 3188   2.773   1.317   6.975 -1.9958 -1.1183 -1.3641
   28CHL1    C7 3189   2.794   1.285   6.746 -0.0991 -0.0728 -0.2815
   28CHL1   H7A 3190   2.688   1.306   6.720 -0.0427  1.5198  0.6700
   28CHL1   H7B 3191   2.834   1.388   6.731 -0.1336  0.0106  0.1894
   28CHL1    C8 3192   2.854   1.183   6.646  0.3001 -0.4636  0.3716
   28CHL1    H8 3193   2.775   1.114   6.611 -0.1026  0.4819 -0.6294
   28CHL1   C14 3194   2.890   1.262   6.521  0.5017  0.5544  0.5152
   28CHL1   H14 3195   2.979   1.322   6.551  1.5580 -1.0364  0.6666
   28CHL1   C15 3196   2.786   1.352   6.460  0.8803  0.3959 -0.4124
   28CHL1  H15A 3197   2.686   1.303   6.460  0.8041  0.5489 -0.5550
   28CHL1  H15B 3198   2.776   1.449   6.513  0.0464 -0.1618  0.4822
   28CHL1   C16 3199   2.833   1.371   6.314 -0.5214 -0.1728 -0.0341
   28CHL1  H16A 3200   2.749   1.346   6.246 -1.8606  1.8338  0.7835
   28CHL1  H16B 3201   2.856   1.478   6.296  1.8991 -0.4088  1.2820
   28CHL1   C17 3202   2.956   1.285   6.292  0.0280 -0.1372 -0.0750
   28CHL1   H17 3203   3.050   1.337   6.320  0.5414 -2.1506  2.3410
   28CHL1   C13 3204   2.944   1.174   6.402  0.2437 -0.1876 -0.4212
   28CHL1   C18 3205   2.836   1.075   6.346  0.2895 -0.1243 -0.2617
   28CHL1  H18A 3206   2.887   1.017   6.266  0.1814 -0.0219 -0.4051
   28CHL1  H18B 3207   2.799   1.003   6.422  1.6680 -1.3835 -0.7415
   28CHL1  H18C 3208   2.753   1.135   6.303  1.2631  0.2459 -1.6558
   28CHL1   C12 3209   3.066   1.104   6.444 -0.2004 -0.1227  0.1145
   28CHL1  H12A 3210   3.109   1.031   6.372  2.8240  2.0510 -0.4790
   28CHL1  H12B 3211   3.146   1.182   6.450  0.1303 -0.1348 -2.8552
   28CHL1   C11 3212   3.042   1.029   6.581  0.3212 -0.5521  0.2835
   28CHL1  H11A 3213   2.975   0.943   6.559 -1.1992  0.7032 -0.2100
   28CHL1  H11B 3214   3.141   0.991   6.615  0.0229 -0.6303  1.0815
   28CHL1    C9 3215   2.979   1.113   6.695  0.7132  0.1757 -0.1071
   28CHL1    H9 3216   3.050   1.197   6.711  1.9006 -0.8296  0.0998
   28CHL1   C10 3217   2.956   1.044   6.829  0.0129  0.9240  0.7687
   28CHL1   C19 3218   2.878   0.911   6.815 -0.2343  0.7102 -0.2958
   28CHL1  H19A 3219   2.935   0.821   6.781 -2.6094 -0.7314 -0.6676
   28CHL1  H19B 3220   2.848   0.874   6.916  0.9531 -0.4772 -0.3432
   28CHL1  H19C 3221   2.785   0.914   6.756  1.3759  1.4322 -2.9548
   28CHL1    C1 3222   3.091   1.000   6.875 -0.3732  0.0553 -0.8189
   28CHL1   H1A 3223   3.129   0.919   6.810 -1.5044 -0.2496 -1.1321
   28CHL1   H1B 3224   3.158   1.088   6.863 -0.6899  0.4465  0.1463
   28CHL1    C2 3225   3.110   0.967   7.024  0.4652 -0.3061 -0.7441
   28CHL1   H2A 3226   3.219   0.950   7.036  0.9307  3.6387  3.1657
   28CHL1   H2B 3227   3.055   0.873   7.048  1.1050 -0.3924  0.4603
   28CHL1   C20 3228   2.973   1.244   6.143 -0.6067 -0.2831 -0.1773
   28CHL1   H20 3229   2.921   1.151   6.112 -0.5144  0.1170 -1.5899
   28CHL1   C21 3230   3.124   1.204   6.144  0.0010  0.0344  0.4430
   28CHL1  H21A 3231   3.158   1.204   6.038  1.5340 -0.3678  0.9083
   28CHL1  H21B 3232   3.128   1.096   6.170 -0.1618 -0.5381 -1.7188
   28CHL1  H21C 3233   3.192   1.273   6.197 -1.3197  1.7194  0.0339
   28CHL1   C22 3234   2.939   1.353   6.039 -0.3145 -0.2940 -0.0598
   28CHL1  H22A 3235   2.853   1.417   6.067 -1.2409 -0.2768 -2.6703
   28CHL1  H22B 3236   3.017   1.432   6.036 -1.2181  0.5862 -1.5198
   28CHL1   C23 3237   2.920   1.306   5.894  0.5613 -0.8318  0.5812
   28CHL1  H23A 3238   3.007   1.244   5.864  1.0404 -0.3498  0.9597
   28CHL1  H23B 3239   2.828   1.244   5.892 -1.6166  2.1973  0.1675
   28CHL1   C24 3240   2.914   1.427   5.803  0.0560 -0.0392  0.3635
   28CHL1  H24A 3241   2.845   1.501   5.851 -0.6605 -1.1315  1.0529
   28CHL1  H24B 3242   3.015   1.473   5.811 -0.2239  0.7724 -0.5126
   28CHL1   C25 3243   2.881   1.409   5.654  0.1968  1.0216 -0.1247
   28CHL1   H25 3244   2.895   1.511   5.612 -2.1443  0.5880 -2.2003
   28CHL1   C26 3245   2.975   1.320   5.578  0.1378  0.0828  0.6914
   28CHL1  H26A 3246   3.076   1.363   5.565 -0.1844  0.3191 -1.2999
   28CHL1  H26B 3247   2.976   1.214   5.613  0.6620  0.1673  0.9421
   28CHL1  H26C 3248   2.941   1.320   5.472  0.3226  1.3871  0.6192
   28CHL1   C27 3249   2.733   1.359   5.631  0.3872 -0.5130 -0.7778
   28CHL1  H27A 3250   2.697   1.367   5.526 -0.6272 -3.2184 -0.7074
   28CHL1  H27B 3251   2.728   1.256   5.671  2.0294  0.1198  1.1919
   28CHL1  H27C 3252   2.673   1.419   5.702  1.5481 -0.5261  0.2456
   29CHL1    C3 3253   6.763   0.057   7.161 -0.4348  0.2289  0.4364
   29CHL1    H3 3254   6.808  -0.037   7.125  0.1581 -0.9075  3.8011
   29CHL1    O3 3255   6.754   0.043   7.305 -0.4166  0.0502  0.1361
   29CHL1   H3' 3256   6.664   0.055   7.336  0.0626  0.3136  1.4907
   29CHL1    C4 3257   6.835   0.187   7.119 -0.9151 -0.8435  0.2362
   29CHL1   H4A 3258   6.799   0.273   7.179 -0.1039 -0.2319 -0.1434
   29CHL1   H4B 3259   6.933   0.177   7.171 -0.6142 -0.2406 -0.2096
   29CHL1    C5 3260   6.841   0.221   6.967  0.1462  0.7749  0.8008
   29CHL1    C6 3261   6.958   0.241   6.903  0.0141  0.1575  0.3720
   29CHL1    H6 3262   7.049   0.264   6.961 -1.6499  2.2679  2.3689
   29CHL1    C7 3263   6.958   0.271   6.752  1.0537  0.6739 -0.0874
   29CHL1   H7A 3264   7.025   0.357   6.729 -0.3400  1.6562 -0.6270
   29CHL1   H7B 3265   7.002   0.187   6.694 -1.2292 -0.4723 -0.2677
   29CHL1    C8 3266   6.817   0.307   6.684  0.7114 -0.2871  0.3259
   29CHL1    H8 3267   6.792   0.413   6.708 -1.2231 -0.3040 -1.3103
   29CHL1   C14 3268   6.829   0.272   6.537  0.0475  0.3221  0.1542
   29CHL1   H14 3269   6.844   0.162   6.530 -1.2854  0.1257  0.1114
   29CHL1   C15 3270   6.955   0.325   6.461 -0.1919  0.7970  0.3846
   29CHL1  H15A 3271   6.984   0.426   6.497  0.7180  0.0530  1.8339
   29CHL1  H15B 3272   7.041   0.256   6.471 -1.7572 -1.0703  1.7606
   29CHL1   C16 3273   6.921   0.319   6.313  0.2937  0.1222  0.3042
   29CHL1  H16A 3274   6.945   0.415   6.261 -1.5739  0.2798 -0.3147
   29CHL1  H16B 3275   6.982   0.237   6.271 -0.3019 -0.2147  0.0927
   29CHL1   C17 3276   6.774   0.274   6.304  0.6107  0.3942 -0.3213
   29CHL1   H17 3277   6.767   0.164   6.313  0.7591  0.3941 -0.2050
   29CHL1   C13 3278   6.711   0.303   6.449  0.4333  0.1673 -0.5922
   29CHL1   C18 3279   6.675   0.455   6.458 -0.3345  0.5017  0.6826
   29CHL1  H18A 3280   6.770   0.504   6.429  1.1175 -2.3267  0.3780
   29CHL1  H18B 3281   6.602   0.484   6.379  0.5033 -3.0414 -1.5902
   29CHL1  H18C 3282   6.659   0.478   6.565  2.5937 -3.6669  2.2752
   29CHL1   C12 3283   6.591   0.227   6.508 -0.1176 -0.0011  0.9349
   29CHL1  H12A 3284   6.504   0.252   6.444  0.3094  1.7384  0.9662
   29CHL1  H12B 3285   6.602   0.117   6.499 -2.4225 -0.2386  0.4252
   29CHL1   C11 3286   6.572   0.246   6.661 -0.5784  0.5602  0.7083
   29CHL1  H11A 3287   6.538   0.352   6.670 -1.6094  0.8304 -4.0304
   29CHL1  H11B 3288   6.497   0.173   6.698  0.5795 -1.3540 -0.5740
   29CHL1    C9 3289   6.705   0.221   6.738  0.3717  0.3307 -0.2715
   29CHL1    H9 3290   6.734   0.121   6.699  0.3333  0.0158  0.4782
   29CHL1   C10 3291   6.699   0.213   6.895 -0.1841  0.6785 -0.8984
   29CHL1   C19 3292   6.615   0.332   6.939  0.3113  0.4342 -0.0381
   29CHL1  H19A 3293   6.618   0.342   7.049 -1.4240  0.5386  0.0277
   29CHL1  H19B 3294   6.667   0.424   6.903 -1.8269  0.3107 -4.1122
   29CHL1  H19C 3295   6.512   0.342   6.896  0.1993 -1.3563 -0.2485
   29CHL1    C1 3296   6.627   0.086   6.944  0.6528 -0.1344  0.3914
   29CHL1   H1A 3297   6.524   0.093   6.902  1.4799 -0.9907 -1.9679
   29CHL1   H1B 3298   6.660  -0.009   6.895 -0.2770  0.4913 -1.5614
   29CHL1    C2 3299   6.621   0.063   7.097 -0.2373  0.1951  0.4478
   29CHL1   H2A 3300   6.565  -0.031   7.115 -0.8435  0.2609 -0.9800
   29CHL1   H2B 3301   6.572   0.148   7.150  0.2226 -1.4408  3.8029
   29CHL1   C20 3302   6.710   0.324   6.172 -0.1592  0.3237 -0.6323
   29CHL1   H20 3303   6.707   0.434   6.186  4.4050  0.5367  0.4576
   29CHL1   C21 3304   6.567   0.269   6.160  0.3981 -0.0431  0.0535
   29CHL1  H21A 3305   6.558   0.158   6.170 -0.4752 -0.6078 -4.5290
   29CHL1  H21B 3306   6.516   0.290   6.063 -0.2132 -2.2524 -0.1675
   29CHL1  H21C 3307   6.508   0.323   6.237  0.4474  1.7022 -1.0748
   29CHL1   C22 3308   6.791   0.294   6.045 -1.0145 -0.8817 -0.4366
   29CHL1  H22A 3309   6.895   0.334   6.053 -1.8632  1.4323 -0.1862
   29CHL1  H22B 3310   6.811   0.186   6.030 -0.4357 -1.3777  3.0736
   29CHL1   C23 3311   6.740   0.362   5.912 -0.3415  0.7123 -0.1653
   29CHL1  H23A 3312   6.645   0.312   5.884 -0.4745  2.1079 -2.4230
   29CHL1  H23B 3313   6.731   0.470   5.935  1.3693  1.5113 -2.7613
   29CHL1   C24 3314   6.838   0.353   5.789  0.6952 -0.0049  0.1226
   29CHL1  H24A 3315   6.942   0.388   5.802  0.9450 -0.8484  0.4885
   29CHL1  H24B 3316   6.847   0.247   5.757  0.0808 -0.0343  0.0399
   29CHL1   C25 3317   6.794   0.440   5.674 -0.2255  1.0895 -0.1352
   29CHL1   H25 3318   6.685   0.424   5.661 -0.1863  1.4803 -1.0097
   29CHL1   C26 3319   6.832   0.589   5.705 -0.6607 -0.1554 -0.9621
   29CHL1  H26A 3320   6.805   0.606   5.811 -0.6579  3.5697 -1.4008
   29CHL1  H26B 3321   6.941   0.610   5.707 -0.2099 -2.3455 -0.8922
   29CHL1  H26C 3322   6.779   0.666   5.645  0.7799  0.6911 -1.2061
   29CHL1   C27 3323   6.881   0.401   5.551 -0.6120  0.4184  0.1266
   29CHL1  H27A 3324   6.865   0.468   5.463 -1.1858  0.9332  0.6145
   29CHL1  H27B 3325   6.990   0.406   5.573 -0.2563  2.1595 -1.7131
   29CHL1  H27C 3326   6.843   0.300   5.524  1.7651 -0.6915  0.6720
   30CHL1    C3 3327   1.037   0.905   6.934  0.3692 -0.4150  0.1057
   30CHL1    H3 3328   0.996   1.005   6.961 -0.3010 -0.5651 -0.3223
   30CHL1    O3 3329   1.101   0.859   7.047 -0.2974  1.0692  0.0631
   30CHL1   H3' 3330   1.189   0.899   7.045 -0.0741  0.6543  1.2095
   30CHL1    C4 3331   0.915   0.809   6.915  0.0252  0.0982  0.2585
   30CHL1   H4A 3332   0.958   0.707   6.913 -0.7199 -0.2100 -0.9619
   30CHL1   H4B 3333   0.857   0.824   7.009 -0.6650 -2.0690  0.2412
   30CHL1    C5 3334   0.848   0.857   6.784 -0.4855  0.0969 -0.1480
   30CHL1    C6 3335   0.726   0.905   6.785  0.7834  0.0725  0.5524
   30CHL1    H6 3336   0.668   0.905   6.879 -1.1564  0.9365 -0.5832
   30CHL1    C7 3337   0.651   0.948   6.666  0.0127 -0.0410 -0.0118
   30CHL1   H7A 3338   0.546   0.916   6.678 -0.7395  1.7485 -1.3511
   30CHL1   H7B 3339   0.656   1.059   6.663  1.5604 -0.0816  0.2440
   30CHL1    C8 3340   0.711   0.879   6.533  0.7682 -0.6340  0.1805
   30CHL1    H8 3341   0.692   0.771   6.549 -1.6357 -0.5249 -1.3392
   30CHL1   C14 3342   0.644   0.933   6.413  0.0178 -0.2699  0.9740
   30CHL1   H14 3343   0.668   1.041   6.404 -0.8446 -0.2257 -1.7775
   30CHL1   C15 3344   0.499   0.917   6.416  0.1122  0.2153 -0.1955
   30CHL1  H15A 3345   0.464   0.812   6.427  0.5623 -0.1645 -2.0366
   30CHL1  H15B 3346   0.434   0.973   6.486 -0.6265 -1.1090  0.2201
   30CHL1   C16 3347   0.459   0.964   6.271 -0.2301 -0.3851 -0.0511
   30CHL1  H16A 3348   0.385   0.890   6.234 -1.9739  0.7735  0.9720
   30CHL1  H16B 3349   0.414   1.065   6.261  3.0606  1.1312 -0.8070
   30CHL1   C17 3350   0.590   0.964   6.189 -0.5152 -0.0772 -0.7012
   30CHL1   H17 3351   0.627   1.068   6.179  0.3088 -0.2939 -0.0420
   30CHL1   C13 3352   0.697   0.883   6.273  0.1389  0.2145  0.0972
   30CHL1   C18 3353   0.668   0.737   6.249  0.2733  0.1515  0.3342
   30CHL1  H18A 3354   0.728   0.699   6.163  0.3517  2.2298 -0.5919
   30CHL1  H18B 3355   0.699   0.682   6.341 -0.8653 -0.7720  0.1858
   30CHL1  H18C 3356   0.563   0.710   6.227  0.1118  2.2395 -1.8702
   30CHL1   C12 3357   0.845   0.913   6.263 -0.0342 -0.0753 -0.1145
   30CHL1  H12A 3358   0.885   0.863   6.172  0.6853  0.2180  0.0317
   30CHL1  H12B 3359   0.855   1.024   6.257 -1.4233  0.0417 -0.5971
   30CHL1   C11 3360   0.909   0.859   6.391 -0.0640 -0.6950  0.2669
   30CHL1  H11A 3361   0.880   0.752   6.377 -1.2586 -0.4094  0.4516
   30CHL1  H11B 3362   1.019   0.854   6.383 -0.1254 -0.2118 -1.3791
   30CHL1    C9 3363   0.860   0.906   6.530  0.4079 -0.5916 -0.0879
   30CHL1    H9 3364   0.877   1.015   6.543  0.0161 -0.7874  2.3611
   30CHL1   C10 3365   0.932   0.849   6.657  0.1657  0.4410  1.0415
   30CHL1   C19 3366   0.968   0.696   6.635  0.5103  0.1097  0.3664
   30CHL1  H19A 3367   1.016   0.643   6.721  0.0177 -0.8077  0.0846
   30CHL1  H19B 3368   0.876   0.635   6.624 -1.1493  2.3424  1.1613
   30CHL1  H19C 3369   1.028   0.678   6.544  0.2610  2.1616 -0.2326
   30CHL1    C1 3370   1.063   0.934   6.679 -0.3650  0.3622 -0.3486
   30CHL1   H1A 3371   1.130   0.912   6.593  0.7893  1.1184  0.3196
   30CHL1   H1B 3372   1.043   1.044   6.679 -0.8304  0.3009  1.1018
   30CHL1    C2 3373   1.130   0.900   6.809  0.2198  0.3966 -0.2012
   30CHL1   H2A 3374   1.223   0.959   6.823  0.8524 -0.5484 -0.3406
   30CHL1   H2B 3375   1.167   0.797   6.791  0.5975  0.8255 -1.9736
   30CHL1   C20 3376   0.559   0.920   6.043  0.5563 -0.0056 -0.2489
   30CHL1   H20 3377   0.534   0.812   6.036 -3.1669  0.7215 -0.4395
   30CHL1   C21 3378   0.691   0.942   5.962  0.1550 -0.2345 -0.6580
   30CHL1  H21A 3379   0.719   1.050   5.957 -1.9944  0.3312 -1.4201
   30CHL1  H21B 3380   0.689   0.908   5.857  2.0679 -1.1379 -0.4383
   30CHL1  H21C 3381   0.778   0.892   6.010 -0.2252 -0.6855 -0.4404
   30CHL1   C22 3382   0.432   1.004   5.987  0.0819  0.7935  0.3715
   30CHL1  H22A 3383   0.346   0.948   6.029  0.1766  1.9312  2.1987
   30CHL1  H22B 3384   0.437   1.109   6.023  0.2669  0.2055  2.1958
   30CHL1   C23 3385   0.417   0.989   5.836 -0.3627  0.2358 -0.3120
   30CHL1  H23A 3386   0.493   1.049   5.782 -2.0800  1.1724 -1.7743
   30CHL1  H23B 3387   0.438   0.887   5.796 -1.1085  0.2313 -0.6996
   30CHL1   C24 3388   0.282   1.027   5.784 -0.3871 -0.4169  0.4296
   30CHL1  H24A 3389   0.205   0.948   5.795  0.2450 -0.9114  1.4674
   30CHL1  H24B 3390   0.246   1.119   5.834 -1.0140 -0.4785  0.1038
   30CHL1   C25 3391   0.292   1.075   5.632 -0.7076  0.3011 -0.5336
   30CHL1   H25 3392   0.332   0.985   5.580  0.5765  1.5990 -1.8624
   30CHL1   C26 3393   0.150   1.103   5.579  0.0701  0.3450 -0.4970
   30CHL1  H26A 3394   0.077   1.032   5.622  0.9044 -0.3591 -0.2137
   30CHL1  H26B 3395   0.108   1.190   5.633 -1.7327 -0.7946 -0.0062
   30CHL1  H26C 3396   0.141   1.107   5.468 -0.6042 -1.2245 -0.5265
   30CHL1   C27 3397   0.377   1.203   5.613  0.0590 -0.4928 -0.7707
   30CHL1  H27A 3398   0.484   1.191   5.642  0.0526 -2.0714 -1.2898
   30CHL1  H27B 3399   0.380   1.232   5.506  0.2126 -0.6937 -0.8212
   30CHL1  H27C 3400   0.330   1.285   5.672 -1.7588 -0.2402 -2.4536
   31CHL1    C3 3401   1.209   1.472   7.026 -0.7698  0.1701  0.3076
   31CHL1    H3 3402   1.161   1.378   6.992  0.8072 -0.1028 -1.2760
   31CHL1    O3 3403   1.266   1.451   7.153  0.1080  0.3421  0.0263
   31CHL1   H3' 3404   1.290   1.536   7.191 -0.5483  0.3451  0.4551
   31CHL1    C4 3405   1.325   1.499   6.932  0.0462 -0.0688  0.2323
   31CHL1   H4A 3406   1.390   1.586   6.957  1.9540 -0.8905 -1.5200
   31CHL1   H4B 3407   1.393   1.411   6.933  0.6345  0.3676 -0.2668
   31CHL1    C5 3408   1.268   1.525   6.794 -0.8904 -0.6110 -0.3160
   31CHL1    C6 3409   1.305   1.460   6.685  0.3400  0.2218 -0.0214
   31CHL1    H6 3410   1.389   1.389   6.689  1.4958  1.6375  2.7411
   31CHL1    C7 3411   1.270   1.491   6.547  0.0255 -1.0488  0.0090
   31CHL1   H7A 3412   1.360   1.504   6.484  0.7300 -1.6782  0.8584
   31CHL1   H7B 3413   1.203   1.410   6.510 -0.8692 -0.4591  0.3113
   31CHL1    C8 3414   1.194   1.637   6.528  0.2072 -0.0003 -0.5044
   31CHL1    H8 3415   1.272   1.716   6.527  0.9748 -0.7067  0.7966
   31CHL1   C14 3416   1.110   1.645   6.400  0.1519  0.2648 -0.2525
   31CHL1   H14 3417   1.047   1.553   6.406 -0.3172  0.6539  1.1519
   31CHL1   C15 3418   1.186   1.639   6.266  0.1121  0.1441  0.3950
   31CHL1  H15A 3419   1.271   1.710   6.275 -2.0741  2.9653  0.2335
   31CHL1  H15B 3420   1.230   1.540   6.240  0.0382  0.3653 -0.6202
   31CHL1   C16 3421   1.083   1.681   6.160 -0.2546  0.3585 -0.3099
   31CHL1  H16A 3422   1.118   1.771   6.105 -0.9069  1.0228  0.3328
   31CHL1  H16B 3423   1.059   1.597   6.091  3.8988 -1.1246 -0.2202
   31CHL1   C17 3424   0.960   1.726   6.239  0.1357 -0.1794 -0.7627
   31CHL1   H17 3425   0.897   1.635   6.246 -1.3587  0.8544  0.0321
   31CHL1   C13 3426   1.015   1.756   6.382 -0.0839  0.6000 -0.2211
   31CHL1   C18 3427   1.099   1.883   6.373  0.0154 -0.3896  0.7526
   31CHL1  H18A 3428   1.151   1.891   6.274 -2.8680 -3.1709 -1.2015
   31CHL1  H18B 3429   1.027   1.966   6.385 -0.4700 -0.7244  0.2099
   31CHL1  H18C 3430   1.168   1.900   6.458 -0.3770 -0.3309  1.0590
   31CHL1   C12 3431   0.922   1.754   6.501 -0.9066 -0.1812  0.3852
   31CHL1  H12A 3432   0.863   1.848   6.493  1.9770  1.7198  0.2474
   31CHL1  H12B 3433   0.864   1.660   6.505 -1.5641  0.1721 -0.4403
   31CHL1   C11 3434   0.995   1.757   6.631  0.3761  0.6238 -0.2685
   31CHL1  H11A 3435   1.038   1.857   6.652  0.8729  0.0023  1.9352
   31CHL1  H11B 3436   0.910   1.745   6.701  0.7161  1.0501  0.2246
   31CHL1    C9 3437   1.099   1.645   6.646 -0.4283  0.4203  0.0685
   31CHL1    H9 3438   1.034   1.556   6.635 -2.0726  1.3336  1.8046
   31CHL1   C10 3439   1.170   1.640   6.785  0.0785  0.0528  0.3837
   31CHL1   C19 3440   1.257   1.764   6.811 -0.2135  0.0229  0.1165
   31CHL1  H19A 3441   1.207   1.859   6.782 -0.6852 -0.8090 -1.9678
   31CHL1  H19B 3442   1.286   1.775   6.918  1.2578 -0.2812 -0.2369
   31CHL1  H19C 3443   1.351   1.764   6.752 -0.5151  2.9202 -0.5062
   31CHL1    C1 3444   1.063   1.619   6.890  0.2570  0.2618 -0.2307
   31CHL1   H1A 3445   0.996   1.707   6.892 -1.4628 -0.9564 -1.3576
   31CHL1   H1B 3446   0.992   1.540   6.857 -0.0133  0.4560 -0.1172
   31CHL1    C2 3447   1.113   1.585   7.027 -0.4470  0.3730  0.5600
   31CHL1   H2A 3448   1.025   1.558   7.089 -0.4176 -0.6948  0.1589
   31CHL1   H2B 3449   1.163   1.670   7.079  0.3992 -1.2055  2.4296
   31CHL1   C20 3450   0.887   1.831   6.160  0.5797 -0.4606 -0.1573
   31CHL1   H20 3451   0.945   1.925   6.151 -0.7096  0.4084  0.3382
   31CHL1   C21 3452   0.753   1.862   6.231  0.7172 -0.6579  0.4160
   31CHL1  H21A 3453   0.709   1.761   6.248  1.1603 -0.6314  1.9027
   31CHL1  H21B 3454   0.698   1.934   6.167 -0.5018 -2.3078 -0.4784
   31CHL1  H21C 3455   0.769   1.898   6.335  1.1338  0.8435 -0.1553
   31CHL1   C22 3456   0.857   1.788   6.014  0.4571  0.1927 -0.7356
   31CHL1  H22A 3457   0.949   1.753   5.963  0.7705  1.2598 -0.9213
   31CHL1  H22B 3458   0.790   1.699   6.013  0.5978  0.0826 -1.4134
   31CHL1   C23 3459   0.823   1.909   5.924  0.1276  0.3669 -0.1206
   31CHL1  H23A 3460   0.735   1.961   5.968 -0.8122 -1.1151 -0.1940
   31CHL1  H23B 3461   0.912   1.976   5.925  1.7612 -1.6623  2.4447
   31CHL1   C24 3462   0.780   1.864   5.784  0.4939  0.7118  0.1325
   31CHL1  H24A 3463   0.855   1.796   5.739 -0.3401  0.8353 -1.5096
   31CHL1  H24B 3464   0.685   1.807   5.791  1.7291 -1.3655  0.6627
   31CHL1   C25 3465   0.742   1.979   5.683  0.3596 -0.0989 -0.1184
   31CHL1   H25 3466   0.835   2.038   5.666 -0.8154  2.0850  0.6766
   31CHL1   C26 3467   0.686   1.929   5.549 -0.1663 -0.0363  0.7314
   31CHL1  H26A 3468   0.763   1.879   5.487 -2.4757 -0.7030 -1.7979
   31CHL1  H26B 3469   0.593   1.868   5.554 -0.2549  0.0439  0.1147
   31CHL1  H26C 3470   0.670   2.013   5.479 -0.9768 -2.8695 -2.7665
   31CHL1   C27 3471   0.640   2.072   5.741  0.5646 -0.1630 -0.0198
   31CHL1  H27A 3472   0.673   2.111   5.840 -1.4962 -0.1539  0.7198
   31CHL1  H27B 3473   0.625   2.162   5.677 -0.1022 -0.0160  0.3306
   31CHL1  H27C 3474   0.537   2.032   5.750 -0.7522  2.9554  0.2607
   32CHL1    C3 3475   2.370   5.400   7.407  0.2993 -0.7724 -0.0286
   32CHL1    H3 3476   2.294   5.480   7.395 -0.9127 -2.0168 -1.0915
   32CHL1    O3 3477   2.355   5.347   7.540 -0.2573 -0.4303  0.3243
   32CHL1   H3' 3478   2.421   5.279   7.553  1.2146  1.0929  1.1503
   32CHL1    C4 3479   2.353   5.281   7.308 -0.3483  0.8087 -0.1220
   32CHL1   H4A 3480   2.438   5.211   7.329 -0.3030 -0.1045 -2.9001
   32CHL1   H4B 3481   2.254   5.232   7.318  0.5013 -0.7422  1.2989
   32CHL1    C5 3482   2.381   5.326   7.170 -0.1111 -0.0972  0.4972
   32CHL1    C6 3483   2.292   5.325   7.075  0.3349  0.0859 -0.8420
   32CHL1    H6 3484   2.195   5.277   7.094  0.1408  1.3474  1.9710
   32CHL1    C7 3485   2.319   5.370   6.932  0.2380 -0.5684 -0.5510
   32CHL1   H7A 3486   2.266   5.302   6.861 -1.3862 -0.3689  0.4148
   32CHL1   H7B 3487   2.268   5.467   6.910 -0.7976 -0.8382  0.5805
   32CHL1    C8 3488   2.466   5.374   6.893  0.6216  0.1668 -0.6367
   32CHL1    H8 3489   2.498   5.267   6.891  1.5730  0.3725  1.1630
   32CHL1   C14 3490   2.481   5.439   6.758 -0.5352 -0.6328 -0.2067
   32CHL1   H14 3491   2.456   5.547   6.764  2.9594  0.3494 -0.8932
   32CHL1   C15 3492   2.404   5.384   6.643 -0.4695 -0.0764 -0.4610
   32CHL1  H15A 3493   2.419   5.274   6.640  0.4127 -0.0611  1.7656
   32CHL1  H15B 3494   2.295   5.406   6.644 -0.9173 -1.9056  2.3520
   32CHL1   C16 3495   2.472   5.451   6.521 -0.0762  0.7978  0.2308
   32CHL1  H16A 3496   2.501   5.367   6.454 -1.4713  0.2174  0.3166
   32CHL1  H16B 3497   2.401   5.522   6.475  0.2586  2.3585  1.9665
   32CHL1   C17 3498   2.604   5.516   6.573  0.2445  0.2041  0.2564
   32CHL1   H17 3499   2.584   5.623   6.595  1.0316  0.3727  0.1782
   32CHL1   C13 3500   2.628   5.449   6.719  0.0995 -0.5471 -0.2735
   32CHL1   C18 3501   2.696   5.314   6.704  0.2548  0.6372 -0.1921
   32CHL1  H18A 3502   2.695   5.250   6.795 -1.9608  0.7190 -0.0934
   32CHL1  H18B 3503   2.658   5.258   6.615  0.6636 -0.1068  0.0937
   32CHL1  H18C 3504   2.806   5.330   6.702  0.3489  0.7271  2.3268
   32CHL1   C12 3505   2.706   5.540   6.826  0.0702  0.5601  0.1790
   32CHL1  H12A 3506   2.815   5.548   6.809 -0.1300  0.1166 -1.4983
   32CHL1  H12B 3507   2.665   5.643   6.824  1.1062  0.9653 -1.6464
   32CHL1   C11 3508   2.688   5.480   6.969  0.3597 -0.0013  0.1303
   32CHL1  H11A 3509   2.754   5.391   6.968  0.7840  0.3103 -0.0067
   32CHL1  H11B 3510   2.732   5.546   7.046  0.4473  0.6153 -0.4429
   32CHL1    C9 3511   2.542   5.443   7.002  0.0920 -0.1564 -0.5246
   32CHL1    H9 3512   2.489   5.541   7.015 -1.4041 -0.7930 -1.5132
   32CHL1   C10 3513   2.518   5.379   7.150 -0.5625  0.6894 -0.0121
   32CHL1   C19 3514   2.633   5.272   7.162  0.0658  0.5238 -0.1856
   32CHL1  H19A 3515   2.624   5.219   7.259 -1.4967  0.8412 -0.1413
   32CHL1  H19B 3516   2.640   5.198   7.079  2.1633 -1.1805  1.3696
   32CHL1  H19C 3517   2.738   5.308   7.171  0.2327  0.2991 -1.1099
   32CHL1    C1 3518   2.548   5.492   7.250 -0.8789  0.2557 -0.5465
   32CHL1   H1A 3519   2.653   5.526   7.237 -1.0820  0.5439 -1.5249
   32CHL1   H1B 3520   2.496   5.587   7.227 -0.1252  0.7207 -0.3681
   32CHL1    C2 3521   2.515   5.444   7.392  0.0602 -0.4647  0.1400
   32CHL1   H2A 3522   2.558   5.521   7.460  0.5811  1.6190 -2.3807
   32CHL1   H2B 3523   2.578   5.354   7.410 -0.3981 -0.9157 -0.5035
   32CHL1   C20 3524   2.717   5.502   6.460  0.8483  0.0378 -0.1113
   32CHL1   H20 3525   2.736   5.398   6.426 -0.8328  0.6809 -3.4091
   32CHL1   C21 3526   2.844   5.567   6.510 -0.3495 -0.5636  0.1537
   32CHL1  H21A 3527   2.816   5.658   6.568  0.9848  0.3662 -0.6085
   32CHL1  H21B 3528   2.925   5.578   6.435 -0.5186 -0.6921 -0.0502
   32CHL1  H21C 3529   2.882   5.495   6.586  0.9330  0.1055  0.1689
   32CHL1   C22 3530   2.655   5.574   6.333 -0.3020 -0.8407  0.0513
   32CHL1  H22A 3531   2.564   5.633   6.355  0.7471  0.6891  0.4687
   32CHL1  H22B 3532   2.726   5.651   6.296 -1.3055  0.5919  1.0208
   32CHL1   C23 3533   2.628   5.479   6.214  0.1525 -0.2157  0.6438
   32CHL1  H23A 3534   2.718   5.414   6.210 -0.0632 -0.4572 -1.4552
   32CHL1  H23B 3535   2.541   5.416   6.241  0.9924 -2.2477 -1.1104
   32CHL1   C24 3536   2.608   5.540   6.069 -0.1036  0.3388 -0.4530
   32CHL1  H24A 3537   2.545   5.631   6.079 -0.5951 -0.0690  0.2409
   32CHL1  H24B 3538   2.701   5.572   6.017  0.1446  0.9349  0.3478
   32CHL1   C25 3539   2.525   5.449   5.977  1.2561  0.3564  0.5588
   32CHL1   H25 3540   2.438   5.413   6.036  0.1249  2.9016  0.5694
   32CHL1   C26 3541   2.459   5.522   5.860  0.1309 -0.0950 -0.0962
   32CHL1  H26A 3542   2.418   5.444   5.793  0.9749 -0.9481  0.3695
   32CHL1  H26B 3543   2.375   5.585   5.898  0.1674 -0.1655  0.1004
   32CHL1  H26C 3544   2.537   5.576   5.801  0.4384 -0.1850  0.2256
   32CHL1   C27 3545   2.603   5.315   5.941  0.2820 -0.7121 -0.0618
   32CHL1  H27A 3546   2.658   5.277   6.030 -1.0137 -0.1743  1.0082
   32CHL1  H27B 3547   2.548   5.231   5.894  2.9765 -2.2742 -0.5959
   32CHL1  H27C 3548   2.681   5.345   5.868  0.3344 -0.5815  0.0469
   33CHL1    C3 3549   0.514   6.068   6.960  0.1950 -0.3251 -0.3004
   33CHL1    H3 3550   0.577   6.159   6.953 -2.0947  1.4947  1.2120
   33CHL1    O3 3551   0.474   6.028   7.090  0.0067 -0.4704  0.5661
   33CHL1   H3' 3552   0.393   5.979   7.075  0.3803 -0.8710 -0.1950
   33CHL1    C4 3553   0.389   6.106   6.876  0.2462 -0.5619  0.0105
   33CHL1   H4A 3554   0.317   6.022   6.886  2.0661 -2.1123  0.5402
   33CHL1   H4B 3555   0.358   6.204   6.920  0.0508  0.6691 -2.6527
   33CHL1    C5 3556   0.424   6.132   6.732  0.0947 -0.7421 -0.6509
   33CHL1    C6 3557   0.395   6.247   6.662 -0.0258  0.6537  0.5561
   33CHL1    H6 3558   0.338   6.330   6.706 -1.9320 -0.1478 -0.2744
   33CHL1    C7 3559   0.438   6.273   6.520  0.4451 -0.3894  0.3303
   33CHL1   H7A 3560   0.365   6.337   6.466  1.7934  0.1598 -0.9336
   33CHL1   H7B 3561   0.537   6.323   6.529  0.6554 -0.7651  0.1481
   33CHL1    C8 3562   0.460   6.137   6.447 -0.1286 -0.4275 -0.6775
   33CHL1    H8 3563   0.361   6.086   6.446  0.3802 -1.5021 -3.3805
   33CHL1   C14 3564   0.510   6.161   6.307  0.2723 -0.0130  0.8603
   33CHL1   H14 3565   0.603   6.221   6.312 -0.4666  1.3532 -0.7704
   33CHL1   C15 3566   0.411   6.250   6.210  0.0067  0.5824 -0.1955
   33CHL1  H15A 3567   0.305   6.220   6.220  0.3841 -0.6211  0.4646
   33CHL1  H15B 3568   0.440   6.357   6.215 -0.6735  0.8005 -0.6690
   33CHL1   C16 3569   0.459   6.206   6.066  0.3359 -0.0122 -0.4711
   33CHL1  H16A 3570   0.373   6.175   6.003 -0.8359 -1.3770  1.6679
   33CHL1  H16B 3571   0.511   6.297   6.030 -2.6485  2.5299  1.1169
   33CHL1   C17 3572   0.561   6.089   6.080 -0.4083 -0.2218  0.8140
   33CHL1   H17 3573   0.656   6.144   6.093  0.4144 -1.2184 -0.7899
   33CHL1   C13 3574   0.542   6.033   6.223  0.4873 -0.8458 -0.7359
   33CHL1   C18 3575   0.413   5.947   6.212  0.6199 -1.0443 -0.4814
   33CHL1  H18A 3576   0.421   5.863   6.140  0.0606 -2.3854  0.9695
   33CHL1  H18B 3577   0.387   5.892   6.305  0.9366 -3.0525 -1.5258
   33CHL1  H18C 3578   0.318   6.004   6.198 -0.2101 -2.3336 -0.2109
   33CHL1   C12 3579   0.657   5.957   6.293  0.1906 -0.9341 -0.4905
   33CHL1  H12A 3580   0.675   5.856   6.251  0.3046 -1.0957 -0.0599
   33CHL1  H12B 3581   0.748   6.020   6.285 -0.4137 -0.1951 -1.8534
   33CHL1   C11 3582   0.613   5.932   6.439  0.5615  0.6760 -0.7028
   33CHL1  H11A 3583   0.523   5.868   6.429  2.0764 -1.4985 -1.1250
   33CHL1  H11B 3584   0.699   5.879   6.487  0.1584 -0.5452 -1.2990
   33CHL1    C9 3585   0.567   6.057   6.523  0.5292  0.1436  1.1689
   33CHL1    H9 3586   0.654   6.124   6.539 -0.6109  1.6315  1.2659
   33CHL1   C10 3587   0.506   6.015   6.663  0.3569  0.6077  0.4401
   33CHL1   C19 3588   0.410   5.901   6.651  0.1688  0.6132  0.1076
   33CHL1  H19A 3589   0.324   5.912   6.582  0.3949 -3.9726 -1.2881
   33CHL1  H19B 3590   0.466   5.808   6.627  1.0468  0.7411  1.5188
   33CHL1  H19C 3591   0.364   5.879   6.750 -0.5278  1.7442  0.0465
   33CHL1    C1 3592   0.629   5.983   6.752 -0.7783  0.4436  0.2265
   33CHL1   H1A 3593   0.683   5.892   6.718  0.9099 -0.0157  3.6774
   33CHL1   H1B 3594   0.705   6.062   6.736 -0.9974  0.3548 -1.4065
   33CHL1    C2 3595   0.595   5.955   6.897  0.5836  0.1610 -0.2688
   33CHL1   H2A 3596   0.693   5.944   6.949  0.6748 -2.4388 -0.8512
   33CHL1   H2B 3597   0.544   5.857   6.906 -1.6079  1.2728  0.0783
   33CHL1   C20 3598   0.565   5.990   5.962 -0.3295  0.1653  0.8591
   33CHL1   H20 3599   0.467   5.939   5.954  0.0502 -0.5018  0.4419
   33CHL1   C21 3600   0.678   5.884   5.988 -0.3599  0.2020 -0.1769
   33CHL1  H21A 3601   0.695   5.807   5.910 -0.5320 -1.2188  1.1429
   33CHL1  H21B 3602   0.657   5.822   6.077 -2.2349  2.3540  0.9945
   33CHL1  H21C 3603   0.776   5.938   5.985  0.2607 -0.9388 -1.2675
   33CHL1   C22 3604   0.584   6.055   5.826  0.0259  0.4181 -0.0968
   33CHL1  H22A 3605   0.509   6.136   5.814 -1.5388 -0.8133  0.9315
   33CHL1  H22B 3606   0.684   6.102   5.826  0.8582 -1.0719  3.1948
   33CHL1   C23 3607   0.576   5.960   5.708  0.0120 -0.0934 -0.1522
   33CHL1  H23A 3608   0.654   5.883   5.695  0.0259  0.1859 -1.8949
   33CHL1  H23B 3609   0.473   5.918   5.715  0.2948 -1.0581 -1.5064
   33CHL1   C24 3610   0.557   6.042   5.581 -0.3524  0.1123  0.2034
   33CHL1  H24A 3611   0.467   6.107   5.587 -1.7023 -1.7053  0.2833
   33CHL1  H24B 3612   0.644   6.111   5.570 -0.4802  0.4113  0.9645
   33CHL1   C25 3613   0.541   5.955   5.450  0.2473 -0.7386  0.2021
   33CHL1   H25 3614   0.609   5.867   5.453  1.0635 -0.0975  0.9681
   33CHL1   C26 3615   0.403   5.899   5.443 -0.0560 -0.0565  0.4838
   33CHL1  H26A 3616   0.322   5.975   5.442 -0.6044 -0.6362  0.4715
   33CHL1  H26B 3617   0.402   5.831   5.356 -0.1128 -1.4247  1.5121
   33CHL1  H26C 3618   0.372   5.837   5.530  0.0402  0.1038  0.6341
   33CHL1   C27 3619   0.556   6.039   5.322 -0.8989 -0.1975 -0.0103
   33CHL1  H27A 3620   0.662   6.063   5.299 -1.2646  0.9067 -0.6173
   33CHL1  H27B 3621   0.509   5.982   5.239 -0.9602  0.4726 -0.4485
   33CHL1  H27C 3622   0.501   6.135   5.328  0.6181  0.6485  0.9399
   34CHL1    C3 3623   1.876   1.938   6.859  0.4190  0.0429  0.3639
   34CHL1    H3 3624   1.945   1.897   6.782 -1.9017  0.7246 -2.2658
   34CHL1    O3 3625   1.913   1.918   6.997 -0.3796 -0.7931 -0.1581
   34CHL1   H3' 3626   1.957   1.833   7.005 -1.0765 -1.2832 -1.2788
   34CHL1    C4 3627   1.868   2.086   6.816  0.2995 -0.0299  0.1035
   34CHL1   H4A 3628   1.808   2.153   6.881  1.3476  0.5035  0.5580
   34CHL1   H4B 3629   1.975   2.116   6.817  0.3051  0.2011 -2.0615
   34CHL1    C5 3630   1.819   2.098   6.669 -0.8594  0.0638 -0.5619
   34CHL1    C6 3631   1.894   2.153   6.576  0.7234  0.1866 -0.2154
   34CHL1    H6 3632   1.995   2.193   6.597  1.4626 -1.6689  0.0108
   34CHL1    C7 3633   1.852   2.188   6.436 -0.0383  0.0681 -0.4303
   34CHL1   H7A 3634   1.882   2.294   6.420  1.0669 -0.1546  0.0652
   34CHL1   H7B 3635   1.914   2.120   6.374  0.1406  0.5079 -0.7372
   34CHL1    C8 3636   1.695   2.166   6.414 -0.8441  0.3369  0.5999
   34CHL1    H8 3637   1.648   2.250   6.469  0.0785  0.2171  1.6245
   34CHL1   C14 3638   1.671   2.151   6.265 -0.1968 -0.1437 -0.1712
   34CHL1   H14 3639   1.723   2.055   6.244  1.9755  0.5853  1.5063
   34CHL1   C15 3640   1.723   2.258   6.173  0.6411 -0.2473 -0.4693
   34CHL1  H15A 3641   1.709   2.351   6.231  1.2255 -1.1412  1.1521
   34CHL1  H15B 3642   1.831   2.253   6.147  0.3546 -0.8688 -1.6286
   34CHL1   C16 3643   1.643   2.242   6.042 -0.0842 -0.3523  0.3797
   34CHL1  H16A 3644   1.595   2.338   6.010 -0.6131 -1.2277 -1.6471
   34CHL1  H16B 3645   1.710   2.204   5.962 -0.5937  1.0972 -0.8066
   34CHL1   C17 3646   1.541   2.129   6.077 -0.4107 -0.5363 -0.8630
   34CHL1   H17 3647   1.593   2.035   6.051 -3.0703 -2.1862 -0.6752
   34CHL1   C13 3648   1.530   2.135   6.230  0.4930 -0.0073 -0.5164
   34CHL1   C18 3649   1.445   2.255   6.271  0.8979  0.4524  0.0542
   34CHL1  H18A 3650   1.448   2.276   6.380 -1.4089  2.4243 -0.1950
   34CHL1  H18B 3651   1.480   2.352   6.229  0.9067 -0.3070 -1.7847
   34CHL1  H18C 3652   1.340   2.245   6.235  1.3463 -1.1147 -0.9407
   34CHL1   C12 3653   1.479   2.012   6.302 -0.2627  0.1038 -0.0098
   34CHL1  H12A 3654   1.372   2.005   6.273 -0.9483 -2.5184  2.6269
   34CHL1  H12B 3655   1.521   1.911   6.282 -0.6338 -0.8496  3.3798
   34CHL1   C11 3656   1.495   2.027   6.459  0.2409  0.4063 -0.1123
   34CHL1  H11A 3657   1.441   2.113   6.504 -2.9523 -2.0008  1.0337
   34CHL1  H11B 3658   1.457   1.934   6.507  1.3434  0.8548  1.7328
   34CHL1    C9 3659   1.644   2.044   6.497 -0.6372 -0.5346  0.4166
   34CHL1    H9 3660   1.689   1.956   6.445 -2.1137  0.3818 -2.6373
   34CHL1   C10 3661   1.685   2.030   6.642 -0.0456 -0.5530 -0.7329
   34CHL1   C19 3662   1.577   2.102   6.725  0.3713 -0.0139 -0.6261
   34CHL1  H19A 3663   1.488   2.035   6.730 -0.7766  1.3879 -1.5032
   34CHL1  H19B 3664   1.606   2.127   6.829 -0.8923  0.4005 -0.3615
   34CHL1  H19C 3665   1.546   2.201   6.685  0.5673  0.6043  0.6898
   34CHL1    C1 3666   1.696   1.880   6.694 -0.0136  0.1261  0.4274
   34CHL1   H1A 3667   1.596   1.834   6.681 -1.6601  3.0908  1.5262
   34CHL1   H1B 3668   1.771   1.824   6.634  0.1028 -1.3330  1.8672
   34CHL1    C2 3669   1.736   1.873   6.845 -0.1504  0.1919  0.6175
   34CHL1   H2A 3670   1.727   1.769   6.883  1.2579 -0.5414 -0.9166
   34CHL1   H2B 3671   1.662   1.930   6.905  0.4396  2.0036 -0.3111
   34CHL1   C20 3672   1.410   2.122   5.989  0.5279 -0.1746  0.1086
   34CHL1   H20 3673   1.347   2.199   6.036  1.0698  0.6349 -0.4632
   34CHL1   C21 3674   1.331   1.985   6.004  0.4352 -0.0673  0.6281
   34CHL1  H21A 3675   1.278   1.964   5.908 -2.5352 -1.9553  2.5242
   34CHL1  H21B 3676   1.260   1.997   6.088 -0.4421  0.5149 -0.1778
   34CHL1  H21C 3677   1.401   1.901   6.023 -1.6299 -1.8215  0.8164
   34CHL1   C22 3678   1.438   2.163   5.848 -0.0152 -0.1098  0.2946
   34CHL1  H22A 3679   1.340   2.151   5.795 -0.7665  2.6193  0.9215
   34CHL1  H22B 3680   1.472   2.268   5.847  1.5751 -0.5890  0.8760
   34CHL1   C23 3681   1.532   2.070   5.772  0.1722  0.5311  0.4027
   34CHL1  H23A 3682   1.629   2.057   5.826  0.5313  0.6118 -0.2154
   34CHL1  H23B 3683   1.474   1.976   5.779 -1.1114  1.2892  0.3203
   34CHL1   C24 3684   1.545   2.105   5.627 -0.1171 -0.4051  0.1168
   34CHL1  H24A 3685   1.571   2.020   5.560 -0.6593 -1.6548  1.4255
   34CHL1  H24B 3686   1.438   2.120   5.603  0.4154  1.1335 -1.4669
   34CHL1   C25 3687   1.626   2.220   5.586 -0.2793 -0.8892 -0.1884
   34CHL1   H25 3688   1.597   2.298   5.661 -2.0565 -0.3460 -1.3868
   34CHL1   C26 3689   1.784   2.196   5.605  0.5840 -0.1903  0.1454
   34CHL1  H26A 3690   1.831   2.131   5.528 -0.8202 -0.3664 -0.5812
   34CHL1  H26B 3691   1.833   2.296   5.607 -1.4072  0.8215  0.9053
   34CHL1  H26C 3692   1.798   2.146   5.703 -0.2763 -0.1283  0.3073
   34CHL1   C27 3693   1.606   2.259   5.439  0.0863  0.7611 -0.2859
   34CHL1  H27A 3694   1.504   2.304   5.432 -0.7172 -0.8890  0.1107
   34CHL1  H27B 3695   1.664   2.345   5.399 -0.2042  0.2869 -1.8159
   34CHL1  H27C 3696   1.600   2.164   5.381 -0.1985  0.0313  0.8937
   35CHL1    C3 3697   4.002   1.522   7.004  0.1255  0.1923  0.0983
   35CHL1    H3 3698   4.103   1.566   7.018  0.5071 -0.5922 -0.1061
   35CHL1    O3 3699   3.921   1.505   7.120 -0.1599 -0.0237  0.3089
   35CHL1   H3' 3700   3.928   1.597   7.144  2.0571  0.4856 -1.8880
   35CHL1    C4 3701   3.926   1.620   6.911  0.0942 -0.2308 -0.0664
   35CHL1   H4A 3702   3.826   1.578   6.887  0.0551  1.0606 -2.5070
   35CHL1   H4B 3703   3.905   1.715   6.965  1.1155  1.4715 -2.4698
   35CHL1    C5 3704   4.001   1.648   6.777 -0.1131 -0.0232  0.0785
   35CHL1    C6 3705   4.035   1.771   6.733 -0.4686  0.5675 -0.6562
   35CHL1    H6 3706   4.018   1.863   6.791 -2.0397 -0.2666  0.2681
   35CHL1    C7 3707   4.089   1.796   6.596 -0.2196  0.0957  0.1626
   35CHL1   H7A 3708   4.028   1.871   6.541 -1.4059  0.1937  1.5398
   35CHL1   H7B 3709   4.195   1.831   6.596 -0.0042 -0.5128  1.1204
   35CHL1    C8 3710   4.089   1.669   6.508 -0.3400 -0.0476  0.0998
   35CHL1    H8 3711   3.988   1.652   6.465 -0.2374  0.7463 -0.4757
   35CHL1   C14 3712   4.188   1.687   6.393  0.0967  0.4136  0.2112
   35CHL1   H14 3713   4.294   1.692   6.426  0.9114 -1.4462 -1.9078
   35CHL1   C15 3714   4.162   1.815   6.306  0.5508  0.2577 -0.5043
   35CHL1  H15A 3715   4.053   1.817   6.282  0.1774  3.1978  1.0025
   35CHL1  H15B 3716   4.194   1.915   6.341  1.1453  0.1709 -0.7850
   35CHL1   C16 3717   4.253   1.788   6.183 -0.1644  0.5390  0.3852
   35CHL1  H16A 3718   4.191   1.817   6.095 -2.3211 -1.3812  1.1514
   35CHL1  H16B 3719   4.349   1.844   6.181  0.1628 -0.0282 -1.0261
   35CHL1   C17 3720   4.287   1.637   6.185  0.1415 -0.0664  0.1865
   35CHL1   H17 3721   4.391   1.628   6.223 -0.6132 -1.4012  2.0984
   35CHL1   C13 3722   4.199   1.571   6.300 -0.1547 -0.7630  0.3319
   35CHL1   C18 3723   4.065   1.542   6.238  0.1004  0.2610 -0.0398
   35CHL1  H18A 3724   4.015   1.625   6.183 -0.4972  0.9601  1.5056
   35CHL1  H18B 3725   4.082   1.455   6.171  0.2422 -2.1333  2.9101
   35CHL1  H18C 3726   3.989   1.505   6.309 -1.2695  0.7758 -1.1736
   35CHL1   C12 3727   4.260   1.454   6.387  0.2811  0.6939  0.1828
   35CHL1  H12A 3728   4.278   1.356   6.338 -1.3858 -0.2669  1.3788
   35CHL1  H12B 3729   4.359   1.488   6.426  0.9382 -0.8876 -0.0094
   35CHL1   C11 3730   4.165   1.426   6.505 -0.5817 -0.1437 -0.0296
   35CHL1  H11A 3731   4.071   1.379   6.471 -2.1909  2.8874 -0.1287
   35CHL1  H11B 3732   4.217   1.347   6.562  1.6544  1.5756  0.4912
   35CHL1    C9 3733   4.133   1.545   6.593 -0.0512 -0.3833  0.3536
   35CHL1    H9 3734   4.229   1.576   6.637  0.0193  1.7122 -1.1455
   35CHL1   C10 3735   4.024   1.519   6.702 -0.0919  0.3415 -0.0416
   35CHL1   C19 3736   3.895   1.473   6.638  0.4402 -0.5366 -0.3195
   35CHL1  H19A 3737   3.807   1.459   6.704  0.4946 -1.2489 -0.3955
   35CHL1  H19B 3738   3.859   1.554   6.570 -1.9327 -0.4575  0.9351
   35CHL1  H19C 3739   3.916   1.383   6.577  0.4433 -1.5424  1.1209
   35CHL1    C1 3740   4.083   1.402   6.797  0.1383 -0.8324  0.5165
   35CHL1   H1A 3741   4.071   1.306   6.744 -1.3035 -0.7153  0.5723
   35CHL1   H1B 3742   4.191   1.425   6.807 -0.1483  0.3352  1.1286
   35CHL1    C2 3743   4.021   1.384   6.940  0.7505 -0.2242 -0.2135
   35CHL1   H2A 3744   4.088   1.318   6.998 -1.1258 -2.0939 -0.0435
   35CHL1   H2B 3745   3.917   1.349   6.920 -0.2846  2.7199 -0.6488
   35CHL1   C20 3746   4.288   1.557   6.054 -0.1679  0.0208 -0.1448
   35CHL1   H20 3747   4.263   1.451   6.079  1.2981  0.1441  2.0563
   35CHL1   C21 3748   4.432   1.559   6.004  0.3629 -0.4407 -0.5249
   35CHL1  H21A 3749   4.464   1.661   5.975 -1.6577  0.5000  0.4050
   35CHL1  H21B 3750   4.420   1.496   5.913  0.1190  1.3253 -1.7701
   35CHL1  H21C 3751   4.501   1.512   6.078 -0.5820  0.6040  1.0556
   35CHL1   C22 3752   4.206   1.615   5.937  0.4798  0.1640 -0.3858
   35CHL1  H22A 3753   4.108   1.645   5.981 -0.3708 -2.5527 -0.2397
   35CHL1  H22B 3754   4.256   1.710   5.908 -0.8168  1.3540  1.0447
   35CHL1   C23 3755   4.180   1.521   5.823  0.2579  0.6521 -0.2630
   35CHL1  H23A 3756   4.272   1.504   5.762  0.3697  3.4663 -0.9870
   35CHL1  H23B 3757   4.147   1.422   5.862 -0.0021  1.3454  1.3531
   35CHL1   C24 3758   4.068   1.568   5.734  0.0365 -0.2171 -0.0559
   35CHL1  H24A 3759   3.985   1.587   5.805 -0.8093 -0.5400 -0.9287
   35CHL1  H24B 3760   4.089   1.673   5.704 -4.6577  1.3790  1.3718
   35CHL1   C25 3761   4.030   1.483   5.611  0.0155  0.5611 -0.1543
   35CHL1   H25 3762   4.124   1.450   5.562  0.0562 -2.0887  1.4976
   35CHL1   C26 3763   3.966   1.348   5.648  0.1231 -0.4248  0.0201
   35CHL1  H26A 3764   3.875   1.354   5.712  0.2457  0.8669  0.1082
   35CHL1  H26B 3765   3.946   1.288   5.557  1.6727 -0.2789 -0.4387
   35CHL1  H26C 3766   4.037   1.286   5.706 -0.4885 -0.1546  1.0999
   35CHL1   C27 3767   3.941   1.562   5.514 -0.2635 -0.3975  0.0685
   35CHL1  H27A 3768   3.998   1.648   5.474 -0.6590 -1.2205 -2.4835
   35CHL1  H27B 3769   3.904   1.497   5.431 -1.5785  2.3835 -1.6611
   35CHL1  H27C 3770   3.852   1.599   5.569  0.4651 -0.6137  1.4233
   36CHL1    C3 3771   5.537   5.844   6.815  0.2851  0.4219 -0.3635
   36CHL1    H3 3772   5.600   5.918   6.761  0.9568  0.6918  0.7534
   36CHL1    O3 3773   5.544   5.868   6.951 -0.2351 -0.6934 -0.0707
   36CHL1   H3' 3774   5.476   5.811   6.987 -1.9241  0.1623 -1.7717
   36CHL1    C4 3775   5.390   5.837   6.775  0.5766 -0.7497  0.5039
   36CHL1   H4A 3776   5.333   5.759   6.830 -2.7837  0.9001 -0.3383
   36CHL1   H4B 3777   5.347   5.938   6.794  2.9983  0.3174  0.6863
   36CHL1    C5 3778   5.366   5.787   6.634 -0.3221 -0.1088 -0.1681
   36CHL1    C6 3779   5.302   5.855   6.538 -0.3207  0.0411 -0.4440
   36CHL1    H6 3780   5.264   5.952   6.572  0.3459 -0.1658  0.9289
   36CHL1    C7 3781   5.258   5.810   6.403  0.1778 -0.9118 -0.1087
   36CHL1   H7A 3782   5.150   5.829   6.386  0.6883  0.1345 -2.6074
   36CHL1   H7B 3783   5.318   5.858   6.322 -0.8971 -0.2231 -0.5083
   36CHL1    C8 3784   5.281   5.656   6.397  0.2770 -0.4735  0.6344
   36CHL1    H8 3785   5.209   5.597   6.457  0.5661 -1.9520 -0.4156
   36CHL1   C14 3786   5.259   5.610   6.251  0.2199  1.0381 -0.0446
   36CHL1   H14 3787   5.329   5.669   6.189 -2.1599  1.4218 -2.5639
   36CHL1   C15 3788   5.124   5.633   6.186  0.0338  0.0629 -0.0009
   36CHL1  H15A 3789   5.037   5.589   6.241 -1.5016  2.3342 -0.4836
   36CHL1  H15B 3790   5.083   5.728   6.146 -1.0674  0.1273  1.2086
   36CHL1   C16 3791   5.135   5.559   6.059 -0.2654  0.8957  0.5021
   36CHL1  H16A 3792   5.047   5.502   6.022 -0.3811  1.7302 -0.5599
   36CHL1  H16B 3793   5.169   5.627   5.978  0.3383 -0.1316 -0.1430
   36CHL1   C17 3794   5.259   5.459   6.077 -0.0659 -0.2373 -0.3065
   36CHL1   H17 3795   5.340   5.506   6.018 -1.5732  1.2016 -1.3320
   36CHL1   C13 3796   5.295   5.469   6.225  0.0941 -0.0411 -0.4003
   36CHL1   C18 3797   5.211   5.369   6.313 -0.6343 -0.4374 -0.3035
   36CHL1  H18A 3798   5.101   5.375   6.296 -0.9504 -0.0303  1.7003
   36CHL1  H18B 3799   5.236   5.265   6.281 -1.6746 -0.8318  0.1210
   36CHL1  H18C 3800   5.230   5.369   6.422 -0.7335  0.3653 -0.2819
   36CHL1   C12 3801   5.445   5.461   6.258  0.1681 -0.4720 -0.6969
   36CHL1  H12A 3802   5.484   5.361   6.230 -1.2848 -0.8694 -1.4118
   36CHL1  H12B 3803   5.500   5.539   6.201 -1.4698  3.1868  2.2797
   36CHL1   C11 3804   5.474   5.476   6.402 -0.3340 -0.2439 -0.6720
   36CHL1  H11A 3805   5.429   5.387   6.452 -2.0020  0.3033 -1.1357
   36CHL1  H11B 3806   5.584   5.480   6.414 -0.3404 -1.7423  0.2009
   36CHL1    C9 3807   5.417   5.619   6.447 -0.2401  0.0609  0.0532
   36CHL1    H9 3808   5.486   5.694   6.403  0.0540 -0.3419 -0.1867
   36CHL1   C10 3809   5.433   5.648   6.598  0.3452 -0.7158 -0.6255
   36CHL1   C19 3810   5.364   5.543   6.684  0.2793  0.6679  0.3684
   36CHL1  H19A 3811   5.436   5.458   6.675 -0.3174  0.0776  1.0261
   36CHL1  H19B 3812   5.361   5.564   6.793  0.1682 -1.1095  0.7330
   36CHL1  H19C 3813   5.267   5.497   6.657 -0.5931  1.0732  2.6078
   36CHL1    C1 3814   5.586   5.666   6.639  0.5233  0.4321 -0.2342
   36CHL1   H1A 3815   5.634   5.567   6.631  1.6961  0.9992 -0.4951
   36CHL1   H1B 3816   5.630   5.744   6.573 -2.7144  2.0415 -0.6767
   36CHL1    C2 3817   5.608   5.711   6.786 -0.1739  0.1146 -0.6236
   36CHL1   H2A 3818   5.717   5.719   6.807 -0.0006  1.7380 -1.9145
   36CHL1   H2B 3819   5.574   5.635   6.859  1.4843  1.1736  1.3637
   36CHL1   C20 3820   5.230   5.328   6.010  0.1124  0.8024  0.6561
   36CHL1   H20 3821   5.139   5.272   6.040  1.0915 -1.6103 -0.5550
   36CHL1   C21 3822   5.350   5.236   6.033  0.2296 -0.3684 -0.0383
   36CHL1  H21A 3823   5.448   5.271   5.995  0.4140 -0.1220  0.6520
   36CHL1  H21B 3824   5.324   5.134   5.997 -2.3104 -0.6195  2.2026
   36CHL1  H21C 3825   5.366   5.221   6.142 -0.4063  0.0003  0.1151
   36CHL1   C22 3826   5.219   5.337   5.856 -0.4677  0.3764 -0.0004
   36CHL1  H22A 3827   5.156   5.423   5.824  1.5955  0.9220 -2.9533
   36CHL1  H22B 3828   5.321   5.359   5.820 -0.4517  1.6561  0.7674
   36CHL1   C23 3829   5.156   5.199   5.799 -0.2105  0.3279 -0.3360
   36CHL1  H23A 3830   5.221   5.114   5.826  0.8822  1.5044  0.8929
   36CHL1  H23B 3831   5.063   5.183   5.858  1.0128 -0.2317  1.4982
   36CHL1   C24 3832   5.121   5.211   5.644 -1.1295  0.3986 -0.3521
   36CHL1  H24A 3833   5.068   5.306   5.623 -1.2782  0.2606 -0.6094
   36CHL1  H24B 3834   5.220   5.218   5.596 -0.0921  1.1982  1.7943
   36CHL1   C25 3835   5.043   5.090   5.581 -0.0655  0.0870  0.3208
   36CHL1   H25 3836   4.934   5.100   5.597 -0.1283 -0.8481  0.5322
   36CHL1   C26 3837   5.067   5.082   5.435 -0.1753 -0.0847  0.3889
   36CHL1  H26A 3838   5.175   5.090   5.412 -0.1451 -0.9154  0.2315
   36CHL1  H26B 3839   5.039   4.984   5.392  1.4025  0.3236 -1.7483
   36CHL1  H26C 3840   5.009   5.165   5.388 -0.7651 -0.7955 -0.1782
   36CHL1   C27 3841   5.078   4.957   5.651 -0.3819  0.4908  0.1880
   36CHL1  H27A 3842   5.039   4.951   5.755 -0.6848 -1.3351  0.0005
   36CHL1  H27B 3843   5.030   4.865   5.611 -2.6094  1.0632  1.3644
   36CHL1  H27C 3844   5.186   4.942   5.667 -0.2579 -0.1139 -1.0514
   37CHL1    C3 3845   0.731   4.301   6.860 -0.3694 -0.1907 -0.9252
   37CHL1    H3 3846   0.652   4.225   6.843  1.7060 -2.3876 -1.4559
   37CHL1    O3 3847   0.756   4.289   7.002  0.0625  0.5705  0.2457
   37CHL1   H3' 3848   0.820   4.221   7.025 -2.9889 -2.5169  0.5098
   37CHL1    C4 3849   0.855   4.272   6.776  0.2994 -0.2923  0.0031
   37CHL1   H4A 3850   0.935   4.339   6.813  0.3381 -0.8832  1.0267
   37CHL1   H4B 3851   0.889   4.168   6.795  1.1342  0.4413  3.0828
   37CHL1    C5 3852   0.822   4.304   6.631  0.0638 -0.5139  0.5955
   37CHL1    C6 3853   0.857   4.217   6.532  0.1487  0.0394 -0.6351
   37CHL1    H6 3854   0.908   4.124   6.562  0.3060  0.3376  0.0293
   37CHL1    C7 3855   0.830   4.239   6.388 -0.3074  0.7022  0.5146
   37CHL1   H7A 3856   0.924   4.212   6.336  0.2944 -2.7322  3.0179
   37CHL1   H7B 3857   0.742   4.179   6.356  0.3001  0.2688 -0.3626
   37CHL1    C8 3858   0.806   4.394   6.353  0.5697 -0.0103 -0.3384
   37CHL1    H8 3859   0.908   4.436   6.365 -0.1145  1.0247  2.6491
   37CHL1   C14 3860   0.749   4.399   6.214 -0.1640 -0.0869  0.7247
   37CHL1   H14 3861   0.651   4.347   6.220 -0.0239 -0.3777  0.5166
   37CHL1   C15 3862   0.827   4.328   6.102  0.4177  0.4422 -0.3269
   37CHL1  H15A 3863   0.932   4.362   6.115  0.0026  1.1340  1.4668
   37CHL1  H15B 3864   0.814   4.218   6.104 -0.3746  0.5303 -0.0498
   37CHL1   C16 3865   0.769   4.384   5.973 -0.8381  0.8323  0.6751
   37CHL1  H16A 3866   0.862   4.423   5.927 -0.8280  1.6970  1.3908
   37CHL1  H16B 3867   0.712   4.318   5.905  1.3074 -0.8942  0.4625
   37CHL1   C17 3868   0.687   4.512   6.021  0.2929  0.3726  0.8439
   37CHL1   H17 3869   0.586   4.466   6.029 -0.0589  0.6897 -1.2590
   37CHL1   C13 3870   0.728   4.537   6.161 -0.4078 -0.2793 -0.5682
   37CHL1   C18 3871   0.860   4.625   6.160  0.0014  0.3330 -0.3643
   37CHL1  H18A 3872   0.933   4.579   6.090 -2.1156  0.3757 -2.7282
   37CHL1  H18B 3873   0.841   4.730   6.132 -1.2531  0.3800  0.5795
   37CHL1  H18C 3874   0.898   4.625   6.265  0.6645 -2.1268 -0.5369
   37CHL1   C12 3875   0.627   4.603   6.260  0.9561  0.0390 -0.2035
   37CHL1  H12A 3876   0.622   4.707   6.221  0.6115  0.2019  0.2785
   37CHL1  H12B 3877   0.525   4.559   6.262 -0.3206  2.8159  0.9027
   37CHL1   C11 3878   0.671   4.600   6.406 -0.2696 -0.4120 -0.2943
   37CHL1  H11A 3879   0.765   4.659   6.412 -0.1108 -0.7449  0.7415
   37CHL1  H11B 3880   0.613   4.657   6.481  1.6425  0.2113  0.7923
   37CHL1    C9 3881   0.708   4.462   6.463  0.6058  0.6563  0.5625
   37CHL1    H9 3882   0.612   4.406   6.458 -1.1154  3.3957  0.9194
   37CHL1   C10 3883   0.753   4.443   6.605  0.0981  0.0803  0.0260
   37CHL1   C19 3884   0.853   4.558   6.637  0.0796 -0.7837  0.4667
   37CHL1  H19A 3885   0.806   4.657   6.618 -1.0606 -0.8114  2.7567
   37CHL1  H19B 3886   0.887   4.561   6.743 -0.1440 -0.6536  0.5353
   37CHL1  H19C 3887   0.940   4.551   6.568  2.8839  1.8123  3.4068
   37CHL1    C1 3888   0.628   4.461   6.694 -0.1570  0.6691  0.5214
   37CHL1   H1A 3889   0.588   4.563   6.680 -3.3372 -0.4237  0.8178
   37CHL1   H1B 3890   0.564   4.374   6.667  2.0304 -0.6470 -0.6973
   37CHL1    C2 3891   0.669   4.438   6.844  0.0655 -0.0016 -0.1461
   37CHL1   H2A 3892   0.583   4.453   6.912  1.0538 -0.2991  1.2066
   37CHL1   H2B 3893   0.740   4.517   6.875  1.4507 -1.4599  0.5505
   37CHL1   C20 3894   0.662   4.631   5.935  0.0153  0.6917  0.3826
   37CHL1   H20 3895   0.666   4.723   5.998 -0.7568  0.6012  0.5811
   37CHL1   C21 3896   0.523   4.619   5.865 -0.0400 -0.1262  0.0954
   37CHL1  H21A 3897   0.438   4.604   5.934 -0.5138  1.8385 -0.0059
   37CHL1  H21B 3898   0.516   4.541   5.786 -0.7601  0.4181 -0.3949
   37CHL1  H21C 3899   0.505   4.712   5.806 -0.2689  0.4118  0.9916
   37CHL1   C22 3900   0.771   4.666   5.827 -0.4256 -0.4149  0.1178
   37CHL1  H22A 3901   0.869   4.650   5.878  0.2719 -2.0895 -1.6114
   37CHL1  H22B 3902   0.768   4.581   5.755 -1.4423 -0.3134  0.0347
   37CHL1   C23 3903   0.764   4.811   5.769 -0.2086  0.2812 -0.0472
   37CHL1  H23A 3904   0.660   4.816   5.731 -0.6821 -1.6233  0.8574
   37CHL1  H23B 3905   0.781   4.882   5.852 -0.1413  1.4298 -1.0214
   37CHL1   C24 3906   0.839   4.839   5.637  0.4868 -0.1828  0.4512
   37CHL1  H24A 3907   0.949   4.829   5.654  0.5374  0.5846  0.6012
   37CHL1  H24B 3908   0.801   4.762   5.566 -1.1528  0.8652  0.1563
   37CHL1   C25 3909   0.812   4.975   5.572  0.8887 -0.0725  0.4159
   37CHL1   H25 3910   0.874   4.988   5.480  0.1743  0.5554  0.0161
   37CHL1   C26 3911   0.662   4.982   5.534  0.2716  0.1426 -0.0212
   37CHL1  H26A 3912   0.618   4.883   5.512  0.6593  0.4113 -2.2729
   37CHL1  H26B 3913   0.612   5.032   5.620  4.8390  2.3675  1.6619
   37CHL1  H26C 3914   0.656   5.033   5.436  2.1192 -2.0632 -1.3762
   37CHL1   C27 3915   0.858   5.090   5.659 -0.0010  0.0456 -0.7271
   37CHL1  H27A 3916   0.959   5.058   5.694 -0.3268  1.3632  1.6636
   37CHL1  H27B 3917   0.876   5.184   5.603  0.3262  0.7128  0.4571
   37CHL1  H27C 3918   0.799   5.100   5.753 -1.9943  1.4032 -2.0399
   38CHL1    C3 3919   3.441   4.690   7.374  0.9095 -0.2570 -0.1195
   38CHL1    H3 3920   3.354   4.756   7.396  0.6372 -0.0337 -1.7414
   38CHL1    O3 3921   3.464   4.626   7.506  0.5520  0.0017  0.6932
   38CHL1   H3' 3922   3.506   4.545   7.474 -0.0039 -0.8038  1.9385
   38CHL1    C4 3923   3.393   4.593   7.260  0.7837 -0.1339 -0.2042
   38CHL1   H4A 3924   3.466   4.510   7.254  1.1155  0.1878 -0.6860
   38CHL1   H4B 3925   3.297   4.547   7.294 -0.7130  0.8818 -2.7397
   38CHL1    C5 3926   3.369   4.649   7.120 -0.1778  0.4751  0.3314
   38CHL1    C6 3927   3.260   4.638   7.045  0.6251  0.4096  0.3767
   38CHL1    H6 3928   3.184   4.573   7.091  0.0487  1.0175  0.2932
   38CHL1    C7 3929   3.242   4.687   6.901 -0.1173 -0.1329 -0.5280
   38CHL1   H7A 3930   3.190   4.611   6.839 -0.0941 -2.9460  2.5846
   38CHL1   H7B 3931   3.184   4.781   6.907 -0.9137 -0.6434 -0.1610
   38CHL1    C8 3932   3.383   4.724   6.839 -0.3465 -0.8570 -0.1234
   38CHL1    H8 3933   3.432   4.629   6.808 -2.3202 -1.4504 -1.6301
   38CHL1   C14 3934   3.360   4.810   6.716 -0.0379  0.0534  0.2606
   38CHL1   H14 3935   3.299   4.895   6.754  1.2147  0.4303  1.4939
   38CHL1   C15 3936   3.273   4.737   6.614 -0.5533  0.4327  0.0215
   38CHL1  H15A 3937   3.315   4.634   6.614 -0.3388  0.4708 -1.7916
   38CHL1  H15B 3938   3.167   4.740   6.646 -1.1992  1.4752 -2.0121
   38CHL1   C16 3939   3.294   4.821   6.485 -0.1514 -0.0284  0.1317
   38CHL1  H16A 3940   3.323   4.750   6.404 -1.2531 -0.1862 -0.1362
   38CHL1  H16B 3941   3.203   4.876   6.454  2.0357  2.6484 -2.1796
   38CHL1   C17 3942   3.404   4.919   6.514 -0.5194 -0.4055  0.0310
   38CHL1   H17 3943   3.359   5.012   6.554 -1.6461  0.8325 -3.7099
   38CHL1   C13 3944   3.476   4.860   6.634 -0.5095 -0.5618 -0.7415
   38CHL1   C18 3945   3.571   4.741   6.594 -0.0575  0.5168  0.3263
   38CHL1  H18A 3946   3.518   4.689   6.511  1.9955 -0.0855 -0.6519
   38CHL1  H18B 3947   3.666   4.776   6.550  1.3968  0.6085  3.2816
   38CHL1  H18C 3948   3.592   4.682   6.686  0.6189  0.2290 -0.0115
   38CHL1   C12 3949   3.549   4.953   6.740 -0.7158 -0.5170  0.2256
   38CHL1  H12A 3950   3.638   5.009   6.704 -0.0594 -1.0894  0.9507
   38CHL1  H12B 3951   3.489   5.044   6.763 -1.9470 -1.3915  0.5712
   38CHL1   C11 3952   3.595   4.871   6.867  0.0417  0.1607 -0.0753
   38CHL1  H11A 3953   3.671   4.796   6.838 -0.0133 -0.1961  0.6807
   38CHL1  H11B 3954   3.645   4.947   6.931 -0.2655  0.4470 -0.1689
   38CHL1    C9 3955   3.467   4.806   6.939 -0.7074  0.0805 -0.5028
   38CHL1    H9 3956   3.410   4.896   6.971  1.2588  2.0919 -2.2654
   38CHL1   C10 3957   3.493   4.728   7.071 -0.0262 -0.0686 -0.1512
   38CHL1   C19 3958   3.609   4.619   7.035  0.1353 -0.2201 -0.5341
   38CHL1  H19A 3959   3.590   4.567   6.939  2.0687  0.2224 -1.2021
   38CHL1  H19B 3960   3.707   4.670   7.027 -1.5150  3.3317 -0.1955
   38CHL1  H19C 3961   3.625   4.547   7.118  3.3709 -0.5930 -1.3385
   38CHL1    C1 3962   3.542   4.831   7.187 -0.2939  0.2157  0.5090
   38CHL1   H1A 3963   3.645   4.857   7.155  0.9080 -1.6475  2.5776
   38CHL1   H1B 3964   3.481   4.923   7.187  0.6570  0.8839 -0.6536
   38CHL1    C2 3965   3.561   4.775   7.335  0.0728  0.3417 -0.0261
   38CHL1   H2A 3966   3.579   4.857   7.408 -0.7867  1.0102 -0.5447
   38CHL1   H2B 3967   3.653   4.715   7.320 -0.0351  0.4501 -1.2929
   38CHL1   C20 3968   3.490   4.955   6.392 -0.1333  0.0162 -0.1717
   38CHL1   H20 3969   3.546   4.866   6.357 -0.3747 -0.4803  0.6662
   38CHL1   C21 3970   3.578   5.077   6.425 -0.8790 -0.6953  0.0807
   38CHL1  H21A 3971   3.522   5.171   6.443  1.5976  0.7344  0.6512
   38CHL1  H21B 3972   3.641   5.094   6.335 -0.0767 -2.3288  0.2902
   38CHL1  H21C 3973   3.661   5.054   6.495 -0.3916  0.4697 -0.1041
   38CHL1   C22 3974   3.401   4.993   6.267  0.5412 -0.5722  0.8333
   38CHL1  H22A 3975   3.324   4.918   6.237 -0.0482 -0.4598  1.9926
   38CHL1  H22B 3976   3.350   5.087   6.298  0.4079 -0.2648 -0.2695
   38CHL1   C23 3977   3.489   5.025   6.146  0.5286 -0.0034  0.4251
   38CHL1  H23A 3978   3.575   5.095   6.158 -0.1599  0.8721  0.2800
   38CHL1  H23B 3979   3.520   4.927   6.104 -0.0553  0.1017 -0.2673
   38CHL1   C24 3980   3.404   5.103   6.043 -0.2990  0.4096  0.2846
   38CHL1  H24A 3981   3.315   5.037   6.045 -0.9456  1.2847  0.8036
   38CHL1  H24B 3982   3.381   5.201   6.089 -2.0114 -0.9043  2.4295
   38CHL1   C25 3983   3.443   5.106   5.891 -0.6764  0.2267  0.3852
   38CHL1   H25 3984   3.457   5.008   5.840  1.0652  0.3553  0.5638
   38CHL1   C26 3985   3.333   5.161   5.804 -0.1472  0.1479 -0.4487
   38CHL1  H26A 3986   3.250   5.088   5.800  1.0227 -1.1928 -1.1866
   38CHL1  H26B 3987   3.297   5.258   5.847 -1.0033 -0.2077 -0.3449
   38CHL1  H26C 3988   3.369   5.180   5.701  0.2653  0.2922 -0.2828
   38CHL1   C27 3989   3.577   5.179   5.859  0.4700 -0.2118  0.0490
   38CHL1  H27A 3990   3.655   5.146   5.930  0.0798  0.4332  0.7846
   38CHL1  H27B 3991   3.604   5.172   5.751 -0.5899  1.2871 -0.3423
   38CHL1  H27C 3992   3.554   5.287   5.864 -1.0266 -0.5667  1.5405
   39CHL1    C3 3993   2.529   6.279   6.812 -1.2144  0.3609  0.0358
   39CHL1    H3 3994   2.444   6.210   6.791 -0.5233 -0.9654  1.4574
   39CHL1    O3 3995   2.589   6.269   6.934  0.0192  0.2256 -0.1792
   39CHL1   H3' 3996   2.519   6.301   6.991 -0.4095 -0.8533 -0.0718
   39CHL1    C4 3997   2.644   6.278   6.714 -1.1333  0.5724  0.7417
   39CHL1   H4A 3998   2.724   6.344   6.754  0.6321 -1.3655  0.5703
   39CHL1   H4B 3999   2.696   6.180   6.712 -1.3639  0.4487 -1.3833
   39CHL1    C5 4000   2.605   6.305   6.572 -0.3365  0.6053 -0.0899
   39CHL1    C6 4001   2.629   6.203   6.483  0.6245 -0.2385 -0.9949
   39CHL1    H6 4002   2.676   6.111   6.520 -1.5917 -1.7491 -1.7133
   39CHL1    C7 4003   2.597   6.216   6.334  0.9009  0.6620  0.2558
   39CHL1   H7A 4004   2.685   6.191   6.270  0.7570  1.5304 -0.3073
   39CHL1   H7B 4005   2.511   6.151   6.308  0.0435  1.6738  0.5201
   39CHL1    C8 4006   2.561   6.363   6.298  0.6387 -0.5853  0.7708
   39CHL1    H8 4007   2.656   6.420   6.292 -0.0552  0.4973 -0.1901
   39CHL1   C14 4008   2.496   6.373   6.155 -0.0622 -0.3126  0.0414
   39CHL1   H14 4009   2.410   6.304   6.146 -0.8105  0.4497  1.1873
   39CHL1   C15 4010   2.588   6.338   6.041 -0.1452 -0.3238  0.8387
   39CHL1  H15A 4011   2.690   6.379   6.055  0.0281  0.5542 -2.3090
   39CHL1  H15B 4012   2.606   6.228   6.041  1.6810 -0.0588  1.3492
   39CHL1   C16 4013   2.532   6.406   5.914 -0.4075 -0.6472 -1.0986
   39CHL1  H16A 4014   2.608   6.453   5.848  1.8075 -2.1776  0.2511
   39CHL1  H16B 4015   2.509   6.320   5.847  0.6592 -0.2892 -1.9526
   39CHL1   C17 4016   2.414   6.481   5.965 -0.3807 -0.0034  0.2731
   39CHL1   H17 4017   2.333   6.406   5.977  0.5140 -0.9939  0.2286
   39CHL1   C13 4018   2.441   6.506   6.115 -0.6104 -0.7909  0.1269
   39CHL1   C18 4019   2.558   6.614   6.123  0.1430  0.1926 -0.0380
   39CHL1  H18A 4020   2.655   6.584   6.078 -1.2021 -1.4602 -2.0769
   39CHL1  H18B 4021   2.530   6.698   6.056  0.2184  0.2713  0.0289
   39CHL1  H18C 4022   2.570   6.652   6.226 -0.4627  1.3770 -0.3865
   39CHL1   C12 4023   2.329   6.544   6.211 -0.2183  0.5624 -0.0038
   39CHL1  H12A 4024   2.301   6.648   6.182  2.6688  1.8782  1.4393
   39CHL1  H12B 4025   2.251   6.465   6.205  1.7806 -1.5320  0.3625
   39CHL1   C11 4026   2.374   6.548   6.362  0.5947  0.6733  0.2322
   39CHL1  H11A 4027   2.435   6.641   6.369  2.8042 -0.6501 -0.2704
   39CHL1  H11B 4028   2.278   6.550   6.417 -1.3116  1.5744 -2.8983
   39CHL1    C9 4029   2.459   6.420   6.408 -0.4998  0.1561  0.3240
   39CHL1    H9 4030   2.384   6.339   6.417  0.3557 -0.8111 -0.8635
   39CHL1   C10 4031   2.521   6.434   6.550  0.0652 -0.3024  0.1028
   39CHL1   C19 4032   2.623   6.554   6.553 -0.2691  0.4881 -0.4803
   39CHL1  H19A 4033   2.697   6.535   6.634  2.5965  0.0581 -3.0378
   39CHL1  H19B 4034   2.672   6.566   6.454 -1.1158 -0.9267 -1.1083
   39CHL1  H19C 4035   2.576   6.650   6.584  2.2936  1.0984  1.9444
   39CHL1    C1 4036   2.411   6.441   6.659 -0.0993  0.0380 -0.0683
   39CHL1   H1A 4037   2.363   6.540   6.650 -0.1297 -0.0204 -0.5465
   39CHL1   H1B 4038   2.343   6.358   6.629  0.0515  0.0530 -0.4631
   39CHL1    C2 4039   2.459   6.416   6.804  0.5810 -0.8370  0.4842
   39CHL1   H2A 4040   2.379   6.423   6.881 -0.7768  0.8482 -0.9725
   39CHL1   H2B 4041   2.540   6.487   6.833 -0.9137  0.0643  2.6619
   39CHL1   C20 4042   2.363   6.587   5.873 -0.6422 -0.5138  0.1969
   39CHL1   H20 4043   2.442   6.665   5.864  0.3755 -1.5781 -0.5270
   39CHL1   C21 4044   2.234   6.652   5.918 -0.1839  0.2910  0.3497
   39CHL1  H21A 4045   2.256   6.730   5.994  0.2731  0.1149  0.4001
   39CHL1  H21B 4046   2.163   6.582   5.968  1.2488 -2.4499 -1.2603
   39CHL1  H21C 4047   2.195   6.689   5.821  1.2321 -0.9581 -0.7374
   39CHL1   C22 4048   2.355   6.534   5.724 -0.0355 -0.0907  0.5380
   39CHL1  H22A 4049   2.325   6.609   5.648 -2.3447  0.3751  1.8090
   39CHL1  H22B 4050   2.461   6.532   5.691  0.0232  1.0398  0.6279
   39CHL1   C23 4051   2.276   6.409   5.689 -0.3642  0.1032 -0.1807
   39CHL1  H23A 4052   2.309   6.319   5.746  1.4075  0.3662 -0.7347
   39CHL1  H23B 4053   2.169   6.422   5.712 -0.5012 -1.0994 -0.0791
   39CHL1   C24 4054   2.293   6.388   5.537 -0.2748 -0.9939  0.0095
   39CHL1  H24A 4055   2.270   6.487   5.493 -1.2765 -1.3257 -0.2329
   39CHL1  H24B 4056   2.400   6.366   5.516  0.1592  1.7640 -1.0040
   39CHL1   C25 4057   2.204   6.281   5.479 -0.8921  0.5856 -0.2122
   39CHL1   H25 4058   2.116   6.296   5.545 -0.7847  3.9771 -0.6539
   39CHL1   C26 4059   2.165   6.308   5.333 -0.3683  0.7301  0.6326
   39CHL1  H26A 4060   2.083   6.383   5.334 -1.6744 -0.6540  0.6706
   39CHL1  H26B 4061   2.241   6.357   5.269  0.1106 -2.0798 -1.0966
   39CHL1  H26C 4062   2.141   6.215   5.279  3.0891 -0.4721  0.9788
   39CHL1   C27 4063   2.250   6.138   5.501  0.1767 -0.3785 -0.7201
   39CHL1  H27A 4064   2.342   6.118   5.443  2.5071 -1.2769  2.9203
   39CHL1  H27B 4065   2.253   6.121   5.611  3.1632  0.0357 -0.6452
   39CHL1  H27C 4066   2.172   6.070   5.461 -1.8055  1.7800 -0.7194
   40CHL1    C3 4067   3.523   4.253   7.133 -0.3704  0.4452 -1.0062
   40CHL1    H3 4068   3.495   4.360   7.123 -3.1454 -0.1689 -0.5506
   40CHL1    O3 4069   3.577   4.229   7.265 -0.7968  0.2068 -0.0408
   40CHL1   H3' 4070   3.638   4.156   7.248  1.6175  2.7024 -3.5683
   40CHL1    C4 4071   3.399   4.164   7.112  0.2681 -0.7332 -0.6649
   40CHL1   H4A 4072   3.421   4.056   7.129  0.5586 -0.7633 -1.2073
   40CHL1   H4B 4073   3.331   4.194   7.195  2.2901  0.8183  0.5286
   40CHL1    C5 4074   3.339   4.186   6.977  0.1600  0.6465 -0.2277
   40CHL1    C6 4075   3.211   4.207   6.964 -0.0404 -0.3988 -0.5041
   40CHL1    H6 4076   3.145   4.207   7.052  0.6691  0.9527  0.0720
   40CHL1    C7 4077   3.140   4.229   6.838 -0.2255  0.6269 -0.4800
   40CHL1   H7A 4078   3.048   4.166   6.829 -0.3385  0.8629 -1.0577
   40CHL1   H7B 4079   3.110   4.334   6.819 -0.9511  0.6224  0.5717
   40CHL1    C8 4080   3.230   4.197   6.714 -0.5849 -0.1432  0.7378
   40CHL1    H8 4081   3.232   4.087   6.707 -1.9609 -0.0891 -1.5366
   40CHL1   C14 4082   3.175   4.260   6.582 -0.0618  0.5708  0.2131
   40CHL1   H14 4083   3.184   4.371   6.584  1.9161  0.4495  2.2355
   40CHL1   C15 4084   3.032   4.223   6.541  0.9853  0.6604 -0.5193
   40CHL1  H15A 4085   3.012   4.116   6.560 -1.0233  1.0424 -0.2479
   40CHL1  H15B 4086   2.951   4.289   6.578  0.7925  1.4342 -2.2273
   40CHL1   C16 4087   3.021   4.236   6.387 -0.4291  0.9963  0.4196
   40CHL1  H16A 4088   2.989   4.137   6.347 -0.8065  1.0187  0.6595
   40CHL1  H16B 4089   2.945   4.315   6.367 -1.6387  0.1025  1.3239
   40CHL1   C17 4090   3.169   4.282   6.347  0.4995 -0.4853 -0.1340
   40CHL1   H17 4091   3.180   4.391   6.362 -0.7371 -0.4605  0.7816
   40CHL1   C13 4092   3.261   4.224   6.456  0.6878 -0.3341 -0.1197
   40CHL1   C18 4093   3.275   4.075   6.436  0.8685 -0.0273 -0.0171
   40CHL1  H18A 4094   3.336   4.026   6.514  1.3459  1.8850  0.8546
   40CHL1  H18B 4095   3.172   4.033   6.441  0.8401  0.0643  0.1536
   40CHL1  H18C 4096   3.335   4.049   6.346  0.2217  0.2956 -0.5561
   40CHL1   C12 4097   3.399   4.287   6.481  0.2344 -0.3048  1.2660
   40CHL1  H12A 4098   3.455   4.252   6.391  0.3919  0.5353  1.0290
   40CHL1  H12B 4099   3.401   4.398   6.483 -0.4935 -0.1743 -1.1639
   40CHL1   C11 4100   3.463   4.231   6.608 -0.5708 -0.3466  0.3082
   40CHL1  H11A 4101   3.496   4.129   6.579 -0.7621  0.2227 -2.0779
   40CHL1  H11B 4102   3.557   4.287   6.629 -1.2128  0.8686 -0.0221
   40CHL1    C9 4103   3.379   4.240   6.732  0.2981  0.1465 -0.6289
   40CHL1    H9 4104   3.376   4.349   6.756  0.2190 -0.3325  1.8731
   40CHL1   C10 4105   3.435   4.182   6.860 -0.3138  0.1139  0.3817
   40CHL1   C19 4106   3.463   4.030   6.834  0.2773  0.3086  0.7145
   40CHL1  H19A 4107   3.502   3.980   6.926  0.9958  0.2895  0.4065
   40CHL1  H19B 4108   3.365   3.983   6.810  1.0278 -0.1647 -1.7347
   40CHL1  H19C 4109   3.528   4.013   6.746  0.3207  0.6294  0.6825
   40CHL1    C1 4110   3.567   4.254   6.892 -0.1884 -0.1692  0.3577
   40CHL1   H1A 4111   3.651   4.236   6.820  2.7916  0.6995  3.3648
   40CHL1   H1B 4112   3.548   4.363   6.897 -1.2027 -0.3695  1.0630
   40CHL1    C2 4113   3.630   4.219   7.025  0.9478  0.5181  0.3083
   40CHL1   H2A 4114   3.725   4.276   7.037  1.8622 -0.3754 -2.1215
   40CHL1   H2B 4115   3.655   4.111   7.029  1.7572  0.6590 -0.5608
   40CHL1   C20 4116   3.198   4.246   6.200 -0.4939 -0.2052 -0.2117
   40CHL1   H20 4117   3.233   4.141   6.188 -1.8763 -0.7620  0.3827
   40CHL1   C21 4118   3.319   4.334   6.150  0.1606 -0.3417 -0.0028
   40CHL1  H21A 4119   3.321   4.344   6.040  2.5067  4.8350  0.1950
   40CHL1  H21B 4120   3.419   4.295   6.181  2.4385  3.6297 -1.4848
   40CHL1  H21C 4121   3.304   4.440   6.181  1.8752  0.3019 -1.2043
   40CHL1   C22 4122   3.084   4.273   6.105 -0.4597 -0.1011  0.1357
   40CHL1  H22A 4123   2.988   4.225   6.135 -2.0080  0.0377 -3.8853
   40CHL1  H22B 4124   3.082   4.381   6.082 -0.3679 -0.2907 -0.8100
   40CHL1   C23 4125   3.098   4.200   5.963 -0.0105  0.6135 -0.0219
   40CHL1  H23A 4126   3.198   4.213   5.917  0.6738 -1.2346  0.8255
   40CHL1  H23B 4127   3.096   4.089   5.973  1.0863  0.6955  1.5369
   40CHL1   C24 4128   2.994   4.240   5.854  0.1690  0.4115  0.4062
   40CHL1  H24A 4129   2.893   4.224   5.897  0.7113 -0.5836  1.3402
   40CHL1  H24B 4130   3.010   4.345   5.820 -0.0384  0.2637 -0.1649
   40CHL1   C25 4131   2.996   4.166   5.724  0.8003  0.2141  0.4556
   40CHL1   H25 4132   2.982   4.058   5.750  0.1138  0.0804 -0.4210
   40CHL1   C26 4133   2.874   4.192   5.640  0.0907  0.1792  0.5506
   40CHL1  H26A 4134   2.847   4.137   5.548 -1.2289  0.6455  0.6390
   40CHL1  H26B 4135   2.784   4.184   5.704 -1.4573 -2.4598 -1.7360
   40CHL1  H26C 4136   2.878   4.298   5.608 -3.1815 -0.1399 -1.2875
   40CHL1   C27 4137   3.124   4.192   5.648  0.2224 -0.0907 -0.0438
   40CHL1  H27A 4138   3.215   4.148   5.695  0.1788  0.1816  0.3001
   40CHL1  H27B 4139   3.112   4.129   5.557  1.8634 -0.6117  0.0742
   40CHL1  H27C 4140   3.129   4.298   5.616  4.3353 -0.2684 -0.4359
   41CHL1    C3 4141   6.401   2.394   6.782  0.3009 -0.3951 -0.2676
   41CHL1    H3 4142   6.450   2.302   6.743 -1.2392 -0.5324 -2.0686
   41CHL1    O3 4143   6.362   2.372   6.914 -0.6600  0.0674 -0.1094
   41CHL1   H3' 4144   6.401   2.449   6.956  1.9428  0.1599 -2.4060
   41CHL1    C4 4145   6.503   2.506   6.778  0.1620 -0.2963 -0.1607
   41CHL1   H4A 4146   6.466   2.596   6.833 -1.6353 -0.3870 -1.1410
   41CHL1   H4B 4147   6.588   2.469   6.839 -1.1569 -0.3209  1.7324
   41CHL1    C5 4148   6.541   2.538   6.634  0.2470 -0.8022  0.3790
   41CHL1    C6 4149   6.668   2.555   6.590  0.2734 -0.5380 -0.2786
   41CHL1    H6 4150   6.748   2.554   6.665 -1.2654 -2.3634  1.4548
   41CHL1    C7 4151   6.719   2.574   6.449 -0.4191 -0.5953 -0.5044
   41CHL1   H7A 4152   6.802   2.648   6.441  1.9305 -2.5139  3.4577
   41CHL1   H7B 4153   6.764   2.477   6.418 -0.0915 -0.9542  1.0329
   41CHL1    C8 4154   6.596   2.615   6.359 -0.0917  0.0853  0.3486
   41CHL1    H8 4155   6.578   2.723   6.379 -0.4561  0.2312 -0.7196
   41CHL1   C14 4156   6.631   2.609   6.205  0.5018 -0.4893  0.6211
   41CHL1   H14 4157   6.666   2.504   6.199 -0.9428 -0.9162 -1.0775
   41CHL1   C15 4158   6.759   2.681   6.160 -0.5166  0.1066  0.6237
   41CHL1  H15A 4159   6.781   2.782   6.201  1.3619 -0.2400  0.5750
   41CHL1  H15B 4160   6.843   2.607   6.160 -1.1596 -0.6429  1.9990
   41CHL1   C16 4161   6.732   2.705   6.008  0.1654  0.5275 -0.5729
   41CHL1  H16A 4162   6.728   2.816   5.998  0.6463  0.7985  1.7120
   41CHL1  H16B 4163   6.810   2.647   5.954 -0.8717 -0.1751 -1.3580
   41CHL1   C17 4164   6.600   2.637   5.976 -0.1191  0.1763  0.0765
   41CHL1   H17 4165   6.614   2.530   5.950  2.8414  0.1791  1.2079
   41CHL1   C13 4166   6.517   2.641   6.110 -1.0844 -0.9442 -0.0333
   41CHL1   C18 4167   6.474   2.788   6.149 -0.2018 -0.4878 -0.7999
   41CHL1  H18A 4168   6.412   2.837   6.071 -1.7013  0.8617  1.1141
   41CHL1  H18B 4169   6.397   2.785   6.229 -1.2720  1.2413 -1.6830
   41CHL1  H18C 4170   6.554   2.857   6.183 -0.3328 -0.6222 -0.2122
   41CHL1   C12 4171   6.410   2.536   6.126 -0.6192 -0.0300  0.5910
   41CHL1  H12A 4172   6.313   2.564   6.080  0.0865  1.6963  0.0697
   41CHL1  H12B 4173   6.458   2.445   6.084  3.6605  1.6325  1.2850
   41CHL1   C11 4174   6.365   2.532   6.274  0.6838 -0.3647  0.1797
   41CHL1  H11A 4175   6.293   2.615   6.290  1.1331 -0.0449  0.5630
   41CHL1  H11B 4176   6.299   2.443   6.284  0.0970  0.1240  0.7215
   41CHL1    C9 4177   6.477   2.529   6.381  0.5357  0.1681 -1.0049
   41CHL1    H9 4178   6.524   2.429   6.374 -0.8350 -0.7777  1.7061
   41CHL1   C10 4179   6.425   2.544   6.522 -0.9993  0.3056  0.1940
   41CHL1   C19 4180   6.354   2.680   6.536 -0.1976 -0.0931 -0.7313
   41CHL1  H19A 4181   6.263   2.687   6.473  0.5448 -2.1760 -2.1249
   41CHL1  H19B 4182   6.317   2.703   6.639 -0.1969  0.4468 -0.8472
   41CHL1  H19C 4183   6.414   2.761   6.489  0.0925 -0.9644 -1.8916
   41CHL1    C1 4184   6.325   2.428   6.546  0.1741  0.1367  0.1965
   41CHL1   H1A 4185   6.231   2.447   6.491 -0.2852  0.2033  0.9946
   41CHL1   H1B 4186   6.364   2.334   6.502 -1.2123  0.5816 -2.0974
   41CHL1    C2 4187   6.277   2.411   6.690 -0.6383 -0.0673  0.1648
   41CHL1   H2A 4188   6.226   2.314   6.703 -0.9649  0.2534  1.4849
   41CHL1   H2B 4189   6.209   2.488   6.734 -0.7052 -1.1026  1.9869
   41CHL1   C20 4190   6.535   2.705   5.856 -0.9948  0.2933 -0.9748
   41CHL1   H20 4191   6.521   2.813   5.876  0.2877  0.1451  0.9042
   41CHL1   C21 4192   6.387   2.660   5.823 -0.4246  0.3444 -0.0372
   41CHL1  H21A 4193   6.319   2.693   5.905  0.0987  3.0025 -0.5776
   41CHL1  H21B 4194   6.375   2.550   5.813 -0.6548  0.3993 -0.3833
   41CHL1  H21C 4195   6.357   2.702   5.724  0.1530 -2.2820 -1.4102
   41CHL1   C22 4196   6.630   2.709   5.730 -0.7416  0.0739 -0.5652
   41CHL1  H22A 4197   6.737   2.727   5.752 -0.3514 -1.1258 -1.3709
   41CHL1  H22B 4198   6.632   2.610   5.679  1.2036 -1.1520  1.6702
   41CHL1   C23 4199   6.592   2.813   5.620 -0.3123 -0.6428 -1.2217
   41CHL1  H23A 4200   6.496   2.782   5.573 -0.9581  1.0521 -1.1024
   41CHL1  H23B 4201   6.570   2.903   5.681 -1.1830 -2.4786  1.3338
   41CHL1   C24 4202   6.684   2.835   5.506 -0.9496 -0.4297 -0.8284
   41CHL1  H24A 4203   6.767   2.908   5.519 -1.2030 -0.2098 -0.4572
   41CHL1  H24B 4204   6.728   2.735   5.485  0.8175 -0.3123  1.9128
   41CHL1   C25 4205   6.605   2.884   5.378 -0.0745  0.9389 -0.2766
   41CHL1   H25 4206   6.507   2.832   5.366 -0.5346  2.2519 -2.8586
   41CHL1   C26 4207   6.571   3.039   5.382 -0.2971 -0.5711 -0.0184
   41CHL1  H26A 4208   6.514   3.072   5.471 -0.3060  1.5729 -0.7489
   41CHL1  H26B 4209   6.653   3.113   5.376 -1.8470  1.2291 -0.0635
   41CHL1  H26C 4210   6.505   3.044   5.293 -1.8026 -2.5105  0.9057
   41CHL1   C27 4211   6.689   2.853   5.249 -0.0209 -0.5236  0.3929
   41CHL1  H27A 4212   6.698   2.743   5.235 -2.1229 -0.8262  1.1087
   41CHL1  H27B 4213   6.644   2.893   5.155 -0.1954 -2.0758 -0.2312
   41CHL1  H27C 4214   6.788   2.903   5.257 -1.4671  2.8993 -1.1009
   42CHL1    C3 4215   5.620   3.007   7.006  0.4908 -0.2340  0.9826
   42CHL1    H3 4216   5.621   3.118   6.998  1.4575 -0.3902 -3.5418
   42CHL1    O3 4217   5.637   2.977   7.145  0.2684 -0.6030 -0.4233
   42CHL1   H3' 4218   5.726   2.948   7.162  1.4799  1.4396 -2.6683
   42CHL1    C4 4219   5.486   2.949   6.963  0.1169  0.0128  0.6297
   42CHL1   H4A 4220   5.490   2.842   6.991 -0.4101 -0.6463 -1.5893
   42CHL1   H4B 4221   5.418   3.002   7.033 -0.0424  0.0114  0.4771
   42CHL1    C5 4222   5.453   2.970   6.813  0.5243 -0.7712 -0.2007
   42CHL1    C6 4223   5.339   3.021   6.772  0.2894 -0.4909  0.4181
   42CHL1    H6 4224   5.275   3.068   6.849  0.7301  0.0351  0.4660
   42CHL1    C7 4225   5.308   3.043   6.629  0.3359 -0.1356 -0.1366
   42CHL1   H7A 4226   5.208   3.001   6.606  0.0678 -0.4198  1.4378
   42CHL1   H7B 4227   5.302   3.152   6.612  0.1854 -0.2076 -0.5641
   42CHL1    C8 4228   5.412   2.977   6.534 -0.4009 -0.2920  0.0586
   42CHL1    H8 4229   5.393   2.868   6.526  0.7889 -0.4941 -0.0813
   42CHL1   C14 4230   5.398   3.050   6.399  0.4091  0.4781 -0.2665
   42CHL1   H14 4231   5.430   3.154   6.420 -1.3254  0.8317  0.8375
   42CHL1   C15 4232   5.255   3.052   6.334 -0.6247  0.2090 -0.2954
   42CHL1  H15A 4233   5.204   2.955   6.353 -1.1016  0.2612 -1.2381
   42CHL1  H15B 4234   5.200   3.135   6.383  1.3040  1.3078  0.0963
   42CHL1   C16 4235   5.286   3.060   6.188 -0.4193 -0.2250 -0.7711
   42CHL1  H16A 4236   5.237   2.970   6.144 -1.2351 -0.5267  0.6950
   42CHL1  H16B 4237   5.247   3.147   6.132  1.3313  1.0031 -0.1613
   42CHL1   C17 4238   5.440   3.044   6.164  0.2034  0.2679 -0.0530
   42CHL1   H17 4239   5.471   3.151   6.156 -1.1001  0.5785 -1.3176
   42CHL1   C13 4240   5.495   2.988   6.293 -0.0098  0.8328 -0.3838
   42CHL1   C18 4241   5.470   2.830   6.291  0.4065 -0.5736  0.4363
   42CHL1  H18A 4242   5.363   2.804   6.309  0.8404 -1.2422  2.2464
   42CHL1  H18B 4243   5.496   2.791   6.190 -2.5588 -0.0641 -0.6443
   42CHL1  H18C 4244   5.520   2.766   6.366  2.0330 -0.3340 -0.4037
   42CHL1   C12 4245   5.638   3.022   6.340 -0.2023 -0.5848 -0.3004
   42CHL1  H12A 4246   5.710   2.993   6.261  0.5883  1.0019 -0.2065
   42CHL1  H12B 4247   5.639   3.132   6.354 -0.9721 -0.5294 -0.6568
   42CHL1   C11 4248   5.662   2.962   6.478  0.4371  0.7336 -0.5197
   42CHL1  H11A 4249   5.677   2.853   6.462  1.0160  1.1234 -2.9408
   42CHL1  H11B 4250   5.763   2.995   6.510  1.5454 -1.4995 -1.5125
   42CHL1    C9 4251   5.554   2.994   6.582 -0.3008  0.4968  0.7260
   42CHL1    H9 4252   5.564   3.102   6.607 -0.1012  0.2905  1.5897
   42CHL1   C10 4253   5.571   2.930   6.719 -0.1482  0.9427  0.8161
   42CHL1   C19 4254   5.575   2.772   6.707  0.1331 -0.2443  0.1164
   42CHL1  H19A 4255   5.629   2.741   6.615  0.1208 -1.2950  0.4510
   42CHL1  H19B 4256   5.617   2.717   6.794 -0.5032 -1.3061 -0.2291
   42CHL1  H19C 4257   5.470   2.738   6.692 -0.2433  0.9633 -0.0599
   42CHL1    C1 4258   5.719   2.972   6.768  0.9537  0.5813  0.2440
   42CHL1   H1A 4259   5.800   2.912   6.720  1.0948  1.9225 -1.2998
   42CHL1   H1B 4260   5.731   3.083   6.766  0.7450  0.6262  1.0787
   42CHL1    C2 4261   5.733   2.949   6.917  0.5117  0.2844 -0.4012
   42CHL1   H2A 4262   5.835   2.975   6.951  0.5881 -1.7121  1.0791
   42CHL1   H2B 4263   5.716   2.839   6.926 -1.5471  0.5793 -0.2352
   42CHL1   C20 4264   5.471   2.980   6.025 -0.2327  0.2330 -0.4979
   42CHL1   H20 4265   5.425   2.879   6.020 -0.1192  0.1665 -0.1655
   42CHL1   C21 4266   5.624   2.968   6.004 -0.2187 -0.0304  0.2969
   42CHL1  H21A 4267   5.681   3.063   6.007  0.7340 -0.3987 -2.6066
   42CHL1  H21B 4268   5.649   2.921   5.906 -2.0021 -0.2158 -0.1030
   42CHL1  H21C 4269   5.673   2.904   6.081 -0.3500  1.0201  1.2799
   42CHL1   C22 4270   5.409   3.057   5.907 -0.1733 -0.6006 -0.4178
   42CHL1  H22A 4271   5.298   3.066   5.918  0.0170 -0.5919  2.0474
   42CHL1  H22B 4272   5.448   3.161   5.908 -0.3404 -0.5400  0.4931
   42CHL1   C23 4273   5.428   2.996   5.770  0.1384  0.2720  0.2621
   42CHL1  H23A 4274   5.535   2.977   5.744  0.4342 -0.6999  2.0088
   42CHL1  H23B 4275   5.374   2.899   5.769 -0.3331  0.5374 -0.3471
   42CHL1   C24 4276   5.383   3.086   5.654 -0.2559 -1.0262  0.4008
   42CHL1  H24A 4277   5.275   3.109   5.667 -0.2623 -0.8147 -0.0060
   42CHL1  H24B 4278   5.437   3.183   5.660  0.1905 -1.3250  1.3741
   42CHL1   C25 4279   5.396   3.026   5.514  0.1317 -0.3053 -0.5676
   42CHL1   H25 4280   5.346   2.927   5.502 -1.1404 -0.1329  2.4387
   42CHL1   C26 4281   5.326   3.113   5.410 -0.0285 -0.0485  0.1423
   42CHL1  H26A 4282   5.216   3.118   5.425 -0.0405  2.8599 -0.4385
   42CHL1  H26B 4283   5.367   3.216   5.413 -1.3013  0.5436 -1.2315
   42CHL1  H26C 4284   5.350   3.088   5.304 -1.1378  1.4286 -0.5061
   42CHL1   C27 4285   5.538   3.018   5.474 -0.8988 -0.5896 -0.2905
   42CHL1  H27A 4286   5.593   3.111   5.498  2.5649 -2.7218  0.8728
   42CHL1  H27B 4287   5.580   2.940   5.542  0.8441  1.2823  0.8916
   42CHL1  H27C 4288   5.542   2.980   5.369 -1.9269 -2.3722  0.2689
   43CHL1    C3 4289   3.454   1.026   6.806 -0.0707  0.0449  0.0856
   43CHL1    H3 4290   3.348   1.059   6.800 -0.0710 -0.0270 -0.3980
   43CHL1    O3 4291   3.476   0.947   6.920 -0.7399  0.7954 -0.4083
   43CHL1   H3' 4292   3.571   0.935   6.917 -0.7344  1.0306 -1.6513
   43CHL1    C4 4293   3.489   0.947   6.680  0.7391 -0.2151 -0.5451
   43CHL1   H4A 4294   3.593   0.909   6.694  0.2320 -1.0209  1.4128
   43CHL1   H4B 4295   3.419   0.861   6.678  0.6750 -0.1841  0.0675
   43CHL1    C5 4296   3.485   1.035   6.555  1.2358  0.2592 -0.7511
   43CHL1    C6 4297   3.400   1.015   6.454  0.3767 -0.1950 -0.2402
   43CHL1    H6 4298   3.329   0.931   6.459  0.4480 -0.1689  3.2924
   43CHL1    C7 4299   3.400   1.098   6.329  0.3344 -0.0227  0.6889
   43CHL1   H7A 4300   3.379   1.037   6.238  1.6704 -0.1965  0.4708
   43CHL1   H7B 4301   3.333   1.186   6.328  3.8159  2.8533 -0.3298
   43CHL1    C8 4302   3.533   1.176   6.305  0.6237 -0.2743  0.3824
   43CHL1    H8 4303   3.621   1.111   6.287 -0.1552 -0.8798 -1.4682
   43CHL1   C14 4304   3.501   1.273   6.187  0.4008  0.3850 -0.0586
   43CHL1   H14 4305   3.417   1.337   6.223  2.6463  2.9428  0.9420
   43CHL1   C15 4306   3.478   1.219   6.050  0.7619 -0.4246 -0.0967
   43CHL1  H15A 4307   3.555   1.140   6.035 -2.3645 -3.5186 -1.3242
   43CHL1  H15B 4308   3.375   1.178   6.045 -1.3043  4.1891 -0.0051
   43CHL1   C16 4309   3.488   1.340   5.956  0.1047  0.5710  0.2592
   43CHL1  H16A 4310   3.559   1.301   5.880  0.3061 -0.8611  1.1594
   43CHL1  H16B 4311   3.387   1.357   5.915  0.4662 -2.1462 -2.0065
   43CHL1   C17 4312   3.559   1.448   6.043 -0.5123  0.2882  0.7188
   43CHL1   H17 4313   3.475   1.511   6.080 -1.2272  0.0213 -0.3938
   43CHL1   C13 4314   3.622   1.367   6.162  0.6653  0.0365 -0.3010
   43CHL1   C18 4315   3.756   1.296   6.127  0.2157  0.1284  0.4629
   43CHL1  H18A 4316   3.768   1.229   6.214  0.1867 -1.4450 -0.6967
   43CHL1  H18B 4317   3.753   1.240   6.031 -0.7802  1.4106 -0.3025
   43CHL1  H18C 4318   3.845   1.361   6.116 -0.3578  1.0246  0.9248
   43CHL1   C12 4319   3.637   1.448   6.289 -0.2070  0.6445  0.1062
   43CHL1  H12A 4320   3.722   1.515   6.266  0.6820 -1.0106 -1.7834
   43CHL1  H12B 4321   3.547   1.513   6.293  0.1022  1.0132  1.5781
   43CHL1   C11 4322   3.659   1.372   6.412 -0.6059  1.3990  0.1313
   43CHL1  H11A 4323   3.764   1.336   6.400 -1.1225  0.2526 -1.2150
   43CHL1  H11B 4324   3.642   1.430   6.505 -1.0184 -1.3184  1.8476
   43CHL1    C9 4325   3.558   1.258   6.433 -0.3093  1.0135  0.4825
   43CHL1    H9 4326   3.462   1.310   6.450 -0.8835  0.5019 -1.0498
   43CHL1   C10 4327   3.581   1.162   6.562 -0.0259 -0.2905  0.0080
   43CHL1   C19 4328   3.727   1.120   6.563 -0.0323 -0.1572  0.2274
   43CHL1  H19A 4329   3.748   1.082   6.461  0.1071  1.8415 -0.5415
   43CHL1  H19B 4330   3.789   1.212   6.576 -1.4173  0.9764 -0.7813
   43CHL1  H19C 4331   3.765   1.051   6.641  0.9572 -0.3233 -0.3950
   43CHL1    C1 4332   3.551   1.238   6.693  0.8814 -0.9474 -0.3572
   43CHL1   H1A 4333   3.616   1.327   6.709  0.8889 -1.0293  0.0879
   43CHL1   H1B 4334   3.450   1.283   6.697  0.8236 -1.0538 -0.5591
   43CHL1    C2 4335   3.553   1.142   6.816  0.3069  0.1252  0.3106
   43CHL1   H2A 4336   3.523   1.211   6.898 -0.0549 -0.5831  0.7822
   43CHL1   H2B 4337   3.655   1.105   6.838 -0.3984 -1.1339  1.6062
   43CHL1   C20 4338   3.653   1.533   5.959 -0.6151  0.2865 -0.2393
   43CHL1   H20 4339   3.741   1.476   5.923 -1.3623 -0.3956 -1.0228
   43CHL1   C21 4340   3.712   1.642   6.049  0.4038 -0.9713  0.1052
   43CHL1  H21A 4341   3.800   1.611   6.110  1.4753  1.6930  0.0624
   43CHL1  H21B 4342   3.628   1.677   6.113 -0.2445  1.5597 -1.9519
   43CHL1  H21C 4343   3.745   1.724   5.982  1.1942 -1.0805  0.3471
   43CHL1   C22 4344   3.599   1.595   5.824  0.5029  0.2546  0.2240
   43CHL1  H22A 4345   3.681   1.645   5.768 -1.5004  2.9293 -0.5348
   43CHL1  H22B 4346   3.563   1.506   5.769  0.7544  0.8715 -0.9769
   43CHL1   C23 4347   3.473   1.686   5.818 -0.0714 -0.6150  0.1325
   43CHL1  H23A 4348   3.388   1.620   5.845  0.2415 -0.7615  0.7760
   43CHL1  H23B 4349   3.502   1.772   5.883  0.7722 -0.3195 -0.6180
   43CHL1   C24 4350   3.456   1.738   5.673 -0.3185  0.3571 -0.3487
   43CHL1  H24A 4351   3.538   1.812   5.673  1.6785 -1.7374 -0.0442
   43CHL1  H24B 4352   3.480   1.664   5.594 -3.2130 -1.9936  0.7786
   43CHL1   C25 4353   3.326   1.812   5.641  0.1397  0.2633 -0.3789
   43CHL1   H25 4354   3.302   1.884   5.722 -1.6591  2.5867 -2.8166
   43CHL1   C26 4355   3.341   1.895   5.513 -1.2394  0.6185 -0.1983
   43CHL1  H26A 4356   3.252   1.957   5.489 -1.3824  0.3647 -0.3295
   43CHL1  H26B 4357   3.432   1.960   5.520  0.4740 -1.2905 -2.8110
   43CHL1  H26C 4358   3.354   1.827   5.426  0.3163 -1.0795  1.2845
   43CHL1   C27 4359   3.198   1.729   5.636  0.4113  0.0514 -0.3006
   43CHL1  H27A 4360   3.192   1.680   5.537  1.4247 -0.8925  0.0842
   43CHL1  H27B 4361   3.193   1.653   5.717  1.8624 -1.1288 -1.2703
   43CHL1  H27C 4362   3.109   1.795   5.645  0.3722 -0.1198  0.6407
   44CHL1    C3 4363   4.911   6.079   6.794  0.4486  0.7172  0.2808
   44CHL1    H3 4364   4.848   6.158   6.841  0.7684  2.3298 -1.8561
   44CHL1    O3 4365   5.004   6.037   6.888  0.0534 -0.3556  0.7633
   44CHL1   H3' 4366   5.064   6.111   6.899  1.3864 -1.4530  1.1129
   44CHL1    C4 4367   4.815   5.960   6.753 -0.3176 -0.3596 -0.3193
   44CHL1   H4A 4368   4.874   5.870   6.726 -1.3167 -1.5600  1.3752
   44CHL1   H4B 4369   4.756   5.944   6.846 -2.8673 -1.6151 -2.0496
   44CHL1    C5 4370   4.734   6.001   6.633 -0.3535 -0.1600  0.8753
   44CHL1    C6 4371   4.602   5.994   6.616 -0.0295 -0.0661 -0.9639
   44CHL1    H6 4372   4.540   5.972   6.704 -1.0778  0.1315 -1.6324
   44CHL1    C7 4373   4.514   6.006   6.486 -0.4610  0.7112  0.0912
   44CHL1   H7A 4374   4.439   5.924   6.491 -2.0027  2.1332  2.4021
   44CHL1   H7B 4375   4.465   6.106   6.475  0.2228  1.2480  1.5984
   44CHL1    C8 4376   4.609   5.993   6.369  0.6815 -0.0395  0.2726
   44CHL1    H8 4377   4.623   5.885   6.344 -1.6501 -0.2331 -0.3848
   44CHL1   C14 4378   4.536   6.042   6.232 -0.6541  0.2506 -0.2924
   44CHL1   H14 4379   4.514   6.148   6.253 -0.5575  0.0083  1.0861
   44CHL1   C15 4380   4.395   5.983   6.202 -0.4727 -0.0694  0.8525
   44CHL1  H15A 4381   4.403   5.873   6.212  0.9063 -0.1224 -0.4440
   44CHL1  H15B 4382   4.315   6.022   6.268 -0.9854  1.8022 -0.7815
   44CHL1   C16 4383   4.385   6.017   6.058 -0.2883 -0.5968  0.5052
   44CHL1  H16A 4384   4.368   5.919   6.008 -0.1550 -0.2695 -0.1847
   44CHL1  H16B 4385   4.292   6.071   6.034 -0.3592 -2.0364 -3.1282
   44CHL1   C17 4386   4.514   6.084   6.005  0.7173  0.5341 -0.2490
   44CHL1   H17 4387   4.512   6.194   6.025  1.7522  0.5026  0.0797
   44CHL1   C13 4388   4.611   6.034   6.104 -0.8381 -0.7770 -0.5287
   44CHL1   C18 4389   4.650   5.888   6.070 -0.3673 -0.1147 -1.1925
   44CHL1  H18A 4390   4.568   5.817   6.042 -2.2179  1.0525  0.9551
   44CHL1  H18B 4391   4.714   5.884   5.979  2.0595 -1.0482  0.4606
   44CHL1  H18C 4392   4.712   5.842   6.149 -3.5870 -0.3763  1.3816
   44CHL1   C12 4393   4.738   6.120   6.126 -0.0524  0.5169 -0.3072
   44CHL1  H12A 4394   4.805   6.108   6.038  0.6176  0.8423  0.1473
   44CHL1  H12B 4395   4.712   6.227   6.145 -0.2164  0.5129 -0.5035
   44CHL1   C11 4396   4.819   6.081   6.251  0.7181 -0.2672 -1.1463
   44CHL1  H11A 4397   4.869   5.983   6.235  2.6916  0.2797  1.1306
   44CHL1  H11B 4398   4.899   6.155   6.271  0.1921 -0.2319  1.1291
   44CHL1    C9 4399   4.737   6.074   6.385 -0.5237 -0.4888  0.2363
   44CHL1    H9 4400   4.702   6.177   6.408 -2.5317 -0.8324 -1.0093
   44CHL1   C10 4401   4.826   6.033   6.507  0.3110  0.1727  0.5676
   44CHL1   C19 4402   4.920   5.911   6.466 -0.0676 -0.3274  0.0030
   44CHL1  H19A 4403   4.986   5.889   6.553  1.1248 -1.4775 -1.1265
   44CHL1  H19B 4404   4.867   5.818   6.436 -1.0388  0.4005 -0.5584
   44CHL1  H19C 4405   4.990   5.932   6.382  0.8058 -1.6168  0.3654
   44CHL1    C1 4406   4.916   6.154   6.547 -0.1533 -0.4288  0.0512
   44CHL1   H1A 4407   4.985   6.178   6.463  0.6434  1.6567  1.2247
   44CHL1   H1B 4408   4.851   6.244   6.547 -0.1584 -0.3832 -2.0244
   44CHL1    C2 4409   4.995   6.136   6.674  0.2525 -0.5345  0.7636
   44CHL1   H2A 4410   5.040   6.229   6.715 -1.9938  0.9938 -0.0577
   44CHL1   H2B 4411   5.082   6.074   6.645  1.3202  2.3266 -2.8872
   44CHL1   C20 4412   4.543   6.064   5.859 -0.3820 -0.6028  0.5549
   44CHL1   H20 4413   4.549   5.955   5.835  0.0659 -0.9815  2.2500
   44CHL1   C21 4414   4.671   6.131   5.802 -0.3450 -0.2590 -1.2117
   44CHL1  H21A 4415   4.762   6.084   5.846  0.8195  1.7511 -1.3840
   44CHL1  H21B 4416   4.679   6.237   5.834  2.1143 -0.6472 -0.2706
   44CHL1  H21C 4417   4.686   6.107   5.695  1.7138  0.8941 -1.2464
   44CHL1   C22 4418   4.424   6.123   5.779 -0.5843 -0.2761  0.7068
   44CHL1  H22A 4419   4.332   6.069   5.809 -1.4388 -0.6060 -2.2318
   44CHL1  H22B 4420   4.415   6.232   5.798  0.7396 -0.5848  3.7326
   44CHL1   C23 4421   4.434   6.102   5.625  0.2902  0.4943  0.7589
   44CHL1  H23A 4422   4.520   6.151   5.573  0.4090 -0.8606 -0.3772
   44CHL1  H23B 4423   4.443   5.992   5.615 -1.3229  0.2340  1.8269
   44CHL1   C24 4424   4.306   6.149   5.546  0.1462 -0.0305  0.3796
   44CHL1  H24A 4425   4.229   6.094   5.604 -0.0672 -0.8489 -0.6546
   44CHL1  H24B 4426   4.297   6.256   5.572  2.1817  0.6533 -1.3792
   44CHL1   C25 4427   4.308   6.123   5.396  0.4761 -0.3327  0.0566
   44CHL1   H25 4428   4.401   6.167   5.355  0.1875  1.5287  1.2264
   44CHL1   C26 4429   4.322   5.974   5.355  0.1638  0.0779  0.1450
   44CHL1  H26A 4430   4.220   5.932   5.368 -0.0509  0.2385 -0.9243
   44CHL1  H26B 4431   4.340   5.974   5.245  0.2222 -3.1777  0.0608
   44CHL1  H26C 4432   4.395   5.914   5.414  0.3971 -2.3387 -2.4069
   44CHL1   C27 4433   4.182   6.187   5.337 -0.9784  0.2224  0.1648
   44CHL1  H27A 4434   4.184   6.296   5.360  1.4673  0.2513  0.0837
   44CHL1  H27B 4435   4.185   6.170   5.228 -3.6835 -0.4195  0.1198
   44CHL1  H27C 4436   4.088   6.134   5.361 -0.9141 -0.8970 -1.8732
   45CHL1    C3 4437   5.547   6.322   6.742  0.0539  0.7141 -0.2474
   45CHL1    H3 4438   5.635   6.263   6.709 -0.2458  0.7176 -1.0799
   45CHL1    O3 4439   5.562   6.358   6.878 -0.1664  0.1223 -0.5143
   45CHL1   H3' 4440   5.481   6.407   6.896 -0.2880 -0.2895  0.0774
   45CHL1    C4 4441   5.527   6.447   6.660 -0.4923 -0.1262  0.1929
   45CHL1   H4A 4442   5.448   6.518   6.692 -0.9613 -0.7180  0.3574
   45CHL1   H4B 4443   5.617   6.509   6.683 -1.0221  0.8107 -0.2326
   45CHL1    C5 4444   5.511   6.419   6.511 -0.1767 -0.0446  0.3797
   45CHL1    C6 4445   5.600   6.459   6.418 -0.3475  0.6034 -0.4147
   45CHL1    H6 4446   5.693   6.507   6.452 -1.1994  2.2919 -0.3790
   45CHL1    C7 4447   5.583   6.439   6.269 -0.0457 -0.1146  0.3641
   45CHL1   H7A 4448   5.604   6.538   6.221 -1.8989  0.0332 -0.2294
   45CHL1   H7B 4449   5.645   6.353   6.236 -0.5767 -0.3577 -0.0232
   45CHL1    C8 4450   5.432   6.402   6.226 -0.9658 -0.2712 -0.0714
   45CHL1    H8 4451   5.388   6.504   6.223  2.0795  1.1483 -1.7838
   45CHL1   C14 4452   5.431   6.331   6.098 -0.0798  1.0526 -0.3054
   45CHL1   H14 4453   5.464   6.226   6.109 -0.2238  0.9868 -0.4881
   45CHL1   C15 4454   5.510   6.385   5.986  0.0944 -0.3959  0.4261
   45CHL1  H15A 4455   5.493   6.495   5.989 -1.1863 -0.5735  0.1866
   45CHL1  H15B 4456   5.615   6.351   5.995  0.2139 -0.2955 -0.4763
   45CHL1   C16 4457   5.445   6.337   5.851 -0.3867 -0.6536 -0.9208
   45CHL1  H16A 4458   5.429   6.434   5.800 -0.1122  0.5269  1.0972
   45CHL1  H16B 4459   5.508   6.263   5.798  0.0637 -1.5763  0.8331
   45CHL1   C17 4460   5.312   6.264   5.896 -0.5557 -0.3702  0.3665
   45CHL1   H17 4461   5.338   6.157   5.912  1.7410  0.3756  2.2834
   45CHL1   C13 4462   5.290   6.318   6.042  0.5802  0.6339  0.2433
   45CHL1   C18 4463   5.207   6.450   6.030 -0.2294  0.3287 -0.7156
   45CHL1  H18A 4464   5.241   6.526   5.956  0.5109  1.4226  0.6851
   45CHL1  H18B 4465   5.098   6.433   6.035 -0.2224  0.6316  1.1163
   45CHL1  H18C 4466   5.218   6.510   6.123 -0.2803  0.0373 -0.5228
   45CHL1   C12 4467   5.220   6.217   6.138  0.3206  0.1470  0.0964
   45CHL1  H12A 4468   5.114   6.200   6.111  0.3452 -0.4557  0.3657
   45CHL1  H12B 4469   5.270   6.119   6.125  0.5155  0.1341  0.8994
   45CHL1   C11 4470   5.221   6.263   6.290  0.0576 -0.9363  0.5489
   45CHL1  H11A 4471   5.141   6.340   6.290  0.6780 -0.2757  1.5857
   45CHL1  H11B 4472   5.188   6.179   6.355 -1.5526  0.6966  1.9650
   45CHL1    C9 4473   5.364   6.308   6.337  0.5915 -0.0515  0.5456
   45CHL1    H9 4474   5.421   6.214   6.323 -3.5960 -2.4951 -2.2288
   45CHL1   C10 4475   5.381   6.347   6.485 -0.9016  0.3800  0.0679
   45CHL1   C19 4476   5.260   6.435   6.518  0.4368 -0.3810  0.2312
   45CHL1  H19A 4477   5.268   6.475   6.621  0.6533 -0.6865  0.3352
   45CHL1  H19B 4478   5.243   6.515   6.443  0.7803  0.7739  1.3753
   45CHL1  H19C 4479   5.163   6.381   6.519  0.1914  0.0551  0.2200
   45CHL1    C1 4480   5.382   6.223   6.573 -0.2461 -0.0419 -0.3698
   45CHL1   H1A 4481   5.282   6.177   6.554 -0.0090 -1.0513  0.7219
   45CHL1   H1B 4482   5.458   6.152   6.535  1.0649 -0.1580  2.2849
   45CHL1    C2 4483   5.415   6.242   6.725 -0.5727 -0.3751 -0.4006
   45CHL1   H2A 4484   5.431   6.144   6.775  1.0655  0.3252  0.5147
   45CHL1   H2B 4485   5.333   6.299   6.774 -0.8743 -1.8942  0.9333
   45CHL1   C20 4486   5.207   6.275   5.783  0.2958  0.1502  0.9139
   45CHL1   H20 4487   5.179   6.382   5.771  2.2080  0.6912  0.9828
   45CHL1   C21 4488   5.081   6.194   5.806  0.4244  0.0823 -0.6761
   45CHL1  H21A 4489   5.112   6.090   5.830  0.3811 -0.0184 -1.0391
   45CHL1  H21B 4490   5.031   6.191   5.706 -0.2682  2.2178 -0.4496
   45CHL1  H21C 4491   5.010   6.216   5.888  0.6140 -3.1540  0.5155
   45CHL1   C22 4492   5.269   6.247   5.638 -1.0772 -0.4738  0.2556
   45CHL1  H22A 4493   5.363   6.303   5.618 -0.7751 -1.1608 -0.2599
   45CHL1  H22B 4494   5.306   6.143   5.635 -0.1996 -0.3055  2.5162
   45CHL1   C23 4495   5.187   6.264   5.512  0.5748  0.0343  1.1889
   45CHL1  H23A 4496   5.079   6.245   5.525  0.2096  2.0415  1.4438
   45CHL1  H23B 4497   5.184   6.375   5.499  0.1899  0.2078  2.6102
   45CHL1   C24 4498   5.249   6.204   5.381  0.3490 -0.3635  0.6055
   45CHL1  H24A 4499   5.352   6.245   5.372  0.2653  0.5562  3.0611
   45CHL1  H24B 4500   5.262   6.096   5.403  0.7476 -0.7022 -1.0987
   45CHL1   C25 4501   5.162   6.228   5.255  0.4836  0.2198  0.0698
   45CHL1   H25 4502   5.068   6.168   5.260  0.8167 -0.6345 -2.5139
   45CHL1   C26 4503   5.105   6.372   5.241  1.0190 -0.6914 -0.5309
   45CHL1  H26A 4504   5.027   6.384   5.320  1.3008  0.0463 -0.3636
   45CHL1  H26B 4505   5.184   6.449   5.253 -1.0125  1.3459  0.5286
   45CHL1  H26C 4506   5.056   6.385   5.142  0.1154 -1.0421 -0.1498
   45CHL1   C27 4507   5.242   6.205   5.130 -0.4177  0.5018 -0.0902
   45CHL1  H27A 4508   5.284   6.103   5.140  0.7535  1.0884  1.6403
   45CHL1  H27B 4509   5.183   6.230   5.040 -1.6345  1.0649  0.8414
   45CHL1  H27C 4510   5.325   6.279   5.142  1.3203 -0.9352 -2.4166
   46CHL1    C3 4511   0.268   1.521   7.134 -0.1753  0.3469 -0.3508
   46CHL1    H3 4512   0.294   1.422   7.092  1.8408  0.1647  1.1754
   46CHL1    O3 4513   0.274   1.518   7.279  0.3911  0.2679  0.2907
   46CHL1   H3' 4514   0.260   1.608   7.310 -1.1642  1.0874 -2.3889
   46CHL1    C4 4515   0.381   1.620   7.086  0.1465 -0.6125 -0.7209
   46CHL1   H4A 4516   0.384   1.713   7.146 -0.1302  0.4911 -2.3508
   46CHL1   H4B 4517   0.482   1.583   7.115  0.0434  0.0490  0.5220
   46CHL1    C5 4518   0.381   1.633   6.938 -0.1110  0.3924  0.0621
   46CHL1    C6 4519   0.493   1.622   6.862 -0.0819  0.2964  0.8581
   46CHL1    H6 4520   0.588   1.592   6.909  1.0390  1.3865 -0.6062
   46CHL1    C7 4521   0.504   1.644   6.716 -0.3773  0.8875 -0.0018
   46CHL1   H7A 4522   0.595   1.699   6.684  1.1624 -1.0570  0.8503
   46CHL1   H7B 4523   0.498   1.546   6.664  0.1054  1.0871 -0.4511
   46CHL1    C8 4524   0.371   1.723   6.665 -0.2173 -0.5781  0.4781
   46CHL1    H8 4525   0.383   1.831   6.686  2.3582 -0.9112  1.1287
   46CHL1   C14 4526   0.360   1.710   6.511 -0.5338  0.0132  0.0183
   46CHL1   H14 4527   0.347   1.601   6.493  1.8529 -0.5023  1.1138
   46CHL1   C15 4528   0.482   1.731   6.424  0.4616  1.0436  0.8853
   46CHL1  H15A 4529   0.528   1.832   6.430  1.8676  0.4564  0.3677
   46CHL1  H15B 4530   0.562   1.655   6.435 -0.5611 -0.4154 -1.1419
   46CHL1   C16 4531   0.431   1.723   6.278  0.6670 -0.3385  0.2216
   46CHL1  H16A 4532   0.491   1.791   6.214 -1.7859 -0.5068 -2.4769
   46CHL1  H16B 4533   0.446   1.615   6.257 -1.2888 -0.9450  1.6866
   46CHL1   C17 4534   0.281   1.750   6.283  0.0055 -0.1453 -0.2891
   46CHL1   H17 4535   0.231   1.656   6.251  0.7028 -0.5201 -0.2857
   46CHL1   C13 4536   0.250   1.785   6.436  0.0750 -0.0645 -0.3741
   46CHL1   C18 4537   0.269   1.936   6.465 -0.4174 -0.2705 -0.5415
   46CHL1  H18A 4538   0.255   1.955   6.574 -2.0879 -4.5351  0.1756
   46CHL1  H18B 4539   0.372   1.960   6.431 -0.1183 -1.0658 -0.2265
   46CHL1  H18C 4540   0.193   1.990   6.406  1.3233  2.0074 -0.8310
   46CHL1   C12 4541   0.118   1.723   6.503  0.1254 -0.2622 -0.3369
   46CHL1  H12A 4542   0.033   1.782   6.464  0.5317  0.7901  0.3201
   46CHL1  H12B 4543   0.121   1.618   6.467  2.3637 -0.7902  1.1399
   46CHL1   C11 4544   0.117   1.716   6.653  0.0165  0.1178 -0.5137
   46CHL1  H11A 4545   0.091   1.815   6.696  0.0204 -0.5679  1.1739
   46CHL1  H11B 4546   0.037   1.647   6.687 -0.5209  1.4494  1.0801
   46CHL1    C9 4547   0.243   1.666   6.725  0.2474  0.0403 -0.7380
   46CHL1    H9 4548   0.236   1.557   6.703 -3.1910 -0.3181  1.3778
   46CHL1   C10 4549   0.240   1.671   6.881 -0.6760  0.0466  0.5392
   46CHL1   C19 4550   0.218   1.818   6.922 -0.3998  0.1072 -0.0449
   46CHL1  H19A 4551   0.242   1.888   6.839 -1.1373 -2.6605 -2.7959
   46CHL1  H19B 4552   0.119   1.848   6.961 -0.0870  2.0300 -0.6158
   46CHL1  H19C 4553   0.281   1.846   7.009  0.4671 -1.2475 -0.2031
   46CHL1    C1 4554   0.123   1.586   6.939  0.2180 -0.3302 -0.1119
   46CHL1   H1A 4555   0.022   1.627   6.914 -0.2884 -0.4322  1.6703
   46CHL1   H1B 4556   0.137   1.483   6.900  2.0330  0.4818 -1.8421
   46CHL1    C2 4557   0.132   1.567   7.089  0.2485 -0.3472  0.0780
   46CHL1   H2A 4558   0.054   1.491   7.111  0.9544 -0.9671  0.5165
   46CHL1   H2B 4559   0.110   1.661   7.145 -0.9103 -0.9198  0.6224
   46CHL1   C20 4560   0.227   1.835   6.175 -1.0685 -0.2490 -0.0022
   46CHL1   H20 4561   0.270   1.935   6.199 -2.1379  0.2064  0.1023
   46CHL1   C21 4562   0.069   1.850   6.183 -0.3067  0.4437 -0.1072
   46CHL1  H21A 4563   0.040   1.945   6.135  0.4750  0.9215  0.3466
   46CHL1  H21B 4564   0.041   1.873   6.288  0.5660  1.6903 -0.1230
   46CHL1  H21C 4565   0.015   1.761   6.145  1.3897 -1.4887  1.7048
   46CHL1   C22 4566   0.271   1.794   6.039  0.1859  0.4271 -0.3655
   46CHL1  H22A 4567   0.378   1.807   6.013  0.1668 -1.2565 -1.3759
   46CHL1  H22B 4568   0.247   1.686   6.042  0.3930  0.3919  0.6213
   46CHL1   C23 4569   0.203   1.868   5.920 -0.5061 -0.0987 -0.3373
   46CHL1  H23A 4570   0.092   1.872   5.931 -0.3492 -0.0729  1.7951
   46CHL1  H23B 4571   0.239   1.971   5.902 -2.2567  0.3448 -1.4805
   46CHL1   C24 4572   0.220   1.783   5.788  0.2978 -0.6415  0.7045
   46CHL1  H24A 4573   0.330   1.766   5.780  0.3482  0.4848 -2.5387
   46CHL1  H24B 4574   0.173   1.684   5.802 -1.1485 -0.6049 -2.7331
   46CHL1   C25 4575   0.158   1.854   5.659 -1.2503  0.0115 -0.2159
   46CHL1   H25 4576   0.069   1.905   5.703  1.1618  2.1658  2.6728
   46CHL1   C26 4577   0.256   1.979   5.613 -0.2979  0.3766 -0.2090
   46CHL1  H26A 4578   0.282   2.038   5.703 -1.0364 -0.8188  0.8243
   46CHL1  H26B 4579   0.347   1.935   5.569  0.3667  0.0677  1.4288
   46CHL1  H26C 4580   0.190   2.027   5.537  0.1829 -0.7830 -1.4085
   46CHL1   C27 4581   0.121   1.766   5.549  0.1134  0.2660 -0.3453
   46CHL1  H27A 4582   0.112   1.811   5.448  0.8475  2.8538  0.6577
   46CHL1  H27B 4583   0.199   1.688   5.534  1.6012  1.5491  0.4061
   46CHL1  H27C 4584   0.022   1.723   5.576  1.2419 -1.9203  0.5374
   47CHL1    C3 4585   2.721   2.317   6.878 -0.2436 -0.5006  0.0543
   47CHL1    H3 4586   2.691   2.410   6.930 -0.5141 -2.4974  3.7703
   47CHL1    O3 4587   2.802   2.252   6.981 -0.2466 -0.0207  0.7649
   47CHL1   H3' 4588   2.847   2.185   6.929 -0.6976 -0.2524  0.6715
   47CHL1    C4 4589   2.603   2.228   6.837  0.4592  0.0223 -0.4065
   47CHL1   H4A 4590   2.647   2.134   6.799 -0.4430 -1.6821  2.4535
   47CHL1   H4B 4591   2.543   2.201   6.927  1.1131  1.8099  0.6345
   47CHL1    C5 4592   2.516   2.295   6.734 -0.0286 -0.5428 -0.0306
   47CHL1    C6 4593   2.387   2.324   6.760 -0.6607 -0.1241  0.1852
   47CHL1    H6 4594   2.340   2.292   6.854  0.1316 -2.0712 -0.0478
   47CHL1    C7 4595   2.290   2.382   6.652  0.3759  0.3157 -0.1765
   47CHL1   H7A 4596   2.204   2.315   6.632 -0.2352  1.8144 -3.1539
   47CHL1   H7B 4597   2.259   2.488   6.668 -2.9207 -0.8152  1.9311
   47CHL1    C8 4598   2.364   2.387   6.507  0.3038  0.2052 -0.6348
   47CHL1    H8 4599   2.349   2.283   6.472 -1.2641  0.9792 -2.4354
   47CHL1   C14 4600   2.290   2.471   6.404  0.8145  0.5117  0.3409
   47CHL1   H14 4601   2.305   2.573   6.446  1.8714 -0.1301  1.6017
   47CHL1   C15 4602   2.134   2.454   6.393  0.0405  0.0023 -0.4715
   47CHL1  H15A 4603   2.093   2.354   6.415 -0.3049  0.3606  0.5449
   47CHL1  H15B 4604   2.095   2.518   6.475  0.1373 -0.1091 -0.3398
   47CHL1   C16 4605   2.090   2.506   6.257 -0.0530  0.3476 -0.1598
   47CHL1  H16A 4606   2.043   2.431   6.190  0.4365 -0.1844  0.0813
   47CHL1  H16B 4607   2.017   2.589   6.265  2.2713  2.3139  2.6520
   47CHL1   C17 4608   2.226   2.545   6.189 -0.3006  0.0578 -0.0981
   47CHL1   H17 4609   2.246   2.649   6.223  0.1773 -0.2321  0.5287
   47CHL1   C13 4610   2.337   2.460   6.257  0.1520 -0.6102  0.0351
   47CHL1   C18 4611   2.336   2.309   6.202  0.3176 -0.5818 -0.2199
   47CHL1  H18A 4612   2.419   2.251   6.249  2.4176  2.4528  0.1714
   47CHL1  H18B 4613   2.245   2.255   6.236 -0.4334  0.6680 -0.1853
   47CHL1  H18C 4614   2.334   2.302   6.091 -1.0779 -1.1022 -0.1818
   47CHL1   C12 4615   2.478   2.527   6.266 -0.3543 -0.9131 -0.1371
   47CHL1  H12A 4616   2.539   2.533   6.173  0.0920 -0.6872  0.1639
   47CHL1  H12B 4617   2.464   2.635   6.287 -0.6957 -1.1384  0.8130
   47CHL1   C11 4618   2.567   2.465   6.374 -0.5210  0.8859  0.1247
   47CHL1  H11A 4619   2.602   2.371   6.326 -1.5759 -0.7959  2.4663
   47CHL1  H11B 4620   2.659   2.527   6.379  0.1492 -0.0590 -0.1658
   47CHL1    C9 4621   2.508   2.437   6.520 -0.4902  0.2092 -0.2624
   47CHL1    H9 4622   2.511   2.538   6.566  3.8763  0.4164 -0.6296
   47CHL1   C10 4623   2.595   2.342   6.611  0.0235 -0.0166 -1.0371
   47CHL1   C19 4624   2.624   2.210   6.528 -0.9373 -0.2717 -0.4021
   47CHL1  H19A 4625   2.689   2.227   6.440 -0.3006 -1.1945 -0.1344
   47CHL1  H19B 4626   2.673   2.129   6.587  2.0149  0.5036 -1.5902
   47CHL1  H19C 4627   2.531   2.162   6.490 -1.6439  2.2824 -2.0943
   47CHL1    C1 4628   2.723   2.415   6.650  0.5900 -0.1921  0.9524
   47CHL1   H1A 4629   2.775   2.432   6.553 -0.7176 -1.1429  0.0479
   47CHL1   H1B 4630   2.692   2.517   6.682  0.0281 -0.3472  0.9175
   47CHL1    C2 4631   2.808   2.354   6.759 -0.4828  0.6213 -0.2041
   47CHL1   H2A 4632   2.882   2.423   6.804 -1.3481  0.5724  1.3659
   47CHL1   H2B 4633   2.879   2.273   6.732  0.9777  1.3914  1.1270
   47CHL1   C20 4634   2.212   2.542   6.031 -0.7656  0.0505  0.0574
   47CHL1   H20 4635   2.187   2.439   5.999  3.7649 -0.9176 -1.1559
   47CHL1   C21 4636   2.346   2.581   5.972  0.0151 -0.1013  0.3630
   47CHL1  H21A 4637   2.376   2.682   6.007 -3.0895  1.3045 -0.6389
   47CHL1  H21B 4638   2.324   2.585   5.863  1.3099  0.3871  0.1138
   47CHL1  H21C 4639   2.422   2.504   5.998 -0.4430 -1.0294 -0.9205
   47CHL1   C22 4640   2.106   2.643   5.983  0.4872 -0.3363  0.3071
   47CHL1  H22A 4641   2.008   2.614   6.027 -2.8053  2.5914 -4.1486
   47CHL1  H22B 4642   2.139   2.744   6.015 -0.7553  0.3840 -0.5646
   47CHL1   C23 4643   2.083   2.651   5.831 -0.3209 -0.0956 -0.3625
   47CHL1  H23A 4644   2.169   2.677   5.765 -2.0021  3.7615 -1.2777
   47CHL1  H23B 4645   2.041   2.551   5.808 -1.4786  0.1550  0.5703
   47CHL1   C24 4646   1.995   2.770   5.801  0.1604 -0.0217 -0.1822
   47CHL1  H24A 4647   1.895   2.767   5.849  0.0294  1.7694 -0.2539
   47CHL1  H24B 4648   2.054   2.855   5.843 -0.2060  0.4651 -0.6321
   47CHL1   C25 4649   1.953   2.785   5.655 -0.5028 -0.0024  0.2623
   47CHL1   H25 4650   2.030   2.750   5.584 -1.9575 -0.0323 -1.3431
   47CHL1   C26 4651   1.832   2.685   5.630 -0.4868 -0.2095  0.0405
   47CHL1  H26A 4652   1.868   2.585   5.662  0.8807  0.8270  2.0470
   47CHL1  H26B 4653   1.740   2.707   5.688 -0.4111 -1.7662  0.7996
   47CHL1  H26C 4654   1.812   2.684   5.521 -0.3292  0.7152 -0.0101
   47CHL1   C27 4655   1.913   2.924   5.618  0.2715  0.3252 -0.5041
   47CHL1  H27A 4656   1.992   3.002   5.621 -0.2736  0.8736 -0.4164
   47CHL1  H27B 4657   1.870   2.919   5.516  1.0099  1.6731 -0.8900
   47CHL1  H27C 4658   1.835   2.960   5.688  0.9176  1.1320 -0.1848
   48CHL1    C3 4659   5.528   0.325   6.800 -0.7539  0.7112  0.2536
   48CHL1    H3 4660   5.539   0.214   6.803 -0.7997  0.6765 -0.5880
   48CHL1    O3 4661   5.516   0.380   6.933  0.1300 -0.3300  0.1601
   48CHL1   H3' 4662   5.502   0.472   6.909 -0.7206 -0.7198 -0.8972
   48CHL1    C4 4663   5.654   0.381   6.731 -0.3125  0.3351  0.1767
   48CHL1   H4A 4664   5.673   0.479   6.780 -0.3109  0.1985  0.4498
   48CHL1   H4B 4665   5.732   0.314   6.771 -1.2224 -0.6083  0.4060
   48CHL1    C5 4666   5.644   0.381   6.581  0.2494  1.3502 -0.4396
   48CHL1    C6 4667   5.741   0.320   6.513  0.4722 -0.5897  0.4508
   48CHL1    H6 4668   5.832   0.278   6.559  0.5072 -2.2533 -1.0031
   48CHL1    C7 4669   5.741   0.311   6.360  0.6686  0.5263  0.5296
   48CHL1   H7A 4670   5.836   0.351   6.319  0.4590  0.6467  0.1488
   48CHL1   H7B 4671   5.720   0.210   6.318 -0.4251  1.8522 -2.4259
   48CHL1    C8 4672   5.634   0.406   6.295 -0.0151 -0.5747 -0.2913
   48CHL1    H8 4673   5.664   0.513   6.302 -1.4463 -0.1598 -0.1352
   48CHL1   C14 4674   5.618   0.369   6.146  0.0656  0.7445  0.0801
   48CHL1   H14 4675   5.556   0.278   6.163 -0.5338  0.3620 -3.3327
   48CHL1   C15 4676   5.742   0.321   6.065  0.3905  0.0093  0.3283
   48CHL1  H15A 4677   5.841   0.363   6.091  0.8908 -2.2151  2.3376
   48CHL1  H15B 4678   5.765   0.213   6.069 -1.1068 -0.4932 -2.1826
   48CHL1   C16 4679   5.701   0.348   5.919 -0.0961  0.3714  0.0257
   48CHL1  H16A 4680   5.763   0.430   5.875 -0.7098 -0.0894 -1.7992
   48CHL1  H16B 4681   5.718   0.256   5.859 -0.4857  0.7793 -0.7294
   48CHL1   C17 4682   5.557   0.395   5.924 -0.0615 -0.0354  0.4408
   48CHL1   H17 4683   5.489   0.308   5.934 -0.4578  0.1028 -0.8069
   48CHL1   C13 4684   5.532   0.460   6.060 -0.0597  0.5779 -0.4042
   48CHL1   C18 4685   5.591   0.603   6.053  0.2162  0.3241 -0.4997
   48CHL1  H18A 4686   5.701   0.596   6.064  0.1204 -0.0257  0.2679
   48CHL1  H18B 4687   5.562   0.655   5.959 -1.0402 -1.6484 -1.2875
   48CHL1  H18C 4688   5.555   0.661   6.140 -0.8385  0.0972 -0.7670
   48CHL1   C12 4689   5.397   0.455   6.121 -0.1842  0.3787  0.3841
   48CHL1  H12A 4690   5.333   0.530   6.070 -0.6424  0.2156  0.7164
   48CHL1  H12B 4691   5.357   0.354   6.097  3.2881 -1.1722  0.4690
   48CHL1   C11 4692   5.390   0.485   6.278  0.0960 -0.7369  0.8796
   48CHL1  H11A 4693   5.405   0.594   6.294 -1.1563 -0.6955  1.9115
   48CHL1  H11B 4694   5.292   0.457   6.322 -0.1772  1.1135  1.5618
   48CHL1    C9 4695   5.496   0.401   6.359 -0.6042  0.3681  0.2431
   48CHL1    H9 4696   5.456   0.297   6.347 -0.8966  0.7170 -2.4257
   48CHL1   C10 4697   5.517   0.428   6.510 -0.1338 -0.5077 -0.5624
   48CHL1   C19 4698   5.515   0.583   6.531  0.4662 -0.7382 -0.2525
   48CHL1  H19A 4699   5.583   0.632   6.459  1.2315 -1.3274  0.0487
   48CHL1  H19B 4700   5.413   0.620   6.507  0.1102 -2.7092 -2.0838
   48CHL1  H19C 4701   5.530   0.617   6.636  0.6692  0.0467 -0.5281
   48CHL1    C1 4702   5.396   0.360   6.580 -0.0757  0.1639 -0.0249
   48CHL1   H1A 4703   5.300   0.395   6.536 -0.8950 -1.0440  0.7373
   48CHL1   H1B 4704   5.402   0.251   6.559  0.0658  0.2426 -0.4006
   48CHL1    C2 4705   5.401   0.373   6.734  0.3122 -0.5850 -0.5653
   48CHL1   H2A 4706   5.312   0.323   6.778 -1.1674  1.1249 -1.4798
   48CHL1   H2B 4707   5.373   0.475   6.769 -0.1173 -1.3373  1.4376
   48CHL1   C20 4708   5.532   0.472   5.786  0.2542  0.0021 -0.1078
   48CHL1   H20 4709   5.610   0.548   5.763 -0.4485  0.3821 -1.3420
   48CHL1   C21 4710   5.393   0.550   5.788  0.0146 -0.3608  0.0976
   48CHL1  H21A 4711   5.391   0.625   5.870  2.6284  4.2602 -3.5402
   48CHL1  H21B 4712   5.371   0.612   5.698  0.7121 -0.2344  0.0127
   48CHL1  H21C 4713   5.301   0.488   5.798  0.6340 -1.3341 -0.1154
   48CHL1   C22 4714   5.539   0.380   5.662  0.2317 -0.9116 -0.5968
   48CHL1  H22A 4715   5.633   0.320   5.669 -0.2692 -1.6209  0.2133
   48CHL1  H22B 4716   5.459   0.305   5.678 -0.1635 -0.5087 -0.6628
   48CHL1   C23 4717   5.535   0.449   5.529 -0.1154  0.0848  0.3950
   48CHL1  H23A 4718   5.428   0.473   5.513 -0.6319 -1.7965  0.7870
   48CHL1  H23B 4719   5.606   0.535   5.533 -0.5705  0.5330 -0.7065
   48CHL1   C24 4720   5.586   0.359   5.411 -0.6179  0.2720  0.2628
   48CHL1  H24A 4721   5.590   0.405   5.310 -1.5717 -0.8605 -0.3262
   48CHL1  H24B 4722   5.688   0.318   5.427 -0.8759 -0.0717  1.1249
   48CHL1   C25 4723   5.502   0.233   5.383  0.1626 -0.5883  0.4675
   48CHL1   H25 4724   5.497   0.166   5.471  0.3337 -0.8983  0.2467
   48CHL1   C26 4725   5.352   0.266   5.337 -0.7882 -0.1054 -0.3277
   48CHL1  H26A 4726   5.306   0.169   5.308  0.0022 -0.6341  0.1351
   48CHL1  H26B 4727   5.290   0.305   5.420  1.3571 -0.6915  1.6741
   48CHL1  H26C 4728   5.343   0.335   5.251 -2.3396  0.5218  0.3137
   48CHL1   C27 4729   5.564   0.152   5.263  0.5602  0.0884 -0.4287
   48CHL1  H27A 4730   5.663   0.110   5.291  0.7966  0.0515 -1.2849
   48CHL1  H27B 4731   5.498   0.065   5.247 -2.6456  2.4844 -1.2609
   48CHL1  H27C 4732   5.579   0.201   5.164 -0.0749 -1.3129 -1.2548
   49CHL1    C3 4733   1.191   1.789   3.782  0.4567  0.5429 -0.2335
   49CHL1    H3 4734   1.301   1.791   3.791  0.5956 -2.0019 -0.6786
   49CHL1    O3 4735   1.175   1.720   3.656  0.3521  0.1086 -0.2756
   49CHL1   H3' 4736   1.080   1.728   3.644  0.0416 -1.0221  1.2401
   49CHL1    C4 4737   1.125   1.692   3.887 -0.0714  0.7468  0.1141
   49CHL1   H4A 4738   1.024   1.664   3.850  0.9424 -3.3573 -0.0334
   49CHL1   H4B 4739   1.195   1.605   3.882  0.3027  1.0708 -0.5427
   49CHL1    C5 4740   1.126   1.747   4.029  0.1320  0.3770  0.0204
   49CHL1    C6 4741   1.184   1.675   4.128 -0.0680  0.0684 -0.5802
   49CHL1    H6 4742   1.235   1.580   4.105 -0.1762  0.0617 -0.7998
   49CHL1    C7 4743   1.191   1.720   4.269  0.0176 -1.1802  0.4001
   49CHL1   H7A 4744   1.179   1.642   4.347  1.1151  0.0637  1.8852
   49CHL1   H7B 4745   1.296   1.756   4.280 -0.3157  0.4386 -1.2641
   49CHL1    C8 4746   1.097   1.849   4.295 -0.0993  0.4888 -0.0761
   49CHL1    H8 4747   0.991   1.817   4.304 -0.1701  1.0099  1.2514
   49CHL1   C14 4748   1.135   1.918   4.426  0.2102  0.0309 -0.4709
   49CHL1   H14 4749   1.238   1.956   4.408 -0.1306  0.6329 -1.2433
   49CHL1   C15 4750   1.150   1.840   4.564 -0.2270 -0.1796  0.0304
   49CHL1  H15A 4751   1.068   1.770   4.592  0.7781 -1.8356 -1.0384
   49CHL1  H15B 4752   1.251   1.795   4.567  0.1719  0.6264 -1.0918
   49CHL1   C16 4753   1.143   1.954   4.669  0.5705 -1.3028 -0.3441
   49CHL1  H16A 4754   1.057   1.929   4.735  1.7661 -0.2125  1.7293
   49CHL1  H16B 4755   1.242   1.953   4.719  0.4403 -2.2021 -0.0825
   49CHL1   C17 4756   1.127   2.091   4.593  0.1215 -0.1941 -0.5415
   49CHL1   H17 4757   1.226   2.129   4.558  0.1241 -0.0749 -0.4064
   49CHL1   C13 4758   1.058   2.053   4.464 -0.6936  0.1734 -0.4397
   49CHL1   C18 4759   0.912   2.014   4.497  0.0862  0.7648 -0.0858
   49CHL1  H18A 4760   0.853   2.104   4.526 -0.4279  0.9441 -1.5620
   49CHL1  H18B 4761   0.860   1.964   4.412 -0.4603 -1.0238  1.2465
   49CHL1  H18C 4762   0.880   1.945   4.578 -2.4380 -0.0647 -1.6633
   49CHL1   C12 4763   1.067   2.150   4.349  0.3226 -0.1073 -0.3744
   49CHL1  H12A 4764   1.010   2.245   4.364 -1.8192 -1.6394  2.0111
   49CHL1  H12B 4765   1.175   2.175   4.341  0.7391 -1.5316  0.6315
   49CHL1   C11 4766   1.024   2.081   4.217  0.4139 -0.2112 -0.5062
   49CHL1  H11A 4767   0.917   2.053   4.231  0.3621 -1.5160 -2.9914
   49CHL1  H11B 4768   1.034   2.151   4.131 -0.4750 -0.4199 -0.7987
   49CHL1    C9 4769   1.098   1.950   4.182 -0.5450 -0.2900 -0.2677
   49CHL1    H9 4770   1.205   1.981   4.184 -1.1950  2.1584  1.0497
   49CHL1   C10 4771   1.075   1.888   4.043 -0.3760 -0.2015 -0.1644
   49CHL1   C19 4772   0.921   1.881   4.028  0.0338  0.4406  0.9083
   49CHL1  H19A 4773   0.871   1.979   4.042 -1.5938  0.3547 -2.9454
   49CHL1  H19B 4774   0.888   1.854   3.925  0.0310  0.0866  1.0002
   49CHL1  H19C 4775   0.876   1.810   4.101  0.0153 -1.2141 -0.6487
   49CHL1    C1 4776   1.135   1.983   3.930  0.0810  0.4988  0.0374
   49CHL1   H1A 4777   1.084   2.082   3.931 -1.0428 -0.0577 -0.6553
   49CHL1   H1B 4778   1.242   1.994   3.959  0.1924  0.0607 -0.1936
   49CHL1    C2 4779   1.119   1.923   3.791 -0.4791  0.7359  0.4052
   49CHL1   H2A 4780   1.158   2.001   3.721  1.9204 -1.5784 -0.9943
   49CHL1   H2B 4781   1.013   1.909   3.762 -0.2686 -1.9949  0.7084
   49CHL1   C20 4782   1.058   2.197   4.681  0.1798  0.3233 -0.4131
   49CHL1   H20 4783   0.957   2.162   4.711 -0.2005  2.3748  0.9225
   49CHL1   C21 4784   1.046   2.334   4.610 -0.5851 -0.3351  0.4535
   49CHL1  H21A 4785   0.970   2.328   4.529 -0.8889 -1.4557  0.8061
   49CHL1  H21B 4786   1.144   2.374   4.578  0.4433 -3.0203 -0.0447
   49CHL1  H21C 4787   0.998   2.407   4.678 -2.1155 -2.1178  1.3934
   49CHL1   C22 4788   1.142   2.206   4.821  0.0041 -0.1909 -0.3575
   49CHL1  H22A 4789   1.101   2.136   4.896  2.5624 -1.5478 -0.1291
   49CHL1  H22B 4790   1.248   2.180   4.799  0.5696 -0.5625  2.4445
   49CHL1   C23 4791   1.152   2.339   4.895 -0.6172  0.9568 -0.3028
   49CHL1  H23A 4792   1.201   2.409   4.825  1.1135 -1.5987 -1.8112
   49CHL1  H23B 4793   1.050   2.376   4.919 -1.7038 -3.2171  2.6346
   49CHL1   C24 4794   1.244   2.334   5.020  0.2280  0.5826 -0.4164
   49CHL1  H24A 4795   1.196   2.261   5.089 -0.2783  0.2598 -1.0935
   49CHL1  H24B 4796   1.348   2.296   5.006  1.8477  4.1577  0.8559
   49CHL1   C25 4797   1.249   2.471   5.094 -0.5246 -0.0173 -0.3613
   49CHL1   H25 4798   1.148   2.515   5.107  0.0190  0.3491  4.1706
   49CHL1   C26 4799   1.308   2.450   5.236 -0.3632 -0.6492 -0.6100
   49CHL1  H26A 4800   1.233   2.410   5.307  0.3793 -0.5703  0.2428
   49CHL1  H26B 4801   1.395   2.381   5.234 -1.3560 -1.9455 -0.1864
   49CHL1  H26C 4802   1.336   2.548   5.281 -1.9043 -0.8662  0.8874
   49CHL1   C27 4803   1.347   2.564   5.022  0.0339 -0.3689  0.6741
   49CHL1  H27A 4804   1.329   2.578   4.913  0.6257  3.0940  0.8935
   49CHL1  H27B 4805   1.344   2.669   5.059 -0.2297  0.3221 -1.2120
   49CHL1  H27C 4806   1.452   2.533   5.035  0.1309 -1.2669 -1.7607
   50CHL1    C3 4807   3.497   3.292   3.750 -0.1805  0.3392  0.8518
   50CHL1    H3 4808   3.521   3.187   3.776  0.2776  0.7756  2.3000
   50CHL1    O3 4809   3.484   3.287   3.612  0.2614  0.0396 -0.0637
   50CHL1   H3' 4810   3.393   3.273   3.586  0.7111  0.1736 -1.8037
   50CHL1    C4 4811   3.366   3.342   3.806  0.1807  0.0549 -0.3881
   50CHL1   H4A 4812   3.348   3.442   3.761 -1.9626 -0.6302 -1.1590
   50CHL1   H4B 4813   3.272   3.289   3.781 -0.6125  1.8086 -1.2755
   50CHL1    C5 4814   3.388   3.349   3.960  0.4606 -0.8087  0.1574
   50CHL1    C6 4815   3.309   3.280   4.046 -0.0194  0.2280  0.0116
   50CHL1    H6 4816   3.226   3.221   4.005 -0.9790  1.8023 -0.4017
   50CHL1    C7 4817   3.327   3.278   4.197 -0.3825  0.7818  0.4369
   50CHL1   H7A 4818   3.234   3.297   4.255 -0.2242  0.9254  0.6452
   50CHL1   H7B 4819   3.370   3.178   4.221  0.2590  1.1508  0.8684
   50CHL1    C8 4820   3.415   3.389   4.248 -0.0534 -0.5109 -0.5173
   50CHL1    H8 4821   3.352   3.481   4.248  0.7468  0.0695 -1.8827
   50CHL1   C14 4822   3.458   3.356   4.389  0.1201  0.6065  0.9631
   50CHL1   H14 4823   3.528   3.270   4.383  1.4492  1.7320 -0.7480
   50CHL1   C15 4824   3.350   3.322   4.495  0.6074 -0.1248 -0.2529
   50CHL1  H15A 4825   3.258   3.383   4.481  0.7306  0.4384  1.2349
   50CHL1  H15B 4826   3.311   3.218   4.486  2.8896 -1.0643  0.0719
   50CHL1   C16 4827   3.414   3.340   4.631 -0.5851 -0.1717 -0.5354
   50CHL1  H16A 4828   3.347   3.405   4.692  0.7439  0.1087  0.6860
   50CHL1  H16B 4829   3.430   3.244   4.686  2.9966  1.6420  1.9783
   50CHL1   C17 4830   3.553   3.405   4.605 -0.1187 -0.4378  0.1502
   50CHL1   H17 4831   3.632   3.327   4.614  1.7590  1.6225  3.4126
   50CHL1   C13 4832   3.543   3.461   4.455  0.2734 -0.3170 -0.8101
   50CHL1   C18 4833   3.472   3.593   4.453  0.0586 -0.4755  0.1621
   50CHL1  H18A 4834   3.530   3.681   4.490  0.2384 -0.4665 -0.1396
   50CHL1  H18B 4835   3.441   3.628   4.352 -0.1103  1.7045  0.9096
   50CHL1  H18C 4836   3.382   3.596   4.518  0.3721 -0.4096  0.6004
   50CHL1   C12 4837   3.671   3.465   4.375  0.2957  0.0534  0.4502
   50CHL1  H12A 4838   3.735   3.546   4.417 -2.1517  1.9873  0.6940
   50CHL1  H12B 4839   3.732   3.372   4.380  2.2581  1.2850  0.2980
   50CHL1   C11 4840   3.649   3.492   4.227 -0.6140  0.7256  0.3102
   50CHL1  H11A 4841   3.620   3.599   4.213 -1.5850  0.2726 -1.4183
   50CHL1  H11B 4842   3.742   3.471   4.169 -1.1376 -1.6018  0.2404
   50CHL1    C9 4843   3.539   3.407   4.160  0.1067  0.2185  0.7568
   50CHL1    H9 4844   3.570   3.301   4.172 -1.1336 -0.3294 -0.5289
   50CHL1   C10 4845   3.504   3.435   4.005  0.1761 -0.5124  0.0466
   50CHL1   C19 4846   3.467   3.585   3.996 -0.0292 -0.1043 -1.2326
   50CHL1  H19A 4847   3.424   3.615   3.898  1.4184 -0.3290 -1.9651
   50CHL1  H19B 4848   3.404   3.608   4.085  1.3546 -1.3911  0.1466
   50CHL1  H19C 4849   3.558   3.648   4.000 -0.1770  0.1385 -1.6825
   50CHL1    C1 4850   3.634   3.399   3.928 -0.2798  0.1020  0.6326
   50CHL1   H1A 4851   3.722   3.466   3.938  0.2760  0.0916 -2.9653
   50CHL1   H1B 4852   3.668   3.300   3.966  0.0796 -0.3125 -0.7230
   50CHL1    C2 4853   3.616   3.393   3.785  0.3063  0.2377  0.3622
   50CHL1   H2A 4854   3.705   3.365   3.724  0.2409 -1.7941  1.1230
   50CHL1   H2B 4855   3.577   3.492   3.756 -0.4499  0.6714  2.6638
   50CHL1   C20 4856   3.589   3.506   4.715  0.1051 -0.2650 -0.0776
   50CHL1   H20 4857   3.518   3.590   4.696  0.5247 -0.3993 -2.4450
   50CHL1   C21 4858   3.737   3.551   4.704  0.2293 -0.4549  0.0187
   50CHL1  H21A 4859   3.773   3.630   4.773 -0.7321  1.4646 -1.5751
   50CHL1  H21B 4860   3.744   3.601   4.605  0.2882  1.0505  0.7557
   50CHL1  H21C 4861   3.809   3.466   4.700  0.8962  0.1292 -0.7581
   50CHL1   C22 4862   3.574   3.448   4.862  0.3648  0.5064 -0.2071
   50CHL1  H22A 4863   3.479   3.392   4.872 -0.2314  1.4421 -0.5017
   50CHL1  H22B 4864   3.662   3.381   4.876 -0.4336 -0.4395  0.3374
   50CHL1   C23 4865   3.579   3.558   4.974  0.4783 -0.6902 -0.0294
   50CHL1  H23A 4866   3.686   3.590   4.971  0.4094 -0.5020 -1.5688
   50CHL1  H23B 4867   3.508   3.634   4.935 -0.3765 -1.1997  0.5117
   50CHL1   C24 4868   3.538   3.508   5.110  0.3727 -0.1342 -0.5603
   50CHL1  H24A 4869   3.435   3.466   5.104  1.5982 -3.4938 -0.5420
   50CHL1  H24B 4870   3.599   3.422   5.145 -1.8067 -1.5050  0.0427
   50CHL1   C25 4871   3.541   3.619   5.217 -0.1333  0.0215 -0.3982
   50CHL1   H25 4872   3.465   3.699   5.205  0.6245  1.1439  1.8503
   50CHL1   C26 4873   3.491   3.557   5.347 -0.0887  0.5357 -1.3934
   50CHL1  H26A 4874   3.403   3.492   5.328  0.8823 -0.7933 -1.4887
   50CHL1  H26B 4875   3.567   3.491   5.393  0.2405  1.7603 -0.0774
   50CHL1  H26C 4876   3.462   3.636   5.420 -2.2084 -1.2189 -0.2056
   50CHL1   C27 4877   3.678   3.685   5.230 -0.6768 -0.0269 -0.1700
   50CHL1  H27A 4878   3.699   3.761   5.151  1.8993 -0.9577 -0.4716
   50CHL1  H27B 4879   3.693   3.750   5.318  1.5031 -1.5724  0.6927
   50CHL1  H27C 4880   3.759   3.609   5.224 -1.2975 -0.6102 -2.1610
   51CHL1    C3 4881   6.877   6.096   3.830 -0.0145  0.1345 -0.2364
   51CHL1    H3 4882   6.971   6.055   3.873  0.7884 -1.4950 -3.2061
   51CHL1    O3 4883   6.895   6.081   3.688 -0.0264  0.2245  0.4085
   51CHL1   H3' 4884   6.969   6.140   3.670 -0.0962  0.3970  0.6867
   51CHL1    C4 4885   6.744   6.029   3.875 -0.4486  0.4171 -0.5484
   51CHL1   H4A 4886   6.662   6.056   3.804 -1.2437  0.2592  0.2965
   51CHL1   H4B 4887   6.754   5.920   3.860 -1.7522  0.1768  0.1894
   51CHL1    C5 4888   6.701   6.052   4.022 -0.5454 -0.2522  0.4039
   51CHL1    C6 4889   6.686   5.951   4.112  0.5119 -1.0792 -0.3034
   51CHL1    H6 4890   6.691   5.850   4.069 -0.8486 -0.3318 -2.3633
   51CHL1    C7 4891   6.640   5.963   4.249 -0.2393 -0.4976  0.1524
   51CHL1   H7A 4892   6.557   5.891   4.263 -0.2997 -0.4128  0.2338
   51CHL1   H7B 4893   6.723   5.947   4.321  0.8455  2.8603 -0.1805
   51CHL1    C8 4894   6.580   6.114   4.272 -0.2543  0.4310 -0.0156
   51CHL1    H8 4895   6.479   6.121   4.228 -0.3449 -0.8785 -0.0462
   51CHL1   C14 4896   6.577   6.142   4.416 -0.0139  0.3066  0.6637
   51CHL1   H14 4897   6.683   6.144   4.449  1.6492  2.1770 -4.0069
   51CHL1   C15 4898   6.511   6.039   4.513 -0.0958 -0.5051  0.2475
   51CHL1  H15A 4899   6.427   5.977   4.475 -2.6553  1.8033  1.7801
   51CHL1  H15B 4900   6.589   5.966   4.542 -0.1325 -0.0337  1.6061
   51CHL1   C16 4901   6.482   6.122   4.634  0.3075 -0.1054  0.3435
   51CHL1  H16A 4902   6.372   6.122   4.654  0.2750  2.3068  0.4657
   51CHL1  H16B 4903   6.534   6.069   4.717  0.4120 -2.1156 -0.9516
   51CHL1   C17 4904   6.525   6.274   4.610  0.2329  0.6172 -0.0449
   51CHL1   H17 4905   6.630   6.283   4.645  0.8367 -0.1373 -1.5864
   51CHL1   C13 4906   6.517   6.286   4.451 -0.5579  0.3150 -0.0665
   51CHL1   C18 4907   6.371   6.298   4.405 -0.0708 -0.1773  0.2809
   51CHL1  H18A 4908   6.381   6.316   4.296 -0.9431 -1.4798 -0.0320
   51CHL1  H18B 4909   6.318   6.201   4.416 -1.3464  0.0820 -2.7444
   51CHL1  H18C 4910   6.316   6.376   4.461 -1.0503 -1.4427  1.1480
   51CHL1   C12 4911   6.605   6.396   4.389 -0.3266 -0.4703  0.2058
   51CHL1  H12A 4912   6.552   6.491   4.411  0.1216  0.3048 -1.8785
   51CHL1  H12B 4913   6.699   6.391   4.448 -0.3777 -0.7457  0.2681
   51CHL1   C11 4914   6.632   6.367   4.241 -0.3132 -0.1972  0.4622
   51CHL1  H11A 4915   6.535   6.390   4.192  0.2243 -0.3003 -0.6809
   51CHL1  H11B 4916   6.711   6.441   4.215  0.3449 -0.4365  1.7334
   51CHL1    C9 4917   6.677   6.220   4.208 -0.0397  0.3254  0.0489
   51CHL1    H9 4918   6.779   6.203   4.248  0.4728 -1.3821 -1.8301
   51CHL1   C10 4919   6.691   6.201   4.055  0.9912  0.2277  0.8631
   51CHL1   C19 4920   6.565   6.249   3.977  0.1140 -0.3232 -0.1020
   51CHL1  H19A 4921   6.566   6.230   3.867 -1.9883 -0.2298 -0.1812
   51CHL1  H19B 4922   6.474   6.210   4.027  1.0058 -1.4435  0.7157
   51CHL1  H19C 4923   6.565   6.360   3.981 -1.1397 -0.3481  1.4018
   51CHL1    C1 4924   6.818   6.274   4.005 -0.3234 -0.2128  0.2547
   51CHL1   H1A 4925   6.789   6.379   4.025 -2.1342 -0.6701  0.2084
   51CHL1   H1B 4926   6.900   6.254   4.077 -0.3087 -2.0696 -0.2172
   51CHL1    C2 4927   6.865   6.248   3.857  0.1253  0.1365  0.4416
   51CHL1   H2A 4928   6.962   6.294   3.829 -0.4134  1.2815  0.4213
   51CHL1   H2B 4929   6.794   6.292   3.784  1.6311  0.4646 -0.8890
   51CHL1   C20 4930   6.437   6.364   4.695 -0.1213  0.4248  0.2482
   51CHL1   H20 4931   6.331   6.338   4.673 -0.4527  0.4013  1.7183
   51CHL1   C21 4932   6.481   6.508   4.673  0.3597 -0.3139  0.4520
   51CHL1  H21A 4933   6.588   6.525   4.700  1.4822 -2.8841 -1.9248
   51CHL1  H21B 4934   6.415   6.574   4.734 -0.2639 -0.8892  0.4107
   51CHL1  H21C 4935   6.462   6.548   4.572  1.0213  0.1082  0.4836
   51CHL1   C22 4936   6.456   6.329   4.852 -0.5048  0.1346 -0.2494
   51CHL1  H22A 4937   6.442   6.220   4.868 -1.4978  0.1821 -0.6517
   51CHL1  H22B 4938   6.562   6.352   4.875 -0.6887 -0.0247  0.7704
   51CHL1   C23 4939   6.355   6.413   4.927  0.3760  0.3254  0.4464
   51CHL1  H23A 4940   6.371   6.521   4.906  3.7141 -0.1201  0.2418
   51CHL1  H23B 4941   6.253   6.404   4.883  0.5772  1.0608 -0.1927
   51CHL1   C24 4942   6.352   6.383   5.077  0.2958  0.0936 -0.9437
   51CHL1  H24A 4943   6.309   6.280   5.082  0.8734 -0.0933  1.4476
   51CHL1  H24B 4944   6.457   6.379   5.114  0.1173  2.1547 -0.0676
   51CHL1   C25 4945   6.273   6.492   5.163  0.2440  0.1953 -0.1195
   51CHL1   H25 4946   6.314   6.588   5.125  0.5352  0.0441 -0.2010
   51CHL1   C26 4947   6.125   6.485   5.125 -0.8173 -0.2125 -0.1068
   51CHL1  H26A 4948   6.089   6.379   5.130 -1.8788  0.1595  0.5281
   51CHL1  H26B 4949   6.062   6.544   5.195 -1.7612 -0.8054 -0.4222
   51CHL1  H26C 4950   6.108   6.524   5.022 -2.3824  0.2859  0.3089
   51CHL1   C27 4951   6.291   6.457   5.313  0.1328 -0.1813  0.3530
   51CHL1  H27A 4952   6.224   6.380   5.356 -0.4659 -0.8372 -1.6178
   51CHL1  H27B 4953   6.395   6.423   5.327  0.1919  0.3043  1.1405
   51CHL1  H27C 4954   6.271   6.540   5.384  0.2640 -1.8507  2.4293
   52CHL1    C3 4955   6.871   0.780   3.948 -0.9381  0.5273 -0.3304
   52CHL1    H3 4956   6.906   0.675   3.951  1.1727  1.1740 -0.5417
   52CHL1    O3 4957   6.866   0.829   3.818 -0.6850  0.3639 -0.0045
   52CHL1   H3' 4958   6.842   0.921   3.827 -0.4938  0.4410 -0.2701
   52CHL1    C4 4959   6.734   0.793   4.007  0.4956  0.3715  0.5235
   52CHL1   H4A 4960   6.703   0.899   4.013  0.8201  0.4370  1.1416
   52CHL1   H4B 4961   6.667   0.735   3.940 -1.5805  3.6447 -0.4647
   52CHL1    C5 4962   6.738   0.739   4.148  0.2562 -0.2732  0.4707
   52CHL1    C6 4963   6.656   0.645   4.188 -0.1346  0.4465  0.1930
   52CHL1    H6 4964   6.574   0.620   4.120  0.6894 -3.4295  0.3653
   52CHL1    C7 4965   6.655   0.580   4.320 -0.0154 -0.5559 -0.6304
   52CHL1   H7A 4966   6.551   0.551   4.347  0.0648  1.2072  1.9445
   52CHL1   H7B 4967   6.720   0.490   4.325  1.1742  0.3487  0.7855
   52CHL1    C8 4968   6.713   0.673   4.427  0.4422  0.5863 -0.4077
   52CHL1    H8 4969   6.643   0.759   4.426 -0.8188 -0.4123 -0.0723
   52CHL1   C14 4970   6.715   0.612   4.566  0.3137  0.3831 -0.1885
   52CHL1   H14 4971   6.780   0.525   4.543 -0.2493  0.4433 -2.2939
   52CHL1   C15 4972   6.583   0.546   4.620  0.2684 -0.0946  0.2467
   52CHL1  H15A 4973   6.500   0.614   4.591 -1.4576 -2.3070 -0.2367
   52CHL1  H15B 4974   6.571   0.442   4.582 -2.1053 -0.3784  1.6287
   52CHL1   C16 4975   6.590   0.562   4.777 -0.7490 -0.1610  0.7826
   52CHL1  H16A 4976   6.499   0.618   4.807 -0.5317  0.4215  0.3646
   52CHL1  H16B 4977   6.587   0.459   4.818  1.0803  0.6533  3.1785
   52CHL1   C17 4978   6.736   0.617   4.795 -0.3926  0.0400 -0.5332
   52CHL1   H17 4979   6.809   0.534   4.784 -1.6644 -0.9678 -1.7482
   52CHL1   C13 4980   6.769   0.702   4.670 -0.1713  0.3675  0.2320
   52CHL1   C18 4981   6.702   0.841   4.684  0.3830  0.3974  0.5078
   52CHL1  H18A 4982   6.594   0.838   4.706  0.0211 -1.5019 -1.2438
   52CHL1  H18B 4983   6.747   0.914   4.755  0.9030  0.1444  0.4436
   52CHL1  H18C 4984   6.705   0.894   4.586 -2.4922 -1.1744 -0.5488
   52CHL1   C12 4985   6.917   0.721   4.636  0.2729  0.6087  0.2985
   52CHL1  H12A 4986   6.948   0.791   4.716 -0.6014  0.3132  0.9169
   52CHL1  H12B 4987   6.977   0.628   4.647  0.6005  0.6936 -0.6591
   52CHL1   C11 4988   6.934   0.786   4.497  0.2313 -0.1294  0.2104
   52CHL1  H11A 4989   6.924   0.896   4.510  1.5184 -0.1659  1.6540
   52CHL1  H11B 4990   7.040   0.782   4.465  0.2895  1.0262  0.2130
   52CHL1    C9 4991   6.847   0.716   4.382 -0.0552 -0.8962 -0.0911
   52CHL1    H9 4992   6.905   0.623   4.368 -1.6160 -2.4375  2.7573
   52CHL1   C10 4993   6.836   0.803   4.245  0.3312  0.1481 -0.2966
   52CHL1   C19 4994   6.791   0.950   4.270  0.0499  0.1441 -0.0362
   52CHL1  H19A 4995   6.766   1.006   4.177 -2.0054 -1.4582 -0.5213
   52CHL1  H19B 4996   6.691   0.951   4.318 -0.2225  1.3089 -0.5806
   52CHL1  H19C 4997   6.868   0.992   4.338  0.8824 -2.0919  0.5054
   52CHL1    C1 4998   6.979   0.812   4.178 -0.2633 -0.8175 -0.1474
   52CHL1   H1A 4999   7.039   0.877   4.245 -0.0953 -0.3532 -0.7313
   52CHL1   H1B 5000   7.035   0.715   4.184  1.2883  0.1098  1.3469
   52CHL1    C2 5001   6.982   0.855   4.028  0.6913 -0.4566  0.1914
   52CHL1   H2A 5002   7.080   0.837   3.977  0.1011  0.3255 -1.2723
   52CHL1   H2B 5003   6.958   0.963   4.025  1.5954 -0.2591 -0.2566
   52CHL1   C20 5004   6.777   0.676   4.931 -0.3528  0.4877  0.6112
   52CHL1   H20 5005   6.849   0.761   4.922 -2.7137  2.4747 -1.2746
   52CHL1   C21 5006   6.822   0.564   5.023 -0.1412 -0.1582 -0.2696
   52CHL1  H21A 5007   6.741   0.488   5.026  1.2563 -1.8065 -1.8626
   52CHL1  H21B 5008   6.820   0.614   5.122 -1.1384  0.2576 -0.4921
   52CHL1  H21C 5009   6.923   0.534   4.989  0.7777  2.9934 -0.7085
   52CHL1   C22 5010   6.658   0.745   4.998 -1.0238 -0.0169 -0.1497
   52CHL1  H22A 5011   6.603   0.812   4.929  0.5860  0.6871 -0.7786
   52CHL1  H22B 5012   6.577   0.676   5.030 -3.1614  2.4082 -0.0755
   52CHL1   C23 5013   6.694   0.843   5.117 -0.2673  0.2699 -0.1703
   52CHL1  H23A 5014   6.783   0.804   5.171 -0.5142  0.5330  0.4413
   52CHL1  H23B 5015   6.731   0.936   5.069  1.7203 -0.5007 -0.2297
   52CHL1   C24 5016   6.576   0.860   5.219  1.0206 -0.0373  0.8719
   52CHL1  H24A 5017   6.491   0.913   5.170 -1.3992 -4.5376 -0.3074
   52CHL1  H24B 5018   6.533   0.761   5.242 -0.3832  0.4127  0.3002
   52CHL1   C25 5019   6.614   0.942   5.342  0.1581  0.3032  0.7842
   52CHL1   H25 5020   6.679   1.028   5.313 -0.0653 -0.0090 -0.7098
   52CHL1   C26 5021   6.487   0.985   5.414  0.1488  0.3600  0.2837
   52CHL1  H26A 5022   6.415   1.038   5.347  0.8571  2.2434  0.9591
   52CHL1  H26B 5023   6.443   0.896   5.462 -2.1033  0.0754 -2.0427
   52CHL1  H26C 5024   6.516   1.051   5.499 -1.4152 -1.5927  2.4528
   52CHL1   C27 5025   6.703   0.856   5.440  0.4018 -0.2468  0.3448
   52CHL1  H27A 5026   6.794   0.831   5.380  1.4349  0.8974  1.3881
   52CHL1  H27B 5027   6.729   0.917   5.529 -0.1760  0.7147 -0.1305
   52CHL1  H27C 5028   6.648   0.766   5.474  0.7715 -0.9024 -0.7144
   53CHL1    C3 5029   5.833   1.479   3.447 -0.7711 -0.8894 -0.1191
   53CHL1    H3 5030   5.894   1.387   3.462 -1.6776 -1.7037 -1.1777
   53CHL1    O3 5031   5.832   1.517   3.306  0.1821  0.4593 -0.1143
   53CHL1   H3' 5032   5.773   1.592   3.304 -0.8513 -0.3369 -1.3268
   53CHL1    C4 5033   5.690   1.444   3.490  0.4827  0.4697  0.3261
   53CHL1   H4A 5034   5.621   1.522   3.454 -0.2861 -0.7242 -0.8790
   53CHL1   H4B 5035   5.660   1.348   3.443  0.4847 -0.5336  2.2400
   53CHL1    C5 5036   5.674   1.428   3.646 -0.5563  0.6496  0.2075
   53CHL1    C6 5037   5.609   1.322   3.706 -0.2292  0.2213 -0.5157
   53CHL1    H6 5038   5.562   1.246   3.641 -0.6825  0.8805 -0.9732
   53CHL1    C7 5039   5.581   1.318   3.854 -0.0750 -0.0478  0.3707
   53CHL1   H7A 5040   5.480   1.271   3.860 -0.4257  0.7791  1.2835
   53CHL1   H7B 5041   5.650   1.242   3.896 -1.2531  0.5190  3.6656
   53CHL1    C8 5042   5.595   1.451   3.927 -0.8824 -0.1522 -0.6459
   53CHL1    H8 5043   5.511   1.518   3.900  0.2711  1.8484  0.4666
   53CHL1   C14 5044   5.596   1.423   4.081 -0.3606 -0.9825 -0.1224
   53CHL1   H14 5045   5.688   1.362   4.097 -0.0592 -0.4773  0.0716
   53CHL1   C15 5046   5.480   1.347   4.140 -0.1063  0.1639 -0.5325
   53CHL1  H15A 5047   5.383   1.388   4.106 -1.6038 -0.2413  2.8559
   53CHL1  H15B 5048   5.482   1.237   4.125  0.4899  0.0761  0.1053
   53CHL1   C16 5049   5.499   1.376   4.296  0.2862  0.4159  0.9662
   53CHL1  H16A 5050   5.402   1.389   4.349  0.4036  0.6551  1.1241
   53CHL1  H16B 5051   5.553   1.292   4.346 -0.8056  0.0739  1.6050
   53CHL1   C17 5052   5.595   1.500   4.309  0.6384  0.4059 -0.2706
   53CHL1   H17 5053   5.693   1.463   4.346  0.4376  0.8499  0.7345
   53CHL1   C13 5054   5.611   1.552   4.164 -0.0830  0.2374 -0.2255
   53CHL1   C18 5055   5.495   1.650   4.122 -0.2062  0.0481  1.0500
   53CHL1  H18A 5056   5.493   1.739   4.188  2.0090  0.2001  1.0024
   53CHL1  H18B 5057   5.503   1.691   4.019  2.3649 -0.0022  1.1603
   53CHL1  H18C 5058   5.392   1.610   4.135 -1.0459  1.0134 -1.8934
   53CHL1   C12 5059   5.748   1.614   4.126 -0.8456 -0.0072 -0.5130
   53CHL1  H12A 5060   5.756   1.716   4.169  0.9250 -0.9759  1.6863
   53CHL1  H12B 5061   5.835   1.553   4.161 -1.8071 -1.7282 -0.9964
   53CHL1   C11 5062   5.765   1.639   3.971  0.7794  0.4250 -0.3444
   53CHL1  H11A 5063   5.701   1.724   3.941 -1.0807 -0.7514  0.1285
   53CHL1  H11B 5064   5.872   1.662   3.948  0.2425  0.9095 -2.5763
   53CHL1    C9 5065   5.729   1.518   3.879 -0.0553  0.2421 -0.7018
   53CHL1    H9 5066   5.810   1.447   3.908  0.5927  1.9758  2.1951
   53CHL1   C10 5067   5.731   1.546   3.730  0.0059  0.1662 -0.1431
   53CHL1   C19 5068   5.639   1.667   3.693 -0.3760  0.0983 -0.0528
   53CHL1  H19A 5069   5.679   1.769   3.710  1.2091 -0.7082  1.4114
   53CHL1  H19B 5070   5.630   1.670   3.583 -0.3363  2.1649 -0.0332
   53CHL1  H19C 5071   5.544   1.649   3.749 -0.5855  2.4014  0.3998
   53CHL1    C1 5072   5.873   1.577   3.674 -0.2499 -0.3169 -0.0087
   53CHL1   H1A 5073   5.914   1.664   3.731  0.6837  0.2210 -1.4594
   53CHL1   H1B 5074   5.930   1.485   3.696 -0.3687 -0.2563  0.5787
   53CHL1    C2 5075   5.895   1.598   3.528  0.0668 -0.0719  0.6210
   53CHL1   H2A 5076   6.003   1.604   3.505 -0.2391  1.0622 -0.6688
   53CHL1   H2B 5077   5.839   1.692   3.509  0.2506 -0.2177 -0.7188
   53CHL1   C20 5078   5.545   1.600   4.413  0.5208 -0.1693 -0.2741
   53CHL1   H20 5079   5.445   1.638   4.381 -0.2777 -2.5432 -0.7819
   53CHL1   C21 5080   5.647   1.717   4.422  0.3197 -0.5114  0.5541
   53CHL1  H21A 5081   5.616   1.802   4.357  0.4278 -1.6732 -1.0633
   53CHL1  H21B 5082   5.747   1.698   4.379  0.3189  0.3341  0.1531
   53CHL1  H21C 5083   5.646   1.744   4.530  1.2762 -0.3375  0.5245
   53CHL1   C22 5084   5.527   1.529   4.547 -0.3420 -0.0755  0.2085
   53CHL1  H22A 5085   5.480   1.429   4.542  0.4180 -0.4910  1.0882
   53CHL1  H22B 5086   5.627   1.512   4.593 -0.7898 -1.5401  0.6836
   53CHL1   C23 5087   5.449   1.613   4.653  0.1201  0.3082 -0.2349
   53CHL1  H23A 5088   5.495   1.713   4.667  0.4092  0.1508 -0.0371
   53CHL1  H23B 5089   5.346   1.631   4.616 -0.3747 -1.8066 -0.0510
   53CHL1   C24 5090   5.451   1.540   4.786  0.5079 -0.5578 -0.2130
   53CHL1  H24A 5091   5.417   1.434   4.779 -2.3975  0.2388  0.1798
   53CHL1  H24B 5092   5.556   1.537   4.823  1.2635 -1.6226 -2.3002
   53CHL1   C25 5093   5.368   1.610   4.900 -0.6208 -0.3107  0.9074
   53CHL1   H25 5094   5.268   1.622   4.853  0.5552  0.5988 -1.5524
   53CHL1   C26 5095   5.380   1.530   5.032  0.3931  0.0172 -0.0625
   53CHL1  H26A 5096   5.484   1.543   5.067  0.5454  1.4857 -0.9625
   53CHL1  H26B 5097   5.328   1.579   5.117  1.5630  3.4027 -1.1245
   53CHL1  H26C 5098   5.354   1.424   5.011 -1.2932  0.6010 -1.1849
   53CHL1   C27 5099   5.416   1.749   4.934  0.6733 -0.8742  0.2710
   53CHL1  H27A 5100   5.506   1.760   4.998 -1.6132 -0.2963  3.6610
   53CHL1  H27B 5101   5.434   1.819   4.849  1.4113 -1.3634  0.0135
   53CHL1  H27C 5102   5.330   1.799   4.984 -0.7868 -1.4849 -1.4936
   54CHL1    C3 5103   6.279   1.420   3.478 -0.1336  0.2739 -0.0430
   54CHL1    H3 5104   6.169   1.433   3.475 -0.3910 -1.6079 -0.2805
   54CHL1    O3 5105   6.337   1.409   3.347 -0.4275 -0.4356 -0.4238
   54CHL1   H3' 5106   6.424   1.370   3.358 -0.5992 -0.2859  1.9387
   54CHL1    C4 5107   6.335   1.534   3.553 -0.7784  0.4352 -0.7012
   54CHL1   H4A 5108   6.441   1.499   3.547 -1.6878 -2.4608 -1.4436
   54CHL1   H4B 5109   6.320   1.627   3.495 -1.8963  1.0701  0.5595
   54CHL1    C5 5110   6.291   1.547   3.699 -0.4926 -0.3263  0.7413
   54CHL1    C6 5111   6.235   1.658   3.750  0.8558  0.3555  0.1046
   54CHL1    H6 5112   6.232   1.746   3.684 -1.3553  1.1273  1.1344
   54CHL1    C7 5113   6.184   1.677   3.885 -0.0488 -0.0522 -0.1822
   54CHL1   H7A 5114   6.196   1.776   3.936  1.0433 -0.6097  0.6999
   54CHL1   H7B 5115   6.073   1.675   3.881 -0.0374  0.7960 -3.4921
   54CHL1    C8 5116   6.246   1.578   3.978  0.1678  0.3428 -0.3920
   54CHL1    H8 5117   6.351   1.601   4.005  0.1203  0.0072  0.0909
   54CHL1   C14 5118   6.167   1.578   4.112 -0.7267 -0.2584  0.1538
   54CHL1   H14 5119   6.066   1.549   4.075 -0.4162 -0.3873 -0.6067
   54CHL1   C15 5120   6.147   1.715   4.183  0.5262  0.0077  0.2254
   54CHL1  H15A 5121   6.236   1.782   4.184  1.2255 -0.7592 -2.2577
   54CHL1  H15B 5122   6.085   1.772   4.110  4.5069  2.2558 -1.7893
   54CHL1   C16 5123   6.094   1.672   4.322 -1.1063 -0.3407  0.1488
   54CHL1  H16A 5124   6.165   1.714   4.396  1.3495 -0.8522 -1.7947
   54CHL1  H16B 5125   5.988   1.693   4.349 -0.1722 -0.9776  5.3457
   54CHL1   C17 5126   6.103   1.514   4.330 -0.1691 -0.1455  0.4509
   54CHL1   H17 5127   6.009   1.482   4.279 -1.0036  1.4118  0.9489
   54CHL1   C13 5128   6.212   1.477   4.221  0.3439 -0.5934  0.5407
   54CHL1   C18 5129   6.350   1.509   4.285 -0.1177  0.5339  0.1615
   54CHL1  H18A 5130   6.344   1.618   4.307 -1.5541  0.6745 -0.7418
   54CHL1  H18B 5131   6.386   1.443   4.367 -0.0901  0.8291  0.3868
   54CHL1  H18C 5132   6.425   1.506   4.203 -0.5561 -0.1466 -0.2223
   54CHL1   C12 5133   6.207   1.333   4.158  0.0615  0.6892 -0.1343
   54CHL1  H12A 5134   6.246   1.263   4.234 -1.2404 -0.2161 -0.2668
   54CHL1  H12B 5135   6.101   1.300   4.146  0.4943 -1.1818  0.8275
   54CHL1   C11 5136   6.282   1.327   4.025  0.1183  0.0779 -0.0377
   54CHL1  H11A 5137   6.392   1.335   4.037  0.1028  2.1647 -0.9232
   54CHL1  H11B 5138   6.274   1.224   3.983 -0.5805 -0.0628  0.4105
   54CHL1    C9 5139   6.242   1.433   3.920  1.2070  0.1132  0.3991
   54CHL1    H9 5140   6.134   1.407   3.907  1.2972 -1.4789  2.2451
   54CHL1   C10 5141   6.309   1.420   3.781 -0.7069  0.3135 -0.5266
   54CHL1   C19 5142   6.463   1.398   3.797 -0.2297  0.3647  0.0579
   54CHL1  H19A 5143   6.502   1.494   3.838 -0.5165  0.6675 -0.3620
   54CHL1  H19B 5144   6.496   1.321   3.869 -0.7289 -1.5494 -1.6894
   54CHL1  H19C 5145   6.522   1.379   3.705  1.2331 -2.1279  1.4283
   54CHL1    C1 5146   6.250   1.301   3.699 -0.5232 -0.0574  0.2003
   54CHL1   H1A 5147   6.260   1.197   3.737  0.8048  0.4781  1.3939
   54CHL1   H1B 5148   6.142   1.325   3.686 -0.1718  0.4807 -2.2546
   54CHL1    C2 5149   6.308   1.293   3.555  0.2778  0.7319  0.0520
   54CHL1   H2A 5150   6.263   1.210   3.496 -1.3470  1.2586  0.4940
   54CHL1   H2B 5151   6.414   1.265   3.571  0.1537 -0.3823 -0.9346
   54CHL1   C20 5152   6.103   1.468   4.476  0.2427 -0.1963  0.1976
   54CHL1   H20 5153   6.188   1.516   4.528  0.9288  1.1211 -2.0049
   54CHL1   C21 5154   6.122   1.316   4.488  0.5293  0.7376  0.3554
   54CHL1  H21A 5155   6.115   1.271   4.590  0.3894 -0.2790 -0.0913
   54CHL1  H21B 5156   6.221   1.285   4.448 -0.9316 -1.9721 -1.4841
   54CHL1  H21C 5157   6.047   1.258   4.430  2.5483 -1.6925  0.0202
   54CHL1   C22 5158   5.977   1.498   4.551 -1.2042  0.3657 -0.2655
   54CHL1  H22A 5159   5.960   1.607   4.531 -0.4766  0.5912  0.3350
   54CHL1  H22B 5160   5.890   1.440   4.514 -1.8073  1.2407 -0.2704
   54CHL1   C23 5161   5.995   1.480   4.702  0.6811 -0.0647  0.0694
   54CHL1  H23A 5162   5.995   1.370   4.709 -0.5263 -0.1213 -0.6551
   54CHL1  H23B 5163   6.092   1.516   4.744  0.7145 -1.9283  1.7425
   54CHL1   C24 5164   5.881   1.544   4.785  0.1910  0.2610  0.0452
   54CHL1  H24A 5165   5.793   1.498   4.735  0.1992 -0.4420  0.6599
   54CHL1  H24B 5166   5.888   1.514   4.892  0.4799  0.2025  0.0080
   54CHL1   C25 5167   5.869   1.696   4.779  0.4411 -0.3529 -0.3556
   54CHL1   H25 5168   5.808   1.709   4.687  0.0624 -1.2489 -0.2406
   54CHL1   C26 5169   5.781   1.759   4.891 -0.1317 -0.2879 -0.1243
   54CHL1  H26A 5170   5.699   1.686   4.909  0.3532 -0.6492  0.6687
   54CHL1  H26B 5171   5.836   1.767   4.987 -1.5670  2.1628  0.5953
   54CHL1  H26C 5172   5.738   1.854   4.852 -1.8804 -0.5780  0.9726
   54CHL1   C27 5173   5.998   1.776   4.776 -0.0734  0.5163  0.9832
   54CHL1  H27A 5174   6.051   1.754   4.681 -0.7058 -2.2132  1.1751
   54CHL1  H27B 5175   5.984   1.886   4.784 -0.3657  0.3127  4.6047
   54CHL1  H27C 5176   6.067   1.744   4.856  2.3225 -0.3873 -1.2887
   55CHL1    C3 5177   2.971   2.857   4.011 -0.7502 -0.2121 -0.1071
   55CHL1    H3 5178   2.875   2.823   4.055 -0.1046 -0.8080  0.8734
   55CHL1    O3 5179   2.976   2.853   3.866  0.3717 -0.1519 -0.2716
   55CHL1   H3' 5180   3.062   2.892   3.846 -0.3157  1.2887 -0.6033
   55CHL1    C4 5181   3.012   2.995   4.072 -0.0793 -0.2197 -0.1653
   55CHL1   H4A 5182   3.111   3.033   4.040  1.9708 -0.6185  4.7556
   55CHL1   H4B 5183   2.930   3.065   4.044 -1.1877 -1.8806 -1.1690
   55CHL1    C5 5184   3.021   2.981   4.227  1.2270 -0.0459  0.1109
   55CHL1    C6 5185   2.954   3.060   4.311  0.8767  0.1806  0.2902
   55CHL1    H6 5186   2.887   3.133   4.262 -1.1054 -0.7253  1.4864
   55CHL1    C7 5187   2.955   3.046   4.458 -0.2654  0.1619 -0.8005
   55CHL1   H7A 5188   2.967   3.151   4.492 -1.0086 -0.3320  1.0671
   55CHL1   H7B 5189   2.861   3.004   4.499 -1.0968 -1.0256 -3.6949
   55CHL1    C8 5190   3.077   2.957   4.511  0.6272 -1.2197  0.2050
   55CHL1    H8 5191   3.168   3.018   4.492  0.6235 -1.4175 -0.4920
   55CHL1   C14 5192   3.065   2.931   4.655  0.0988  0.2958  0.0962
   55CHL1   H14 5193   2.975   2.866   4.663 -0.8565  1.7397  2.5545
   55CHL1   C15 5194   3.034   3.055   4.742 -0.4696 -0.2149 -0.1166
   55CHL1  H15A 5195   3.074   3.146   4.694 -2.0857  0.1466 -0.8078
   55CHL1  H15B 5196   2.928   3.086   4.746 -0.4831 -0.3291  0.8192
   55CHL1   C16 5197   3.095   3.026   4.879  0.9433 -0.2488 -0.1212
   55CHL1  H16A 5198   3.160   3.113   4.903  2.3133 -1.1820 -0.3456
   55CHL1  H16B 5199   3.018   3.017   4.959  1.0654  0.3942  0.0694
   55CHL1   C17 5200   3.165   2.885   4.864 -0.0027  0.4015 -0.3249
   55CHL1   H17 5201   3.096   2.817   4.917  0.1930  0.6218  0.2268
   55CHL1   C13 5202   3.191   2.864   4.716  0.1231 -0.3514 -0.7271
   55CHL1   C18 5203   3.317   2.953   4.693 -0.2237 -0.4440  0.7961
   55CHL1  H18A 5204   3.308   3.056   4.733  1.5674  0.5257 -1.1498
   55CHL1  H18B 5205   3.412   2.914   4.734  1.2555  0.8779 -1.1863
   55CHL1  H18C 5206   3.339   2.960   4.585 -1.3894  0.8044  0.6123
   55CHL1   C12 5207   3.195   2.732   4.642  0.6670  0.0097 -0.6944
   55CHL1  H12A 5208   3.282   2.677   4.683  0.2955  0.5516  0.8851
   55CHL1  H12B 5209   3.110   2.666   4.668  1.9717 -1.8213 -0.9040
   55CHL1   C11 5210   3.202   2.741   4.486 -0.1144  0.6787  0.2659
   55CHL1  H11A 5211   3.308   2.770   4.466 -0.5953 -0.3091 -5.0369
   55CHL1  H11B 5212   3.191   2.638   4.446 -1.0092  1.3444 -1.2777
   55CHL1    C9 5213   3.094   2.834   4.429  0.1294  0.3981 -0.7548
   55CHL1    H9 5214   3.004   2.770   4.441  0.6233 -0.1216  0.4297
   55CHL1   C10 5215   3.113   2.869   4.282 -1.4216  0.3130 -0.2528
   55CHL1   C19 5216   3.257   2.927   4.260  0.2889  0.4165 -0.3719
   55CHL1  H19A 5217   3.278   3.019   4.318  2.2911 -1.6720  2.5638
   55CHL1  H19B 5218   3.332   2.852   4.294 -1.7009 -0.8104  1.6710
   55CHL1  H19C 5219   3.281   2.952   4.155 -0.0749  1.7696 -0.1425
   55CHL1    C1 5220   3.094   2.736   4.197 -0.3038  1.0315  0.2511
   55CHL1   H1A 5221   3.175   2.666   4.226 -0.2519  1.9355  2.5643
   55CHL1   H1B 5222   3.001   2.691   4.238 -1.4315  1.1195 -2.0790
   55CHL1    C2 5223   3.079   2.749   4.041  0.7483 -0.5266  0.7000
   55CHL1   H2A 5224   3.041   2.650   4.007  1.2533 -0.2840 -0.6102
   55CHL1   H2B 5225   3.178   2.780   4.002 -2.2438  3.9849 -4.7932
   55CHL1   C20 5226   3.292   2.869   4.960  0.0126 -1.0764  1.1467
   55CHL1   H20 5227   3.366   2.949   4.935 -2.0757  0.8728  0.8321
   55CHL1   C21 5228   3.341   2.732   4.954  0.3825 -0.0478 -0.0878
   55CHL1  H21A 5229   3.424   2.710   5.024  1.0549  1.3467 -0.4074
   55CHL1  H21B 5230   3.389   2.710   4.856 -0.5034 -1.0230 -0.3221
   55CHL1  H21C 5231   3.264   2.655   4.975 -1.7612  1.9889 -0.0029
   55CHL1   C22 5232   3.250   2.900   5.108  0.0142  0.4644 -0.7209
   55CHL1  H22A 5233   3.201   3.000   5.111  3.0876  2.1006  1.7857
   55CHL1  H22B 5234   3.188   2.822   5.156 -0.3881 -0.3760 -2.5468
   55CHL1   C23 5235   3.371   2.914   5.200  0.1276  0.0344 -0.5010
   55CHL1  H23A 5236   3.435   2.823   5.202  0.6023  0.2967 -2.0360
   55CHL1  H23B 5237   3.420   3.005   5.158 -0.3439 -0.1594 -1.5044
   55CHL1   C24 5238   3.323   2.932   5.344  0.0925 -0.0327 -0.6482
   55CHL1  H24A 5239   3.265   2.838   5.357  2.3209 -1.4508 -0.4566
   55CHL1  H24B 5240   3.406   2.937   5.418 -0.3759 -0.6530 -0.0622
   55CHL1   C25 5241   3.230   3.048   5.384  0.3507  1.1315  0.3082
   55CHL1   H25 5242   3.135   3.055   5.327  0.3652  2.2415  0.3892
   55CHL1   C26 5243   3.200   3.046   5.538 -0.0679  0.1079  0.2492
   55CHL1  H26A 5244   3.170   2.946   5.577 -1.5805  1.0885  1.7385
   55CHL1  H26B 5245   3.275   3.096   5.602 -0.5609  0.1712  0.7890
   55CHL1  H26C 5246   3.111   3.111   5.552 -1.5276 -1.0916 -2.4899
   55CHL1   C27 5247   3.307   3.180   5.364  0.2657  0.9660 -1.0929
   55CHL1  H27A 5248   3.233   3.252   5.406  1.2618  1.8087 -0.7458
   55CHL1  H27B 5249   3.400   3.172   5.423 -1.4073  0.8781  1.7204
   55CHL1  H27C 5250   3.326   3.191   5.255  1.0704 -0.5215 -1.1370
   56CHL1    C3 5251   2.954   6.225   4.157 -0.0065  0.3726  0.1228
   56CHL1    H3 5252   2.947   6.323   4.208 -2.0554 -0.7048  2.0557
   56CHL1    O3 5253   2.982   6.231   4.021  0.1514 -0.2512  0.1768
   56CHL1   H3' 5254   3.021   6.150   3.988  0.0935 -1.0305  1.9134
   56CHL1    C4 5255   3.061   6.144   4.217 -0.6746  0.3797  0.5085
   56CHL1   H4A 5256   3.065   6.044   4.169 -0.5510  0.8419 -0.4627
   56CHL1   H4B 5257   3.155   6.194   4.189 -0.3385 -1.2442 -1.5567
   56CHL1    C5 5258   3.038   6.123   4.365  0.0247 -0.3208  0.2122
   56CHL1    C6 5259   3.138   6.164   4.456 -0.7416  0.4656 -0.0884
   56CHL1    H6 5260   3.230   6.214   4.421 -1.2544  0.2320 -1.8923
   56CHL1    C7 5261   3.126   6.141   4.607 -0.1210 -0.0014  0.3300
   56CHL1   H7A 5262   3.223   6.100   4.642 -0.3268  0.8205  1.9607
   56CHL1   H7B 5263   3.101   6.235   4.661 -4.0429 -1.4284  1.3926
   56CHL1    C8 5264   3.015   6.029   4.634 -0.8190  0.1978  0.5231
   56CHL1    H8 5265   3.064   5.932   4.610  1.6595  1.2959  0.7819
   56CHL1   C14 5266   2.990   6.034   4.784 -0.4402 -0.6276  0.1158
   56CHL1   H14 5267   2.954   6.137   4.803  3.1785  0.7328  0.3237
   56CHL1   C15 5268   3.108   6.026   4.880 -0.3133  0.1941  0.4937
   56CHL1  H15A 5269   3.174   5.939   4.859  2.3540  2.3871 -0.8598
   56CHL1  H15B 5270   3.171   6.118   4.873  0.6173 -0.5011 -0.6022
   56CHL1   C16 5271   3.037   5.998   5.013 -0.2514  0.0872  1.0068
   56CHL1  H16A 5272   3.088   5.921   5.075 -1.2363 -0.3151  1.3519
   56CHL1  H16B 5273   3.037   6.092   5.073 -2.5169  2.1393 -1.9047
   56CHL1   C17 5274   2.884   5.958   4.979  0.5672 -0.1895 -0.0378
   56CHL1   H17 5275   2.825   6.050   4.998  3.4165  1.5230  1.3168
   56CHL1   C13 5276   2.883   5.932   4.831  0.2121  0.2220 -0.0582
   56CHL1   C18 5277   2.923   5.786   4.804 -0.0386  0.7731  0.5297
   56CHL1  H18A 5278   2.842   5.709   4.799 -0.6521  1.4157  0.4904
   56CHL1  H18B 5279   2.971   5.773   4.705  1.5569 -0.4407  1.3960
   56CHL1  H18C 5280   3.002   5.755   4.876  0.1041 -1.2901 -0.4420
   56CHL1   C12 5281   2.752   5.969   4.759  0.1605 -0.5669 -0.4139
   56CHL1  H12A 5282   2.670   5.897   4.780  0.9722 -1.5738 -0.6332
   56CHL1  H12B 5283   2.729   6.072   4.792  0.7407 -1.0070  1.4648
   56CHL1   C11 5284   2.767   5.958   4.606 -0.0925 -0.9631  0.6744
   56CHL1  H11A 5285   2.778   5.853   4.570 -3.3115 -0.4779 -2.1990
   56CHL1  H11B 5286   2.669   5.985   4.561 -0.6501 -1.9793  1.2144
   56CHL1    C9 5287   2.886   6.047   4.556  0.5809 -0.0429 -0.6080
   56CHL1    H9 5288   2.867   6.154   4.574 -0.4422  0.2128 -2.8666
   56CHL1   C10 5289   2.905   6.046   4.404  0.3344 -0.1954 -0.2879
   56CHL1   C19 5290   2.908   5.903   4.355  0.0011  0.1841 -1.0047
   56CHL1  H19A 5291   2.991   5.855   4.412 -1.0696  0.5904  0.9971
   56CHL1  H19B 5292   2.815   5.843   4.369  2.5064 -3.8310  0.3366
   56CHL1  H19C 5293   2.931   5.901   4.246 -0.4761  1.0130 -1.1285
   56CHL1    C1 5294   2.795   6.132   4.333  0.4744  0.6749 -0.1296
   56CHL1   H1A 5295   2.704   6.071   4.351  1.0052  0.5590  2.5028
   56CHL1   H1B 5296   2.793   6.233   4.380  0.8132  1.7480 -2.2645
   56CHL1    C2 5297   2.815   6.156   4.177 -0.5703 -0.0955 -0.1757
   56CHL1   H2A 5298   2.736   6.223   4.135  1.3100  1.7486 -0.9435
   56CHL1   H2B 5299   2.802   6.055   4.133 -2.3852 -0.1178  0.3389
   56CHL1   C20 5300   2.825   5.842   5.070  0.0505  0.0790 -0.0151
   56CHL1   H20 5301   2.870   5.743   5.048 -2.3210 -1.1457  0.3269
   56CHL1   C21 5302   2.671   5.826   5.047  0.2764 -0.3667  0.0753
   56CHL1  H21A 5303   2.640   5.791   5.148  2.0516  1.6464  1.4212
   56CHL1  H21B 5304   2.643   5.765   4.958 -1.2562  1.3318 -0.6554
   56CHL1  H21C 5305   2.616   5.922   5.051 -0.1732 -0.5050 -1.8887
   56CHL1   C22 5306   2.855   5.858   5.222  0.2911  0.3256 -0.1885
   56CHL1  H22A 5307   2.794   5.786   5.280  0.6627  0.2535  0.1130
   56CHL1  H22B 5308   2.957   5.827   5.251 -1.1903 -2.2577  2.9828
   56CHL1   C23 5309   2.816   5.994   5.282  0.1659  0.2148  0.1195
   56CHL1  H23A 5310   2.894   6.068   5.254  0.5161 -1.0921 -2.6887
   56CHL1  H23B 5311   2.718   6.031   5.246  0.2341 -1.3339 -1.8452
   56CHL1   C24 5312   2.797   5.995   5.432  0.7224 -0.0115 -0.6371
   56CHL1  H24A 5313   2.704   5.937   5.452  1.3583 -0.0582  2.6921
   56CHL1  H24B 5314   2.885   5.951   5.483  0.1092 -0.2041  0.2691
   56CHL1   C25 5315   2.767   6.136   5.491  0.0312  0.5860  0.3838
   56CHL1   H25 5316   2.758   6.121   5.600 -0.7017  1.0113  0.3873
   56CHL1   C26 5317   2.886   6.231   5.461  0.1082  0.7991  0.0619
   56CHL1  H26A 5318   2.858   6.333   5.494 -1.8637  0.6537 -0.9968
   56CHL1  H26B 5319   2.979   6.202   5.515  0.9607  1.4178 -1.0222
   56CHL1  H26C 5320   2.890   6.245   5.351 -2.5962  0.0997 -0.1853
   56CHL1   C27 5321   2.637   6.197   5.440  1.2386  0.0371 -0.3305
   56CHL1  H27A 5322   2.637   6.226   5.333 -2.2774  1.4770 -0.0673
   56CHL1  H27B 5323   2.560   6.118   5.449  0.7112  0.4627 -1.0341
   56CHL1  H27C 5324   2.609   6.289   5.496 -1.0229 -0.6500 -0.2272
   57CHL1    C3 5325   4.493   3.403   3.734  0.1154  0.8742 -0.0966
   57CHL1    H3 5326   4.573   3.479   3.730  2.9005 -1.8828 -0.7278
   57CHL1    O3 5327   4.429   3.406   3.606  0.2842  0.1663 -0.2184
   57CHL1   H3' 5328   4.402   3.497   3.590 -1.5965  0.5673  3.8911
   57CHL1    C4 5329   4.552   3.260   3.740 -0.3719 -0.0212 -0.6868
   57CHL1   H4A 5330   4.477   3.181   3.724  0.2044 -1.7910  3.8420
   57CHL1   H4B 5331   4.620   3.245   3.653 -1.9171 -2.2886 -1.5945
   57CHL1    C5 5332   4.614   3.239   3.878  0.1712 -0.5103 -0.7472
   57CHL1    C6 5333   4.744   3.200   3.890 -0.0203  0.2688 -0.1243
   57CHL1    H6 5334   4.809   3.182   3.803  0.3042  0.6554  0.0386
   57CHL1    C7 5335   4.806   3.170   4.023 -0.5104  0.2233 -0.7880
   57CHL1   H7A 5336   4.868   3.079   4.012 -0.4915 -0.5243  3.6743
   57CHL1   H7B 5337   4.874   3.257   4.039 -1.1032  0.6703 -0.6523
   57CHL1    C8 5338   4.709   3.158   4.138  0.2383  0.0614  0.5935
   57CHL1    H8 5339   4.658   3.059   4.138 -2.5647  1.4021  1.9074
   57CHL1   C14 5340   4.787   3.188   4.271 -0.3863  0.0099  0.0889
   57CHL1   H14 5341   4.824   3.292   4.264 -2.3264  0.8212  1.2010
   57CHL1   C15 5342   4.900   3.093   4.309  0.2328 -0.0035  0.7016
   57CHL1  H15A 5343   4.875   2.987   4.289  0.8057 -0.2576  1.2944
   57CHL1  H15B 5344   4.989   3.125   4.251 -0.1285  0.0417  0.1638
   57CHL1   C16 5345   4.920   3.116   4.461  0.0400 -0.8186 -0.1135
   57CHL1  H16A 5346   4.930   3.016   4.509 -1.5515 -0.1687  1.6864
   57CHL1  H16B 5347   5.019   3.165   4.459 -1.1705  1.7683 -1.1247
   57CHL1   C17 5348   4.803   3.211   4.509  0.0313 -0.4455  0.0715
   57CHL1   H17 5349   4.834   3.318   4.520  1.5515 -0.6278 -1.9238
   57CHL1   C13 5350   4.703   3.191   4.398  0.6526 -1.0817  0.8485
   57CHL1   C18 5351   4.633   3.056   4.423  0.2880 -0.6479  0.3489
   57CHL1  H18A 5352   4.714   2.987   4.453 -0.9026 -1.8319  0.9181
   57CHL1  H18B 5353   4.558   3.057   4.505  0.3525  2.5303  0.4987
   57CHL1  H18C 5354   4.586   3.021   4.329  1.5926 -0.7186 -0.3076
   57CHL1   C12 5355   4.604   3.305   4.378 -0.2915  0.4009 -0.1693
   57CHL1  H12A 5356   4.542   3.295   4.470  1.2589  0.2657  0.8827
   57CHL1  H12B 5357   4.663   3.399   4.373 -0.8913  0.7926 -0.0867
   57CHL1   C11 5358   4.516   3.284   4.249  0.2579 -0.4307 -0.4403
   57CHL1  H11A 5359   4.454   3.194   4.266  0.9512 -0.7670  0.3790
   57CHL1  H11B 5360   4.450   3.373   4.242  2.3490  1.2609  0.0747
   57CHL1    C9 5361   4.597   3.269   4.123 -0.9387 -0.5815 -0.4927
   57CHL1    H9 5362   4.653   3.365   4.131 -2.2633  0.1246  0.8901
   57CHL1   C10 5363   4.520   3.269   3.996 -0.1524  0.4723 -0.0506
   57CHL1   C19 5364   4.414   3.154   4.002  0.0475 -0.2818  0.4486
   57CHL1  H19A 5365   4.463   3.063   4.045  0.8607 -0.7155 -1.3114
   57CHL1  H19B 5366   4.329   3.157   4.073 -0.2669 -0.3739  0.0821
   57CHL1  H19C 5367   4.373   3.125   3.903  1.6740  0.9130 -0.6251
   57CHL1    C1 5368   4.448   3.406   3.982  0.0918 -0.4065  1.0909
   57CHL1   H1A 5369   4.357   3.402   4.047 -1.3627 -0.3590 -0.8381
   57CHL1   H1B 5370   4.509   3.495   4.006 -0.7250  1.8270 -3.8705
   57CHL1    C2 5371   4.387   3.435   3.840 -0.3146 -0.2258 -0.1277
   57CHL1   H2A 5372   4.344   3.538   3.833 -1.8925 -0.9336 -4.6466
   57CHL1   H2B 5373   4.307   3.360   3.818 -0.8878  0.5626 -0.7957
   57CHL1   C20 5374   4.766   3.173   4.652 -0.6001 -0.5204 -0.0491
   57CHL1   H20 5375   4.718   3.074   4.666  0.0730 -0.6163  1.8373
   57CHL1   C21 5376   4.661   3.271   4.707 -0.2811  0.1937 -0.0320
   57CHL1  H21A 5377   4.646   3.250   4.815 -0.2098  3.1756  0.6575
   57CHL1  H21B 5378   4.567   3.252   4.651  0.4295 -0.5586 -1.0027
   57CHL1  H21C 5379   4.692   3.377   4.695 -2.5139  0.8105 -0.8782
   57CHL1   C22 5380   4.889   3.166   4.749  0.2796 -0.2233 -0.5559
   57CHL1  H22A 5381   4.849   3.138   4.849  3.3320  0.8278  1.0860
   57CHL1  H22B 5382   4.967   3.090   4.728 -0.1286 -0.9131  0.3757
   57CHL1   C23 5383   4.966   3.302   4.768 -0.2984  0.2655 -0.5518
   57CHL1  H23A 5384   5.020   3.341   4.680  0.1233 -1.2747 -1.0040
   57CHL1  H23B 5385   4.902   3.384   4.806  0.0325  0.5947 -0.6959
   57CHL1   C24 5386   5.083   3.284   4.872  0.2706 -0.2068  0.2973
   57CHL1  H24A 5387   5.050   3.243   4.969  2.6269  2.0195  2.1840
   57CHL1  H24B 5388   5.165   3.220   4.832  1.1917  2.1985 -2.0311
   57CHL1   C25 5389   5.142   3.421   4.916  0.9690 -0.7068 -0.0396
   57CHL1   H25 5390   5.059   3.484   4.956  1.6010  0.2147 -0.1445
   57CHL1   C26 5391   5.225   3.418   5.040 -0.6317  0.9854 -0.4716
   57CHL1  H26A 5392   5.169   3.394   5.132  1.0113  2.3619  0.9564
   57CHL1  H26B 5393   5.304   3.341   5.030 -1.9561 -0.2708 -1.6674
   57CHL1  H26C 5394   5.268   3.520   5.045  1.5923  0.1249 -1.0059
   57CHL1   C27 5395   5.200   3.510   4.802  0.3565  0.1786  0.7158
   57CHL1  H27A 5396   5.296   3.460   4.775 -0.3025 -0.2860 -0.8480
   57CHL1  H27B 5397   5.125   3.526   4.722  2.1228  1.7325 -0.7077
   57CHL1  H27C 5398   5.236   3.611   4.833 -0.8049  0.0339  2.6779
   58CHL1    C3 5399   2.545   2.986   3.873  0.2283  0.0237  0.2716
   58CHL1    H3 5400   2.612   2.901   3.899 -2.0277 -1.8133  0.4400
   58CHL1    O3 5401   2.514   2.983   3.733  0.3885 -0.6763 -0.1045
   58CHL1   H3' 5402   2.599   3.008   3.696 -0.5716 -0.0131 -2.0050
   58CHL1    C4 5403   2.418   2.955   3.955 -0.2332  0.3735 -0.2633
   58CHL1   H4A 5404   2.350   3.036   3.922 -0.8620 -0.1755 -0.3414
   58CHL1   H4B 5405   2.384   2.855   3.920  1.7268  0.0575 -1.3822
   58CHL1    C5 5406   2.427   2.964   4.106 -0.0273  0.0037  0.7021
   58CHL1    C6 5407   2.401   2.866   4.190 -0.5269  0.1610  0.3055
   58CHL1    H6 5408   2.359   2.772   4.152 -0.8491  1.8242 -3.9381
   58CHL1    C7 5409   2.423   2.876   4.335  0.3750 -0.0265 -0.3600
   58CHL1   H7A 5410   2.344   2.829   4.398  2.0450 -0.7511  1.2629
   58CHL1   H7B 5411   2.518   2.827   4.364  0.8408  1.3907  0.6428
   58CHL1    C8 5412   2.441   3.025   4.387 -0.0918  0.9460  0.3695
   58CHL1    H8 5413   2.342   3.075   4.390 -0.0451  1.0822 -0.1498
   58CHL1   C14 5414   2.493   3.022   4.523  0.2199 -0.1133 -0.4340
   58CHL1   H14 5415   2.596   2.980   4.520 -0.1470 -1.3194  1.4860
   58CHL1   C15 5416   2.427   2.933   4.627  0.3172  0.3174 -0.7387
   58CHL1  H15A 5417   2.318   2.928   4.604  0.1807  0.1416 -0.0769
   58CHL1  H15B 5418   2.467   2.830   4.620  1.4090  0.8531 -3.2330
   58CHL1   C16 5419   2.453   3.011   4.758 -0.4910 -0.3518  0.4831
   58CHL1  H16A 5420   2.363   3.064   4.794  0.8848  2.5251 -0.0638
   58CHL1  H16B 5421   2.483   2.944   4.841  0.3091 -1.6890 -0.8379
   58CHL1   C17 5422   2.552   3.129   4.736  0.7327  0.1187  0.5924
   58CHL1   H17 5423   2.655   3.087   4.735  0.6099 -0.1832 -0.2477
   58CHL1   C13 5424   2.510   3.161   4.588 -0.0732 -0.3215 -0.6490
   58CHL1   C18 5425   2.379   3.244   4.593  0.3300  0.1493 -0.5522
   58CHL1  H18A 5426   2.300   3.191   4.650  0.9074 -4.2773 -3.4410
   58CHL1  H18B 5427   2.399   3.339   4.647 -0.4130 -0.2538  0.4797
   58CHL1  H18C 5428   2.336   3.251   4.491 -1.0074  2.0403  0.0666
   58CHL1   C12 5429   2.618   3.230   4.501 -0.4679  0.0186  0.8585
   58CHL1  H12A 5430   2.632   3.331   4.544 -1.6832 -0.4165  2.3456
   58CHL1  H12B 5431   2.715   3.175   4.506  0.0020  0.9008  2.4050
   58CHL1   C11 5432   2.578   3.243   4.355  0.3458  0.3204  0.6027
   58CHL1  H11A 5433   2.493   3.313   4.341 -1.3989 -1.3291  2.2966
   58CHL1  H11B 5434   2.668   3.293   4.313  0.8892  0.0230  1.3803
   58CHL1    C9 5435   2.541   3.101   4.297  0.3370 -0.4296 -0.2720
   58CHL1    H9 5436   2.635   3.043   4.298 -0.1384 -1.2465  1.6652
   58CHL1   C10 5437   2.495   3.101   4.150 -0.2776  0.3311 -0.5070
   58CHL1   C19 5438   2.387   3.217   4.125 -0.6309 -0.0465  0.0566
   58CHL1  H19A 5439   2.443   3.312   4.137  2.0094 -1.6817  1.8816
   58CHL1  H19B 5440   2.348   3.221   4.021  2.0679 -1.2768 -1.1071
   58CHL1  H19C 5441   2.304   3.227   4.197 -0.2038  2.5396  0.2814
   58CHL1    C1 5442   2.626   3.114   4.061  0.2645 -0.5215 -0.3263
   58CHL1   H1A 5443   2.683   3.203   4.095 -1.3490  0.6562 -0.6507
   58CHL1   H1B 5444   2.687   3.024   4.086 -0.2306 -0.7912 -0.0808
   58CHL1    C2 5445   2.611   3.112   3.914 -0.8536 -0.7616 -0.4326
   58CHL1   H2A 5446   2.706   3.132   3.859 -1.3642  3.2011 -0.1689
   58CHL1   H2B 5447   2.539   3.195   3.896 -0.8451 -0.5454  0.4914
   58CHL1   C20 5448   2.537   3.234   4.840  0.4255 -0.0271  0.3882
   58CHL1   H20 5449   2.436   3.281   4.842  0.9279  1.0509  1.0712
   58CHL1   C21 5450   2.635   3.357   4.823  0.2122 -0.3594  0.1650
   58CHL1  H21A 5451   2.737   3.316   4.805 -0.3345 -1.4003 -0.6899
   58CHL1  H21B 5452   2.648   3.407   4.921  5.4747  1.0659 -0.9220
   58CHL1  H21C 5453   2.612   3.425   4.739  2.8499  0.5852  0.1104
   58CHL1   C22 5454   2.552   3.178   4.986 -0.1294 -0.6779  0.5947
   58CHL1  H22A 5455   2.539   3.271   5.046  0.6036 -0.1299 -0.0635
   58CHL1  H22B 5456   2.467   3.109   5.003 -0.6079  0.1244  1.5232
   58CHL1   C23 5457   2.691   3.121   5.022 -0.5683  0.1521  0.5472
   58CHL1  H23A 5458   2.700   3.020   4.977 -0.8495  0.1860  0.4138
   58CHL1  H23B 5459   2.775   3.187   4.991  1.4868 -2.6658 -0.2822
   58CHL1   C24 5460   2.698   3.105   5.179  0.4657  0.6282 -0.1789
   58CHL1  H24A 5461   2.696   3.210   5.216  1.3516  0.2802  0.9134
   58CHL1  H24B 5462   2.610   3.049   5.216  0.3546 -0.6786 -2.2703
   58CHL1   C25 5463   2.833   3.042   5.232  0.4494 -0.7144  0.3382
   58CHL1   H25 5464   2.922   3.080   5.177 -0.7421  0.5261 -0.7937
   58CHL1   C26 5465   2.856   3.067   5.382 -0.0377  0.5010  0.6497
   58CHL1  H26A 5466   2.756   3.054   5.427 -0.8880  1.5066 -0.8581
   58CHL1  H26B 5467   2.924   2.993   5.430  0.5421 -1.7402 -3.1744
   58CHL1  H26C 5468   2.902   3.166   5.402  0.9467 -0.1188  1.5816
   58CHL1   C27 5469   2.825   2.892   5.195  0.2192  0.1497  0.1493
   58CHL1  H27A 5470   2.928   2.851   5.202 -0.5404 -1.7656  0.7427
   58CHL1  H27B 5471   2.767   2.832   5.268  2.0124 -1.2896  0.4575
   58CHL1  H27C 5472   2.783   2.869   5.094  1.8745 -0.9502 -0.3230
   59CHL1    C3 5473   0.084   3.102   3.590  0.3578  0.0092 -0.0722
   59CHL1    H3 5474   0.020   3.025   3.637  1.0834  0.2091  1.3011
   59CHL1    O3 5475   0.044   3.119   3.453 -0.2027 -0.1381  0.0324
   59CHL1   H3' 5476   0.094   3.189   3.409 -1.9339 -0.3296 -2.3899
   59CHL1    C4 5477   0.097   3.244   3.656 -0.6704  0.3224 -0.3100
   59CHL1   H4A 5478   0.171   3.310   3.607  0.5926  0.5915  1.8103
   59CHL1   H4B 5479  -0.004   3.289   3.654 -0.6622  0.3547 -0.0735
   59CHL1    C5 5480   0.145   3.228   3.802  0.3361  0.0502  0.0667
   59CHL1    C6 5481   0.076   3.289   3.896  0.2491  0.1391 -0.6434
   59CHL1    H6 5482  -0.015   3.343   3.866  0.7750 -0.6524 -4.0720
   59CHL1    C7 5483   0.111   3.281   4.045 -0.5807 -0.0749  0.5430
   59CHL1   H7A 5484   0.102   3.382   4.089 -0.3196  0.0758  0.2570
   59CHL1   H7B 5485   0.038   3.208   4.088 -0.4911 -0.4816  0.0181
   59CHL1    C8 5486   0.256   3.229   4.068  0.4673  0.2887  0.4899
   59CHL1    H8 5487   0.321   3.315   4.039  1.0398 -0.7781 -1.5751
   59CHL1   C14 5488   0.279   3.186   4.214  0.2041  0.2043 -0.2933
   59CHL1   H14 5489   0.210   3.101   4.233 -0.4694  0.9455  0.6671
   59CHL1   C15 5490   0.241   3.286   4.332  0.5592 -0.3105  0.0969
   59CHL1  H15A 5491   0.259   3.391   4.301 -1.1828  0.2454  0.8940
   59CHL1  H15B 5492   0.131   3.284   4.347  0.5077 -3.0894 -0.0317
   59CHL1   C16 5493   0.321   3.236   4.454  1.0639  1.1131 -0.1681
   59CHL1  H16A 5494   0.385   3.314   4.499  1.2096  1.1432 -0.4289
   59CHL1  H16B 5495   0.245   3.205   4.530  0.1683 -1.6925 -2.0390
   59CHL1   C17 5496   0.411   3.106   4.405  0.3440 -0.0084 -0.2721
   59CHL1   H17 5497   0.346   3.016   4.409  1.8651 -1.2318 -1.5330
   59CHL1   C13 5498   0.425   3.135   4.251  0.4386  0.5181 -0.1794
   59CHL1   C18 5499   0.521   3.246   4.228 -0.1307  0.1151 -0.7938
   59CHL1  H18A 5500   0.628   3.225   4.250 -0.0489  0.8807 -0.4474
   59CHL1  H18B 5501   0.513   3.282   4.124  1.4223  0.6696 -0.7439
   59CHL1  H18C 5502   0.511   3.333   4.296  1.1493 -0.4538  0.1668
   59CHL1   C12 5503   0.449   3.012   4.163 -0.8352  0.2480  0.3927
   59CHL1  H12A 5504   0.552   2.970   4.165 -1.4905 -1.4118  1.4640
   59CHL1  H12B 5505   0.383   2.923   4.177  0.6943 -1.2843 -1.5756
   59CHL1   C11 5506   0.425   3.046   4.015 -0.2047 -0.0293  0.5595
   59CHL1  H11A 5507   0.502   3.118   3.978 -0.3933 -1.5341 -3.2237
   59CHL1  H11B 5508   0.443   2.966   3.939  0.7376  0.9548 -0.2923
   59CHL1    C9 5509   0.294   3.112   3.974 -0.4105 -0.2518  0.7750
   59CHL1    H9 5510   0.213   3.037   3.989 -1.3838  0.1770 -1.7076
   59CHL1   C10 5511   0.275   3.145   3.828 -0.0187  0.3336 -0.5727
   59CHL1   C19 5512   0.392   3.241   3.780 -0.0274  0.1614 -0.5345
   59CHL1  H19A 5513   0.384   3.279   3.676  2.3779 -0.6719 -1.0889
   59CHL1  H19B 5514   0.401   3.325   3.852  0.6175  0.3313 -0.8074
   59CHL1  H19C 5515   0.488   3.186   3.790  0.2586  0.9752  2.3794
   59CHL1    C1 5516   0.271   3.018   3.739  0.0748 -0.0158 -0.0784
   59CHL1   H1A 5517   0.379   2.990   3.733 -0.3174 -1.3919 -1.1306
   59CHL1   H1B 5518   0.216   2.934   3.788 -0.7836  0.1414 -0.7543
   59CHL1    C2 5519   0.225   3.033   3.592 -0.1305  0.3317 -0.0507
   59CHL1   H2A 5520   0.214   2.934   3.544  0.7579 -0.0126  0.4391
   59CHL1   H2B 5521   0.290   3.103   3.534 -0.3829  1.1240  0.6049
   59CHL1   C20 5522   0.536   3.088   4.489  0.0082  0.0114 -0.0725
   59CHL1   H20 5523   0.603   3.175   4.476  1.3781 -0.9009  0.5777
   59CHL1   C21 5524   0.617   2.975   4.434 -0.2884  0.2904  0.3628
   59CHL1  H21A 5525   0.713   2.960   4.489  0.6237 -0.8301 -1.4341
   59CHL1  H21B 5526   0.658   2.994   4.332 -0.2690 -0.3730  0.2461
   59CHL1  H21C 5527   0.553   2.885   4.433 -2.2030  1.4344  3.6816
   59CHL1   C22 5528   0.510   3.072   4.638  0.5736 -0.2902  0.9164
   59CHL1  H22A 5529   0.432   3.140   4.679  0.7990 -1.1388  2.8711
   59CHL1  H22B 5530   0.484   2.965   4.655  0.8631 -0.3334  1.0907
   59CHL1   C23 5531   0.637   3.090   4.720  0.4094  0.5721  0.1830
   59CHL1  H23A 5532   0.709   3.014   4.685 -0.7318 -0.0823 -0.7970
   59CHL1  H23B 5533   0.685   3.190   4.708  0.7001  0.4920  0.6649
   59CHL1   C24 5534   0.610   3.072   4.874  0.0735 -0.6704  0.6187
   59CHL1  H24A 5535   0.552   3.160   4.910  1.4814  0.4063  0.3589
   59CHL1  H24B 5536   0.543   2.984   4.881 -0.2473 -0.4244  0.6178
   59CHL1   C25 5537   0.720   3.053   4.969 -0.5013  0.3518 -0.2944
   59CHL1   H25 5538   0.762   2.954   4.942  1.0583  0.9250 -0.0858
   59CHL1   C26 5539   0.832   3.150   4.953 -0.4167 -0.4814  0.4092
   59CHL1  H26A 5540   0.889   3.133   4.859 -1.7503 -2.1343 -0.1320
   59CHL1  H26B 5541   0.789   3.253   4.952 -0.9683 -0.7094 -1.0663
   59CHL1  H26C 5542   0.896   3.140   5.043 -1.0108 -1.1212  0.7622
   59CHL1   C27 5543   0.679   3.034   5.118  0.0029 -0.5800  1.0971
   59CHL1  H27A 5544   0.631   3.130   5.145 -2.3333 -0.1411 -3.5532
   59CHL1  H27B 5545   0.590   2.967   5.126 -1.9059  1.6259 -0.3892
   59CHL1  H27C 5546   0.762   3.012   5.188 -0.4345  0.4375  1.9603
   60CHL1    C3 5547   1.631   2.087   3.809 -0.4898 -0.1576  0.4899
   60CHL1    H3 5548   1.707   2.007   3.823 -1.2515 -0.7163  1.5733
   60CHL1    O3 5549   1.588   2.085   3.674 -0.5396 -0.5478  0.4542
   60CHL1   H3' 5550   1.668   2.096   3.622 -0.2856 -0.6428  0.8197
   60CHL1    C4 5551   1.508   2.062   3.894 -1.1261  0.3859 -0.5802
   60CHL1   H4A 5552   1.430   2.134   3.861 -0.8100  1.2680  0.5206
   60CHL1   H4B 5553   1.472   1.962   3.860 -0.4383 -0.0086 -0.1820
   60CHL1    C5 5554   1.535   2.064   4.047  0.3291 -0.2334 -0.7031
   60CHL1    C6 5555   1.521   1.961   4.130 -0.7633 -0.5757 -0.1158
   60CHL1    H6 5556   1.482   1.867   4.090  0.1246 -1.5847  1.3056
   60CHL1    C7 5557   1.556   1.966   4.274 -0.2775  0.2910 -0.5686
   60CHL1   H7A 5558   1.485   1.909   4.337 -2.1489  2.0221 -0.9869
   60CHL1   H7B 5559   1.652   1.915   4.299 -1.0428 -0.2373  1.4558
   60CHL1    C8 5560   1.547   2.108   4.319 -0.0097 -0.6001  0.0956
   60CHL1    H8 5561   1.441   2.143   4.318  0.9323  2.7939  2.0509
   60CHL1   C14 5562   1.593   2.125   4.459  0.9034  0.0853 -0.3215
   60CHL1   H14 5563   1.702   2.107   4.459  1.0569  0.8647  0.9068
   60CHL1   C15 5564   1.545   2.019   4.566 -0.3634 -0.0842  0.2273
   60CHL1  H15A 5565   1.437   1.994   4.553 -0.2356 -1.2811  1.2368
   60CHL1  H15B 5566   1.600   1.923   4.556  0.4487  0.2912  1.0060
   60CHL1   C16 5567   1.568   2.093   4.705 -0.0611  0.7209  0.5762
   60CHL1  H16A 5568   1.468   2.104   4.751  0.4047 -0.7651  2.0681
   60CHL1  H16B 5569   1.623   2.021   4.769  0.7298  1.5565  0.8641
   60CHL1   C17 5570   1.636   2.231   4.673  1.1362  0.7839 -0.1769
   60CHL1   H17 5571   1.742   2.205   4.656  0.9926  0.9535 -1.4304
   60CHL1   C13 5572   1.593   2.261   4.529  0.3445 -0.2801 -1.1844
   60CHL1   C18 5573   1.456   2.320   4.529 -0.3607 -0.3191 -0.0509
   60CHL1  H18A 5574   1.456   2.428   4.554  2.4234 -0.2511 -0.0688
   60CHL1  H18B 5575   1.394   2.309   4.437 -1.8958  2.3790  0.5428
   60CHL1  H18C 5576   1.392   2.265   4.602 -0.7756 -1.3193 -1.1349
   60CHL1   C12 5577   1.684   2.356   4.450  0.8908  0.1331  0.8645
   60CHL1  H12A 5578   1.663   2.461   4.479  1.1128  1.0133 -1.8440
   60CHL1  H12B 5579   1.793   2.341   4.467  1.3548  1.8130 -0.3208
   60CHL1   C11 5580   1.650   2.358   4.292  0.4745 -0.6318 -1.1937
   60CHL1  H11A 5581   1.549   2.405   4.295  0.4091 -0.7490  1.8741
   60CHL1  H11B 5582   1.718   2.419   4.229  1.0947  0.7648  0.7327
   60CHL1    C9 5583   1.630   2.209   4.237 -0.2185 -0.0796 -0.4647
   60CHL1    H9 5584   1.732   2.167   4.241 -0.6004 -1.0092  3.3575
   60CHL1   C10 5585   1.589   2.206   4.087  0.8807 -0.1632  1.1562
   60CHL1   C19 5586   1.483   2.315   4.076  0.2442 -0.0996  0.0530
   60CHL1  H19A 5587   1.403   2.299   4.151  1.4953  3.4004  2.3815
   60CHL1  H19B 5588   1.520   2.418   4.094 -1.3423  0.3305  1.0484
   60CHL1  H19C 5589   1.433   2.314   3.977 -0.4905 -0.6015  0.4208
   60CHL1    C1 5590   1.712   2.239   3.994  0.2507 -0.6536  0.1394
   60CHL1   H1A 5591   1.742   2.340   4.029  0.0382 -1.3662  2.5500
   60CHL1   H1B 5592   1.787   2.160   4.013 -0.6030 -2.0393 -1.8870
   60CHL1    C2 5593   1.691   2.221   3.845 -0.2187  0.2012 -0.0616
   60CHL1   H2A 5594   1.787   2.225   3.788 -0.1118 -1.5119 -0.0426
   60CHL1   H2B 5595   1.621   2.300   3.810 -0.3649 -0.2011 -0.6876
   60CHL1   C20 5596   1.614   2.320   4.791  0.6146 -0.1453 -0.2421
   60CHL1   H20 5597   1.507   2.349   4.795  0.3006 -1.1353 -1.0709
   60CHL1   C21 5598   1.689   2.454   4.781  0.1302  0.2525  0.4940
   60CHL1  H21A 5599   1.680   2.508   4.877 -2.0855 -0.3942  0.7111
   60CHL1  H21B 5600   1.648   2.511   4.695 -2.6895 -3.2759 -0.7974
   60CHL1  H21C 5601   1.798   2.436   4.771 -0.0225 -0.8723  0.6954
   60CHL1   C22 5602   1.657   2.250   4.927  0.0573 -0.0855  0.4203
   60CHL1  H22A 5603   1.665   2.332   5.002  1.4241 -0.3749  0.6109
   60CHL1  H22B 5604   1.581   2.174   4.956  0.5020 -1.0224 -0.7568
   60CHL1   C23 5605   1.799   2.199   4.930 -0.4133  0.5834 -0.3357
   60CHL1  H23A 5606   1.803   2.106   4.869 -0.0992 -0.7259  1.5882
   60CHL1  H23B 5607   1.868   2.277   4.890 -1.8481  1.2475 -1.6247
   60CHL1   C24 5608   1.833   2.169   5.070 -0.0292  0.4962  0.2835
   60CHL1  H24A 5609   1.835   2.258   5.137  2.1122 -0.2078  1.2289
   60CHL1  H24B 5610   1.757   2.098   5.108  1.7739 -0.9469  1.3790
   60CHL1   C25 5611   1.976   2.117   5.078  0.7718  0.0241 -0.7647
   60CHL1   H25 5612   1.993   2.029   5.012 -1.1594  0.2469 -1.6276
   60CHL1   C26 5613   2.076   2.223   5.030 -0.1730  0.1739 -0.2241
   60CHL1  H26A 5614   2.059   2.328   5.061  1.2843  0.8467 -1.5330
   60CHL1  H26B 5615   2.180   2.195   5.057 -0.2802 -1.5850 -1.4656
   60CHL1  H26C 5616   2.073   2.231   4.919  1.1114 -2.7100 -0.5513
   60CHL1   C27 5617   2.007   2.068   5.218 -0.5544  0.2011  0.2081
   60CHL1  H27A 5618   2.117   2.059   5.228 -0.4455  0.9563 -0.2166
   60CHL1  H27B 5619   1.994   2.145   5.297  0.2727  0.3686  0.1859
   60CHL1  H27C 5620   1.956   1.975   5.251 -0.3311  0.5363  1.5450
   61CHL1    C3 5621   3.861   4.399   3.771  0.2186 -0.4210 -0.4115
   61CHL1    H3 5622   3.816   4.302   3.803 -0.3630 -0.3668 -1.0507
   61CHL1    O3 5623   3.917   4.385   3.643  0.0255  0.4976 -0.4346
   61CHL1   H3' 5624   3.963   4.467   3.622  3.3150 -1.3273 -0.9775
   61CHL1    C4 5625   3.750   4.511   3.773  0.5853 -0.2790  0.6752
   61CHL1   H4A 5626   3.791   4.607   3.733  0.9102 -0.4987  0.4787
   61CHL1   H4B 5627   3.679   4.488   3.691 -0.1560 -1.0254  1.5076
   61CHL1    C5 5628   3.681   4.521   3.901 -0.3278  0.5771  0.1231
   61CHL1    C6 5629   3.546   4.497   3.913 -0.4766 -0.2917  0.6636
   61CHL1    H6 5630   3.487   4.483   3.821  1.8283 -0.2333 -0.9029
   61CHL1    C7 5631   3.475   4.502   4.041 -0.1592  0.1886  0.1623
   61CHL1   H7A 5632   3.381   4.559   4.026 -0.0787  0.5094  0.8238
   61CHL1   H7B 5633   3.430   4.404   4.066  0.3292  0.4766  2.4130
   61CHL1    C8 5634   3.561   4.561   4.154  0.5176 -0.1793  0.2032
   61CHL1    H8 5635   3.554   4.671   4.143 -0.0431 -0.0502  1.5886
   61CHL1   C14 5636   3.495   4.524   4.281  0.0837  0.5484 -0.5014
   61CHL1   H14 5637   3.501   4.413   4.290 -0.9577  0.6460  2.5565
   61CHL1   C15 5638   3.348   4.556   4.302 -0.1552 -0.0015  0.2571
   61CHL1  H15A 5639   3.317   4.661   4.287  0.1790 -0.1006 -1.2373
   61CHL1  H15B 5640   3.282   4.497   4.235 -0.4895 -0.1404  0.7042
   61CHL1   C16 5641   3.321   4.524   4.447  0.0803  0.1326  0.3506
   61CHL1  H16A 5642   3.246   4.588   4.499  0.3730  0.2681  0.6156
   61CHL1  H16B 5643   3.275   4.425   4.464 -0.7593  0.7874  2.2459
   61CHL1   C17 5644   3.464   4.528   4.519 -0.0604  0.1561 -0.0987
   61CHL1   H17 5645   3.489   4.419   4.526  2.1883  0.4083 -2.5709
   61CHL1   C13 5646   3.560   4.582   4.417 -0.9126 -0.9788  0.1497
   61CHL1   C18 5647   3.551   4.732   4.412 -0.1838 -0.4217  0.0075
   61CHL1  H18A 5648   3.593   4.768   4.316 -1.6464 -1.4793 -1.0801
   61CHL1  H18B 5649   3.443   4.755   4.419 -0.1010  0.1722 -0.5686
   61CHL1  H18C 5650   3.595   4.787   4.498 -0.1818  0.0468 -0.2917
   61CHL1   C12 5651   3.708   4.530   4.411 -0.0564  0.0657 -0.4728
   61CHL1  H12A 5652   3.755   4.575   4.502 -0.9303  0.7115 -0.3271
   61CHL1  H12B 5653   3.710   4.423   4.442  3.0252  0.3118  0.5372
   61CHL1   C11 5654   3.790   4.561   4.281 -0.5295 -0.6166  0.2540
   61CHL1  H11A 5655   3.809   4.669   4.265  1.3977 -0.9191  0.2391
   61CHL1  H11B 5656   3.893   4.519   4.290 -0.0012  0.8499  1.3644
   61CHL1    C9 5657   3.710   4.522   4.150  0.6183  0.2873 -0.9678
   61CHL1    H9 5658   3.703   4.412   4.160  0.9504  0.3603  0.1713
   61CHL1   C10 5659   3.779   4.544   4.023 -0.4130  0.4858 -0.1930
   61CHL1   C19 5660   3.819   4.696   4.014 -0.1022  0.7546  0.1315
   61CHL1  H19A 5661   3.826   4.729   3.908  0.8782  1.1168  0.2989
   61CHL1  H19B 5662   3.738   4.758   4.056  1.5857  3.3468 -0.2055
   61CHL1  H19C 5663   3.916   4.708   4.066  0.1337 -2.9007  0.8544
   61CHL1    C1 5664   3.909   4.447   4.011  0.0810  0.2218 -0.4131
   61CHL1   H1A 5665   3.984   4.478   4.088 -1.8039  0.2598  1.4922
   61CHL1   H1B 5666   3.874   4.344   4.034 -0.3098  1.0466  3.5615
   61CHL1    C2 5667   3.969   4.439   3.872 -0.3374 -0.0190 -0.6107
   61CHL1   H2A 5668   4.052   4.365   3.866  0.5764  0.5150  3.0315
   61CHL1   H2B 5669   4.022   4.533   3.848 -0.0144 -0.0151  0.0887
   61CHL1   C20 5670   3.465   4.588   4.656  0.0966  0.4405  0.1415
   61CHL1   H20 5671   3.424   4.691   4.661  0.5553  0.6088  0.5580
   61CHL1   C21 5672   3.604   4.596   4.723  0.0593  0.0728 -0.1120
   61CHL1  H21A 5673   3.602   4.603   4.834 -1.4060  1.1058 -0.1715
   61CHL1  H21B 5674   3.670   4.676   4.681  1.9362 -1.1569  0.3957
   61CHL1  H21C 5675   3.667   4.508   4.698 -1.5770 -0.9202 -0.9026
   61CHL1   C22 5676   3.372   4.500   4.740 -0.1675 -0.6715  0.0975
   61CHL1  H22A 5677   3.278   4.473   4.687 -0.0056  0.1203 -0.6118
   61CHL1  H22B 5678   3.427   4.407   4.768  0.0268 -0.3663  0.7591
   61CHL1   C23 5679   3.321   4.553   4.874 -0.0665 -0.4767 -0.6434
   61CHL1  H23A 5680   3.394   4.628   4.911 -0.3689 -0.8345  0.7085
   61CHL1  H23B 5681   3.215   4.587   4.879  0.4961  1.2090  0.9205
   61CHL1   C24 5682   3.326   4.448   4.986  0.1441 -0.1641 -0.3711
   61CHL1  H24A 5683   3.257   4.367   4.955 -0.9549  0.0994  1.2615
   61CHL1  H24B 5684   3.430   4.411   4.998 -0.2470 -1.3341 -0.4328
   61CHL1   C25 5685   3.274   4.501   5.121  0.0363  0.1501 -0.0813
   61CHL1   H25 5686   3.191   4.573   5.110  1.7579  2.8516  2.7708
   61CHL1   C26 5687   3.226   4.387   5.203 -0.2548  0.5454  0.5901
   61CHL1  H26A 5688   3.302   4.316   5.242 -1.8853 -1.6253  0.0201
   61CHL1  H26B 5689   3.190   4.424   5.301 -0.3264 -0.2882  0.8918
   61CHL1  H26C 5690   3.145   4.331   5.151 -1.3945  3.0188 -0.4342
   61CHL1   C27 5691   3.376   4.584   5.199 -0.2824 -0.0979  0.4896
   61CHL1  H27A 5692   3.333   4.610   5.298 -3.7059 -0.2680 -0.8239
   61CHL1  H27B 5693   3.468   4.526   5.222  0.1219 -0.8049 -2.4747
   61CHL1  H27C 5694   3.404   4.677   5.146 -2.8758  0.0971 -0.6681
   62CHL1    C3 5695   4.090   3.737   3.702 -0.1455  0.0404 -0.5329
   62CHL1    H3 5696   4.001   3.791   3.663  0.6170  0.2710 -2.0052
   62CHL1    O3 5697   4.139   3.670   3.592 -0.0682  0.0869  0.2848
   62CHL1   H3' 5698   4.234   3.683   3.597  0.0910 -0.9002  0.1055
   62CHL1    C4 5699   4.190   3.833   3.767  0.0656 -0.5252  1.0183
   62CHL1   H4A 5700   4.284   3.780   3.793 -0.3462 -0.5939  2.4734
   62CHL1   H4B 5701   4.208   3.909   3.688  0.9734 -2.6106 -0.8965
   62CHL1    C5 5702   4.133   3.893   3.886 -1.0435 -0.4362 -0.2909
   62CHL1    C6 5703   4.142   4.029   3.890  0.5539  0.0315 -0.3905
   62CHL1    H6 5704   4.187   4.081   3.804  2.1001 -1.2123 -0.3923
   62CHL1    C7 5705   4.087   4.106   4.007  0.0250 -0.7996  0.1666
   62CHL1   H7A 5706   4.166   4.179   4.034 -1.0703 -0.4322  2.7187
   62CHL1   H7B 5707   3.989   4.156   3.989  0.1392 -0.8618 -0.6588
   62CHL1    C8 5708   4.070   4.014   4.130  1.0609 -0.9630 -0.1824
   62CHL1    H8 5709   4.173   3.975   4.149  0.8006 -0.9609  1.3801
   62CHL1   C14 5710   4.019   4.090   4.249 -0.0607 -0.6408 -0.6760
   62CHL1   H14 5711   3.926   4.139   4.213  1.4691  0.8947 -2.8259
   62CHL1   C15 5712   4.092   4.216   4.299  0.1625 -0.4498 -1.2947
   62CHL1  H15A 5713   4.201   4.196   4.311  0.2826  1.0379  0.6367
   62CHL1  H15B 5714   4.072   4.296   4.225 -0.6723 -0.1242 -0.7353
   62CHL1   C16 5715   4.009   4.248   4.425 -0.0457  0.3827  0.2651
   62CHL1  H16A 5716   4.078   4.259   4.511 -1.4869  1.4633  1.3495
   62CHL1  H16B 5717   3.945   4.338   4.421 -0.6507 -0.0776 -2.5651
   62CHL1   C17 5718   3.925   4.113   4.466 -0.4295 -0.1240 -0.0882
   62CHL1   H17 5719   3.821   4.135   4.434  0.1306 -1.2241 -2.9955
   62CHL1   C13 5720   3.980   4.010   4.373 -0.0375  0.1299  0.0203
   62CHL1   C18 5721   4.112   3.955   4.427  0.5084 -0.7493  0.0354
   62CHL1  H18A 5722   4.096   3.882   4.509  0.0507 -1.8354 -0.9996
   62CHL1  H18B 5723   4.166   3.896   4.351 -1.4604 -0.2201 -1.8612
   62CHL1  H18C 5724   4.178   4.041   4.452  2.1208 -2.3293  1.5515
   62CHL1   C12 5725   3.884   3.893   4.331 -0.4916 -0.1892  0.1494
   62CHL1  H12A 5726   3.869   3.822   4.415 -0.8724 -0.7599 -0.4017
   62CHL1  H12B 5727   3.784   3.917   4.290 -0.0062 -0.8376 -1.5166
   62CHL1   C11 5728   3.952   3.811   4.220 -0.2566  0.1648 -0.2455
   62CHL1  H11A 5729   4.042   3.768   4.270  1.1972  0.3646 -2.5408
   62CHL1  H11B 5730   3.878   3.732   4.194 -0.2925 -0.1639  0.7935
   62CHL1    C9 5731   3.991   3.891   4.094  0.0435  0.0979  0.6772
   62CHL1    H9 5732   3.898   3.922   4.042  1.7022  0.8098 -2.0922
   62CHL1   C10 5733   4.074   3.802   3.991  0.2287  0.1242 -0.6930
   62CHL1   C19 5734   4.178   3.707   4.066 -0.6901  0.1242  0.7094
   62CHL1  H19A 5735   4.120   3.633   4.125  0.2220 -1.3138 -0.1204
   62CHL1  H19B 5736   4.235   3.643   3.995 -3.8191 -2.5249  0.3587
   62CHL1  H19C 5737   4.251   3.771   4.120  0.2618  1.3519 -1.8605
   62CHL1    C1 5738   3.968   3.719   3.919 -0.1374 -0.4184  0.4332
   62CHL1   H1A 5739   3.919   3.645   3.986 -1.6652 -1.6874 -1.9593
   62CHL1   H1B 5740   3.881   3.779   3.884  1.1265  1.5336  0.4671
   62CHL1    C2 5741   4.029   3.635   3.800  0.0728 -0.1380 -0.6012
   62CHL1   H2A 5742   3.936   3.588   3.762 -1.7915  2.0403  1.0191
   62CHL1   H2B 5743   4.108   3.566   3.837 -1.2292 -1.3805 -0.0695
   62CHL1   C20 5744   3.921   4.098   4.621 -0.6175  0.0336  0.2759
   62CHL1   H20 5745   4.024   4.102   4.664 -0.1992  0.8769 -0.7520
   62CHL1   C21 5746   3.842   3.973   4.657 -0.0182 -0.2545 -0.2962
   62CHL1  H21A 5747   3.742   3.975   4.609  0.1381  0.5974 -0.5870
   62CHL1  H21B 5748   3.830   3.963   4.767 -0.5689 -1.3977 -0.4420
   62CHL1  H21C 5749   3.898   3.882   4.626  0.8869  0.0464  0.3930
   62CHL1   C22 5750   3.853   4.225   4.689  0.6381 -0.2983  0.2908
   62CHL1  H22A 5751   3.899   4.315   4.644  3.5606 -2.3440 -1.0693
   62CHL1  H22B 5752   3.747   4.213   4.657  0.4285  0.2011  0.7717
   62CHL1   C23 5753   3.875   4.231   4.840 -0.4792  0.0863 -0.6078
   62CHL1  H23A 5754   3.834   4.139   4.886 -0.7146  0.1536 -0.6803
   62CHL1  H23B 5755   3.984   4.244   4.857 -0.1298  0.5980 -2.8416
   62CHL1   C24 5756   3.798   4.345   4.903  0.4235 -0.0112 -1.1403
   62CHL1  H24A 5757   3.811   4.435   4.839  0.9121  0.3532 -0.5378
   62CHL1  H24B 5758   3.687   4.333   4.906  0.1896  1.9338 -0.0690
   62CHL1   C25 5759   3.838   4.395   5.045 -0.7668  1.2609 -0.7303
   62CHL1   H25 5760   3.934   4.450   5.040  1.2744 -1.8254  1.2124
   62CHL1   C26 5761   3.717   4.469   5.105  0.3479 -0.0552 -0.3674
   62CHL1  H26A 5762   3.681   4.547   5.034 -0.6932 -0.1119  0.0804
   62CHL1  H26B 5763   3.631   4.401   5.120  1.1918 -1.7358 -2.5183
   62CHL1  H26C 5764   3.753   4.526   5.193 -1.6813  3.1950 -1.4549
   62CHL1   C27 5765   3.864   4.279   5.138 -0.4424 -0.5570 -0.6633
   62CHL1  H27A 5766   3.961   4.226   5.128 -0.6169 -0.7400 -1.4520
   62CHL1  H27B 5767   3.849   4.300   5.246  2.6291  1.4155 -0.4930
   62CHL1  H27C 5768   3.786   4.203   5.117 -3.0840  1.0757  2.3186
   63CHL1    C3 5769   2.972   1.641   4.020  0.4897 -0.6949  0.8685
   63CHL1    H3 5770   3.065   1.607   4.070  0.7212  0.1409  1.0189
   63CHL1    O3 5771   3.001   1.696   3.888 -0.1562  0.2497 -0.2424
   63CHL1   H3' 5772   2.926   1.752   3.869  1.1213  1.1171 -3.2898
   63CHL1    C4 5773   2.874   1.516   4.000 -0.2625  0.0542 -0.7510
   63CHL1   H4A 5774   2.788   1.539   3.934 -0.9244 -3.3548 -1.2652
   63CHL1   H4B 5775   2.926   1.435   3.943 -0.6352 -0.6450 -0.1136
   63CHL1    C5 5776   2.812   1.464   4.127  0.4241 -0.4610 -0.9572
   63CHL1    C6 5777   2.820   1.336   4.165  0.7301  0.0085  0.7569
   63CHL1    H6 5778   2.872   1.268   4.097 -0.4070 -0.3237  0.2037
   63CHL1    C7 5779   2.771   1.282   4.289  0.4950  0.4856 -0.6377
   63CHL1   H7A 5780   2.726   1.181   4.278 -3.1165  1.8593  0.0027
   63CHL1   H7B 5781   2.856   1.268   4.358 -1.6131  0.1434  2.0752
   63CHL1    C8 5782   2.663   1.369   4.358  0.5947  0.0143  0.1861
   63CHL1    H8 5783   2.570   1.366   4.297 -0.2245 -1.1038  1.4407
   63CHL1   C14 5784   2.635   1.316   4.491  0.9670  0.0104 -0.2936
   63CHL1   H14 5785   2.733   1.316   4.543  0.4075  1.1791  0.8122
   63CHL1   C15 5786   2.595   1.169   4.513  0.2009 -0.4532 -0.4226
   63CHL1  H15A 5787   2.503   1.143   4.456 -0.2782  1.8580 -0.8146
   63CHL1  H15B 5788   2.669   1.097   4.474 -0.1791 -0.3583 -1.3662
   63CHL1   C16 5789   2.557   1.157   4.657 -0.3356 -0.4699  0.0327
   63CHL1  H16A 5790   2.463   1.097   4.663  0.2127 -1.3019  0.5090
   63CHL1  H16B 5791   2.637   1.109   4.718  1.6760  1.2905 -1.0981
   63CHL1   C17 5792   2.542   1.303   4.709  0.3714  0.4982  0.0467
   63CHL1   H17 5793   2.635   1.333   4.763 -0.2398  1.7065  0.4702
   63CHL1   C13 5794   2.554   1.402   4.585  0.2169 -0.3117 -0.1507
   63CHL1   C18 5795   2.410   1.422   4.527  0.3358 -0.4748  0.2766
   63CHL1  H18A 5796   2.417   1.490   4.439 -1.7821  2.3451  2.1074
   63CHL1  H18B 5797   2.360   1.326   4.505  1.7171 -0.9345 -1.1039
   63CHL1  H18C 5798   2.354   1.479   4.603  1.8370 -0.7854  1.6667
   63CHL1   C12 5799   2.624   1.539   4.597  0.4435  0.4419 -0.7461
   63CHL1  H12A 5800   2.576   1.601   4.676 -1.2821 -0.2046 -1.2561
   63CHL1  H12B 5801   2.720   1.520   4.651 -0.4752  0.2609  0.8854
   63CHL1   C11 5802   2.650   1.605   4.464  0.0078  0.3108 -0.2716
   63CHL1  H11A 5803   2.555   1.641   4.417  0.4539 -0.3068 -1.7013
   63CHL1  H11B 5804   2.712   1.697   4.466 -0.5711  0.7325 -1.0793
   63CHL1    C9 5805   2.721   1.511   4.357  0.0847 -0.8274 -0.3046
   63CHL1    H9 5806   2.819   1.506   4.408 -0.2575  3.4530  1.1913
   63CHL1   C10 5807   2.750   1.577   4.223 -0.1008 -0.3929  0.4582
   63CHL1   C19 5808   2.620   1.632   4.166  0.0180 -0.4384  0.0381
   63CHL1  H19A 5809   2.537   1.559   4.172 -0.9543  0.5565 -1.0126
   63CHL1  H19B 5810   2.584   1.726   4.212 -1.3806 -1.5850  1.3758
   63CHL1  H19C 5811   2.630   1.668   4.061  1.1103  2.0092  0.8941
   63CHL1    C1 5812   2.857   1.694   4.239 -0.7123 -0.2699 -0.6964
   63CHL1   H1A 5813   2.816   1.781   4.294 -1.4572 -0.2114 -1.3285
   63CHL1   H1B 5814   2.944   1.655   4.296 -0.5948 -1.7985 -1.8537
   63CHL1    C2 5815   2.906   1.751   4.108  0.3841 -0.0376 -0.5540
   63CHL1   H2A 5816   2.987   1.825   4.122  0.1752  0.0898  0.0232
   63CHL1   H2B 5817   2.821   1.801   4.058  0.7479  1.5320  0.3449
   63CHL1   C20 5818   2.427   1.326   4.811  0.2890  0.3418 -0.1619
   63CHL1   H20 5819   2.424   1.435   4.832  1.9901  0.3510  0.1740
   63CHL1   C21 5820   2.477   1.266   4.947 -0.1792  0.9155 -0.9018
   63CHL1  H21A 5821   2.571   1.309   4.990  0.9172 -2.1158  0.0019
   63CHL1  H21B 5822   2.489   1.157   4.932  1.8559  0.9590  0.0621
   63CHL1  H21C 5823   2.395   1.277   5.021 -1.5571 -1.3271 -2.0088
   63CHL1   C22 5824   2.290   1.266   4.786  0.3748 -0.1996 -0.0019
   63CHL1  H22A 5825   2.258   1.273   4.680 -2.2775  0.7592  0.7920
   63CHL1  H22B 5826   2.290   1.158   4.815  0.3278 -0.2410 -0.1571
   63CHL1   C23 5827   2.178   1.335   4.865 -0.1060 -0.3089 -0.1288
   63CHL1  H23A 5828   2.089   1.269   4.873 -2.3328  2.0679 -2.8716
   63CHL1  H23B 5829   2.216   1.351   4.968  1.5748 -1.7199 -0.4805
   63CHL1   C24 5830   2.144   1.475   4.823 -0.4589 -0.2495  0.7295
   63CHL1  H24A 5831   2.236   1.536   4.807 -1.5391  0.9869 -1.0859
   63CHL1  H24B 5832   2.089   1.484   4.727  0.2152 -0.2124  0.3386
   63CHL1   C25 5833   2.056   1.551   4.918 -0.5451 -0.1028 -0.0756
   63CHL1   H25 5834   2.101   1.544   5.020  0.8345 -0.1797 -0.6705
   63CHL1   C26 5835   2.054   1.695   4.880  0.4985 -0.3557  0.0029
   63CHL1  H26A 5836   2.005   1.702   4.780  1.1509  0.3120 -0.2790
   63CHL1  H26B 5837   2.004   1.758   4.956 -0.2823 -1.4707  0.4339
   63CHL1  H26C 5838   2.159   1.730   4.867  0.8861 -1.3315  0.4073
   63CHL1   C27 5839   1.904   1.490   4.919 -0.3851  0.1243 -0.5266
   63CHL1  H27A 5840   1.900   1.397   4.980 -0.3112  0.4019 -0.0914
   63CHL1  H27B 5841   1.845   1.561   4.981  0.4400  0.0893  0.3298
   63CHL1  H27C 5842   1.861   1.478   4.817  0.8051 -1.7970 -0.8548
   64CHL1    C3 5843   5.343   2.498   3.480 -0.3113 -0.2745  0.1462
   64CHL1    H3 5844   5.286   2.404   3.496  0.9330 -0.9995  0.4315
   64CHL1    O3 5845   5.336   2.527   3.340  0.0557 -0.0250  0.3302
   64CHL1   H3' 5846   5.401   2.597   3.328 -0.3065  0.2981  0.2273
   64CHL1    C4 5847   5.282   2.616   3.560 -0.3878  0.3675 -0.2726
   64CHL1   H4A 5848   5.324   2.714   3.529 -0.8816  0.7798  0.3280
   64CHL1   H4B 5849   5.175   2.628   3.534 -0.6905  1.5534  1.3376
   64CHL1    C5 5850   5.295   2.581   3.706  0.1346  0.0888 -0.4872
   64CHL1    C6 5851   5.183   2.567   3.787 -0.1657 -0.5479  0.4024
   64CHL1    H6 5852   5.085   2.593   3.745  0.1988 -0.2585 -0.2781
   64CHL1    C7 5853   5.194   2.548   3.938 -0.0515  0.0869 -0.0870
   64CHL1   H7A 5854   5.131   2.618   3.997  2.2046  1.3828  0.9161
   64CHL1   H7B 5855   5.172   2.441   3.958 -1.1917  0.5775  1.5153
   64CHL1    C8 5856   5.340   2.566   3.990 -0.8934 -0.4068  1.2933
   64CHL1    H8 5857   5.360   2.676   3.983  3.3192 -1.0889 -1.4044
   64CHL1   C14 5858   5.359   2.513   4.126 -0.0207 -0.5602  0.1454
   64CHL1   H14 5859   5.357   2.402   4.115  1.8126 -0.5894 -0.1220
   64CHL1   C15 5860   5.258   2.577   4.234  0.3725 -0.0338 -0.0232
   64CHL1  H15A 5861   5.251   2.687   4.220  1.2242  0.0047 -0.1828
   64CHL1  H15B 5862   5.157   2.536   4.214 -0.1880  1.3316 -0.1631
   64CHL1   C16 5863   5.316   2.526   4.371 -0.6765  0.0245  0.2635
   64CHL1  H16A 5864   5.314   2.616   4.436 -1.0539  0.0612  0.2004
   64CHL1  H16B 5865   5.273   2.439   4.425  1.5408 -0.4944  1.3000
   64CHL1   C17 5866   5.474   2.492   4.338  0.4112 -0.0295  0.2381
   64CHL1   H17 5867   5.471   2.381   4.333 -0.7840 -0.0491  0.8917
   64CHL1   C13 5868   5.498   2.542   4.194 -0.3903  0.1215  0.5291
   64CHL1   C18 5869   5.532   2.696   4.205  0.0420  0.1600 -0.3474
   64CHL1  H18A 5870   5.516   2.754   4.112  1.0403  1.1155  0.0429
   64CHL1  H18B 5871   5.474   2.746   4.286 -1.5314  0.3780 -1.5644
   64CHL1  H18C 5872   5.640   2.714   4.227 -0.4699  2.2055  0.8118
   64CHL1   C12 5873   5.602   2.469   4.107  0.2998 -0.3287  0.5146
   64CHL1  H12A 5874   5.701   2.485   4.155  2.2237 -1.3669 -2.7730
   64CHL1  H12B 5875   5.581   2.360   4.112  0.1622 -0.2385  2.6087
   64CHL1   C11 5876   5.591   2.517   3.961  0.7042  0.5899  0.9034
   64CHL1  H11A 5877   5.637   2.618   3.961  1.2872  0.4047 -2.1882
   64CHL1  H11B 5878   5.660   2.459   3.897 -1.4970 -0.7133 -0.4117
   64CHL1    C9 5879   5.450   2.504   3.900  0.1738 -0.2347 -0.3031
   64CHL1    H9 5880   5.415   2.399   3.905  0.9004 -0.5300 -1.2020
   64CHL1   C10 5881   5.439   2.551   3.758 -0.5317  0.0584  0.0187
   64CHL1   C19 5882   5.512   2.686   3.747 -0.0590 -0.3922 -0.2661
   64CHL1  H19A 5883   5.460   2.765   3.805 -2.2950 -2.0452  0.1506
   64CHL1  H19B 5884   5.620   2.690   3.770 -0.5912  0.7328  2.4143
   64CHL1  H19C 5885   5.517   2.719   3.641 -0.6461 -1.9115 -0.8094
   64CHL1    C1 5886   5.505   2.444   3.672 -0.1733 -0.2762  0.2776
   64CHL1   H1A 5887   5.611   2.431   3.701 -0.1722 -0.8278  0.0319
   64CHL1   H1B 5888   5.449   2.349   3.684 -0.7052 -0.2743 -1.7584
   64CHL1    C2 5889   5.493   2.475   3.523 -0.2414 -0.2484  0.2258
   64CHL1   H2A 5890   5.534   2.398   3.455  1.7440  0.5607  0.4330
   64CHL1   H2B 5891   5.555   2.562   3.492  0.6364 -1.5502 -1.8829
   64CHL1   C20 5892   5.567   2.534   4.454 -0.1734  0.7761  0.4223
   64CHL1   H20 5893   5.579   2.645   4.458 -0.0233  0.8615 -1.5687
   64CHL1   C21 5894   5.709   2.480   4.419  0.4896  0.0215 -0.2394
   64CHL1  H21A 5895   5.699   2.374   4.387  0.5234 -0.1866  0.4308
   64CHL1  H21B 5896   5.777   2.479   4.506  0.6447 -1.9364 -0.3467
   64CHL1  H21C 5897   5.756   2.546   4.343  2.5690 -1.4087 -0.2594
   64CHL1   C22 5898   5.515   2.480   4.589 -0.4035  0.2519  0.2524
   64CHL1  H22A 5899   5.410   2.515   4.602 -0.3070  0.4375  0.5279
   64CHL1  H22B 5900   5.518   2.369   4.601  0.5466  0.3118  0.6475
   64CHL1   C23 5901   5.593   2.550   4.698  0.2126 -0.1538  0.4099
   64CHL1  H23A 5902   5.703   2.556   4.680  0.3382  2.2409  1.5614
   64CHL1  H23B 5903   5.561   2.656   4.698  0.9035  0.0746 -0.7272
   64CHL1   C24 5904   5.578   2.479   4.835  0.2956 -0.5586 -0.1248
   64CHL1  H24A 5905   5.473   2.486   4.871  0.6039 -1.3546  0.9639
   64CHL1  H24B 5906   5.598   2.370   4.828  1.3444 -0.4022  0.3479
   64CHL1   C25 5907   5.679   2.545   4.935 -0.1464 -0.3059  0.0711
   64CHL1   H25 5908   5.781   2.513   4.904  0.1028 -0.9031  1.4583
   64CHL1   C26 5909   5.665   2.701   4.959 -0.3531  0.4235  0.4062
   64CHL1  H26A 5910   5.714   2.749   4.871 -1.8953  2.6762  0.7016
   64CHL1  H26B 5911   5.559   2.732   4.963 -0.3913  0.1594  2.1826
   64CHL1  H26C 5912   5.718   2.721   5.055  0.0314 -1.6264  0.6708
   64CHL1   C27 5913   5.681   2.465   5.066  0.3127 -0.4504 -0.0762
   64CHL1  H27A 5914   5.758   2.498   5.138  0.4009 -3.6741  1.4873
   64CHL1  H27B 5915   5.581   2.469   5.115  0.1591  0.3399 -0.4415
   64CHL1  H27C 5916   5.698   2.357   5.046  0.5997 -0.4592  0.2218
   65CHL1    C3 5917   5.853   6.300   3.774  1.1429 -0.3654  0.2718
   65CHL1    H3 5918   5.850   6.190   3.782 -0.7104 -0.4938 -1.3721
   65CHL1    O3 5919   5.857   6.331   3.633  0.2973 -0.4001  0.2232
   65CHL1   H3' 5920   5.944   6.300   3.608  0.7365  0.5810  0.4841
   65CHL1    C4 5921   5.727   6.371   3.834 -0.3335  0.0250 -0.5248
   65CHL1   H4A 5922   5.733   6.480   3.812  1.5361  0.1268  0.3192
   65CHL1   H4B 5923   5.632   6.347   3.782 -0.8785 -0.4594  0.6693
   65CHL1    C5 5924   5.715   6.366   3.988  0.3888 -0.0821  0.6927
   65CHL1    C6 5925   5.602   6.325   4.050  0.6546 -0.1659  0.5669
   65CHL1    H6 5926   5.517   6.304   3.984  0.7292  1.5729 -0.1491
   65CHL1    C7 5927   5.593   6.302   4.198  0.2554 -0.7521 -0.0252
   65CHL1   H7A 5928   5.512   6.367   4.236 -1.2480 -1.8183 -1.2779
   65CHL1   H7B 5929   5.567   6.195   4.216 -0.0157 -0.8242 -0.8349
   65CHL1    C8 5930   5.714   6.348   4.280 -0.7006 -0.0331 -0.6538
   65CHL1    H8 5931   5.693   6.456   4.289  0.1958  0.0097  1.7606
   65CHL1   C14 5932   5.719   6.272   4.419 -0.0037  0.2413  0.2235
   65CHL1   H14 5933   5.739   6.166   4.394 -2.3403 -0.2517  0.1884
   65CHL1   C15 5934   5.586   6.260   4.500 -0.3061 -0.0342 -1.3167
   65CHL1  H15A 5935   5.528   6.354   4.509 -0.0501 -0.0767  1.5878
   65CHL1  H15B 5936   5.521   6.179   4.460  0.4495  0.2729 -3.2869
   65CHL1   C16 5937   5.644   6.214   4.638  0.3433  0.7876  0.2497
   65CHL1  H16A 5938   5.591   6.284   4.706 -0.3474  2.5573 -2.0062
   65CHL1  H16B 5939   5.626   6.108   4.668  2.3999  0.8295  1.8938
   65CHL1   C17 5940   5.797   6.227   4.636  0.0241 -0.5250 -0.0109
   65CHL1   H17 5941   5.833   6.128   4.600 -3.4854 -2.0745  0.3234
   65CHL1   C13 5942   5.834   6.313   4.512 -0.3891 -0.6318 -0.1895
   65CHL1   C18 5943   5.816   6.457   4.562  0.8910 -0.2217  0.0625
   65CHL1  H18A 5944   5.708   6.460   4.588  0.8883  0.8997 -0.0414
   65CHL1  H18B 5945   5.881   6.484   4.649 -0.1085 -0.1659  0.8053
   65CHL1  H18C 5946   5.836   6.533   4.484 -0.4344  1.7539  1.5409
   65CHL1   C12 5947   5.970   6.289   4.440 -0.7576 -0.3962  0.6262
   65CHL1  H12A 5948   6.051   6.330   4.505 -1.0061  0.1921  0.5750
   65CHL1  H12B 5949   5.992   6.181   4.434  0.6718 -0.0605 -0.6418
   65CHL1   C11 5950   5.965   6.367   4.305  0.2832  0.4094  0.2711
   65CHL1  H11A 5951   5.948   6.475   4.325 -0.6678  0.2162  0.5651
   65CHL1  H11B 5952   6.063   6.361   4.254  0.0571  1.0867 -0.2577
   65CHL1    C9 5953   5.852   6.321   4.213  0.8381  0.4127 -0.4679
   65CHL1    H9 5954   5.862   6.212   4.197  1.4466  0.5825 -1.3406
   65CHL1   C10 5955   5.852   6.385   4.068  0.0296 -0.4494 -0.4307
   65CHL1   C19 5956   5.877   6.541   4.070 -0.4629 -0.2602 -0.1919
   65CHL1  H19A 5957   5.897   6.581   3.968  2.3038 -2.4529 -0.6537
   65CHL1  H19B 5958   5.794   6.593   4.122  0.1605 -2.1829  3.0569
   65CHL1  H19C 5959   5.971   6.554   4.129  0.6220  0.2286 -1.9506
   65CHL1    C1 5960   5.966   6.320   3.985  0.2553  0.4812 -0.3750
   65CHL1   H1A 5961   6.060   6.353   4.035  0.5071  0.5085 -0.8613
   65CHL1   H1B 5962   5.961   6.209   3.988 -2.2392  0.5008 -1.4189
   65CHL1    C2 5963   5.974   6.353   3.842 -0.5160 -0.0314 -0.8255
   65CHL1   H2A 5964   6.060   6.294   3.803  0.4108 -0.4775  1.6718
   65CHL1   H2B 5965   5.986   6.461   3.821  1.2427 -0.1680 -0.6829
   65CHL1   C20 5966   5.850   6.261   4.775  0.1827 -0.3492  0.0761
   65CHL1   H20 5967   5.828   6.365   4.806 -0.4521 -0.6376  0.6053
   65CHL1   C21 5968   6.003   6.239   4.764  0.6280 -0.4008 -0.4948
   65CHL1  H21A 5969   6.058   6.333   4.739  0.1452  0.1435  0.4368
   65CHL1  H21B 5970   6.037   6.158   4.696  1.1705 -0.6916  0.1118
   65CHL1  H21C 5971   6.032   6.219   4.869  0.3926  0.0866 -0.3343
   65CHL1   C22 5972   5.795   6.158   4.881 -0.2547 -0.4924 -0.7509
   65CHL1  H22A 5973   5.685   6.143   4.879  0.0109 -2.7409 -0.8644
   65CHL1  H22B 5974   5.846   6.064   4.852  1.9416  0.6460 -0.7976
   65CHL1   C23 5975   5.837   6.205   5.023  0.6226  0.4831 -0.2105
   65CHL1  H23A 5976   5.944   6.208   5.053  0.1740  1.4407  1.4643
   65CHL1  H23B 5977   5.794   6.307   5.038 -2.8455 -0.2778 -3.3270
   65CHL1   C24 5978   5.764   6.108   5.123  0.2460  0.3078  0.9361
   65CHL1  H24A 5979   5.655   6.128   5.128 -0.2503 -1.9649  0.1662
   65CHL1  H24B 5980   5.771   6.005   5.083 -2.3451  0.2122  0.5866
   65CHL1   C25 5981   5.807   6.114   5.270 -0.4315  0.2796  0.6831
   65CHL1   H25 5982   5.914   6.085   5.276 -0.4583  0.0235 -0.0510
   65CHL1   C26 5983   5.781   6.246   5.345  0.0472 -0.3012  0.3007
   65CHL1  H26A 5984   5.805   6.228   5.452  2.6876  1.1976  0.0297
   65CHL1  H26B 5985   5.845   6.329   5.308 -0.5649 -0.3417 -0.8822
   65CHL1  H26C 5986   5.674   6.275   5.333  0.7129  1.6692 -1.4896
   65CHL1   C27 5987   5.745   5.992   5.341 -0.2141 -0.2355 -0.7096
   65CHL1  H27A 5988   5.751   5.896   5.286  0.1586 -0.0510 -0.9958
   65CHL1  H27B 5989   5.785   5.981   5.444 -0.7867 -0.0404 -0.4635
   65CHL1  H27C 5990   5.636   6.011   5.345 -0.2593 -0.6055 -0.1138
   66CHL1    C3 5991   3.749   6.805   3.900  0.3092 -0.4708  0.1904
   66CHL1    H3 5992   3.703   6.899   3.937  0.1121  0.1468 -1.5309
   66CHL1    O3 5993   3.801   6.842   3.768 -0.1130 -0.4655 -0.2803
   66CHL1   H3' 5994   3.738   6.841   3.695  0.8821 -0.2272 -1.1721
   66CHL1    C4 5995   3.867   6.755   3.979  0.0590 -0.0729 -0.2135
   66CHL1   H4A 5996   3.918   6.674   3.920 -1.2183  0.0628 -1.5609
   66CHL1   H4B 5997   3.936   6.841   3.966 -0.2290  0.0023 -1.3736
   66CHL1    C5 5998   3.823   6.726   4.121  0.8461 -0.4333 -0.3680
   66CHL1    C6 5999   3.888   6.785   4.223  0.4496  0.1140  0.8182
   66CHL1    H6 6000   3.975   6.847   4.200  0.8420 -0.5754  0.4086
   66CHL1    C7 6001   3.850   6.769   4.366 -0.1682  0.3565 -0.3790
   66CHL1   H7A 6002   3.942   6.762   4.427 -0.1274  2.3076 -0.1289
   66CHL1   H7B 6003   3.795   6.864   4.386  0.0693  1.1847 -3.2762
   66CHL1    C8 6004   3.742   6.657   4.392 -0.3629 -0.2742  0.1959
   66CHL1    H8 6005   3.800   6.562   4.385 -0.2167 -0.0352 -2.7765
   66CHL1   C14 6006   3.679   6.657   4.527  0.3822 -0.3672 -0.2207
   66CHL1   H14 6007   3.621   6.751   4.527  1.0570  0.0525 -0.2123
   66CHL1   C15 6008   3.767   6.669   4.647  0.4637 -0.4445  0.2279
   66CHL1  H15A 6009   3.848   6.596   4.669  0.0335 -0.4789  1.8108
   66CHL1  H15B 6010   3.813   6.770   4.654 -1.4563  0.4986 -0.0707
   66CHL1   C16 6011   3.667   6.632   4.765 -0.0663  0.3759  0.3827
   66CHL1  H16A 6012   3.709   6.555   4.832 -0.6845 -1.8616 -1.6650
   66CHL1  H16B 6013   3.646   6.725   4.822 -1.1460  0.1491  0.3679
   66CHL1   C17 6014   3.528   6.595   4.708 -0.4265  0.8054 -0.8336
   66CHL1   H17 6015   3.456   6.679   4.709  0.2970  1.4353 -0.4941
   66CHL1   C13 6016   3.566   6.561   4.560  0.7773 -0.6353 -0.3617
   66CHL1   C18 6017   3.628   6.420   4.554  0.5591 -0.0919  0.2922
   66CHL1  H18A 6018   3.658   6.396   4.450 -0.4725  0.7202 -0.2136
   66CHL1  H18B 6019   3.720   6.405   4.614  2.5376  0.2402 -2.4444
   66CHL1  H18C 6020   3.548   6.348   4.580 -0.8199  1.4422  0.5087
   66CHL1   C12 6021   3.454   6.590   4.455 -0.5941  0.6792  0.3865
   66CHL1  H12A 6022   3.365   6.526   4.470 -0.9843  1.6313  2.5077
   66CHL1  H12B 6023   3.412   6.691   4.474 -4.7290 -0.8646  0.4755
   66CHL1   C11 6024   3.504   6.585   4.316  0.6362 -0.2628  0.4116
   66CHL1  H11A 6025   3.543   6.483   4.300 -0.7909 -0.8484  0.5511
   66CHL1  H11B 6026   3.430   6.600   4.234  1.5721 -2.8567 -1.0229
   66CHL1    C9 6027   3.635   6.661   4.282  0.0909 -0.1712 -0.3829
   66CHL1    H9 6028   3.605   6.768   4.287  0.5357 -0.0591  0.0111
   66CHL1   C10 6029   3.691   6.642   4.136  0.1477 -0.0859  0.2423
   66CHL1   C19 6030   3.732   6.495   4.111  0.0564  0.5286  0.2735
   66CHL1  H19A 6031   3.823   6.475   4.170  0.7264  1.7939 -0.2933
   66CHL1  H19B 6032   3.646   6.430   4.139  0.7151 -0.5376 -0.1162
   66CHL1  H19C 6033   3.754   6.478   4.003 -1.5688  1.3917 -0.2316
   66CHL1    C1 6034   3.581   6.686   4.035 -0.3106 -0.0546 -0.0013
   66CHL1   H1A 6035   3.512   6.598   4.044  0.9493 -0.9237  1.8832
   66CHL1   H1B 6036   3.537   6.780   4.076  3.1590  1.7195 -0.0417
   66CHL1    C2 6037   3.632   6.710   3.894  0.5947 -0.0180  0.0478
   66CHL1   H2A 6038   3.554   6.737   3.821  1.8411 -1.9891 -2.1595
   66CHL1   H2B 6039   3.672   6.620   3.843 -0.2236 -0.8911  0.8927
   66CHL1   C20 6040   3.466   6.478   4.794 -0.0893  0.0450  0.2180
   66CHL1   H20 6041   3.536   6.393   4.809 -2.9241 -2.7459 -1.2843
   66CHL1   C21 6042   3.349   6.416   4.725 -0.2689 -0.1632 -0.4526
   66CHL1  H21A 6043   3.266   6.489   4.714 -0.4992 -0.1935  0.9548
   66CHL1  H21B 6044   3.296   6.342   4.789  2.4343 -1.5959  0.2890
   66CHL1  H21C 6045   3.361   6.384   4.619 -1.6737 -0.4024 -0.5558
   66CHL1   C22 6046   3.440   6.525   4.942 -0.0706  0.1947 -0.8006
   66CHL1  H22A 6047   3.531   6.578   4.977  0.4331  0.3408 -2.2481
   66CHL1  H22B 6048   3.360   6.601   4.934 -1.0214 -0.5126  1.2246
   66CHL1   C23 6049   3.397   6.405   5.037  0.1739 -0.1223  0.3474
   66CHL1  H23A 6050   3.308   6.352   4.997 -0.6346  0.9269  0.6819
   66CHL1  H23B 6051   3.478   6.330   5.036  1.0103  0.7484  0.8275
   66CHL1   C24 6052   3.366   6.449   5.177 -0.4253  0.7329  0.0391
   66CHL1  H24A 6053   3.456   6.500   5.219 -0.4536 -0.6452  1.8576
   66CHL1  H24B 6054   3.276   6.514   5.171 -1.3818 -0.6472 -1.1718
   66CHL1   C25 6055   3.343   6.332   5.278 -0.4314 -0.3878  0.5335
   66CHL1   H25 6056   3.312   6.373   5.377 -1.3361  2.7605 -0.9297
   66CHL1   C26 6057   3.224   6.245   5.240 -0.5619  0.6756 -0.1708
   66CHL1  H26A 6058   3.132   6.306   5.247 -1.1732 -0.3861  1.6837
   66CHL1  H26B 6059   3.225   6.203   5.138  1.9730  0.2938 -0.0599
   66CHL1  H26C 6060   3.213   6.158   5.308 -0.6525  0.1924 -0.8004
   66CHL1   C27 6061   3.466   6.250   5.309  0.2812  0.1639 -0.2215
   66CHL1  H27A 6062   3.439   6.171   5.382 -0.7013  0.4433 -0.2718
   66CHL1  H27B 6063   3.554   6.314   5.332 -0.1248  0.8934 -0.6691
   66CHL1  H27C 6064   3.493   6.206   5.211 -0.0399  3.4449 -1.9112
   67CHL1    C3 6065   1.954   4.442   6.781  0.0821 -0.6736 -0.0301
   67CHL1    H3 6066   1.881   4.523   6.757  1.0371 -0.2924 -1.8051
   67CHL1    O3 6067   1.963   4.399   6.919 -0.3026 -0.0827  0.3095
   67CHL1   H3' 6068   2.025   4.325   6.925  0.1764  0.4325  3.4452
   67CHL1    C4 6069   1.923   4.328   6.686 -0.0487 -0.2363  0.9871
   67CHL1   H4A 6070   2.014   4.266   6.700  0.6222  0.4487 -0.1971
   67CHL1   H4B 6071   1.828   4.282   6.720 -1.0419  1.7165  1.0309
   67CHL1    C5 6072   1.918   4.360   6.537 -0.6509 -0.0576 -0.2198
   67CHL1    C6 6073   1.808   4.339   6.466  0.5497 -0.6920 -0.2104
   67CHL1    H6 6074   1.719   4.304   6.520  0.8171  2.5980  2.8062
   67CHL1    C7 6075   1.796   4.353   6.313 -0.1471 -0.0797 -0.8312
   67CHL1   H7A 6076   1.768   4.255   6.271 -1.9826  1.0149 -2.2895
   67CHL1   H7B 6077   1.705   4.415   6.299 -0.6170  0.3027  2.8009
   67CHL1    C8 6078   1.933   4.391   6.257 -0.5640  0.2134  0.2829
   67CHL1    H8 6079   1.986   4.293   6.263 -2.3334 -0.8721 -0.7884
   67CHL1   C14 6080   1.914   4.439   6.113 -0.4026  0.4310 -0.5891
   67CHL1   H14 6081   1.857   4.534   6.118 -0.3890  0.3819  0.8387
   67CHL1   C15 6082   1.837   4.347   6.017 -0.4833  0.5746  0.3374
   67CHL1  H15A 6083   1.870   4.242   6.031 -1.6139  0.0318 -0.7990
   67CHL1  H15B 6084   1.728   4.349   6.037 -0.7503  0.0071 -0.9492
   67CHL1   C16 6085   1.878   4.402   5.874  0.0907 -0.5915 -0.2888
   67CHL1  H16A 6086   1.922   4.317   5.819 -0.6902 -2.0293  1.2056
   67CHL1  H16B 6087   1.790   4.448   5.825 -0.5756 -0.8577  0.6198
   67CHL1   C17 6088   1.987   4.508   5.902 -0.3275 -0.4009 -0.2885
   67CHL1   H17 6089   1.933   4.606   5.905  0.4690  0.0425  2.5934
   67CHL1   C13 6090   2.045   4.473   6.050 -0.5245 -0.0533  0.8287
   67CHL1   C18 6091   2.143   4.356   6.035 -0.0128 -0.1889  0.0137
   67CHL1  H18A 6092   2.241   4.405   6.019  0.9556 -1.7317  0.9183
   67CHL1  H18B 6093   2.154   4.290   6.124  2.4819  0.5365  0.3103
   67CHL1  H18C 6094   2.121   4.298   5.943  0.0106  1.1344 -0.8448
   67CHL1   C12 6095   2.107   4.587   6.128  0.4092  0.3882 -0.6674
   67CHL1  H12A 6096   2.202   4.613   6.077  0.3757 -1.3978 -1.7137
   67CHL1  H12B 6097   2.029   4.667   6.125 -0.1624 -0.0288  1.4262
   67CHL1   C11 6098   2.141   4.553   6.267 -0.0039  0.3809 -0.7462
   67CHL1  H11A 6099   2.236   4.496   6.276 -0.6257 -0.9521 -2.1610
   67CHL1  H11B 6100   2.166   4.639   6.333  0.5891  2.0668 -3.0531
   67CHL1    C9 6101   2.016   4.490   6.344 -0.1068  0.3423 -0.6229
   67CHL1    H9 6102   1.946   4.575   6.359 -3.1382 -1.7174 -2.0853
   67CHL1   C10 6103   2.041   4.428   6.482 -0.3591 -0.3607 -0.7254
   67CHL1   C19 6104   2.159   4.328   6.480  0.3587 -0.1263 -0.1096
   67CHL1  H19A 6105   2.179   4.263   6.567  1.1329  0.9076  0.5143
   67CHL1  H19B 6106   2.145   4.261   6.392 -0.1959  0.2123 -0.2889
   67CHL1  H19C 6107   2.254   4.385   6.470  0.6069 -0.8364 -2.6310
   67CHL1    C1 6108   2.080   4.541   6.581 -0.4997 -0.1288 -0.2944
   67CHL1   H1A 6109   2.183   4.572   6.554 -0.0592 -0.4643  0.9294
   67CHL1   H1B 6110   2.013   4.626   6.557  0.1760  0.1890 -1.0835
   67CHL1    C2 6111   2.084   4.510   6.732  0.5474 -0.1708 -0.3736
   67CHL1   H2A 6112   2.092   4.604   6.790  0.7757  0.5791 -1.5893
   67CHL1   H2B 6113   2.169   4.444   6.761  0.6558  0.2666  0.2998
   67CHL1   C20 6114   2.082   4.510   5.780 -0.1837 -0.0253 -0.0460
   67CHL1   H20 6115   2.138   4.414   5.777 -1.0938 -0.6438  1.4448
   67CHL1   C21 6116   2.197   4.614   5.787 -1.0342 -0.5268  0.2862
   67CHL1  H21A 6117   2.274   4.581   5.715  0.5537  2.5843  0.3847
   67CHL1  H21B 6118   2.256   4.629   5.880  0.9145  0.0754 -0.9967
   67CHL1  H21C 6119   2.174   4.716   5.747 -1.3349 -0.3204  0.9639
   67CHL1   C22 6120   2.006   4.536   5.647 -0.7493 -0.3400 -0.2200
   67CHL1  H22A 6121   1.925   4.460   5.643  1.9089 -3.4584  0.3759
   67CHL1  H22B 6122   1.968   4.640   5.656  3.1606  1.1179  1.9916
   67CHL1   C23 6123   2.093   4.523   5.522  0.4431 -0.0115 -0.2188
   67CHL1  H23A 6124   2.157   4.614   5.518  1.9744 -1.0550 -0.1982
   67CHL1  H23B 6125   2.155   4.431   5.527 -0.5526 -0.7061 -0.3378
   67CHL1   C24 6126   2.009   4.523   5.388 -0.0840  0.0957  0.0236
   67CHL1  H24A 6127   1.946   4.431   5.387 -1.8818  1.2755 -0.7103
   67CHL1  H24B 6128   1.941   4.610   5.380 -1.1496 -0.7347 -0.2961
   67CHL1   C25 6129   2.100   4.525   5.258 -0.1322 -0.2165 -0.9650
   67CHL1   H25 6130   2.141   4.628   5.259  1.7954 -0.8526  2.2122
   67CHL1   C26 6131   2.216   4.424   5.260  0.4284  0.0152 -0.6566
   67CHL1  H26A 6132   2.185   4.320   5.285  2.7929 -0.3653  1.0036
   67CHL1  H26B 6133   2.259   4.408   5.159  0.3676  0.8315 -0.8188
   67CHL1  H26C 6134   2.292   4.461   5.332  0.2149 -0.6594 -0.0682
   67CHL1   C27 6135   2.008   4.512   5.134 -0.0233 -0.3077  0.3997
   67CHL1  H27A 6136   1.965   4.410   5.138  0.3748 -0.4980  0.0023
   67CHL1  H27B 6137   1.932   4.592   5.133 -0.7981 -1.0331 -0.2118
   67CHL1  H27C 6138   2.073   4.532   5.045 -0.5396 -0.1546  0.0547
   68CHL1    C3 6139   3.122   3.642   3.507 -0.2906 -0.1733 -0.2775
   68CHL1    H3 6140   3.211   3.586   3.543  0.3093  2.3396  2.5646
   68CHL1    O3 6141   3.123   3.676   3.368  0.0906 -0.2759 -0.2083
   68CHL1   H3' 6142   3.213   3.704   3.352 -0.2090 -0.0251 -1.5485
   68CHL1    C4 6143   2.989   3.579   3.553  0.2404 -0.3844  0.2950
   68CHL1   H4A 6144   2.902   3.641   3.522  0.2288 -0.0421  0.9764
   68CHL1   H4B 6145   2.985   3.481   3.502 -2.8754 -0.0166 -0.3739
   68CHL1    C5 6146   2.978   3.567   3.702 -0.5965 -0.2522  0.8572
   68CHL1    C6 6147   2.939   3.452   3.750  0.5099  0.2586  1.1070
   68CHL1    H6 6148   2.911   3.367   3.686 -1.6366  2.3081 -0.8831
   68CHL1    C7 6149   2.926   3.431   3.897  0.2674 -0.2872 -0.2426
   68CHL1   H7A 6150   2.833   3.379   3.926 -0.1899 -0.1662 -1.4311
   68CHL1   H7B 6151   3.011   3.363   3.917  1.5651  1.3126 -0.0741
   68CHL1    C8 6152   2.940   3.560   3.985 -0.8577  0.6581  0.0731
   68CHL1    H8 6153   2.837   3.601   3.983 -1.7093 -1.1188  2.5007
   68CHL1   C14 6154   2.991   3.530   4.131  0.1807  0.1813 -0.7523
   68CHL1   H14 6155   3.092   3.483   4.131  0.3563  0.5528 -1.3415
   68CHL1   C15 6156   2.925   3.403   4.189  0.6821 -0.2917  0.1536
   68CHL1  H15A 6157   2.817   3.411   4.166  0.7724  0.0407 -0.1728
   68CHL1  H15B 6158   2.969   3.308   4.152  1.8991 -0.0224  0.8406
   68CHL1   C16 6159   2.946   3.426   4.339  0.6379  0.2717 -0.0851
   68CHL1  H16A 6160   2.846   3.432   4.387 -0.6825  1.0975 -2.7596
   68CHL1  H16B 6161   3.007   3.349   4.392  2.0502  2.1718  1.1705
   68CHL1   C17 6162   3.018   3.563   4.358  0.4691  0.0762 -0.1049
   68CHL1   H17 6163   3.128   3.549   4.369  0.1388 -1.5415  1.7420
   68CHL1   C13 6164   2.979   3.645   4.231 -0.4911  0.3719  0.6918
   68CHL1   C18 6165   2.836   3.708   4.236  0.0029 -0.1521  0.1952
   68CHL1  H18A 6166   2.808   3.770   4.147 -0.5466  1.4242  1.4144
   68CHL1  H18B 6167   2.752   3.635   4.242 -0.4344  0.3749  0.6484
   68CHL1  H18C 6168   2.828   3.772   4.327  0.1020 -2.2402  1.7464
   68CHL1   C12 6169   3.087   3.745   4.177  0.3380  0.7021  0.2076
   68CHL1  H12A 6170   3.090   3.834   4.243 -0.2306 -0.1971  1.4772
   68CHL1  H12B 6171   3.185   3.696   4.194 -0.0876 -0.3515 -0.2984
   68CHL1   C11 6172   3.069   3.782   4.027 -0.2899  0.2172 -0.1661
   68CHL1  H11A 6173   2.976   3.839   4.004 -1.6208 -1.9290 -0.4326
   68CHL1  H11B 6174   3.159   3.842   4.003  1.5618 -1.7872  1.2942
   68CHL1    C9 6175   3.043   3.657   3.928 -0.0942 -0.2232 -0.5513
   68CHL1    H9 6176   3.141   3.604   3.922  0.7622  1.0250  1.3764
   68CHL1   C10 6177   3.011   3.692   3.783  0.1807 -0.2340 -0.0912
   68CHL1   C19 6178   2.884   3.781   3.774  0.3947 -0.7527  0.4895
   68CHL1  H19A 6179   2.903   3.876   3.828  2.6464 -1.6336  1.3639
   68CHL1  H19B 6180   2.867   3.815   3.670  0.2183 -2.6642 -0.1573
   68CHL1  H19C 6181   2.798   3.723   3.814  0.0144  0.4208  1.4228
   68CHL1    C1 6182   3.137   3.765   3.728 -0.2431 -0.0109  0.4539
   68CHL1   H1A 6183   3.149   3.862   3.782 -1.6694  1.0622 -1.0679
   68CHL1   H1B 6184   3.218   3.701   3.769 -2.5342 -2.1776  1.8601
   68CHL1    C2 6185   3.133   3.773   3.574 -0.0155 -0.3690 -0.3188
   68CHL1   H2A 6186   3.224   3.828   3.542  1.3777 -1.6230  1.3131
   68CHL1   H2B 6187   3.045   3.837   3.553  0.9996  1.0031 -0.5569
   68CHL1   C20 6188   2.986   3.623   4.498 -0.0103  0.3429  0.3453
   68CHL1   H20 6189   2.879   3.646   4.519  0.1848  1.5560  0.0876
   68CHL1   C21 6190   3.068   3.758   4.514 -0.1983  0.9027  0.1696
   68CHL1  H21A 6191   3.034   3.828   4.435  2.4866  2.1826  0.0169
   68CHL1  H21B 6192   3.175   3.733   4.494 -0.2939  1.3789 -1.0120
   68CHL1  H21C 6193   3.046   3.802   4.614 -3.2320 -1.8631  0.8796
   68CHL1   C22 6194   3.031   3.521   4.609  0.2156  0.4788 -0.1758
   68CHL1  H22A 6195   2.966   3.431   4.598  0.1039  0.4123  0.9071
   68CHL1  H22B 6196   3.135   3.485   4.602  0.1397  0.1330  0.3788
   68CHL1   C23 6197   3.011   3.579   4.748 -0.0600  0.2367 -1.2255
   68CHL1  H23A 6198   3.094   3.652   4.754  0.9652 -1.0055  0.4375
   68CHL1  H23B 6199   2.912   3.630   4.747 -0.2996 -0.2137 -0.9169
   68CHL1   C24 6200   3.017   3.479   4.865 -0.0510 -0.1670  0.0733
   68CHL1  H24A 6201   2.928   3.412   4.874  0.9701 -1.3505  2.2178
   68CHL1  H24B 6202   3.106   3.422   4.831  0.7010  0.7217  0.5312
   68CHL1   C25 6203   3.045   3.542   5.006 -0.7603 -0.0072 -1.3486
   68CHL1   H25 6204   2.970   3.622   5.027  0.0829  0.2532  0.9511
   68CHL1   C26 6205   3.038   3.437   5.114 -0.3320  0.5115  0.0126
   68CHL1  H26A 6206   2.945   3.377   5.104 -0.8276  1.0763  0.9877
   68CHL1  H26B 6207   3.126   3.371   5.102 -0.1297  0.7050  0.4105
   68CHL1  H26C 6208   3.053   3.487   5.212  0.5674  1.9223 -0.8132
   68CHL1   C27 6209   3.183   3.613   5.006  0.2407  0.2212  0.0656
   68CHL1  H27A 6210   3.178   3.695   4.931 -4.2611 -1.0182 -1.2848
   68CHL1  H27B 6211   3.206   3.645   5.110 -1.8501 -1.9588  1.2921
   68CHL1  H27C 6212   3.259   3.545   4.963 -0.7620 -0.7399 -0.2010
   69CHL1    C3 6213   5.085   3.061   3.709  0.0194  0.8152  0.1766
   69CHL1    H3 6214   4.989   3.097   3.750 -0.7848  0.2997 -1.1814
   69CHL1    O3 6215   5.069   3.041   3.570  0.0756 -1.0705  0.6895
   69CHL1   H3' 6216   5.017   3.115   3.539  0.5720 -0.9751  0.0665
   69CHL1    C4 6217   5.192   3.171   3.726  0.5037  0.6050 -0.6328
   69CHL1   H4A 6218   5.282   3.150   3.664  1.5470  1.6289  0.4747
   69CHL1   H4B 6219   5.151   3.267   3.688 -1.7540 -0.0528 -0.0267
   69CHL1    C5 6220   5.221   3.198   3.872  0.0956  0.1115 -0.0992
   69CHL1    C6 6221   5.210   3.320   3.922  0.1393  0.2364 -0.4576
   69CHL1    H6 6222   5.162   3.407   3.875 -3.1612 -0.7517  0.8190
   69CHL1    C7 6223   5.253   3.346   4.067  0.2236  0.3586  0.3090
   69CHL1   H7A 6224   5.318   3.435   4.053  2.6860 -1.6377 -1.8449
   69CHL1   H7B 6225   5.164   3.382   4.123  0.1726 -1.8912  1.8370
   69CHL1    C8 6226   5.330   3.232   4.136 -0.0893  0.2021  0.2565
   69CHL1    H8 6227   5.435   3.226   4.101  0.7182  2.1396  2.1073
   69CHL1   C14 6228   5.330   3.238   4.292 -0.6403  0.4982  0.8028
   69CHL1   H14 6229   5.223   3.237   4.322 -1.6893  0.6615 -2.4733
   69CHL1   C15 6230   5.388   3.365   4.359 -0.2009  0.8969 -0.0309
   69CHL1  H15A 6231   5.484   3.403   4.319  0.8475 -2.0596 -0.5529
   69CHL1  H15B 6232   5.308   3.442   4.354 -0.9883  0.0430 -1.2215
   69CHL1   C16 6233   5.431   3.325   4.502  0.0605  0.2938 -0.5264
   69CHL1  H16A 6234   5.540   3.338   4.516  0.3511  2.2056 -3.7219
   69CHL1  H16B 6235   5.380   3.389   4.578 -0.3104  0.0773 -0.5891
   69CHL1   C17 6236   5.400   3.174   4.505  0.0797  0.0440  0.1362
   69CHL1   H17 6237   5.294   3.163   4.534  0.9621  1.3849  4.7087
   69CHL1   C13 6238   5.400   3.119   4.363 -0.4633 -0.0844  0.2325
   69CHL1   C18 6239   5.551   3.098   4.314 -0.6882  0.6755 -0.2805
   69CHL1  H18A 6240   5.605   3.025   4.378 -0.3869  0.5286 -0.6966
   69CHL1  H18B 6241   5.550   3.059   4.210 -0.6012  0.4858 -0.2095
   69CHL1  H18C 6242   5.599   3.198   4.302  0.0368  0.2158 -1.3493
   69CHL1   C12 6243   5.307   2.995   4.334 -0.5843 -0.6803 -0.3924
   69CHL1  H12A 6244   5.360   2.908   4.380 -1.1701 -0.5912  0.4711
   69CHL1  H12B 6245   5.209   3.001   4.387 -0.1013 -3.1397  0.9501
   69CHL1   C11 6246   5.298   2.975   4.184 -0.3271 -0.6245 -0.2059
   69CHL1  H11A 6247   5.395   2.935   4.147 -0.4256 -0.4562 -0.6474
   69CHL1  H11B 6248   5.224   2.893   4.177 -0.9719 -0.3027  2.0116
   69CHL1    C9 6249   5.258   3.101   4.098  0.0783  0.2715  0.1897
   69CHL1    H9 6250   5.150   3.110   4.123 -0.4828  2.0255 -2.4098
   69CHL1   C10 6251   5.274   3.074   3.946 -0.5654  0.0861  0.4460
   69CHL1   C19 6252   5.420   3.041   3.904  1.2040 -0.2870 -0.1416
   69CHL1  H19A 6253   5.415   3.010   3.797 -1.3004  1.3135 -0.5728
   69CHL1  H19B 6254   5.487   3.126   3.929  1.0632  0.1458 -1.1946
   69CHL1  H19C 6255   5.458   2.955   3.962 -0.5193 -1.9269 -1.3246
   69CHL1    C1 6256   5.183   2.950   3.912 -0.0770  0.0177 -0.1480
   69CHL1   H1A 6257   5.230   2.856   3.948  1.1929  0.3061 -0.9892
   69CHL1   H1B 6258   5.089   2.951   3.971  0.0612 -0.4845  0.0798
   69CHL1    C2 6259   5.151   2.925   3.761 -0.3616 -0.6176  0.1189
   69CHL1   H2A 6260   5.090   2.832   3.750 -0.2488 -0.6072 -0.6421
   69CHL1   H2B 6261   5.246   2.922   3.704 -0.7550 -1.0312 -0.5356
   69CHL1   C20 6262   5.482   3.098   4.611 -0.4379 -0.7349 -0.4432
   69CHL1   H20 6263   5.590   3.103   4.584 -0.1525  0.9753  0.8556
   69CHL1   C21 6264   5.449   2.952   4.636 -0.0528 -0.0952 -0.0132
   69CHL1  H21A 6265   5.508   2.911   4.721  0.1684 -0.8503 -0.5211
   69CHL1  H21B 6266   5.468   2.897   4.541 -3.2140  0.7707 -1.3025
   69CHL1  H21C 6267   5.340   2.946   4.656 -0.6606  1.7780 -2.3535
   69CHL1   C22 6268   5.464   3.166   4.751 -0.6914 -0.3456 -0.3637
   69CHL1  H22A 6269   5.463   3.277   4.744  0.5317 -0.3218 -0.3803
   69CHL1  H22B 6270   5.367   3.130   4.793 -1.2145  0.9546 -0.4028
   69CHL1   C23 6271   5.569   3.140   4.860 -0.1323 -0.3532 -0.1801
   69CHL1  H23A 6272   5.556   3.033   4.890 -0.4604 -0.0235  0.9162
   69CHL1  H23B 6273   5.667   3.160   4.812  0.5621 -1.1627  0.8397
   69CHL1   C24 6274   5.554   3.232   4.989  0.0972 -0.1632 -0.1155
   69CHL1  H24A 6275   5.530   3.337   4.962 -0.2822  0.3630  2.0624
   69CHL1  H24B 6276   5.464   3.197   5.044 -0.9726 -0.8393 -2.1722
   69CHL1   C25 6277   5.674   3.232   5.082 -0.3092 -0.4527 -0.4008
   69CHL1   H25 6278   5.768   3.273   5.039 -1.3181  1.4688 -0.8885
   69CHL1   C26 6279   5.632   3.309   5.204  0.4730  0.2365 -0.3339
   69CHL1  H26A 6280   5.599   3.411   5.174  1.1720  0.5024 -0.2021
   69CHL1  H26B 6281   5.557   3.258   5.268  0.6873 -1.3349 -1.2679
   69CHL1  H26C 6282   5.724   3.310   5.266 -0.8636  2.2880  1.7796
   69CHL1   C27 6283   5.705   3.082   5.119 -0.3959 -0.1211  0.0449
   69CHL1  H27A 6284   5.614   3.036   5.163 -0.9496  0.3515 -0.5763
   69CHL1  H27B 6285   5.737   3.020   5.032 -0.1493 -1.6242  1.1713
   69CHL1  H27C 6286   5.788   3.075   5.192  0.1703 -2.2191 -0.7214
   70CHL1    C3 6287   0.242   0.358   3.780  0.6245  0.0634  0.1076
   70CHL1    H3 6288   0.329   0.426   3.795  1.3297 -0.8896  0.4553
   70CHL1    O3 6289   0.209   0.353   3.645 -0.0685  0.2543  0.0498
   70CHL1   H3' 6290   0.283   0.307   3.605  0.5534  1.3099 -0.0455
   70CHL1    C4 6291   0.282   0.211   3.832  0.0923 -0.6428  0.2668
   70CHL1   H4A 6292   0.196   0.146   3.804  0.2973 -0.4473 -0.8575
   70CHL1   H4B 6293   0.366   0.177   3.768  0.5190  1.7792 -0.6054
   70CHL1    C5 6294   0.303   0.209   3.978  0.2511 -0.5698  0.3331
   70CHL1    C6 6295   0.418   0.171   4.026  0.0889  0.1282 -0.8879
   70CHL1    H6 6296   0.497   0.141   3.956  0.5485  1.1039 -0.8129
   70CHL1    C7 6297   0.443   0.154   4.175  0.5217  0.8031  0.0272
   70CHL1   H7A 6298   0.481   0.051   4.196 -2.3739 -0.2192  0.7955
   70CHL1   H7B 6299   0.519   0.222   4.217  1.1393  0.5022 -0.5800
   70CHL1    C8 6300   0.313   0.173   4.257 -0.1160  0.4506  0.3854
   70CHL1    H8 6301   0.241   0.089   4.248 -1.6229  1.5724  1.4243
   70CHL1   C14 6302   0.338   0.185   4.407 -0.1651 -0.2005 -0.2355
   70CHL1   H14 6303   0.416   0.264   4.417 -0.9732  0.6847 -0.7101
   70CHL1   C15 6304   0.406   0.063   4.480 -0.3868 -0.4571  0.5811
   70CHL1  H15A 6305   0.344  -0.029   4.477 -0.2958 -0.4936 -1.4241
   70CHL1  H15B 6306   0.506   0.054   4.432 -0.7919 -1.0040 -0.1970
   70CHL1   C16 6307   0.401   0.108   4.627  0.3038 -0.2727  0.3133
   70CHL1  H16A 6308   0.365   0.017   4.678  1.0913 -1.6021 -1.3883
   70CHL1  H16B 6309   0.500   0.151   4.655  0.4128  0.2877 -0.8848
   70CHL1   C17 6310   0.292   0.222   4.638  0.8840  0.2625 -0.2040
   70CHL1   H17 6311   0.357   0.311   4.647  0.5351  0.3188  2.5992
   70CHL1   C13 6312   0.218   0.221   4.493  0.1049  0.2816 -0.1617
   70CHL1   C18 6313   0.105   0.119   4.490 -0.3078  0.5610 -0.3506
   70CHL1  H18A 6314   0.142   0.020   4.526 -1.1508  0.3999  0.0945
   70CHL1  H18B 6315   0.016   0.150   4.549  0.2023  1.5676 -0.0967
   70CHL1  H18C 6316   0.063   0.114   4.387  0.7627  0.9174 -0.8187
   70CHL1   C12 6317   0.160   0.358   4.452  0.0289 -0.1628 -0.7445
   70CHL1  H12A 6318   0.069   0.383   4.511 -0.5695 -2.2969 -0.6821
   70CHL1  H12B 6319   0.239   0.436   4.463 -0.3107 -0.0948  2.4209
   70CHL1   C11 6320   0.126   0.351   4.302  0.8555 -0.1570 -0.1522
   70CHL1  H11A 6321   0.033   0.291   4.294  0.4794  0.6689 -3.2448
   70CHL1  H11B 6322   0.096   0.455   4.276  2.1500  0.0502 -0.9384
   70CHL1    C9 6323   0.233   0.299   4.212 -0.4327  0.5210  0.8692
   70CHL1    H9 6324   0.296   0.390   4.203 -0.0014  0.0746 -1.1504
   70CHL1   C10 6325   0.195   0.268   4.062  0.5990 -0.8045  0.1728
   70CHL1   C19 6326   0.076   0.157   4.055  0.3191 -0.5726  0.4132
   70CHL1  H19A 6327   0.110   0.052   4.069  2.5938  0.0375 -0.0847
   70CHL1  H19B 6328  -0.001   0.169   4.134 -0.9243  1.3609 -0.9814
   70CHL1  H19C 6329   0.022   0.167   3.958  3.2498  1.0046 -1.1940
   70CHL1    C1 6330   0.149   0.402   4.002  0.0693  0.2843 -0.7998
   70CHL1   H1A 6331   0.060   0.432   4.061  0.6574  1.8764 -0.6857
   70CHL1   H1B 6332   0.231   0.474   4.020  2.4865 -2.6351  0.8924
   70CHL1    C2 6333   0.114   0.407   3.856  0.5973  0.2147 -0.2090
   70CHL1   H2A 6334   0.084   0.509   3.825 -1.6709 -0.5020 -0.5722
   70CHL1   H2B 6335   0.032   0.336   3.830  3.3416 -4.1390  1.8601
   70CHL1   C20 6336   0.200   0.207   4.767 -0.2269 -0.1124  0.7903
   70CHL1   H20 6337   0.126   0.125   4.754  0.3230 -1.0532  3.1607
   70CHL1   C21 6338   0.113   0.330   4.796 -0.2114  0.1668  0.0208
   70CHL1  H21A 6339   0.042   0.327   4.882 -0.6715  0.2810 -0.3524
   70CHL1  H21B 6340   0.061   0.374   4.708  1.3113  1.6196 -0.2007
   70CHL1  H21C 6341   0.185   0.411   4.821  1.9658 -1.0690 -1.9800
   70CHL1   C22 6342   0.281   0.175   4.895  0.2438  1.0778  0.6862
   70CHL1  H22A 6343   0.320   0.075   4.867 -0.1845  1.4497 -1.4252
   70CHL1  H22B 6344   0.364   0.248   4.904 -0.6700  2.0344  1.6419
   70CHL1   C23 6345   0.213   0.159   5.033  0.7367 -0.5800  0.0013
   70CHL1  H23A 6346   0.172   0.256   5.069 -1.6508 -1.4414 -0.2248
   70CHL1  H23B 6347   0.130   0.086   5.019  0.2184  0.0070 -0.0514
   70CHL1   C24 6348   0.309   0.098   5.136  0.3323 -0.3229  0.4637
   70CHL1  H24A 6349   0.350  -0.004   5.116 -0.6343 -0.8024  0.8402
   70CHL1  H24B 6350   0.393   0.167   5.157  1.7437 -1.6259 -0.6767
   70CHL1   C25 6351   0.241   0.081   5.279 -0.7238 -0.0900  0.1080
   70CHL1   H25 6352   0.324   0.047   5.343  2.0189  3.2757 -1.3326
   70CHL1   C26 6353   0.195   0.217   5.346  0.4821  0.0159  0.6356
   70CHL1  H26A 6354   0.274   0.295   5.355  1.4543 -0.7995 -0.5414
   70CHL1  H26B 6355   0.111   0.269   5.294 -0.0003 -1.9939 -0.6933
   70CHL1  H26C 6356   0.163   0.191   5.449  0.9448 -1.0933  0.5099
   70CHL1   C27 6357   0.126  -0.020   5.262 -0.5356 -1.0383  0.0135
   70CHL1  H27A 6358   0.036   0.036   5.232  0.0686 -1.0333 -1.9315
   70CHL1  H27B 6359   0.153  -0.100   5.189 -1.0641  0.3043 -1.7191
   70CHL1  H27C 6360   0.107  -0.065   5.362 -0.0955 -1.2071  0.0252
   71CHL1    C3 6361   5.656   5.148   4.088 -0.0491 -0.2036 -0.3499
   71CHL1    H3 6362   5.689   5.244   4.131 -0.7855 -0.0551 -0.0994
   71CHL1    O3 6363   5.677   5.145   3.949 -0.2823 -0.3128 -0.1676
   71CHL1   H3' 6364   5.634   5.065   3.918 -3.4483  1.4008 -0.6320
   71CHL1    C4 6365   5.732   5.034   4.158  0.2253 -0.1043 -0.0910
   71CHL1   H4A 6366   5.689   4.937   4.123 -2.1298 -0.2282  2.7511
   71CHL1   H4B 6367   5.841   5.040   4.136  0.1275 -0.7291 -0.7574
   71CHL1    C5 6368   5.715   5.025   4.306  0.2980 -0.2242  0.2500
   71CHL1    C6 6369   5.818   5.026   4.389 -0.2279  0.2839  0.4260
   71CHL1    H6 6370   5.916   5.020   4.340 -0.7579  2.7259 -1.0714
   71CHL1    C7 6371   5.800   5.032   4.539  0.3217 -0.1183  0.3374
   71CHL1   H7A 6372   5.878   4.976   4.595  1.1293  1.0566  0.4256
   71CHL1   H7B 6373   5.814   5.136   4.574  0.3030 -0.4178  1.2389
   71CHL1    C8 6374   5.659   4.997   4.593 -0.5855  0.7352  0.3163
   71CHL1    H8 6375   5.648   4.887   4.582  0.3540  0.6517  0.1949
   71CHL1   C14 6376   5.638   5.031   4.736  0.4537  0.3079 -0.0542
   71CHL1   H14 6377   5.634   5.142   4.741 -1.9511  0.4759 -2.8280
   71CHL1   C15 6378   5.737   4.990   4.844  0.7040  0.0946  0.6303
   71CHL1  H15A 6379   5.748   4.880   4.832 -0.7342 -0.4836  3.7039
   71CHL1  H15B 6380   5.830   5.049   4.829 -0.1905  1.1456 -1.1604
   71CHL1   C16 6381   5.663   5.004   4.980  0.2382  0.0100  0.3322
   71CHL1  H16A 6382   5.663   4.906   5.033  2.1074  0.3698  1.0840
   71CHL1  H16B 6383   5.712   5.071   5.054 -2.0904 -0.8052  2.7909
   71CHL1   C17 6384   5.511   5.043   4.953  0.1269  0.2465  0.8855
   71CHL1   H17 6385   5.502   5.154   4.955 -1.0810  0.2314 -1.1821
   71CHL1   C13 6386   5.502   4.996   4.798  0.2801 -0.0470 -0.6842
   71CHL1   C18 6387   5.476   4.840   4.788 -0.2516  0.1999  0.4921
   71CHL1  H18A 6388   5.374   4.835   4.832 -0.5059 -1.7731 -0.2492
   71CHL1  H18B 6389   5.481   4.796   4.686  0.2813  0.3674  0.4445
   71CHL1  H18C 6390   5.543   4.783   4.855 -0.7800 -0.2216  0.6654
   71CHL1   C12 6391   5.392   5.073   4.716 -0.4672  0.7872  0.8786
   71CHL1  H12A 6392   5.291   5.033   4.736 -1.4624  1.1367 -2.7098
   71CHL1  H12B 6393   5.399   5.183   4.734  0.1360  0.9091 -0.0051
   71CHL1   C11 6394   5.410   5.050   4.566 -0.4349 -0.2518 -0.5461
   71CHL1  H11A 6395   5.366   4.949   4.550 -2.7287  0.1393  2.5357
   71CHL1  H11B 6396   5.348   5.127   4.517 -0.0924  1.7642  2.0087
   71CHL1    C9 6397   5.554   5.069   4.508 -0.8777  0.9356  0.0205
   71CHL1    H9 6398   5.574   5.177   4.523  2.2980  0.4273  0.3189
   71CHL1   C10 6399   5.569   5.040   4.355 -0.6493  0.3433 -0.7456
   71CHL1   C19 6400   5.498   4.905   4.334 -0.3381  0.0728 -0.0734
   71CHL1  H19A 6401   5.536   4.855   4.242 -0.7388  1.4158 -1.0017
   71CHL1  H19B 6402   5.545   4.831   4.403  1.4359  0.5598 -0.7019
   71CHL1  H19C 6403   5.387   4.902   4.344 -0.4672 -0.7097 -1.5181
   71CHL1    C1 6404   5.497   5.150   4.272 -0.4966  0.9443 -0.1147
   71CHL1   H1A 6405   5.391   5.143   4.303 -0.6678  0.8527 -0.7000
   71CHL1   H1B 6406   5.524   5.253   4.304 -0.5153  1.6012 -2.0583
   71CHL1    C2 6407   5.508   5.135   4.127 -0.0056  0.1300 -0.1812
   71CHL1   H2A 6408   5.451   5.209   4.067  1.1336  0.6664 -0.6268
   71CHL1   H2B 6409   5.460   5.038   4.100  0.9270 -0.5675  0.5799
   71CHL1   C20 6410   5.413   4.980   5.051  0.2076 -0.4055 -0.4836
   71CHL1   H20 6411   5.413   4.870   5.041  1.0337 -0.5203  0.5853
   71CHL1   C21 6412   5.270   5.032   5.029  0.0961 -0.4048  0.4828
   71CHL1  H21A 6413   5.268   5.143   5.029 -1.4560 -0.4089  0.6285
   71CHL1  H21B 6414   5.202   4.997   5.110 -0.7275  0.3759  0.1488
   71CHL1  H21C 6415   5.233   4.991   4.933 -0.4972  0.7575  0.1893
   71CHL1   C22 6416   5.457   5.009   5.200  0.1968 -0.1032 -0.4725
   71CHL1  H22A 6417   5.388   4.953   5.266  1.4939 -1.9207 -0.5809
   71CHL1  H22B 6418   5.558   4.967   5.221 -0.2499 -0.2685  1.5191
   71CHL1   C23 6419   5.463   5.157   5.238  0.0153  0.4925  0.3382
   71CHL1  H23A 6420   5.545   5.207   5.182  0.7149 -0.1770  0.7399
   71CHL1  H23B 6421   5.366   5.202   5.207 -0.0597 -1.2771 -2.3140
   71CHL1   C24 6422   5.492   5.172   5.390 -0.0356 -0.1255 -0.1531
   71CHL1  H24A 6423   5.408   5.123   5.444  1.2577 -0.5177  1.5939
   71CHL1  H24B 6424   5.582   5.113   5.419  0.2460  1.0721  1.5421
   71CHL1   C25 6425   5.530   5.309   5.434 -0.6028  0.2238  0.4901
   71CHL1   H25 6426   5.469   5.388   5.386  0.2804  1.8283  1.8860
   71CHL1   C26 6427   5.511   5.324   5.583  0.4609 -0.5644 -0.0137
   71CHL1  H26A 6428   5.581   5.260   5.641  1.6724  0.6879 -0.0561
   71CHL1  H26B 6429   5.536   5.428   5.612  1.0611 -0.5681 -0.5115
   71CHL1  H26C 6430   5.405   5.309   5.614  0.0960 -0.5998 -1.2233
   71CHL1   C27 6431   5.667   5.350   5.385  0.2360  0.3041 -0.2239
   71CHL1  H27A 6432   5.711   5.442   5.430  2.2164  0.1500 -1.7055
   71CHL1  H27B 6433   5.732   5.271   5.428 -0.3369  0.6737  1.3925
   71CHL1  H27C 6434   5.664   5.358   5.274 -1.3334  0.2038 -0.2165
   72CHL1    C3 6435   5.506   0.815   3.876 -0.1851  0.6767  0.1983
   72CHL1    H3 6436   5.606   0.831   3.922  1.2182 -1.4506 -1.8918
   72CHL1    O3 6437   5.527   0.759   3.746  0.1929 -0.3253  0.3560
   72CHL1   H3' 6438   5.461   0.797   3.689  1.8689 -0.8406 -2.0703
   72CHL1    C4 6439   5.423   0.708   3.958 -0.1384 -0.3825 -0.6652
   72CHL1   H4A 6440   5.323   0.694   3.912 -1.7690  0.2962  2.4375
   72CHL1   H4B 6441   5.480   0.613   3.947  0.3087  0.0773 -2.9249
   72CHL1    C5 6442   5.385   0.755   4.101  0.3515 -0.7040  1.3941
   72CHL1    C6 6443   5.432   0.692   4.208 -0.1185 -0.3720 -0.0600
   72CHL1    H6 6444   5.492   0.600   4.202  1.0576  0.3537  0.1388
   72CHL1    C7 6445   5.402   0.740   4.349  0.1318 -0.0782 -0.3759
   72CHL1   H7A 6446   5.369   0.654   4.411  2.8382  0.1072  1.4981
   72CHL1   H7B 6447   5.488   0.773   4.411 -0.2433  1.1833 -0.5058
   72CHL1    C8 6448   5.300   0.858   4.348 -0.3060 -0.4640 -0.3244
   72CHL1    H8 6449   5.203   0.807   4.329  0.0858 -1.0810 -0.6883
   72CHL1   C14 6450   5.301   0.931   4.484 -0.4834 -0.8764  0.3137
   72CHL1   H14 6451   5.402   0.977   4.482 -0.9952  0.2720 -0.7709
   72CHL1   C15 6452   5.283   0.843   4.615 -0.4062 -0.7542  0.1356
   72CHL1  H15A 6453   5.191   0.786   4.587 -1.5220  1.3296 -0.6473
   72CHL1  H15B 6454   5.370   0.779   4.641 -0.2311 -0.2216  0.9023
   72CHL1   C16 6455   5.255   0.951   4.722  0.7899  0.5543 -0.3105
   72CHL1  H16A 6456   5.159   0.914   4.764  1.4355 -0.9513 -0.1245
   72CHL1  H16B 6457   5.331   0.952   4.803  0.4440  0.2987  0.0211
   72CHL1   C17 6458   5.235   1.086   4.652  0.2147  0.6268  0.6651
   72CHL1   H17 6459   5.335   1.133   4.659  0.7345 -0.6836  5.0420
   72CHL1   C13 6460   5.203   1.050   4.498 -0.5456 -0.1295  0.3153
   72CHL1   C18 6461   5.059   1.009   4.487 -0.4362  0.0311 -0.0880
   72CHL1  H18A 6462   4.987   1.094   4.487  0.9852  1.2838 -0.6136
   72CHL1  H18B 6463   5.047   0.963   4.387 -1.4801  1.2471 -0.5479
   72CHL1  H18C 6464   5.033   0.941   4.571  0.6165 -0.6360 -0.2796
   72CHL1   C12 6465   5.233   1.149   4.392  0.7335 -0.3563  0.2276
   72CHL1  H12A 6466   5.166   1.236   4.404 -2.4442 -2.3717 -1.4889
   72CHL1  H12B 6467   5.337   1.182   4.413  1.0316 -1.1220 -0.0096
   72CHL1   C11 6468   5.221   1.086   4.258  0.3696 -0.4374 -0.4335
   72CHL1  H11A 6469   5.117   1.058   4.231  0.5023  0.0845 -1.5342
   72CHL1  H11B 6470   5.243   1.166   4.184 -0.2628 -0.5432 -0.7438
   72CHL1    C9 6471   5.318   0.958   4.238  0.9974  0.0816  0.1374
   72CHL1    H9 6472   5.412   1.011   4.265 -0.4088  2.1385  1.3027
   72CHL1   C10 6473   5.314   0.895   4.099 -0.1793 -0.2680 -0.0002
   72CHL1   C19 6474   5.167   0.859   4.066  0.6199 -0.1454 -0.0776
   72CHL1  H19A 6475   5.163   0.811   3.967  0.3416 -2.2563  0.9089
   72CHL1  H19B 6476   5.118   0.788   4.136 -0.9283 -0.5107 -1.4654
   72CHL1  H19C 6477   5.110   0.954   4.058  1.2079  0.0492 -2.9915
   72CHL1    C1 6478   5.375   0.999   4.000 -0.2238  0.5189  0.8440
   72CHL1   H1A 6479   5.306   1.084   3.982 -1.8706 -0.8852  0.2722
   72CHL1   H1B 6480   5.462   1.025   4.064  1.7248 -3.8750  0.3512
   72CHL1    C2 6481   5.426   0.952   3.865 -0.6314  0.3100 -0.2193
   72CHL1   H2A 6482   5.492   1.026   3.814  0.5189  0.6092  1.6379
   72CHL1   H2B 6483   5.332   0.934   3.808 -0.6282 -1.4910  0.2780
   72CHL1   C20 6484   5.132   1.179   4.720 -0.0101  0.1420  0.6427
   72CHL1   H20 6485   5.027   1.144   4.713 -0.2876  0.8320  1.2500
   72CHL1   C21 6486   5.147   1.314   4.669  0.3070  0.4534 -0.2528
   72CHL1  H21A 6487   5.101   1.315   4.567  0.7230 -5.2001 -0.8213
   72CHL1  H21B 6488   5.255   1.336   4.660  0.3798  0.0380 -0.4310
   72CHL1  H21C 6489   5.101   1.384   4.742 -0.4311  2.1363 -2.2001
   72CHL1   C22 6490   5.162   1.183   4.873 -0.5254  0.3202  0.3995
   72CHL1  H22A 6491   5.137   1.088   4.925 -0.1940  0.5833  1.0526
   72CHL1  H22B 6492   5.269   1.214   4.877 -0.6372  1.3761 -2.5378
   72CHL1   C23 6493   5.080   1.280   4.967 -0.5550  0.8932  0.4847
   72CHL1  H23A 6494   5.137   1.375   4.963 -0.1354  0.6000 -1.5036
   72CHL1  H23B 6495   4.979   1.297   4.927 -0.6993 -0.7038  0.0880
   72CHL1   C24 6496   5.091   1.221   5.105 -0.2798 -0.6458 -0.0241
   72CHL1  H24A 6497   5.062   1.114   5.111 -1.5526 -0.2913  0.5850
   72CHL1  H24B 6498   5.191   1.229   5.153  0.1453 -1.5798 -0.7261
   72CHL1   C25 6499   4.998   1.294   5.206  0.0541 -0.1182 -0.7422
   72CHL1   H25 6500   5.005   1.246   5.306 -1.4303 -0.7860 -0.9407
   72CHL1   C26 6501   5.034   1.442   5.217 -0.0335  0.2349  0.5866
   72CHL1  H26A 6502   4.992   1.500   5.301 -0.2808  1.9633 -0.6794
   72CHL1  H26B 6503   5.143   1.460   5.231  0.7553 -2.5120 -1.1212
   72CHL1  H26C 6504   4.994   1.487   5.124 -1.1201 -0.9803  0.4368
   72CHL1   C27 6505   4.852   1.274   5.169  0.1273  0.1835 -0.6872
   72CHL1  H27A 6506   4.815   1.323   5.076 -0.2670  1.5785  0.1819
   72CHL1  H27B 6507   4.842   1.165   5.148  0.7776 -0.0551  0.2044
   72CHL1  H27C 6508   4.783   1.295   5.254  0.1542 -1.5781 -0.1927
   73CHL1    C3 6509   6.886   3.576   3.361 -0.5162  0.4195 -0.5532
   73CHL1    H3 6510   6.936   3.478   3.380 -1.5134 -0.2526 -1.2743
   73CHL1    O3 6511   6.870   3.571   3.219 -0.2352 -0.1901 -0.2981
   73CHL1   H3' 6512   6.905   3.656   3.191 -0.1482 -0.3785 -0.7763
   73CHL1    C4 6513   6.746   3.595   3.427 -0.7056 -0.1827 -0.1693
   73CHL1   H4A 6514   6.699   3.688   3.387 -1.0016  0.4285  1.5159
   73CHL1   H4B 6515   6.674   3.511   3.415  1.7291 -2.3685 -0.2526
   73CHL1    C5 6516   6.754   3.606   3.577  0.1673 -0.0424  0.2140
   73CHL1    C6 6517   6.665   3.542   3.652  0.1641 -0.4831  0.6733
   73CHL1    H6 6518   6.588   3.479   3.604 -1.1903  0.5596  1.3948
   73CHL1    C7 6519   6.661   3.543   3.802 -0.1985 -0.3555  0.5960
   73CHL1   H7A 6520   6.555   3.557   3.833 -0.6797  2.8742 -1.9094
   73CHL1   H7B 6521   6.699   3.443   3.833  0.1915 -0.6352 -0.7241
   73CHL1    C8 6522   6.758   3.654   3.859 -0.0061 -1.3551 -0.2361
   73CHL1    H8 6523   6.704   3.751   3.852  2.6845  0.4476  1.7778
   73CHL1   C14 6524   6.796   3.626   4.013  0.1028 -0.0920 -0.0336
   73CHL1   H14 6525   6.825   3.519   4.007 -1.2716 -0.3994 -1.8238
   73CHL1   C15 6526   6.679   3.620   4.120 -0.0992  0.4988  0.5510
   73CHL1  H15A 6527   6.619   3.711   4.103 -2.3573 -0.9508  0.2597
   73CHL1  H15B 6528   6.612   3.534   4.098  3.1772 -1.4128 -3.5532
   73CHL1   C16 6529   6.754   3.610   4.251 -0.4318  0.2397 -0.1263
   73CHL1  H16A 6530   6.709   3.676   4.327 -0.1016  1.7522 -1.1939
   73CHL1  H16B 6531   6.787   3.511   4.290 -0.5111 -0.1393 -0.9952
   73CHL1   C17 6532   6.897   3.667   4.223 -0.5991 -0.6451  0.2544
   73CHL1   H17 6533   6.959   3.575   4.226  1.3582  0.6230  0.8980
   73CHL1   C13 6534   6.893   3.718   4.080  0.0863  1.2859  0.2650
   73CHL1   C18 6535   6.834   3.858   4.081  0.1501 -0.1291 -0.5427
   73CHL1  H18A 6536   6.811   3.890   3.977  1.3261  0.8920 -0.5132
   73CHL1  H18B 6537   6.747   3.871   4.148  0.8977  0.3797  0.3619
   73CHL1  H18C 6538   6.912   3.928   4.118 -0.7829 -0.5351  2.4252
   73CHL1   C12 6539   7.024   3.721   4.001 -0.1738  0.2118  0.7691
   73CHL1  H12A 6540   7.092   3.800   4.042  2.2524 -0.7088 -1.2120
   73CHL1  H12B 6541   7.072   3.624   4.023  0.0559 -0.2897 -1.6267
   73CHL1   C11 6542   7.008   3.743   3.851  0.2417 -0.4954  0.2831
   73CHL1  H11A 6543   7.000   3.853   3.837  0.6170 -0.4604  0.3359
   73CHL1  H11B 6544   7.100   3.703   3.803 -1.3331 -2.7259 -1.1096
   73CHL1    C9 6545   6.892   3.660   3.781  0.3164  0.7808  0.0798
   73CHL1    H9 6546   6.930   3.556   3.789  0.7846  1.0160  1.2331
   73CHL1   C10 6547   6.867   3.695   3.631 -0.2542 -0.0013  0.1942
   73CHL1   C19 6548   6.819   3.838   3.612 -0.0825  0.5877 -0.3983
   73CHL1  H19A 6549   6.729   3.860   3.672  0.0628  3.0245 -0.9628
   73CHL1  H19B 6550   6.894   3.912   3.649 -2.4755  2.0891  1.7693
   73CHL1  H19C 6551   6.794   3.865   3.507  0.5209 -3.3733 -1.7365
   73CHL1    C1 6552   7.004   3.670   3.555  0.1284 -0.5037  0.1773
   73CHL1   H1A 6553   7.076   3.747   3.590  0.8802 -2.5962  3.6578
   73CHL1   H1B 6554   7.040   3.570   3.586 -0.6308  0.0769  3.3246
   73CHL1    C2 6555   6.984   3.685   3.405  0.5956 -0.3869  0.2677
   73CHL1   H2A 6556   7.086   3.670   3.363  1.4014  1.8387  1.2552
   73CHL1   H2B 6557   6.956   3.788   3.374  2.3045 -0.2906 -1.0868
   73CHL1   C20 6558   6.956   3.759   4.336  0.3814 -0.5797  0.2306
   73CHL1   H20 6559   6.898   3.855   4.333 -0.6166 -1.1531 -2.8763
   73CHL1   C21 6560   7.101   3.798   4.317 -0.0180 -0.0267  0.7671
   73CHL1  H21A 6561   7.122   3.894   4.266  1.3167  0.3102  1.8823
   73CHL1  H21B 6562   7.158   3.710   4.279 -0.9413 -1.2375  2.0757
   73CHL1  H21C 6563   7.133   3.824   4.420  1.4941 -0.2000  0.3687
   73CHL1   C22 6564   6.928   3.712   4.490  0.7412 -0.4175  0.3081
   73CHL1  H22A 6565   6.944   3.792   4.566 -1.6327 -0.7198  1.1984
   73CHL1  H22B 6566   6.818   3.694   4.491  0.6672 -0.0296  2.1248
   73CHL1   C23 6567   7.003   3.587   4.538 -0.6210  0.3443 -0.5682
   73CHL1  H23A 6568   7.004   3.507   4.460  0.4968 -0.0792 -0.1409
   73CHL1  H23B 6569   7.106   3.620   4.563 -1.1795  0.9302  1.1032
   73CHL1   C24 6570   6.954   3.530   4.670  0.6041 -0.1632  0.8659
   73CHL1  H24A 6571   6.849   3.498   4.655  0.6982 -1.0239  1.9330
   73CHL1  H24B 6572   7.012   3.441   4.704  1.7081  0.4705  0.7042
   73CHL1   C25 6573   6.957   3.618   4.794 -0.2320 -0.0303  0.4003
   73CHL1   H25 6574   6.886   3.704   4.784 -1.6334 -1.1897  0.0979
   73CHL1   C26 6575   6.910   3.538   4.910 -0.4058 -0.5085 -0.4720
   73CHL1  H26A 6576   6.872   3.598   4.995 -0.7647 -3.4388  1.5642
   73CHL1  H26B 6577   6.827   3.478   4.868  1.3292 -1.2610 -3.1342
   73CHL1  H26C 6578   6.996   3.473   4.937  1.6230  3.2411  3.2156
   73CHL1   C27 6579   7.101   3.669   4.830 -0.2345 -0.4137 -0.3249
   73CHL1  H27A 6580   7.087   3.731   4.921 -0.2779 -0.3869 -0.3494
   73CHL1  H27B 6581   7.169   3.582   4.843 -0.7095 -1.2613 -2.8506
   73CHL1  H27C 6582   7.131   3.731   4.743 -0.8970  0.4084  0.0168
   74CHL1    C3 6583   6.396   2.265   3.864  0.5498 -0.3145 -0.7597
   74CHL1    H3 6584   6.439   2.366   3.880  0.7127 -0.5522  0.4295
   74CHL1    O3 6585   6.412   2.228   3.729 -0.9145 -0.1804 -0.1145
   74CHL1   H3' 6586   6.397   2.312   3.686 -2.3714  1.1900  2.7525
   74CHL1    C4 6587   6.454   2.163   3.962 -0.7416 -0.2896 -0.2825
   74CHL1   H4A 6588   6.398   2.070   3.939 -2.0276  0.1449  0.9284
   74CHL1   H4B 6589   6.557   2.139   3.928 -0.4656  0.9370 -0.3685
   74CHL1    C5 6590   6.431   2.202   4.109 -0.0409  0.0642  0.7616
   74CHL1    C6 6591   6.529   2.223   4.202  0.9571 -0.1948 -0.2112
   74CHL1    H6 6592   6.631   2.207   4.164  0.4697  1.2771 -2.3454
   74CHL1    C7 6593   6.493   2.253   4.345 -0.0556 -0.5844 -0.4001
   74CHL1   H7A 6594   6.570   2.201   4.407  0.1826  1.0194  0.6905
   74CHL1   H7B 6595   6.505   2.362   4.360  0.3394 -0.8906  1.7726
   74CHL1    C8 6596   6.347   2.219   4.386 -0.4975  0.6279 -0.6465
   74CHL1    H8 6597   6.337   2.109   4.402 -0.8418  0.8267  0.5814
   74CHL1   C14 6598   6.323   2.289   4.520  0.1565 -0.1992 -0.1322
   74CHL1   H14 6599   6.330   2.397   4.496  0.3621 -0.2786 -0.4525
   74CHL1   C15 6600   6.415   2.267   4.638  0.1194  0.3278  0.3660
   74CHL1  H15A 6601   6.445   2.160   4.640  0.6589  0.4840  1.5132
   74CHL1  H15B 6602   6.499   2.340   4.642  0.1119  0.3351  0.3866
   74CHL1   C16 6603   6.333   2.289   4.772  0.7920 -0.6911 -0.1538
   74CHL1  H16A 6604   6.315   2.184   4.804 -1.0130 -0.5484 -0.6361
   74CHL1  H16B 6605   6.364   2.360   4.852  0.5256 -1.3926  0.5921
   74CHL1   C17 6606   6.201   2.338   4.712 -0.4916 -0.5992 -0.0337
   74CHL1   H17 6607   6.226   2.444   4.692  0.0713 -0.7705 -0.2569
   74CHL1   C13 6608   6.184   2.274   4.576  0.3303 -0.7235 -0.0854
   74CHL1   C18 6609   6.139   2.128   4.594  0.8641 -0.4661  0.0019
   74CHL1  H18A 6610   6.155   2.067   4.502  0.2193 -1.7440  0.7059
   74CHL1  H18B 6611   6.208   2.079   4.666  0.7293  1.0340  1.2049
   74CHL1  H18C 6612   6.037   2.110   4.635  0.3588  0.2904 -0.8825
   74CHL1   C12 6613   6.084   2.348   4.476  0.0005 -0.0922  0.6824
   74CHL1  H12A 6614   5.978   2.325   4.503  0.1658 -4.3625 -1.3925
   74CHL1  H12B 6615   6.110   2.456   4.478  3.5388 -0.8250 -0.3481
   74CHL1   C11 6616   6.110   2.297   4.329  0.5237 -0.1661 -0.0697
   74CHL1  H11A 6617   6.060   2.199   4.329 -1.8094  0.9635  0.5699
   74CHL1  H11B 6618   6.062   2.376   4.266  1.6584 -0.6596 -1.6184
   74CHL1    C9 6619   6.256   2.281   4.282  0.0324 -0.0662  0.1924
   74CHL1    H9 6620   6.286   2.386   4.264 -1.5023  0.2504 -0.6876
   74CHL1   C10 6621   6.278   2.218   4.134  0.2381 -0.2180 -0.8656
   74CHL1   C19 6622   6.210   2.081   4.138 -0.2742 -0.4258 -1.2445
   74CHL1  H19A 6623   6.195   2.027   4.042  2.3135 -0.4459 -1.7238
   74CHL1  H19B 6624   6.260   2.017   4.214  1.0628  0.2502 -1.5166
   74CHL1  H19C 6625   6.109   2.100   4.180  0.1835  3.3320 -1.4905
   74CHL1    C1 6626   6.215   2.309   4.031  0.2303 -0.0275  0.1565
   74CHL1   H1A 6627   6.105   2.308   4.045  0.0731  2.9114 -0.3842
   74CHL1   H1B 6628   6.266   2.407   4.037  1.8512 -0.5676 -2.9463
   74CHL1    C2 6629   6.245   2.266   3.888  0.2221 -0.3945  0.0165
   74CHL1   H2A 6630   6.200   2.343   3.823 -0.4490  1.5716  2.6187
   74CHL1   H2B 6631   6.199   2.166   3.875 -1.4102  0.5757 -2.1494
   74CHL1   C20 6632   6.080   2.334   4.806 -0.2499 -0.1980 -1.0383
   74CHL1   H20 6633   5.982   2.319   4.756 -0.5848  0.3204 -0.5546
   74CHL1   C21 6634   6.077   2.465   4.885 -0.4596  0.1049 -0.7818
   74CHL1  H21A 6635   6.103   2.553   4.823  1.5628  0.4283  0.4468
   74CHL1  H21B 6636   6.146   2.469   4.972 -2.2421  0.7043  0.6803
   74CHL1  H21C 6637   5.975   2.484   4.925  0.2540  2.1078  0.2270
   74CHL1   C22 6638   6.072   2.216   4.905 -0.8745  0.7902  0.0058
   74CHL1  H22A 6639   6.076   2.122   4.845 -1.2257 -1.0111  2.6392
   74CHL1  H22B 6640   6.155   2.214   4.979 -2.0274  0.5308  1.3390
   74CHL1   C23 6641   5.932   2.205   4.972  0.3944  0.8514 -0.1260
   74CHL1  H23A 6642   5.922   2.298   5.031  1.2356  0.2526  0.9981
   74CHL1  H23B 6643   5.864   2.210   4.884 -0.2014  1.0142  0.3410
   74CHL1   C24 6644   5.917   2.077   5.057 -0.2128 -0.3807  0.3060
   74CHL1  H24A 6645   5.907   1.989   4.989 -1.9988 -0.6702  0.8736
   74CHL1  H24B 6646   6.007   2.071   5.122 -1.0537 -2.7451  1.3909
   74CHL1   C25 6647   5.800   2.076   5.153 -0.6217 -0.7923  0.1595
   74CHL1   H25 6648   5.796   2.178   5.196 -1.6855 -0.0965 -1.5337
   74CHL1   C26 6649   5.677   2.054   5.080  0.3218 -0.2082 -0.0695
   74CHL1  H26A 6650   5.647   2.128   5.002  1.5288  0.6441  0.2460
   74CHL1  H26B 6651   5.677   1.955   5.030 -0.5574 -0.7636  0.9905
   74CHL1  H26C 6652   5.596   2.048   5.154 -0.8705 -1.3273 -1.4099
   74CHL1   C27 6653   5.806   1.966   5.266  0.0817 -0.0588 -0.3499
   74CHL1  H27A 6654   5.890   1.982   5.337  0.8697 -2.5952 -0.6076
   74CHL1  H27B 6655   5.717   1.981   5.331  1.2205 -1.8386  1.7583
   74CHL1  H27C 6656   5.801   1.862   5.227 -1.2615 -0.3793  0.5910
   75CHL1    C3 6657   6.857   2.235   3.851  0.4999 -0.3173 -0.5421
   75CHL1    H3 6658   6.747   2.238   3.847  0.3204 -3.2692 -0.3591
   75CHL1    O3 6659   6.903   2.250   3.725 -0.4379 -0.1931  0.6335
   75CHL1   H3' 6660   6.842   2.205   3.667 -1.3248 -0.8965  2.0558
   75CHL1    C4 6661   6.909   2.359   3.930 -0.2487 -0.2102 -0.0086
   75CHL1   H4A 6662   7.012   2.390   3.900 -1.0453  2.2207 -0.4942
   75CHL1   H4B 6663   6.846   2.443   3.894 -0.2812 -0.2006  0.0719
   75CHL1    C5 6664   6.895   2.348   4.080 -0.7456  0.0247  0.3831
   75CHL1    C6 6665   6.832   2.441   4.150  0.5131  0.2849 -1.0099
   75CHL1    H6 6666   6.781   2.527   4.103 -0.7382  0.3428  0.3745
   75CHL1    C7 6667   6.804   2.432   4.301  0.4821 -0.6780  0.8246
   75CHL1   H7A 6668   6.828   2.531   4.345 -1.4306 -0.3018  1.0908
   75CHL1   H7B 6669   6.705   2.390   4.327  1.0118 -3.6681 -1.4020
   75CHL1    C8 6670   6.901   2.335   4.370  0.3024  1.1488 -0.0246
   75CHL1    H8 6671   7.001   2.382   4.366  1.3651 -0.3075  4.1705
   75CHL1   C14 6672   6.853   2.303   4.509 -0.1018 -0.1839  0.6343
   75CHL1   H14 6673   6.760   2.243   4.501 -1.1380  1.2928  1.2137
   75CHL1   C15 6674   6.806   2.410   4.604  0.1328 -0.5829 -0.7372
   75CHL1  H15A 6675   6.879   2.493   4.585  0.6338 -0.5981  1.0063
   75CHL1  H15B 6676   6.702   2.445   4.591 -1.1760 -3.8291  0.1928
   75CHL1   C16 6677   6.828   2.366   4.744  0.2813  0.5168 -1.0335
   75CHL1  H16A 6678   6.894   2.433   4.802 -1.6938  1.0061  0.7769
   75CHL1  H16B 6679   6.727   2.371   4.790  0.4826 -1.5207 -0.2645
   75CHL1   C17 6680   6.875   2.221   4.732 -0.5197 -0.4550  0.1533
   75CHL1   H17 6681   6.786   2.157   4.712  0.7861 -1.4661 -3.2419
   75CHL1   C13 6682   6.954   2.217   4.591 -0.0924 -0.5963  0.2722
   75CHL1   C18 6683   7.092   2.296   4.602 -0.0296 -0.2559  0.2849
   75CHL1  H18A 6684   7.170   2.244   4.662  0.7999  1.1644  0.4793
   75CHL1  H18B 6685   7.137   2.317   4.503 -0.1088  1.8286  0.6345
   75CHL1  H18C 6686   7.071   2.393   4.652 -0.2811  0.8843 -1.9243
   75CHL1   C12 6687   6.969   2.084   4.520  0.7131 -0.5828 -0.3572
   75CHL1  H12A 6688   7.050   2.019   4.560  0.8337  0.1490  0.6313
   75CHL1  H12B 6689   6.874   2.027   4.518  0.0047  0.4029  1.7307
   75CHL1   C11 6690   7.014   2.107   4.376 -0.3879  0.0299 -0.0563
   75CHL1  H11A 6691   7.116   2.150   4.373 -0.6388  0.5994 -1.8257
   75CHL1  H11B 6692   7.017   2.005   4.332  0.2105 -0.2187  0.5385
   75CHL1    C9 6693   6.917   2.198   4.292  0.0243  0.5591 -0.3387
   75CHL1    H9 6694   6.818   2.149   4.302  0.9706 -0.9223  3.3052
   75CHL1   C10 6695   6.947   2.218   4.138  0.2285  0.5027  0.0142
   75CHL1   C19 6696   7.096   2.219   4.129 -0.0052  0.5966 -0.0462
   75CHL1  H19A 6697   7.119   2.240   4.022 -3.3081  0.8816 -0.8071
   75CHL1  H19B 6698   7.132   2.311   4.180  0.9261 -0.6147  1.5672
   75CHL1  H19C 6699   7.153   2.128   4.156 -1.6257 -0.9994 -1.6875
   75CHL1    C1 6700   6.892   2.090   4.064 -0.4078  0.1276  0.5847
   75CHL1   H1A 6701   6.946   2.002   4.105  0.5444  0.4849  0.1344
   75CHL1   H1B 6702   6.782   2.085   4.081 -1.1434  0.8138 -3.1391
   75CHL1    C2 6703   6.909   2.105   3.912 -0.4428 -0.4475  0.5504
   75CHL1   H2A 6704   6.853   2.022   3.863 -1.1972 -1.3168  2.7824
   75CHL1   H2B 6705   7.016   2.101   3.884 -0.7491  1.5531 -1.1202
   75CHL1   C20 6706   6.960   2.184   4.860 -0.2101  0.7760 -0.2526
   75CHL1   H20 6707   7.067   2.213   4.849  1.2760 -3.5874  0.7838
   75CHL1   C21 6708   6.975   2.028   4.857 -0.5727  0.1694 -0.1550
   75CHL1  H21A 6709   7.038   2.007   4.768  0.6261  1.1059  0.4542
   75CHL1  H21B 6710   6.885   1.962   4.861 -0.4191 -0.0687 -0.6227
   75CHL1  H21C 6711   7.043   1.984   4.934 -0.5806  0.1837 -0.1398
   75CHL1   C22 6712   6.920   2.236   4.996  0.5565 -0.3032 -0.3772
   75CHL1  H22A 6713   6.924   2.347   5.001 -3.9741  0.0465  0.0092
   75CHL1  H22B 6714   6.810   2.220   4.997  0.8487 -2.5219 -0.0489
   75CHL1   C23 6715   6.998   2.179   5.111  0.1424  0.0776  0.3951
   75CHL1  H23A 6716   6.952   2.221   5.203  1.4010 -0.4486  1.2916
   75CHL1  H23B 6717   6.987   2.069   5.119  3.5508 -0.2156  4.0306
   75CHL1   C24 6718   7.145   2.206   5.100 -0.2878 -0.2851  0.0950
   75CHL1  H24A 6719   7.192   2.143   5.022 -0.0705  0.4976 -0.4234
   75CHL1  H24B 6720   7.159   2.306   5.054  0.9543 -0.2111  0.5850
   75CHL1   C25 6721   7.217   2.209   5.233 -0.9814 -0.0358  0.1177
   75CHL1   H25 6722   7.320   2.235   5.202 -1.1293 -0.4841 -0.7735
   75CHL1   C26 6723   7.159   2.298   5.343 -0.0399 -0.0130  0.8806
   75CHL1  H26A 6724   7.224   2.307   5.432  0.9615 -0.6870  0.2315
   75CHL1  H26B 6725   7.141   2.397   5.295  3.1092 -0.3527 -1.2665
   75CHL1  H26C 6726   7.071   2.250   5.392  0.5662 -2.5242 -0.3197
   75CHL1   C27 6727   7.233   2.062   5.281 -0.7965 -0.2756 -0.2998
   75CHL1  H27A 6728   7.294   2.008   5.206 -0.4394 -1.4276  0.7803
   75CHL1  H27B 6729   7.275   2.059   5.384  2.2775 -1.5704 -1.4657
   75CHL1  H27C 6730   7.135   2.010   5.286 -0.6371 -0.5035  0.8407
   76CHL1    C3 6731   6.015   2.835   3.865  0.3174  0.3449  0.1099
   76CHL1    H3 6732   6.116   2.790   3.876  1.2639  2.4427  0.4436
   76CHL1    O3 6733   5.968   2.823   3.734  0.3450 -0.5080  0.7656
   76CHL1   H3' 6734   6.002   2.741   3.697  0.7055  0.8911 -2.4067
   76CHL1    C4 6735   5.923   2.767   3.959 -0.7181  0.2559  0.6551
   76CHL1   H4A 6736   5.829   2.820   3.935 -0.5680  0.0489 -0.4414
   76CHL1   H4B 6737   5.907   2.659   3.940  1.1524  0.1134 -0.3155
   76CHL1    C5 6738   5.949   2.790   4.109  0.1399  0.3124  0.3441
   76CHL1    C6 6739   5.965   2.680   4.186 -1.3371 -0.2908 -0.2691
   76CHL1    H6 6740   5.942   2.578   4.153 -1.0023 -0.2436 -0.6487
   76CHL1    C7 6741   6.002   2.692   4.332  0.1380 -0.1203  0.7032
   76CHL1   H7A 6742   5.940   2.619   4.388 -1.4170 -1.0049 -1.9777
   76CHL1   H7B 6743   6.110   2.665   4.339  0.4930  0.9095 -0.3674
   76CHL1    C8 6744   5.978   2.841   4.387  0.2378  0.0966 -0.0135
   76CHL1    H8 6745   5.868   2.844   4.400  0.4288 -0.6907  2.0521
   76CHL1   C14 6746   6.052   2.845   4.519 -0.4536  0.5594  0.2111
   76CHL1   H14 6747   6.160   2.838   4.493  0.2183  1.1668  2.5897
   76CHL1   C15 6748   6.033   2.740   4.625  0.0074 -0.2629 -1.0634
   76CHL1  H15A 6749   5.930   2.697   4.623  0.4378 -1.3014 -1.9526
   76CHL1  H15B 6750   6.099   2.652   4.605  1.3413  0.3372  0.4944
   76CHL1   C16 6751   6.068   2.815   4.757  0.1269  0.1101 -0.1352
   76CHL1  H16A 6752   5.985   2.805   4.830  0.7544 -1.9081  0.3549
   76CHL1  H16B 6753   6.156   2.767   4.805  1.0731  2.9502  1.2013
   76CHL1   C17 6754   6.113   2.956   4.725  0.1184 -0.5631 -0.1912
   76CHL1   H17 6755   6.223   2.953   4.711  0.2495 -0.2945  0.6660
   76CHL1   C13 6756   6.036   2.984   4.591 -0.6985  0.3473  0.3228
   76CHL1   C18 6757   5.886   3.015   4.617  0.0309 -0.2512 -0.0224
   76CHL1  H18A 6758   5.854   2.943   4.695  1.1295  1.6574  2.2892
   76CHL1  H18B 6759   5.875   3.108   4.676  1.9990 -0.8759  1.4011
   76CHL1  H18C 6760   5.810   3.001   4.536 -0.7746 -2.1079  0.9956
   76CHL1   C12 6761   6.090   3.089   4.491 -0.1799 -0.3901  0.1594
   76CHL1  H12A 6762   6.076   3.192   4.530  1.7623 -0.3784  0.9257
   76CHL1  H12B 6763   6.199   3.074   4.473 -0.1543 -0.5062  0.3969
   76CHL1   C11 6764   6.031   3.080   4.353  0.5494 -0.1893 -0.7711
   76CHL1  H11A 6765   5.929   3.124   4.355  0.7157  0.2414 -1.4076
   76CHL1  H11B 6766   6.100   3.142   4.292  3.2869 -2.4562 -0.2007
   76CHL1    C9 6767   6.032   2.940   4.292 -0.9442 -1.1359  0.2529
   76CHL1    H9 6768   6.141   2.916   4.294 -0.5412  0.4995  2.6218
   76CHL1   C10 6769   5.982   2.934   4.153  0.9765 -0.9634  0.9711
   76CHL1   C19 6770   5.843   3.004   4.137 -0.4114 -0.3288 -0.0088
   76CHL1  H19A 6771   5.776   2.966   4.218 -0.2876  1.4606  0.9864
   76CHL1  H19B 6772   5.854   3.114   4.145 -3.8462  0.1988 -0.9934
   76CHL1  H19C 6773   5.797   2.994   4.037 -0.6860  3.6203 -0.4510
   76CHL1    C1 6774   6.089   2.992   4.048 -0.1613 -0.0302  0.0725
   76CHL1   H1A 6775   6.120   3.096   4.069  0.2403  0.3625 -2.2154
   76CHL1   H1B 6776   6.177   2.926   4.057 -0.0781  0.1998  1.1736
   76CHL1    C2 6777   6.039   2.977   3.911  0.8358 -0.5712  0.3291
   76CHL1   H2A 6778   6.106   3.032   3.840  0.1839  0.3573  0.4222
   76CHL1   H2B 6779   5.945   3.033   3.891  0.9414  0.4130  2.3153
   76CHL1   C20 6780   6.099   3.061   4.841 -0.1404 -0.1420 -0.1340
   76CHL1   H20 6781   5.990   3.067   4.862 -0.0660  0.4740  0.0922
   76CHL1   C21 6782   6.140   3.203   4.800  0.5835 -0.5062  0.1953
   76CHL1  H21A 6783   6.234   3.203   4.741  1.8533 -2.0267  2.0943
   76CHL1  H21B 6784   6.167   3.271   4.884  2.7124 -2.8679  1.5649
   76CHL1  H21C 6785   6.056   3.242   4.739 -1.0722 -0.7546  2.2064
   76CHL1   C22 6786   6.182   3.017   4.968 -0.4196 -0.3175 -0.5161
   76CHL1  H22A 6787   6.187   2.907   4.981 -1.0967 -0.9502 -4.3289
   76CHL1  H22B 6788   6.286   3.054   4.956 -1.6749  3.0403 -2.9562
   76CHL1   C23 6789   6.118   3.075   5.091  0.1643 -0.2349 -0.4511
   76CHL1  H23A 6790   6.110   3.186   5.096  0.1248 -0.2320 -0.5859
   76CHL1  H23B 6791   6.018   3.028   5.080  0.9947 -1.9916 -0.8005
   76CHL1   C24 6792   6.187   3.027   5.227 -0.4421 -0.6498  0.6708
   76CHL1  H24A 6793   6.152   2.923   5.246 -0.0606 -1.0976 -0.9335
   76CHL1  H24B 6794   6.296   3.035   5.208 -0.7537  1.3893 -0.5855
   76CHL1   C25 6795   6.151   3.115   5.347  0.0602 -0.2230 -0.0394
   76CHL1   H25 6796   6.040   3.109   5.342  0.0638  0.4849 -1.5794
   76CHL1   C26 6797   6.206   3.054   5.473  0.0525  1.1228 -0.2848
   76CHL1  H26A 6798   6.202   2.943   5.475 -0.2967  1.0532 -2.6115
   76CHL1  H26B 6799   6.311   3.089   5.482  0.4252 -0.0480  0.0363
   76CHL1  H26C 6800   6.144   3.093   5.558 -1.0640 -0.6869 -0.2140
   76CHL1   C27 6801   6.208   3.254   5.320 -0.7178 -0.2455 -0.2207
   76CHL1  H27A 6802   6.287   3.250   5.242 -0.8973 -1.5869 -0.3488
   76CHL1  H27B 6803   6.127   3.320   5.280 -0.7415 -2.0072 -3.3983
   76CHL1  H27C 6804   6.250   3.296   5.414 -0.0306 -0.2846 -0.5023
   77SOPE     N 6805   1.947   1.496   7.540  0.0062 -0.6882  0.2181
   77SOPE   HN1 6806   1.878   1.549   7.484 -0.3073 -1.6080 -0.3001
   77SOPE   HN2 6807   1.899   1.458   7.624 -2.6623 -0.0983 -0.9266
   77SOPE   HN3 6808   2.025   1.560   7.562  0.6657 -1.4700  0.2222
   77SOPE   C12 6809   2.005   1.392   7.446 -0.1224 -0.1391  0.2015
   77SOPE  H12A 6810   2.084   1.334   7.498  0.2897 -1.1935 -1.4977
   77SOPE  H12B 6811   2.060   1.445   7.365  0.3319 -0.9933 -0.0572
   77SOPE   C11 6812   1.899   1.296   7.385 -0.3852  0.4145  0.1637
   77SOPE  H11A 6813   1.952   1.210   7.339 -0.3856 -0.9296  2.5131
   77SOPE  H11B 6814   1.843   1.360   7.313 -2.6517  0.2324  1.6860
   77SOPE     P 6815   1.668   1.192   7.462 -0.4901 -0.1746  0.0255
   77SOPE   O13 6816   1.571   1.280   7.538  0.0641 -0.4093 -0.0576
   77SOPE   O14 6817   1.670   1.049   7.484 -0.0706  0.0265 -0.3179
   77SOPE   O12 6818   1.812   1.248   7.484  0.4338 -0.0970 -0.8095
   77SOPE   O11 6819   1.635   1.229   7.305 -0.1786 -0.1049 -0.5573
   77SOPE    C1 6820   1.515   1.229   7.239  0.8352  0.1539  1.1042
   77SOPE    HA 6821   1.467   1.329   7.248 -2.4220 -1.1938  0.2395
   77SOPE    HB 6822   1.446   1.153   7.281 -0.0080  1.6543  2.5726
   77SOPE    C2 6823   1.533   1.203   7.090  0.0170 -0.5173  0.2623
   77SOPE    HS 6824   1.441   1.231   7.034 -0.5373  0.2530  1.5279
   77SOPE   O21 6825   1.588   1.076   7.065 -0.0812  0.4306  0.4811
   77SOPE   C21 6826   1.504   0.974   7.056 -0.0929 -0.3478  0.3656
   77SOPE   O22 6827   1.384   0.985   7.046  0.3679 -0.3196 -0.1694
   77SOPE   C22 6828   1.582   0.835   7.057 -0.2477 -0.6020  0.1740
   77SOPE   H2R 6829   1.648   0.852   7.145 -0.3440  1.2893 -0.0721
   77SOPE   H2S 6830   1.640   0.835   6.962 -0.8427 -0.1381 -0.1995
   77SOPE    C3 6831   1.641   1.297   7.039 -0.6284  0.3697 -0.0212
   77SOPE    HX 6832   1.740   1.268   7.081 -0.7126 -0.6751 -0.5245
   77SOPE    HY 6833   1.617   1.398   7.078 -0.1417  0.1001  1.0113
   77SOPE   O31 6834   1.652   1.288   6.896  0.8342 -0.1358  0.4160
   77SOPE   C31 6835   1.734   1.381   6.842  0.1619 -0.5620  0.6485
   77SOPE   O32 6836   1.798   1.468   6.897  0.1869  0.0992 -0.0861
   77SOPE   C32 6837   1.734   1.359   6.687 -0.2522  0.4564  0.2943
   77SOPE   H2X 6838   1.629   1.340   6.657  0.5603 -3.1201 -0.7417
   77SOPE   H2Y 6839   1.785   1.263   6.664  1.7685  1.4856  0.2366
   77SOPE   C23 6840   1.496   0.710   7.080  1.3621 -0.2173  0.3285
   77SOPE   H3R 6841   1.412   0.729   7.151  0.9559  1.4527 -0.5551
   77SOPE   H3S 6842   1.559   0.632   7.128  1.2481 -0.7508 -0.3595
   77SOPE   C24 6843   1.436   0.646   6.951 -0.7688 -0.4189  0.2891
   77SOPE   H4R 6844   1.370   0.561   6.980 -0.3622 -0.8894 -0.1604
   77SOPE   H4S 6845   1.358   0.715   6.911  1.3166 -0.2119 -3.9709
   77SOPE   C25 6846   1.537   0.596   6.847  0.5612 -0.0240 -0.5565
   77SOPE   H5R 6847   1.595   0.683   6.810  1.0897  0.8559  2.0769
   77SOPE   H5S 6848   1.607   0.520   6.888  0.9743  0.1495 -0.9318
   77SOPE   C26 6849   1.483   0.517   6.730  0.1797  0.0775  1.0626
   77SOPE   H6R 6850   1.557   0.497   6.649 -0.7660 -2.0443  0.6612
   77SOPE   H6S 6851   1.444   0.421   6.770  1.5944 -1.2749 -0.6126
   77SOPE   C27 6852   1.369   0.597   6.667 -0.5763  0.3863  0.7334
   77SOPE   H7R 6853   1.278   0.593   6.731  0.8857 -1.1486  2.8382
   77SOPE   H7S 6854   1.408   0.701   6.662  1.2642 -0.1016  3.1002
   77SOPE   C28 6855   1.321   0.543   6.528  0.4622  0.1945  0.8099
   77SOPE   H8R 6856   1.293   0.439   6.555  1.8416 -0.1299  1.0713
   77SOPE   H8S 6857   1.229   0.598   6.501 -0.1658 -0.4536  1.5944
   77SOPE   C29 6858   1.424   0.549   6.415 -0.1364  0.0824  0.7097
   77SOPE   H91 6859   1.503   0.477   6.439 -1.4190 -0.9036  2.2243
   77SOPE  C210 6860   1.418   0.601   6.288 -0.1266  0.7074  0.5821
   77SOPE  H101 6861   1.506   0.593   6.223 -0.7288 -0.6340 -0.1111
   77SOPE  C211 6862   1.307   0.670   6.222 -0.3374  0.0697  0.4322
   77SOPE  H11R 6863   1.334   0.778   6.223  0.5456 -0.1089 -1.3684
   77SOPE  H11S 6864   1.219   0.654   6.288 -0.3445  0.6229  0.5634
   77SOPE  C212 6865   1.259   0.608   6.094  0.3055  0.2359  0.3334
   77SOPE  H12R 6866   1.254   0.497   6.096  1.0194  0.2070  0.7606
   77SOPE  H12S 6867   1.321   0.645   6.009 -0.1057  0.2259  0.0237
   77SOPE  C213 6868   1.112   0.651   6.071  0.0655 -0.7470 -0.6176
   77SOPE  H13R 6869   1.104   0.757   6.104  4.6883 -0.6290  0.7835
   77SOPE  H13S 6870   1.041   0.593   6.134 -0.1728  0.4031  0.1976
   77SOPE  C214 6871   1.076   0.632   5.921 -0.1421  0.3865 -0.0532
   77SOPE  H14R 6872   1.108   0.529   5.892 -2.4831 -0.2176 -0.7062
   77SOPE  H14S 6873   1.126   0.713   5.863  0.8810 -0.2309 -0.0670
   77SOPE  C215 6874   0.924   0.653   5.880 -0.4875  0.4196  0.0916
   77SOPE  H15R 6875   0.899   0.760   5.862  2.1610  0.6639 -3.0972
   77SOPE  H15S 6876   0.857   0.599   5.951 -0.3758  1.0728  0.7082
   77SOPE  C216 6877   0.899   0.580   5.744 -0.4428  0.3888  0.1551
   77SOPE  H16R 6878   0.889   0.470   5.755  0.2184  0.2304 -0.7049
   77SOPE  H16S 6879   0.984   0.588   5.673 -0.7665 -2.1661 -0.6247
   77SOPE  C217 6880   0.756   0.620   5.689 -0.2275 -0.4119  0.2940
   77SOPE  H17R 6881   0.776   0.726   5.663  0.1741 -0.8694 -1.3554
   77SOPE  H17S 6882   0.673   0.601   5.760  0.7742 -2.4404  1.0339
   77SOPE  C218 6883   0.731   0.540   5.554 -0.0171  0.7625  0.0890
   77SOPE  H18R 6884   0.650   0.600   5.509  1.3945  4.5110  2.0745
   77SOPE  H18S 6885   0.702   0.434   5.572  1.0630  0.0136 -2.2359
   77SOPE  H18T 6886   0.823   0.533   5.491  1.0363  1.4449  1.4911
   77SOPE   C33 6887   1.800   1.477   6.607  0.5787 -0.2677 -0.4066
   77SOPE   H3X 6888   1.903   1.497   6.645  0.0018  0.5431  0.7834
   77SOPE   H3Y 6889   1.740   1.568   6.628 -0.1340 -0.7703 -0.2402
   77SOPE   C34 6890   1.796   1.466   6.459 -0.1410 -0.1302 -0.0160
   77SOPE   H4X 6891   1.799   1.357   6.438 -2.1921 -0.2608  0.1320
   77SOPE   H4Y 6892   1.886   1.496   6.402 -0.1762 -1.2679 -0.7182
   77SOPE   C35 6893   1.663   1.501   6.398  0.4690 -0.0932  0.5034
   77SOPE   H5X 6894   1.655   1.612   6.398  0.1316 -0.1157  0.6872
   77SOPE   H5Y 6895   1.580   1.455   6.456 -0.6616  1.3133  0.0410
   77SOPE   C36 6896   1.629   1.463   6.254  0.2580 -0.2308  0.5786
   77SOPE   H6X 6897   1.624   1.353   6.258  2.2304 -0.3181  1.9588
   77SOPE   H6Y 6898   1.713   1.499   6.190 -1.4075  1.8939 -0.5676
   77SOPE   C37 6899   1.496   1.522   6.189  0.6964  0.4673  0.5875
   77SOPE   H7X 6900   1.494   1.633   6.191  1.1962  0.5190 -1.0135
   77SOPE   H7Y 6901   1.415   1.475   6.250 -2.9205  2.0962 -2.5429
   77SOPE   C38 6902   1.457   1.474   6.048 -0.4691 -1.1583  0.0321
   77SOPE   H8X 6903   1.401   1.378   6.046  0.1094 -1.5071 -1.8497
   77SOPE   H8Y 6904   1.552   1.441   6.002  0.1966  1.1231 -0.3419
   77SOPE   C39 6905   1.397   1.591   5.975  0.4906 -0.0116  1.3694
   77SOPE   H9X 6906   1.464   1.680   5.977 -2.2881  2.3451 -0.7417
   77SOPE   H9Y 6907   1.293   1.608   6.011  0.4635  1.7221  0.6078
   77SOPE  C310 6908   1.399   1.567   5.821 -0.4977 -0.4336 -0.4380
   77SOPE  H10X 6909   1.365   1.465   5.790  2.1933 -0.8919 -2.1286
   77SOPE  H10Y 6910   1.499   1.569   5.773 -1.0524  0.7169 -1.5925
   77SOPE  C311 6911   1.316   1.663   5.741  0.1208 -0.4604 -0.1998
   77SOPE  H11X 6912   1.333   1.623   5.639  0.5630  2.3957 -1.3148
   77SOPE  H11Y 6913   1.368   1.758   5.764 -1.7636  0.1655  1.8658
   77SOPE  C312 6914   1.163   1.666   5.770 -0.2298 -0.3536  0.2723
   77SOPE  H12X 6915   1.110   1.729   5.695 -0.7123 -1.3823 -0.2639
   77SOPE  H12Y 6916   1.147   1.721   5.866 -0.1551  1.0804 -0.5076
   77SOPE  C313 6917   1.095   1.532   5.789  0.2265  0.8041  0.7946
   77SOPE  H13X 6918   1.004   1.556   5.847 -0.1328  1.2720  0.0449
   77SOPE  H13Y 6919   1.154   1.470   5.860 -1.0746  1.2690  2.3412
   77SOPE  C314 6920   1.059   1.450   5.662 -0.2509 -0.4787 -0.4538
   77SOPE  H14X 6921   1.141   1.394   5.612  0.0974 -0.5050  0.1338
   77SOPE  H14Y 6922   1.015   1.506   5.577 -1.6957 -2.1922 -0.8974
   77SOPE  C315 6923   0.951   1.352   5.687 -0.2130  0.2660  0.0750
   77SOPE  H15X 6924   0.862   1.415   5.711  0.8001  1.8337 -0.1501
   77SOPE  H15Y 6925   0.985   1.294   5.774  2.5433  0.8182 -0.5383
   77SOPE  C316 6926   0.931   1.259   5.570 -0.5574  0.4776  0.4217
   77SOPE  H16X 6927   1.035   1.231   5.540 -0.1011  0.3562  2.0454
   77SOPE  H16Y 6928   0.892   1.320   5.486  0.3726 -0.7920 -0.9975
   77SOPE  C317 6929   0.835   1.148   5.598 -0.1665  0.2737  0.6145
   77SOPE  H17X 6930   0.772   1.122   5.511 -0.1550  2.3923 -0.0895
   77SOPE  H17Y 6931   0.765   1.177   5.680 -1.2820  0.0082 -0.2141
   77SOPE  C318 6932   0.900   1.014   5.650  0.5749 -0.6263  0.0099
   77SOPE  H18X 6933   0.820   0.940   5.673 -2.7443  2.7137  0.2016
   77SOPE  H18Y 6934   0.963   1.044   5.735  0.0318  2.1312 -0.4612
   77SOPE  H18Z 6935   0.966   0.973   5.571  2.1811 -0.7993  1.3853
   78SOPE     N 6936   1.244   5.752   8.108  0.7707 -0.5154 -0.0119
   78SOPE   HN1 6937   1.346   5.746   8.089  0.8597 -1.1245  0.6243
   78SOPE   HN2 6938   1.226   5.782   8.206  2.0534 -2.9638  1.0549
   78SOPE   HN3 6939   1.206   5.656   8.102 -2.0905  0.5187 -0.2205
   78SOPE   C12 6940   1.173   5.840   8.004  0.6522 -0.3694  0.2692
   78SOPE  H12A 6941   1.227   5.937   8.002 -3.6227  2.2798  0.7816
   78SOPE  H12B 6942   1.077   5.869   8.052  1.1589 -0.9144  1.6521
   78SOPE   C11 6943   1.167   5.760   7.872 -0.3281  0.3007 -0.0214
   78SOPE  H11A 6944   1.101   5.800   7.792  0.8065  0.9958 -0.6352
   78SOPE  H11B 6945   1.111   5.668   7.900  0.8236 -0.9208 -1.6063
   78SOPE     P 6946   1.359   5.801   7.707  0.1487 -0.0250  0.0192
   78SOPE   O13 6947   1.493   5.746   7.674  0.0218  0.3826  0.0090
   78SOPE   O14 6948   1.352   5.947   7.723 -0.2377  0.1981  0.1622
   78SOPE   O12 6949   1.299   5.728   7.833  0.6784 -0.6005 -0.0869
   78SOPE   O11 6950   1.258   5.762   7.596  0.0804  0.1063 -0.0908
   78SOPE    C1 6951   1.252   5.629   7.543 -0.4749  0.3059 -0.9265
   78SOPE    HA 6952   1.181   5.572   7.607  0.3687  0.9863  0.6901
   78SOPE    HB 6953   1.350   5.576   7.544 -1.1193 -0.9198 -0.8530
   78SOPE    C2 6954   1.197   5.627   7.397  0.9051 -0.3508 -0.3379
   78SOPE    HS 6955   1.190   5.521   7.366  1.7107 -0.5144  0.0160
   78SOPE   O21 6956   1.282   5.701   7.310  0.0735  0.1191  0.1641
   78SOPE   C21 6957   1.276   5.677   7.183 -0.0283 -0.1611  0.1672
   78SOPE   O22 6958   1.231   5.576   7.129  0.0294 -0.1097 -0.4330
   78SOPE   C22 6959   1.342   5.795   7.110  0.7228 -0.3602 -0.3848
   78SOPE   H2R 6960   1.407   5.845   7.185 -0.4219 -2.0648  1.8989
   78SOPE   H2S 6961   1.248   5.852   7.092 -0.7689 -3.0214 -1.5893
   78SOPE    C3 6962   1.054   5.691   7.403 -0.9015  0.2254 -0.2672
   78SOPE    HX 6963   1.062   5.789   7.454  0.0949  0.6206 -1.1496
   78SOPE    HY 6964   0.985   5.644   7.476 -0.6958 -0.4907 -0.5284
   78SOPE   O31 6965   0.992   5.709   7.277 -0.0485 -0.3801 -0.0545
   78SOPE   C31 6966   0.939   5.589   7.234 -0.3577 -0.1668 -0.2107
   78SOPE   O32 6967   0.956   5.481   7.284 -0.3710  0.3465 -0.2664
   78SOPE   C32 6968   0.858   5.615   7.107 -0.5677 -0.7944 -0.2817
   78SOPE   H2X 6969   0.868   5.722   7.080  1.9253 -0.2395  2.3567
   78SOPE   H2Y 6970   0.751   5.592   7.125 -0.6404 -1.7292 -1.7255
   78SOPE   C23 6971   1.402   5.764   6.977 -0.0244 -0.1560 -0.2134
   78SOPE   H3R 6972   1.335   5.707   6.910  1.2422  1.1442 -2.7401
   78SOPE   H3S 6973   1.493   5.702   6.994  0.6188  0.3862 -1.5437
   78SOPE   C24 6974   1.458   5.888   6.901  0.1284 -0.0207 -0.2430
   78SOPE   H4R 6975   1.385   5.962   6.864  0.4498  0.3207 -0.1975
   78SOPE   H4S 6976   1.524   5.937   6.976  2.6270 -2.3072 -0.7733
   78SOPE   C25 6977   1.549   5.853   6.773  0.5981  0.5713  0.1474
   78SOPE   H5R 6978   1.630   5.791   6.818  0.3246  0.7670  0.9322
   78SOPE   H5S 6979   1.493   5.789   6.701  0.5435  2.3928 -1.5105
   78SOPE   C26 6980   1.597   5.982   6.705  0.2437 -0.5686  0.7288
   78SOPE   H6R 6981   1.512   6.039   6.662  1.2030  0.3145 -0.0373
   78SOPE   H6S 6982   1.644   6.032   6.792 -0.3486  2.3806 -0.5192
   78SOPE   C27 6983   1.700   5.954   6.598 -0.5617  0.3982  0.7134
   78SOPE   H7R 6984   1.690   6.030   6.518 -1.6535 -0.3460  0.1140
   78SOPE   H7S 6985   1.802   5.955   6.641  0.3966  1.1308 -1.4133
   78SOPE   C28 6986   1.691   5.815   6.527 -0.3157  0.1465  0.6659
   78SOPE   H8R 6987   1.786   5.808   6.469 -1.4212 -2.7804 -1.0144
   78SOPE   H8S 6988   1.679   5.725   6.591 -0.0477 -0.6417 -0.3520
   78SOPE   C29 6989   1.576   5.807   6.422 -0.1352 -0.2596  0.3863
   78SOPE   H91 6990   1.479   5.812   6.475  1.2041 -3.6644  3.6502
   78SOPE  C210 6991   1.578   5.826   6.291  0.1240  0.4176 -0.2547
   78SOPE  H101 6992   1.483   5.826   6.237 -0.6934  0.4864  1.1326
   78SOPE  C211 6993   1.707   5.826   6.208  0.8232 -0.1868  0.0245
   78SOPE  H11R 6994   1.786   5.774   6.266  1.5414  1.6562  0.8041
   78SOPE  H11S 6995   1.753   5.927   6.200  0.1197  0.0715 -0.9244
   78SOPE  C212 6996   1.700   5.764   6.069 -0.0850 -0.0047  0.0679
   78SOPE  H12R 6997   1.669   5.841   5.996  2.6301  1.4796  0.3366
   78SOPE  H12S 6998   1.637   5.672   6.072 -3.3987  2.1242  0.8934
   78SOPE  C213 6999   1.844   5.733   6.020  0.6175  0.3662 -0.8312
   78SOPE  H13R 7000   1.872   5.636   6.067  0.2749  0.7414  0.1681
   78SOPE  H13S 7001   1.914   5.811   6.055  0.8720  0.0062 -0.5286
   78SOPE  C214 7002   1.852   5.707   5.871 -0.1687 -0.2855  0.2694
   78SOPE  H14R 7003   1.785   5.780   5.821 -2.5264 -2.7622 -0.4412
   78SOPE  H14S 7004   1.803   5.609   5.851  0.9571 -1.0066  0.9244
   78SOPE  C215 7005   1.995   5.701   5.823  0.0520 -0.0387 -0.4019
   78SOPE  H15R 7006   2.064   5.662   5.900  1.8687  1.2900 -1.3012
   78SOPE  H15S 7007   2.020   5.810   5.819 -1.3802  0.3466  0.4064
   78SOPE  C216 7008   2.023   5.622   5.693 -0.0542  0.4494  0.0409
   78SOPE  H16R 7009   1.961   5.532   5.709  1.4536 -0.2698  2.1804
   78SOPE  H16S 7010   2.134   5.611   5.686  0.0813 -0.6583  2.9224
   78SOPE  C217 7011   1.973   5.686   5.568 -0.2168 -0.7858 -0.2675
   78SOPE  H17R 7012   2.024   5.785   5.560 -1.4629 -0.1591 -0.7427
   78SOPE  H17S 7013   1.868   5.721   5.566  0.2472  0.7864  0.8086
   78SOPE  C218 7014   2.008   5.615   5.435 -0.5193 -0.1129  0.2916
   78SOPE  H18R 7015   2.109   5.572   5.425  0.1788 -0.2722  5.3789
   78SOPE  H18S 7016   1.997   5.687   5.351  1.7551 -1.0486 -0.9047
   78SOPE  H18T 7017   1.937   5.533   5.411 -0.5144  0.2316 -0.9847
   78SOPE   C33 7018   0.903   5.536   6.985  0.2222  0.2384  0.3515
   78SOPE   H3X 7019   0.912   5.431   7.021 -1.7795 -0.1658 -0.2272
   78SOPE   H3Y 7020   1.008   5.562   6.957  0.0171  0.8756  0.1501
   78SOPE   C34 7021   0.812   5.566   6.862 -0.0282  0.0988 -0.4522
   78SOPE   H4X 7022   0.817   5.674   6.836  0.0217 -0.1929 -1.7332
   78SOPE   H4Y 7023   0.708   5.562   6.900  0.5355  0.6602  1.2506
   78SOPE   C35 7024   0.841   5.487   6.734 -0.0043 -0.3603 -0.1446
   78SOPE   H5X 7025   0.882   5.389   6.765 -1.7608 -0.2938  2.7812
   78SOPE   H5Y 7026   0.927   5.540   6.689 -1.0857  1.3013 -0.3142
   78SOPE   C36 7027   0.731   5.455   6.630  0.4848 -0.3455  0.2812
   78SOPE   H6X 7028   0.653   5.396   6.685  1.7823 -1.4218  1.0322
   78SOPE   H6Y 7029   0.772   5.392   6.548  0.7450  1.6488 -1.1842
   78SOPE   C37 7030   0.670   5.577   6.557 -0.4743 -0.2999  0.1709
   78SOPE   H7X 7031   0.751   5.635   6.507  0.2366 -2.5839 -1.5534
   78SOPE   H7Y 7032   0.621   5.643   6.631  3.3793  3.4004 -0.2401
   78SOPE   C38 7033   0.580   5.539   6.442 -0.0800 -0.3095 -0.7713
   78SOPE   H8X 7034   0.517   5.629   6.424 -2.1155 -0.4250  4.1457
   78SOPE   H8Y 7035   0.502   5.461   6.460  1.1511 -1.5375 -0.5650
   78SOPE   C39 7036   0.648   5.497   6.305  0.0123 -0.4979  0.2320
   78SOPE   H9X 7037   0.667   5.388   6.309  0.1405 -0.4833  0.0405
   78SOPE   H9Y 7038   0.743   5.554   6.298 -1.0059  1.2877  0.3060
   78SOPE  C310 7039   0.561   5.552   6.198 -0.0044 -0.1033 -0.3941
   78SOPE  H10X 7040   0.530   5.658   6.212 -2.2751 -1.0159  2.8301
   78SOPE  H10Y 7041   0.459   5.507   6.197  0.1604 -0.5662  1.1536
   78SOPE  C311 7042   0.626   5.536   6.051  0.3964  0.5136 -0.0964
   78SOPE  H11X 7043   0.667   5.434   6.040 -1.9895 -0.8282  2.3028
   78SOPE  H11Y 7044   0.712   5.606   6.049  0.1063  0.9416 -3.8006
   78SOPE  C312 7045   0.530   5.552   5.935  0.4450  0.3008  0.1112
   78SOPE  H12X 7046   0.490   5.655   5.946 -2.2055 -0.4991 -1.1855
   78SOPE  H12Y 7047   0.439   5.492   5.957  1.0386 -2.4414 -3.7486
   78SOPE  C313 7048   0.587   5.519   5.795  0.9043  0.3199  0.4078
   78SOPE  H13X 7049   0.602   5.410   5.780  1.6517  0.5650 -0.7644
   78SOPE  H13Y 7050   0.690   5.559   5.782  1.0330  0.3416  1.4098
   78SOPE  C314 7051   0.500   5.576   5.682 -0.5674  0.5142 -0.0837
   78SOPE  H14X 7052   0.551   5.566   5.584 -1.3410  0.3168 -0.4711
   78SOPE  H14Y 7053   0.470   5.683   5.686  2.7410  1.6191 -1.3384
   78SOPE  C315 7054   0.368   5.500   5.670 -0.2750  0.3150  0.2525
   78SOPE  H15X 7055   0.313   5.488   5.766 -0.4704 -1.9655 -0.0820
   78SOPE  H15Y 7056   0.396   5.399   5.634  0.1558  0.4037  0.3353
   78SOPE  C316 7057   0.275   5.571   5.576  0.4565 -0.0064 -0.1151
   78SOPE  H16X 7058   0.324   5.569   5.477 -0.7513 -0.1598 -0.7267
   78SOPE  H16Y 7059   0.268   5.679   5.601  2.3743 -0.3280  2.1607
   78SOPE  C317 7060   0.131   5.512   5.568  0.1505  0.3089  0.6023
   78SOPE  H17X 7061   0.148   5.403   5.576  0.6216  0.2523 -0.8512
   78SOPE  H17Y 7062   0.088   5.521   5.466 -2.7153  1.5528  1.8133
   78SOPE  C318 7063   0.022   5.564   5.661 -0.0249 -1.1963 -0.0940
   78SOPE  H18X 7064  -0.082   5.555   5.621  0.1907  2.4709 -1.9243
   78SOPE  H18Y 7065   0.036   5.674   5.655  0.8846 -1.2655  0.6418
   78SOPE  H18Z 7066   0.041   5.517   5.760  0.5977  0.0252  0.3819
   79SOPE     N 7067   2.385   3.206   7.250  0.1704 -0.1490  0.1252
   79SOPE   HN1 7068   2.422   3.278   7.316 -0.0480 -0.5499  0.6898
   79SOPE   HN2 7069   2.350   3.127   7.308 -0.7600 -0.5962 -1.0011
   79SOPE   HN3 7070   2.470   3.168   7.204  0.2845  1.0999 -0.7699
   79SOPE   C12 7071   2.285   3.260   7.152  0.5474  0.1686 -0.0161
   79SOPE  H12A 7072   2.188   3.253   7.204  1.4147  0.6891  1.7404
   79SOPE  H12B 7073   2.278   3.200   7.059  1.0122  0.3687 -0.1829
   79SOPE   C11 7074   2.301   3.410   7.112 -0.0564  0.3952  0.0306
   79SOPE  H11A 7075   2.240   3.435   7.023 -0.2091 -0.8079 -0.2167
   79SOPE  H11B 7076   2.407   3.432   7.089 -0.2204  1.6444  0.3965
   79SOPE     P 7077   2.355   3.564   7.321  0.1716 -0.3236  0.1526
   79SOPE   O13 7078   2.435   3.465   7.398 -0.5795 -0.5500  0.2601
   79SOPE   O14 7079   2.286   3.664   7.412 -0.2714  0.9179  0.3812
   79SOPE   O12 7080   2.261   3.485   7.222 -0.2138  0.8210 -0.0875
   79SOPE   O11 7081   2.463   3.644   7.227  0.0214  0.2875 -0.0537
   79SOPE    C1 7082   2.409   3.751   7.148 -0.3947  0.4319 -0.5469
   79SOPE    HA 7083   2.330   3.809   7.201 -1.7260 -0.5861 -1.3568
   79SOPE    HB 7084   2.355   3.708   7.060 -0.2853 -1.9387  0.4915
   79SOPE    C2 7085   2.524   3.860   7.121  0.8689 -0.0441  0.1293
   79SOPE    HS 7086   2.484   3.963   7.131 -0.5676 -0.0297 -3.8665
   79SOPE   O21 7087   2.567   3.844   6.984  0.0287 -0.0821  0.1195
   79SOPE   C21 7088   2.497   3.916   6.907 -0.1446  0.1249  0.7119
   79SOPE   O22 7089   2.404   3.988   6.926 -0.1737 -0.0804  0.0077
   79SOPE   C22 7090   2.557   3.901   6.764  0.2058 -0.3179 -0.3405
   79SOPE   H2R 7091   2.513   3.817   6.705  1.0689 -0.1748 -1.2145
   79SOPE   H2S 7092   2.666   3.883   6.776  0.1047 -0.7389 -0.0342
   79SOPE    C3 7093   2.644   3.854   7.220  0.1695 -0.1019  0.3981
   79SOPE    HX 7094   2.696   3.758   7.201 -1.5510 -0.8200 -0.9737
   79SOPE    HY 7095   2.605   3.851   7.324 -1.6263 -0.5585 -0.2571
   79SOPE   O31 7096   2.731   3.967   7.211  0.2095 -0.4623  0.4556
   79SOPE   C31 7097   2.823   3.990   7.302  0.1378  0.4163 -0.0780
   79SOPE   O32 7098   2.840   3.917   7.400  0.0290  0.3025  0.4666
   79SOPE   C32 7099   2.890   4.114   7.265 -0.2805  0.2548  0.6403
   79SOPE   H2X 7100   2.897   4.122   7.154 -1.0580 -1.1071  0.4674
   79SOPE   H2Y 7101   2.994   4.107   7.304  0.0043  0.8993  0.0162
   79SOPE   C23 7102   2.533   4.030   6.677  0.0246  0.7788 -0.2180
   79SOPE   H3R 7103   2.526   4.119   6.743  0.4234 -0.5461  1.6880
   79SOPE   H3S 7104   2.436   4.033   6.624  0.9383  1.3006 -1.9153
   79SOPE   C24 7105   2.630   4.057   6.564 -0.5725 -0.5093 -0.3696
   79SOPE   H4R 7106   2.730   4.051   6.613  0.4349  1.0299 -2.1346
   79SOPE   H4S 7107   2.630   3.975   6.489  1.1481 -0.1851 -0.7812
   79SOPE   C25 7108   2.619   4.184   6.484 -0.2144  0.3373  0.3041
   79SOPE   H5R 7109   2.578   4.255   6.560 -1.3933 -0.0127  0.0109
   79SOPE   H5S 7110   2.723   4.209   6.454  0.8011 -1.6333  1.9425
   79SOPE   C26 7111   2.523   4.169   6.372  0.4408 -0.0159  0.1600
   79SOPE   H6R 7112   2.532   4.089   6.295 -2.9680 -0.5829  0.1963
   79SOPE   H6S 7113   2.425   4.140   6.414  0.1355 -1.1621 -1.2417
   79SOPE   C27 7114   2.506   4.307   6.301 -0.1665  0.3626  0.8539
   79SOPE   H7R 7115   2.407   4.297   6.250  0.8356 -0.0687 -1.1094
   79SOPE   H7S 7116   2.503   4.391   6.373  0.3494 -0.4032  1.7918
   79SOPE   C28 7117   2.611   4.334   6.190 -0.0352  0.7569 -0.0577
   79SOPE   H8R 7118   2.712   4.326   6.235 -0.2954  1.2363  0.6396
   79SOPE   H8S 7119   2.605   4.242   6.128  1.0635  0.9943 -0.5358
   79SOPE   C29 7120   2.594   4.454   6.105 -0.4093  0.1039  0.1651
   79SOPE   H91 7121   2.585   4.554   6.148 -3.7240  0.5239 -1.2207
   79SOPE  C210 7122   2.574   4.450   5.971  0.3313 -0.3030  0.9826
   79SOPE  H101 7123   2.556   4.552   5.933  0.1154 -0.0606  1.7052
   79SOPE  C211 7124   2.569   4.338   5.872  0.4652 -0.1279 -0.1571
   79SOPE  H11R 7125   2.482   4.271   5.889  1.5521 -0.9457  2.8099
   79SOPE  H11S 7126   2.656   4.271   5.888  0.2970 -0.1974  0.5055
   79SOPE  C212 7127   2.555   4.416   5.734 -0.5348 -0.2952 -0.0387
   79SOPE  H12R 7128   2.466   4.478   5.754 -0.8759 -0.3112 -1.4713
   79SOPE  H12S 7129   2.536   4.337   5.659 -1.8771 -1.5273  1.5114
   79SOPE  C213 7130   2.678   4.496   5.683  0.2402 -0.6931 -0.2385
   79SOPE  H13R 7131   2.730   4.449   5.597  3.2587 -0.1627  1.1608
   79SOPE  H13S 7132   2.757   4.494   5.761  0.9413  0.7507 -0.8756
   79SOPE  C214 7133   2.636   4.640   5.651 -0.3897  0.5187  0.4899
   79SOPE  H14R 7134   2.718   4.714   5.665  0.5911 -0.0021 -1.9902
   79SOPE  H14S 7135   2.560   4.660   5.729 -2.2724  0.0675 -1.1496
   79SOPE  C215 7136   2.572   4.652   5.511  0.5338 -0.4370  0.3264
   79SOPE  H15R 7137   2.474   4.601   5.508 -2.8963  5.3150 -0.9445
   79SOPE  H15S 7138   2.643   4.607   5.439  1.2618  1.9965 -0.5739
   79SOPE  C216 7139   2.547   4.794   5.461  0.5401 -0.9463  0.3334
   79SOPE  H16R 7140   2.507   4.803   5.358 -1.1489 -0.9372  0.9550
   79SOPE  H16S 7141   2.644   4.847   5.467 -0.1010  0.4638 -0.8740
   79SOPE  C217 7142   2.439   4.880   5.532  0.0845 -0.8242  0.0081
   79SOPE  H17R 7143   2.428   4.870   5.642 -1.4489  0.7409  0.0476
   79SOPE  H17S 7144   2.334   4.864   5.500 -0.3758 -0.9111  1.4840
   79SOPE  C218 7145   2.470   5.030   5.523 -0.2092 -0.3324 -0.3039
   79SOPE  H18R 7146   2.563   5.061   5.574 -0.1238 -1.8814  0.5564
   79SOPE  H18S 7147   2.399   5.093   5.580  1.4447  0.7121  0.6782
   79SOPE  H18T 7148   2.483   5.061   5.417  0.0000 -2.9183 -1.0903
   79SOPE   C33 7149   2.823   4.230   7.336 -0.0300 -0.3364 -1.0795
   79SOPE   H3X 7150   2.812   4.203   7.443  0.7274 -0.4704 -1.0338
   79SOPE   H3Y 7151   2.720   4.248   7.298  0.4828  2.1368 -1.4967
   79SOPE   C34 7152   2.918   4.350   7.338 -0.1448 -0.1382  0.7537
   79SOPE   H4X 7153   2.943   4.382   7.235  0.6948 -0.0640  0.9760
   79SOPE   H4Y 7154   3.009   4.316   7.391  0.3369  2.0096  1.4277
   79SOPE   C35 7155   2.873   4.462   7.435  0.0618 -0.1337  0.1444
   79SOPE   H5X 7156   2.866   4.426   7.539 -0.5636 -0.6541 -0.0751
   79SOPE   H5Y 7157   2.768   4.487   7.408 -0.1097  0.7888  1.5228
   79SOPE   C36 7158   2.955   4.587   7.418  0.1703 -0.1278 -0.3916
   79SOPE   H6X 7159   3.064   4.565   7.420  0.2915  0.3729 -1.3376
   79SOPE   H6Y 7160   2.926   4.647   7.507 -2.9127 -1.8964 -0.0489
   79SOPE   C37 7161   2.942   4.660   7.283 -0.0980 -0.0879  0.6624
   79SOPE   H7X 7162   2.835   4.673   7.256 -0.0275 -2.0284 -0.7844
   79SOPE   H7Y 7163   2.984   4.606   7.196  0.3513  0.7840  0.3215
   79SOPE   C38 7164   3.025   4.791   7.284  0.4264  0.0745  0.7599
   79SOPE   H8X 7165   3.131   4.758   7.285  0.6281  0.6575 -0.1470
   79SOPE   H8Y 7166   2.991   4.845   7.376 -2.0536 -0.1313  0.0326
   79SOPE   C39 7167   3.010   4.887   7.168 -0.0547 -0.4678 -0.2163
   79SOPE   H9X 7168   3.094   4.877   7.097  0.0474  1.8067 -0.4778
   79SOPE   H9Y 7169   3.023   4.989   7.208 -1.2801 -0.9723  1.6117
   79SOPE  C310 7170   2.872   4.882   7.101 -0.3890 -0.3262 -0.6473
   79SOPE  H10X 7171   2.789   4.897   7.173 -1.9663 -3.3661 -1.6645
   79SOPE  H10Y 7172   2.866   4.785   7.047  0.5461 -0.1062 -1.1878
   79SOPE  C311 7173   2.855   4.989   6.990 -0.1884  0.3594 -0.1249
   79SOPE  H11X 7174   2.898   5.079   7.039  0.9801 -1.1389  1.7502
   79SOPE  H11Y 7175   2.752   4.999   6.949 -0.3585 -0.6831  0.0336
   79SOPE  C312 7176   2.946   4.957   6.865 -0.3463 -0.3742 -0.1154
   79SOPE  H12X 7177   2.929   4.850   6.841  3.0558 -0.8196 -1.0929
   79SOPE  H12Y 7178   3.051   4.970   6.900 -0.2109 -3.6741  1.1177
   79SOPE  C313 7179   2.911   5.048   6.751 -0.6162  0.2919 -0.1784
   79SOPE  H13X 7180   2.934   5.155   6.768 -1.0036  0.8072 -2.5348
   79SOPE  H13Y 7181   2.802   5.033   6.736 -0.1366 -4.6669 -0.6155
   79SOPE  C314 7182   2.993   5.010   6.630  0.0001  0.3196 -0.0012
   79SOPE  H14X 7183   2.986   4.902   6.603 -1.3293  0.9143 -2.4172
   79SOPE  H14Y 7184   3.103   5.013   6.644  0.3781 -2.7759 -1.3869
   79SOPE  C315 7185   2.940   5.097   6.523 -0.1851  0.0980  0.2845
   79SOPE  H15X 7186   2.966   5.204   6.539 -1.3216  0.3370  0.5857
   79SOPE  H15Y 7187   2.830   5.088   6.511 -0.2553  1.1285  0.0175
   79SOPE  C316 7188   2.999   5.057   6.388 -0.3979 -0.0672 -0.1046
   79SOPE  H16X 7189   2.985   4.947   6.387 -1.4771  0.0453  0.4911
   79SOPE  H16Y 7190   3.108   5.078   6.382  0.1056 -2.6779 -1.1923
   79SOPE  C317 7191   2.932   5.134   6.281 -0.2528 -0.6186 -0.9365
   79SOPE  H17X 7192   2.936   5.241   6.311 -0.1766  0.3435 -4.0078
   79SOPE  H17Y 7193   2.823   5.111   6.274  0.0789 -2.2552 -1.1203
   79SOPE  C318 7194   2.993   5.118   6.140 -0.5231 -0.7358 -0.6669
   79SOPE  H18X 7195   3.096   5.161   6.136 -0.7647 -0.1689 -0.9215
   79SOPE  H18Y 7196   2.936   5.192   6.080  0.4588  1.8894  1.4500
   79SOPE  H18Z 7197   2.987   5.015   6.097 -1.0565 -0.6425 -0.8122
   80SOPE     N 7198   0.050   1.057   8.207  0.3164  0.2365 -0.1992
   80SOPE   HN1 7199   0.054   1.144   8.150  0.9131  0.2630 -0.1233
   80SOPE   HN2 7200  -0.023   1.067   8.280 -0.2066 -2.6026 -0.2320
   80SOPE   HN3 7201   0.143   1.054   8.254 -1.3448 -1.2146  3.3099
   80SOPE   C12 7202   0.045   0.931   8.124  0.2175 -0.5360  0.2491
   80SOPE  H12A 7203  -0.054   0.942   8.074 -0.0209  0.0319  0.8334
   80SOPE  H12B 7204   0.058   0.848   8.196  1.2640 -0.0501  0.6474
   80SOPE   C11 7205   0.146   0.912   8.010 -0.5548 -0.1787  0.2264
   80SOPE  H11A 7206   0.140   1.008   7.955 -2.1048 -0.6440 -0.4804
   80SOPE  H11B 7207   0.104   0.835   7.941  0.4020 -0.3205 -0.2119
   80SOPE     P 7208   0.363   0.771   7.995 -0.0021  0.2906  0.3110
   80SOPE   O13 7209   0.294   0.646   8.032 -0.3007  0.8357  0.2284
   80SOPE   O14 7210   0.506   0.787   8.027  0.2323 -0.1708 -0.5217
   80SOPE   O12 7211   0.283   0.894   8.051 -0.3450 -0.4865  0.1286
   80SOPE   O11 7212   0.347   0.794   7.837 -0.0681  0.3143 -0.2345
   80SOPE    C1 7213   0.415   0.903   7.771 -0.4197 -0.7704 -0.1196
   80SOPE    HA 7214   0.455   0.981   7.840 -0.9083 -0.3278 -0.3278
   80SOPE    HB 7215   0.337   0.962   7.718  1.1901 -0.4148 -2.2244
   80SOPE    C2 7216   0.529   0.866   7.667 -0.1810  0.5190  0.1112
   80SOPE    HS 7217   0.621   0.847   7.726  0.3849 -1.9908 -1.4659
   80SOPE   O21 7218   0.546   0.980   7.580 -0.1105  0.5573  0.1112
   80SOPE   C21 7219   0.659   0.974   7.510  0.6944  0.9689 -0.1423
   80SOPE   O22 7220   0.731   0.881   7.510  0.1023  0.2600  0.5308
   80SOPE   C22 7221   0.676   1.100   7.439 -0.2514  0.6954 -0.9372
   80SOPE   H2R 7222   0.689   1.182   7.512  2.1796 -0.0894 -0.3797
   80SOPE   H2S 7223   0.586   1.116   7.376 -0.4720 -0.1417 -0.8485
   80SOPE    C3 7224   0.482   0.735   7.594  0.1960 -0.1049 -0.3431
   80SOPE    HX 7225   0.451   0.661   7.672 -0.8263 -1.9074 -2.3636
   80SOPE    HY 7226   0.568   0.695   7.536 -0.6037  0.7699 -2.2000
   80SOPE   O31 7227   0.369   0.757   7.502 -0.4122  0.3687  0.2148
   80SOPE   C31 7228   0.257   0.685   7.528  0.3371 -0.5281 -0.0516
   80SOPE   O32 7229   0.245   0.587   7.597 -0.2337 -0.3966 -0.3167
   80SOPE   C32 7230   0.150   0.740   7.437  0.2484 -0.8080  0.6429
   80SOPE   H2X 7231   0.200   0.766   7.341  0.3842  0.1051  0.9525
   80SOPE   H2Y 7232   0.116   0.838   7.476  1.1767 -0.2585  0.1040
   80SOPE   C23 7233   0.805   1.096   7.354 -0.3808  0.7519 -0.0380
   80SOPE   H3R 7234   0.801   1.009   7.284 -1.7734  0.1230  0.7833
   80SOPE   H3S 7235   0.902   1.086   7.408  0.2508  1.5068 -1.0083
   80SOPE   C24 7236   0.818   1.207   7.247 -0.1650 -0.4302  0.1100
   80SOPE   H4R 7237   0.811   1.307   7.295 -0.2020 -1.5055  2.4818
   80SOPE   H4S 7238   0.917   1.186   7.203 -0.1502 -2.1408  0.8777
   80SOPE   C25 7239   0.708   1.207   7.135 -0.3634  0.4766  0.0230
   80SOPE   H5R 7240   0.714   1.114   7.074 -1.5963 -0.6749  1.5491
   80SOPE   H5S 7241   0.611   1.208   7.189 -0.5585  0.9311 -0.3283
   80SOPE   C26 7242   0.685   1.337   7.051  0.4228  0.1154 -0.2960
   80SOPE   H6R 7243   0.580   1.321   7.019 -0.0418  0.2420  1.1002
   80SOPE   H6S 7244   0.694   1.415   7.130  1.5769 -1.2439  0.9890
   80SOPE   C27 7245   0.779   1.358   6.932 -0.6938  0.4960 -0.5790
   80SOPE   H7R 7246   0.736   1.427   6.856 -2.1192  0.5781  0.2718
   80SOPE   H7S 7247   0.882   1.389   6.962 -0.6603  0.5108 -0.7074
   80SOPE   C28 7248   0.798   1.246   6.823 -0.5910  0.6621  0.4186
   80SOPE   H8R 7249   0.830   1.151   6.870  0.7562  1.4838  1.2273
   80SOPE   H8S 7250   0.700   1.229   6.771  0.1590 -0.9733 -0.5399
   80SOPE   C29 7251   0.896   1.280   6.709 -0.5306 -0.4526  0.0279
   80SOPE   H91 7252   0.995   1.273   6.755  0.4386 -0.4626 -1.9316
   80SOPE  C210 7253   0.880   1.299   6.579 -0.0570  0.3342  0.1905
   80SOPE  H101 7254   0.971   1.300   6.517  0.8600  0.3725  1.4949
   80SOPE  C211 7255   0.748   1.323   6.509 -0.4657 -0.7893 -0.5948
   80SOPE  H11R 7256   0.681   1.404   6.545 -0.6638 -1.4665  0.6026
   80SOPE  H11S 7257   0.693   1.226   6.506  2.0280 -2.3338  0.4888
   80SOPE  C212 7258   0.775   1.364   6.362  0.2703 -0.0126  0.2802
   80SOPE  H12R 7259   0.838   1.290   6.309 -0.8214  0.1367 -1.3132
   80SOPE  H12S 7260   0.831   1.459   6.358 -0.0284  0.2492  1.8184
   80SOPE  C213 7261   0.638   1.377   6.290 -0.2246  0.4061  0.5440
   80SOPE  H13R 7262   0.570   1.457   6.326 -1.4626  0.3781 -1.5813
   80SOPE  H13S 7263   0.591   1.278   6.307 -3.6636  1.8804  0.3090
   80SOPE  C214 7264   0.649   1.394   6.142 -0.0267  0.0825 -0.0331
   80SOPE  H14R 7265   0.717   1.317   6.100 -0.7865 -1.0697  0.8154
   80SOPE  H14S 7266   0.693   1.492   6.111 -0.8091  0.7120  0.7950
   80SOPE  C215 7267   0.517   1.404   6.070  0.7184  0.1335 -0.3111
   80SOPE  H15R 7268   0.458   1.495   6.096  1.2560  0.6320 -0.8112
   80SOPE  H15S 7269   0.445   1.325   6.101  2.2529 -0.1182  3.0832
   80SOPE  C216 7270   0.538   1.399   5.918  0.4453 -0.2097 -0.7668
   80SOPE  H16R 7271   0.452   1.350   5.868 -0.7837 -0.5358  1.5148
   80SOPE  H16S 7272   0.631   1.341   5.902 -0.5172 -2.8422  2.0521
   80SOPE  C217 7273   0.548   1.531   5.847 -0.1229 -0.6071 -0.1707
   80SOPE  H17R 7274   0.651   1.565   5.870 -0.7457  0.1266  1.7250
   80SOPE  H17S 7275   0.479   1.603   5.897 -1.6588 -1.1392 -1.4317
   80SOPE  C218 7276   0.519   1.533   5.695  0.1999 -0.4690  0.7859
   80SOPE  H18R 7277   0.595   1.603   5.655  2.2108 -3.0035 -0.0863
   80SOPE  H18S 7278   0.420   1.569   5.662  1.6798  1.0620 -2.3875
   80SOPE  H18T 7279   0.546   1.439   5.643 -0.3837  1.0562 -2.4890
   80SOPE   C33 7280   0.044   0.639   7.406  0.0733 -0.3090  0.8696
   80SOPE   H3X 7281  -0.045   0.695   7.370 -0.3597 -0.6353  1.4176
   80SOPE   H3Y 7282   0.005   0.583   7.494 -0.2042 -0.8840  0.3900
   80SOPE   C34 7283   0.090   0.523   7.307 -0.0205  0.3532 -0.6049
   80SOPE   H4X 7284  -0.001   0.458   7.303  0.6235 -0.5587 -0.6402
   80SOPE   H4Y 7285   0.169   0.458   7.348  0.5385 -0.2619 -2.5467
   80SOPE   C35 7286   0.114   0.549   7.160  0.6701 -0.8082  0.0175
   80SOPE   H5X 7287   0.148   0.457   7.109  0.2964 -1.1423  0.3625
   80SOPE   H5Y 7288   0.198   0.621   7.153 -0.0743  0.0840 -0.1027
   80SOPE   C36 7289  -0.010   0.604   7.082  0.2932  0.3717  0.2218
   80SOPE   H6X 7290  -0.074   0.669   7.145 -2.3692 -1.5120 -0.3689
   80SOPE   H6Y 7291  -0.076   0.522   7.046 -0.3743  0.6216  0.8454
   80SOPE   C37 7292   0.026   0.678   6.965 -0.1237 -0.2799 -0.3254
   80SOPE   H7X 7293   0.066   0.613   6.884 -1.0151 -0.9389 -0.2631
   80SOPE   H7Y 7294   0.108   0.747   6.995 -0.6792 -0.2136  1.1074
   80SOPE   C38 7295  -0.096   0.752   6.912  0.5316  0.0085  0.2931
   80SOPE   H8X 7296  -0.136   0.817   6.993 -0.5786 -0.6228  0.2692
   80SOPE   H8Y 7297  -0.175   0.681   6.878  0.0015 -0.3631  2.1992
   80SOPE   C39 7298  -0.049   0.849   6.805  0.7832 -0.6899  0.4239
   80SOPE   H9X 7299   0.023   0.918   6.853  1.4203  0.3777 -1.9067
   80SOPE   H9Y 7300  -0.130   0.916   6.768 -1.8765 -2.7351  2.1467
   80SOPE  C310 7301   0.019   0.786   6.676  0.1811  0.3530 -0.2806
   80SOPE  H10X 7302  -0.059   0.713   6.647  0.0780  0.7945 -1.1521
   80SOPE  H10Y 7303   0.120   0.744   6.695 -0.2753 -0.1013  1.3617
   80SOPE  C311 7304   0.026   0.878   6.554  0.1460  0.1280 -0.6670
   80SOPE  H11X 7305   0.102   0.956   6.576 -0.2899  0.8030 -1.4969
   80SOPE  H11Y 7306  -0.075   0.921   6.538 -0.9789 -1.7659  0.8028
   80SOPE  C312 7307   0.050   0.795   6.432  0.9941 -0.0708  0.4510
   80SOPE  H12X 7308  -0.030   0.718   6.419  0.9836  0.0660 -0.3733
   80SOPE  H12Y 7309   0.155   0.759   6.434  0.3680 -2.2182 -0.9720
   80SOPE  C313 7310   0.029   0.867   6.303  0.6673 -0.4390  0.0370
   80SOPE  H13X 7311   0.114   0.937   6.290  0.6962 -0.6180 -0.8197
   80SOPE  H13Y 7312  -0.062   0.930   6.293  0.5921 -0.8304 -2.3017
   80SOPE  C314 7313   0.031   0.777   6.185 -0.8023 -0.2446 -0.2021
   80SOPE  H14X 7314  -0.050   0.701   6.186 -0.2856 -0.8089 -0.6554
   80SOPE  H14Y 7315   0.126   0.720   6.192 -0.1595  0.6904 -1.0616
   80SOPE  C315 7316   0.034   0.848   6.050  0.6697  0.0999  0.1224
   80SOPE  H15X 7317   0.053   0.777   5.967 -2.8330 -0.9350  0.0358
   80SOPE  H15Y 7318   0.112   0.927   6.053 -0.0172  0.8654 -1.4070
   80SOPE  C316 7319  -0.099   0.916   6.014  0.3544  0.1243 -0.5048
   80SOPE  H16X 7320  -0.109   1.005   6.080 -1.0111 -0.5489  0.2247
   80SOPE  H16Y 7321  -0.188   0.856   6.042  0.1767  0.5515 -0.1438
   80SOPE  C317 7322  -0.108   0.969   5.872  0.0358 -0.3860  0.3754
   80SOPE  H17X 7323  -0.080   0.887   5.803 -2.0911  0.3220 -1.4160
   80SOPE  H17Y 7324  -0.033   1.051   5.857  0.3345 -0.7437 -0.1038
   80SOPE  C318 7325  -0.249   1.019   5.841 -0.0060  0.3060  0.0801
   80SOPE  H18X 7326  -0.279   1.108   5.899  0.6830  1.5949 -1.4634
   80SOPE  H18Y 7327  -0.314   0.931   5.863  1.1652 -1.0258 -1.5189
   80SOPE  H18Z 7328  -0.262   1.060   5.738 -0.8590  4.4057  1.6575
   81SOPE     N 7329   5.185   1.576   7.319 -0.1650  0.1325  0.4849
   81SOPE   HN1 7330   5.120   1.657   7.318  1.0306  1.1179  1.1640
   81SOPE   HN2 7331   5.126   1.503   7.273 -0.8695  2.0118 -1.8385
   81SOPE   HN3 7332   5.206   1.545   7.416  0.1118  1.5536  0.9032
   81SOPE   C12 7333   5.318   1.604   7.264  0.6559 -0.1315  0.2791
   81SOPE  H12A 7334   5.367   1.506   7.244  1.0490 -0.0250  0.7081
   81SOPE  H12B 7335   5.376   1.665   7.337  1.6689 -1.4438  0.6145
   81SOPE   C11 7336   5.300   1.694   7.141 -0.4822  0.2862  1.0947
   81SOPE  H11A 7337   5.239   1.644   7.063 -0.3754 -2.4004  2.6110
   81SOPE  H11B 7338   5.395   1.709   7.085 -1.7145  0.6646 -0.9832
   81SOPE     P 7339   5.348   1.942   7.209  0.3059  0.0714  0.1562
   81SOPE   O13 7340   5.476   1.879   7.256  0.0594  0.0991  0.4557
   81SOPE   O14 7341   5.279   2.025   7.313  0.1881 -0.1323  0.0051
   81SOPE   O12 7342   5.250   1.821   7.170  0.3271 -0.8656  0.2309
   81SOPE   O11 7343   5.380   2.031   7.085  0.0316  0.6224 -0.2522
   81SOPE    C1 7344   5.428   1.990   6.954  0.8147 -0.5833 -0.8244
   81SOPE    HA 7345   5.463   1.885   6.952  1.5855 -0.3199 -2.4584
   81SOPE    HB 7346   5.522   2.039   6.921  0.7011  0.3932  0.2406
   81SOPE    C2 7347   5.318   1.997   6.854 -0.0595 -0.1688  0.9157
   81SOPE    HS 7348   5.241   1.922   6.881 -1.1326  0.4668 -0.2757
   81SOPE   O21 7349   5.366   1.955   6.729 -0.3958  0.3028  0.4271
   81SOPE   C21 7350   5.271   1.962   6.627  0.2181  0.0681  0.6252
   81SOPE   O22 7351   5.148   1.961   6.646 -0.6434 -0.2707  0.6352
   81SOPE   C22 7352   5.337   1.976   6.488 -0.1682  0.0241 -0.0440
   81SOPE   H2R 7353   5.385   1.879   6.462  2.1457  1.0981 -0.0591
   81SOPE   H2S 7354   5.419   2.051   6.490 -1.4574  1.5626 -1.7820
   81SOPE    C3 7355   5.253   2.137   6.849  0.7500 -0.0333 -0.6870
   81SOPE    HX 7356   5.224   2.160   6.953  0.6163  1.2215 -0.9893
   81SOPE    HY 7357   5.155   2.148   6.798 -0.2716  3.0270  1.6874
   81SOPE   O31 7358   5.348   2.241   6.800 -0.1902  0.5540 -0.4144
   81SOPE   C31 7359   5.337   2.296   6.677  0.6855  0.1833  0.5464
   81SOPE   O32 7360   5.250   2.268   6.594 -0.2467 -0.1519  0.3832
   81SOPE   C32 7361   5.454   2.373   6.641 -0.3833 -0.1682 -0.5489
   81SOPE   H2X 7362   5.529   2.304   6.599  0.8566  0.9910 -0.3106
   81SOPE   H2Y 7363   5.501   2.426   6.727 -0.6706  2.2151 -1.7741
   81SOPE   C23 7364   5.243   2.010   6.370 -0.3492  0.1303 -0.0860
   81SOPE   H3R 7365   5.186   2.105   6.376  0.2847  0.5507 -0.5610
   81SOPE   H3S 7366   5.168   1.929   6.365  1.0997 -1.4849  2.2314
   81SOPE   C24 7367   5.319   2.016   6.237  0.1325  0.2524  0.9500
   81SOPE   H4R 7368   5.338   2.122   6.209 -0.5841 -0.5117 -3.0795
   81SOPE   H4S 7369   5.421   1.972   6.247  0.4641  0.9848  0.8590
   81SOPE   C25 7370   5.254   1.953   6.116  0.5996  1.0303 -0.1117
   81SOPE   H5R 7371   5.261   1.844   6.134  0.1282  1.0281  0.0654
   81SOPE   H5S 7372   5.147   1.983   6.120  0.4096  0.2657  2.9544
   81SOPE   C26 7373   5.307   1.999   5.983 -0.2500  0.4392  0.0857
   81SOPE   H6R 7374   5.291   2.104   5.950  1.0874  0.5412 -0.2901
   81SOPE   H6S 7375   5.418   2.002   5.975 -0.3060 -0.6878 -2.0374
   81SOPE   C27 7376   5.256   1.917   5.860  0.3002  0.4246 -0.6539
   81SOPE   H7R 7377   5.243   1.807   5.865 -2.1744  0.7085  1.7510
   81SOPE   H7S 7378   5.150   1.943   5.844  0.4835  0.9381 -1.0917
   81SOPE   C28 7379   5.322   1.965   5.730 -0.4601 -0.4862 -0.3557
   81SOPE   H8R 7380   5.259   1.952   5.640  0.0857 -0.8941 -0.6895
   81SOPE   H8S 7381   5.340   2.075   5.730 -0.0477 -0.5457 -1.0140
   81SOPE   C29 7382   5.454   1.901   5.699 -0.4396  0.5244 -0.5008
   81SOPE   H91 7383   5.444   1.798   5.663 -1.3161  0.7600 -0.9605
   81SOPE  C210 7384   5.580   1.950   5.701  0.3807 -0.0427  0.1524
   81SOPE  H101 7385   5.668   1.887   5.680  0.0037 -0.1337 -1.1973
   81SOPE  C211 7386   5.615   2.092   5.730  0.3174 -0.2171  0.8670
   81SOPE  H11R 7387   5.531   2.157   5.762 -0.9430 -1.2846 -0.1566
   81SOPE  H11S 7388   5.652   2.138   5.635  3.6004 -0.8693  1.6990
   81SOPE  C212 7389   5.726   2.122   5.835  0.8532 -0.4373  0.2360
   81SOPE  H12R 7390   5.753   2.230   5.831  0.2117 -0.2924 -0.3723
   81SOPE  H12S 7391   5.819   2.064   5.816  0.2747 -1.0010 -0.9943
   81SOPE  C213 7392   5.689   2.084   5.981  0.7074 -0.3917 -0.3705
   81SOPE  H13R 7393   5.648   1.981   5.976  0.4008 -0.2553 -0.7174
   81SOPE  H13S 7394   5.605   2.146   6.018 -2.1440 -2.3203 -3.0932
   81SOPE  C214 7395   5.802   2.086   6.085 -0.5036  0.9090  0.0170
   81SOPE  H14R 7396   5.867   2.169   6.051 -0.1977  0.2424 -1.1019
   81SOPE  H14S 7397   5.855   1.988   6.084  0.6316  1.5108  0.0917
   81SOPE  C215 7398   5.755   2.114   6.231  0.4010  0.4456 -0.1515
   81SOPE  H15R 7399   5.706   2.021   6.268  1.3614 -0.6713 -1.5508
   81SOPE  H15S 7400   5.688   2.202   6.225  2.0490  1.6664 -2.1253
   81SOPE  C216 7401   5.871   2.125   6.328  0.1212 -0.6511 -0.7448
   81SOPE  H16R 7402   5.928   2.217   6.300 -0.8292 -0.0065 -0.6215
   81SOPE  H16S 7403   5.942   2.040   6.319  0.7492 -0.2331  0.1227
   81SOPE  C217 7404   5.817   2.139   6.471  0.0076 -0.2426  1.1982
   81SOPE  H17R 7405   5.757   2.051   6.501 -1.7076  1.8448  4.3723
   81SOPE  H17S 7406   5.747   2.225   6.472  0.6724  0.3854 -0.6458
   81SOPE  C218 7407   5.917   2.175   6.577 -0.0713 -0.3987 -0.5422
   81SOPE  H18R 7408   5.872   2.205   6.674 -1.7208 -1.5455 -0.9192
   81SOPE  H18S 7409   5.979   2.263   6.548  1.0181  0.3701  3.4209
   81SOPE  H18T 7410   5.989   2.094   6.603  3.1435  3.3151  4.1116
   81SOPE   C33 7411   5.431   2.475   6.524 -0.4193 -0.1616 -1.0014
   81SOPE   H3X 7412   5.525   2.535   6.521 -1.5790  1.9158  1.0269
   81SOPE   H3Y 7413   5.344   2.539   6.549 -0.0594 -0.1554  0.2980
   81SOPE   C34 7414   5.407   2.408   6.388  0.0191  0.6768  0.6117
   81SOPE   H4X 7415   5.299   2.383   6.379  0.3580 -1.0717  1.0913
   81SOPE   H4Y 7416   5.463   2.312   6.384 -2.8443 -1.1902  1.8774
   81SOPE   C35 7417   5.451   2.485   6.266 -0.2974 -0.2599  0.5689
   81SOPE   H5X 7418   5.545   2.543   6.279 -1.5728  2.2344 -0.7244
   81SOPE   H5Y 7419   5.367   2.551   6.237 -1.4785 -1.2954  1.5730
   81SOPE   C36 7420   5.474   2.393   6.143 -0.1330 -0.3028 -0.0148
   81SOPE   H6X 7421   5.376   2.347   6.119 -0.9052  1.0837  0.4028
   81SOPE   H6Y 7422   5.539   2.307   6.173 -0.8826 -1.2369 -0.9681
   81SOPE   C37 7423   5.524   2.459   6.017 -0.4984 -0.2298  0.3696
   81SOPE   H7X 7424   5.539   2.385   5.935 -0.5027  0.4994 -0.3004
   81SOPE   H7Y 7425   5.626   2.502   6.021 -1.3265  2.2052 -1.6482
   81SOPE   C38 7426   5.432   2.568   5.955  0.6354  0.1662 -0.0076
   81SOPE   H8X 7427   5.438   2.658   6.020  3.4037 -0.1469  0.2932
   81SOPE   H8Y 7428   5.330   2.526   5.940  0.8101  0.4718 -2.6806
   81SOPE   C39 7429   5.491   2.607   5.820 -0.4600 -0.2333 -0.2830
   81SOPE   H9X 7430   5.588   2.656   5.842 -0.0803 -1.7368  1.7689
   81SOPE   H9Y 7431   5.420   2.680   5.778  1.8469  0.2124 -3.8499
   81SOPE  C310 7432   5.508   2.505   5.707 -0.0673 -0.8096 -0.8636
   81SOPE  H10X 7433   5.417   2.442   5.717  0.5534 -1.4695  1.3129
   81SOPE  H10Y 7434   5.598   2.444   5.731 -0.1550 -0.9812 -0.9662
   81SOPE  C311 7435   5.511   2.554   5.562 -0.2557  0.0760  0.0208
   81SOPE  H11X 7436   5.600   2.620   5.550  1.2615 -1.4672  2.0038
   81SOPE  H11Y 7437   5.420   2.607   5.529 -0.2042  1.5479  2.0099
   81SOPE  C312 7438   5.534   2.439   5.465  0.4904 -1.0170 -0.5213
   81SOPE  H12X 7439   5.640   2.408   5.473  0.9263  0.5595  0.1756
   81SOPE  H12Y 7440   5.529   2.480   5.362  1.0364  2.4654  0.7202
   81SOPE  C313 7441   5.423   2.326   5.474 -0.3237 -0.4431 -0.6812
   81SOPE  H13X 7442   5.434   2.273   5.571 -1.1521 -2.0378 -1.4227
   81SOPE  H13Y 7443   5.453   2.254   5.395 -1.7826 -2.1552  0.2431
   81SOPE  C314 7444   5.274   2.354   5.446 -0.0387 -0.5357  0.5937
   81SOPE  H14X 7445   5.262   2.376   5.338 -2.8167 -1.7329  0.5940
   81SOPE  H14Y 7446   5.228   2.435   5.506 -3.2265 -0.7660 -1.3420
   81SOPE  C315 7447   5.172   2.246   5.465 -0.4337  0.4528  0.2044
   81SOPE  H15X 7448   5.064   2.268   5.446 -0.2175  1.6531  0.3300
   81SOPE  H15Y 7449   5.178   2.231   5.575 -0.1165 -0.3504  0.0897
   81SOPE  C316 7450   5.216   2.114   5.409  0.4207 -0.2281  0.3414
   81SOPE  H16X 7451   5.155   2.024   5.432 -1.5676  1.3138  1.3771
   81SOPE  H16Y 7452   5.322   2.098   5.440  0.4828  0.5788  0.5756
   81SOPE  C317 7453   5.213   2.113   5.253 -0.2212 -0.4049 -0.5196
   81SOPE  H17X 7454   5.293   2.181   5.220  2.1504 -2.2982  0.9276
   81SOPE  H17Y 7455   5.114   2.156   5.227  0.4097 -0.0435 -2.4592
   81SOPE  C318 7456   5.232   1.977   5.187 -0.3868 -0.5882  0.1446
   81SOPE  H18X 7457   5.335   1.940   5.206 -0.3628  0.3935  2.0942
   81SOPE  H18Y 7458   5.226   1.985   5.076 -0.4569  3.2272  0.2964
   81SOPE  H18Z 7459   5.154   1.904   5.216  0.7949 -0.9628  2.6480
   82SOPE     N 7460   1.374   5.223   7.777 -0.2438  0.1466  0.1772
   82SOPE   HN1 7461   1.361   5.143   7.842  0.4711  0.0420  0.1916
   82SOPE   HN2 7462   1.446   5.280   7.825 -0.4541 -0.9384  1.8564
   82SOPE   HN3 7463   1.289   5.283   7.790 -0.4236 -0.2638  0.9422
   82SOPE   C12 7464   1.418   5.191   7.635  0.7389 -0.6468  0.1678
   82SOPE  H12A 7465   1.457   5.283   7.588 -1.6514  0.8402  0.9425
   82SOPE  H12B 7466   1.328   5.161   7.578  0.3988 -0.9535  0.8442
   82SOPE   C11 7467   1.527   5.085   7.629 -0.7942  0.0991 -0.1433
   82SOPE  H11A 7468   1.551   5.056   7.524  0.7296  0.8274 -0.0219
   82SOPE  H11B 7469   1.484   4.994   7.677 -1.9199  0.1769 -0.9622
   82SOPE     P 7470   1.760   5.027   7.716 -0.2237 -0.0138  0.0192
   82SOPE   O13 7471   1.707   4.890   7.717 -0.0654  0.1434  0.0922
   82SOPE   O14 7472   1.838   5.082   7.829  0.5559  0.1357  0.9845
   82SOPE   O12 7473   1.642   5.138   7.697  0.0501  0.0103  0.4424
   82SOPE   O11 7474   1.848   5.041   7.583 -0.0118 -0.3027 -0.6648
   82SOPE    C1 7475   1.887   5.166   7.533 -0.4806 -0.5955 -0.2274
   82SOPE    HA 7476   1.997   5.169   7.520 -0.5131 -0.0683 -0.3975
   82SOPE    HB 7477   1.862   5.253   7.597  1.4095  0.9111 -1.4132
   82SOPE    C2 7478   1.825   5.193   7.394 -0.0474 -0.5311  0.0987
   82SOPE    HS 7479   1.716   5.181   7.406 -0.1060 -1.8704 -1.4124
   82SOPE   O21 7480   1.877   5.097   7.292  0.3238  0.0757 -0.2306
   82SOPE   C21 7481   1.846   4.980   7.306 -0.5317  0.1654 -0.1902
   82SOPE   O22 7482   1.752   4.927   7.363 -0.2979 -1.1958 -0.0597
   82SOPE   C22 7483   1.941   4.904   7.226 -0.2409  0.3101  0.3746
   82SOPE   H2R 7484   1.979   4.826   7.296 -0.2162 -0.1404 -0.1293
   82SOPE   H2S 7485   2.025   4.965   7.188 -1.1324 -0.0736 -2.4666
   82SOPE    C3 7486   1.823   5.342   7.342  0.5615 -0.4235  0.4885
   82SOPE    HX 7487   1.928   5.368   7.318  0.7144 -1.3412  0.1079
   82SOPE    HY 7488   1.799   5.408   7.429 -0.8660 -0.6797  0.3132
   82SOPE   O31 7489   1.740   5.351   7.222  0.1721 -0.2406  0.2084
   82SOPE   C31 7490   1.607   5.353   7.232 -0.6722 -0.3052  0.3730
   82SOPE   O32 7491   1.543   5.379   7.334 -0.2135 -0.1429  0.5443
   82SOPE   C32 7492   1.551   5.315   7.096 -0.0861 -0.3630  0.2769
   82SOPE   H2X 7493   1.441   5.308   7.105 -0.2355  0.1079 -0.9220
   82SOPE   H2Y 7494   1.593   5.216   7.069  0.6843 -0.0632  0.3217
   82SOPE   C23 7495   1.866   4.833   7.112  0.0445  0.2794  0.0045
   82SOPE   H3R 7496   1.763   4.800   7.139  0.5281  0.8764  2.8824
   82SOPE   H3S 7497   1.917   4.740   7.080 -0.4364 -0.0167  0.0830
   82SOPE   C24 7498   1.852   4.925   6.991  0.2589  0.1928  0.0375
   82SOPE   H4R 7499   1.772   4.886   6.925 -0.5977 -0.1158  1.2203
   82SOPE   H4S 7500   1.825   5.028   7.022  2.0770  1.1985 -1.5306
   82SOPE   C25 7501   1.975   4.936   6.896 -0.3583 -0.5864 -0.3393
   82SOPE   H5R 7502   2.051   5.002   6.945 -0.8565  0.0463 -0.3996
   82SOPE   H5S 7503   2.009   4.834   6.872 -2.1234 -1.0023 -1.2826
   82SOPE   C26 7504   1.931   4.973   6.748 -0.8012  0.3006  0.0625
   82SOPE   H6R 7505   1.845   4.911   6.714 -0.8176  1.0201 -1.2616
   82SOPE   H6S 7506   1.898   5.078   6.742  2.0205  1.3269  0.7934
   82SOPE   C27 7507   2.041   4.954   6.645 -0.0704  0.3619  0.0049
   82SOPE   H7R 7508   2.125   5.024   6.662  1.0407 -0.3413 -2.2648
   82SOPE   H7S 7509   2.086   4.854   6.665 -0.6626  0.1663  0.4064
   82SOPE   C28 7510   1.996   4.963   6.498  0.0339  0.4101 -0.0552
   82SOPE   H8R 7511   2.086   4.967   6.433 -0.2133 -0.7127 -0.4843
   82SOPE   H8S 7512   1.942   4.867   6.486  0.4048 -0.0151  1.3826
   82SOPE   C29 7513   1.929   5.093   6.473  0.6128 -0.1639 -1.0488
   82SOPE   H91 7514   1.981   5.179   6.516 -0.2271 -0.0050 -0.3150
   82SOPE  C210 7515   1.820   5.116   6.397 -0.2408 -0.0604 -0.0430
   82SOPE  H101 7516   1.777   5.217   6.393 -0.6788 -0.2457 -3.6450
   82SOPE  C211 7517   1.736   5.013   6.338  0.6775 -0.7322 -0.1580
   82SOPE  H11R 7518   1.632   5.020   6.376  0.5772  0.2214 -0.5815
   82SOPE  H11S 7519   1.772   4.914   6.373  1.3205 -1.0356 -1.6179
   82SOPE  C212 7520   1.751   5.009   6.186 -0.5910  0.6560  0.2703
   82SOPE  H12R 7521   1.861   5.016   6.174 -0.5485  2.1184  1.2062
   82SOPE  H12S 7522   1.708   5.105   6.149  0.1656  0.4073 -1.3430
   82SOPE  C213 7523   1.696   4.882   6.122 -0.4441  1.0061 -0.2189
   82SOPE  H13R 7524   1.585   4.884   6.124 -0.4510  2.5738 -0.8214
   82SOPE  H13S 7525   1.737   4.799   6.184  0.3083  2.2735  1.0507
   82SOPE  C214 7526   1.753   4.849   5.982  0.0662  0.3339  0.3590
   82SOPE  H14R 7527   1.857   4.811   5.978  0.0959  0.3017  1.2490
   82SOPE  H14S 7528   1.750   4.942   5.920  2.1836 -0.6003 -1.2780
   82SOPE  C215 7529   1.665   4.752   5.897 -0.1735  0.4883  0.0633
   82SOPE  H15R 7530   1.559   4.777   5.919  0.0042  3.4516 -1.9469
   82SOPE  H15S 7531   1.698   4.651   5.932  0.8060 -0.2910 -2.8448
   82SOPE  C216 7532   1.687   4.767   5.743  0.1226 -0.3960 -0.2828
   82SOPE  H16R 7533   1.794   4.777   5.719  0.1687 -1.4777 -0.5800
   82SOPE  H16S 7534   1.639   4.862   5.710 -0.5137 -1.2428 -1.9113
   82SOPE  C217 7535   1.626   4.657   5.651 -0.0636  0.3837  0.8839
   82SOPE  H17R 7536   1.517   4.641   5.668 -0.1265 -0.2742 -0.0827
   82SOPE  H17S 7537   1.677   4.562   5.679  1.5484  0.0297 -2.6916
   82SOPE  C218 7538   1.655   4.700   5.506 -0.6963  0.9774  0.1291
   82SOPE  H18R 7539   1.629   4.618   5.436  2.7370  1.2519 -1.6553
   82SOPE  H18S 7540   1.765   4.686   5.500 -0.9527 -1.1724 -0.5016
   82SOPE  H18T 7541   1.619   4.796   5.464 -2.9892 -1.0365 -2.9810
   82SOPE   C33 7542   1.594   5.410   6.983  0.3138 -0.0253  0.6565
   82SOPE   H3X 7543   1.702   5.418   6.960  0.2734  1.7592  0.9443
   82SOPE   H3Y 7544   1.556   5.511   7.010  1.1144  0.0713  1.5054
   82SOPE   C34 7545   1.531   5.362   6.853  0.1187  0.0679  0.0485
   82SOPE   H4X 7546   1.423   5.372   6.875 -0.3368 -2.4076 -0.6650
   82SOPE   H4Y 7547   1.556   5.253   6.856  1.9245  0.4355 -0.5665
   82SOPE   C35 7548   1.584   5.430   6.723  0.0006  0.5312 -0.0627
   82SOPE   H5X 7549   1.694   5.414   6.720 -0.1845 -0.8576 -0.3913
   82SOPE   H5Y 7550   1.573   5.539   6.742  1.2282  0.4587  1.2020
   82SOPE   C36 7551   1.503   5.376   6.602  0.3804  0.4220 -0.2564
   82SOPE   H6X 7552   1.397   5.403   6.619  0.5205 -0.4015  2.2351
   82SOPE   H6Y 7553   1.491   5.266   6.606 -1.2021  0.6132  2.0554
   82SOPE   C37 7554   1.563   5.411   6.468 -0.3287 -0.1615 -0.7217
   82SOPE   H7X 7555   1.671   5.388   6.472 -0.7356 -2.2006 -0.1174
   82SOPE   H7Y 7556   1.547   5.518   6.445 -0.6990  0.1601  0.8915
   82SOPE   C38 7557   1.500   5.328   6.354  0.0488  0.7856  0.9253
   82SOPE   H8X 7558   1.390   5.343   6.350  0.1923  1.6091 -1.6645
   82SOPE   H8Y 7559   1.509   5.217   6.359 -1.3208  0.6125  0.1213
   82SOPE   C39 7560   1.551   5.366   6.206 -0.1699 -0.3046 -0.0329
   82SOPE   H9X 7561   1.657   5.336   6.194 -0.7013 -2.3164 -0.1996
   82SOPE   H9Y 7562   1.537   5.476   6.198 -0.8775 -0.4239 -0.5422
   82SOPE  C310 7563   1.474   5.308   6.090  0.5281  0.1372 -0.1279
   82SOPE  H10X 7564   1.373   5.354   6.099  0.9176  1.0941 -0.4689
   82SOPE  H10Y 7565   1.476   5.197   6.096  0.6781  0.1980  1.2036
   82SOPE  C311 7566   1.527   5.351   5.945 -0.8730 -0.4154 -0.0482
   82SOPE  H11X 7567   1.582   5.447   5.952 -1.6382 -0.0853  2.4377
   82SOPE  H11Y 7568   1.445   5.335   5.872 -0.8973  0.5705 -0.2531
   82SOPE  C312 7569   1.637   5.255   5.897  0.1208  0.3197 -0.4996
   82SOPE  H12X 7570   1.609   5.149   5.918 -0.5751  0.3559 -1.2095
   82SOPE  H12Y 7571   1.726   5.258   5.964 -0.4129 -2.5767  0.5120
   82SOPE  C313 7572   1.691   5.281   5.760  0.6464  0.1636  0.2813
   82SOPE  H13X 7573   1.775   5.210   5.745  2.1199  1.7707  0.6357
   82SOPE  H13Y 7574   1.729   5.385   5.769 -1.4091  0.8120  2.3349
   82SOPE  C314 7575   1.595   5.271   5.645  0.5632 -0.0697  0.5730
   82SOPE  H14X 7576   1.653   5.275   5.550 -1.7026  1.2491 -0.8581
   82SOPE  H14Y 7577   1.527   5.357   5.628  0.4577 -0.6755 -2.9512
   82SOPE  C315 7578   1.507   5.148   5.651  0.5646 -0.5197  0.7144
   82SOPE  H15X 7579   1.451   5.134   5.746 -1.6426 -1.8295 -0.6897
   82SOPE  H15Y 7580   1.572   5.058   5.637 -0.1925 -0.8729 -0.7746
   82SOPE  C316 7581   1.396   5.135   5.536 -0.5192  0.2999  0.3079
   82SOPE  H16X 7582   1.438   5.169   5.439 -0.1146  0.2052  0.4505
   82SOPE  H16Y 7583   1.316   5.206   5.567 -1.1713  0.3198 -1.3300
   82SOPE  C317 7584   1.354   4.991   5.520 -0.2544 -0.2714 -0.7451
   82SOPE  H17X 7585   1.364   4.947   5.622  0.5517  1.9680  0.1990
   82SOPE  H17Y 7586   1.419   4.927   5.457  0.2340 -0.9776  0.4397
   82SOPE  C318 7587   1.211   4.962   5.480 -0.4920 -0.3173  0.4441
   82SOPE  H18X 7588   1.181   4.999   5.379  0.2414 -1.8695 -0.3672
   82SOPE  H18Y 7589   1.132   4.991   5.553 -0.9204 -0.0809 -0.0981
   82SOPE  H18Z 7590   1.199   4.852   5.469 -0.6098 -0.5096  2.3009
   83SOPE     N 7591   5.597   1.406   2.882  0.4502  0.3072 -0.0754
   83SOPE   HN1 7592   5.689   1.439   2.919 -0.1610  1.0325  0.8137
   83SOPE   HN2 7593   5.527   1.429   2.955 -0.8762 -1.4380 -0.7456
   83SOPE   HN3 7594   5.614   1.307   2.857  2.1347  1.1200 -2.6472
   83SOPE   C12 7595   5.563   1.483   2.756 -0.8981  0.5518  0.4066
   83SOPE  H12A 7596   5.471   1.443   2.707  0.5490  0.4538 -2.4447
   83SOPE  H12B 7597   5.650   1.467   2.689 -0.1818 -0.5568  1.5549
   83SOPE   C11 7598   5.552   1.634   2.799  0.1976  0.0422 -0.0881
   83SOPE  H11A 7599   5.481   1.667   2.720 -0.9906 -1.9900  0.0618
   83SOPE  H11B 7600   5.654   1.677   2.794  0.5884 -0.6665  1.4169
   83SOPE     P 7601   5.421   1.804   2.959 -0.7987  0.0482 -0.0093
   83SOPE   O13 7602   5.374   1.869   2.833 -0.5934 -0.4097  0.4219
   83SOPE   O14 7603   5.526   1.869   3.044  0.1381  0.7349 -0.6574
   83SOPE   O12 7604   5.480   1.654   2.928 -0.3150  0.0473 -0.8683
   83SOPE   O11 7605   5.304   1.775   3.051  0.0945 -0.7118 -0.7579
   83SOPE    C1 7606   5.308   1.757   3.193  0.0695  0.4696 -0.1232
   83SOPE    HA 7607   5.409   1.719   3.219  0.6300  0.4605 -2.1580
   83SOPE    HB 7608   5.227   1.689   3.227  0.0678 -0.3751 -1.7109
   83SOPE    C2 7609   5.297   1.889   3.254  0.5950 -0.0470 -0.2930
   83SOPE    HS 7610   5.354   1.964   3.196 -1.6856  1.0803 -1.1868
   83SOPE   O21 7611   5.356   1.873   3.387 -0.3507 -0.5079 -0.0826
   83SOPE   C21 7612   5.399   1.981   3.457  0.2043 -0.4190 -0.2052
   83SOPE   O22 7613   5.417   2.093   3.406  0.6775 -0.3510  0.4584
   83SOPE   C22 7614   5.431   1.952   3.607 -0.7739 -0.4041  0.2855
   83SOPE   H2R 7615   5.539   1.923   3.612 -0.6302 -0.6335 -2.5166
   83SOPE   H2S 7616   5.367   1.866   3.635  1.4894 -2.0699  0.7028
   83SOPE    C3 7617   5.148   1.937   3.259 -0.2380  0.1176 -0.0885
   83SOPE    HX 7618   5.118   1.961   3.155  0.3170  0.5644 -0.1532
   83SOPE    HY 7619   5.133   2.027   3.322 -2.5337  0.0352 -0.4287
   83SOPE   O31 7620   5.069   1.828   3.314  0.6153 -0.2544  0.3142
   83SOPE   C31 7621   4.947   1.867   3.352 -0.0687  0.3397  0.0161
   83SOPE   O32 7622   4.905   1.975   3.343  0.5628 -0.5691 -0.6379
   83SOPE   C32 7623   4.878   1.758   3.435  0.3867  0.9294 -0.7942
   83SOPE   H2X 7624   4.930   1.737   3.531 -1.1841  1.7841  0.2836
   83SOPE   H2Y 7625   4.864   1.668   3.371 -0.0467  0.2339  0.2520
   83SOPE   C23 7626   5.406   2.074   3.695  0.0263 -0.5866 -0.2180
   83SOPE   H3R 7627   5.462   2.156   3.645 -1.0986  0.0926 -0.4132
   83SOPE   H3S 7628   5.439   2.059   3.799  2.3175 -2.5986 -1.1594
   83SOPE   C24 7629   5.259   2.117   3.705  0.1606 -0.0588  0.2141
   83SOPE   H4R 7630   5.257   2.217   3.754 -3.9349  1.2134 -2.0863
   83SOPE   H4S 7631   5.221   2.122   3.601  0.1142  0.9682  0.2636
   83SOPE   C25 7632   5.169   2.023   3.779  0.1266  0.0757 -0.5236
   83SOPE   H5R 7633   5.069   2.055   3.742 -0.9704 -1.5894  0.8899
   83SOPE   H5S 7634   5.189   1.921   3.741  4.6139  0.5843 -0.0720
   83SOPE   C26 7635   5.171   2.025   3.938 -0.8256  0.7805 -0.6996
   83SOPE   H6R 7636   5.094   1.951   3.968  1.2302 -1.0889  0.2608
   83SOPE   H6S 7637   5.272   1.984   3.959 -0.3728  2.9829  2.0963
   83SOPE   C27 7638   5.156   2.167   3.995  0.1042 -0.3148  0.0546
   83SOPE   H7R 7639   5.243   2.231   3.970  1.3750 -0.7580  3.0028
   83SOPE   H7S 7640   5.067   2.199   3.937  1.3374  0.1304 -1.6786
   83SOPE   C28 7641   5.106   2.178   4.139 -0.0698 -0.2673 -0.1441
   83SOPE   H8R 7642   5.067   2.278   4.170  0.7210 -0.6333  2.2530
   83SOPE   H8S 7643   5.012   2.120   4.151 -0.2863  0.1032 -0.0221
   83SOPE   C29 7644   5.225   2.131   4.222  0.5003  0.1546 -0.1246
   83SOPE   H91 7645   5.305   2.207   4.224  0.8183 -0.1783  0.1041
   83SOPE  C210 7646   5.236   2.018   4.302  0.2641 -0.6313 -0.0763
   83SOPE  H101 7647   5.331   1.989   4.349  0.4074 -0.6573 -0.3774
   83SOPE  C211 7648   5.123   1.914   4.310  1.0864  0.1534  0.0374
   83SOPE  H11R 7649   5.049   1.928   4.228  0.1451  3.3698  1.2752
   83SOPE  H11S 7650   5.083   1.940   4.410 -1.3221 -1.4427 -0.4244
   83SOPE  C212 7651   5.178   1.767   4.299 -0.0836  0.0482 -0.1316
   83SOPE  H12R 7652   5.282   1.767   4.338 -0.0620  0.4912 -0.1837
   83SOPE  H12S 7653   5.172   1.726   4.196 -1.9712  1.8523 -0.8166
   83SOPE  C213 7654   5.096   1.669   4.386  0.2542  0.6741  0.3164
   83SOPE  H13R 7655   5.074   1.722   4.480 -0.6080  3.3701 -1.3013
   83SOPE  H13S 7656   5.152   1.576   4.410  3.6956  2.9631  1.8971
   83SOPE  C214 7657   4.958   1.630   4.323  0.4914 -0.0094 -0.0271
   83SOPE  H14R 7658   4.985   1.578   4.228 -0.5831 -1.4408  0.4114
   83SOPE  H14S 7659   4.894   1.715   4.293 -3.4853 -3.0218 -0.8382
   83SOPE  C215 7660   4.872   1.539   4.416 -0.3506 -0.6959  0.3328
   83SOPE  H15R 7661   4.941   1.457   4.447 -0.3908 -0.1746  1.9162
   83SOPE  H15S 7662   4.787   1.494   4.360  0.9414 -0.8789 -1.5599
   83SOPE  C216 7663   4.824   1.615   4.535  0.4247  0.4039 -0.0407
   83SOPE  H16R 7664   4.747   1.689   4.503  0.7944  0.6763 -0.3054
   83SOPE  H16S 7665   4.908   1.664   4.589 -0.6794  0.0167  2.1601
   83SOPE  C217 7666   4.765   1.527   4.643 -0.6526  0.1410 -0.2857
   83SOPE  H17R 7667   4.824   1.437   4.669  2.0229  1.4868 -1.2698
   83SOPE  H17S 7668   4.669   1.507   4.591 -0.3075 -0.9777 -0.5156
   83SOPE  C218 7669   4.727   1.591   4.774  0.6682  0.0059  0.0958
   83SOPE  H18R 7670   4.817   1.611   4.835 -0.1981  0.8547  1.1348
   83SOPE  H18S 7671   4.660   1.519   4.827 -2.0902  1.7141 -0.8821
   83SOPE  H18T 7672   4.669   1.683   4.752 -1.1495 -1.5301 -1.9530
   83SOPE   C33 7673   4.740   1.799   3.468  0.6843  0.1525  0.2316
   83SOPE   H3X 7674   4.672   1.712   3.482  0.0430  0.7150  0.6396
   83SOPE   H3Y 7675   4.689   1.857   3.388 -1.2428  0.3110  1.5047
   83SOPE   C34 7676   4.731   1.892   3.591  0.3856 -0.0436 -0.0087
   83SOPE   H4X 7677   4.642   1.957   3.594 -0.0146 -0.6110  1.7067
   83SOPE   H4Y 7678   4.820   1.959   3.594 -0.3631  0.9536  0.3510
   83SOPE   C35 7679   4.730   1.813   3.722 -0.4736 -0.4359  0.1309
   83SOPE   H5X 7680   4.818   1.745   3.716 -0.7461 -0.9485  1.4768
   83SOPE   H5Y 7681   4.642   1.746   3.728  0.4828 -1.6393  1.5642
   83SOPE   C36 7682   4.748   1.907   3.845 -0.1550  0.5212 -0.0262
   83SOPE   H6X 7683   4.672   1.988   3.843 -0.8778 -0.1475 -1.3697
   83SOPE   H6Y 7684   4.844   1.960   3.830 -0.6609  1.6919  0.7268
   83SOPE   C37 7685   4.759   1.833   3.975  0.5341 -0.0787 -0.1609
   83SOPE   H7X 7686   4.810   1.900   4.047 -0.1853  1.7745 -1.3253
   83SOPE   H7Y 7687   4.827   1.746   3.963  2.4449  1.3892 -0.3530
   83SOPE   C38 7688   4.618   1.821   4.032  0.2834  0.6061 -0.1225
   83SOPE   H8X 7689   4.548   1.772   3.960 -0.4471  1.9121 -0.3382
   83SOPE   H8Y 7690   4.586   1.924   4.057  0.2736  0.9089 -1.3196
   83SOPE   C39 7691   4.611   1.743   4.170 -0.9150  0.0804  0.3511
   83SOPE   H9X 7692   4.686   1.793   4.235  0.2646  0.4710 -1.2384
   83SOPE   H9Y 7693   4.639   1.637   4.150 -0.8648  0.0574  0.5409
   83SOPE  C310 7694   4.475   1.744   4.235 -0.2261  0.1494  0.0364
   83SOPE  H10X 7695   4.408   1.707   4.154  0.2640  3.0931 -1.8763
   83SOPE  H10Y 7696   4.443   1.845   4.267 -2.2946 -1.2356  2.7391
   83SOPE  C311 7697   4.453   1.659   4.359  0.2544 -0.0203 -0.3602
   83SOPE  H11X 7698   4.540   1.670   4.427  0.4834  1.1938 -0.8204
   83SOPE  H11Y 7699   4.463   1.557   4.318  0.0142  0.0703 -0.6496
   83SOPE  C312 7700   4.322   1.672   4.438 -0.2770 -0.3473 -0.5303
   83SOPE  H12X 7701   4.283   1.568   4.447 -0.7029 -0.2187 -0.8843
   83SOPE  H12Y 7702   4.250   1.728   4.375  0.2606 -0.1002 -0.9323
   83SOPE  C313 7703   4.349   1.734   4.579  0.7442 -0.3192  0.3468
   83SOPE  H13X 7704   4.379   1.841   4.579 -0.5933  0.0873  1.9309
   83SOPE  H13Y 7705   4.426   1.667   4.622 -0.0639 -2.2046 -0.9885
   83SOPE  C314 7706   4.227   1.722   4.667 -0.3517 -0.1598  0.4413
   83SOPE  H14X 7707   4.217   1.611   4.671  1.2693 -0.2994  1.3141
   83SOPE  H14Y 7708   4.145   1.777   4.615  0.5812  0.4157 -0.4529
   83SOPE  C315 7709   4.263   1.779   4.808 -0.0550 -0.3119  0.2662
   83SOPE  H15X 7710   4.306   1.881   4.797  1.5181 -1.0179 -0.5580
   83SOPE  H15Y 7711   4.339   1.718   4.863  2.5739  1.7336 -0.8627
   83SOPE  C316 7712   4.134   1.795   4.888  0.4665 -0.7641 -0.5865
   83SOPE  H16X 7713   4.065   1.709   4.879 -1.6623  0.7333  0.6495
   83SOPE  H16Y 7714   4.068   1.875   4.849 -2.7345 -1.8537  2.1084
   83SOPE  C317 7715   4.163   1.817   5.032 -0.4970 -0.1757  0.6057
   83SOPE  H17X 7716   4.211   1.917   5.045 -1.1103  0.1461  0.4311
   83SOPE  H17Y 7717   4.229   1.737   5.072 -2.3129 -1.4393  1.1989
   83SOPE  C318 7718   4.037   1.798   5.120  0.1705  0.2631 -0.2555
   83SOPE  H18X 7719   4.047   1.819   5.229 -0.6778 -2.0335  0.3403
   83SOPE  H18Y 7720   4.013   1.689   5.122  1.3585 -0.0187 -0.2390
   83SOPE  H18Z 7721   3.947   1.849   5.080  0.6607  0.1909 -1.4893
   84SOPE     N 7722   6.095   5.851   3.085 -0.1241  0.3587 -0.1385
   84SOPE   HN1 7723   6.177   5.890   3.034  1.3761 -0.2664  1.6773
   84SOPE   HN2 7724   6.080   5.755   3.046 -2.4832  0.4117  0.5187
   84SOPE   HN3 7725   6.014   5.911   3.064  0.7578  1.0792 -1.6869
   84SOPE   C12 7726   6.131   5.839   3.228  0.5906 -0.5029  0.3611
   84SOPE  H12A 7727   6.046   5.794   3.283 -0.3093 -0.7858 -1.1949
   84SOPE  H12B 7728   6.155   5.937   3.275 -0.3880 -0.4539  0.7749
   84SOPE   C11 7729   6.248   5.740   3.244  0.5034  0.0385  0.0696
   84SOPE  H11A 7730   6.204   5.649   3.198  1.8669  0.5577 -2.4964
   84SOPE  H11B 7731   6.264   5.732   3.353  2.4344  0.2129 -0.1626
   84SOPE     P 7732   6.488   5.683   3.154  0.1679  0.1938 -0.3961
   84SOPE   O13 7733   6.591   5.757   3.076 -0.3085  0.3869  0.5470
   84SOPE   O14 7734   6.443   5.552   3.094  0.6001 -0.4805  0.0202
   84SOPE   O12 7735   6.369   5.786   3.172 -0.2142  0.3041 -0.0365
   84SOPE   O11 7736   6.536   5.663   3.303 -0.4141 -0.4014 -0.0036
   84SOPE    C1 7737   6.538   5.532   3.358  0.1100 -0.8303  0.1346
   84SOPE    HA 7738   6.574   5.447   3.296  0.4859 -1.7485  1.5724
   84SOPE    HB 7739   6.433   5.514   3.390  0.4137  0.6448  2.1394
   84SOPE    C2 7740   6.637   5.528   3.482  0.1073  0.1615 -0.1600
   84SOPE    HS 7741   6.639   5.425   3.525  1.3911  0.6879  1.1180
   84SOPE   O21 7742   6.602   5.614   3.586  0.4128 -0.4976 -0.2105
   84SOPE   C21 7743   6.490   5.580   3.645  0.0029  0.2252  0.6211
   84SOPE   O22 7744   6.414   5.492   3.609 -0.2572 -0.2488 -0.0050
   84SOPE   C22 7745   6.466   5.662   3.776 -0.5136 -0.3488  0.2377
   84SOPE   H2R 7746   6.411   5.751   3.738  0.1900  0.2126  0.5081
   84SOPE   H2S 7747   6.566   5.698   3.809 -0.3052 -0.3493 -0.3691
   84SOPE    C3 7748   6.790   5.554   3.435 -0.1039 -0.2575  0.2857
   84SOPE    HX 7749   6.801   5.652   3.384  2.1532 -0.3399  0.5457
   84SOPE    HY 7750   6.818   5.477   3.360  0.6454 -0.0289  0.3242
   84SOPE   O31 7751   6.881   5.533   3.544  0.1508 -0.6237 -0.2989
   84SOPE   C31 7752   6.948   5.636   3.600 -0.4395  0.9134 -0.1891
   84SOPE   O32 7753   6.920   5.752   3.584  0.5849 -0.1135  0.5603
   84SOPE   C32 7754   7.067   5.590   3.684 -0.0331  0.2578  0.3418
   84SOPE   H2X 7755   7.159   5.631   3.636 -1.1112  1.4850 -0.7385
   84SOPE   H2Y 7756   7.070   5.479   3.678 -1.0799  0.3245 -2.9050
   84SOPE   C23 7757   6.394   5.585   3.885  0.1265 -0.0721 -0.6709
   84SOPE   H3R 7758   6.289   5.558   3.861  0.1262  0.6349 -1.5286
   84SOPE   H3S 7759   6.393   5.645   3.979  1.1593 -0.7332 -0.2230
   84SOPE   C24 7760   6.460   5.453   3.926  0.1091 -0.4108 -0.3703
   84SOPE   H4R 7761   6.482   5.383   3.843 -1.6325 -1.1018 -0.2929
   84SOPE   H4S 7762   6.563   5.486   3.951 -0.2990  2.0287 -1.6045
   84SOPE   C25 7763   6.410   5.394   4.059  0.2369 -0.1860 -0.7624
   84SOPE   H5R 7764   6.387   5.472   4.134 -0.0428 -0.9246 -0.0604
   84SOPE   H5S 7765   6.312   5.342   4.049 -0.9408  2.0047 -1.2222
   84SOPE   C26 7766   6.520   5.299   4.112 -0.5891  0.1286  0.2786
   84SOPE   H6R 7767   6.520   5.211   4.045 -0.6670  0.2602  0.1034
   84SOPE   H6S 7768   6.621   5.342   4.131 -0.9200  0.7242  0.7434
   84SOPE   C27 7769   6.490   5.259   4.259  0.4558  0.2103  0.0314
   84SOPE   H7R 7770   6.383   5.233   4.278  1.0327 -2.0065  0.5179
   84SOPE   H7S 7771   6.551   5.168   4.276 -1.6519 -1.3180 -0.2821
   84SOPE   C28 7772   6.533   5.366   4.362  0.1023  0.5691 -0.9071
   84SOPE   H8R 7773   6.644   5.367   4.366  0.1008 -0.2012  2.4876
   84SOPE   H8S 7774   6.490   5.464   4.331  0.1034  0.7222 -0.4350
   84SOPE   C29 7775   6.478   5.342   4.504 -1.0541  0.4452 -0.3019
   84SOPE   H91 7776   6.403   5.418   4.531 -1.1927 -0.3696  1.7676
   84SOPE  C210 7777   6.535   5.263   4.592  0.6344 -0.0629  0.1176
   84SOPE  H101 7778   6.503   5.262   4.697  2.1420  0.4706  0.6181
   84SOPE  C211 7779   6.661   5.181   4.563  0.3677  0.2882  0.6016
   84SOPE  H11R 7780   6.738   5.237   4.506  0.5638 -1.6283 -1.1306
   84SOPE  H11S 7781   6.638   5.102   4.488 -0.0007 -0.4623  1.4915
   84SOPE  C212 7782   6.712   5.118   4.691  0.5595  0.1164  0.4028
   84SOPE  H12R 7783   6.778   5.033   4.664 -2.9048 -2.3891 -0.8563
   84SOPE  H12S 7784   6.629   5.062   4.740 -0.4062  3.1360  2.5132
   84SOPE  C213 7785   6.776   5.209   4.791  0.2643 -0.2669  0.0391
   84SOPE  H13R 7786   6.720   5.302   4.810  3.0556  1.2509  1.4421
   84SOPE  H13S 7787   6.877   5.236   4.753  1.8478 -1.2942  3.1365
   84SOPE  C214 7788   6.796   5.136   4.925  0.5053 -0.1836  0.2734
   84SOPE  H14R 7789   6.850   5.204   4.994 -1.4058  0.9672  0.6963
   84SOPE  H14S 7790   6.869   5.055   4.905  1.0887  0.3319  0.2845
   84SOPE  C215 7791   6.668   5.087   4.992 -0.0763  0.1509 -0.2284
   84SOPE  H15R 7792   6.637   4.995   4.939 -1.2379  1.5423 -2.0717
   84SOPE  H15S 7793   6.598   5.172   4.983 -1.7449 -0.7947  2.6162
   84SOPE  C216 7794   6.664   5.068   5.145 -0.1504  0.5888 -0.0758
   84SOPE  H16R 7795   6.575   5.115   5.191 -0.9890 -1.1309  0.1012
   84SOPE  H16S 7796   6.755   5.121   5.181  0.7816  0.7962 -2.5009
   84SOPE  C217 7797   6.684   4.913   5.175  0.3205  0.1240  0.4244
   84SOPE  H17R 7798   6.698   4.901   5.284 -1.7253  2.3196  1.0104
   84SOPE  H17S 7799   6.773   4.886   5.115  1.0217  1.1413  0.9869
   84SOPE  C218 7800   6.564   4.823   5.132  0.3179 -0.6750 -0.7459
   84SOPE  H18R 7801   6.558   4.819   5.021  0.6681 -1.1395 -0.7542
   84SOPE  H18S 7802   6.470   4.871   5.167  1.1602  1.4129 -1.2142
   84SOPE  H18T 7803   6.569   4.723   5.180  0.7940 -0.5409 -0.5120
   84SOPE   C33 7804   7.051   5.633   3.830 -0.1353  0.3276 -0.7129
   84SOPE   H3X 7805   7.040   5.739   3.861  2.5697 -0.3375  3.3165
   84SOPE   H3Y 7806   7.148   5.607   3.878 -0.7391  1.9400  1.5738
   84SOPE   C34 7807   6.933   5.559   3.893  0.4017  0.3311 -0.5102
   84SOPE   H4X 7808   6.931   5.457   3.848  1.5094 -0.1135  0.3994
   84SOPE   H4Y 7809   6.839   5.612   3.866 -0.1130 -0.4272 -0.2337
   84SOPE   C35 7810   6.930   5.547   4.042 -0.1932  0.4233  0.2608
   84SOPE   H5X 7811   7.022   5.506   4.089  1.0000  2.8736  0.2105
   84SOPE   H5Y 7812   6.841   5.493   4.081  1.1639 -1.7166  0.5623
   84SOPE   C36 7813   6.930   5.681   4.116 -0.2166 -0.3093  0.2494
   84SOPE   H6X 7814   6.861   5.745   4.055 -1.1549  0.1439  1.7314
   84SOPE   H6Y 7815   7.020   5.744   4.101 -1.9711  1.8906 -1.9819
   84SOPE   C37 7816   6.888   5.682   4.260 -0.5910 -0.3001  0.5005
   84SOPE   H7X 7817   6.785   5.643   4.270 -0.3078 -1.0185  0.7004
   84SOPE   H7Y 7818   6.880   5.788   4.291 -1.7987 -0.7694  1.8851
   84SOPE   C38 7819   6.974   5.593   4.359 -0.1553 -0.8351  0.2503
   84SOPE   H8X 7820   7.082   5.622   4.360 -0.3667  0.0771 -0.7967
   84SOPE   H8Y 7821   6.978   5.488   4.323  0.8833 -0.4892 -0.6833
   84SOPE   C39 7822   6.909   5.590   4.502 -0.0050 -0.0476  0.1679
   84SOPE   H9X 7823   6.823   5.520   4.513  0.7285 -0.7229  2.0977
   84SOPE   H9Y 7824   6.867   5.691   4.522 -1.1416 -0.3518 -0.5582
   84SOPE  C310 7825   7.001   5.549   4.615  0.1295 -0.3051 -0.5398
   84SOPE  H10X 7826   7.102   5.594   4.616 -0.4913  1.1600 -0.8240
   84SOPE  H10Y 7827   7.017   5.440   4.604  1.5536 -0.4253  1.9217
   84SOPE  C311 7828   6.935   5.558   4.753 -0.2092  0.4635 -0.7052
   84SOPE  H11X 7829   6.845   5.493   4.758  0.0296  0.2011  0.2958
   84SOPE  H11Y 7830   6.894   5.658   4.779 -2.3958 -0.5470 -0.0419
   84SOPE  C312 7831   7.023   5.510   4.864 -0.3489 -0.1030  0.3894
   84SOPE  H12X 7832   7.114   5.573   4.877  0.7088 -1.5033  0.0604
   84SOPE  H12Y 7833   7.061   5.407   4.843  0.5910 -0.4917  3.4297
   84SOPE  C313 7834   6.948   5.489   4.996  0.4783 -0.3029  0.0390
   84SOPE  H13X 7835   6.849   5.439   4.981 -0.1200  0.7694  0.2680
   84SOPE  H13Y 7836   6.919   5.589   5.036 -0.5384 -1.5370  2.5914
   84SOPE  C314 7837   7.015   5.397   5.092 -1.1171  0.0752  0.2230
   84SOPE  H14X 7838   7.051   5.309   5.034 -2.2265  0.3471 -0.9106
   84SOPE  H14Y 7839   6.949   5.370   5.177  0.4086  0.6127  1.6404
   84SOPE  C315 7840   7.142   5.459   5.159 -0.0053  0.0642 -0.2630
   84SOPE  H15X 7841   7.126   5.550   5.220 -0.5196 -1.5362  2.1232
   84SOPE  H15Y 7842   7.218   5.483   5.082  0.6294  0.5470  0.5042
   84SOPE  C316 7843   7.209   5.364   5.264  0.0779  0.5110  0.0067
   84SOPE  H16X 7844   7.138   5.341   5.347  0.9203 -1.1820  0.2962
   84SOPE  H16Y 7845   7.286   5.430   5.308  0.4691  0.9771 -1.3352
   84SOPE  C317 7846   7.259   5.227   5.205 -0.4019  0.6895  0.2740
   84SOPE  H17X 7847   7.295   5.251   5.103  1.5496 -0.2792  0.6882
   84SOPE  H17Y 7848   7.174   5.160   5.183 -0.5487  1.2838 -1.0464
   84SOPE  C318 7849   7.369   5.162   5.283 -0.1973  0.6780 -0.8617
   84SOPE  H18X 7850   7.345   5.141   5.389  0.4250  2.1589 -0.3954
   84SOPE  H18Y 7851   7.452   5.237   5.283  1.4283 -1.0215  0.5510
   84SOPE  H18Z 7852   7.403   5.067   5.237 -0.1856 -0.5720  1.5698
   85SOPE     N 7853   1.786   6.707   2.734  0.1535 -0.0769  0.4471
   85SOPE   HN1 7854   1.877   6.695   2.783  0.6798 -0.3033 -0.5562
   85SOPE   HN2 7855   1.795   6.735   2.634 -1.2335  1.4373  0.7011
   85SOPE   HN3 7856   1.728   6.789   2.760 -0.0644  1.0112 -3.0053
   85SOPE   C12 7857   1.711   6.585   2.750  0.0521  0.4357  0.3750
   85SOPE  H12A 7858   1.766   6.504   2.697  2.0439  1.9700 -0.0396
   85SOPE  H12B 7859   1.613   6.603   2.701  0.4027  0.5491 -0.3030
   85SOPE   C11 7860   1.686   6.553   2.898 -0.6423  0.3361  0.5528
   85SOPE  H11A 7861   1.791   6.538   2.932 -1.3156  0.9013  3.0688
   85SOPE  H11B 7862   1.630   6.457   2.908  1.4616 -0.8357  1.8848
   85SOPE     P 7863   1.474   6.679   2.994 -0.2278 -0.0760 -0.3928
   85SOPE   O13 7864   1.393   6.654   2.872  0.6507 -0.6474  0.7720
   85SOPE   O14 7865   1.456   6.813   3.050  0.4488 -0.0955  0.2815
   85SOPE   O12 7866   1.629   6.663   2.967 -0.1888 -0.3660 -0.4011
   85SOPE   O11 7867   1.442   6.568   3.104  0.5934 -0.0700  0.3208
   85SOPE    C1 7868   1.380   6.603   3.222 -0.2881 -0.2701 -0.0127
   85SOPE    HA 7869   1.342   6.513   3.275 -3.4314 -0.3419 -2.1328
   85SOPE    HB 7870   1.289   6.663   3.202  1.0610  2.5765  1.6892
   85SOPE    C2 7871   1.475   6.683   3.325  0.9779  0.3448  0.6167
   85SOPE    HS 7872   1.467   6.788   3.290  2.0164  0.1071 -0.3613
   85SOPE   O21 7873   1.608   6.635   3.325  0.3947  0.6256  0.0356
   85SOPE   C21 7874   1.704   6.727   3.311  0.4225 -0.3321 -0.3854
   85SOPE   O22 7875   1.688   6.848   3.325  0.1760 -0.1068  0.1324
   85SOPE   C22 7876   1.840   6.654   3.300 -0.4051 -0.2471  0.2262
   85SOPE   H2R 7877   1.927   6.722   3.291 -0.7901  0.2495  0.1873
   85SOPE   H2S 7878   1.827   6.604   3.202 -1.7375  0.5373 -0.0177
   85SOPE    C3 7879   1.408   6.663   3.472  0.0359 -0.3654  0.5674
   85SOPE    HX 7880   1.444   6.566   3.511  1.1025 -2.2473 -4.3249
   85SOPE    HY 7881   1.297   6.666   3.469  0.0134  2.7576 -1.8481
   85SOPE   O31 7882   1.465   6.761   3.560  0.0278 -0.6351  0.0235
   85SOPE   C31 7883   1.402   6.776   3.670 -0.5405 -0.2572  0.7795
   85SOPE   O32 7884   1.300   6.718   3.699  0.3214  0.4545  0.0740
   85SOPE   C32 7885   1.463   6.899   3.743 -0.3840 -0.4972  0.5445
   85SOPE   H2X 7886   1.386   6.977   3.727 -0.7314 -1.1706 -1.3406
   85SOPE   H2Y 7887   1.559   6.926   3.694  0.3716 -2.9101  0.5568
   85SOPE   C23 7888   1.851   6.553   3.416  0.0878 -0.0929  0.0767
   85SOPE   H3R 7889   1.931   6.479   3.393  0.9344  0.5266  0.9470
   85SOPE   H3S 7890   1.755   6.499   3.434 -0.2641 -0.2290 -1.9617
   85SOPE   C24 7891   1.892   6.628   3.546 -0.0219  0.2131  0.0571
   85SOPE   H4R 7892   1.973   6.700   3.522 -0.5113 -0.3196 -3.7543
   85SOPE   H4S 7893   1.800   6.680   3.581  0.4260  0.6002  0.6801
   85SOPE   C25 7894   1.930   6.526   3.659 -0.5050  0.1263  0.6529
   85SOPE   H5R 7895   1.837   6.472   3.687  0.3756 -0.4789  2.6231
   85SOPE   H5S 7896   2.016   6.462   3.631  1.2211  1.6884  2.0889
   85SOPE   C26 7897   1.993   6.597   3.783 -0.2281 -0.1518  0.7551
   85SOPE   H6R 7898   2.035   6.515   3.845 -0.6656 -2.3581 -1.6979
   85SOPE   H6S 7899   2.083   6.658   3.758 -0.7769 -0.3326 -1.9985
   85SOPE   C27 7900   1.891   6.686   3.854 -0.4331  0.1428 -0.4164
   85SOPE   H7R 7901   1.876   6.782   3.800 -1.0515  0.6962  0.7136
   85SOPE   H7S 7902   1.794   6.631   3.855  0.0340 -0.6941  0.1305
   85SOPE   C28 7903   1.936   6.709   3.996 -0.0518 -0.5084  0.6078
   85SOPE   H8R 7904   1.995   6.628   4.044  3.0214  0.6369 -0.9510
   85SOPE   H8S 7905   2.014   6.789   3.991 -0.5333 -0.0793 -0.0852
   85SOPE   C29 7906   1.823   6.746   4.081  0.2660  0.3113  0.4701
   85SOPE   H91 7907   1.743   6.805   4.034 -1.3893 -1.1390  1.3162
   85SOPE  C210 7908   1.803   6.710   4.214 -0.3339  0.6141  0.1262
   85SOPE  H101 7909   1.713   6.752   4.261  0.0866 -0.9235  2.4669
   85SOPE  C211 7910   1.890   6.646   4.310 -0.2592 -0.4838  0.0061
   85SOPE  H11R 7911   1.967   6.712   4.356  1.0894  0.5464 -3.4410
   85SOPE  H11S 7912   1.947   6.558   4.272 -0.4776  0.1561 -1.8837
   85SOPE  C212 7913   1.809   6.597   4.426  0.7814  0.4206 -0.1679
   85SOPE  H12R 7914   1.753   6.507   4.391  0.9637  0.1988  0.1032
   85SOPE  H12S 7915   1.723   6.664   4.449 -0.6000 -1.5873  0.9500
   85SOPE  C213 7916   1.881   6.569   4.551 -0.0779 -0.0019 -0.0485
   85SOPE  H13R 7917   1.934   6.656   4.596  1.0425 -1.7987  2.3349
   85SOPE  H13S 7918   1.963   6.497   4.536  0.4942  0.5356  0.4278
   85SOPE  C214 7919   1.785   6.518   4.665  0.4030 -0.5540  0.5060
   85SOPE  H14R 7920   1.734   6.427   4.625  1.0868 -0.1389 -1.4187
   85SOPE  H14S 7921   1.701   6.587   4.685 -0.1007 -1.0706  0.2187
   85SOPE  C215 7922   1.864   6.497   4.797  0.6023 -0.7608 -0.5386
   85SOPE  H15R 7923   1.924   6.589   4.814 -0.8143  0.2675 -1.0053
   85SOPE  H15S 7924   1.935   6.413   4.776  1.2274 -0.6315  0.9636
   85SOPE  C216 7925   1.766   6.472   4.924  0.2457 -0.0925  1.5009
   85SOPE  H16R 7926   1.695   6.390   4.902 -1.6534  1.7757  0.3150
   85SOPE  H16S 7927   1.710   6.565   4.947  1.1746  0.4600  1.6137
   85SOPE  C217 7928   1.836   6.440   5.061 -0.5225  0.3502  0.3086
   85SOPE  H17R 7929   1.944   6.467   5.058  0.1068 -1.9945 -1.8614
   85SOPE  H17S 7930   1.849   6.329   5.058 -1.4190  0.2419 -2.0649
   85SOPE  C218 7931   1.755   6.482   5.183 -0.2463  0.2883  0.6902
   85SOPE  H18R 7932   1.654   6.438   5.171 -0.1027  0.1942 -0.2667
   85SOPE  H18S 7933   1.753   6.592   5.197 -1.1459  0.4256 -0.4157
   85SOPE  H18T 7934   1.794   6.432   5.275 -1.2568 -0.7580  0.5725
   85SOPE   C33 7935   1.465   6.882   3.897 -0.6475  0.1865 -0.1297
   85SOPE   H3X 7936   1.521   6.968   3.938  0.2334 -0.6981  0.5564
   85SOPE   H3Y 7937   1.520   6.787   3.913 -0.8137 -0.1403 -1.3646
   85SOPE   C34 7938   1.327   6.875   3.963  0.1428  0.0443  0.3851
   85SOPE   H4X 7939   1.275   6.778   3.951  1.9307 -0.9221  0.1470
   85SOPE   H4Y 7940   1.255   6.950   3.924 -1.2453 -0.5399  1.7195
   85SOPE   C35 7941   1.331   6.896   4.117 -0.8188 -0.9204 -0.0513
   85SOPE   H5X 7942   1.237   6.933   4.163 -0.4728 -2.3872  1.9911
   85SOPE   H5Y 7943   1.417   6.966   4.122 -2.3934  1.0188  1.0194
   85SOPE   C36 7944   1.375   6.765   4.188 -0.7921  0.0918  0.4041
   85SOPE   H6X 7945   1.465   6.722   4.138 -1.3833  1.5311 -2.0596
   85SOPE   H6Y 7946   1.302   6.685   4.167  0.5237 -0.8086 -0.9909
   85SOPE   C37 7947   1.407   6.775   4.333  0.7462  0.0992 -0.7133
   85SOPE   H7X 7948   1.479   6.856   4.357 -0.1678  0.8574 -0.4680
   85SOPE   H7Y 7949   1.447   6.674   4.354  0.6149 -0.5627 -3.3754
   85SOPE   C38 7950   1.287   6.800   4.424 -0.2783  0.3279 -0.4288
   85SOPE   H8X 7951   1.204   6.728   4.404 -1.5176  0.6002  3.0396
   85SOPE   H8Y 7952   1.247   6.903   4.415  0.5256  0.6349 -0.5699
   85SOPE   C39 7953   1.327   6.771   4.567 -0.3285 -1.0764 -0.4019
   85SOPE   H9X 7954   1.407   6.840   4.599 -2.0607  0.6742  0.3682
   85SOPE   H9Y 7955   1.374   6.671   4.581  0.6976 -0.2244  3.3401
   85SOPE  C310 7956   1.208   6.787   4.664  0.2154 -0.3899 -0.0112
   85SOPE  H10X 7957   1.134   6.705   4.649 -0.7750  0.8416 -2.4530
   85SOPE  H10Y 7958   1.157   6.885   4.654  1.6767  0.3476 -0.6629
   85SOPE  C311 7959   1.252   6.774   4.811 -0.8775  0.1234 -0.6164
   85SOPE  H11X 7960   1.169   6.801   4.881  0.8022  2.2369  0.6912
   85SOPE  H11Y 7961   1.326   6.855   4.828  0.5092 -0.8958 -1.5678
   85SOPE  C312 7962   1.305   6.637   4.855  0.2979  0.3207 -0.6038
   85SOPE  H12X 7963   1.386   6.602   4.787  0.6589  0.4095 -0.2220
   85SOPE  H12Y 7964   1.223   6.563   4.847  1.3221 -0.6662 -4.2168
   85SOPE  C313 7965   1.349   6.643   5.000 -0.4983 -1.2015 -0.4842
   85SOPE  H13X 7966   1.275   6.709   5.049  1.1074  1.5683 -1.5697
   85SOPE  H13Y 7967   1.449   6.692   4.999 -1.8150  1.6172 -2.3191
   85SOPE  C314 7968   1.358   6.502   5.065  0.1348 -0.0096 -0.0210
   85SOPE  H14X 7969   1.444   6.448   5.020  0.4504  0.1257  0.4117
   85SOPE  H14Y 7970   1.268   6.441   5.040  0.9314 -0.8155 -0.9759
   85SOPE  C315 7971   1.373   6.502   5.217  0.5573 -0.6419  0.0359
   85SOPE  H15X 7972   1.280   6.555   5.246  0.3905  0.5282 -2.3902
   85SOPE  H15Y 7973   1.458   6.567   5.248  0.1958 -0.0966 -0.1055
   85SOPE  C316 7974   1.386   6.361   5.279  0.6248 -0.2181  0.5017
   85SOPE  H16X 7975   1.473   6.305   5.239  0.9774  1.0354 -0.5341
   85SOPE  H16Y 7976   1.295   6.315   5.235 -0.6405  0.9137  1.8291
   85SOPE  C317 7977   1.360   6.357   5.433  0.2098 -0.1158  0.2816
   85SOPE  H17X 7978   1.368   6.252   5.466  0.0500 -0.3845 -0.5119
   85SOPE  H17Y 7979   1.259   6.399   5.452  0.9032  0.6738  2.6021
   85SOPE  C318 7980   1.471   6.431   5.499 -0.2654  0.5253 -0.8993
   85SOPE  H18X 7981   1.570   6.388   5.473 -0.0644 -1.1877  2.2763
   85SOPE  H18Y 7982   1.459   6.429   5.609  0.7043 -2.3933 -0.7708
   85SOPE  H18Z 7983   1.460   6.533   5.456 -1.4127  0.2828 -1.2120
   86SOPE     N 7984   3.745   4.692   2.865  0.8709  0.3500  0.1469
   86SOPE   HN1 7985   3.831   4.715   2.810  0.7392  0.6543  0.0657
   86SOPE   HN2 7986   3.770   4.601   2.909 -0.8835 -0.6289 -0.7869
   86SOPE   HN3 7987   3.664   4.670   2.804 -0.5341  1.9858  1.3349
   86SOPE   C12 7988   3.723   4.783   2.982  0.6490 -0.4358  0.1924
   86SOPE  H12A 7989   3.640   4.747   3.047  0.3477 -0.8642 -0.4210
   86SOPE  H12B 7990   3.695   4.880   2.936  0.6046 -1.7748 -2.8431
   86SOPE   C11 7991   3.842   4.799   3.069 -0.4360 -0.2780 -0.6132
   86SOPE  H11A 7992   3.817   4.856   3.161 -1.3516 -2.0252  0.2514
   86SOPE  H11B 7993   3.912   4.872   3.021 -0.4178 -0.4414 -0.8404
   86SOPE     P 7994   3.923   4.613   3.229 -0.4678  0.5417  0.6728
   86SOPE   O13 7995   3.952   4.712   3.341  0.8459  0.2391  0.3912
   86SOPE   O14 7996   4.016   4.505   3.198 -0.0043  0.2122 -0.0147
   86SOPE   O12 7997   3.916   4.680   3.089 -0.1059  0.1836 -0.2385
   86SOPE   O11 7998   3.773   4.549   3.247  0.2035  0.1222 -0.9147
   86SOPE    C1 7999   3.770   4.443   3.343 -0.7224  0.6160 -0.3005
   86SOPE    HA 8000   3.811   4.466   3.443  0.2300 -0.9855 -0.2830
   86SOPE    HB 8001   3.814   4.351   3.298  1.2809  0.8923  0.9530
   86SOPE    C2 8002   3.622   4.404   3.372  0.4162  0.1946 -0.7752
   86SOPE    HS 8003   3.574   4.379   3.275 -1.7639 -1.5875  0.6404
   86SOPE   O21 8004   3.557   4.503   3.445 -0.3562 -0.4392  0.5925
   86SOPE   C21 8005   3.488   4.585   3.366  0.2715 -0.9447 -0.5230
   86SOPE   O22 8006   3.457   4.569   3.251  0.5113 -0.7736  0.2012
   86SOPE   C22 8007   3.446   4.704   3.459 -0.5638 -0.3383  0.1273
   86SOPE   H2R 8008   3.424   4.661   3.559  0.7031 -0.5829  0.3102
   86SOPE   H2S 8009   3.354   4.756   3.423 -0.1637 -1.1487 -2.2437
   86SOPE    C3 8010   3.627   4.275   3.457  0.6383 -0.5971  0.3836
   86SOPE    HX 8011   3.682   4.295   3.551 -0.0775  0.6453  0.5596
   86SOPE    HY 8012   3.672   4.195   3.394  1.2483  0.0543 -0.0273
   86SOPE   O31 8013   3.492   4.240   3.499  0.5236 -0.0412  0.0405
   86SOPE   C31 8014   3.413   4.180   3.417  0.1558 -0.5042 -0.4644
   86SOPE   O32 8015   3.449   4.139   3.307  0.4780  0.2763  0.4130
   86SOPE   C32 8016   3.271   4.193   3.461 -0.4061  0.2709 -0.8083
   86SOPE   H2X 8017   3.210   4.120   3.403 -0.9153 -0.7678  0.9798
   86SOPE   H2Y 8018   3.234   4.291   3.424 -0.3236  1.2353  1.5158
   86SOPE   C23 8019   3.560   4.817   3.477  0.1761  0.5443  0.5408
   86SOPE   H3R 8020   3.546   4.875   3.383 -1.8845 -0.8670 -0.1106
   86SOPE   H3S 8021   3.663   4.776   3.479 -0.2766 -0.8236  4.9629
   86SOPE   C24 8022   3.543   4.915   3.592 -0.0480 -0.0246 -0.0025
   86SOPE   H4R 8023   3.617   4.998   3.590  0.0575 -0.0475  1.6773
   86SOPE   H4S 8024   3.440   4.953   3.571 -0.9983 -2.8272 -0.8456
   86SOPE   C25 8025   3.551   4.858   3.741  0.0461 -0.5111  0.2801
   86SOPE   H5R 8026   3.469   4.783   3.740 -1.6928  1.3171  0.7564
   86SOPE   H5S 8027   3.645   4.805   3.768 -0.7959 -1.3928  1.6486
   86SOPE   C26 8028   3.530   4.966   3.846  0.2517 -0.0710 -0.1274
   86SOPE   H6R 8029   3.503   4.919   3.942 -2.9745 -2.0451 -1.8071
   86SOPE   H6S 8030   3.626   5.020   3.859  1.4803 -1.4543 -2.6025
   86SOPE   C27 8031   3.420   5.062   3.809  0.3777  0.0505 -0.2397
   86SOPE   H7R 8032   3.458   5.128   3.729 -0.6135  0.5909 -0.2787
   86SOPE   H7S 8033   3.333   5.003   3.773  1.1198 -1.7584  0.8200
   86SOPE   C28 8034   3.393   5.155   3.930 -0.5174  0.2241 -0.0929
   86SOPE   H8R 8035   3.487   5.204   3.965 -0.7988  0.6485  0.0808
   86SOPE   H8S 8036   3.326   5.238   3.899 -1.5145 -0.9693 -1.2127
   86SOPE   C29 8037   3.308   5.077   4.026 -0.4044  0.1838 -0.0199
   86SOPE   H91 8038   3.232   5.016   3.975 -0.1493 -0.9198  0.8637
   86SOPE  C210 8039   3.324   5.055   4.159  0.0376  0.2341  0.2652
   86SOPE  H101 8040   3.254   4.985   4.207 -0.9692  1.3866  0.5269
   86SOPE  C211 8041   3.425   5.131   4.245 -0.2450  0.0207 -0.1597
   86SOPE  H11R 8042   3.506   5.173   4.181 -0.3921 -2.0937 -1.8593
   86SOPE  H11S 8043   3.467   5.051   4.310 -3.0274 -0.3636  1.3066
   86SOPE  C212 8044   3.368   5.242   4.326 -0.8364 -0.8112 -0.3507
   86SOPE  H12R 8045   3.282   5.218   4.392 -0.5329  4.1288  2.3463
   86SOPE  H12S 8046   3.328   5.314   4.252  1.9029  0.8043 -0.4015
   86SOPE  C213 8047   3.480   5.306   4.414 -0.4655 -0.2342 -0.2016
   86SOPE  H13R 8048   3.443   5.408   4.437 -0.6413 -0.6632  1.5873
   86SOPE  H13S 8049   3.577   5.319   4.361  0.5984 -0.0545  1.6880
   86SOPE  C214 8050   3.489   5.238   4.549  0.6237  0.3835  0.0431
   86SOPE  H14R 8051   3.567   5.292   4.607 -0.9897 -0.1949  2.9258
   86SOPE  H14S 8052   3.528   5.136   4.528  0.3760  0.4152 -0.6084
   86SOPE  C215 8053   3.362   5.255   4.629 -0.5989 -0.1521  0.3464
   86SOPE  H15R 8054   3.292   5.174   4.601  0.4891 -0.7317 -0.8055
   86SOPE  H15S 8055   3.313   5.347   4.591 -0.8853 -0.7189 -0.7082
   86SOPE  C216 8056   3.380   5.256   4.783  0.3363 -0.5696 -0.2972
   86SOPE  H16R 8057   3.286   5.264   4.843  1.2219 -0.3252  1.0930
   86SOPE  H16S 8058   3.441   5.345   4.808  0.6172 -0.0532 -2.6019
   86SOPE  C217 8059   3.467   5.136   4.832  0.3450  0.3172  1.0165
   86SOPE  H17R 8060   3.483   5.159   4.940  0.5366 -2.5242  1.6834
   86SOPE  H17S 8061   3.571   5.134   4.794  0.1728 -1.0834  0.5615
   86SOPE  C218 8062   3.402   4.999   4.834 -0.7187 -0.3129 -0.3210
   86SOPE  H18R 8063   3.471   4.920   4.872  2.4866  1.7753 -1.3416
   86SOPE  H18S 8064   3.380   4.979   4.727 -0.7127  1.3027 -0.6489
   86SOPE  H18T 8065   3.305   4.994   4.887 -1.0036 -1.5134 -0.9095
   86SOPE   C33 8066   3.259   4.171   3.615 -0.6102 -0.1885 -1.0013
   86SOPE   H3X 8067   3.324   4.246   3.664 -1.9693  0.1652  0.3495
   86SOPE   H3Y 8068   3.301   4.072   3.640 -2.4257 -0.5617  0.8487
   86SOPE   C34 8069   3.115   4.190   3.663 -0.0203  1.3595  0.0474
   86SOPE   H4X 8070   3.053   4.124   3.600  0.9486 -1.0090  1.4587
   86SOPE   H4Y 8071   3.081   4.292   3.634 -0.0490  1.0645 -1.0006
   86SOPE   C35 8072   3.090   4.169   3.814  0.2743  0.7521 -0.7758
   86SOPE   H5X 8073   3.161   4.230   3.873  2.3123 -2.9774  1.0203
   86SOPE   H5Y 8074   3.112   4.062   3.838 -1.0608  0.3393 -1.3270
   86SOPE   C36 8075   2.935   4.197   3.839  0.2272 -0.3938 -0.1711
   86SOPE   H6X 8076   2.873   4.157   3.756  1.3378  2.3213 -2.4675
   86SOPE   H6Y 8077   2.923   4.308   3.833 -0.4289 -0.5287 -2.0659
   86SOPE   C37 8078   2.881   4.145   3.968  0.0362  0.1344 -0.6564
   86SOPE   H7X 8079   2.907   4.037   3.979 -2.6389 -0.4788  0.2604
   86SOPE   H7Y 8080   2.776   4.173   3.992  0.1518  0.2473 -0.2754
   86SOPE   C38 8081   2.954   4.209   4.092  0.0866  0.5267  0.8642
   86SOPE   H8X 8082   2.948   4.319   4.079  0.3965  0.3162 -1.4113
   86SOPE   H8Y 8083   3.062   4.188   4.082 -0.0328 -0.2675  1.1871
   86SOPE   C39 8084   2.905   4.160   4.224  0.2686  0.0465 -0.5601
   86SOPE   H9X 8085   2.895   4.050   4.230 -2.5724  0.2238 -0.7954
   86SOPE   H9Y 8086   2.801   4.195   4.237  0.5003  0.5587 -0.0675
   86SOPE  C310 8087   2.978   4.224   4.343 -0.1548  0.5552  0.6988
   86SOPE  H10X 8088   2.954   4.333   4.343  3.3268  1.4867 -1.6175
   86SOPE  H10Y 8089   3.084   4.217   4.309 -0.4733  1.5828 -0.5531
   86SOPE  C311 8090   2.953   4.167   4.484 -0.6678  0.8917 -0.3366
   86SOPE  H11X 8091   2.955   4.056   4.474 -1.8448  0.4434  3.0728
   86SOPE  H11Y 8092   2.852   4.192   4.524  0.1529 -1.1035  3.4854
   86SOPE  C312 8093   3.052   4.214   4.590  0.2264  0.3537  0.6144
   86SOPE  H12X 8094   3.063   4.325   4.589 -1.1147  0.5070  0.6469
   86SOPE  H12Y 8095   3.153   4.174   4.570 -0.1341 -0.4386  0.3530
   86SOPE  C313 8096   3.008   4.177   4.730  0.1527  0.5669 -0.4680
   86SOPE  H13X 8097   2.908   4.209   4.765 -0.4394 -0.6872 -0.9776
   86SOPE  H13Y 8098   3.086   4.223   4.795 -2.4677  2.6086  1.4586
   86SOPE  C314 8099   3.023   4.029   4.763  0.5368 -0.3001  0.2477
   86SOPE  H14X 8100   3.128   3.995   4.750  0.0398 -2.5341  1.5347
   86SOPE  H14Y 8101   2.966   3.960   4.697  0.5936 -1.1098  1.0217
   86SOPE  C315 8102   2.970   4.002   4.905 -0.3391  0.5585 -0.0104
   86SOPE  H15X 8103   2.956   3.892   4.914  0.6325  0.2542 -1.7426
   86SOPE  H15Y 8104   2.871   4.053   4.914 -2.2876 -2.9246  0.2499
   86SOPE  C316 8105   3.054   4.039   5.025 -0.0191  0.6517 -0.2194
   86SOPE  H16X 8106   3.082   4.146   5.018  0.5148  0.5706  0.5274
   86SOPE  H16Y 8107   3.148   3.981   5.017 -1.9781 -3.0983  1.1732
   86SOPE  C317 8108   2.985   4.007   5.154  0.4189  0.5457 -0.5985
   86SOPE  H17X 8109   2.965   3.898   5.158 -0.1385  0.6595 -0.1299
   86SOPE  H17Y 8110   2.884   4.052   5.151  0.2601  0.3559  0.8341
   86SOPE  C318 8111   3.052   4.046   5.282 -0.4604 -0.3614 -0.4397
   86SOPE  H18X 8112   3.136   3.975   5.298  0.9862  1.7808  2.2843
   86SOPE  H18Y 8113   2.982   4.038   5.368 -0.8672 -1.0419 -0.8219
   86SOPE  H18Z 8114   3.095   4.148   5.277 -0.2720 -0.3479  0.9809
   87SOPE     N 8115   4.447   1.771   3.053 -0.2848 -0.6857  0.0755
   87SOPE   HN1 8116   4.473   1.844   2.985  1.7290  0.1591  1.6523
   87SOPE   HN2 8117   4.497   1.683   3.029 -0.5011 -1.1112  1.1205
   87SOPE   HN3 8118   4.344   1.758   3.056 -0.2506 -1.1761 -0.5946
   87SOPE   C12 8119   4.484   1.812   3.195 -0.1785 -0.1556 -0.1291
   87SOPE  H12A 8120   4.593   1.795   3.207 -0.5375 -0.9955  2.5876
   87SOPE  H12B 8121   4.436   1.741   3.266  0.8352 -1.0826 -0.3349
   87SOPE   C11 8122   4.456   1.959   3.217 -0.4506 -0.3276 -0.2491
   87SOPE  H11A 8123   4.528   2.018   3.156 -2.7798  1.2764 -1.5964
   87SOPE  H11B 8124   4.473   1.979   3.325 -2.2074  3.0824 -0.4916
   87SOPE     P 8125   4.289   2.134   3.118  0.4676 -0.2487 -0.2117
   87SOPE   O13 8126   4.158   2.182   3.174  0.0247  0.0261  0.3968
   87SOPE   O14 8127   4.292   2.114   2.974 -0.2526 -0.4366  0.5538
   87SOPE   O12 8128   4.321   1.993   3.177 -0.0195  0.0011  0.3159
   87SOPE   O11 8129   4.410   2.227   3.156 -0.2398  1.0881 -0.1486
   87SOPE    C1 8130   4.440   2.261   3.292 -0.0080  0.0531 -0.0593
   87SOPE    HA 8131   4.547   2.282   3.315 -0.2923  0.2288  1.1959
   87SOPE    HB 8132   4.401   2.187   3.366  1.0876 -0.3923  0.0955
   87SOPE    C2 8133   4.369   2.396   3.326 -0.9527  0.2016 -1.3617
   87SOPE    HS 8134   4.430   2.444   3.405  0.9555  1.4307 -3.4344
   87SOPE   O21 8135   4.236   2.371   3.364  0.0737 -0.8811  0.0657
   87SOPE   C21 8136   4.205   2.335   3.483  0.0181 -0.2411 -0.2043
   87SOPE   O22 8137   4.278   2.320   3.579 -0.9844  0.0611  0.0475
   87SOPE   C22 8138   4.052   2.340   3.499  0.5990 -0.2014  0.7283
   87SOPE   H2R 8139   4.004   2.286   3.415  1.7419  1.0102 -0.7751
   87SOPE   H2S 8140   4.020   2.446   3.484  0.3455 -0.2627  0.8378
   87SOPE    C3 8141   4.371   2.507   3.218  0.1421 -0.1933  0.2417
   87SOPE    HX 8142   4.297   2.489   3.137 -1.0345 -1.2696  1.4878
   87SOPE    HY 8143   4.469   2.511   3.167 -0.0344 -0.8138 -0.1575
   87SOPE   O31 8144   4.347   2.632   3.280 -0.1736 -0.7170  0.3119
   87SOPE   C31 8145   4.235   2.693   3.301  0.0119  1.0960 -0.0705
   87SOPE   O32 8146   4.123   2.652   3.275  0.0526 -0.2881  0.2331
   87SOPE   C32 8147   4.276   2.812   3.384 -0.6413 -0.5509  0.8875
   87SOPE   H2X 8148   4.219   2.894   3.337  0.8125  0.2889  0.5037
   87SOPE   H2Y 8149   4.386   2.827   3.388 -0.5971 -1.0170  1.5835
   87SOPE   C23 8150   4.010   2.280   3.631 -0.4595 -0.0986  0.5863
   87SOPE   H3R 8151   4.069   2.332   3.710  0.3277  0.2896 -0.2374
   87SOPE   H3S 8152   4.042   2.175   3.641  1.3059  0.3792  0.2570
   87SOPE   C24 8153   3.865   2.292   3.671  0.8322  0.0774  0.0585
   87SOPE   H4R 8154   3.836   2.397   3.695  1.1499  0.2626 -0.3524
   87SOPE   H4S 8155   3.803   2.255   3.587  1.3487 -1.8727  0.4848
   87SOPE   C25 8156   3.821   2.215   3.800  0.4550 -0.2314  0.6875
   87SOPE   H5R 8157   3.716   2.244   3.819 -0.9105 -3.4217 -1.2228
   87SOPE   H5S 8158   3.823   2.105   3.782 -1.7911 -0.2235  0.0921
   87SOPE   C26 8159   3.893   2.258   3.927  0.9056 -0.2574 -0.0762
   87SOPE   H6R 8160   4.000   2.232   3.937  0.6895 -0.9604  0.5045
   87SOPE   H6S 8161   3.875   2.368   3.929  3.5999  0.2410  0.1708
   87SOPE   C27 8162   3.827   2.195   4.051 -0.4943  0.1478 -0.5447
   87SOPE   H7R 8163   3.716   2.192   4.040 -0.3991 -1.5177 -1.4441
   87SOPE   H7S 8164   3.859   2.089   4.047 -2.3667 -0.4491 -0.6184
   87SOPE   C28 8165   3.868   2.252   4.187  0.1582 -0.0647  0.3577
   87SOPE   H8R 8166   3.977   2.254   4.210 -0.0755 -0.5689  1.5896
   87SOPE   H8S 8167   3.839   2.359   4.187  1.5655  0.3415  0.1345
   87SOPE   C29 8168   3.787   2.198   4.303 -0.0355  0.3029  0.4411
   87SOPE   H91 8169   3.681   2.210   4.278  0.0430 -1.1034 -0.6889
   87SOPE  C210 8170   3.831   2.117   4.399  1.1143 -0.8126 -0.3827
   87SOPE  H101 8171   3.750   2.085   4.467 -1.7397  2.9166 -1.7224
   87SOPE  C211 8172   3.973   2.066   4.427 -0.4756 -0.2554 -0.0008
   87SOPE  H11R 8173   4.052   2.138   4.397 -0.4285 -0.6957 -0.9735
   87SOPE  H11S 8174   4.002   1.977   4.367  1.6560  1.8804 -2.3843
   87SOPE  C212 8175   3.995   2.035   4.572  0.1121  0.6302  0.0578
   87SOPE  H12R 8176   4.096   1.989   4.583 -0.8417 -2.1168 -1.7128
   87SOPE  H12S 8177   3.914   1.970   4.612  0.8332  0.6640  1.6523
   87SOPE  C213 8178   3.998   2.160   4.656  0.6564 -0.8266 -0.7116
   87SOPE  H13R 8179   3.913   2.229   4.642  2.5416  1.5657 -0.9929
   87SOPE  H13S 8180   4.074   2.220   4.602  0.9037  1.0202  1.5300
   87SOPE  C214 8181   4.032   2.139   4.802  0.8800 -0.0550 -0.0741
   87SOPE  H14R 8182   4.110   2.061   4.803 -0.3414 -1.3141  0.6974
   87SOPE  H14S 8183   3.947   2.091   4.855  1.8636  0.4378  2.0377
   87SOPE  C215 8184   4.089   2.263   4.869  0.5008 -0.1024 -0.2398
   87SOPE  H15R 8185   4.007   2.338   4.868  1.1472  0.6205  0.0477
   87SOPE  H15S 8186   4.173   2.303   4.809 -0.7055  0.8963 -1.3105
   87SOPE  C216 8187   4.148   2.225   5.003 -0.1729 -0.0404 -0.0291
   87SOPE  H16R 8188   4.230   2.156   4.975 -1.7861 -1.5790 -1.1530
   87SOPE  H16S 8189   4.068   2.168   5.055 -0.8933  0.0282 -1.0346
   87SOPE  C217 8190   4.203   2.346   5.070  0.2899  0.3103 -0.6219
   87SOPE  H17R 8191   4.133   2.430   5.087  0.8145  0.4139  1.2472
   87SOPE  H17S 8192   4.284   2.383   5.004  2.5412 -0.0694  1.7978
   87SOPE  C218 8193   4.281   2.323   5.202 -0.1325  0.0301  0.1099
   87SOPE  H18R 8194   4.374   2.272   5.167 -1.3617 -1.1983 -1.5023
   87SOPE  H18S 8195   4.241   2.257   5.282 -0.8350  1.1437  0.7068
   87SOPE  H18T 8196   4.297   2.423   5.249  0.2047 -0.1228  0.3293
   87SOPE   C33 8197   4.229   2.804   3.527  0.4248  0.6184 -0.4888
   87SOPE   H3X 8198   4.121   2.781   3.516  0.9584 -2.6606  0.2768
   87SOPE   H3Y 8199   4.238   2.908   3.563 -0.7689  0.4433  0.3819
   87SOPE   C34 8200   4.305   2.705   3.618  0.4665  0.6581 -0.1708
   87SOPE   H4X 8201   4.405   2.748   3.640  1.2328 -0.7400 -0.8135
   87SOPE   H4Y 8202   4.330   2.616   3.556 -0.1902 -0.5173  1.1865
   87SOPE   C35 8203   4.240   2.650   3.748  0.5947  0.5902  0.1591
   87SOPE   H5X 8204   4.325   2.601   3.801  0.1059  0.5065  0.8772
   87SOPE   H5Y 8205   4.160   2.575   3.730  0.6205  0.6257 -0.1082
   87SOPE   C36 8206   4.188   2.762   3.842  0.5800  0.4442 -0.6131
   87SOPE   H6X 8207   4.111   2.821   3.787  0.0059  0.9594  0.6913
   87SOPE   H6Y 8208   4.275   2.823   3.871  0.3260  0.1237  0.8691
   87SOPE   C37 8209   4.109   2.708   3.964 -0.9611  0.4314  0.0551
   87SOPE   H7X 8210   4.188   2.686   4.039  1.4733 -3.2060 -3.2217
   87SOPE   H7Y 8211   4.053   2.618   3.933 -0.5606 -0.1811  1.0640
   87SOPE   C38 8212   4.017   2.806   4.029  0.0720 -0.7060 -0.2983
   87SOPE   H8X 8213   3.929   2.748   4.062  0.6430 -0.3077  2.0969
   87SOPE   H8Y 8214   3.986   2.886   3.957 -0.5599 -1.0416 -0.4010
   87SOPE   C39 8215   4.076   2.869   4.162  0.6561  0.0083 -0.2386
   87SOPE   H9X 8216   4.040   2.974   4.163  0.0627 -0.1654  1.8323
   87SOPE   H9Y 8217   4.187   2.869   4.158  0.6257 -1.4676 -2.9757
   87SOPE  C310 8218   4.028   2.804   4.292 -0.0475  0.1228  0.5857
   87SOPE  H10X 8219   4.050   2.695   4.299  0.8415  0.3335  1.2171
   87SOPE  H10Y 8220   3.916   2.805   4.292 -0.0580 -0.4741  0.9643
   87SOPE  C311 8221   4.101   2.877   4.414  0.7463  0.3398  0.0374
   87SOPE  H11X 8222   4.081   2.986   4.409  0.6064  0.2559 -2.8066
   87SOPE  H11Y 8223   4.210   2.865   4.395  1.0147  1.3635  0.8339
   87SOPE  C312 8224   4.060   2.806   4.548 -0.1113  0.5448 -0.2737
   87SOPE  H12X 8225   4.093   2.700   4.540  1.9781  1.2362 -1.5929
   87SOPE  H12Y 8226   3.950   2.809   4.563 -0.2634  0.2953 -1.3011
   87SOPE  C313 8227   4.144   2.857   4.667  0.2918 -0.6812  0.0539
   87SOPE  H13X 8228   4.117   2.961   4.695  0.8694 -0.6358  0.4452
   87SOPE  H13Y 8229   4.251   2.845   4.639 -0.0981 -0.3602 -1.7085
   87SOPE  C314 8230   4.118   2.757   4.784  0.1489 -0.4617  0.2300
   87SOPE  H14X 8231   4.148   2.655   4.754 -1.5012  0.0249 -3.6363
   87SOPE  H14Y 8232   4.010   2.749   4.807  0.2657 -2.2593  0.2512
   87SOPE  C315 8233   4.191   2.821   4.899  0.2159 -0.1193  0.0132
   87SOPE  H15X 8234   4.180   2.931   4.905 -0.4294 -0.1823  0.0800
   87SOPE  H15Y 8235   4.301   2.814   4.885  0.1500 -1.6591  0.0788
   87SOPE  C316 8236   4.160   2.744   5.036  0.0878 -0.0687 -0.1132
   87SOPE  H16X 8237   4.165   2.636   5.009  0.0746  0.2282 -1.3730
   87SOPE  H16Y 8238   4.055   2.775   5.055 -0.3967 -0.3873 -1.9723
   87SOPE  C317 8239   4.249   2.785   5.148 -0.4943 -0.4956  0.2287
   87SOPE  H17X 8240   4.251   2.895   5.161 -0.6387 -0.6507  1.8178
   87SOPE  H17Y 8241   4.355   2.761   5.129 -0.4904  0.5502 -1.2093
   87SOPE  C318 8242   4.208   2.725   5.281 -0.4510  0.2515  0.2036
   87SOPE  H18X 8243   4.206   2.614   5.269 -0.1673  0.1944  0.6414
   87SOPE  H18Y 8244   4.111   2.758   5.325  0.1032  1.3808  0.5981
   87SOPE  H18Z 8245   4.284   2.756   5.356  0.7263 -1.2947 -0.2815
   88SOPE     N 8246   5.685   4.953   3.348 -0.1096 -0.1263  0.2869
   88SOPE   HN1 8247   5.738   4.928   3.434  0.3050 -1.2542 -0.2766
   88SOPE   HN2 8248   5.700   4.867   3.292 -1.3479  1.5081 -2.8115
   88SOPE   HN3 8249   5.733   5.031   3.300 -3.4460  1.6222 -0.4842
   88SOPE   C12 8250   5.540   4.977   3.385  0.6187  0.5516  0.1635
   88SOPE  H12A 8251   5.541   5.074   3.440  1.5836  0.9980 -0.6073
   88SOPE  H12B 8252   5.504   4.888   3.441 -1.6986 -0.1692 -2.2193
   88SOPE   C11 8253   5.446   4.988   3.259 -0.1464 -1.0613 -0.9249
   88SOPE  H11A 8254   5.474   5.083   3.209  2.5547 -1.5473 -0.4792
   88SOPE  H11B 8255   5.345   5.006   3.300 -0.0149 -1.7961 -0.2597
   88SOPE     P 8256   5.356   4.756   3.179 -0.0186 -0.0333  0.1328
   88SOPE   O13 8257   5.408   4.625   3.153  0.0891  0.5760 -0.4322
   88SOPE   O14 8258   5.249   4.808   3.089 -0.0538  0.2983 -0.3423
   88SOPE   O12 8259   5.463   4.876   3.176 -0.3649  0.2918  0.4955
   88SOPE   O11 8260   5.305   4.746   3.327  0.1959 -0.0984  0.2222
   88SOPE    C1 8261   5.167   4.769   3.354  0.3600  0.3359 -0.0813
   88SOPE    HA 8262   5.111   4.673   3.365 -0.6822  1.0285  0.8890
   88SOPE    HB 8263   5.114   4.830   3.277 -0.2750 -0.2244 -0.1047
   88SOPE    C2 8264   5.147   4.842   3.489  0.3554 -0.1867 -0.1564
   88SOPE    HS 8265   5.220   4.925   3.497  0.0405  0.0264  0.5298
   88SOPE   O21 8266   5.177   4.741   3.588  0.0998 -0.0664  0.2857
   88SOPE   C21 8267   5.243   4.771   3.701 -0.0443  0.8304 -0.4820
   88SOPE   O22 8268   5.288   4.878   3.736  0.1842  0.0223 -0.2630
   88SOPE   C22 8269   5.262   4.629   3.773 -0.3577  0.0335  1.4200
   88SOPE   H2R 8270   5.369   4.599   3.774 -0.4547 -0.3060  2.3099
   88SOPE   H2S 8271   5.217   4.550   3.710 -0.5861  1.6959 -0.6026
   88SOPE    C3 8272   5.007   4.912   3.499 -0.1143 -0.2725  0.1338
   88SOPE    HX 8273   4.930   4.832   3.488 -0.3955  0.3252 -3.4213
   88SOPE    HY 8274   4.985   4.969   3.406  2.3841  0.4554 -0.0997
   88SOPE   O31 8275   4.985   4.990   3.622  0.4137 -0.1173 -0.4093
   88SOPE   C31 8276   5.071   5.082   3.652  0.9306  0.2714  0.4900
   88SOPE   O32 8277   5.151   5.131   3.576 -0.3732  0.7611 -0.3553
   88SOPE   C32 8278   5.038   5.136   3.788  0.2766  0.4686  0.3281
   88SOPE   H2X 8279   4.927   5.130   3.798  0.4990 -1.9212  2.3558
   88SOPE   H2Y 8280   5.073   5.241   3.786 -2.4709  1.5009  0.8388
   88SOPE   C23 8281   5.201   4.619   3.917 -0.5003  0.2954 -0.1733
   88SOPE   H3R 8282   5.194   4.512   3.945 -2.7648  0.5237  0.3547
   88SOPE   H3S 8283   5.102   4.669   3.912 -0.8285 -0.4770 -2.2701
   88SOPE   C24 8284   5.285   4.681   4.027 -0.0416  0.1077 -0.1017
   88SOPE   H4R 8285   5.383   4.629   4.040  0.6140  0.9712 -1.4683
   88SOPE   H4S 8286   5.309   4.787   4.007  1.4297  0.2166  1.8505
   88SOPE   C25 8287   5.203   4.683   4.158  0.5809 -0.2907 -0.3929
   88SOPE   H5R 8288   5.247   4.770   4.212  1.0181  1.1809 -2.9330
   88SOPE   H5S 8289   5.097   4.693   4.127  0.7387  3.1906 -0.2496
   88SOPE   C26 8290   5.202   4.553   4.241 -0.0150 -0.0666  0.1983
   88SOPE   H6R 8291   5.163   4.466   4.185  0.8226  0.4090 -1.1755
   88SOPE   H6S 8292   5.308   4.536   4.271 -0.5517 -0.9793  1.6650
   88SOPE   C27 8293   5.123   4.575   4.369 -0.3019  1.2147  0.2213
   88SOPE   H7R 8294   5.138   4.674   4.417  1.4066  0.6407  0.9678
   88SOPE   H7S 8295   5.017   4.586   4.338 -0.9738 -1.6412  1.1866
   88SOPE   C28 8296   5.147   4.465   4.473 -0.9079 -0.2915 -0.0080
   88SOPE   H8R 8297   5.058   4.477   4.537 -0.7877  0.4223  0.0371
   88SOPE   H8S 8298   5.148   4.364   4.428 -0.2863 -0.2006 -0.2081
   88SOPE   C29 8299   5.279   4.496   4.550  0.0876  0.0389 -0.0370
   88SOPE   H91 8300   5.371   4.496   4.489 -0.4327  0.2273 -0.8477
   88SOPE  C210 8301   5.288   4.512   4.683  0.5868  0.0990 -0.5549
   88SOPE  H101 8302   5.390   4.519   4.725  0.1375  0.6602  0.4929
   88SOPE  C211 8303   5.171   4.494   4.786 -0.2130 -0.5092 -0.0060
   88SOPE  H11R 8304   5.166   4.390   4.825  0.1304  0.3798  2.6113
   88SOPE  H11S 8305   5.070   4.510   4.741 -0.1778 -0.5999 -0.1158
   88SOPE  C212 8306   5.188   4.599   4.900 -0.0794 -0.2748  0.7516
   88SOPE  H12R 8307   5.097   4.608   4.962 -1.7228  0.4845 -1.6161
   88SOPE  H12S 8308   5.194   4.695   4.845  2.5747 -1.8660 -2.1037
   88SOPE  C213 8309   5.320   4.569   4.975 -0.2747  0.4299 -0.6562
   88SOPE  H13R 8310   5.402   4.635   4.940  2.4610 -2.3161  0.1113
   88SOPE  H13S 8311   5.344   4.461   4.963 -1.2455 -0.2660  2.5195
   88SOPE  C214 8312   5.315   4.589   5.120  0.3369  0.3946 -0.0299
   88SOPE  H14R 8313   5.214   4.563   5.158  0.2573  0.5525 -0.1322
   88SOPE  H14S 8314   5.318   4.698   5.142 -0.1397  0.2588  0.7535
   88SOPE  C215 8315   5.432   4.531   5.200  0.5976  0.0623  0.1598
   88SOPE  H15R 8316   5.522   4.589   5.170  0.3474  1.5589  2.0424
   88SOPE  H15S 8317   5.445   4.422   5.183  0.0810 -0.1169  0.8675
   88SOPE  C216 8318   5.411   4.555   5.350 -0.0419  0.0132  0.0526
   88SOPE  H16R 8319   5.495   4.507   5.405 -1.2109 -2.0611  0.1367
   88SOPE  H16S 8320   5.318   4.506   5.387 -0.5141  2.3152  2.1642
   88SOPE  C217 8321   5.404   4.695   5.413 -0.4633 -0.0651  0.2009
   88SOPE  H17R 8322   5.300   4.731   5.406 -1.4556 -2.5372  1.1855
   88SOPE  H17S 8323   5.470   4.764   5.356  0.8247  0.6063  2.3653
   88SOPE  C218 8324   5.459   4.702   5.561  0.2803  0.2665  0.4062
   88SOPE  H18R 8325   5.452   4.810   5.584 -1.2570  0.9289 -2.6012
   88SOPE  H18S 8326   5.565   4.670   5.573  0.6982  0.9219 -1.1891
   88SOPE  H18T 8327   5.401   4.657   5.644 -0.2445 -0.4687 -0.3410
   88SOPE   C33 8328   5.085   5.057   3.909  0.8059  0.0806  0.6450
   88SOPE   H3X 8329   5.193   5.041   3.888  0.3273 -1.7114 -0.7006
   88SOPE   H3Y 8330   5.038   4.956   3.905  1.2493 -0.1144  0.1867
   88SOPE   C34 8331   5.050   5.122   4.039 -0.5477 -0.5562  0.7755
   88SOPE   H4X 8332   4.940   5.133   4.045 -0.5994  0.5560 -1.2338
   88SOPE   H4Y 8333   5.094   5.224   4.041 -1.0208 -0.1938 -2.4077
   88SOPE   C35 8334   5.110   5.042   4.161 -0.0026 -0.2517 -0.2459
   88SOPE   H5X 8335   5.219   5.063   4.172 -0.0550  0.4473 -0.9722
   88SOPE   H5Y 8336   5.086   4.941   4.121  1.1706  0.2106 -2.2674
   88SOPE   C36 8337   5.039   5.074   4.290 -0.1043 -0.6752  1.0895
   88SOPE   H6X 8338   4.932   5.091   4.268  0.4603  1.6352 -0.2234
   88SOPE   H6Y 8339   5.083   5.166   4.333  1.4503  0.0505 -1.8032
   88SOPE   C37 8340   5.048   4.954   4.387 -1.1029 -0.7711 -0.1383
   88SOPE   H7X 8341   5.151   4.919   4.408 -1.1892 -0.1441  1.4870
   88SOPE   H7Y 8342   5.004   4.862   4.342  0.2164 -2.6578  2.1802
   88SOPE   C38 8343   4.976   4.992   4.517  0.2276 -1.0269  0.3995
   88SOPE   H8X 8344   4.874   5.029   4.490 -0.4172 -2.4254  0.8687
   88SOPE   H8Y 8345   5.027   5.081   4.559  1.8677 -1.0269 -1.4592
   88SOPE   C39 8346   4.983   4.890   4.625 -0.1697  0.0457 -0.2459
   88SOPE   H9X 8347   5.084   4.896   4.672 -0.6133  0.2736  0.6906
   88SOPE   H9Y 8348   4.966   4.790   4.581 -0.3244 -0.2252  0.4225
   88SOPE  C310 8349   4.881   4.922   4.739  0.4970 -0.1783  0.0178
   88SOPE  H10X 8350   4.781   4.882   4.711  0.5008  0.7665 -1.3993
   88SOPE  H10Y 8351   4.867   5.031   4.752 -0.9855 -0.1205 -1.7649
   88SOPE  C311 8352   4.918   4.860   4.874 -0.7629 -0.0577  0.6376
   88SOPE  H11X 8353   5.019   4.891   4.908  0.5832 -2.3703 -0.9537
   88SOPE  H11Y 8354   4.917   4.751   4.852  2.4545  0.5923 -4.2795
   88SOPE  C312 8355   4.810   4.900   4.969 -0.0224 -0.2544 -0.4767
   88SOPE  H12X 8356   4.705   4.890   4.934 -1.4230  2.9520  2.2131
   88SOPE  H12Y 8357   4.817   5.010   4.977 -0.6551 -0.1231 -1.5656
   88SOPE  C313 8358   4.821   4.828   5.109 -0.4651 -0.2396  0.3449
   88SOPE  H13X 8359   4.926   4.840   5.144 -0.4204  0.5881 -0.0411
   88SOPE  H13Y 8360   4.814   4.718   5.095 -1.6790 -0.0866 -0.4270
   88SOPE  C314 8361   4.730   4.868   5.222 -0.4104 -0.6175 -0.4217
   88SOPE  H14X 8362   4.621   4.856   5.203 -1.4851  3.3780  1.8108
   88SOPE  H14Y 8363   4.740   4.979   5.231  1.7470 -0.8408  0.4554
   88SOPE  C315 8364   4.765   4.798   5.348  0.2171  0.2329 -0.2920
   88SOPE  H15X 8365   4.869   4.818   5.381  0.6443 -2.5891  0.3181
   88SOPE  H15Y 8366   4.755   4.688   5.332  0.1162  0.0866  0.7055
   88SOPE  C316 8367   4.669   4.830   5.467  0.7025 -0.8021 -0.2206
   88SOPE  H16X 8368   4.650   4.939   5.464  1.5812 -0.6047  0.8138
   88SOPE  H16Y 8369   4.715   4.824   5.568  0.6107  0.9882 -0.0334
   88SOPE  C317 8370   4.544   4.744   5.478  0.1854  0.1191  0.6211
   88SOPE  H17X 8371   4.588   4.646   5.506  3.7291  1.3720 -0.1162
   88SOPE  H17Y 8372   4.506   4.739   5.374  0.1023  0.7452  0.6159
   88SOPE  C318 8373   4.449   4.777   5.595 -0.3625 -0.5090 -0.3885
   88SOPE  H18X 8374   4.493   4.816   5.690 -1.6244 -0.6237  0.2558
   88SOPE  H18Y 8375   4.381   4.691   5.612 -1.8347  0.6912 -0.0675
   88SOPE  H18Z 8376   4.384   4.861   5.563  1.6830  0.8683 -1.1681
   89SAPC     N 8377   2.792   0.785   7.583 -0.5221  0.2844  0.2804
   89SAPC   C12 8378   2.643   0.826   7.573  0.2864 -0.1217  0.1013
   89SAPC  H12A 8379   2.582   0.756   7.518 -2.9446  2.3777  0.1556
   89SAPC  H12B 8380   2.639   0.916   7.513 -0.1018 -0.0383  0.2487
   89SAPC   C13 8381   2.868   0.903   7.635  0.5767  0.1743  0.1525
   89SAPC  H13A 8382   2.842   1.001   7.597  0.2675  0.6663  1.5640
   89SAPC  H13B 8383   2.870   0.912   7.742  2.1398  1.4400  0.0482
   89SAPC  H13C 8384   2.974   0.893   7.623  0.2409 -1.3259 -2.3121
   89SAPC   C14 8385   2.817   0.668   7.686 -0.3700  0.2425 -0.3710
   89SAPC  H14A 8386   2.757   0.579   7.669 -1.9715  1.0044  1.0579
   89SAPC  H14B 8387   2.920   0.638   7.684  0.3146  2.4664 -0.3919
   89SAPC  H14C 8388   2.803   0.709   7.785 -0.0377  1.8497 -0.9646
   89SAPC   C15 8389   2.836   0.743   7.442 -0.2738 -0.6752  0.2664
   89SAPC  H15A 8390   2.768   0.669   7.402  0.9761 -1.6971 -0.0149
   89SAPC  H15B 8391   2.853   0.827   7.375  1.6291 -1.5111 -0.3668
   89SAPC  H15C 8392   2.938   0.708   7.440  0.1518  0.4890 -1.3049
   89SAPC   C11 8393   2.551   0.852   7.697 -0.2498 -0.4959  0.7081
   89SAPC  H11A 8394   2.538   0.750   7.739 -1.1621  0.4068  2.7416
   89SAPC  H11B 8395   2.450   0.879   7.659 -0.4253 -1.1516  0.7041
   89SAPC     P 8396   2.609   1.099   7.758  0.3735 -0.1127  0.4207
   89SAPC   O13 8397   2.493   1.176   7.810  0.3399 -0.0576  0.9268
   89SAPC   O14 8398   2.744   1.128   7.807  0.2115  0.3081 -0.1878
   89SAPC   O12 8399   2.591   0.949   7.789 -0.0612  0.2234 -0.2212
   89SAPC   O11 8400   2.622   1.105   7.597  0.2452  0.4244 -0.3163
   89SAPC    C1 8401   2.543   1.203   7.528  1.0019 -0.7056  0.8194
   89SAPC    HA 8402   2.447   1.224   7.579  1.3162 -1.4524  1.7558
   89SAPC    HB 8403   2.605   1.292   7.505  0.0212 -0.0340  0.7471
   89SAPC    C2 8404   2.512   1.159   7.383 -0.5682  0.4632  0.0327
   89SAPC    HS 8405   2.476   1.249   7.329  0.9288  1.3339  0.4204
   89SAPC   O21 8406   2.415   1.054   7.380  0.1871  0.6211 -0.9086
   89SAPC   C21 8407   2.284   1.087   7.387  0.5509 -0.0611  0.5855
   89SAPC   O22 8408   2.240   1.200   7.375 -0.3077 -0.0827  0.8323
   89SAPC   C22 8409   2.203   0.957   7.392  0.2363 -0.1450 -0.1374
   89SAPC   H2R 8410   2.260   0.893   7.463 -0.4154  0.0310  0.5557
   89SAPC   H2S 8411   2.105   0.997   7.424  0.3508  1.2328 -1.3749
   89SAPC    C3 8412   2.643   1.115   7.310  0.0884 -0.4280  0.1028
   89SAPC    HX 8413   2.705   1.052   7.378 -0.6021 -1.1917  0.0378
   89SAPC    HY 8414   2.692   1.206   7.270 -0.3222  0.3203  1.2368
   89SAPC   O31 8415   2.609   1.025   7.202  0.4688 -0.0825 -0.5025
   89SAPC   C31 8416   2.562   1.081   7.096  0.3161  0.7573 -0.0108
   89SAPC   O32 8417   2.547   1.199   7.079 -0.0776  0.4566  0.5093
   89SAPC   C32 8418   2.526   0.968   6.997 -0.2847  0.4286 -0.5803
   89SAPC   H2X 8419   2.452   0.901   7.045 -0.1541  1.2337  0.8082
   89SAPC   H2Y 8420   2.617   0.905   6.984 -0.8020 -0.4939  0.2226
   89SAPC   C23 8421   2.191   0.872   7.265 -1.2536  0.2980 -0.0355
   89SAPC   H3R 8422   2.113   0.794   7.278  0.0501 -1.5460 -2.5468
   89SAPC   H3S 8423   2.290   0.825   7.248 -1.2089  0.4573 -0.2145
   89SAPC   C24 8424   2.157   0.939   7.135  0.4047  0.2432 -0.2879
   89SAPC   H4R 8425   2.172   0.858   7.060  0.3879 -1.1999  1.1882
   89SAPC   H4S 8426   2.229   1.020   7.113  0.3076  0.8531  1.4667
   89SAPC   C25 8427   2.019   0.998   7.126  0.0006 -0.6176 -0.1461
   89SAPC   H5R 8428   1.965   1.010   7.221  0.3340  0.0008 -0.0307
   89SAPC   C26 8429   1.947   1.012   7.010  0.3989 -0.1762 -0.0790
   89SAPC   H6R 8430   1.847   1.059   7.009  0.8725  0.8898  0.7913
   89SAPC   C27 8431   2.013   0.978   6.873  0.1289  0.0099 -0.5477
   89SAPC   H7R 8432   2.123   0.980   6.888  0.2081 -0.9665 -0.9024
   89SAPC   H7S 8433   1.991   1.063   6.805 -0.6626  2.0664  2.1033
   89SAPC   C28 8434   1.984   0.849   6.806 -0.8151  0.1744 -0.4206
   89SAPC   H8R 8435   2.038   0.759   6.838 -0.2379  0.4216 -0.6913
   89SAPC   C29 8436   1.885   0.842   6.714 -0.1619 -0.3722  0.8377
   89SAPC   H9R 8437   1.879   0.740   6.673 -2.7174 -0.6230  1.6163
   89SAPC  C210 8438   1.782   0.946   6.674  1.1068  0.4579  0.6170
   89SAPC  H10R 8439   1.835   1.036   6.638 -0.9358  0.9929 -1.2709
   89SAPC  H10S 8440   1.718   0.972   6.761 -0.6298  1.4571 -0.8769
   89SAPC  C211 8441   1.688   0.911   6.556 -0.1222 -0.4926  0.0925
   89SAPC  H11R 8442   1.740   0.864   6.471  1.8528 -0.2306  1.0979
   89SAPC  C212 8443   1.561   0.955   6.539 -0.0826  0.1201  0.0790
   89SAPC  H12R 8444   1.496   0.915   6.460 -1.3259  1.0494  0.5931
   89SAPC  C213 8445   1.493   1.036   6.639  0.0747 -0.6145 -0.0082
   89SAPC  H13R 8446   1.564   1.116   6.669  0.3168 -0.4068 -1.0899
   89SAPC  H13S 8447   1.479   0.975   6.731  0.0478  1.3616  1.3408
   89SAPC  C214 8448   1.361   1.103   6.604 -0.5112 -0.8426  0.0216
   89SAPC  H14R 8449   1.298   1.096   6.694 -0.6222  0.1828  0.0319
   89SAPC  C215 8450   1.306   1.149   6.488  0.2504 -0.4051  0.2965
   89SAPC  H15R 8451   1.211   1.203   6.500 -0.0429 -0.4933 -1.3176
   89SAPC  C216 8452   1.370   1.159   6.352  0.6979  0.3419  0.3182
   89SAPC  H16R 8453   1.481   1.158   6.347  0.6528 -1.0179 -1.8993
   89SAPC  H16S 8454   1.350   1.260   6.310 -0.0212  1.2490  2.7024
   89SAPC  C217 8455   1.308   1.050   6.259  0.1019 -0.1247 -0.1429
   89SAPC  H17R 8456   1.312   0.955   6.317  0.1895  0.7679  1.3603
   89SAPC  H17S 8457   1.369   1.034   6.167 -1.5292 -2.6986 -0.8920
   89SAPC  C218 8458   1.168   1.079   6.211 -0.2581  0.6675 -0.2378
   89SAPC  H18R 8459   1.100   1.085   6.298  0.6156  0.6343  0.4592
   89SAPC  H18S 8460   1.137   0.985   6.161 -0.2606 -0.8445  2.4394
   89SAPC  C219 8461   1.152   1.201   6.122 -0.8527  0.4365  0.1095
   89SAPC  H19R 8462   1.218   1.195   6.033 -1.1245 -0.5031 -0.0357
   89SAPC  H19S 8463   1.192   1.288   6.179 -1.7107  0.9636 -0.0822
   89SAPC  C220 8464   1.013   1.223   6.065  0.1797  0.2973 -0.3746
   89SAPC  H20R 8465   1.015   1.291   5.976 -0.1798 -0.0921 -0.6823
   89SAPC  H20S 8466   0.951   1.277   6.139  0.5369  1.5729 -0.9626
   89SAPC  H20T 8467   0.970   1.124   6.040 -0.2510  0.5067 -0.4770
   89SAPC   C33 8468   2.474   1.018   6.855 -0.1883 -0.5463  0.3704
   89SAPC   H3X 8469   2.553   1.088   6.818  1.4294 -2.7855 -0.6288
   89SAPC   H3Y 8470   2.381   1.073   6.883  0.6390  0.5750  1.0065
   89SAPC   C34 8471   2.442   0.908   6.755  0.0195  0.0769  0.4243
   89SAPC   H4X 8472   2.361   0.836   6.782 -0.7638  0.9158  0.3460
   89SAPC   H4Y 8473   2.530   0.845   6.729 -0.0024 -0.6024  1.8745
   89SAPC   C35 8474   2.380   0.978   6.633 -0.2295  0.1688 -0.6390
   89SAPC   H5X 8475   2.445   1.055   6.585  0.4028 -0.0595 -0.1696
   89SAPC   H5Y 8476   2.298   1.045   6.665  0.6580  0.6301  0.7596
   89SAPC   C36 8477   2.358   0.876   6.519 -0.0892  0.1504  0.7836
   89SAPC   H6X 8478   2.292   0.789   6.539  0.7223 -1.0861 -1.5606
   89SAPC   H6Y 8479   2.451   0.826   6.484 -0.3419 -0.0175  0.3424
   89SAPC   C37 8480   2.294   0.941   6.392  0.0947 -0.2983 -0.1440
   89SAPC   H7X 8481   2.307   0.871   6.308  1.4066 -1.5208  1.0373
   89SAPC   H7Y 8482   2.359   1.029   6.370 -1.0904  1.0931  1.5499
   89SAPC   C38 8483   2.147   0.984   6.415 -0.2684  0.5307 -0.2179
   89SAPC   H8X 8484   2.139   1.047   6.506 -2.1567 -0.8233  0.6495
   89SAPC   H8Y 8485   2.086   0.896   6.448  2.7172 -1.4718  0.3891
   89SAPC   C39 8486   2.072   1.057   6.295  0.1732  0.5967 -0.4339
   89SAPC   H9X 8487   2.063   0.991   6.206 -2.9053 -0.8889  0.8172
   89SAPC   H9Y 8488   2.136   1.146   6.277  0.4974  0.7316  1.2359
   89SAPC  C310 8489   1.934   1.106   6.329  0.5592 -0.7721 -0.7799
   89SAPC  H10X 8490   1.940   1.216   6.335 -2.0462 -0.6306  2.1169
   89SAPC  H10Y 8491   1.911   1.068   6.432 -1.3295 -0.4753 -1.0451
   89SAPC  C311 8492   1.814   1.061   6.239  0.3298  0.9490 -0.1895
   89SAPC  H11X 8493   1.716   1.095   6.280 -0.5450 -0.9747 -0.5784
   89SAPC  H11Y 8494   1.797   0.952   6.236  1.3065  0.8048 -1.2506
   89SAPC  C312 8495   1.830   1.114   6.101  1.0495  0.2896  0.3944
   89SAPC  H12X 8496   1.896   1.042   6.048 -0.8612 -3.0397  2.1713
   89SAPC  H12Y 8497   1.868   1.218   6.105  1.6733  0.0810 -0.0549
   89SAPC  C313 8498   1.692   1.116   6.023  0.2277 -0.2030 -0.4172
   89SAPC  H13X 8499   1.626   1.197   6.061 -1.8050 -3.1304  2.9651
   89SAPC  H13Y 8500   1.635   1.027   6.056 -2.4205  1.6379  0.3080
   89SAPC  C314 8501   1.706   1.117   5.874 -0.0953 -0.5664  0.4289
   89SAPC  H14X 8502   1.778   1.037   5.845  0.0195  0.2616 -1.6786
   89SAPC  H14Y 8503   1.753   1.207   5.830 -3.0481  1.0019  0.2148
   89SAPC  C315 8504   1.580   1.086   5.792 -0.1840  0.0362 -0.1162
   89SAPC  H15X 8505   1.531   0.998   5.838  0.6847 -0.0374  0.6991
   89SAPC  H15Y 8506   1.608   1.062   5.687 -1.2631  0.1779 -0.4465
   89SAPC  C316 8507   1.473   1.188   5.777 -0.0104 -0.1658  0.9086
   89SAPC  H16X 8508   1.521   1.282   5.742 -0.3578 -0.4694 -0.4420
   89SAPC  H16Y 8509   1.427   1.222   5.872  0.1187  0.8639  0.6145
   89SAPC  C317 8510   1.363   1.151   5.670 -0.1320  0.2955  0.3708
   89SAPC  H17X 8511   1.404   1.120   5.572 -3.0208  0.7680 -1.1099
   89SAPC  H17Y 8512   1.314   1.249   5.651 -0.5576 -0.4121 -2.5309
   89SAPC  C318 8513   1.263   1.051   5.727 -0.7389 -0.3840 -1.1692
   89SAPC  H18X 8514   1.302   0.948   5.714 -0.8306 -0.7537  1.1134
   89SAPC  H18Y 8515   1.159   1.066   5.690 -1.6700  0.0536  1.4402
   89SAPC  H18Z 8516   1.263   1.072   5.836  0.6827  0.6272 -1.3370
   90SAPC     N 8517   2.827   3.441   7.997  0.5158 -0.3153  0.7451
   90SAPC   C12 8518   2.952   3.396   7.916 -1.2388 -0.7110 -0.3815
   90SAPC  H12A 8519   2.964   3.289   7.928  0.1596 -0.7450 -1.7750
   90SAPC  H12B 8520   3.038   3.445   7.959 -1.8348  0.1580 -0.1641
   90SAPC   C13 8521   2.721   3.349   7.960  0.4019  0.3865  0.4872
   90SAPC  H13A 8522   2.636   3.353   8.026 -1.4372 -2.2190 -1.5343
   90SAPC  H13B 8523   2.684   3.360   7.860  2.2457 -2.3325 -0.6059
   90SAPC  H13C 8524   2.753   3.246   7.966 -0.9268 -0.1122 -0.5761
   90SAPC   C14 8525   2.838   3.426   8.142  0.1736 -0.0225  0.9236
   90SAPC  H14A 8526   2.901   3.507   8.177  0.9708  0.2475 -1.0023
   90SAPC  H14B 8527   2.737   3.428   8.178  1.0220  3.2912  3.7155
   90SAPC  H14C 8528   2.890   3.333   8.161  0.1187 -0.1702  0.3754
   90SAPC   C15 8529   2.780   3.573   7.950  0.2889 -0.3023 -0.0731
   90SAPC  H15A 8530   2.742   3.576   7.849  1.6659  0.4174 -0.5923
   90SAPC  H15B 8531   2.694   3.607   8.006  1.3344  0.8506  0.8950
   90SAPC  H15C 8532   2.857   3.648   7.956  1.2943 -1.2044 -1.1693
   90SAPC   C11 8533   2.961   3.415   7.761 -0.4224  1.3136 -0.1803
   90SAPC  H11A 8534   3.051   3.356   7.732 -0.5279  0.7192  0.6678
   90SAPC  H11B 8535   2.986   3.519   7.733  0.0683  1.6473  1.3895
   90SAPC     P 8536   2.820   3.213   7.670  0.2061 -0.1836 -0.1431
   90SAPC   O13 8537   2.906   3.133   7.763  0.1578 -0.4441  0.2484
   90SAPC   O14 8538   2.673   3.196   7.678 -0.2144  0.2232  0.7845
   90SAPC   O12 8539   2.847   3.366   7.693 -0.1087  0.1998  0.1799
   90SAPC   O11 8540   2.866   3.196   7.520 -0.1387 -0.5053  0.2521
   90SAPC    C1 8541   3.004   3.200   7.495 -0.5122  0.2174 -0.2186
   90SAPC    HA 8542   3.039   3.305   7.487 -0.8023  0.4451  1.2531
   90SAPC    HB 8543   3.067   3.145   7.569  0.1753 -3.3203 -3.1496
   90SAPC    C2 8544   3.035   3.115   7.365  0.0805  0.6320 -0.6250
   90SAPC    HS 8545   3.145   3.103   7.370  0.0536  0.8614  0.9329
   90SAPC   O21 8546   2.985   3.175   7.244 -0.1352  0.2983 -0.1181
   90SAPC   C21 8547   3.021   3.297   7.217 -0.0274  0.2386 -0.3343
   90SAPC   O22 8548   3.118   3.348   7.267  0.1917 -0.3953 -0.0687
   90SAPC   C22 8549   2.923   3.351   7.108 -0.7034  0.7379  0.0184
   90SAPC   H2R 8550   2.851   3.268   7.088 -1.5699  1.4394  0.1931
   90SAPC   H2S 8551   2.866   3.434   7.155 -0.4632  0.1054  1.4904
   90SAPC    C3 8552   2.980   2.964   7.384 -0.2725 -0.3142 -0.0638
   90SAPC    HX 8553   2.873   2.956   7.413 -0.4147 -0.9950 -0.7448
   90SAPC    HY 8554   3.032   2.918   7.471  1.2176 -1.1592 -1.3339
   90SAPC   O31 8555   3.015   2.879   7.274  0.3020 -0.2132  0.4138
   90SAPC   C31 8556   2.915   2.853   7.190  0.1056 -0.2951 -0.1082
   90SAPC   O32 8557   2.799   2.894   7.193 -0.2908  0.1461  0.5086
   90SAPC   C32 8558   2.981   2.779   7.075 -0.2249 -0.0217 -0.3457
   90SAPC   H2X 8559   2.993   2.672   7.103 -0.3657 -0.3317 -1.4064
   90SAPC   H2Y 8560   3.081   2.823   7.057 -0.0209 -0.3572 -0.0374
   90SAPC   C23 8561   2.984   3.393   6.968  0.1053 -0.6278 -0.0346
   90SAPC   H3R 8562   3.057   3.475   6.984 -0.0919 -0.4703  0.0649
   90SAPC   H3S 8563   2.904   3.441   6.907 -0.8565  0.4427  1.9725
   90SAPC   C24 8564   3.055   3.292   6.877  0.1784 -0.0255 -0.2271
   90SAPC   H4R 8565   3.131   3.243   6.941 -0.3659  1.1102  1.3400
   90SAPC   H4S 8566   3.106   3.349   6.796 -1.3159 -1.4489 -2.2744
   90SAPC   C25 8567   2.967   3.181   6.820  0.8477  0.2941  0.3358
   90SAPC   H5R 8568   2.953   3.096   6.888 -0.7878  0.4260  0.1931
   90SAPC   C26 8569   2.915   3.177   6.700  0.3838 -0.2966  0.2602
   90SAPC   H6R 8570   2.851   3.092   6.673 -0.4384  0.4936 -0.3124
   90SAPC   C27 8571   2.918   3.266   6.587  0.2822  0.3606  1.5138
   90SAPC   H7R 8572   2.961   3.208   6.503 -0.5344 -0.2300  1.4916
   90SAPC   H7S 8573   2.996   3.345   6.588  0.2241  0.4821 -0.4555
   90SAPC   C28 8574   2.790   3.334   6.537  0.0056 -0.7754  0.7341
   90SAPC   H8R 8575   2.737   3.383   6.620 -1.3101  0.4167 -0.7528
   90SAPC   C29 8576   2.741   3.337   6.406  0.1422  0.8014 -0.0142
   90SAPC   H9R 8577   2.640   3.378   6.388 -1.0102 -0.7858  2.3753
   90SAPC  C210 8578   2.826   3.294   6.288  0.6341 -0.6417 -0.1800
   90SAPC  H10R 8579   2.788   3.197   6.249  0.2945 -1.1799  1.4107
   90SAPC  H10S 8580   2.934   3.278   6.311  0.0146 -2.7624  1.7110
   90SAPC  C211 8581   2.816   3.404   6.178  0.1654  1.0336 -0.2948
   90SAPC  H11R 8582   2.745   3.483   6.205  0.3357  0.6796  1.2964
   90SAPC  C212 8583   2.865   3.397   6.055 -0.4598 -0.4632  0.0641
   90SAPC  H12R 8584   2.850   3.486   5.992 -0.9192 -1.1654 -0.8427
   90SAPC  C213 8585   2.979   3.303   6.003  0.1376  0.5645 -0.1576
   90SAPC  H13R 8586   2.972   3.206   6.057 -2.6351  0.1724 -1.0535
   90SAPC  H13S 8587   3.074   3.348   6.040 -0.4910  1.7105  0.1200
   90SAPC  C214 8588   2.983   3.273   5.854  0.2468 -1.1186 -0.6436
   90SAPC  H14R 8589   3.069   3.314   5.798 -0.0445 -2.2892 -2.0231
   90SAPC  C215 8590   2.911   3.180   5.787 -0.8671  0.1901  0.0135
   90SAPC  H15R 8591   2.941   3.161   5.682 -0.0743 -1.1755  0.4528
   90SAPC  C216 8592   2.787   3.113   5.837  0.0164  0.3376 -0.4246
   90SAPC  H16R 8593   2.727   3.195   5.882  1.0061  1.5188 -1.1862
   90SAPC  H16S 8594   2.807   3.042   5.921  0.3783  2.0469  0.9925
   90SAPC  C217 8595   2.706   3.049   5.726  0.0904  0.5602 -0.4258
   90SAPC  H17R 8596   2.766   2.979   5.665 -1.4415 -1.5684  0.3785
   90SAPC  H17S 8597   2.675   3.126   5.653 -0.4691 -0.7418 -1.5947
   90SAPC  C218 8598   2.577   2.978   5.780 -0.3408  0.6646  0.1813
   90SAPC  H18R 8599   2.529   3.049   5.851  1.0479  0.9350  0.8810
   90SAPC  H18S 8600   2.606   2.881   5.823 -0.5480  1.0554  1.2198
   90SAPC  C219 8601   2.477   2.954   5.662  0.8094 -0.4529  0.4135
   90SAPC  H19R 8602   2.532   2.900   5.583 -0.4726  1.1317 -1.6781
   90SAPC  H19S 8603   2.439   3.050   5.621  0.4173 -1.3571 -1.4280
   90SAPC  C220 8604   2.365   2.859   5.707 -0.3593 -0.0174  0.2338
   90SAPC  H20R 8605   2.411   2.778   5.768 -0.2050 -0.8744 -0.9789
   90SAPC  H20S 8606   2.321   2.820   5.612  0.5123  0.9483 -0.5906
   90SAPC  H20T 8607   2.296   2.912   5.775  0.6005 -1.8551  2.7889
   90SAPC   C33 8608   2.900   2.771   6.939 -0.7463 -0.6624  0.3950
   90SAPC   H3X 8609   2.864   2.873   6.913  0.9125  0.5924  2.6653
   90SAPC   H3Y 8610   2.820   2.697   6.958 -2.7179  1.6499  1.6092
   90SAPC   C34 8611   2.995   2.728   6.821  0.0958  0.4364 -0.9262
   90SAPC   H4X 8612   3.020   2.620   6.829  0.1402  0.4721 -0.5480
   90SAPC   H4Y 8613   3.094   2.780   6.823  0.4550 -0.2187 -1.3400
   90SAPC   C35 8614   2.940   2.754   6.678  0.0135 -0.2873  0.9654
   90SAPC   H5X 8615   2.923   2.864   6.681 -2.0838 -0.4279 -1.7214
   90SAPC   H5Y 8616   2.839   2.707   6.674  0.1209 -0.5941  1.7235
   90SAPC   C36 8617   3.029   2.721   6.553 -0.2078 -0.6655  0.4988
   90SAPC   H6X 8618   3.041   2.611   6.565  2.0172 -0.6282 -0.8658
   90SAPC   H6Y 8619   3.124   2.778   6.558 -1.1803  1.2940 -1.7082
   90SAPC   C37 8620   2.960   2.750   6.409 -0.4942  0.0917  0.0117
   90SAPC   H7X 8621   2.853   2.723   6.403 -0.3233 -0.3638 -1.2270
   90SAPC   H7Y 8622   3.014   2.688   6.334 -0.5150 -1.0612  0.9204
   90SAPC   C38 8623   2.975   2.903   6.380  0.3921 -0.5023  0.8910
   90SAPC   H8X 8624   3.078   2.925   6.413  1.2064 -0.5965 -1.4359
   90SAPC   H8Y 8625   2.888   2.953   6.429 -1.2259 -0.8741 -1.4174
   90SAPC   C39 8626   2.971   2.927   6.224 -0.1434 -0.3944 -0.2949
   90SAPC   H9X 8627   2.959   3.038   6.226  1.3082 -0.1881  2.3396
   90SAPC   H9Y 8628   2.889   2.872   6.174 -1.3387  1.2035 -0.1736
   90SAPC  C310 8629   3.108   2.894   6.153  0.2912  0.2347  0.0302
   90SAPC  H10X 8630   3.115   2.783   6.151 -0.2978  0.1442  1.5073
   90SAPC  H10Y 8631   3.191   2.928   6.219  0.5971 -0.7592  0.1756
   90SAPC  C311 8632   3.119   2.936   6.011  0.0122  0.2314 -0.4749
   90SAPC  H11X 8633   3.107   3.046   6.001 -3.0017  0.0679  0.3399
   90SAPC  H11Y 8634   3.032   2.890   5.958 -1.2305  1.1215  0.7071
   90SAPC  C312 8635   3.251   2.902   5.944 -0.4150  0.1190  0.3943
   90SAPC  H12X 8636   3.327   2.959   6.001  2.0370 -2.0131 -0.5626
   90SAPC  H12Y 8637   3.242   2.936   5.838 -2.6046 -1.3656  0.0207
   90SAPC  C313 8638   3.290   2.759   5.930  0.4177 -0.2599 -1.5869
   90SAPC  H13X 8639   3.207   2.705   5.879 -0.1068  0.4673 -1.5165
   90SAPC  H13Y 8640   3.288   2.708   6.028 -0.7193  0.3974 -1.2538
   90SAPC  C314 8641   3.419   2.735   5.846 -0.6326  0.2555 -0.0773
   90SAPC  H14X 8642   3.433   2.625   5.842  0.7702  0.4219 -0.2261
   90SAPC  H14Y 8643   3.500   2.778   5.909 -1.3620  2.8013 -0.7477
   90SAPC  C315 8644   3.421   2.791   5.703 -0.6464 -0.1743 -0.0701
   90SAPC  H15X 8645   3.436   2.901   5.697 -0.6034 -0.0219  1.9704
   90SAPC  H15Y 8646   3.318   2.778   5.665 -0.1334 -0.5775 -1.3860
   90SAPC  C316 8647   3.512   2.711   5.612  0.4779  0.4442 -0.2399
   90SAPC  H16X 8648   3.489   2.734   5.506  3.1995 -0.4272 -1.1175
   90SAPC  H16Y 8649   3.499   2.601   5.625  3.3800  0.3165  3.2858
   90SAPC  C317 8650   3.665   2.732   5.645  0.9379  0.0663  0.3702
   90SAPC  H17X 8651   3.721   2.648   5.601 -1.0076 -0.7239 -0.7437
   90SAPC  H17Y 8652   3.683   2.724   5.755 -1.2413  1.1016  0.8798
   90SAPC  C318 8653   3.718   2.858   5.579 -0.7451  0.2362  0.6171
   90SAPC  H18X 8654   3.652   2.937   5.620 -1.8002  0.7935 -1.9521
   90SAPC  H18Y 8655   3.695   2.850   5.470 -2.5453 -1.1068  1.0534
   90SAPC  H18Z 8656   3.827   2.875   5.585 -0.4541  0.2729 -2.8557
   91SAPC     N 8657   5.803   3.740   7.877 -0.7100 -0.2687  0.7143
   91SAPC   C12 8658   5.731   3.872   7.860 -0.4870  0.2070 -0.3238
   91SAPC  H12A 8659   5.809   3.946   7.849 -0.0617 -0.2454 -0.4284
   91SAPC  H12B 8660   5.683   3.909   7.949 -0.5594 -0.7922  0.0640
   91SAPC   C13 8661   5.907   3.751   7.987  0.5895 -0.1991 -0.4277
   91SAPC  H13A 8662   5.923   3.651   8.026  0.6662  0.3742  1.1077
   91SAPC  H13B 8663   6.006   3.791   7.972  1.6231 -0.6385  3.7192
   91SAPC  H13C 8664   5.861   3.806   8.068  1.8985  2.5332 -1.4241
   91SAPC   C14 8665   5.723   3.616   7.914  0.0005 -0.7202  0.1357
   91SAPC  H14A 8666   5.682   3.618   8.014 -0.6149  0.1568 -0.1217
   91SAPC  H14B 8667   5.635   3.618   7.851 -1.6186 -0.8456  2.2607
   91SAPC  H14C 8668   5.777   3.524   7.896 -0.2289 -0.6174 -1.1405
   91SAPC   C15 8669   5.867   3.709   7.741 -0.1389 -0.0137 -0.8721
   91SAPC  H15A 8670   5.789   3.669   7.679  1.6486 -1.7958 -2.1082
   91SAPC  H15B 8671   5.902   3.805   7.704 -0.6723  0.1698 -0.9060
   91SAPC  H15C 8672   5.950   3.640   7.750 -0.4681 -0.2775  0.3460
   91SAPC   C11 8673   5.628   3.897   7.753  0.2090 -0.7584  0.3353
   91SAPC  H11A 8674   5.682   3.881   7.657 -0.6091  3.1245 -0.9790
   91SAPC  H11B 8675   5.605   4.006   7.752  0.1189 -0.7635  1.4586
   91SAPC     P 8676   5.387   3.851   7.844 -0.4858  0.3095  0.1249
   91SAPC   O13 8677   5.313   3.728   7.891 -0.0648  0.8270 -0.1912
   91SAPC   O14 8678   5.430   3.946   7.950  0.1127  0.3653  0.0273
   91SAPC   O12 8679   5.512   3.806   7.758  0.1671 -0.1549 -0.0088
   91SAPC   O11 8680   5.293   3.924   7.744 -0.6187 -0.4770 -0.0721
   91SAPC    C1 8681   5.204   3.853   7.656  1.1732  0.7722 -0.2750
   91SAPC    HA 8682   5.170   3.756   7.696 -2.5145  2.1270  0.2078
   91SAPC    HB 8683   5.108   3.908   7.656 -0.0791 -1.2828  1.5848
   91SAPC    C2 8684   5.251   3.841   7.508  0.4468  0.3973 -0.3913
   91SAPC    HS 8685   5.331   3.763   7.503  0.3421  0.3025 -0.6058
   91SAPC   O21 8686   5.297   3.967   7.460 -0.7563  0.4086 -0.1466
   91SAPC   C21 8687   5.369   3.971   7.343  0.1058 -0.0576 -1.1287
   91SAPC   O22 8688   5.435   3.881   7.291  1.0287  0.0399  0.0643
   91SAPC   C22 8689   5.354   4.109   7.287 -0.0296 -0.7320 -0.4794
   91SAPC   H2R 8690   5.245   4.127   7.279  0.3888  4.4518  1.5825
   91SAPC   H2S 8691   5.383   4.185   7.363  0.4698 -0.5040 -0.8940
   91SAPC    C3 8692   5.127   3.800   7.419  0.3979 -0.6940 -0.1704
   91SAPC    HX 8693   5.043   3.872   7.431  1.9242  1.1364 -0.0398
   91SAPC    HY 8694   5.093   3.701   7.457 -1.9500 -0.8282 -2.3709
   91SAPC   O31 8695   5.157   3.801   7.279  0.5586  0.6533  0.1667
   91SAPC   C31 8696   5.055   3.762   7.205 -0.4165 -0.1945  0.1396
   91SAPC   O32 8697   4.946   3.725   7.247  0.5778  0.8264  0.0088
   91SAPC   C32 8698   5.095   3.779   7.062 -0.3014  0.1774  0.5479
   91SAPC   H2X 8699   5.205   3.766   7.048 -0.3767 -0.5194  0.5835
   91SAPC   H2Y 8700   5.069   3.885   7.041 -1.4699 -0.3593 -0.9127
   91SAPC   C23 8701   5.412   4.133   7.145 -0.4107 -0.0489 -0.2809
   91SAPC   H3R 8702   5.514   4.090   7.145 -0.2340  0.3577  0.6764
   91SAPC   H3S 8703   5.425   4.243   7.132 -0.4896 -0.1872 -1.7478
   91SAPC   C24 8704   5.320   4.082   7.027 -0.0348  0.3205 -0.3648
   91SAPC   H4R 8705   5.220   4.129   7.041 -0.3265 -0.8527  2.3293
   91SAPC   H4S 8706   5.313   3.973   7.050  1.0264  0.3133 -0.0345
   91SAPC   C25 8707   5.365   4.101   6.886  0.8362  0.8449  0.1047
   91SAPC   H5R 8708   5.371   4.209   6.865  0.3004  1.0588  0.9893
   91SAPC   C26 8709   5.399   4.002   6.799 -0.7271  0.2785  0.9543
   91SAPC   H6R 8710   5.443   4.041   6.705  0.0611 -1.9676  0.3302
   91SAPC   C27 8711   5.408   3.853   6.828 -0.7868  0.5062  0.4274
   91SAPC   H7R 8712   5.399   3.807   6.728 -0.1354  0.8128  0.2208
   91SAPC   H7S 8713   5.323   3.826   6.894  1.1060  0.1199  2.8231
   91SAPC   C28 8714   5.536   3.817   6.898  1.0761  0.0149  0.2913
   91SAPC   H8R 8715   5.557   3.883   6.983  2.1257 -1.4374  1.2174
   91SAPC   C29 8716   5.602   3.702   6.886 -0.3034 -0.5370  0.1964
   91SAPC   H9R 8717   5.685   3.680   6.955  0.8862  2.0920 -0.2780
   91SAPC  C210 8718   5.587   3.595   6.784  0.7231  0.3866  0.6627
   91SAPC  H10R 8719   5.682   3.537   6.777 -0.0304 -1.2756  2.8340
   91SAPC  H10S 8720   5.573   3.656   6.693  0.5147 -1.4235 -0.5811
   91SAPC  C211 8721   5.459   3.510   6.800 -0.3556  0.4447 -0.0420
   91SAPC  H11R 8722   5.426   3.489   6.902  2.7494 -0.5880  0.8731
   91SAPC  C212 8723   5.410   3.436   6.700  0.2588  0.1304  0.2168
   91SAPC  H12R 8724   5.322   3.375   6.724  0.7783 -0.0861  1.6910
   91SAPC  C213 8725   5.451   3.439   6.554 -0.0483  0.4194 -0.3073
   91SAPC  H13R 8726   5.431   3.350   6.491 -2.0645 -0.3608  1.2993
   91SAPC  H13S 8727   5.562   3.440   6.558  0.3287 -5.1430 -1.0974
   91SAPC  C214 8728   5.391   3.559   6.486  1.2227 -0.0122 -0.2469
   91SAPC  H14R 8729   5.404   3.651   6.544  1.1891  0.1411 -0.4835
   91SAPC  C215 8730   5.307   3.560   6.376  0.1396 -0.1654 -0.0583
   91SAPC  H15R 8731   5.257   3.655   6.355  1.8702  0.8437  0.2078
   91SAPC  C216 8732   5.262   3.447   6.293  1.0812  0.1109 -0.1023
   91SAPC  H16R 8733   5.173   3.424   6.355  1.1458 -1.6730 -0.6093
   91SAPC  H16S 8734   5.340   3.368   6.294  2.1380  1.0748  2.7096
   91SAPC  C217 8735   5.210   3.471   6.150 -0.0777 -0.4695  0.4157
   91SAPC  H17R 8736   5.159   3.570   6.151 -0.5150 -0.6925  0.0077
   91SAPC  H17S 8737   5.142   3.396   6.106 -0.5005  0.8949 -1.3710
   91SAPC  C218 8738   5.322   3.477   6.041 -0.0164 -0.3659  0.2119
   91SAPC  H18R 8739   5.373   3.379   6.050  0.5759 -0.1350 -0.5215
   91SAPC  H18S 8740   5.386   3.560   6.080  0.5886 -1.2295  1.0962
   91SAPC  C219 8741   5.263   3.500   5.902 -0.6928 -0.4750 -0.2825
   91SAPC  H19R 8742   5.218   3.601   5.897  0.0566 -0.1143  0.1254
   91SAPC  H19S 8743   5.184   3.429   5.868 -1.1580 -0.6615  1.1464
   91SAPC  C220 8744   5.378   3.500   5.798  0.3420  0.3948  0.1586
   91SAPC  H20R 8745   5.419   3.603   5.807 -0.5381  1.0590 -2.4964
   91SAPC  H20S 8746   5.327   3.505   5.699 -2.4942  1.0368  1.5446
   91SAPC  H20T 8747   5.449   3.414   5.799 -0.7111 -0.5018  1.7171
   91SAPC   C33 8748   5.031   3.688   6.947  0.5519 -0.8441  1.0815
   91SAPC   H3X 8749   4.934   3.736   6.921 -0.2094 -0.2126  4.5197
   91SAPC   H3Y 8750   5.014   3.590   6.998 -1.0237  0.1303  2.5366
   91SAPC   C34 8751   5.119   3.665   6.829  0.0413 -0.2686 -0.2556
   91SAPC   H4X 8752   5.211   3.614   6.863 -0.9926 -1.8811  0.1938
   91SAPC   H4Y 8753   5.133   3.765   6.781 -4.0400 -0.1731 -1.6663
   91SAPC   C35 8754   5.050   3.586   6.716 -0.6037 -0.1879  0.0244
   91SAPC   H5X 8755   5.046   3.481   6.753  2.0878  0.2277  1.7711
   91SAPC   H5Y 8756   5.129   3.585   6.638 -0.3828 -0.9717  0.2544
   91SAPC   C36 8757   4.910   3.636   6.670 -0.2106  0.0055 -0.2574
   91SAPC   H6X 8758   4.911   3.743   6.642  1.1173 -0.2322 -1.1834
   91SAPC   H6Y 8759   4.846   3.629   6.761 -2.2598  1.8037 -1.4721
   91SAPC   C37 8760   4.834   3.542   6.567 -0.5155 -0.0963 -0.5422
   91SAPC   H7X 8761   4.732   3.583   6.585 -0.0413  1.0706 -0.3966
   91SAPC   H7Y 8762   4.850   3.437   6.599 -0.3789  0.3736  0.9949
   91SAPC   C38 8763   4.863   3.579   6.424 -0.4355 -0.2045  0.1617
   91SAPC   H8X 8764   4.967   3.548   6.401 -0.5242 -1.3180  1.2259
   91SAPC   H8Y 8765   4.861   3.689   6.403 -0.2040 -0.1983  0.1702
   91SAPC   C39 8766   4.782   3.509   6.324 -0.3970 -0.6284 -0.2178
   91SAPC   H9X 8767   4.676   3.494   6.354 -0.0226 -1.8161  0.5999
   91SAPC   H9Y 8768   4.801   3.401   6.302 -0.5231 -0.9937  1.3500
   91SAPC  C310 8769   4.782   3.584   6.190 -0.2884 -0.0392  0.1627
   91SAPC  H10X 8770   4.885   3.595   6.148 -0.9435 -1.2128 -1.9042
   91SAPC  H10Y 8771   4.738   3.684   6.207  1.2618  0.8125 -0.5971
   91SAPC  C311 8772   4.704   3.516   6.075 -0.0945  0.3633 -0.0278
   91SAPC  H11X 8773   4.608   3.480   6.118  1.3940 -0.1169  3.2041
   91SAPC  H11Y 8774   4.759   3.422   6.054  0.0593  0.6111 -0.7749
   91SAPC  C312 8775   4.686   3.600   5.946  0.1757  0.3953  0.6088
   91SAPC  H12X 8776   4.635   3.698   5.958  0.0313  0.3087  0.7067
   91SAPC  H12Y 8777   4.635   3.537   5.870  1.5508 -0.6010  0.4649
   91SAPC  C313 8778   4.829   3.617   5.890 -0.2603 -0.2573  0.0921
   91SAPC  H13X 8779   4.885   3.521   5.895 -1.3023 -1.1328 -2.9187
   91SAPC  H13Y 8780   4.875   3.688   5.962 -2.5943  1.7287 -0.2704
   91SAPC  C314 8781   4.821   3.675   5.753 -0.4541  0.1563 -0.2940
   91SAPC  H14X 8782   4.744   3.756   5.753 -0.6582 -0.0367 -0.2469
   91SAPC  H14Y 8783   4.783   3.588   5.696 -1.0618  0.4320 -0.3198
   91SAPC  C315 8784   4.937   3.734   5.688 -0.2357 -0.7427  0.5206
   91SAPC  H15X 8785   4.895   3.764   5.590 -1.2838 -1.0191  0.8765
   91SAPC  H15Y 8786   5.018   3.660   5.668 -0.1496 -0.2803 -0.9003
   91SAPC  C316 8787   4.991   3.860   5.764  0.0433 -0.3495 -0.7391
   91SAPC  H16X 8788   5.075   3.815   5.822 -0.7829 -2.4509 -1.0756
   91SAPC  H16Y 8789   4.909   3.897   5.829 -0.3344 -1.1246 -0.7643
   91SAPC  C317 8790   5.039   3.975   5.677  0.4620 -0.1505  0.0567
   91SAPC  H17X 8791   5.039   4.067   5.738  2.7114 -0.6049  0.8388
   91SAPC  H17Y 8792   4.966   3.996   5.596  1.3363  0.7164 -0.5242
   91SAPC  C318 8793   5.183   3.936   5.621  0.1907 -0.6113  0.8278
   91SAPC  H18X 8794   5.226   4.004   5.545 -0.6086  0.5342  1.3657
   91SAPC  H18Y 8795   5.172   3.839   5.568 -1.7052  0.4669 -0.8731
   91SAPC  H18Z 8796   5.255   3.935   5.706  1.0594 -0.1226  0.1101
   92SAPC     N 8797   5.366   0.651   7.610  0.0369 -0.1743  0.6289
   92SAPC   C12 8798   5.347   0.807   7.598  0.2602  0.0834  0.0632
   92SAPC  H12A 8799   5.242   0.821   7.621  0.6619  2.6180  0.7096
   92SAPC  H12B 8800   5.358   0.837   7.495  2.1137 -0.5412  0.0379
   92SAPC   C13 8801   5.511   0.605   7.588 -0.1541  0.3124 -0.4189
   92SAPC  H13A 8802   5.514   0.519   7.654 -0.3075  1.1195  0.6604
   92SAPC  H13B 8803   5.533   0.569   7.489  0.6042  0.0245 -0.1491
   92SAPC  H13C 8804   5.569   0.688   7.624 -2.7920  2.1068  0.0090
   92SAPC   C14 8805   5.314   0.608   7.741 -0.1758 -0.9196  0.0418
   92SAPC  H14A 8806   5.207   0.626   7.735 -0.0600 -0.2417 -0.0831
   92SAPC  H14B 8807   5.337   0.504   7.760 -0.2597 -0.8586  0.4860
   92SAPC  H14C 8808   5.349   0.663   7.828 -1.5630 -1.0005  0.6799
   92SAPC   C15 8809   5.287   0.579   7.507 -0.7514 -0.8485  0.5720
   92SAPC  H15A 8810   5.323   0.603   7.408 -2.3750  0.6191  0.2812
   92SAPC  H15B 8811   5.291   0.472   7.519 -2.8810 -0.8656  1.6858
   92SAPC  H15C 8812   5.184   0.614   7.511 -0.7322 -0.5152 -1.2414
   92SAPC   C11 8813   5.422   0.899   7.694  0.7671  0.1474  0.3360
   92SAPC  H11A 8814   5.385   0.885   7.798 -1.8493 -1.8700 -0.7442
   92SAPC  H11B 8815   5.387   1.003   7.676  0.6751 -0.5371 -5.1984
   92SAPC     P 8816   5.660   0.940   7.579  0.0018  0.2481 -0.2038
   92SAPC   O13 8817   5.668   1.090   7.603  0.3555  0.3981 -0.5490
   92SAPC   O14 8818   5.792   0.867   7.582  0.5661  0.0661 -0.4269
   92SAPC   O12 8819   5.569   0.879   7.689 -0.0035 -0.4771  0.6419
   92SAPC   O11 8820   5.575   0.912   7.450  0.2031  0.7409 -0.2813
   92SAPC    C1 8821   5.517   1.024   7.384 -0.1854  0.0390 -0.4471
   92SAPC    HA 8822   5.410   1.033   7.411 -0.1467 -2.0066  0.6116
   92SAPC    HB 8823   5.556   1.125   7.411 -2.6082  1.3078 -1.4358
   92SAPC    C2 8824   5.538   1.013   7.237 -0.0312 -0.5554  0.3178
   92SAPC    HS 8825   5.508   0.910   7.208  1.7976 -1.1534  0.4449
   92SAPC   O21 8826   5.679   1.041   7.214 -0.0350  0.3830  0.1412
   92SAPC   C21 8827   5.734   0.967   7.116  0.4242 -0.0223  0.5015
   92SAPC   O22 8828   5.677   0.907   7.028  0.3209  0.0315 -0.3127
   92SAPC   C22 8829   5.882   0.958   7.134 -0.1838 -0.6628 -0.4636
   92SAPC   H2R 8830   5.919   0.853   7.137  2.1115  0.0628 -1.4235
   92SAPC   H2S 8831   5.929   0.994   7.040  0.5697 -0.2965  0.0413
   92SAPC    C3 8832   5.455   1.118   7.154  0.7636 -0.3617  0.2967
   92SAPC    HX 8833   5.498   1.220   7.162  2.0095 -0.7777 -0.5764
   92SAPC    HY 8834   5.352   1.120   7.194 -0.4095 -1.8546 -2.3610
   92SAPC   O31 8835   5.443   1.072   7.017 -0.0794  0.2187  1.0433
   92SAPC   C31 8836   5.522   1.141   6.927 -0.2865  0.0434  0.1786
   92SAPC   O32 8837   5.584   1.245   6.951 -0.1597 -0.1813 -0.0703
   92SAPC   C32 8838   5.519   1.072   6.791  0.7641  0.4446 -0.4857
   92SAPC   H2X 8839   5.416   1.054   6.754  0.4088  0.3221  0.5433
   92SAPC   H2Y 8840   5.558   0.970   6.806 -0.2906  0.1649  0.5101
   92SAPC   C23 8841   5.931   1.028   7.259 -0.2400  0.2501 -0.5601
   92SAPC   H3R 8842   5.903   0.964   7.346  2.1790 -1.8840 -1.2307
   92SAPC   H3S 8843   5.882   1.127   7.273 -1.8199 -0.4497 -0.8962
   92SAPC   C24 8844   6.084   1.042   7.255 -0.2241  0.1995  0.0032
   92SAPC   H4R 8845   6.123   1.066   7.154 -0.1276 -0.8214 -0.2199
   92SAPC   H4S 8846   6.124   0.942   7.286  0.9845  0.5675 -0.3243
   92SAPC   C25 8847   6.136   1.139   7.356 -0.4374  0.0564  0.3823
   92SAPC   H5R 8848   6.209   1.099   7.428  1.3703 -0.8118 -1.8065
   92SAPC   C26 8849   6.114   1.270   7.347 -0.1098 -0.2850 -0.1735
   92SAPC   H6R 8850   6.146   1.328   7.435  1.9772  0.2196 -1.2154
   92SAPC   C27 8851   6.053   1.360   7.243  0.2030  0.0314  0.3398
   92SAPC   H7R 8852   5.949   1.380   7.274  0.1797  0.1463  0.1885
   92SAPC   H7S 8853   6.049   1.298   7.151  0.4018  0.7588 -0.1618
   92SAPC   C28 8854   6.104   1.504   7.222 -0.4043  0.6744 -0.0188
   92SAPC   H8R 8855   6.132   1.557   7.314  0.0731 -0.0876  0.2856
   92SAPC   C29 8856   6.110   1.569   7.105  0.1095 -0.6347  0.2335
   92SAPC   H9R 8857   6.149   1.672   7.113 -0.1508 -0.4427 -0.7917
   92SAPC  C210 8858   6.074   1.514   6.971 -0.3351  0.4974 -0.3433
   92SAPC  H10R 8859   6.153   1.447   6.930 -0.6708  0.0024 -0.1786
   92SAPC  H10S 8860   6.070   1.607   6.910 -1.3413  0.9248  0.3460
   92SAPC  C211 8861   5.934   1.458   6.953  0.1809  0.4769  0.1673
   92SAPC  H11R 8862   5.862   1.536   6.982  0.1847  1.2733 -1.7882
   92SAPC  C212 8863   5.894   1.336   6.894 -0.0171 -0.3714 -0.6303
   92SAPC  H12R 8864   5.786   1.317   6.885  0.1226 -2.0635  0.6928
   92SAPC  C213 8865   5.986   1.231   6.837 -0.2248 -0.5998  0.5836
   92SAPC  H13R 8866   6.010   1.160   6.919 -0.6503  0.7053  1.8872
   92SAPC  H13S 8867   6.087   1.272   6.816 -0.3137  0.1768  1.6003
   92SAPC  C214 8868   5.933   1.153   6.720 -0.0536 -0.6641  0.6168
   92SAPC  H14R 8869   5.859   1.077   6.749  1.0043 -1.5041  1.2090
   92SAPC  C215 8870   6.003   1.143   6.603  0.2257 -0.4258  0.1225
   92SAPC  H15R 8871   5.955   1.086   6.522  0.5125 -1.9808  1.0158
   92SAPC  C216 8872   6.117   1.230   6.568  0.8456  0.3000  0.2712
   92SAPC  H16R 8873   6.213   1.188   6.605  1.5448 -0.0227 -1.7528
   92SAPC  H16S 8874   6.097   1.332   6.607 -1.8877  0.5566 -1.5733
   92SAPC  C217 8875   6.130   1.239   6.413 -0.7194 -0.1974 -0.0157
   92SAPC  H17R 8876   6.036   1.271   6.363 -0.7334 -1.6812 -1.0063
   92SAPC  H17S 8877   6.159   1.150   6.354  1.2432  1.2866 -1.4113
   92SAPC  C218 8878   6.231   1.350   6.371 -0.2383 -0.2486  0.6562
   92SAPC  H18R 8879   6.326   1.336   6.428 -0.4667  0.9536  1.3642
   92SAPC  H18S 8880   6.193   1.446   6.411  3.6034  1.5671  0.4580
   92SAPC  C219 8881   6.254   1.379   6.223 -0.3365  0.5964  0.7594
   92SAPC  H19R 8882   6.334   1.457   6.227  1.6201 -1.3362  2.0764
   92SAPC  H19S 8883   6.166   1.428   6.177 -0.1954 -1.0615 -1.3919
   92SAPC  C220 8884   6.308   1.270   6.132 -0.8052 -0.2431  0.0660
   92SAPC  H20R 8885   6.319   1.314   6.030 -0.5598  0.0790  0.2328
   92SAPC  H20S 8886   6.248   1.177   6.124  1.7663 -2.0137  0.1319
   92SAPC  H20T 8887   6.410   1.244   6.168  0.2298  1.6266 -1.3164
   92SAPC   C33 8888   5.573   1.154   6.667 -0.0886 -0.2944 -0.2941
   92SAPC   H3X 8889   5.672   1.196   6.694 -0.6681  0.3823  0.8652
   92SAPC   H3Y 8890   5.498   1.233   6.646 -0.7762 -0.5367  1.1161
   92SAPC   C34 8891   5.570   1.082   6.533  0.1845 -0.2902  0.5089
   92SAPC   H4X 8892   5.471   1.036   6.511  0.1899 -0.1163  0.1044
   92SAPC   H4Y 8893   5.648   1.002   6.533  0.3875 -0.1122  1.6359
   92SAPC   C35 8894   5.604   1.178   6.418 -0.2504 -0.6787 -0.0491
   92SAPC   H5X 8895   5.684   1.247   6.453 -1.0338 -0.3936  1.2467
   92SAPC   H5Y 8896   5.511   1.236   6.398 -0.3970 -0.5942  0.8467
   92SAPC   C36 8897   5.645   1.095   6.290 -0.1477 -0.2017 -0.0144
   92SAPC   H6X 8898   5.588   1.000   6.285 -0.5081  0.0388 -0.6095
   92SAPC   H6Y 8899   5.752   1.065   6.290  0.0583  0.5094 -0.2913
   92SAPC   C37 8900   5.610   1.180   6.165 -0.3009 -0.3343 -0.2189
   92SAPC   H7X 8901   5.662   1.278   6.167 -0.6101 -0.1457 -0.8239
   92SAPC   H7Y 8902   5.501   1.202   6.156 -0.0579  0.3214 -2.1890
   92SAPC   C38 8903   5.654   1.107   6.033  0.4364  0.3798 -0.6399
   92SAPC   H8X 8904   5.624   1.001   6.036 -3.5962  1.3756  1.6417
   92SAPC   H8Y 8905   5.765   1.111   6.026  0.4863  1.6696  0.3021
   92SAPC   C39 8906   5.595   1.169   5.906 -0.0856  0.2622  0.5189
   92SAPC   H9X 8907   5.670   1.168   5.824  0.5481  0.4213  1.0843
   92SAPC   H9Y 8908   5.587   1.278   5.926  2.0943  0.9572 -1.9674
   92SAPC  C310 8909   5.464   1.095   5.863  0.3003  0.0754 -0.1317
   92SAPC  H10X 8910   5.404   1.159   5.795  1.1664  0.3685 -0.6411
   92SAPC  H10Y 8911   5.395   1.083   5.950 -0.7201 -0.0196 -0.9369
   92SAPC  C311 8912   5.490   0.952   5.806  0.6703  0.3587 -0.8599
   92SAPC  H11X 8913   5.389   0.916   5.776  0.2382  1.0708 -0.2796
   92SAPC  H11Y 8914   5.520   0.886   5.891 -0.4870  0.5503 -0.2908
   92SAPC  C312 8915   5.574   0.962   5.684  0.1326 -0.5151  0.0645
   92SAPC  H12X 8916   5.678   0.994   5.704  0.0762  0.3633 -0.9684
   92SAPC  H12Y 8917   5.530   1.033   5.610  0.2332 -0.8107 -0.2772
   92SAPC  C313 8918   5.590   0.826   5.613  1.1964  0.0050  0.7565
   92SAPC  H13X 8919   5.489   0.781   5.601  0.8334  1.1718 -0.8847
   92SAPC  H13Y 8920   5.650   0.753   5.672  0.4084 -1.8919 -0.7066
   92SAPC  C314 8921   5.653   0.845   5.472 -0.6235  0.0041 -0.3045
   92SAPC  H14X 8922   5.601   0.930   5.423 -2.4164 -0.4856  0.6785
   92SAPC  H14Y 8923   5.629   0.755   5.412  0.1906 -0.6020  0.2538
   92SAPC  C315 8924   5.803   0.868   5.480  0.2652 -0.4654 -0.1177
   92SAPC  H15X 8925   5.844   0.808   5.565  1.8479  0.7810  0.0459
   92SAPC  H15Y 8926   5.832   0.973   5.499 -0.5583  0.0230 -1.4560
   92SAPC  C316 8927   5.866   0.836   5.341  0.0936 -0.2852 -0.7705
   92SAPC  H16X 8928   5.810   0.890   5.261 -0.9124  0.0141  0.1013
   92SAPC  H16Y 8929   5.851   0.728   5.323  1.1929 -0.6908  0.6080
   92SAPC  C317 8930   6.019   0.862   5.349  0.3634 -0.3368 -0.2306
   92SAPC  H17X 8931   6.047   0.853   5.457  0.2807 -1.1265 -0.2713
   92SAPC  H17Y 8932   6.053   0.966   5.331  2.0546 -1.0690 -1.5213
   92SAPC  C318 8933   6.098   0.761   5.262  0.4109 -0.4035  0.4919
   92SAPC  H18X 8934   6.072   0.659   5.294 -0.1736 -0.0920  1.0209
   92SAPC  H18Y 8935   6.209   0.763   5.264  0.5903 -0.7952 -2.8111
   92SAPC  H18Z 8936   6.070   0.783   5.156 -1.9457 -2.0365  0.7102
   93SAPC     N 8937   0.013   3.760   7.767 -0.1823  0.7913  0.6771
   93SAPC   C12 8938  -0.102   3.673   7.813  0.7937 -0.7335  0.3461
   93SAPC  H12A 8939  -0.180   3.726   7.865  0.3173 -0.9590 -0.1256
   93SAPC  H12B 8940  -0.060   3.603   7.883  1.0217 -1.0315 -0.0859
   93SAPC   C13 8941  -0.037   3.840   7.649 -0.0111 -0.1829 -0.8032
   93SAPC  H13A 8942  -0.093   3.786   7.574  0.3631  0.9927 -1.9571
   93SAPC  H13B 8943  -0.101   3.923   7.676  0.4332 -0.2539  0.5591
   93SAPC  H13C 8944   0.046   3.888   7.601  2.0963 -1.0737  1.7084
   93SAPC   C14 8945   0.050   3.852   7.878 -0.2846  0.0042 -0.3062
   93SAPC  H14A 8946   0.121   3.927   7.846  1.8685 -1.2920  1.1881
   93SAPC  H14B 8947  -0.035   3.898   7.926  1.1213  0.2932  2.0693
   93SAPC  H14C 8948   0.096   3.798   7.960  0.0636  1.9539  0.8641
   93SAPC   C15 8949   0.131   3.675   7.726 -0.1655 -0.4087 -0.4335
   93SAPC  H15A 8950   0.163   3.620   7.813  0.4168 -0.2594 -0.5500
   93SAPC  H15B 8951   0.079   3.615   7.652 -0.1250  0.3591 -1.0978
   93SAPC  H15C 8952   0.211   3.735   7.686 -0.1406 -0.2021 -0.0772
   93SAPC   C11 8953  -0.181   3.583   7.710  0.4491  0.1554 -0.5446
   93SAPC  H11A 8954  -0.250   3.511   7.758  1.3269 -0.6703 -0.5093
   93SAPC  H11B 8955  -0.107   3.527   7.649  2.2996  1.3241  0.5179
   93SAPC     P 8956  -0.400   3.730   7.674 -0.6622 -0.1396  0.1030
   93SAPC   O13 8957  -0.491   3.624   7.714  0.0015 -0.3508  0.2918
   93SAPC   O14 8958  -0.380   3.832   7.782 -0.0335 -0.2023  0.4042
   93SAPC   O12 8959  -0.258   3.673   7.631 -0.0383 -0.3956  0.8127
   93SAPC   O11 8960  -0.452   3.796   7.536  0.3553 -0.1186 -0.0996
   93SAPC    C1 8961  -0.384   3.904   7.475 -0.3453 -0.2460  0.4055
   93SAPC    HA 8962  -0.444   3.995   7.455  0.2895 -0.0336 -0.5615
   93SAPC    HB 8963  -0.299   3.934   7.540 -0.1030  0.7233 -0.3386
   93SAPC    C2 8964  -0.342   3.870   7.334 -0.1884 -0.0871 -0.4872
   93SAPC    HS 8965  -0.331   3.968   7.282 -1.0765 -0.4830 -1.4598
   93SAPC   O21 8966  -0.435   3.789   7.264  0.3614 -0.6159 -0.3105
   93SAPC   C21 8967  -0.549   3.841   7.223 -0.1995 -0.5899  0.0233
   93SAPC   O22 8968  -0.587   3.955   7.249 -0.0775 -0.1281 -0.0846
   93SAPC   C22 8969  -0.631   3.737   7.140  0.4298 -0.4598 -0.3431
   93SAPC   H2R 8970  -0.560   3.673   7.083  1.5183  1.0734 -0.7547
   93SAPC   H2S 8971  -0.691   3.679   7.214 -0.8155  0.8051 -0.3296
   93SAPC    C3 8972  -0.199   3.803   7.336 -0.1378 -0.1563  0.0334
   93SAPC    HX 8973  -0.209   3.717   7.406 -0.2593  1.2117  1.7816
   93SAPC    HY 8974  -0.124   3.870   7.385  1.1999 -2.2064  0.9196
   93SAPC   O31 8975  -0.155   3.762   7.204 -0.2006  0.4794  0.2009
   93SAPC   C31 8976  -0.117   3.861   7.131 -0.1793 -0.1447  0.0007
   93SAPC   O32 8977  -0.096   3.974   7.165  0.3123 -0.7060 -0.3881
   93SAPC   C32 8978  -0.112   3.812   6.983  0.1742  0.4411 -0.0248
   93SAPC   H2X 8979  -0.149   3.707   6.980  0.4637  0.3463 -0.3159
   93SAPC   H2Y 8980  -0.004   3.810   6.956 -0.6557  0.0792 -3.9778
   93SAPC   C23 8981  -0.724   3.815   7.041 -0.0877 -0.0808 -0.4801
   93SAPC   H3R 8982  -0.799   3.875   7.097 -0.1827  1.4635 -2.1768
   93SAPC   H3S 8983  -0.783   3.732   6.995 -0.0245  0.3108 -1.2780
   93SAPC   C24 8984  -0.664   3.894   6.920 -0.4839 -0.0320  0.0156
   93SAPC   H4R 8985  -0.617   3.990   6.949 -0.3552  0.0631 -0.5019
   93SAPC   H4S 8986  -0.757   3.914   6.862 -0.9483 -0.4226  0.6137
   93SAPC   C25 8987  -0.565   3.822   6.833  0.4497  0.4069  0.6141
   93SAPC   H5R 8988  -0.493   3.752   6.876  1.1624  0.6142 -0.2101
   93SAPC   C26 8989  -0.556   3.843   6.700  0.8454  1.0751  0.5009
   93SAPC   H6R 8990  -0.484   3.794   6.632 -0.5794  1.0467 -1.0344
   93SAPC   C27 8991  -0.635   3.940   6.615 -0.0225  0.4697 -0.0981
   93SAPC   H7R 8992  -0.743   3.942   6.640 -0.2210  1.3359 -0.9899
   93SAPC   H7S 8993  -0.637   3.887   6.518 -1.9583 -3.0801  1.6710
   93SAPC   C28 8994  -0.585   4.083   6.613 -0.0896  0.2538  0.4579
   93SAPC   H8R 8995  -0.549   4.126   6.708 -0.6385  0.9095  0.3730
   93SAPC   C29 8996  -0.563   4.145   6.500  0.3152  0.4817 -0.4680
   93SAPC   H9R 8997  -0.513   4.242   6.489 -1.8935  1.8581  0.7732
   93SAPC  C210 8998  -0.601   4.094   6.362 -0.4730  0.5279  0.2814
   93SAPC  H10R 8999  -0.570   3.988   6.354 -1.8786  0.1487 -0.5186
   93SAPC  H10S 9000  -0.540   4.158   6.295 -0.7965 -0.1048 -0.6334
   93SAPC  C211 9001  -0.745   4.076   6.336  0.6917 -0.3013  0.4854
   93SAPC  H11R 9002  -0.789   4.004   6.406  1.1645 -1.4047 -0.3252
   93SAPC  C212 9003  -0.812   4.107   6.220 -0.1673  0.5481  0.6175
   93SAPC  H12R 9004  -0.919   4.083   6.213 -0.2346  1.3514 -1.7401
   93SAPC  C213 9005  -0.741   4.181   6.108 -0.0452 -0.0922 -0.2648
   93SAPC  H13R 9006  -0.667   4.256   6.143 -0.2545 -0.2116  0.4562
   93SAPC  H13S 9007  -0.824   4.245   6.072 -2.0150 -0.8299  2.5911
   93SAPC  C214 9008  -0.685   4.100   5.993  0.9354  0.1545 -0.0103
   93SAPC  H14R 9009  -0.633   4.009   6.027 -0.0657  0.2364  1.8671
   93SAPC  C215 9010  -0.709   4.113   5.860  0.1288  0.3454  0.0836
   93SAPC  H15R 9011  -0.660   4.048   5.785 -1.0019 -1.4932  0.8652
   93SAPC  C216 9012  -0.778   4.236   5.800  0.0768  0.0278  0.1763
   93SAPC  H16R 9013  -0.711   4.324   5.791  0.6849 -0.6393 -2.4556
   93SAPC  H16S 9014  -0.862   4.267   5.866  1.2976  0.6656  1.4948
   93SAPC  C217 9015  -0.834   4.194   5.664  0.3239 -0.2134 -0.3642
   93SAPC  H17R 9016  -0.889   4.286   5.634 -2.4854 -0.9068  2.1912
   93SAPC  H17S 9017  -0.911   4.116   5.675 -0.1829  0.3754  0.3859
   93SAPC  C218 9018  -0.738   4.157   5.550 -0.5118  0.1903  0.5847
   93SAPC  H18R 9019  -0.722   4.047   5.554 -1.8751 -0.1107 -0.9626
   93SAPC  H18S 9020  -0.640   4.199   5.581  0.8958 -0.9390 -1.9286
   93SAPC  C219 9021  -0.778   4.211   5.413  0.0631  0.4151 -0.4054
   93SAPC  H19R 9022  -0.805   4.319   5.419 -0.4738  0.1998  2.6474
   93SAPC  H19S 9023  -0.873   4.162   5.383  0.8649  0.4027 -3.2041
   93SAPC  C220 9024  -0.677   4.175   5.313 -0.3737 -0.2202  0.2954
   93SAPC  H20R 9025  -0.708   4.204   5.210 -0.4665  2.4208  0.9932
   93SAPC  H20S 9026  -0.672   4.064   5.323 -2.2309 -0.3737 -0.0331
   93SAPC  H20T 9027  -0.575   4.216   5.327 -0.8857  1.1902  0.0990
   93SAPC   C33 9028  -0.181   3.888   6.867  0.7776 -0.4122 -0.6121
   93SAPC   H3X 9029  -0.162   3.997   6.868  0.8917 -0.4315 -0.6728
   93SAPC   H3Y 9030  -0.290   3.870   6.885  0.9338 -0.2147  0.6154
   93SAPC   C34 9031  -0.142   3.841   6.727 -0.9471 -0.3368  0.5351
   93SAPC   H4X 9032  -0.197   3.748   6.702 -0.4740 -0.4544 -0.0873
   93SAPC   H4Y 9033  -0.031   3.829   6.722 -0.8271  1.2330 -1.9293
   93SAPC   C35 9034  -0.184   3.941   6.618 -0.5278 -0.2405  0.0247
   93SAPC   H5X 9035  -0.128   4.036   6.631  0.8710 -1.1710  1.0951
   93SAPC   H5Y 9036  -0.290   3.972   6.633 -0.6112 -0.5103  0.0051
   93SAPC   C36 9037  -0.159   3.890   6.475 -0.1280 -0.4066 -0.6554
   93SAPC   H6X 9038  -0.207   3.791   6.468  0.3353 -0.6604 -0.3442
   93SAPC   H6Y 9039  -0.051   3.875   6.452 -0.2401 -0.6481 -1.0325
   93SAPC   C37 9040  -0.212   3.983   6.360 -0.5930 -0.4226 -0.9734
   93SAPC   H7X 9041  -0.173   4.083   6.386 -1.2976 -0.4631  0.3231
   93SAPC   H7Y 9042  -0.321   3.996   6.373 -0.5663  0.1485 -1.3159
   93SAPC   C38 9043  -0.183   3.921   6.227  0.4287 -0.1112 -0.0314
   93SAPC   H8X 9044  -0.217   3.815   6.221 -2.6607  0.7681  0.2792
   93SAPC   H8Y 9045  -0.073   3.903   6.228  0.0622 -2.7780 -0.2660
   93SAPC   C39 9046  -0.244   4.006   6.111  0.0559  0.0336 -0.0895
   93SAPC   H9X 9047  -0.351   4.022   6.138 -0.1213 -1.2568  0.0473
   93SAPC   H9Y 9048  -0.252   3.941   6.021 -2.0557 -0.2077  0.2261
   93SAPC  C310 9049  -0.179   4.142   6.093 -1.2158 -0.4922 -0.3316
   93SAPC  H10X 9050  -0.076   4.127   6.053 -0.6434  1.5573  0.2541
   93SAPC  H10Y 9051  -0.171   4.173   6.200 -0.5961 -1.2553 -0.1477
   93SAPC  C311 9052  -0.269   4.237   6.018  0.4450  0.0744  0.0094
   93SAPC  H11X 9053  -0.212   4.332   6.013  1.2541 -0.3047  1.4689
   93SAPC  H11Y 9054  -0.361   4.257   6.076 -0.5188 -0.4124 -1.3048
   93SAPC  C312 9055  -0.306   4.196   5.876 -0.1671  0.0032 -0.3359
   93SAPC  H12X 9056  -0.352   4.096   5.868 -3.7285  1.3474  1.2006
   93SAPC  H12Y 9057  -0.213   4.198   5.815  0.1806  0.0257  0.1932
   93SAPC  C313 9058  -0.400   4.297   5.809 -0.4956  0.6262  0.9841
   93SAPC  H13X 9059  -0.476   4.332   5.882  0.5598  1.5516  1.6660
   93SAPC  H13Y 9060  -0.458   4.256   5.724 -2.3487  2.1776  1.4286
   93SAPC  C314 9061  -0.328   4.425   5.746  0.3263 -0.2739 -0.2740
   93SAPC  H14X 9062  -0.277   4.390   5.653  1.5706  0.4018  0.1311
   93SAPC  H14Y 9063  -0.245   4.446   5.816 -0.3648  1.4581  0.0721
   93SAPC  C315 9064  -0.419   4.547   5.733 -0.4124  0.5263 -0.0792
   93SAPC  H15X 9065  -0.365   4.635   5.692  1.7054 -0.8560 -0.4467
   93SAPC  H15Y 9066  -0.467   4.572   5.829 -0.3919 -1.4907  0.4910
   93SAPC  C316 9067  -0.530   4.532   5.626  0.0479  0.3888  0.2515
   93SAPC  H16X 9068  -0.597   4.619   5.615 -1.6141 -1.0367 -1.8053
   93SAPC  H16Y 9069  -0.584   4.445   5.671  0.1262  1.3247  2.2662
   93SAPC  C317 9070  -0.488   4.492   5.485 -0.3257  0.3468  0.1612
   93SAPC  H17X 9071  -0.577   4.480   5.419  0.8390 -1.8437 -1.1095
   93SAPC  H17Y 9072  -0.447   4.390   5.473 -0.7690  0.4815 -4.1852
   93SAPC  C318 9073  -0.406   4.603   5.416 -0.2380  0.0820 -0.8032
   93SAPC  H18X 9074  -0.483   4.681   5.398 -2.6591 -1.6971  1.2333
   93SAPC  H18Y 9075  -0.351   4.574   5.324  0.7242 -0.6858 -0.0074
   93SAPC  H18Z 9076  -0.343   4.650   5.495 -0.9269  0.8966 -0.7265
   94SAPC     N 9077   5.700   1.534   7.909 -0.1360  0.3137 -0.2749
   94SAPC   C12 9078   5.808   1.443   7.945  0.3451  0.6769  0.2495
   94SAPC  H12A 9079   5.801   1.359   7.878 -0.5967 -0.3052  1.5237
   94SAPC  H12B 9080   5.796   1.386   8.036 -1.3138 -1.3887 -1.1750
   94SAPC   C13 9081   5.575   1.445   7.894  0.1595  0.4025 -0.2131
   94SAPC  H13A 9082   5.570   1.374   7.975 -2.2282 -0.4833 -1.0665
   94SAPC  H13B 9083   5.482   1.500   7.888 -0.3253  0.0015  2.5070
   94SAPC  H13C 9084   5.588   1.388   7.803 -0.0246 -0.4890  0.3055
   94SAPC   C14 9085   5.672   1.634   8.017  0.0032 -0.0179  0.2006
   94SAPC  H14A 9086   5.599   1.707   7.984 -0.5311 -0.3376  0.6448
   94SAPC  H14B 9087   5.650   1.588   8.112 -1.8338 -1.4714 -0.8566
   94SAPC  H14C 9088   5.759   1.695   8.036 -0.0370 -0.1804  0.9312
   94SAPC   C15 9089   5.719   1.612   7.780 -0.4645 -0.0123 -0.5624
   94SAPC  H15A 9090   5.796   1.688   7.778 -1.2670  0.8370  0.0637
   94SAPC  H15B 9091   5.752   1.542   7.704  5.4452 -0.2757  1.7214
   94SAPC  H15C 9092   5.634   1.672   7.751  1.5849  1.7206 -3.5696
   94SAPC   C11 9093   5.955   1.489   7.939  0.7117  0.2682 -0.3723
   94SAPC  H11A 9094   6.005   1.406   7.994 -1.4883  0.1075  1.5316
   94SAPC  H11B 9095   5.972   1.575   8.007  1.1303 -1.4126  1.7686
   94SAPC     P 9096   6.106   1.420   7.728  0.5453  0.3302  0.1639
   94SAPC   O13 9097   6.209   1.371   7.824 -0.3634 -0.4034  0.6617
   94SAPC   O14 9098   6.022   1.311   7.668  0.3107  0.2476 -0.1331
   94SAPC   O12 9099   6.003   1.517   7.808 -0.4939  0.0144  0.8973
   94SAPC   O11 9100   6.159   1.514   7.621  0.1227  0.2012 -0.6232
   94SAPC    C1 9101   6.242   1.626   7.653  0.0013 -0.8184 -0.0117
   94SAPC    HA 9102   6.185   1.717   7.682  0.9490 -0.3089  0.2963
   94SAPC    HB 9103   6.310   1.606   7.739  1.5218 -1.3042 -1.2895
   94SAPC    C2 9104   6.327   1.669   7.533  0.9987  0.4696 -0.8925
   94SAPC    HS 9105   6.409   1.729   7.577  1.2251 -0.7638  0.4526
   94SAPC   O21 9106   6.244   1.748   7.443 -0.7570 -0.3606  0.0639
   94SAPC   C21 9107   6.305   1.840   7.374 -0.4717 -0.5316 -0.9156
   94SAPC   O22 9108   6.422   1.880   7.399 -0.1233 -0.6622 -0.4323
   94SAPC   C22 9109   6.224   1.898   7.262  0.1202  0.3128  0.1279
   94SAPC   H2R 9110   6.146   1.822   7.237 -0.4769  0.9446  0.0520
   94SAPC   H2S 9111   6.173   1.988   7.301 -0.6813 -0.4287  0.8159
   94SAPC    C3 9112   6.396   1.556   7.462 -0.4033 -0.4297 -0.2427
   94SAPC    HX 9113   6.315   1.503   7.409 -0.5530 -0.3736 -0.0695
   94SAPC    HY 9114   6.423   1.480   7.538 -3.0739 -0.4581  0.7799
   94SAPC   O31 9115   6.497   1.583   7.359  0.5430  0.2179 -0.1750
   94SAPC   C31 9116   6.620   1.601   7.412  0.4399  0.3997 -0.0955
   94SAPC   O32 9117   6.647   1.614   7.530 -0.3077 -0.2642  0.0701
   94SAPC   C32 9118   6.733   1.601   7.303  1.2351 -0.4955  0.4165
   94SAPC   H2X 9119   6.730   1.520   7.227 -1.7078  0.9846 -1.2063
   94SAPC   H2Y 9120   6.828   1.590   7.360  2.0951  0.1009 -0.8531
   94SAPC   C23 9121   6.312   1.912   7.139 -0.1763 -0.0227 -0.0642
   94SAPC   H3R 9122   6.352   1.819   7.094 -0.4290 -0.2270  0.1358
   94SAPC   H3S 9123   6.396   1.978   7.171  0.3609 -0.8390  0.2264
   94SAPC   C24 9124   6.249   2.003   7.034  0.2293  0.1422 -0.9418
   94SAPC   H4R 9125   6.328   2.054   6.976  0.3930  1.9473  0.7797
   94SAPC   H4S 9126   6.207   2.089   7.090 -2.3524 -1.2195 -0.6215
   94SAPC   C25 9127   6.140   1.930   6.956 -0.7773 -0.4651 -0.2350
   94SAPC   H5R 9128   6.053   1.901   7.017  0.2288 -1.0497  0.9719
   94SAPC   C26 9129   6.141   1.905   6.826  0.2288 -0.3796  0.4628
   94SAPC   H6R 9130   6.062   1.850   6.773  0.4559 -0.6270  0.3789
   94SAPC   C27 9131   6.252   1.947   6.727  0.0878  0.0531 -0.4175
   94SAPC   H7R 9132   6.344   1.972   6.783  0.4582  0.8816 -1.3678
   94SAPC   H7S 9133   6.237   2.053   6.697 -0.9518 -0.4833 -1.9556
   94SAPC   C28 9134   6.276   1.845   6.617 -0.1943 -0.0970  0.2985
   94SAPC   H8R 9135   6.281   1.741   6.653 -0.2435 -0.0630  0.4048
   94SAPC   C29 9136   6.292   1.866   6.487 -0.0916 -0.2180 -0.1169
   94SAPC   H9R 9137   6.331   1.784   6.425  0.4943 -0.7042  0.8762
   94SAPC  C210 9138   6.301   2.003   6.430  0.2994  0.7031  0.0611
   94SAPC  H10R 9139   6.344   2.074   6.504  2.3840 -0.2185 -0.2097
   94SAPC  H10S 9140   6.198   2.040   6.407  0.4263  1.6597  0.9714
   94SAPC  C211 9141   6.391   1.999   6.313 -0.1203  0.1125 -0.1470
   94SAPC  H11R 9142   6.497   1.982   6.340 -0.1684  1.5681  1.1041
   94SAPC  C212 9143   6.348   2.010   6.188 -0.7253 -0.4961  0.1811
   94SAPC  H12R 9144   6.421   2.003   6.106 -2.0192 -1.7893 -0.9228
   94SAPC  C213 9145   6.211   2.039   6.135  0.3629 -0.1387  0.1674
   94SAPC  H13R 9146   6.131   1.981   6.186 -0.4434 -2.2963 -3.2021
   94SAPC  H13S 9147   6.195   1.986   6.038 -1.8062 -0.1436  0.4708
   94SAPC  C214 9148   6.191   2.189   6.139 -0.1162  1.0120  0.2977
   94SAPC  H14R 9149   6.186   2.231   6.241  0.4940 -0.8638  1.1446
   94SAPC  C215 9150   6.187   2.280   6.038  0.1588 -0.1364 -0.2999
   94SAPC  H15R 9151   6.162   2.382   6.070  1.0643 -0.2162  0.7182
   94SAPC  C216 9152   6.222   2.263   5.890  0.8005 -0.2702  0.2336
   94SAPC  H16R 9153   6.330   2.252   5.866  0.6999  2.9115 -2.2745
   94SAPC  H16S 9154   6.196   2.362   5.846 -0.0166  0.1880  1.6744
   94SAPC  C217 9155   6.124   2.163   5.822  0.5084 -0.5112  0.0143
   94SAPC  H17R 9156   6.019   2.158   5.860 -0.5418 -0.0227 -2.5901
   94SAPC  H17S 9157   6.144   2.054   5.829 -2.6771 -1.1182  1.5573
   94SAPC  C218 9158   6.103   2.196   5.674 -0.0612 -0.2996  0.8672
   94SAPC  H18R 9159   6.057   2.296   5.659 -2.0596 -1.3150 -0.3047
   94SAPC  H18S 9160   6.041   2.123   5.617  0.6756  1.2902 -2.1588
   94SAPC  C219 9161   6.230   2.187   5.587 -0.5171 -0.0680  0.4516
   94SAPC  H19R 9162   6.310   2.253   5.627 -0.8155 -0.1523  1.2150
   94SAPC  H19S 9163   6.199   2.214   5.484  1.3730 -1.8527 -0.6611
   94SAPC  C220 9164   6.294   2.048   5.582  0.0913 -1.3727  0.0590
   94SAPC  H20R 9165   6.230   1.967   5.542 -0.1214 -1.3814  0.4063
   94SAPC  H20S 9166   6.319   2.035   5.690  1.0126  1.8561  0.3375
   94SAPC  H20T 9167   6.389   2.046   5.524  1.9639  0.0969  2.8257
   94SAPC   C33 9168   6.735   1.736   7.224 -0.3791 -0.4804 -0.6425
   94SAPC   H3X 9169   6.839   1.774   7.214 -0.6856  1.3734  2.2035
   94SAPC   H3Y 9170   6.672   1.812   7.275 -0.1842 -1.8725  1.8272
   94SAPC   C34 9171   6.675   1.721   7.090 -0.3012  0.4651  0.5330
   94SAPC   H4X 9172   6.566   1.706   7.104 -0.1812 -1.1909 -0.0681
   94SAPC   H4Y 9173   6.717   1.641   7.026 -0.3876  1.9311 -1.4417
   94SAPC   C35 9174   6.687   1.848   7.008 -0.1569 -1.0023  0.2644
   94SAPC   H5X 9175   6.794   1.876   7.018  0.1763 -2.6948  2.2616
   94SAPC   H5Y 9176   6.625   1.925   7.058  0.1836 -0.3349 -0.3301
   94SAPC   C36 9177   6.637   1.831   6.863 -0.6798  0.1782 -0.2204
   94SAPC   H6X 9178   6.533   1.792   6.857  0.2165 -2.2239 -1.5765
   94SAPC   H6Y 9179   6.702   1.755   6.816 -1.3629 -0.1808 -0.6084
   94SAPC   C37 9180   6.649   1.963   6.776 -0.5641  0.3647 -0.2097
   94SAPC   H7X 9181   6.554   2.018   6.789 -1.7224 -1.4032 -0.7137
   94SAPC   H7Y 9182   6.660   1.936   6.668  3.8392  1.2038 -0.1819
   94SAPC   C38 9183   6.771   2.047   6.811 -0.1572 -0.5060  0.2914
   94SAPC   H8X 9184   6.859   1.979   6.811  0.3774  0.1524 -0.9100
   94SAPC   H8Y 9185   6.752   2.094   6.910  0.3421  0.1643  0.0796
   94SAPC   C39 9186   6.795   2.169   6.723  0.1834 -0.3114 -0.6879
   94SAPC   H9X 9187   6.868   2.238   6.771  0.9826 -1.2710 -0.5026
   94SAPC   H9Y 9188   6.703   2.224   6.693 -0.2536 -1.2423 -1.0829
   94SAPC  C310 9189   6.868   2.134   6.591 -0.3627 -1.0778  0.2925
   94SAPC  H10X 9190   6.946   2.056   6.602 -0.3228 -1.0106  0.4899
   94SAPC  H10Y 9191   6.925   2.219   6.548  1.8585 -2.1856  0.8857
   94SAPC  C311 9192   6.767   2.103   6.475 -0.7852  0.0746 -0.3856
   94SAPC  H11X 9193   6.682   2.171   6.499  0.5466  1.2700  1.2454
   94SAPC  H11Y 9194   6.739   1.996   6.483  0.3880 -0.2429 -0.3432
   94SAPC  C312 9195   6.829   2.136   6.338 -0.0014 -0.3623 -0.0945
   94SAPC  H12X 9196   6.898   2.060   6.296 -1.3805 -0.4025 -2.4502
   94SAPC  H12Y 9197   6.894   2.226   6.343  0.0456 -0.4734  1.7888
   94SAPC  C313 9198   6.727   2.179   6.240 -0.4181  0.0282  0.5876
   94SAPC  H13X 9199   6.668   2.257   6.293  1.7373  1.2319  1.3451
   94SAPC  H13Y 9200   6.662   2.093   6.213 -1.6923  0.7793  1.1929
   94SAPC  C314 9201   6.777   2.239   6.104 -0.3665 -0.1158  0.7091
   94SAPC  H14X 9202   6.878   2.201   6.077 -0.5487  0.5043 -0.9251
   94SAPC  H14Y 9203   6.774   2.350   6.098 -0.0105 -0.1947 -2.9788
   94SAPC  C315 9204   6.691   2.197   5.983 -0.3022  0.4186 -0.3384
   94SAPC  H15X 9205   6.593   2.248   5.970 -1.4452 -1.8336 -1.0680
   94SAPC  H15Y 9206   6.672   2.089   5.999  3.5141 -0.6065 -1.5246
   94SAPC  C316 9207   6.761   2.214   5.840  0.7309  0.1687  0.0055
   94SAPC  H16X 9208   6.681   2.189   5.767  1.6930 -2.3695 -0.2829
   94SAPC  H16Y 9209   6.839   2.136   5.828 -0.2154 -1.2062  2.1537
   94SAPC  C317 9210   6.817   2.349   5.815  0.1905  0.0425  0.6788
   94SAPC  H17X 9211   6.887   2.370   5.899 -0.3303 -1.1985  1.4575
   94SAPC  H17Y 9212   6.736   2.426   5.814  0.9760  1.0587 -3.5984
   94SAPC  C318 9213   6.883   2.360   5.679  0.1098  0.5291 -0.1704
   94SAPC  H18X 9214   6.986   2.318   5.673  0.0427  0.2760  0.4848
   94SAPC  H18Y 9215   6.908   2.468   5.665 -2.3561  1.3499  1.1357
   94SAPC  H18Z 9216   6.821   2.326   5.594 -1.3828 -1.8003  1.7398
   95SAPC     N 9217   1.533   3.588   2.710 -0.0469  0.4742  0.3972
   95SAPC   C12 9218   1.513   3.740   2.738  1.1635 -0.5644  0.9583
   95SAPC  H12A 9219   1.412   3.762   2.707  1.6160 -1.7224 -1.5676
   95SAPC  H12B 9220   1.587   3.794   2.681  1.4661 -0.3028  1.5802
   95SAPC   C13 9221   1.498   3.564   2.569 -0.1334  0.2434  0.2007
   95SAPC  H13A 9222   1.548   3.475   2.533  0.8062  0.0710  1.8294
   95SAPC  H13B 9223   1.392   3.552   2.557 -0.3129 -0.2290  1.9996
   95SAPC  H13C 9224   1.544   3.635   2.501  1.4591 -2.1975 -1.4232
   95SAPC   C14 9225   1.678   3.561   2.738 -0.3876  0.1622 -0.4337
   95SAPC  H14A 9226   1.744   3.602   2.664 -0.9225  1.6818 -0.0933
   95SAPC  H14B 9227   1.711   3.602   2.832 -0.6543 -1.6952  0.5257
   95SAPC  H14C 9228   1.687   3.453   2.748  1.4902  0.4372  1.9660
   95SAPC   C15 9229   1.455   3.493   2.805  0.2970 -0.0611  1.2210
   95SAPC  H15A 9230   1.349   3.490   2.782  0.5089 -1.2293  0.2634
   95SAPC  H15B 9231   1.492   3.393   2.788  0.8262  0.3526 -0.1484
   95SAPC  H15C 9232   1.466   3.524   2.908 -0.4547 -1.4870  1.7610
   95SAPC   C11 9233   1.535   3.796   2.881 -0.1749  0.0057  0.6829
   95SAPC  H11A 9234   1.510   3.723   2.961 -0.1286  0.9290  1.5531
   95SAPC  H11B 9235   1.480   3.891   2.895 -3.6117 -1.2986 -2.2848
   95SAPC     P 9236   1.734   3.948   2.848  0.3285  0.1032 -0.7751
   95SAPC   O13 9237   1.880   3.940   2.850 -0.7787 -0.0277 -0.1847
   95SAPC   O14 9238   1.668   3.999   2.727 -0.3588  0.4875 -0.3215
   95SAPC   O12 9239   1.679   3.811   2.886 -0.3995 -0.2332 -0.3558
   95SAPC   O11 9240   1.680   4.043   2.957  0.1440  0.2883  0.1875
   95SAPC    C1 9241   1.750   4.062   3.081 -0.1649 -0.9078 -0.0519
   95SAPC    HA 9242   1.859   4.047   3.068  0.0166  0.0672  0.2703
   95SAPC    HB 9243   1.743   4.168   3.114  2.0514 -0.2911 -1.3765
   95SAPC    C2 9244   1.695   3.973   3.194  0.0042  0.0724  0.4570
   95SAPC    HS 9245   1.674   3.874   3.150 -2.3295  0.9209 -0.4840
   95SAPC   O21 9246   1.579   4.033   3.251  0.0131 -0.4071  0.2515
   95SAPC   C21 9247   1.460   3.991   3.227 -0.1327  0.1225  0.1668
   95SAPC   O22 9248   1.436   3.881   3.178  0.5257  0.2660  0.1036
   95SAPC   C22 9249   1.358   4.098   3.257  0.0456  0.0298 -0.2195
   95SAPC   H2R 9250   1.396   4.177   3.326  1.3602 -1.3981  0.7889
   95SAPC   H2S 9251   1.323   4.136   3.159 -1.7255  2.3090  1.1964
   95SAPC    C3 9252   1.795   3.960   3.318 -0.8750 -0.1509  0.1671
   95SAPC    HX 9253   1.819   4.065   3.347  2.4094 -0.7814  0.1471
   95SAPC    HY 9254   1.891   3.919   3.280 -0.7533  1.2186 -1.0937
   95SAPC   O31 9255   1.741   3.895   3.433 -0.4097 -0.2087 -0.2340
   95SAPC   C31 9256   1.723   3.768   3.401  1.1043  0.2375  0.5350
   95SAPC   O32 9257   1.779   3.703   3.312 -0.6304 -0.2303 -0.7218
   95SAPC   C32 9258   1.611   3.724   3.502 -0.3262 -0.0549  0.3197
   95SAPC   H2X 9259   1.508   3.752   3.472 -0.4833  0.4187  1.2452
   95SAPC   H2Y 9260   1.630   3.789   3.590  2.2293 -0.6841  0.3085
   95SAPC   C23 9261   1.239   4.047   3.324  0.4573  0.1812  0.1163
   95SAPC   H3R 9262   1.192   3.959   3.275  0.5782 -0.6741  1.4825
   95SAPC   H3S 9263   1.161   4.126   3.318 -1.7092 -1.8068  0.7832
   95SAPC   C24 9264   1.261   4.017   3.468  0.3647  0.2101 -0.3272
   95SAPC   H4R 9265   1.335   3.933   3.467  0.4120  0.2283  0.8161
   95SAPC   H4S 9266   1.166   3.970   3.499  0.3824 -1.1047 -2.0876
   95SAPC   C25 9267   1.290   4.127   3.569 -0.4394  0.8109  0.2821
   95SAPC   H5R 9268   1.257   4.228   3.541 -1.6618 -0.0069 -1.3791
   95SAPC   C26 9269   1.349   4.103   3.692 -0.2565 -0.5825 -0.1223
   95SAPC   H6R 9270   1.366   4.192   3.754 -1.1162 -1.1176  0.9239
   95SAPC   C27 9271   1.405   3.975   3.746 -0.0524 -0.3427 -0.2227
   95SAPC   H7R 9272   1.497   3.954   3.688  1.8129  3.4036  1.1046
   95SAPC   H7S 9273   1.329   3.897   3.718 -0.6848  0.7573 -1.7311
   95SAPC   C28 9274   1.424   3.966   3.896 -0.0240 -0.5066  0.0029
   95SAPC   H8R 9275   1.333   3.977   3.957  0.9072 -0.1721  1.3977
   95SAPC   C29 9276   1.538   3.929   3.956  0.0792  0.5313 -0.1673
   95SAPC   H9R 9277   1.529   3.922   4.066 -0.3070  1.9025 -0.0925
   95SAPC  C210 9278   1.670   3.883   3.890 -0.1531 -0.3524 -0.2743
   95SAPC  H10R 9279   1.758   3.944   3.918 -1.2715  0.6763  1.1869
   95SAPC  H10S 9280   1.672   3.885   3.779  0.5100 -1.4164 -0.2953
   95SAPC  C211 9281   1.702   3.739   3.912 -0.1971  0.2739  0.6892
   95SAPC  H11R 9282   1.616   3.685   3.954  0.7450  0.1888  2.6342
   95SAPC  C212 9283   1.809   3.671   3.876  0.0889  0.5206 -0.1530
   95SAPC  H12R 9284   1.817   3.568   3.914  0.2929  1.0676  1.3518
   95SAPC  C213 9285   1.933   3.728   3.816  0.6046  0.1284 -0.8839
   95SAPC  H13R 9286   1.944   3.838   3.806  1.6485  0.1414  0.1379
   95SAPC  H13S 9287   1.928   3.691   3.711 -0.9684 -2.1881 -0.0736
   95SAPC  C214 9288   2.055   3.677   3.891  0.6202 -0.3101  0.0142
   95SAPC  H14R 9289   2.115   3.605   3.833  2.8253  1.4322 -0.0310
   95SAPC  C215 9290   2.099   3.729   4.002  0.4883 -0.7640 -1.2244
   95SAPC  H15R 9291   2.179   3.672   4.052 -1.3588 -2.0015  0.4817
   95SAPC  C216 9292   2.041   3.853   4.068 -0.0953  0.1941  0.0820
   95SAPC  H16R 9293   1.989   3.917   3.994  0.5428  0.4004 -0.1935
   95SAPC  H16S 9294   2.119   3.912   4.121 -1.3951  2.6458 -0.6094
   95SAPC  C217 9295   1.938   3.838   4.187 -0.0429 -0.0992  0.0369
   95SAPC  H17R 9296   1.968   3.757   4.258  0.8486 -1.3498 -1.6712
   95SAPC  H17S 9297   1.836   3.815   4.150 -0.2350  0.0853  0.4516
   95SAPC  C218 9298   1.928   3.979   4.252  0.4466 -0.0285 -0.4661
   95SAPC  H18R 9299   2.019   3.982   4.315 -0.9748  0.7142  1.6828
   95SAPC  H18S 9300   1.846   3.963   4.326  0.2627 -1.5750 -0.9736
   95SAPC  C219 9301   1.895   4.094   4.157  0.5803  0.2121 -0.1622
   95SAPC  H19R 9302   1.799   4.092   4.101 -0.0753 -0.3979  0.9400
   95SAPC  H19S 9303   1.974   4.106   4.080  0.3816  1.9788 -0.1453
   95SAPC  C220 9304   1.894   4.231   4.234  0.2170  0.4016 -0.5402
   95SAPC  H20R 9305   1.904   4.314   4.162  1.3252  1.2301  0.5219
   95SAPC  H20S 9306   1.984   4.244   4.298 -0.1178  1.9771 -0.3517
   95SAPC  H20T 9307   1.801   4.241   4.295 -0.9837 -0.1193 -2.2208
   95SAPC   C33 9308   1.619   3.573   3.536  0.1334 -0.4315  0.5420
   95SAPC   H3X 9309   1.724   3.549   3.563  0.7735  2.3711  0.8487
   95SAPC   H3Y 9310   1.582   3.507   3.454 -0.1585 -0.5100  0.7367
   95SAPC   C34 9311   1.534   3.555   3.665 -0.7533  0.3620  0.9132
   95SAPC   H4X 9312   1.441   3.615   3.661 -1.5089 -0.8089 -0.2844
   95SAPC   H4Y 9313   1.596   3.591   3.749  2.0963  3.8217 -2.3118
   95SAPC   C35 9314   1.495   3.405   3.682 -0.3046  0.0321 -0.6835
   95SAPC   H5X 9315   1.587   3.343   3.688 -0.8291 -0.8186 -1.2690
   95SAPC   H5Y 9316   1.429   3.384   3.596 -0.4279 -0.5365 -0.4533
   95SAPC   C36 9317   1.413   3.380   3.810 -0.4486 -0.5136  0.3671
   95SAPC   H6X 9318   1.330   3.453   3.796  1.3135  1.6541  0.5469
   95SAPC   H6Y 9319   1.474   3.403   3.900  0.4083  1.0542 -0.5765
   95SAPC   C37 9320   1.349   3.244   3.818 -0.5027  0.1103 -0.0163
   95SAPC   H7X 9321   1.313   3.215   3.717  1.2965  1.0283 -0.9693
   95SAPC   H7Y 9322   1.271   3.245   3.897 -1.5368 -2.7769 -0.9002
   95SAPC   C38 9323   1.462   3.146   3.862  0.0167 -0.4607  0.6915
   95SAPC   H8X 9324   1.544   3.172   3.792 -0.8685  1.8237  0.4046
   95SAPC   H8Y 9325   1.422   3.044   3.842 -2.7925  0.5977  0.3989
   95SAPC   C39 9326   1.506   3.169   4.006 -0.3857 -0.2252 -0.4929
   95SAPC   H9X 9327   1.543   3.271   4.030 -0.3104 -0.5060  0.6382
   95SAPC   H9Y 9328   1.587   3.096   4.025 -2.3412 -2.7774 -1.3834
   95SAPC  C310 9329   1.402   3.137   4.111  0.0157 -0.3662  0.5774
   95SAPC  H10X 9330   1.368   3.034   4.085 -2.3810  0.6285 -0.5845
   95SAPC  H10Y 9331   1.317   3.209   4.107 -0.5792 -1.0920 -0.8621
   95SAPC  C311 9332   1.473   3.132   4.249 -0.1090 -0.3179  0.4905
   95SAPC  H11X 9333   1.577   3.092   4.240  0.1538  0.7385 -2.0417
   95SAPC  H11Y 9334   1.408   3.064   4.308 -1.3162  1.5946  1.4762
   95SAPC  C312 9335   1.471   3.267   4.325 -0.0855  0.4462 -0.5378
   95SAPC  H12X 9336   1.385   3.337   4.310  0.1075  0.9961  0.7677
   95SAPC  H12Y 9337   1.560   3.320   4.285 -0.0326  0.5914 -0.2318
   95SAPC  C313 9338   1.477   3.250   4.476 -0.4442  0.2036  0.1202
   95SAPC  H13X 9339   1.553   3.176   4.510 -1.9611  0.1533  3.8939
   95SAPC  H13Y 9340   1.386   3.196   4.507  0.0678 -1.3978 -1.0153
   95SAPC  C314 9341   1.498   3.376   4.571  0.2650  0.2347 -0.3678
   95SAPC  H14X 9342   1.487   3.354   4.679  1.9517  1.9846  0.2154
   95SAPC  H14Y 9343   1.417   3.448   4.546  0.7464  0.1316 -2.3835
   95SAPC  C315 9344   1.630   3.452   4.559  0.2396 -0.3202 -0.7168
   95SAPC  H15X 9345   1.637   3.537   4.630  0.7332 -1.8560  1.1465
   95SAPC  H15Y 9346   1.623   3.502   4.460  0.0340 -0.1862 -0.6341
   95SAPC  C316 9347   1.749   3.362   4.566 -0.1089 -0.1476 -0.5617
   95SAPC  H16X 9348   1.730   3.279   4.495 -1.9473 -0.9727  0.7888
   95SAPC  H16Y 9349   1.738   3.307   4.662 -2.7137  1.4632  0.1839
   95SAPC  C317 9350   1.886   3.430   4.568 -0.2539  0.1123  0.6381
   95SAPC  H17X 9351   1.886   3.516   4.638 -1.0667 -0.0367  0.8355
   95SAPC  H17Y 9352   1.908   3.455   4.462  0.2947 -2.6378  0.0094
   95SAPC  C318 9353   2.002   3.348   4.620  0.2230  0.0080  0.3263
   95SAPC  H18X 9354   1.972   3.313   4.721 -0.6534 -1.0370 -0.2749
   95SAPC  H18Y 9355   2.092   3.413   4.617 -0.4530  0.9260 -1.3151
   95SAPC  H18Z 9356   2.017   3.257   4.558  0.2852 -1.1459  1.9624
   96SAPC     N 9357   2.517   4.347   2.924  0.4040  0.5674 -0.1529
   96SAPC   C12 9358   2.471   4.206   2.949  0.1534  0.2978 -0.4998
   96SAPC  H12A 9359   2.554   4.145   2.917  1.5787  0.2060  2.9227
   96SAPC  H12B 9360   2.379   4.186   2.896  0.4991  1.0121 -1.4081
   96SAPC   C13 9361   2.659   4.363   2.983 -0.5533  0.0417 -0.0465
   96SAPC  H13A 9362   2.653   4.341   3.088 -0.3245  1.9959  0.4070
   96SAPC  H13B 9363   2.741   4.306   2.943  1.6927  1.9487  1.5539
   96SAPC  H13C 9364   2.694   4.465   2.971 -1.4440  0.6632  2.1566
   96SAPC   C14 9365   2.518   4.368   2.776  0.1511 -0.0559  0.2661
   96SAPC  H14A 9366   2.577   4.302   2.714 -0.7813 -0.1005 -0.5914
   96SAPC  H14B 9367   2.422   4.361   2.727  0.7953  2.2819 -1.5746
   96SAPC  H14C 9368   2.568   4.462   2.753  0.1310 -0.1447 -0.1449
   96SAPC   C15 9369   2.438   4.470   2.984 -0.4566  0.6849  0.5597
   96SAPC  H15A 9370   2.490   4.563   2.969  1.9851 -0.3502  2.0850
   96SAPC  H15B 9371   2.337   4.471   2.944  1.4935  2.5793 -5.2380
   96SAPC  H15C 9372   2.426   4.458   3.091 -1.0454 -3.5610  0.2185
   96SAPC   C11 9373   2.458   4.168   3.100 -0.0114 -0.0072 -0.2142
   96SAPC  H11A 9374   2.558   4.192   3.142 -0.1761  0.9059 -0.3244
   96SAPC  H11B 9375   2.431   4.063   3.124  1.0427 -0.0300  0.9527
   96SAPC     P 9376   2.201   4.223   3.171  0.0056 -0.0317  0.1811
   96SAPC   O13 9377   2.135   4.352   3.180 -0.0200 -0.2695  0.4740
   96SAPC   O14 9378   2.160   4.123   3.067 -0.0915  0.2162 -0.4726
   96SAPC   O12 9379   2.357   4.246   3.164  0.4616  0.4247  0.1442
   96SAPC   O11 9380   2.177   4.155   3.315  0.3740  0.2436  0.6973
   96SAPC    C1 9381   2.185   4.240   3.433  0.9054  0.2153 -0.1390
   96SAPC    HA 9382   2.290   4.246   3.467  0.3036  0.6360  1.7905
   96SAPC    HB 9383   2.153   4.346   3.418 -0.7069 -0.3036 -0.5351
   96SAPC    C2 9384   2.104   4.171   3.547  0.0048 -0.2416  0.2299
   96SAPC    HS 9385   2.117   4.061   3.541 -0.2736 -0.3232  0.9907
   96SAPC   O21 9386   1.965   4.201   3.537 -0.2435  0.3912 -0.2609
   96SAPC   C21 9387   1.890   4.136   3.623  0.6491 -0.3711 -0.3922
   96SAPC   O22 9388   1.920   4.040   3.686 -0.4223 -0.2447  0.7711
   96SAPC   C22 9389   1.744   4.191   3.626 -0.4458  0.3917  0.3366
   96SAPC   H2R 9390   1.741   4.279   3.558  2.2478  1.2651  1.2300
   96SAPC   H2S 9391   1.677   4.111   3.587 -0.5127  1.5220 -2.0677
   96SAPC    C3 9392   2.168   4.198   3.684  0.8125  0.1594 -0.5496
   96SAPC    HX 9393   2.278   4.191   3.679  0.8574 -0.7642  0.9087
   96SAPC    HY 9394   2.155   4.111   3.752  1.1571  1.4949  1.3152
   96SAPC   O31 9395   2.125   4.318   3.755  0.2014  0.0079  0.2198
   96SAPC   C31 9396   2.192   4.432   3.729  0.1939 -0.0015 -0.4604
   96SAPC   O32 9397   2.294   4.440   3.667  0.5806 -0.5401 -0.5212
   96SAPC   C32 9398   2.110   4.543   3.793  0.2227 -0.1794 -0.3606
   96SAPC   H2X 9399   2.025   4.507   3.854  1.1516 -0.8861  0.5457
   96SAPC   H2Y 9400   2.065   4.610   3.716  0.9605  2.6531  1.5007
   96SAPC   C23 9401   1.695   4.235   3.768  0.1904 -0.1989 -0.6675
   96SAPC   H3R 9402   1.745   4.172   3.845 -0.9012 -0.9027 -0.5219
   96SAPC   H3S 9403   1.586   4.229   3.785  0.2486  1.6050  0.7588
   96SAPC   C24 9404   1.732   4.376   3.806  0.6215  0.1857 -0.6695
   96SAPC   H4R 9405   1.839   4.392   3.783  0.5745  0.2424 -0.8521
   96SAPC   H4S 9406   1.720   4.388   3.916 -1.4409  0.2179 -0.8476
   96SAPC   C25 9407   1.651   4.480   3.750  0.7047  0.0875  0.0666
   96SAPC   H5R 9408   1.664   4.496   3.643 -0.9398  4.3371  0.3260
   96SAPC   C26 9409   1.542   4.536   3.811  0.2895  0.6509  0.1322
   96SAPC   H6R 9410   1.491   4.621   3.764 -1.1846  1.2609  2.6583
   96SAPC   C27 9411   1.491   4.513   3.947  0.4179 -0.6871  0.6211
   96SAPC   H7R 9412   1.438   4.602   3.989  1.2125 -0.3192  0.8636
   96SAPC   H7S 9413   1.577   4.515   4.017  1.1283  1.6421 -0.2189
   96SAPC   C28 9414   1.397   4.401   3.958  0.3360 -0.3407  0.4472
   96SAPC   H8R 9415   1.311   4.402   3.889  0.3062 -1.6187  0.4380
   96SAPC   C29 9416   1.403   4.291   4.037  0.1653 -0.2139  0.4502
   96SAPC   H9R 9417   1.324   4.215   4.040 -0.1670  0.1595  1.7771
   96SAPC  C210 9418   1.521   4.270   4.124 -0.6644  0.4442 -0.1980
   96SAPC  H10R 9419   1.616   4.305   4.078 -1.3402  2.5975 -0.1022
   96SAPC  H10S 9420   1.519   4.159   4.131  0.0534  0.4368  0.0113
   96SAPC  C211 9421   1.503   4.322   4.269  0.3357  0.6986 -1.1290
   96SAPC  H11R 9422   1.530   4.428   4.283 -0.3271  0.8097 -0.6498
   96SAPC  C212 9423   1.475   4.268   4.390 -0.3353  0.2022  0.5753
   96SAPC  H12R 9424   1.466   4.341   4.471  0.3581  1.2064 -0.2247
   96SAPC  C213 9425   1.429   4.120   4.413  0.2777  0.0763 -0.0575
   96SAPC  H13R 9426   1.372   4.093   4.322  0.3302  1.7236 -0.6259
   96SAPC  H13S 9427   1.364   4.119   4.503  0.1318  1.2693 -0.1215
   96SAPC  C214 9428   1.549   4.028   4.440  0.5209 -0.0917  0.1319
   96SAPC  H14R 9429   1.644   4.081   4.423  0.5597 -0.0897  0.3481
   96SAPC  C215 9430   1.546   3.895   4.455 -0.2533 -0.4046 -0.1637
   96SAPC  H15R 9431   1.646   3.850   4.467 -0.7422 -0.8191  3.0461
   96SAPC  C216 9432   1.427   3.805   4.460  0.5117 -0.1550  0.4016
   96SAPC  H16R 9433   1.346   3.858   4.515  0.2383  1.1957 -1.2366
   96SAPC  H16S 9434   1.452   3.715   4.520 -0.5358 -1.0777 -0.5146
   96SAPC  C217 9435   1.372   3.758   4.324  0.5379  0.6817 -0.7830
   96SAPC  H17R 9436   1.356   3.843   4.254  0.4638  1.6037  0.3186
   96SAPC  H17S 9437   1.268   3.733   4.356 -0.0815  3.2110 -0.5766
   96SAPC  C218 9438   1.451   3.637   4.275  0.4386 -0.1333  0.4858
   96SAPC  H18R 9439   1.444   3.549   4.344  0.2604 -0.1578  0.4373
   96SAPC  H18S 9440   1.559   3.660   4.263  0.3003  1.0481  1.3118
   96SAPC  C219 9441   1.389   3.583   4.146  0.2416 -0.1985  0.3306
   96SAPC  H19R 9442   1.460   3.515   4.094  1.3759  2.0553 -1.1835
   96SAPC  H19S 9443   1.406   3.663   4.072 -0.3683 -1.5135 -1.3058
   96SAPC  C220 9444   1.243   3.529   4.156 -0.7401  0.0511  0.3886
   96SAPC  H20R 9445   1.245   3.433   4.212  1.4898 -0.3775 -0.3596
   96SAPC  H20S 9446   1.209   3.511   4.052 -1.4003 -1.3346  0.8180
   96SAPC  H20T 9447   1.187   3.615   4.198 -0.3801 -0.2996  1.6343
   96SAPC   C33 9448   2.188   4.648   3.874  0.3481 -0.0335 -0.0046
   96SAPC   H3X 9449   2.127   4.740   3.889 -0.0867 -0.7426  3.5403
   96SAPC   H3Y 9450   2.267   4.698   3.815 -0.7389  0.8351 -0.7632
   96SAPC   C34 9451   2.240   4.597   4.006 -0.9043 -0.3975  0.4663
   96SAPC   H4X 9452   2.314   4.669   4.047 -0.5200  1.0835 -2.5614
   96SAPC   H4Y 9453   2.283   4.495   3.990 -0.3765 -0.3137  1.2787
   96SAPC   C35 9454   2.131   4.589   4.118 -1.0225  0.9784 -0.1848
   96SAPC   H5X 9455   2.085   4.488   4.107  1.8697 -0.6344  1.2854
   96SAPC   H5Y 9456   2.048   4.662   4.107 -0.2485  2.0878  1.1110
   96SAPC   C36 9457   2.193   4.593   4.263 -0.1729  0.0112 -0.1409
   96SAPC   H6X 9458   2.225   4.698   4.280 -0.1511  0.2547 -1.5183
   96SAPC   H6Y 9459   2.280   4.524   4.267 -0.7965 -0.7201  1.7300
   96SAPC   C37 9460   2.093   4.546   4.368  0.2843  0.8858  0.0845
   96SAPC   H7X 9461   2.049   4.448   4.340 -2.2929  2.1585 -0.5948
   96SAPC   H7Y 9462   2.010   4.618   4.356  1.7512  2.3102 -2.2793
   96SAPC   C38 9463   2.144   4.556   4.505 -0.7929 -0.1089  0.0379
   96SAPC   H8X 9464   2.189   4.654   4.529 -3.2466  1.5058 -1.5495
   96SAPC   H8Y 9465   2.220   4.475   4.500  1.0185  1.6089 -2.6973
   96SAPC   C39 9466   2.037   4.528   4.612  0.2064 -0.0470  0.1598
   96SAPC   H9X 9467   1.958   4.606   4.604  0.0694 -0.2764 -0.8237
   96SAPC   H9Y 9468   2.091   4.540   4.709 -1.7954 -2.9777  1.7966
   96SAPC  C310 9469   1.964   4.392   4.608  0.6425  0.1456 -0.9546
   96SAPC  H10X 9470   2.045   4.327   4.568  1.4087  1.3571 -1.4536
   96SAPC  H10Y 9471   1.877   4.399   4.540 -0.8436 -0.2908  0.8334
   96SAPC  C311 9472   1.926   4.336   4.743 -0.1797 -1.2544 -0.1733
   96SAPC  H11X 9473   1.867   4.416   4.793  0.4303 -0.4068 -0.7890
   96SAPC  H11Y 9474   2.016   4.316   4.806 -0.5728  1.7624  1.5425
   96SAPC  C312 9475   1.834   4.216   4.730  0.8648 -0.5773  0.1251
   96SAPC  H12X 9476   1.864   4.161   4.638 -0.6372 -1.1386 -0.0576
   96SAPC  H12Y 9477   1.728   4.245   4.715  0.1300 -0.1720  4.6343
   96SAPC  C313 9478   1.846   4.134   4.851 -0.5160  0.3433  0.1228
   96SAPC  H13X 9479   1.821   4.190   4.944 -1.6970 -1.5076  0.9752
   96SAPC  H13Y 9480   1.950   4.095   4.862 -0.2889  0.2733 -1.9847
   96SAPC  C314 9481   1.764   4.003   4.848 -0.8542  0.9084  0.3634
   96SAPC  H14X 9482   1.783   3.950   4.752  2.6365  0.5490  1.1362
   96SAPC  H14Y 9483   1.655   4.026   4.850 -1.1919 -0.6298  1.8561
   96SAPC  C315 9484   1.796   3.919   4.973 -0.0606  0.3064 -0.1868
   96SAPC  H15X 9485   1.816   3.985   5.060  1.5975 -1.7027  1.0365
   96SAPC  H15Y 9486   1.880   3.852   4.948  0.0743  0.9582 -1.5886
   96SAPC  C316 9487   1.673   3.831   5.019 -0.4131 -0.1550  0.0996
   96SAPC  H16X 9488   1.576   3.885   5.021 -1.8832 -2.6799 -0.1629
   96SAPC  H16Y 9489   1.682   3.792   5.123  0.4488  1.5023  0.6912
   96SAPC  C317 9490   1.651   3.724   4.915 -0.1289  0.4655  0.0438
   96SAPC  H17X 9491   1.753   3.686   4.893  0.6036  2.7717 -0.9162
   96SAPC  H17Y 9492   1.609   3.782   4.830  0.8098  0.0530 -0.7137
   96SAPC  C318 9493   1.548   3.613   4.942 -0.5321 -0.8455 -0.1123
   96SAPC  H18X 9494   1.589   3.539   5.014 -1.5405 -0.7340  0.5825
   96SAPC  H18Y 9495   1.517   3.550   4.855 -0.3945 -2.1526  0.7590
   96SAPC  H18Z 9496   1.455   3.654   4.986 -0.8599  1.4657 -2.6954
   97SAPC     N 9497   0.269   4.722   3.075 -0.7543  0.0440  0.4965
   97SAPC   C12 9498   0.236   4.633   3.191  0.7575  0.2672  0.2145
   97SAPC  H12A 9499   0.248   4.533   3.151  0.4308  0.0907  0.5468
   97SAPC  H12B 9500   0.132   4.647   3.216  0.4681 -0.0368 -0.7782
   97SAPC   C13 9501   0.418   4.718   3.054  0.2933  0.2898 -0.0574
   97SAPC  H13A 9502   0.479   4.751   3.136 -0.4199  0.5354  0.3780
   97SAPC  H13B 9503   0.440   4.617   3.023 -2.6747 -0.3291 -0.5054
   97SAPC  H13C 9504   0.447   4.784   2.973 -0.5833  0.0472 -0.5821
   97SAPC   C14 9505   0.208   4.683   2.941  0.0339 -0.1528  0.6557
   97SAPC  H14A 9506   0.104   4.710   2.936  0.7401  2.9822 -3.7563
   97SAPC  H14B 9507   0.233   4.736   2.849 -0.0097 -2.4057 -0.7263
   97SAPC  H14C 9508   0.219   4.579   2.917  2.2894 -0.1897  1.5491
   97SAPC   C15 9509   0.222   4.858   3.105 -0.3077  0.3003  0.6245
   97SAPC  H15A 9510   0.226   4.870   3.212  1.5224  4.3902  0.3133
   97SAPC  H15B 9511   0.283   4.931   3.054  0.5403 -0.3202  0.7266
   97SAPC  H15C 9512   0.119   4.875   3.079 -0.6911  0.7233  2.2717
   97SAPC   C11 9513   0.319   4.648   3.319 -0.9894 -0.8107  0.0449
   97SAPC  H11A 9514   0.427   4.658   3.295 -0.9819  0.3655  0.5248
   97SAPC  H11B 9515   0.304   4.550   3.370  1.9544 -1.0116  0.7258
   97SAPC     P 9516   0.350   4.862   3.460  0.2096  0.1169  0.2027
   97SAPC   O13 9517   0.403   4.952   3.353  0.3213  0.1188 -0.0317
   97SAPC   O14 9518   0.286   4.932   3.571  0.1934  0.0275  0.2308
   97SAPC   O12 9519   0.260   4.750   3.401 -0.1097 -0.7059 -0.6433
   97SAPC   O11 9520   0.473   4.786   3.520  0.0441  0.2050  0.2718
   97SAPC    C1 9521   0.573   4.845   3.602 -0.0056  0.5496 -0.5693
   97SAPC    HA 9522   0.674   4.825   3.561  0.4834  2.9203 -0.6624
   97SAPC    HB 9523   0.572   4.956   3.611 -1.0924  0.6381 -1.4752
   97SAPC    C2 9524   0.574   4.788   3.745  0.1481 -0.1808 -0.0888
   97SAPC    HS 9525   0.599   4.876   3.809 -0.1778  0.3319 -0.6533
   97SAPC   O21 9526   0.661   4.677   3.776 -0.3942 -0.1058 -0.4703
   97SAPC   C21 9527   0.788   4.673   3.752 -0.4606 -0.1355 -0.6628
   97SAPC   O22 9528   0.858   4.767   3.712  0.5645 -0.0949 -0.5028
   97SAPC   C22 9529   0.844   4.525   3.767 -0.1399  0.3057 -0.0733
   97SAPC   H2R 9530   0.794   4.475   3.853  2.4219 -0.7731  0.8591
   97SAPC   H2S 9531   0.811   4.476   3.673 -2.2329  1.2137  0.1307
   97SAPC    C3 9532   0.434   4.738   3.798 -0.1489  0.0138 -0.1389
   97SAPC    HX 9533   0.397   4.647   3.745  0.5166 -0.4230  0.1302
   97SAPC    HY 9534   0.358   4.815   3.770  0.2410  0.6077  0.4227
   97SAPC   O31 9535   0.441   4.717   3.939  0.0487  0.0751  0.1974
   97SAPC   C31 9536   0.324   4.734   4.000 -0.0281  0.3753 -0.5416
   97SAPC   O32 9537   0.216   4.750   3.948 -0.1298 -0.0119  0.3302
   97SAPC   C32 9538   0.344   4.723   4.149 -0.2180  0.0937 -0.6254
   97SAPC   H2X 9539   0.260   4.785   4.188 -0.6988 -0.1955 -1.1753
   97SAPC   H2Y 9540   0.438   4.772   4.178  1.3241 -3.5070  1.1343
   97SAPC   C23 9541   0.998   4.523   3.772  0.1952 -0.6141  0.2437
   97SAPC   H3R 9542   1.020   4.596   3.691 -2.1324  0.2771  0.3481
   97SAPC   H3S 9543   1.038   4.427   3.735  1.7020 -1.2139  3.1130
   97SAPC   C24 9544   1.052   4.556   3.911 -0.0961 -0.7865 -0.3528
   97SAPC   H4R 9545   1.023   4.661   3.928 -0.6151 -0.9223 -0.3899
   97SAPC   H4S 9546   1.163   4.554   3.904  0.0534 -1.3237  1.5311
   97SAPC   C25 9547   1.006   4.468   4.025  0.3025 -0.3136 -0.3850
   97SAPC   H5R 9548   0.951   4.378   3.995  0.3554 -0.1168 -1.0881
   97SAPC   C26 9549   1.051   4.475   4.150 -0.0501  0.2116 -0.6485
   97SAPC   H6R 9550   1.012   4.399   4.220 -1.3304 -0.9108 -2.4756
   97SAPC   C27 9551   1.129   4.594   4.219 -0.8903  0.6198 -0.1684
   97SAPC   H7R 9552   1.059   4.666   4.266  1.0825  1.5257  1.5293
   97SAPC   H7S 9553   1.199   4.639   4.147 -0.7379  1.0116  0.2223
   97SAPC   C28 9554   1.221   4.537   4.321 -0.2159  0.6583  0.1749
   97SAPC   H8R 9555   1.262   4.443   4.284  0.0285  1.7549 -2.5380
   97SAPC   C29 9556   1.257   4.581   4.447 -0.3354  0.0344 -0.2564
   97SAPC   H9R 9557   1.323   4.522   4.512 -0.5613  0.7443  0.6285
   97SAPC  C210 9558   1.215   4.709   4.506  0.3672 -0.6695  0.2704
   97SAPC  H10R 9559   1.151   4.768   4.437  1.3722  2.6428  1.9538
   97SAPC  H10S 9560   1.312   4.759   4.522 -0.1160  0.1698  0.6474
   97SAPC  C211 9561   1.115   4.693   4.617 -0.7076  0.0713  0.1751
   97SAPC  H11R 9562   1.078   4.589   4.622  2.3088 -1.0430  2.1490
   97SAPC  C212 9563   1.097   4.766   4.726 -0.3489 -0.7052 -0.0027
   97SAPC  H12R 9564   1.042   4.718   4.808 -1.1468  1.3731  0.7356
   97SAPC  C213 9565   1.143   4.910   4.757 -0.4040  0.0249 -0.1934
   97SAPC  H13R 9566   1.056   4.971   4.789 -1.5411 -1.2324 -0.8315
   97SAPC  H13S 9567   1.187   4.956   4.666 -1.2683 -0.4264 -0.8471
   97SAPC  C214 9568   1.258   4.894   4.857 -0.1327 -0.2264 -0.8133
   97SAPC  H14R 9569   1.355   4.886   4.807 -1.0072  0.8441 -2.7980
   97SAPC  C215 9570   1.252   4.905   4.994 -0.2634 -0.5946 -0.2114
   97SAPC  H15R 9571   1.345   4.900   5.052 -1.2287 -0.3062  1.4461
   97SAPC  C216 9572   1.128   4.923   5.077 -0.0407 -1.1566  1.3316
   97SAPC  H16R 9573   1.042   4.951   5.013  0.7174  0.8642  1.1042
   97SAPC  H16S 9574   1.131   5.004   5.154 -0.8206  0.6808 -0.4575
   97SAPC  C217 9575   1.076   4.793   5.139 -0.3031  0.0065 -0.9517
   97SAPC  H17R 9576   1.150   4.762   5.215 -0.7185  1.4929  0.0854
   97SAPC  H17S 9577   1.064   4.716   5.060  3.5356 -0.4514 -1.2767
   97SAPC  C218 9578   0.949   4.815   5.220 -0.7577 -0.6508 -0.3487
   97SAPC  H18R 9579   0.868   4.849   5.152 -0.9397  0.3845  0.3687
   97SAPC  H18S 9580   0.964   4.889   5.301 -1.3244 -1.3959  0.4639
   97SAPC  C219 9581   0.897   4.682   5.283 -0.8861  0.2863  0.6024
   97SAPC  H19R 9582   0.865   4.610   5.205 -1.8310  1.2789  0.0453
   97SAPC  H19S 9583   0.804   4.716   5.333 -0.4544  1.1242  0.8550
   97SAPC  C220 9584   0.993   4.605   5.373 -0.3442 -0.0645  0.8935
   97SAPC  H20R 9585   1.033   4.671   5.453  1.9268  0.3166 -0.4582
   97SAPC  H20S 9586   1.082   4.588   5.308  0.4735  0.3366  1.8766
   97SAPC  H20T 9587   0.953   4.518   5.428 -1.2284  1.1120  2.1837
   97SAPC   C33 9588   0.348   4.574   4.196 -0.1022 -0.0278  0.9532
   97SAPC   H3X 9589   0.442   4.531   4.153 -0.8932 -0.8569  0.0080
   97SAPC   H3Y 9590   0.261   4.516   4.160 -0.8911  1.2609  0.7039
   97SAPC   C34 9591   0.360   4.551   4.342  0.4068 -0.6515 -0.0157
   97SAPC   H4X 9592   0.439   4.609   4.395  0.5870 -0.1788 -0.7796
   97SAPC   H4Y 9593   0.400   4.451   4.367  2.1022  0.4193  1.8960
   97SAPC   C35 9594   0.230   4.574   4.425  0.2636  0.6802 -0.0416
   97SAPC   H5X 9595   0.160   4.499   4.382  0.7795  0.2921 -0.2153
   97SAPC   H5Y 9596   0.188   4.677   4.420 -2.9413  0.0928  6.0817
   97SAPC   C36 9597   0.263   4.545   4.573  0.5779 -0.6853  0.5489
   97SAPC   H6X 9598   0.345   4.472   4.593  0.1249 -0.9217  1.6341
   97SAPC   H6Y 9599   0.174   4.495   4.616 -0.6454  1.4254  0.5984
   97SAPC   C37 9600   0.282   4.672   4.656  0.1035  0.2873 -0.0189
   97SAPC   H7X 9601   0.353   4.747   4.615  0.9976 -0.9703 -0.8595
   97SAPC   H7Y 9602   0.327   4.643   4.753 -0.6957 -0.2025  0.2119
   97SAPC   C38 9603   0.164   4.750   4.688  1.0896 -0.0937 -0.7558
   97SAPC   H8X 9604   0.068   4.697   4.678 -0.1772  1.5089  1.8309
   97SAPC   H8Y 9605   0.147   4.833   4.617 -0.2203  0.6465  0.3711
   97SAPC   C39 9606   0.169   4.822   4.826  1.0481  0.3600 -0.4792
   97SAPC   H9X 9607   0.162   4.932   4.817 -0.9902  0.2128 -1.0207
   97SAPC   H9Y 9608   0.260   4.788   4.880  0.0988  0.6560  1.3802
   97SAPC  C310 9609   0.051   4.793   4.919 -0.1607  0.3920  0.8726
   97SAPC  H10X 9610  -0.034   4.805   4.848 -0.1628  0.5383  0.9006
   97SAPC  H10Y 9611   0.038   4.882   4.984 -0.9127  1.5020 -0.7241
   97SAPC  C311 9612   0.039   4.671   5.005  0.3366  0.9807  0.3668
   97SAPC  H11X 9613  -0.042   4.688   5.080  0.5540 -1.8631  1.3816
   97SAPC  H11Y 9614   0.132   4.650   5.062  0.7143 -3.3210 -1.4878
   97SAPC  C312 9615   0.004   4.545   4.923 -0.0296  0.4326 -0.0113
   97SAPC  H12X 9616   0.013   4.475   5.009  3.7543  0.8352  0.0913
   97SAPC  H12Y 9617   0.087   4.516   4.855  0.5617 -1.4394  1.4302
   97SAPC  C313 9618  -0.131   4.541   4.859 -0.0308 -0.5571 -0.3629
   97SAPC  H13X 9619  -0.137   4.605   4.769 -0.6808  1.4938  1.0571
   97SAPC  H13Y 9620  -0.203   4.578   4.936  0.1762 -0.2810 -0.3002
   97SAPC  C314 9621  -0.181   4.400   4.817  0.3078  0.0658 -0.5562
   97SAPC  H14X 9622  -0.281   4.403   4.768 -2.1506 -1.0674  3.7498
   97SAPC  H14Y 9623  -0.183   4.345   4.914  2.3464 -0.2739 -0.6726
   97SAPC  C315 9624  -0.089   4.334   4.716  0.4877 -0.0103  0.6600
   97SAPC  H15X 9625   0.016   4.331   4.752  0.7619  2.5658  0.2446
   97SAPC  H15Y 9626  -0.095   4.386   4.618  0.2292  1.7357  1.5537
   97SAPC  C316 9627  -0.131   4.182   4.688  0.0090 -0.8651 -0.4924
   97SAPC  H16X 9628  -0.237   4.187   4.654 -0.2352 -1.8460  0.0691
   97SAPC  H16Y 9629  -0.120   4.125   4.783  1.9411 -0.6395 -0.5420
   97SAPC  C317 9630  -0.035   4.122   4.587 -0.0845 -0.2400  0.9641
   97SAPC  H17X 9631  -0.020   4.200   4.510  0.0963 -0.4762  0.7597
   97SAPC  H17Y 9632  -0.077   4.024   4.556  0.6654 -0.1391 -0.4025
   97SAPC  C318 9633   0.111   4.088   4.628  0.7707 -0.2183 -0.1796
   97SAPC  H18X 9634   0.174   4.090   4.537  0.9548 -1.1567 -0.0834
   97SAPC  H18Y 9635   0.137   3.988   4.669 -0.8144 -0.0095  1.4501
   97SAPC  H18Z 9636   0.143   4.168   4.698  0.2184  0.1538 -0.3393
   98SAPC     N 9637   3.564   0.015   2.699  0.4218 -0.2146  0.0782
   98SAPC   C12 9638   3.492   0.108   2.791 -0.0173 -0.2187 -0.5512
   98SAPC  H12A 9639   3.397   0.059   2.806 -0.5743  1.6193  3.1385
   98SAPC  H12B 9640   3.474   0.205   2.748  1.2293  0.0077 -0.5930
   98SAPC   C13 9641   3.475  -0.033   2.585 -0.1023  0.3682 -0.5208
   98SAPC  H13A 9642   3.540  -0.086   2.516 -0.4433  1.5708 -1.8091
   98SAPC  H13B 9643   3.398  -0.097   2.623 -0.7903  1.9344  0.8391
   98SAPC  H13C 9644   3.433   0.049   2.529 -1.4056 -2.1598 -3.5643
   98SAPC   C14 9645   3.673   0.099   2.634  0.3133  0.3257  0.1782
   98SAPC  H14A 9646   3.745   0.146   2.700  1.1798 -0.9761  0.2206
   98SAPC  H14B 9647   3.733   0.040   2.566 -1.5810 -2.7272  0.9509
   98SAPC  H14C 9648   3.627   0.189   2.599  2.2569  1.4785  0.4277
   98SAPC   C15 9649   3.612  -0.108   2.775 -0.1957  0.5825  0.2127
   98SAPC  H15A 9650   3.667  -0.177   2.712 -0.9894 -2.0638  2.2385
   98SAPC  H15B 9651   3.683  -0.084   2.852 -0.2809  0.5625  0.2978
   98SAPC  H15C 9652   3.531  -0.165   2.816  0.3568  1.2259  2.3453
   98SAPC   C11 9653   3.552   0.145   2.927 -0.1648  0.1469  0.4143
   98SAPC  H11A 9654   3.585   0.054   2.982  0.6619  0.0933 -0.1640
   98SAPC  H11B 9655   3.461   0.186   2.976 -2.3561  0.3831 -3.4518
   98SAPC     P 9656   3.640   0.375   2.979  0.1397  0.2487 -0.4426
   98SAPC   O13 9657   3.763   0.450   2.959 -0.3105 -0.2084  0.0856
   98SAPC   O14 9658   3.510   0.435   2.936 -0.7203  0.0424 -0.7264
   98SAPC   O12 9659   3.662   0.235   2.914 -0.2405 -0.2975  0.3294
   98SAPC   O11 9660   3.636   0.358   3.132 -0.2224 -0.5880 -0.2961
   98SAPC    C1 9661   3.718   0.255   3.194  0.2229  0.2751  0.5322
   98SAPC    HA 9662   3.651   0.167   3.211 -0.4788  0.4304 -1.1856
   98SAPC    HB 9663   3.803   0.221   3.131 -1.0977 -1.3144 -0.4811
   98SAPC    C2 9664   3.782   0.289   3.335  0.3596  0.6869  0.1056
   98SAPC    HS 9665   3.855   0.211   3.367  1.1989  1.8142  1.0221
   98SAPC   O21 9666   3.674   0.309   3.423 -0.1970 -0.9817 -0.3881
   98SAPC   C21 9667   3.689   0.273   3.549  0.0023  0.0193  0.6150
   98SAPC   O22 9668   3.787   0.222   3.599  0.6534 -0.0242  0.6370
   98SAPC   C22 9669   3.559   0.287   3.625  0.1596 -0.3794  0.1347
   98SAPC   H2R 9670   3.518   0.388   3.604  0.3152 -0.3595 -0.0758
   98SAPC   H2S 9671   3.489   0.213   3.580 -1.8691  2.5382 -1.8458
   98SAPC    C3 9672   3.878   0.415   3.330  0.2581  0.2190  0.3850
   98SAPC    HX 9673   3.819   0.495   3.280 -0.2330 -0.8877 -0.8387
   98SAPC    HY 9674   3.961   0.391   3.260 -0.3137 -1.2161  0.1742
   98SAPC   O31 9675   3.920   0.471   3.464  0.5352  0.5338  0.4453
   98SAPC   C31 9676   4.048   0.458   3.488 -0.1922 -0.4146  0.2079
   98SAPC   O32 9677   4.137   0.402   3.422 -0.6390 -0.4938 -0.4602
   98SAPC   C32 9678   4.075   0.509   3.631  0.9136  0.9675  0.1948
   98SAPC   H2X 9679   3.983   0.514   3.694 -0.3078 -1.3213 -1.2727
   98SAPC   H2Y 9680   4.111   0.612   3.610  0.9391  0.8990 -0.0953
   98SAPC   C23 9681   3.587   0.246   3.775 -0.1820 -0.3699  0.0019
   98SAPC   H3R 9682   3.646   0.324   3.827 -0.9947 -0.7157  1.5144
   98SAPC   H3S 9683   3.642   0.150   3.782 -0.6751 -0.5255  2.5619
   98SAPC   C24 9684   3.461   0.247   3.864 -0.6767 -0.1839 -0.3975
   98SAPC   H4R 9685   3.396   0.327   3.822  0.6677  1.1927  0.0294
   98SAPC   H4S 9686   3.478   0.276   3.970  0.2224  1.2841 -0.9033
   98SAPC   C25 9687   3.398   0.114   3.852 -0.3793  0.0834  0.1903
   98SAPC   H5R 9688   3.398   0.075   3.749  0.7806 -0.1031  0.2468
   98SAPC   C26 9689   3.337   0.035   3.946 -0.2050  0.2271  0.1753
   98SAPC   H6R 9690   3.294  -0.059   3.909  0.9135 -0.5836  0.8644
   98SAPC   C27 9691   3.330   0.085   4.094  0.1646 -0.7800  0.3477
   98SAPC   H7R 9692   3.421   0.144   4.114 -0.0698  0.3579 -1.6975
   98SAPC   H7S 9693   3.340   0.005   4.171 -1.7232 -2.1922 -0.7580
   98SAPC   C28 9694   3.211   0.176   4.125 -0.2493  0.0154  0.1929
   98SAPC   H8R 9695   3.136   0.189   4.046 -0.4663 -0.1346  0.3741
   98SAPC   C29 9696   3.197   0.231   4.244  0.1477 -0.1238 -0.2286
   98SAPC   H9R 9697   3.111   0.294   4.270  0.3366 -0.5451  1.5491
   98SAPC  C210 9698   3.296   0.214   4.355  0.1573  0.3727 -0.1239
   98SAPC  H10R 9699   3.375   0.291   4.346 -0.7120  1.8476  3.1272
   98SAPC  H10S 9700   3.345   0.115   4.357  0.6609  0.5802 -1.3138
   98SAPC  C211 9701   3.232   0.248   4.488  0.2565 -0.0280 -0.2162
   98SAPC  H11R 9702   3.186   0.348   4.495  1.6655  0.7361 -1.2999
   98SAPC  C212 9703   3.211   0.168   4.589  1.0109  0.4803  0.6651
   98SAPC  H12R 9704   3.161   0.210   4.678 -1.3514 -1.8018  0.5261
   98SAPC  C213 9705   3.254   0.018   4.597  0.2862 -0.7210  0.4091
   98SAPC  H13R 9706   3.327  -0.010   4.675  0.0559  1.6708  1.5794
   98SAPC  H13S 9707   3.316  -0.016   4.512 -1.4685 -0.3859 -1.0762
   98SAPC  C214 9708   3.125  -0.063   4.607  0.3294 -0.3533  0.4350
   98SAPC  H14R 9709   3.110  -0.124   4.517  0.0772  0.6534 -0.2204
   98SAPC  C215 9710   3.050  -0.072   4.718 -0.9155  0.2756 -0.8118
   98SAPC  H15R 9711   2.963  -0.139   4.715 -0.2212 -0.6220 -1.5338
   98SAPC  C216 9712   3.075  -0.007   4.853  0.1367 -0.1334  0.0902
   98SAPC  H16R 9713   3.176   0.038   4.851  0.3715 -0.6682 -0.2694
   98SAPC  H16S 9714   3.073  -0.086   4.931  1.1661 -0.5665 -0.3042
   98SAPC  C217 9715   2.982   0.117   4.893  0.3356 -0.8710  0.1020
   98SAPC  H17R 9716   2.879   0.079   4.908 -0.6243  1.6635  0.3633
   98SAPC  H17S 9717   2.984   0.204   4.825 -0.5740  0.2227  1.4344
   98SAPC  C218 9718   3.014   0.171   5.032 -0.3825  0.4582  0.2566
   98SAPC  H18R 9719   3.074   0.100   5.093 -0.7410 -0.5960 -0.5673
   98SAPC  H18S 9720   2.917   0.189   5.083  0.5687 -0.8748  2.7240
   98SAPC  C219 9721   3.102   0.293   5.036 -0.0751  0.6484  0.3465
   98SAPC  H19R 9722   3.033   0.375   5.005 -0.7531 -0.4267 -1.1143
   98SAPC  H19S 9723   3.173   0.275   4.953 -2.0572  1.2501 -1.5919
   98SAPC  C220 9724   3.173   0.315   5.168  0.2024 -0.4561  0.3075
   98SAPC  H20R 9725   3.186   0.425   5.184  0.4846 -0.4231 -0.1327
   98SAPC  H20S 9726   3.274   0.271   5.177  0.6712  0.4258 -0.3803
   98SAPC  H20T 9727   3.109   0.276   5.250 -0.4245  4.2208  2.4144
   98SAPC   C33 9728   4.169   0.426   3.722  0.6007  0.0196  0.3105
   98SAPC   H3X 9729   4.209   0.498   3.796  0.4335  0.3668  0.0648
   98SAPC   H3Y 9730   4.254   0.394   3.658  0.2500  0.2853 -0.2933
   98SAPC   C34 9731   4.111   0.299   3.792  1.0432  0.5749  0.4869
   98SAPC   H4X 9732   4.191   0.233   3.830  0.3225 -0.8224 -0.3571
   98SAPC   H4Y 9733   4.058   0.228   3.725  0.6348 -0.8304  2.2130
   98SAPC   C35 9734   4.027   0.340   3.907  0.7336  0.3111 -0.9767
   98SAPC   H5X 9735   3.928   0.375   3.870  0.3478  1.3969  0.9680
   98SAPC   H5Y 9736   4.080   0.423   3.959 -0.5310  0.1086  0.7172
   98SAPC   C36 9737   3.984   0.224   3.999  0.4285  0.4341  0.1011
   98SAPC   H6X 9738   4.085   0.184   4.022 -0.5981 -3.5246 -1.4375
   98SAPC   H6Y 9739   3.930   0.140   3.950  2.0933 -2.5556  3.0127
   98SAPC   C37 9740   3.925   0.270   4.132  0.1033  0.4061  0.2570
   98SAPC   H7X 9741   3.960   0.372   4.159  0.4483  0.1387  0.8430
   98SAPC   H7Y 9742   3.970   0.210   4.214  0.0495 -0.2986 -0.2187
   98SAPC   C38 9743   3.774   0.270   4.138 -0.3269  0.5169 -0.0791
   98SAPC   H8X 9744   3.726   0.174   4.109  0.9702 -0.7307  1.6819
   98SAPC   H8Y 9745   3.747   0.341   4.058  0.1857  0.7069 -0.0837
   98SAPC   C39 9746   3.712   0.326   4.271  0.0239 -0.5379 -0.2201
   98SAPC   H9X 9747   3.612   0.361   4.239  0.7611  0.1355 -1.9171
   98SAPC   H9Y 9748   3.765   0.420   4.298 -2.1419  0.6689  0.0197
   98SAPC  C310 9749   3.716   0.223   4.378 -0.1662 -0.4588  1.2032
   98SAPC  H10X 9750   3.820   0.184   4.386  0.0126  0.1119  1.7185
   98SAPC  H10Y 9751   3.654   0.135   4.350  0.9456 -0.5966 -1.0089
   98SAPC  C311 9752   3.683   0.271   4.516  0.0674 -1.0647  0.3205
   98SAPC  H11X 9753   3.587   0.326   4.523 -0.0598 -1.3873  1.3106
   98SAPC  H11Y 9754   3.761   0.344   4.545 -0.9095  0.0194  0.2983
   98SAPC  C312 9755   3.684   0.160   4.617  0.4119  0.3513  0.3580
   98SAPC  H12X 9756   3.786   0.117   4.611 -0.6328 -2.9098  3.0182
   98SAPC  H12Y 9757   3.613   0.081   4.584  1.0139 -0.2050  0.3526
   98SAPC  C313 9758   3.644   0.216   4.752  0.6812  0.1850  0.1944
   98SAPC  H13X 9759   3.543   0.262   4.753  0.4615 -0.2917  1.5715
   98SAPC  H13Y 9760   3.706   0.302   4.786  0.9738  0.9045 -1.9476
   98SAPC  C314 9761   3.646   0.112   4.864 -0.0436  0.2657 -0.1978
   98SAPC  H14X 9762   3.750   0.077   4.883 -0.3232 -0.6393 -0.2927
   98SAPC  H14Y 9763   3.594   0.016   4.844 -1.5965  0.5881  1.9537
   98SAPC  C315 9764   3.585   0.163   4.998  0.0931 -0.5238 -0.1652
   98SAPC  H15X 9765   3.479   0.197   5.002 -0.7553 -3.1231  2.3598
   98SAPC  H15Y 9766   3.653   0.241   5.040  2.3672 -2.8572  0.6971
   98SAPC  C316 9767   3.588   0.054   5.107  0.1139 -0.3566 -0.1634
   98SAPC  H16X 9768   3.687   0.048   5.157 -0.3825 -1.7286  0.7430
   98SAPC  H16Y 9769   3.562  -0.045   5.063 -0.2904 -0.4641  0.3036
   98SAPC  C317 9770   3.487   0.070   5.225  0.1578 -0.2613 -0.0379
   98SAPC  H17X 9771   3.386   0.059   5.181  0.8988 -2.5053 -1.3392
   98SAPC  H17Y 9772   3.502   0.171   5.269  0.1942  0.3186 -1.3067
   98SAPC  C318 9773   3.504  -0.036   5.332  0.2429  0.4706 -0.4433
   98SAPC  H18X 9774   3.490  -0.142   5.303  1.3510  0.7183 -2.0448
   98SAPC  H18Y 9775   3.427  -0.019   5.410 -0.4866  1.7623 -1.4074
   98SAPC  H18Z 9776   3.596  -0.023   5.393 -1.5192  2.3062  2.0421
   99SAPC     N 9777   2.349   2.368   3.390  0.2636  0.0345  0.2845
   99SAPC   C12 9778   2.288   2.227   3.369  1.1807 -0.1659 -0.3939
   99SAPC  H12A 9779   2.256   2.236   3.266 -1.1694  2.4290  0.4522
   99SAPC  H12B 9780   2.206   2.202   3.434  1.0100 -4.2249 -1.8571
   99SAPC   C13 9781   2.405   2.386   3.530  0.3366 -0.0883 -0.6093
   99SAPC  H13A 9782   2.445   2.483   3.557  0.0590  0.2651 -1.4366
   99SAPC  H13B 9783   2.327   2.382   3.604  0.8991  0.8243  0.0521
   99SAPC  H13C 9784   2.469   2.301   3.546  0.7500 -0.1509 -2.3916
   99SAPC   C14 9785   2.470   2.377   3.295  0.1883 -0.5875  0.3401
   99SAPC  H14A 9786   2.515   2.473   3.313 -0.4853 -0.5969  2.3317
   99SAPC  H14B 9787   2.544   2.304   3.322  0.2982 -0.2221  1.0357
   99SAPC  H14C 9788   2.445   2.376   3.190 -0.8418 -0.6969  0.5691
   99SAPC   C15 9789   2.247   2.471   3.363  0.4452  0.8614  0.0869
   99SAPC  H15A 9790   2.206   2.458   3.264 -0.8171  0.5548  0.6412
   99SAPC  H15B 9791   2.163   2.462   3.430  0.9466 -1.8846  0.4453
   99SAPC  H15C 9792   2.299   2.566   3.359 -0.3766  1.2634 -1.9324
   99SAPC   C11 9793   2.370   2.095   3.386 -0.3374  1.1883 -0.8662
   99SAPC  H11A 9794   2.455   2.102   3.314  0.1097  0.5819 -0.4053
   99SAPC  H11B 9795   2.304   2.008   3.370  0.5923  0.2655  0.1542
   99SAPC     P 9796   2.554   2.017   3.557 -0.4912 -0.1963 -0.3139
   99SAPC   O13 9797   2.541   1.889   3.475 -0.2497  0.1574  0.4558
   99SAPC   O14 9798   2.658   2.119   3.522 -0.4411  0.2883  0.4139
   99SAPC   O12 9799   2.419   2.090   3.524  0.0470 -0.0899  0.1413
   99SAPC   O11 9800   2.551   1.993   3.717 -0.0049 -0.1391 -0.1888
   99SAPC    C1 9801   2.444   2.041   3.801 -0.2544  0.3129  0.0252
   99SAPC    HA 9802   2.489   2.105   3.880 -1.8288  2.3329 -0.6032
   99SAPC    HB 9803   2.367   2.106   3.753 -0.4844  0.1000  0.1039
   99SAPC    C2 9804   2.373   1.919   3.867  0.0303 -0.0621 -0.1277
   99SAPC    HS 9805   2.265   1.945   3.868  0.3399  1.3457  1.3644
   99SAPC   O21 9806   2.422   1.904   4.002 -0.0255  0.4700 -0.8475
   99SAPC   C21 9807   2.358   1.976   4.086 -0.2234  0.0002  0.4019
   99SAPC   O22 9808   2.271   2.056   4.053  0.0669 -0.4111 -0.6750
   99SAPC   C22 9809   2.398   1.938   4.229 -0.1202  0.7128  0.6602
   99SAPC   H2R 9810   2.318   1.943   4.306  0.3925  1.4063  1.1648
   99SAPC   H2S 9811   2.425   1.832   4.209 -1.5338  0.8902 -2.8761
   99SAPC    C3 9812   2.387   1.777   3.806 -0.3410 -0.3264  0.8906
   99SAPC    HX 9813   2.495   1.753   3.811 -0.6750 -1.5258  3.6991
   99SAPC    HY 9814   2.344   1.769   3.703 -0.1775 -3.8090  0.9954
   99SAPC   O31 9815   2.330   1.674   3.897  0.0501 -0.3280  0.5958
   99SAPC   C31 9816   2.206   1.644   3.853 -0.2602 -0.4582  0.3682
   99SAPC   O32 9817   2.143   1.701   3.764  0.0196  0.1771 -0.9245
   99SAPC   C32 9818   2.158   1.521   3.933 -0.6190 -0.5928 -0.2364
   99SAPC   H2X 9819   2.234   1.442   3.915  0.4100  0.6264 -1.4815
   99SAPC   H2Y 9820   2.063   1.484   3.889 -0.6864  0.3971 -0.9648
   99SAPC   C23 9821   2.521   2.023   4.261 -0.2717 -0.1034 -0.4990
   99SAPC   H3R 9822   2.608   2.024   4.193 -3.1612 -0.3601 -4.5908
   99SAPC   H3S 9823   2.560   1.988   4.359  0.5563  1.0146 -0.4051
   99SAPC   C24 9824   2.470   2.167   4.283 -0.3147 -0.1771  0.8668
   99SAPC   H4R 9825   2.519   2.207   4.374 -0.2478 -0.9667  1.1871
   99SAPC   H4S 9826   2.364   2.172   4.318 -0.5528  0.5058  0.0625
   99SAPC   C25 9827   2.485   2.265   4.165  0.0469 -0.7932 -0.6016
   99SAPC   H5R 9828   2.447   2.234   4.067  0.6152  0.3736 -1.2100
   99SAPC   C26 9829   2.549   2.383   4.187  0.2837 -0.4100 -0.1190
   99SAPC   H6R 9830   2.580   2.446   4.102  0.9345  0.0274  0.4283
   99SAPC   C27 9831   2.607   2.434   4.318  0.1388 -1.0333  0.0958
   99SAPC   H7R 9832   2.682   2.362   4.359 -1.3978 -3.3098 -0.8951
   99SAPC   H7S 9833   2.528   2.428   4.396  1.3274  0.5365  1.5248
   99SAPC   C28 9834   2.667   2.576   4.307  0.6260 -0.1323 -0.0028
   99SAPC   H8R 9835   2.629   2.642   4.228  0.6535 -0.0993  0.0121
   99SAPC   C29 9836   2.749   2.631   4.403 -0.0135 -0.4047 -0.1313
   99SAPC   H9R 9837   2.784   2.735   4.400 -0.1489 -0.2115  2.5759
   99SAPC  C210 9838   2.796   2.578   4.531 -0.0188 -0.3179 -0.6350
   99SAPC  H10R 9839   2.906   2.565   4.537  0.1301  1.0265 -0.0766
   99SAPC  H10S 9840   2.744   2.485   4.563  1.3311 -1.6907 -2.2497
   99SAPC  C211 9841   2.751   2.678   4.643  0.2373 -0.6025  0.1486
   99SAPC  H11R 9842   2.688   2.763   4.613  0.4511 -0.9962 -1.4758
   99SAPC  C212 9843   2.781   2.668   4.777 -0.3885  0.4121  0.5488
   99SAPC  H12R 9844   2.756   2.752   4.844  2.3599  0.4053  1.7210
   99SAPC  C213 9845   2.865   2.550   4.824  0.1779 -0.8578  0.3234
   99SAPC  H13R 9846   2.954   2.554   4.758  1.4863 -0.5900  2.0254
   99SAPC  H13S 9847   2.815   2.453   4.801 -0.2299 -0.3523 -1.0052
   99SAPC  C214 9848   2.901   2.562   4.972 -0.6140 -0.0285 -0.2937
   99SAPC  H14R 9849   2.965   2.642   5.011 -1.4610  0.3097  0.4579
   99SAPC  C215 9850   2.838   2.484   5.068  0.0575 -0.6845  0.4357
   99SAPC  H15R 9851   2.875   2.502   5.170  0.4103 -0.8940  0.3507
   99SAPC  C216 9852   2.725   2.385   5.043 -0.9924  0.7334 -0.6949
   99SAPC  H16R 9853   2.736   2.309   4.963 -0.8965 -0.6621  0.5873
   99SAPC  H16S 9854   2.636   2.448   5.020 -0.9171  1.0054 -0.2593
   99SAPC  C217 9855   2.687   2.314   5.176 -0.0140  0.6683 -0.1540
   99SAPC  H17R 9856   2.708   2.386   5.258  1.3020  0.2076 -0.0636
   99SAPC  H17S 9857   2.765   2.235   5.182 -0.0547  0.6292 -0.1397
   99SAPC  C218 9858   2.546   2.250   5.176 -0.1170  0.0678  0.0034
   99SAPC  H18R 9859   2.531   2.197   5.079  1.5968  0.2352 -0.3987
   99SAPC  H18S 9860   2.475   2.335   5.181 -0.6307 -0.1271 -2.6898
   99SAPC  C219 9861   2.535   2.150   5.298  0.7913  0.4297  0.1209
   99SAPC  H19R 9862   2.550   2.209   5.391  0.3181  1.5218 -0.4778
   99SAPC  H19S 9863   2.613   2.071   5.290  1.6259  0.8861  2.8160
   99SAPC  C220 9864   2.393   2.092   5.309  0.5731 -0.5076 -0.0213
   99SAPC  H20R 9865   2.371   2.026   5.396  1.2698 -1.8325 -0.8172
   99SAPC  H20S 9866   2.375   2.038   5.214 -0.4011  1.5213 -1.0483
   99SAPC  H20T 9867   2.314   2.169   5.313 -1.0064 -2.0698  3.2140
   99SAPC   C33 9868   2.158   1.551   4.092 -0.5894 -0.7504 -0.3462
   99SAPC   H3X 9869   2.108   1.650   4.092  0.9628  0.0807  0.8705
   99SAPC   H3Y 9870   2.260   1.555   4.135 -1.4233 -1.7543  1.9111
   99SAPC   C34 9871   2.068   1.450   4.165  0.3123 -0.6172 -0.1430
   99SAPC   H4X 9872   1.977   1.430   4.104  0.7577 -1.0560 -0.6735
   99SAPC   H4Y 9873   2.027   1.490   4.260  2.3236  0.5083  0.3109
   99SAPC   C35 9874   2.138   1.323   4.178  0.1878  0.0497  0.7885
   99SAPC   H5X 9875   2.231   1.331   4.237  0.6840  0.2257 -0.0015
   99SAPC   H5Y 9876   2.166   1.273   4.083 -1.1133  4.2432 -2.0948
   99SAPC   C36 9877   2.054   1.219   4.258 -0.2211  0.0672 -0.1716
   99SAPC   H6X 9878   2.096   1.120   4.229  0.3455  0.3684 -0.3798
   99SAPC   H6Y 9879   1.951   1.205   4.217  0.4438  1.7305 -2.6060
   99SAPC   C37 9880   2.066   1.235   4.413  0.3108 -0.0552  0.3196
   99SAPC   H7X 9881   1.980   1.300   4.441 -0.3403 -0.9513  0.4500
   99SAPC   H7Y 9882   2.164   1.273   4.446  0.7589 -0.4285 -0.5516
   99SAPC   C38 9883   2.033   1.106   4.489  0.2263 -0.3329  0.3047
   99SAPC   H8X 9884   2.127   1.047   4.494  1.7394  1.6147 -2.3030
   99SAPC   H8Y 9885   1.964   1.044   4.428  0.2830  0.1283 -0.2405
   99SAPC   C39 9886   1.966   1.137   4.631 -0.0604  0.3103  0.8249
   99SAPC   H9X 9887   1.875   1.199   4.617 -0.3485  0.0324  1.4179
   99SAPC   H9Y 9888   2.052   1.189   4.680  1.2932  1.0516 -2.1081
   99SAPC  C310 9889   1.940   1.017   4.719  0.3072 -0.6681 -0.4100
   99SAPC  H10X 9890   2.014   0.935   4.709  0.7185 -0.4174  0.5735
   99SAPC  H10Y 9891   1.853   0.956   4.684 -0.1177 -2.1237  2.8210
   99SAPC  C311 9892   1.928   1.048   4.872  0.6162  0.4778  0.8163
   99SAPC  H11X 9893   1.866   1.140   4.878  0.7350  0.9660 -2.7629
   99SAPC  H11Y 9894   2.029   1.061   4.916  1.6398 -3.6532  0.1836
   99SAPC  C312 9895   1.863   0.927   4.952 -0.0505 -0.1811  0.1989
   99SAPC  H12X 9896   1.917   0.835   4.921  1.1511  0.4170  0.4576
   99SAPC  H12Y 9897   1.758   0.908   4.920  0.0382 -4.1871  1.7053
   99SAPC  C313 9898   1.869   0.939   5.103  0.2488 -0.5036  0.5218
   99SAPC  H13X 9899   1.766   0.958   5.141  0.5077 -0.9477  1.4765
   99SAPC  H13Y 9900   1.920   1.032   5.136  0.6211 -0.9341  1.1943
   99SAPC  C314 9901   1.941   0.832   5.188  0.9538  0.2764  0.1117
   99SAPC  H14X 9902   2.045   0.810   5.158  1.0880  0.7674  0.2030
   99SAPC  H14Y 9903   1.873   0.745   5.177 -0.6706  1.6425 -1.3013
   99SAPC  C315 9904   1.939   0.856   5.334  0.3824  0.3135 -0.1535
   99SAPC  H15X 9905   1.837   0.833   5.369  0.2874 -2.3917 -1.9845
   99SAPC  H15Y 9906   1.970   0.956   5.373  1.6838 -0.6706  1.4540
   99SAPC  C316 9907   2.031   0.767   5.423  0.5363  0.4165  0.2105
   99SAPC  H16X 9908   2.137   0.767   5.390  0.9798 -1.2327  1.5193
   99SAPC  H16Y 9909   1.999   0.663   5.401  0.9029  0.3526 -0.0280
   99SAPC  C317 9910   2.016   0.790   5.575  0.0619  0.1641 -0.2426
   99SAPC  H17X 9911   2.066   0.708   5.631  1.2056  0.8407 -0.2269
   99SAPC  H17Y 9912   1.915   0.820   5.610 -0.0145 -1.8964  1.5182
   99SAPC  C318 9913   2.104   0.911   5.618 -0.2759  0.2741 -0.3337
   99SAPC  H18X 9914   2.073   1.004   5.565 -0.4316  0.7199  0.5254
   99SAPC  H18Y 9915   2.213   0.896   5.601  0.6323  3.5464  1.6872
   99SAPC  H18Z 9916   2.086   0.911   5.727  1.7716 -0.0506  0.0481
  100SAPC     N 9917   6.833   3.089   2.878 -0.0256  0.2771 -0.3235
  100SAPC   C12 9918   6.960   3.143   2.950  0.0451 -0.6044  0.6772
  100SAPC  H12A 9919   6.940   3.249   2.951 -0.1221 -0.6368  1.4935
  100SAPC  H12B 9920   7.046   3.128   2.887 -0.2317  0.4485  0.0351
  100SAPC   C13 9921   6.804   3.186   2.762  0.2480  0.4098 -0.2933
  100SAPC  H13A 9922   6.888   3.198   2.695  1.0988  0.5006  0.7561
  100SAPC  H13B 9923   6.711   3.151   2.720  0.1467  0.0247  0.2375
  100SAPC  H13C 9924   6.776   3.286   2.792  1.6443  0.3666  1.3091
  100SAPC   C14 9925   6.860   2.953   2.833  0.1655 -0.3708  0.5775
  100SAPC  H14A 9926   6.771   2.914   2.786 -0.2805  0.8513  0.3824
  100SAPC  H14B 9927   6.937   2.940   2.758  0.9556 -2.8645  1.6998
  100SAPC  H14C 9928   6.886   2.881   2.909  1.1749  0.4479  1.0302
  100SAPC   C15 9929   6.725   3.097   2.979  0.1939  0.2111 -0.2470
  100SAPC  H15A 9930   6.706   3.199   3.006 -1.4572  0.3461 -1.7092
  100SAPC  H15B 9931   6.635   3.056   2.935  0.6661  0.0095 -1.0519
  100SAPC  H15C 9932   6.751   3.033   3.062 -0.7973  0.1878  0.0580
  100SAPC   C11 9933   6.999   3.093   3.091 -0.6296 -0.1340 -1.0542
  100SAPC  H11A 9934   6.915   3.116   3.159 -1.4043 -2.2281 -1.2381
  100SAPC  H11B 9935   7.082   3.151   3.137 -2.6786  1.1242  1.2341
  100SAPC     P 9936   7.166   2.911   3.021 -0.3398  0.1943 -0.2927
  100SAPC   O13 9937   7.135   2.786   2.943  0.3928 -0.2896 -0.0279
  100SAPC   O14 9938   7.226   3.023   2.943  0.5401  0.1519  0.3117
  100SAPC   O12 9939   7.041   2.961   3.102  0.4568  0.0840 -0.2397
  100SAPC   O11 9940   7.279   2.870   3.124  0.7643 -0.5052 -0.4218
  100SAPC    C1 9941   7.245   2.786   3.234  0.4683  1.0648 -0.3952
  100SAPC    HA 9942   7.161   2.828   3.293  1.1557 -0.4583  1.7958
  100SAPC    HB 9943   7.200   2.694   3.191  1.0065  1.0446 -0.9234
  100SAPC    C2 9944   7.370   2.762   3.325  0.2225 -0.6570 -0.1260
  100SAPC    HS 9945   7.438   2.684   3.286  2.3927  1.0130  0.1421
  100SAPC   O21 9946   7.310   2.724   3.453 -0.1853  0.4823 -0.2769
  100SAPC   C21 9947   7.387   2.653   3.527 -0.3300 -0.1323  0.4022
  100SAPC   O22 9948   7.498   2.618   3.501 -0.2423  0.8460 -0.1338
  100SAPC   C22 9949   7.307   2.610   3.652  0.2556 -0.1258  0.0428
  100SAPC   H2R 9950   7.263   2.703   3.693 -1.3872  0.1712 -2.1739
  100SAPC   H2S 9951   7.225   2.544   3.615 -0.0752  0.3022  0.0116
  100SAPC    C3 9952   7.450   2.900   3.340  0.3815 -0.2763  0.0940
  100SAPC    HX 9953   7.378   2.976   3.378  1.0908 -1.1627  3.6015
  100SAPC    HY 9954   7.468   2.933   3.235 -2.9243 -1.4279 -0.9574
  100SAPC   O31 9955   7.565   2.875   3.427  0.2538 -0.1985  0.1664
  100SAPC   C31 9956   7.566   2.957   3.532 -0.0296  0.3647 -0.7148
  100SAPC   O32 9957   7.489   3.046   3.554 -0.5859 -0.3194  0.4562
  100SAPC   C32 9958   7.699   2.931   3.612  0.1643  0.1705 -0.1222
  100SAPC   H2X 9959   7.781   2.962   3.544 -1.5153 -0.6546 -2.6672
  100SAPC   H2Y 9960   7.703   2.820   3.615  0.4088  0.1906  2.2169
  100SAPC   C23 9961   7.398   2.543   3.755  0.2176 -0.0567  0.1434
  100SAPC   H3R 9962   7.468   2.622   3.787 -0.2574  0.4635 -0.0885
  100SAPC   H3S 9963   7.457   2.459   3.712  0.0813  0.4674 -1.1109
  100SAPC   C24 9964   7.319   2.481   3.871  0.8240  0.1784 -0.2570
  100SAPC   H4R 9965   7.260   2.395   3.831 -1.0984  1.2252  0.2209
  100SAPC   H4S 9966   7.242   2.553   3.905  1.4850  0.0222  1.7220
  100SAPC   C25 9967   7.413   2.420   3.977  0.3615  0.5828 -0.2510
  100SAPC   H5R 9968   7.456   2.321   3.960  3.9221  1.9323  0.1839
  100SAPC   C26 9969   7.439   2.479   4.093  0.2366 -0.2630  0.1957
  100SAPC   H6R 9970   7.503   2.423   4.163  1.7941 -0.1231 -1.0656
  100SAPC   C27 9971   7.393   2.610   4.144 -0.4431  0.3430 -0.5561
  100SAPC   H7R 9972   7.368   2.681   4.062 -2.7171  0.9536  0.5967
  100SAPC   H7S 9973   7.476   2.657   4.201  1.2393 -1.5836 -1.2977
  100SAPC   C28 9974   7.262   2.594   4.217  0.6757 -0.6174  0.3154
  100SAPC   H8R 9975   7.178   2.583   4.147 -0.0398  1.4509  0.8051
  100SAPC   C29 9976   7.236   2.590   4.353  0.5713 -1.1677 -0.3262
  100SAPC   H9R 9977   7.128   2.596   4.375  0.7458 -0.3963  0.3606
  100SAPC  C210 9978   7.339   2.584   4.463  0.1671 -0.2556 -0.1093
  100SAPC  H10R 9979   7.430   2.644   4.443 -0.5972  0.1459 -2.7779
  100SAPC  H10S 9980   7.364   2.476   4.470 -2.0110 -0.9056 -1.3182
  100SAPC  C211 9981   7.284   2.614   4.601  0.1959  0.2856 -0.4798
  100SAPC  H11R 9982   7.178   2.637   4.618  0.0082 -1.5924  1.3118
  100SAPC  C212 9983   7.359   2.604   4.711 -0.6875 -0.2031 -0.6190
  100SAPC  H12R 9984   7.312   2.623   4.808  2.6771  0.5499  1.0348
  100SAPC  C213 9985   7.506   2.562   4.725 -0.1819  0.5918  0.5076
  100SAPC  H13R 9986   7.569   2.653   4.731  0.0195  0.4659  0.3224
  100SAPC  H13S 9987   7.544   2.500   4.641 -1.4771 -0.3175  0.5735
  100SAPC  C214 9988   7.546   2.469   4.834  0.5669 -0.1827 -0.0858
  100SAPC  H14R 9989   7.570   2.367   4.801 -1.3554 -0.9721  0.7635
  100SAPC  C215 9990   7.544   2.497   4.964 -0.0901  0.3632 -1.1155
  100SAPC  H15R 9991   7.584   2.424   5.036  1.1537  1.9019 -0.1908
  100SAPC  C216 9992   7.509   2.626   5.025 -0.2790 -0.2895 -0.3574
  100SAPC  H16R 9993   7.411   2.629   5.078  0.6875 -0.6082  1.5695
  100SAPC  H16S 9994   7.512   2.707   4.949 -0.3437 -0.3542 -0.4287
  100SAPC  C217 9995   7.612   2.656   5.140 -0.4871  0.1200 -0.2340
  100SAPC  H17R 9996   7.632   2.764   5.156  1.5768  0.2566 -3.0264
  100SAPC  H17S 9997   7.712   2.615   5.116 -0.7951 -0.4311 -0.6154
  100SAPC  C218 9998   7.555   2.583   5.261 -0.2949 -0.4944 -0.2079
  100SAPC  H18R 9999   7.523   2.480   5.235  1.4551 -1.3146  0.6995
  100SAPC  H18S10000   7.474   2.647   5.302  1.0263  0.1027  1.6062
  100SAPC  C21910001   7.669   2.572   5.365  0.5907 -0.1008 -0.4281
  100SAPC  H19R10002   7.727   2.667   5.364  1.7428 -0.7895 -1.7497
  100SAPC  H19S10003   7.742   2.494   5.335 -0.7867 -1.5306 -0.2009
  100SAPC  C22010004   7.619   2.519   5.502 -0.4760 -0.0031  0.7019
  100SAPC  H20R10005   7.696   2.532   5.580 -0.5391 -1.7861  1.1172
  100SAPC  H20S10006   7.590   2.412   5.493  0.2510 -0.3832  2.5013
  100SAPC  H20T10007   7.536   2.588   5.525  0.8146  1.7418  0.2799
  100SAPC   C3310008   7.707   3.005   3.749 -0.0897  0.7298 -0.3764
  100SAPC   H3X10009   7.608   2.999   3.799 -1.0525 -0.9138 -2.3425
  100SAPC   H3Y10010   7.734   3.113   3.744  2.2410  0.4973  3.3420
  100SAPC   C3410011   7.818   2.950   3.839 -0.2163 -0.0846 -0.6755
  100SAPC   H4X10012   7.913   2.973   3.785 -0.7562  1.0790 -1.1462
  100SAPC   H4Y10013   7.803   2.841   3.858  2.8318 -0.8715 -2.0309
  100SAPC   C3510014   7.824   3.010   3.981 -0.3737 -0.1782 -0.8685
  100SAPC   H5X10015   7.733   3.007   4.046  1.3268  1.0792  1.7205
  100SAPC   H5Y10016   7.857   3.115   3.989 -1.6650  0.1691  0.4722
  100SAPC   C3610017   7.932   2.924   4.058 -0.3467  0.2473 -0.2466
  100SAPC   H6X10018   8.005   2.903   3.976 -0.4242 -0.2837 -0.1805
  100SAPC   H6Y10019   7.885   2.826   4.082  0.1630  0.5093  2.0185
  100SAPC   C3710020   7.999   3.004   4.174  0.3116  0.0670  0.6003
  100SAPC   H7X10021   8.062   3.084   4.129  2.4859 -0.8142  1.8949
  100SAPC   H7Y10022   8.071   2.938   4.227 -1.2252 -1.8875  0.3785
  100SAPC   C3810023   7.894   3.056   4.267  0.1314 -1.1715 -0.4732
  100SAPC   H8X10024   7.846   2.978   4.331 -1.0913  1.0888  1.5130
  100SAPC   H8Y10025   7.818   3.118   4.217  2.5060  0.8917 -1.7362
  100SAPC   C3910026   7.952   3.149   4.380 -0.0145 -0.2436  0.0288
  100SAPC   H9X10027   8.012   3.230   4.332 -1.2580 -0.6687 -2.3681
  100SAPC   H9Y10028   8.018   3.096   4.452  0.1684 -2.1957 -1.4895
  100SAPC  C31010029   7.845   3.229   4.455  0.3367 -0.3160  0.2999
  100SAPC  H10X10030   7.782   3.150   4.502 -0.9912 -0.2157 -1.2512
  100SAPC  H10Y10031   7.781   3.278   4.379 -0.3725 -2.2767 -0.4350
  100SAPC  C31110032   7.897   3.327   4.561  0.7577  0.3191  0.2521
  100SAPC  H11X10033   7.953   3.265   4.633 -0.9920  0.8356  2.1465
  100SAPC  H11Y10034   7.807   3.367   4.612 -1.4600 -0.4023 -2.8032
  100SAPC  C31210035   7.978   3.441   4.507 -0.4291  0.2398  0.0828
  100SAPC  H12X10036   7.925   3.488   4.422  1.9091 -0.4983 -1.8898
  100SAPC  H12Y10037   8.071   3.403   4.460 -1.0569  0.1973 -1.1420
  100SAPC  C31310038   8.022   3.549   4.606  0.6945 -0.5439 -0.2989
  100SAPC  H13X10039   7.939   3.622   4.611 -0.0310 -1.2952 -0.9168
  100SAPC  H13Y10040   8.106   3.608   4.563  2.2291 -2.3998 -0.0089
  100SAPC  C31410041   8.073   3.501   4.737  0.2543  0.0131  0.4165
  100SAPC  H14X10042   8.178   3.465   4.726  0.0451 -1.4699  2.6574
  100SAPC  H14Y10043   8.020   3.411   4.774  0.2335 -0.3006 -0.3523
  100SAPC  C31510044   8.068   3.614   4.841 -0.3782  0.4119  0.2468
  100SAPC  H15X10045   8.116   3.569   4.931 -1.5432 -0.6907  0.3561
  100SAPC  H15Y10046   7.961   3.638   4.862 -0.7220 -1.8113  1.3901
  100SAPC  C31610047   8.144   3.736   4.801 -0.1177 -0.4599  0.4275
  100SAPC  H16X10048   8.088   3.795   4.726 -0.9207  1.5049  2.4421
  100SAPC  H16Y10049   8.252   3.715   4.788 -0.0204  0.3993 -0.1439
  100SAPC  C31710050   8.148   3.835   4.918  0.4668  0.3091  0.5801
  100SAPC  H17X10051   8.189   3.808   5.017 -1.5461 -0.6064  1.2167
  100SAPC  H17Y10052   8.043   3.866   4.937 -0.4490  0.0179 -3.0773
  100SAPC  C31810053   8.218   3.966   4.890 -0.0651 -0.4469  0.5863
  100SAPC  H18X10054   8.327   3.949   4.882 -0.1778 -0.7054 -0.5378
  100SAPC  H18Y10055   8.183   4.036   4.969 -0.8907  0.2095 -0.3353
  100SAPC  H18Z10056   8.174   4.008   4.797  0.4156 -3.3911 -1.0773
  101OSM      N10057   2.656   6.829   7.971 -0.5446  0.2470  0.3610
  101OSM    C1510058   2.640   6.831   8.114 -0.5742  0.1946 -0.5382
  101OSM   H15A10059   2.630   6.930   8.157 -1.5227  0.0551 -0.4246
  101OSM   H15B10060   2.724   6.775   8.153 -0.1138  0.8120 -0.6216
  101OSM   H15C10061   2.550   6.780   8.145 -0.0141 -0.1358  0.6238
  101OSM    C1410062   2.769   6.927   7.935 -0.5271  0.5301  0.9399
  101OSM   H14A10063   2.862   6.876   7.957 -1.7806 -3.0735 -1.2059
  101OSM   H14B10064   2.762   7.020   7.989 -0.6751  1.3772 -0.4832
  101OSM   H14C10065   2.773   6.944   7.828  1.3228  1.5615  1.1501
  101OSM    C1310066   2.707   6.695   7.933  0.0300  0.1501 -0.1017
  101OSM   H13A10067   2.636   6.616   7.950  0.6016 -0.4180 -0.3240
  101OSM   H13B10068   2.801   6.672   7.980 -0.1589 -3.7706 -1.3091
  101OSM   H13C10069   2.712   6.701   7.825 -0.9562  1.4328 -0.1018
  101OSM    C1210070   2.522   6.869   7.898  0.1255 -0.4859 -0.5836
  101OSM   H12A10071   2.480   6.957   7.944 -2.0116 -1.0279 -1.3900
  101OSM   H12B10072   2.456   6.787   7.924  1.5507 -1.6775 -0.5382
  101OSM    C1110073   2.521   6.903   7.749  0.1244  0.2872 -1.1442
  101OSM   H11A10074   2.597   6.981   7.733 -0.2738  0.6850 -1.1070
  101OSM   H11B10075   2.424   6.945   7.713  0.1631  1.1217 -0.2865
  101OSM      P10076   2.659   6.770   7.566  0.2431 -0.3018  0.3557
  101OSM    O1310077   2.797   6.784   7.611  0.1799  0.5427 -0.0669
  101OSM    O1410078   2.630   6.639   7.504  0.6594 -0.4933 -0.0233
  101OSM    O1110079   2.640   6.884   7.457 -0.3215  0.4863 -0.7001
  101OSM    O1210080   2.551   6.786   7.678 -0.0554  0.1630 -0.3618
  101OSM    C1S10081   2.514   6.932   7.422  0.8037 -0.4839 -0.7719
  101OSM    H1S10082   2.480   7.020   7.482 -3.0085 -1.8486 -0.6339
  101OSM    H1T10083   2.431   6.860   7.435  1.9803 -1.8380 -0.5810
  101OSM     NF10084   2.379   7.044   7.264  0.3112 -0.3008 -0.2669
  101OSM    HNF10085   2.309   6.987   7.221 -0.6325  1.1352 -0.7177
  101OSM    C2S10086   2.505   6.979   7.276 -0.0189 -0.4651 -0.2757
  101OSM    H2S10087   2.585   7.052   7.250  0.8072 -1.6287 -1.1334
  101OSM    C3S10088   2.525   6.855   7.182  0.5932 -0.5437 -0.2616
  101OSM    H3S10089   2.456   6.780   7.226 -0.9747  0.5447 -0.7772
  101OSM     O310090   2.662   6.816   7.185 -0.2292  0.5177  0.1840
  101OSM    HO310091   2.704   6.869   7.254  0.5033  0.0918  0.0680
  101OSM    C4S10092   2.491   6.896   7.042  0.3324  0.5290  0.3949
  101OSM    H4S10093   2.556   6.967   6.991 -1.9012  2.4194  0.0027
  101OSM    C5S10094   2.384   6.840   6.978  0.1507  0.1529  0.6649
  101OSM    H5S10095   2.341   6.749   7.022  0.2364 -0.6327 -0.7957
  101OSM    C6S10096   2.340   6.864   6.837 -0.1265  0.2783  0.3642
  101OSM    H6S10097   2.229   6.874   6.838 -0.1745  0.2345 -1.6716
  101OSM    H6T10098   2.367   6.774   6.778  2.1061  0.0522  1.6237
  101OSM    C7S10099   2.412   6.983   6.758 -0.3193  0.0395  1.0361
  101OSM    H7S10100   2.515   6.946   6.737 -0.1120  1.5257 -0.8993
  101OSM    H7T10101   2.428   7.078   6.814  0.6902  1.0072 -0.7931
  101OSM    C8S10102   2.329   7.008   6.629  0.1677  0.1732  0.1528
  101OSM    H8S10103   2.371   7.092   6.570  0.0022  0.4332  0.4024
  101OSM    H8T10104   2.226   7.033   6.663 -0.5151 -1.1929 -0.7966
  101OSM    C9S10105   2.326   6.890   6.531  0.7598 -0.2639 -0.2463
  101OSM    H9S10106   2.265   6.815   6.585  1.1475 -1.2538 -1.1488
  101OSM    H9T10107   2.422   6.837   6.514 -0.2172 -2.7419  1.4070
  101OSM   C10S10108   2.243   6.909   6.400 -0.4907  0.5430  0.3071
  101OSM   H10S10109   2.268   6.812   6.352  2.0169  0.0729  2.3093
  101OSM   H10T10110   2.289   6.991   6.341 -1.9022  1.1465  0.0016
  101OSM   C11S10111   2.085   6.912   6.396  0.0393  0.0882 -0.0522
  101OSM   H11S10112   2.059   7.009   6.443  2.4852  2.1581 -2.6054
  101OSM   H11T10113   2.053   6.819   6.448  2.0660 -1.5092 -1.5205
  101OSM   C12S10114   2.032   6.906   6.253 -0.6062 -0.4484 -0.3177
  101OSM   H12S10115   1.923   6.890   6.266 -0.5210 -0.0230  1.1891
  101OSM   H12T10116   2.081   6.827   6.192  0.1468  0.2641 -0.6484
  101OSM   C13S10117   2.050   7.042   6.175 -0.2853  0.0039 -0.3975
  101OSM   H13S10118   2.160   7.053   6.169  0.0482 -3.1074 -1.4010
  101OSM   H13T10119   1.996   7.122   6.232 -0.8449 -0.1118 -0.7533
  101OSM   C14S10120   2.000   7.042   6.031 -0.2147  0.3892  0.3519
  101OSM   H14S10121   1.917   6.970   6.042  0.1748 -0.0778  0.2747
  101OSM   H14T10122   2.071   7.006   5.954  1.5855  1.2021  1.5675
  101OSM   C15S10123   1.937   7.178   5.988  0.6702 -0.4370  0.0301
  101OSM   H15S10124   2.013   7.257   5.977 -0.2253  0.1706 -2.6876
  101OSM   H15T10125   1.867   7.201   6.072 -0.5831 -0.2612 -1.0233
  101OSM   C16S10126   1.847   7.151   5.862 -0.2661  0.1743  0.3486
  101OSM   H16S10127   1.771   7.232   5.852 -1.2419 -0.2688  3.3288
  101OSM   H16T10128   1.797   7.054   5.879 -0.8898  0.4705  0.2202
  101OSM   C17S10129   1.939   7.125   5.739 -0.6865 -0.2327 -0.3986
  101OSM   H17S10130   1.991   7.027   5.751 -0.0964  0.1683  0.3820
  101OSM   H17T10131   2.016   7.204   5.751 -0.8148 -0.4151  2.2963
  101OSM   C18S10132   1.866   7.136   5.605  0.3350  0.1264  0.5914
  101OSM   H18S10133   1.757   7.119   5.618  0.0944  0.1220 -1.2453
  101OSM   H18T10134   1.900   7.073   5.520 -1.4745 -0.7033  0.4320
  101OSM   H18U10135   1.866   7.241   5.570 -2.3085 -0.8217 -2.8392
  101OSM    C1F10136   2.348   7.166   7.307  0.7562 -0.7896 -0.0353
  101OSM     OF10137   2.427   7.247   7.359 -0.1934  0.4766  0.5285
  101OSM    C2F10138   2.205   7.217   7.307 -0.3455  0.2556  0.3533
  101OSM    H2F10139   2.174   7.208   7.413  0.8096 -0.8824  0.6211
  101OSM    H2G10140   2.134   7.150   7.256 -1.8260  2.5590 -0.7821
  101OSM    C3F10141   2.200   7.363   7.253 -0.5031 -0.2064 -0.0848
  101OSM    H3F10142   2.254   7.431   7.323 -1.2889  0.5058 -0.1612
  101OSM    H3G10143   2.097   7.402   7.244 -0.4801 -0.5341 -2.0789
  101OSM    C4F10144   2.255   7.363   7.106 -0.2188 -0.0097  0.4842
  101OSM    H4F10145   2.354   7.314   7.106  0.2965  0.9979  1.2278
  101OSM    H4G10146   2.275   7.470   7.082  1.9709 -0.1119  1.6133
  101OSM    C5F10147   2.173   7.297   6.998  0.5055 -0.8127  0.0539
  101OSM    H5F10148   2.067   7.322   7.020  0.4847 -1.2734  0.4960
  101OSM    H5G10149   2.160   7.187   7.007 -2.2385 -0.6920 -1.1477
  101OSM    C6F10150   2.220   7.331   6.859  0.0262 -0.6480 -0.1105
  101OSM    H6F10151   2.317   7.278   6.848  0.6252  0.5804 -0.9531
  101OSM    H6G10152   2.248   7.438   6.849 -1.8503 -0.0781  0.4451
  101OSM    C7F10153   2.126   7.305   6.739  0.3119  0.3196 -0.1297
  101OSM    H7F10154   2.026   7.343   6.771  1.0080 -0.2142  3.0276
  101OSM    H7G10155   2.106   7.196   6.731 -2.3582  0.7128  0.0707
  101OSM    C8F10156   2.171   7.372   6.608 -0.0640  0.7080 -0.6748
  101OSM    H8F10157   2.281   7.356   6.599 -0.2317  0.6306 -3.1731
  101OSM    H8G10158   2.159   7.481   6.620  1.2496  0.7408  0.7355
  101OSM    C9F10159   2.109   7.318   6.481 -0.6801  0.5371 -0.2314
  101OSM    H9F10160   2.127   7.211   6.465 -0.2121  0.4364  0.8551
  101OSM   C10F10161   2.043   7.389   6.393  0.8603  0.4872 -0.2807
  101OSM   H10F10162   2.007   7.329   6.308 -0.8413  0.0221  0.7255
  101OSM   C11F10163   2.003   7.536   6.387 -0.0171 -0.4227 -0.5272
  101OSM   H11F10164   2.085   7.591   6.337 -0.5984  1.2169  0.2744
  101OSM   H11G10165   1.997   7.589   6.484  1.7235  1.7259 -1.5065
  101OSM   C12F10166   1.868   7.571   6.313 -0.0936 -0.1350 -0.3983
  101OSM   H12F10167   1.851   7.679   6.334  0.6817 -0.1927  0.5933
  101OSM   H12G10168   1.787   7.509   6.355  1.5644 -1.6001  0.7451
  101OSM   C13F10169   1.883   7.541   6.157  0.1929  0.1750 -0.3999
  101OSM   H13F10170   1.939   7.448   6.136  1.9156  0.9819  0.4125
  101OSM   H13G10171   1.944   7.624   6.114  0.3985  0.1998 -0.0641
  101OSM   C14F10172   1.753   7.543   6.073 -0.0621 -0.1964  0.3451
  101OSM   H14F10173   1.683   7.621   6.111 -1.0906 -1.0043  0.1497
  101OSM   H14G10174   1.701   7.447   6.094  4.1886 -2.2275  2.9704
  101OSM   C15F10175   1.778   7.554   5.920 -0.2221 -0.6121 -0.2537
  101OSM   H15F10176   1.838   7.474   5.872 -2.2070 -2.0173 -0.5173
  101OSM   H15G10177   1.833   7.647   5.893 -1.8611 -0.2875 -2.7906
  101OSM   C16F10178   1.654   7.563   5.834  0.3736  0.4479 -0.0165
  101OSM   H16F10179   1.573   7.619   5.886  0.7096  0.1204  0.8624
  101OSM   H16G10180   1.597   7.469   5.817  1.4931  0.1423 -2.4442
  101OSM   C17F10181   1.673   7.637   5.705  0.6267 -0.2991  0.0182
  101OSM   H17F10182   1.760   7.600   5.647  0.9158  0.1636  0.1498
  101OSM   H17G10183   1.691   7.742   5.737 -1.1093  0.0236  0.0380
  101OSM   C18F10184   1.547   7.662   5.616  0.2209 -0.2923 -0.0294
  101OSM   H18F10185   1.563   7.718   5.521 -2.1398  1.7743  0.6634
  101OSM   H18G10186   1.467   7.715   5.672  0.1050 -0.3923 -0.0999
  101OSM   H18H10187   1.497   7.564   5.599 -0.5425 -0.1351  1.2075
  102OSM      N10188   4.556   5.982   7.947 -0.3703 -0.3641 -0.6326
  102OSM    C1510189   4.487   5.981   8.078 -0.1264 -0.0589 -0.4812
  102OSM   H15A10190   4.474   5.876   8.100 -0.2925 -0.4404 -2.2517
  102OSM   H15B10191   4.386   6.018   8.072 -0.0356  0.3112  0.2237
  102OSM   H15C10192   4.535   6.033   8.159  0.3815 -0.5925 -0.4290
  102OSM    C1410193   4.570   6.123   7.907  0.1353  0.6513  0.6524
  102OSM   H14A10194   4.646   6.177   7.961 -0.3540  0.4684  1.5500
  102OSM   H14B10195   4.478   6.178   7.920  1.2004  2.8934 -0.6625
  102OSM   H14C10196   4.595   6.132   7.802  0.6796  1.5505  0.8558
  102OSM    C1310197   4.695   5.940   7.977 -0.0103 -0.0823  0.1417
  102OSM   H13A10198   4.748   5.935   7.883  0.0621  0.4891  0.1502
  102OSM   H13B10199   4.699   5.843   8.024  0.9813  0.2137  0.6966
  102OSM   H13C10200   4.741   6.006   8.049 -0.0930 -0.1430  0.2515
  102OSM    C1210201   4.479   5.900   7.850 -0.2347  0.1704  0.2754
  102OSM   H12A10202   4.529   5.901   7.754  1.6851  0.7443  1.2188
  102OSM   H12B10203   4.391   5.956   7.823  0.6709  0.5904 -2.0749
  102OSM    C1110204   4.442   5.757   7.896 -0.1462  0.4117  0.2167
  102OSM   H11A10205   4.538   5.712   7.928  0.4654 -0.5058 -2.6036
  102OSM   H11B10206   4.408   5.700   7.806  2.6255 -0.2607 -0.4985
  102OSM      P10207   4.204   5.746   8.012 -0.0105 -0.1297  0.2389
  102OSM    O1310208   4.150   5.615   8.051  0.7836  0.1479  0.5998
  102OSM    O1410209   4.171   5.871   8.093  0.1948  0.0337  0.6173
  102OSM    O1110210   4.167   5.772   7.856  0.6658  0.2228 -0.8392
  102OSM    O1210211   4.360   5.745   8.010 -0.2935  0.2319 -0.3996
  102OSM    C1S10212   4.136   5.908   7.814  0.1007  0.6894 -0.0541
  102OSM    H1S10213   4.234   5.960   7.817  0.7048 -0.4029 -0.1331
  102OSM    H1T10214   4.061   5.959   7.878 -0.2640  0.1522 -0.0419
  102OSM     NF10215   4.098   6.017   7.600 -0.5255 -0.8706  0.3025
  102OSM    HNF10216   4.020   6.078   7.612  0.6431  0.4991  1.1932
  102OSM    C2S10217   4.083   5.893   7.669  0.4531  0.4779 -0.2940
  102OSM    H2S10218   4.153   5.816   7.629  0.5166 -1.1124  2.5930
  102OSM    C3S10219   3.939   5.848   7.661 -0.0890  0.2016  0.0518
  102OSM    H3S10220   3.869   5.925   7.700 -0.7872  0.6778 -2.0354
  102OSM     O310221   3.932   5.724   7.726 -0.3899 -0.3935  0.1097
  102OSM    HO310222   4.022   5.718   7.760 -0.8829  1.2769  1.8622
  102OSM    C4S10223   3.896   5.820   7.514 -1.3178 -0.4767 -0.4095
  102OSM    H4S10224   3.931   5.720   7.486 -1.0358 -0.3540 -0.5058
  102OSM    C5S10225   3.839   5.908   7.430 -0.1795  0.1561  0.4157
  102OSM    H5S10226   3.826   6.010   7.468  1.4196  0.3531  0.5089
  102OSM    C6S10227   3.811   5.889   7.282 -0.4190  0.1938  0.2410
  102OSM    H6S10228   3.872   5.954   7.216 -1.8932  1.3928 -0.0025
  102OSM    H6T10229   3.708   5.924   7.260  0.3525  2.2184 -0.4568
  102OSM    C7S10230   3.847   5.752   7.222  0.0280  0.3016 -1.0974
  102OSM    H7S10231   3.795   5.674   7.282 -1.1873  1.6528 -0.3360
  102OSM    H7T10232   3.957   5.742   7.222  0.1490  1.4826 -0.6427
  102OSM    C8S10233   3.796   5.734   7.084 -0.9784 -0.3012  0.4545
  102OSM    H8S10234   3.854   5.656   7.029 -0.9491  0.6512 -0.9232
  102OSM    H8T10235   3.826   5.826   7.029  2.0410 -1.5954 -0.2884
  102OSM    C9S10236   3.655   5.708   7.049 -0.0531  0.2452 -0.3008
  102OSM    H9S10237   3.598   5.760   7.129 -1.0726 -2.7290  1.0538
  102OSM    H9T10238   3.626   5.604   7.076 -0.7688  0.6070  0.4052
  102OSM   C10S10239   3.611   5.759   6.918 -0.2645 -0.3604 -0.0191
  102OSM   H10S10240   3.683   5.724   6.842 -0.9207 -0.1508 -0.7507
  102OSM   H10T10241   3.604   5.870   6.924 -0.2897 -0.3649  0.0393
  102OSM   C11S10242   3.459   5.725   6.879 -0.6502  0.0295  0.3725
  102OSM   H11S10243   3.403   5.713   6.974  1.4022 -1.7784  1.4249
  102OSM   H11T10244   3.463   5.626   6.830  1.5360  0.5128 -0.5360
  102OSM   C12S10245   3.391   5.820   6.784  0.1456  0.0277 -0.8372
  102OSM   H12S10246   3.376   5.922   6.827 -0.9630 -0.1413 -0.7925
  102OSM   H12T10247   3.292   5.775   6.763  0.0677 -1.0288  1.4915
  102OSM   C13S10248   3.480   5.832   6.661  0.1115  0.0903  0.1691
  102OSM   H13S10249   3.515   5.731   6.629  0.4802  0.6032 -1.1234
  102OSM   H13T10250   3.570   5.895   6.679 -0.2772 -0.1515  3.6014
  102OSM   C14S10251   3.408   5.879   6.538 -0.1018 -0.2785 -0.2670
  102OSM   H14S10252   3.375   5.984   6.554 -1.5121 -0.6290 -0.8092
  102OSM   H14T10253   3.321   5.819   6.505 -0.8412  0.6548 -0.0516
  102OSM   C15S10254   3.485   5.877   6.406  0.2980 -1.0000 -0.1599
  102OSM   H15S10255   3.454   5.787   6.350 -1.3082 -0.7013  0.2139
  102OSM   H15T10256   3.594   5.861   6.422  0.7854 -0.5485 -2.5952
  102OSM   C16S10257   3.454   5.997   6.309 -0.3365  0.3690 -0.2699
  102OSM   H16S10258   3.346   6.004   6.282  0.6304  1.5424 -4.4718
  102OSM   H16T10259   3.506   5.991   6.211 -2.1913  3.9002 -1.6729
  102OSM   C17S10260   3.485   6.132   6.371 -0.6683 -0.8620  0.8256
  102OSM   H17S10261   3.587   6.138   6.415  0.3592  0.8796 -1.5600
  102OSM   H17T10262   3.420   6.142   6.460  0.2911 -2.6082  1.7856
  102OSM   C18S10263   3.469   6.244   6.265 -0.0549 -0.6143 -0.3550
  102OSM   H18S10264   3.526   6.228   6.171  0.8605 -1.5882  0.3432
  102OSM   H18T10265   3.505   6.339   6.308 -3.2772  0.9299 -0.7458
  102OSM   H18U10266   3.360   6.258   6.250 -0.4109  0.4284  2.6702
  102OSM    C1F10267   4.220   6.075   7.562 -0.6310  0.2330 -0.1978
  102OSM     OF10268   4.324   6.020   7.599  0.2091  0.4235  0.4151
  102OSM    C2F10269   4.228   6.205   7.483  0.2182 -0.0479  0.9784
  102OSM    H2F10270   4.311   6.269   7.521  0.5695  0.5181 -0.6126
  102OSM    H2G10271   4.133   6.261   7.495  0.2132  0.1944 -0.0887
  102OSM    C3F10272   4.265   6.182   7.333  0.3619 -0.1937  0.3582
  102OSM    H3F10273   4.370   6.146   7.333  0.4672  0.0847 -0.6070
  102OSM    H3G10274   4.264   6.278   7.277 -1.0741 -1.1992 -1.4776
  102OSM    C4F10275   4.178   6.074   7.259  0.3401  0.2857  0.1450
  102OSM    H4F10276   4.077   6.121   7.257 -0.0160 -0.2992  2.1112
  102OSM    H4G10277   4.165   5.983   7.321  0.7209 -0.5898 -1.0338
  102OSM    C5F10278   4.231   6.048   7.118  0.2627 -0.3882 -0.2332
  102OSM    H5F10279   4.324   5.989   7.131 -0.2029 -0.9160  0.7911
  102OSM    H5G10280   4.258   6.142   7.065  0.0639  0.0450  0.4120
  102OSM    C6F10281   4.131   5.961   7.037 -0.0936 -0.5505 -0.0309
  102OSM    H6F10282   4.031   6.010   7.029 -0.9689 -2.3317 -0.5463
  102OSM    H6G10283   4.113   5.863   7.087  0.3474 -0.0121  1.2330
  102OSM    C7F10284   4.176   5.947   6.886  0.6624  0.4867  0.2130
  102OSM    H7F10285   4.276   5.901   6.898 -0.4544 -1.5677  2.8872
  102OSM    H7G10286   4.182   6.049   6.844 -0.1739  0.0491 -1.0349
  102OSM    C8F10287   4.095   5.836   6.810 -1.0716 -0.4093  0.6467
  102OSM    H8F10288   4.105   5.744   6.871 -0.6725 -0.3332  0.6981
  102OSM    H8G10289   4.163   5.833   6.722  1.1327 -0.8883  2.2751
  102OSM    C9F10290   3.958   5.884   6.776  0.5480  0.5437 -0.6897
  102OSM    H9F10291   3.894   5.916   6.860  0.0757 -2.1532  0.0505
  102OSM   C10F10292   3.896   5.897   6.661  0.2701 -0.0821 -0.0129
  102OSM   H10F10293   3.792   5.934   6.659  1.1220  2.6526  1.0773
  102OSM   C11F10294   3.952   5.869   6.523 -0.5490  0.2037 -0.9889
  102OSM   H11F10295   3.889   5.785   6.487 -0.3972 -0.3408 -0.0320
  102OSM   H11G10296   4.053   5.824   6.527 -1.1674 -1.1993 -0.5183
  102OSM   C12F10297   3.947   5.990   6.424  0.0235 -0.1169 -0.3196
  102OSM   H12F10298   4.006   6.063   6.483 -1.1850 -1.4274  2.7236
  102OSM   H12G10299   3.844   6.032   6.432  0.1452 -0.1760  2.7385
  102OSM   C13F10300   3.987   5.956   6.282 -0.7600 -0.4585  0.4874
  102OSM   H13F10301   3.912   5.889   6.235  0.4197  0.3194 -2.7731
  102OSM   H13G10302   4.079   5.895   6.281 -1.2750 -1.2483  0.5250
  102OSM   C14F10303   4.001   6.088   6.206 -0.4079 -0.3376 -0.5347
  102OSM   H14F10304   4.063   6.065   6.117 -1.0809 -2.8842 -0.4357
  102OSM   H14G10305   4.062   6.154   6.271 -0.3780  1.9166 -2.6933
  102OSM   C15F10306   3.876   6.162   6.178  0.5696  0.0168 -0.1473
  102OSM   H15F10307   3.822   6.186   6.272  1.0363  1.4019 -0.2115
  102OSM   H15G10308   3.807   6.096   6.122 -1.5011  0.9383  1.1653
  102OSM   C16F10309   3.911   6.287   6.098  0.4049  0.5304 -0.0450
  102OSM   H16F10310   3.969   6.270   6.005  2.6878 -0.7492  1.4887
  102OSM   H16G10311   3.983   6.346   6.159 -0.5423  1.6569  0.0136
  102OSM   C17F10312   3.782   6.351   6.044  0.1988  0.4143  0.9658
  102OSM   H17F10313   3.700   6.355   6.119 -2.3737  0.3426 -1.6755
  102OSM   H17G10314   3.737   6.290   5.963 -3.5066  2.0795  1.5971
  102OSM   C18F10315   3.810   6.483   5.975  0.2277 -0.3590 -0.0134
  102OSM   H18F10316   3.716   6.531   5.942  1.1484  1.5096 -0.0640
  102OSM   H18G10317   3.880   6.457   5.892  1.5658 -0.9920  1.2724
  102OSM   H18H10318   3.861   6.556   6.041 -0.3587  0.2964 -0.2834
  103OSM      N10319   1.418   0.877   7.706 -0.5795 -0.0657  0.0161
  103OSM    C1510320   1.335   0.861   7.834 -0.7529 -0.4405  0.3328
  103OSM   H15A10321   1.276   0.946   7.866 -1.0505 -0.6042  0.2254
  103OSM   H15B10322   1.399   0.840   7.918  1.4709 -0.7947 -1.3624
  103OSM   H15C10323   1.269   0.778   7.813  0.0803 -0.7388 -1.2898
  103OSM    C1410324   1.334   0.931   7.590  0.4503  0.8733 -0.6288
  103OSM   H14A10325   1.304   1.034   7.598  0.7492  1.0701 -1.7844
  103OSM   H14B10326   1.243   0.873   7.583  2.1061 -1.9011 -1.2240
  103OSM   H14C10327   1.380   0.922   7.492  0.5174  1.1136 -0.6200
  103OSM    C1310328   1.530   0.974   7.728  0.5452 -0.1265 -0.0095
  103OSM   H13A10329   1.505   1.061   7.788  0.2861 -0.1792 -0.0383
  103OSM   H13B10330   1.586   1.005   7.642  1.9746 -1.4553  0.3947
  103OSM   H13C10331   1.606   0.933   7.793  1.2553  1.7946  0.4516
  103OSM    C1210332   1.476   0.750   7.656 -0.2692  0.6221 -0.1941
  103OSM   H12A10333   1.553   0.775   7.585  0.8259 -0.6183  0.5315
  103OSM   H12B10334   1.397   0.698   7.604 -0.7084  0.0519  1.0086
  103OSM    C1110335   1.543   0.654   7.753  0.4882  1.0930 -0.2332
  103OSM   H11A10336   1.625   0.688   7.820 -0.0669 -0.8652  1.5510
  103OSM   H11B10337   1.599   0.575   7.699 -3.5170 -2.6317  0.4796
  103OSM      P10338   1.338   0.499   7.778 -0.3714  0.4983 -0.2497
  103OSM    O1310339   1.322   0.382   7.869  0.2494 -0.3877 -0.5562
  103OSM    O1410340   1.217   0.577   7.743  0.4560  0.4961 -0.1848
  103OSM    O1110341   1.400   0.463   7.636  0.5329 -0.2974 -0.8706
  103OSM    O1210342   1.447   0.599   7.844  0.0446 -0.3343  0.4701
  103OSM    C1S10343   1.348   0.355   7.562  0.5297  0.4262  0.1557
  103OSM    H1S10344   1.238   0.372   7.555  0.8279  1.9170 -1.8559
  103OSM    H1T10345   1.373   0.260   7.612 -1.0304 -0.4140 -0.5848
  103OSM     NF10346   1.339   0.298   7.330  0.4012  0.2433 -0.3716
  103OSM    HNF10347   1.368   0.211   7.292 -0.7392 -1.1667  1.7663
  103OSM    C2S10348   1.421   0.369   7.427 -0.1790  0.3953 -0.7138
  103OSM    H2S10349   1.432   0.477   7.402  2.1149  0.4667  0.3583
  103OSM    C3S10350   1.573   0.321   7.437  0.2129 -0.7449 -0.4907
  103OSM    H3S10351   1.573   0.210   7.440  0.7422 -0.7427 -0.3547
  103OSM     O310352   1.650   0.364   7.551  0.1214 -0.6002 -0.0501
  103OSM    HO310353   1.589   0.410   7.609  1.8974 -1.5125  2.7542
  103OSM    C4S10354   1.650   0.354   7.309 -0.2064  0.4560  0.4281
  103OSM    H4S10355   1.602   0.427   7.241  2.1537  0.4863 -1.3068
  103OSM    C5S10356   1.744   0.268   7.251  0.0214  0.2031  0.9770
  103OSM    H5S10357   1.755   0.166   7.292  1.6794 -1.7035 -3.5943
  103OSM    C6S10358   1.800   0.295   7.118 -0.2349  0.3205  0.4522
  103OSM    H6S10359   1.902   0.250   7.122  0.3475  1.6106  0.3836
  103OSM    H6T10360   1.816   0.404   7.104  0.9594  0.2268  0.9727
  103OSM    C7S10361   1.725   0.245   7.000 -0.2986  0.5375  0.1623
  103OSM    H7S10362   1.624   0.290   6.998 -0.6177 -0.1739 -2.5820
  103OSM    H7T10363   1.713   0.134   7.005 -2.0565  0.7035  0.0534
  103OSM    C8S10364   1.783   0.260   6.863  0.4880  0.8370  0.2106
  103OSM    H8S10365   1.866   0.187   6.853  0.3897  0.8330 -0.5950
  103OSM    H8T10366   1.821   0.361   6.836  2.1037 -0.0020 -0.8567
  103OSM    C9S10367   1.686   0.226   6.748  0.3143 -0.2602 -0.0214
  103OSM    H9S10368   1.589   0.279   6.760  1.1870  2.2048 -2.6617
  103OSM    H9T10369   1.665   0.118   6.762 -0.2282  0.2325  4.2763
  103OSM   C10S10370   1.747   0.249   6.610 -0.1471  0.3035 -0.8330
  103OSM   H10S10371   1.840   0.189   6.603  0.0817  0.1224  2.2374
  103OSM   H10T10372   1.780   0.354   6.596 -0.5356  0.1851 -3.0139
  103OSM   C11S10373   1.641   0.221   6.504  0.3446  0.5078  0.3933
  103OSM   H11S10374   1.557   0.292   6.517  0.2516  0.9836 -2.2121
  103OSM   H11T10375   1.603   0.116   6.503  0.5928  0.4152 -0.3065
  103OSM   C12S10376   1.676   0.244   6.356  0.4687  0.5515  0.5750
  103OSM   H12S10377   1.751   0.165   6.334 -0.7264 -0.3946 -0.2294
  103OSM   H12T10378   1.720   0.345   6.339 -1.1275  1.3224  0.7673
  103OSM   C13S10379   1.550   0.220   6.259  0.2467  1.0162  0.1043
  103OSM   H13S10380   1.459   0.251   6.315 -0.0895  1.3962 -0.6452
  103OSM   H13T10381   1.530   0.111   6.251 -2.2698  1.5468 -2.3928
  103OSM   C14S10382   1.559   0.276   6.115 -0.4039  0.2915 -0.0105
  103OSM   H14S10383   1.660   0.256   6.072  0.9008  3.0481  1.4899
  103OSM   H14T10384   1.540   0.383   6.136 -1.5102  0.3676 -1.2997
  103OSM   C15S10385   1.451   0.229   6.010 -0.0881 -0.0716 -0.1168
  103OSM   H15S10386   1.358   0.252   6.067 -0.7092  2.7888 -2.0760
  103OSM   H15T10387   1.444   0.122   5.983 -0.5372 -0.0969  0.0824
  103OSM   C16S10388   1.451   0.332   5.891  0.0410 -0.0123  0.4250
  103OSM   H16S10389   1.546   0.323   5.835  0.1683 -0.7371  0.7466
  103OSM   H16T10390   1.463   0.434   5.935 -1.7321 -0.6352  2.5728
  103OSM   C17S10391   1.334   0.312   5.793 -0.4515  0.8716 -0.3790
  103OSM   H17S10392   1.348   0.397   5.723  0.4038  1.8584  0.9505
  103OSM   H17T10393   1.236   0.302   5.843  0.7858 -1.5965  1.8367
  103OSM   C18S10394   1.345   0.187   5.711 -0.0513 -0.3593  0.2182
  103OSM   H18S10395   1.354   0.093   5.768  1.2997 -1.5637 -1.8494
  103OSM   H18T10396   1.437   0.186   5.649 -1.0431 -0.3717 -1.2948
  103OSM   H18U10397   1.258   0.182   5.642 -1.0019  0.6128  1.3069
  103OSM    C1F10398   1.228   0.355   7.280  0.0476  0.4451 -0.2935
  103OSM     OF10399   1.185   0.461   7.316  0.7904 -0.2278  0.1475
  103OSM    C2F10400   1.148   0.273   7.181  1.2465  0.8602 -0.1481
  103OSM    H2F10401   1.045   0.268   7.222  1.8672  0.8136  1.4712
  103OSM    H2G10402   1.188   0.170   7.166  0.3973  0.8053 -2.3697
  103OSM    C3F10403   1.148   0.334   7.035 -0.6624  0.5061 -0.7415
  103OSM    H3F10404   1.251   0.329   6.995  0.4954 -1.2680  2.1863
  103OSM    H3G10405   1.119   0.441   7.028  0.0722  0.8227  0.7621
  103OSM    C4F10406   1.072   0.260   6.920  0.0823 -0.1834  0.0033
  103OSM    H4F10407   0.966   0.254   6.953  0.1577  1.4754  0.6148
  103OSM    H4G10408   1.115   0.159   6.900 -0.7250 -0.9486  1.8332
  103OSM    C5F10409   1.089   0.326   6.779 -0.0082 -0.4584 -0.1829
  103OSM    H5F10410   1.195   0.345   6.749  0.9731 -0.9441  2.6904
  103OSM    H5G10411   1.034   0.421   6.789 -1.7567 -1.6560  3.1115
  103OSM    C6F10412   1.019   0.240   6.673 -0.1693  0.6187 -0.4993
  103OSM    H6F10413   0.910   0.241   6.694 -0.6204 -0.5031 -2.4773
  103OSM    H6G10414   1.062   0.138   6.674  0.5562  0.9046 -1.4005
  103OSM    C7F10415   1.035   0.301   6.536  0.2100  0.1600  0.1837
  103OSM    H7F10416   1.141   0.289   6.505 -0.3357 -0.6451 -1.4796
  103OSM    H7G10417   1.033   0.412   6.531  0.9541  0.1593 -0.3125
  103OSM    C8F10418   0.953   0.238   6.423  0.3115  0.3269  0.3265
  103OSM    H8F10419   0.846   0.255   6.447 -0.7269 -2.6439 -1.6239
  103OSM    H8G10420   0.968   0.130   6.404 -2.2509  0.1622 -1.2575
  103OSM    C9F10421   0.977   0.303   6.287  0.1195  0.5242 -0.4558
  103OSM    H9F10422   1.018   0.404   6.301  3.0871 -0.6570  0.1416
  103OSM   C10F10423   0.963   0.248   6.166 -0.3691 -0.4015  0.6661
  103OSM   H10F10424   0.998   0.306   6.079 -0.5154  0.9175  1.4535
  103OSM   C11F10425   0.911   0.113   6.123 -0.4294  0.2145  0.6689
  103OSM   H11F10426   0.901   0.036   6.203  0.5551  0.7684  1.3515
  103OSM   H11G10427   0.985   0.071   6.051 -1.9058  1.5214 -1.7047
  103OSM   C12F10428   0.783   0.130   6.038  0.5275  0.5766  0.2429
  103OSM   H12F10429   0.704   0.177   6.101  0.6990 -0.6290  1.4134
  103OSM   H12G10430   0.744   0.032   6.004  2.3555  0.1697 -0.8334
  103OSM   C13F10431   0.806   0.211   5.905  0.8137  0.0958  0.0777
  103OSM   H13F10432   0.846   0.313   5.923  0.0627  0.0584  2.2891
  103OSM   H13G10433   0.706   0.206   5.859  0.7743 -0.8330  0.2355
  103OSM   C14F10434   0.907   0.137   5.807  0.0353 -0.3616  0.6552
  103OSM   H14F10435   0.890   0.027   5.813  1.7811 -0.8438 -1.7127
  103OSM   H14G10436   1.005   0.161   5.854  1.1986  1.2586 -2.3484
  103OSM   C15F10437   0.898   0.181   5.660 -1.1938  0.2388 -0.4119
  103OSM   H15F10438   0.976   0.138   5.594  0.9895 -2.1696  3.3360
  103OSM   H15G10439   0.905   0.291   5.665  4.1358  0.0747  1.8808
  103OSM   C16F10440   0.764   0.142   5.591 -0.8943  0.2172 -0.6905
  103OSM   H16F10441   0.769   0.166   5.483  0.6556  0.1355 -0.6513
  103OSM   H16G10442   0.684   0.207   5.634  0.1083  1.1889 -0.2299
  103OSM   C17F10443   0.727  -0.007   5.612  0.6107  0.0630 -0.2368
  103OSM   H17F10444   0.678  -0.012   5.712  0.5756  0.5041 -0.2288
  103OSM   H17G10445   0.818  -0.071   5.614  1.8664  1.7930 -0.0056
  103OSM   C18F10446   0.638  -0.064   5.509  0.0115 -0.3196  0.6276
  103OSM   H18F10447   0.545  -0.008   5.487 -0.2151 -1.1576 -0.6527
  103OSM   H18G10448   0.618  -0.168   5.541  0.7885 -0.1468  1.7440
  103OSM   H18H10449   0.682  -0.067   5.407 -0.0598  1.9442  0.4782
  104OSM      N10450   2.755   1.659   7.757  0.0784 -0.0673  0.7704
  104OSM    C1510451   2.802   1.791   7.816 -0.1695 -0.0246 -0.1694
  104OSM   H15A10452   2.906   1.802   7.792 -0.1003  0.0095  0.1484
  104OSM   H15B10453   2.785   1.783   7.923  1.3422 -2.9319 -0.0521
  104OSM   H15C10454   2.750   1.872   7.767 -0.1735 -0.4889 -0.9436
  104OSM    C1410455   2.820   1.644   7.628  0.0803 -0.0459  0.1513
  104OSM   H14A10456   2.833   1.543   7.593  2.1564 -0.4593  1.9216
  104OSM   H14B10457   2.924   1.657   7.655 -0.1433  0.3362  0.8538
  104OSM   H14C10458   2.799   1.727   7.561 -0.9895 -0.0993  0.4022
  104OSM    C1310459   2.812   1.560   7.855 -0.1644 -0.2420  0.2337
  104OSM   H13A10460   2.762   1.569   7.950  1.1453 -0.2336  0.9573
  104OSM   H13B10461   2.918   1.565   7.876 -0.3788 -0.1158  1.3833
  104OSM   H13C10462   2.792   1.462   7.816 -0.8611 -0.1861  0.4448
  104OSM    C1210463   2.601   1.655   7.746  0.4844  0.3279  0.4297
  104OSM   H12A10464   2.571   1.748   7.700  0.2613  1.4853  2.7629
  104OSM   H12B10465   2.567   1.667   7.848  0.6152  0.6896  0.4329
  104OSM    C1110466   2.527   1.530   7.690 -0.1933  0.3813  0.2240
  104OSM   H11A10467   2.548   1.448   7.761  1.8740  0.6922  0.0492
  104OSM   H11B10468   2.574   1.523   7.589 -1.0522  1.9484 -0.3294
  104OSM      P10469   2.322   1.658   7.594 -0.1024  0.0249  0.0276
  104OSM    O1310470   2.181   1.624   7.586  0.3059  0.1200 -0.4231
  104OSM    O1410471   2.364   1.794   7.647  0.0849  0.7559 -0.3851
  104OSM    O1110472   2.396   1.634   7.457  0.4110  0.0171  0.3051
  104OSM    O1210473   2.388   1.559   7.691 -0.3065 -0.3421 -0.0481
  104OSM    C1S10474   2.368   1.524   7.365  0.1503 -0.5046  0.6620
  104OSM    H1S10475   2.258   1.518   7.350  0.1510  0.8006 -0.0169
  104OSM    H1T10476   2.412   1.430   7.405  0.1001  0.1522  2.3354
  104OSM     NF10477   2.384   1.439   7.134  0.4879 -0.9018 -0.6286
  104OSM    HNF10478   2.450   1.371   7.104 -1.9030 -2.8339 -1.8884
  104OSM    C2S10479   2.429   1.540   7.224 -0.2101  0.4235 -0.3818
  104OSM    H2S10480   2.404   1.641   7.185  2.1596  1.5385  0.7686
  104OSM    C3S10481   2.587   1.544   7.244  0.2825  0.3424  0.4956
  104OSM    H3S10482   2.614   1.446   7.288  2.1043  0.6401  0.1611
  104OSM     O310483   2.630   1.638   7.334 -0.6760 -0.1020 -0.3030
  104OSM    HO310484   2.553   1.638   7.391 -0.0390 -2.8762  0.6832
  104OSM    C4S10485   2.659   1.561   7.108  0.3675  0.3769  0.3487
  104OSM    H4S10486   2.695   1.467   7.064 -1.6113 -0.4488  0.3883
  104OSM    C5S10487   2.695   1.680   7.045 -0.1387 -0.1420  0.1938
  104OSM    H5S10488   2.682   1.768   7.109 -1.0494 -1.1168  1.3904
  104OSM    C6S10489   2.770   1.686   6.915 -0.2353  0.1999  0.0279
  104OSM    H6S10490   2.824   1.596   6.880  0.3459  0.9618 -1.0983
  104OSM    H6T10491   2.850   1.762   6.929  1.0140 -0.6582 -2.0173
  104OSM    C7S10492   2.686   1.751   6.797  0.9301  0.3164  0.3590
  104OSM    H7S10493   2.662   1.858   6.819 -2.0154 -0.5136  1.7155
  104OSM    H7T10494   2.586   1.704   6.802  0.6237  0.8918 -0.1651
  104OSM    C8S10495   2.757   1.755   6.660 -0.7543 -0.1047  0.6053
  104OSM    H8S10496   2.781   1.652   6.624  0.3015  0.9823 -2.0492
  104OSM    H8T10497   2.852   1.812   6.664  0.2886 -1.6175 -1.0370
  104OSM    C9S10498   2.668   1.814   6.545 -0.8470  0.6119  0.2251
  104OSM    H9S10499   2.622   1.909   6.581 -1.8430  0.2617 -0.1040
  104OSM    H9T10500   2.590   1.738   6.525 -0.5819  0.1577  0.8868
  104OSM   C10S10501   2.756   1.838   6.425  0.3129 -0.8958 -0.5564
  104OSM   H10S10502   2.809   1.746   6.395 -0.2799 -0.6887 -2.3622
  104OSM   H10T10503   2.844   1.898   6.457 -1.0997  1.6365 -1.0509
  104OSM   C11S10504   2.691   1.916   6.315 -0.0722  0.2897 -0.8724
  104OSM   H11S10505   2.763   1.937   6.233 -1.3617  0.2240 -2.0699
  104OSM   H11T10506   2.647   2.016   6.338 -0.1351  0.6181 -2.3052
  104OSM   C12S10507   2.585   1.838   6.242 -0.0277 -0.6151  0.0251
  104OSM   H12S10508   2.496   1.811   6.302  0.9453  1.0266  2.3275
  104OSM   H12T10509   2.639   1.749   6.203  0.3762 -0.1583 -0.4726
  104OSM   C13S10510   2.528   1.923   6.119  0.4414  0.3466 -0.4026
  104OSM   H13S10511   2.603   1.952   6.042  1.0829 -1.1840 -0.4009
  104OSM   H13T10512   2.481   2.014   6.161 -2.7254 -1.0236 -0.6932
  104OSM   C14S10513   2.407   1.850   6.056  0.5287  0.4177  0.5438
  104OSM   H14S10514   2.333   1.925   6.018 -0.3560 -0.7879 -0.2023
  104OSM   H14T10515   2.355   1.784   6.129 -1.7900  1.6825  0.1281
  104OSM   C15S10516   2.461   1.760   5.952  0.3542  0.1057  0.7080
  104OSM   H15S10517   2.388   1.678   5.935  1.6929 -1.0656  0.3751
  104OSM   H15T10518   2.553   1.708   5.988  0.3342 -0.6872 -0.3271
  104OSM   C16S10519   2.484   1.817   5.814 -0.1497 -0.3964  0.7951
  104OSM   H16S10520   2.546   1.906   5.837 -0.8471  1.1930 -2.7855
  104OSM   H16T10521   2.389   1.851   5.768  0.3623 -0.6289 -0.4696
  104OSM   C17S10522   2.563   1.732   5.712  0.1598  0.2501  0.5755
  104OSM   H17S10523   2.500   1.643   5.694 -0.8392  0.6386  1.9800
  104OSM   H17T10524   2.654   1.698   5.766 -0.0499 -1.6694 -0.2026
  104OSM   C18S10525   2.603   1.806   5.582  0.0861 -0.0188 -0.0751
  104OSM   H18S10526   2.683   1.749   5.531  0.4624  0.6767 -0.2848
  104OSM   H18T10527   2.636   1.909   5.609 -3.2600  0.6815  2.0186
  104OSM   H18U10528   2.513   1.820   5.518  0.5838  0.6529 -0.6584
  104OSM    C1F10529   2.260   1.429   7.084  0.2213 -0.5309 -0.1562
  104OSM     OF10530   2.189   1.524   7.108 -0.2623 -0.0589  0.1723
  104OSM    C2F10531   2.205   1.305   7.008  0.1619 -1.4005  0.0838
  104OSM    H2F10532   2.104   1.272   7.041 -1.6816  1.9542 -1.7243
  104OSM    H2G10533   2.278   1.224   7.032  3.0043  0.7739 -0.6686
  104OSM    C3F10534   2.202   1.339   6.858  0.4284  0.5356  0.0905
  104OSM    H3F10535   2.142   1.433   6.858 -2.1846 -1.0269  0.1935
  104OSM    H3G10536   2.139   1.262   6.809  1.2164  1.2614 -2.2012
  104OSM    C4F10537   2.328   1.362   6.779  0.1488 -0.2895 -0.4717
  104OSM    H4F10538   2.404   1.283   6.795  2.6753  2.2778  1.1413
  104OSM    H4G10539   2.374   1.457   6.815  0.2427  0.5123 -2.5605
  104OSM    C5F10540   2.309   1.376   6.629  0.0095 -0.0525 -0.9781
  104OSM    H5F10541   2.212   1.425   6.608 -0.5217 -0.9815 -0.7565
  104OSM    H5G10542   2.293   1.274   6.586 -1.1541 -0.1987 -0.2096
  104OSM    C6F10543   2.422   1.448   6.559  0.2143  0.7563 -0.0623
  104OSM    H6F10544   2.511   1.411   6.614  0.8375 -0.0547 -1.5491
  104OSM    H6G10545   2.428   1.558   6.571  0.3099  0.6904  0.5071
  104OSM    C7F10546   2.427   1.415   6.410  0.2741  0.2191  0.9849
  104OSM    H7F10547   2.422   1.306   6.389 -0.3784  0.2434  0.9883
  104OSM    H7G10548   2.528   1.436   6.370 -0.6500  2.1273 -0.5044
  104OSM    C8F10549   2.352   1.506   6.308 -0.0799 -0.7530  0.4989
  104OSM    H8F10550   2.396   1.492   6.207 -0.8026 -0.5746  0.1553
  104OSM    H8G10551   2.382   1.610   6.335  1.7734 -1.3332  0.8176
  104OSM    C9F10552   2.212   1.468   6.321  0.5396 -0.0833 -0.2558
  104OSM    H9F10553   2.148   1.483   6.409  0.3968  1.1322 -0.5578
  104OSM   C10F10554   2.147   1.429   6.211 -0.0043 -0.3835 -0.4508
  104OSM   H10F10555   2.041   1.404   6.225  0.1750 -1.9614 -1.5535
  104OSM   C11F10556   2.201   1.419   6.065  0.7528 -0.3436  0.4706
  104OSM   H11F10557   2.256   1.327   6.035  0.4365 -0.1521 -0.7307
  104OSM   H11G10558   2.269   1.504   6.044 -0.1654  0.2397 -0.2435
  104OSM   C12F10559   2.087   1.405   5.965  0.4145  0.1971  0.3359
  104OSM   H12F10560   2.022   1.495   5.972  1.0640  1.0481 -2.8433
  104OSM   H12G10561   2.025   1.313   5.970 -1.3373  1.0110 -3.1042
  104OSM   C13F10562   2.144   1.399   5.821  0.1716  0.0101  0.1344
  104OSM   H13F10563   2.209   1.309   5.808 -2.2671 -1.7785 -0.4001
  104OSM   H13G10564   2.204   1.492   5.807 -1.8920  1.1492 -1.9316
  104OSM   C14F10565   2.047   1.374   5.712  0.2890 -0.6907 -0.0488
  104OSM   H14F10566   1.975   1.456   5.691  2.2676  0.8349 -1.3384
  104OSM   H14G10567   1.982   1.287   5.734 -1.0727  0.3317  0.1366
  104OSM   C15F10568   2.117   1.356   5.577 -0.1009  0.2977 -0.1765
  104OSM   H15F10569   2.185   1.268   5.582 -0.0503  0.3105 -0.6146
  104OSM   H15G10570   2.179   1.445   5.555 -1.3031  1.6230  1.4942
  104OSM   C16F10571   2.030   1.324   5.461 -0.1326 -0.0367 -0.0540
  104OSM   H16F10572   1.958   1.406   5.447  0.8305  1.1998  1.7693
  104OSM   H16G10573   1.978   1.229   5.485  2.3058 -2.6295 -3.9378
  104OSM   C17F10574   2.096   1.286   5.322  0.4649  0.3264 -0.3226
  104OSM   H17F10575   2.142   1.184   5.324 -1.8066 -0.7635 -0.8430
  104OSM   H17G10576   2.190   1.344   5.317  0.7728  0.1357  2.0085
  104OSM   C18F10577   2.010   1.299   5.190  0.1411  0.4479 -0.1218
  104OSM   H18F10578   1.907   1.257   5.198 -1.0727  2.0801 -4.3168
  104OSM   H18G10579   2.061   1.249   5.105  0.9878  2.6962 -1.0223
  104OSM   H18H10580   1.994   1.408   5.172  2.5757  1.1110  1.3517
  105OSM      N10581   4.815   1.251   7.805 -0.1212 -0.5107  0.4492
  105OSM    C1510582   4.849   1.392   7.857  0.0353 -0.1548 -0.4828
  105OSM   H15A10583   4.934   1.439   7.811 -0.6220  1.8103  0.2058
  105OSM   H15B10584   4.867   1.399   7.964  4.1642 -1.7803 -0.8839
  105OSM   H15C10585   4.768   1.461   7.840  0.1373 -0.0757 -0.6441
  105OSM    C1410586   4.917   1.142   7.848 -0.2187  0.1051 -0.0544
  105OSM   H14A10587   4.916   1.127   7.955 -0.5524 -2.1419 -0.3208
  105OSM   H14B10588   5.018   1.160   7.814  0.0284  1.3610  1.2702
  105OSM   H14C10589   4.893   1.050   7.796 -0.0800  1.4197 -2.6160
  105OSM    C1310590   4.687   1.211   7.874 -0.7031  0.3304 -0.0819
  105OSM   H13A10591   4.644   1.121   7.833  0.1223 -0.2457  0.2971
  105OSM   H13B10592   4.623   1.295   7.850  1.1056  2.2774  1.4428
  105OSM   H13C10593   4.703   1.206   7.981  0.9407  0.3518 -0.2928
  105OSM    C1210594   4.794   1.245   7.654 -1.0494  0.4223 -0.5493
  105OSM   H12A10595   4.708   1.305   7.627 -1.1044  0.5124 -0.1811
  105OSM   H12B10596   4.767   1.142   7.632  0.0244 -0.1486  0.6514
  105OSM    C1110597   4.920   1.285   7.563 -0.0781 -0.0124  0.4181
  105OSM   H11A10598   4.955   1.389   7.579  1.8478 -0.4015 -0.8176
  105OSM   H11B10599   4.903   1.279   7.453  1.6119 -1.4654  0.1837
  105OSM      P10600   5.045   1.059   7.513 -0.1252  0.1851 -0.0279
  105OSM    O1310601   5.182   1.052   7.457 -0.5092  0.0609  0.7333
  105OSM    O1410602   5.011   0.953   7.611  0.2643  0.7003  0.5547
  105OSM    O1110603   4.942   1.053   7.396  0.5896 -0.5859  0.7446
  105OSM    O1210604   5.029   1.200   7.588 -0.4727 -0.0226 -0.4432
  105OSM    C1S10605   4.973   1.095   7.255 -0.4800 -0.0242 -0.9073
  105OSM    H1S10606   5.059   1.031   7.225 -0.1369  0.2252 -0.4741
  105OSM    H1T10607   4.999   1.202   7.242  1.4034 -0.6321 -2.5460
  105OSM     NF10608   4.907   1.102   7.027 -0.1070  0.3646  0.1755
  105OSM    HNF10609   4.883   1.181   6.971  0.7155  0.5706  0.1013
  105OSM    C2S10610   4.860   1.078   7.156  0.3563 -0.1291 -0.7526
  105OSM    H2S10611   4.830   0.972   7.169 -1.5033  0.3889 -0.5720
  105OSM    C3S10612   4.739   1.168   7.189  0.6559  0.2770  0.3811
  105OSM    H3S10613   4.772   1.273   7.180  1.9492  0.1746  2.9696
  105OSM     O310614   4.695   1.154   7.321  0.5530  0.4803 -0.1228
  105OSM    HO310615   4.767   1.119   7.374  1.1634  1.7029 -0.1192
  105OSM    C4S10616   4.622   1.123   7.104 -0.2407 -0.5888  0.0032
  105OSM    H4S10617   4.589   1.019   7.111 -0.8671 -0.3826  0.2075
  105OSM    C5S10618   4.551   1.205   7.028  0.2867 -0.6640  0.0778
  105OSM    H5S10619   4.576   1.312   7.022  2.2576 -0.8355  3.1046
  105OSM    C6S10620   4.433   1.155   6.951 -0.6726  0.8185  0.4293
  105OSM    H6S10621   4.348   1.225   6.943 -0.3953  1.0670 -0.5136
  105OSM    H6T10622   4.403   1.054   6.985 -0.8684 -0.5583 -3.3161
  105OSM    C7S10623   4.477   1.127   6.802 -0.0185 -0.2986 -0.6800
  105OSM    H7S10624   4.391   1.069   6.763 -1.1145 -1.0202  2.5003
  105OSM    H7T10625   4.574   1.073   6.789  1.3285  2.1632 -1.4380
  105OSM    C8S10626   4.490   1.264   6.729  0.3545  0.1308  0.9339
  105OSM    H8S10627   4.552   1.332   6.791  0.6122 -0.0002  0.8229
  105OSM    H8T10628   4.390   1.302   6.700 -0.0035 -0.1277  1.8063
  105OSM    C9S10629   4.576   1.256   6.594 -0.0613 -0.1386  0.5826
  105OSM    H9S10630   4.679   1.232   6.627 -0.0772 -2.3600 -0.8080
  105OSM    H9T10631   4.573   1.352   6.538  3.5095  1.3354  2.5430
  105OSM   C10S10632   4.544   1.143   6.496  0.0316  0.2824 -0.1074
  105OSM   H10S10633   4.444   1.161   6.452  0.4734  2.0664 -0.4544
  105OSM   H10T10634   4.545   1.049   6.555  1.1073  2.5307  3.8280
  105OSM   C11S10635   4.651   1.130   6.382 -0.5077 -0.0979 -0.5050
  105OSM   H11S10636   4.639   1.033   6.329  0.6755 -1.6448  1.8698
  105OSM   H11T10637   4.756   1.133   6.418 -0.7798  0.2377  0.2895
  105OSM   C12S10638   4.637   1.234   6.276  0.6671  0.7671 -0.1109
  105OSM   H12S10639   4.659   1.334   6.320  1.8734  0.2140  0.6000
  105OSM   H12T10640   4.528   1.240   6.255  0.2237  0.4320  1.8885
  105OSM   C13S10641   4.716   1.194   6.148 -0.3364 -0.8734 -0.3741
  105OSM   H13S10642   4.705   1.086   6.127  1.6605 -1.3862  0.9850
  105OSM   H13T10643   4.822   1.209   6.175 -0.8889  1.7714  0.6335
  105OSM   C14S10644   4.669   1.282   6.033 -0.5842  0.9033  0.0876
  105OSM   H14S10645   4.716   1.381   6.052  0.7508  0.3199 -0.0546
  105OSM   H14T10646   4.559   1.282   6.018 -0.2347  0.2022 -3.3935
  105OSM   C15S10647   4.719   1.235   5.894  0.5421 -0.0154  0.7895
  105OSM   H15S10648   4.683   1.130   5.886 -0.4149  0.2707  1.1381
  105OSM   H15T10649   4.830   1.237   5.897  0.6193  0.3830 -1.3267
  105OSM   C16S10650   4.651   1.306   5.773  0.1965  0.2297 -1.1212
  105OSM   H16S10651   4.671   1.416   5.775 -1.1874  0.4990 -1.2755
  105OSM   H16T10652   4.543   1.285   5.782  0.4692 -0.6046  0.9047
  105OSM   C17S10653   4.704   1.256   5.642  0.7411  0.2292  0.7504
  105OSM   H17S10654   4.624   1.278   5.568 -1.3337 -0.8283  2.5712
  105OSM   H17T10655   4.713   1.146   5.655 -0.8594  0.1224  1.0408
  105OSM   C18S10656   4.832   1.324   5.590 -1.2117  0.3585  0.4169
  105OSM   H18S10657   4.918   1.303   5.657 -0.3149  2.4308 -0.0277
  105OSM   H18T10658   4.814   1.433   5.582 -1.0662  0.3136 -0.7139
  105OSM   H18U10659   4.849   1.281   5.488 -0.9787 -2.2344  1.4627
  105OSM    C1F10660   4.977   1.008   6.959 -0.4577 -0.1830  0.1964
  105OSM     OF10661   5.014   0.909   7.014  0.4595  0.3306  0.0186
  105OSM    C2F10662   4.992   1.027   6.811 -0.4077 -0.5256 -0.0870
  105OSM    H2F10663   5.017   1.135   6.797  0.0844 -0.7505 -1.0885
  105OSM    H2G10664   4.894   1.009   6.762 -2.1926  4.5559  1.0351
  105OSM    C3F10665   5.111   0.936   6.763  0.3531  0.1280 -0.7861
  105OSM    H3F10666   5.085   0.829   6.775 -0.2415  0.4188  0.6708
  105OSM    H3G10667   5.196   0.950   6.834 -0.5160 -3.0223  1.0468
  105OSM    C4F10668   5.172   0.973   6.633  0.0833 -0.0463  0.0311
  105OSM    H4F10669   5.266   0.916   6.620  0.3308  0.2401  0.5481
  105OSM    H4G10670   5.199   1.079   6.616 -0.7410 -0.0857 -1.8395
  105OSM    C5F10671   5.068   0.937   6.527  0.4778 -0.2389  0.0182
  105OSM    H5F10672   4.980   1.004   6.538  0.9606  0.7061 -1.4813
  105OSM    H5G10673   5.045   0.829   6.537 -0.4489 -0.2327 -1.6360
  105OSM    C6F10674   5.120   0.935   6.376 -0.7188 -0.3862  0.0658
  105OSM    H6F10675   5.134   1.043   6.351 -1.3777  0.5837  3.3507
  105OSM    H6G10676   5.034   0.903   6.312 -1.4791  0.2200  0.7640
  105OSM    C7F10677   5.233   0.851   6.334  0.2290 -0.2940  0.3318
  105OSM    H7F10678   5.215   0.744   6.356 -1.3181 -0.3941 -1.1625
  105OSM    H7G10679   5.322   0.902   6.376  0.6425 -1.2934  0.6860
  105OSM    C8F10680   5.250   0.866   6.173  1.4327  0.1348 -0.0129
  105OSM    H8F10681   5.351   0.826   6.148  1.5714  1.6895 -2.2444
  105OSM    H8G10682   5.253   0.973   6.142  1.6980  0.4427  1.0258
  105OSM    C9F10683   5.150   0.778   6.099 -0.0116  0.3562 -0.0821
  105OSM    H9F10684   5.164   0.669   6.101  1.1591  0.4796 -0.4900
  105OSM   C10F10685   5.049   0.815   6.020 -0.8742 -0.4073 -0.0924
  105OSM   H10F10686   5.003   0.737   5.957 -3.1792 -1.0010  2.1616
  105OSM   C11F10687   4.996   0.952   5.991 -0.0391  0.3046  0.0506
  105OSM   H11F10688   5.019   1.025   6.071 -0.9641  1.5573 -0.7936
  105OSM   H11G10689   4.885   0.948   5.991 -0.0315  0.0914 -0.0461
  105OSM   C12F10690   5.041   1.006   5.850 -0.8192 -0.3355  0.2073
  105OSM   H12F10691   5.144   0.965   5.839  0.0670  1.9867 -0.6812
  105OSM   H12G10692   5.031   1.116   5.850  3.2877  0.2108 -1.2005
  105OSM   C13F10693   4.955   0.948   5.739  0.4009  0.0139 -0.5959
  105OSM   H13F10694   4.852   0.981   5.764  0.1592 -0.9926 -0.1722
  105OSM   H13G10695   4.945   0.837   5.737  3.3416 -0.3991 -4.3180
  105OSM   C14F10696   4.996   0.993   5.595 -0.0765 -0.0083  0.5909
  105OSM   H14F10697   4.984   1.103   5.586 -0.3016 -0.0942 -0.2187
  105OSM   H14G10698   4.926   0.948   5.521  3.2126 -1.3666 -1.9337
  105OSM   C15F10699   5.138   0.965   5.559 -0.4593  0.3554 -0.0275
  105OSM   H15F10700   5.209   1.010   5.631 -0.6053 -2.1572  1.7986
  105OSM   H15G10701   5.167   1.018   5.465 -0.0213 -1.0112 -0.6929
  105OSM   C16F10702   5.187   0.819   5.536 -1.0884 -0.2598  0.1351
  105OSM   H16F10703   5.172   0.762   5.630  0.6750  0.7206  1.0511
  105OSM   H16G10704   5.297   0.829   5.534 -1.1507  1.4406  2.1473
  105OSM   C17F10705   5.126   0.751   5.421 -0.3641 -0.1293  0.4088
  105OSM   H17F10706   5.138   0.811   5.328  0.2682 -2.2582 -0.9465
  105OSM   H17G10707   5.016   0.753   5.437 -0.5087  0.9406 -0.6098
  105OSM   C18F10708   5.172   0.608   5.399 -0.0790 -0.2817  0.0034
  105OSM   H18F10709   5.099   0.542   5.450  0.5457 -1.2496 -0.3113
  105OSM   H18G10710   5.278   0.591   5.429  0.2008  1.0698 -0.1259
  105OSM   H18H10711   5.156   0.582   5.292  0.5771 -0.5586 -0.0327
  106OSM      N10712   2.912   6.249   7.908  0.7056 -0.4901 -0.2977
  106OSM    C1510713   2.931   6.132   7.999 -0.4159  0.3485 -0.0269
  106OSM   H15A10714   2.972   6.161   8.095 -1.6113  0.8398  0.3604
  106OSM   H15B10715   2.981   6.050   7.951 -3.5564 -2.1225  0.5862
  106OSM   H15C10716   2.837   6.086   8.025  0.9794 -2.2480  0.8224
  106OSM    C1410717   2.822   6.335   7.982  0.6583 -0.6770  0.7826
  106OSM   H14A10718   2.805   6.428   7.929 -1.9391 -1.0843  0.7359
  106OSM   H14B10719   2.868   6.353   8.078 -0.2976 -3.8786  1.9413
  106OSM   H14C10720   2.723   6.293   7.990 -0.4551  1.7043  0.6290
  106OSM    C1310721   3.035   6.331   7.875  0.8213  0.5337 -0.3447
  106OSM   H13A10722   3.072   6.368   7.970  0.0681 -1.4750  0.8039
  106OSM   H13B10723   3.005   6.407   7.805 -0.1526  0.0201 -0.5070
  106OSM   H13C10724   3.114   6.284   7.818  0.6733  1.1275 -1.0486
  106OSM    C1210725   2.853   6.201   7.772 -0.1661  0.1670 -0.2134
  106OSM   H12A10726   2.768   6.141   7.799  0.5011 -0.5672  0.3028
  106OSM   H12B10727   2.919   6.128   7.728 -2.3000 -1.1992 -1.3386
  106OSM    C1110728   2.824   6.303   7.655 -0.2079 -0.6581  0.0583
  106OSM   H11A10729   2.747   6.376   7.687  0.6850 -0.2035  1.2482
  106OSM   H11B10730   2.780   6.240   7.575  0.9294 -1.4440  0.0198
  106OSM      P10731   3.050   6.286   7.526 -0.0349 -0.1250 -0.0831
  106OSM    O1310732   3.155   6.382   7.481  0.2810  0.0429 -0.0296
  106OSM    O1410733   3.095   6.173   7.608 -0.2996  0.2388 -0.0736
  106OSM    O1110734   2.976   6.231   7.395  0.7749 -0.1358 -0.1663
  106OSM    O1210735   2.948   6.366   7.612 -0.3259  0.7645  0.5849
  106OSM    C1S10736   2.895   6.312   7.313 -0.5182 -0.3834 -0.5890
  106OSM    H1S10737   2.927   6.418   7.300 -0.4779 -0.5322 -1.8615
  106OSM    H1T10738   2.788   6.298   7.340 -0.5026  0.7123  0.1099
  106OSM     NF10739   2.845   6.368   7.079  0.2614  0.1858  0.1348
  106OSM    HNF10740   2.752   6.348   7.049  0.0552  2.3841 -0.8729
  106OSM    C2S10741   2.909   6.261   7.166 -0.8030  0.1305 -0.1319
  106OSM    H2S10742   3.019   6.256   7.150 -0.7626  2.6258 -1.1387
  106OSM    C3S10743   2.851   6.119   7.138  0.3570  0.3986  0.2808
  106OSM    H3S10744   2.741   6.133   7.145  0.4173  0.2930  1.8253
  106OSM     O310745   2.877   6.019   7.238 -0.2131  0.1498  0.3698
  106OSM    HO310746   2.936   6.065   7.298 -0.6045  1.3325 -0.1250
  106OSM    C4S10747   2.881   6.068   6.996 -0.2847 -0.0368  0.6473
  106OSM    H4S10748   2.804   6.086   6.919 -0.9944 -0.0456  1.3523
  106OSM    C5S10749   3.000   6.008   6.962  0.7316 -0.0379  0.3988
  106OSM    H5S10750   3.074   5.987   7.041  0.2086 -1.2811  0.5826
  106OSM    C6S10751   3.035   5.954   6.821  0.3854 -0.2119  0.1345
  106OSM    H6S10752   3.058   5.846   6.834 -1.4391 -0.7208 -0.6277
  106OSM    H6T10753   3.136   5.985   6.785  0.3787 -0.5647 -0.1931
  106OSM    C7S10754   2.936   5.988   6.701  0.4154  0.3155  0.4757
  106OSM    H7S10755   2.891   6.090   6.704 -1.2275 -0.3538 -0.3330
  106OSM    H7T10756   2.844   5.928   6.716 -0.3912  0.9962 -1.4151
  106OSM    C8S10757   2.998   5.951   6.559 -0.4862 -0.3813  0.0899
  106OSM    H8S10758   3.008   5.841   6.569 -1.1043 -0.3186  1.6785
  106OSM    H8T10759   3.090   6.012   6.555 -2.0023  1.9332 -1.9351
  106OSM    C9S10760   2.907   5.976   6.435 -0.0034 -0.2340 -0.0116
  106OSM    H9S10761   2.871   6.079   6.415  1.4085  0.4031  0.5857
  106OSM    H9T10762   2.813   5.921   6.453 -1.3795  1.5627 -1.3449
  106OSM   C10S10763   2.968   5.930   6.302  0.2189 -0.4184  0.2648
  106OSM   H10S10764   2.992   5.821   6.303 -0.0685 -0.4962  1.7180
  106OSM   H10T10765   3.064   5.984   6.291  1.8679 -2.6415  2.5007
  106OSM   C11S10766   2.876   5.947   6.179 -0.1059  0.0856  0.5739
  106OSM   H11S10767   2.853   6.053   6.153 -1.4073 -1.0370 -3.7124
  106OSM   H11T10768   2.778   5.901   6.203 -0.4748  0.2521 -0.5299
  106OSM   C12S10769   2.944   5.879   6.060  0.0351  0.1738 -0.0293
  106OSM   H12S10770   2.885   5.902   5.969  0.0586  0.3899  0.0095
  106OSM   H12T10771   2.937   5.768   6.062 -2.5285  0.2157 -1.6947
  106OSM   C13S10772   3.088   5.916   6.021  0.1579  0.8956  0.6432
  106OSM   H13S10773   3.107   5.868   5.922 -2.4100 -1.6110  1.2076
  106OSM   H13T10774   3.164   5.869   6.087  1.6097 -0.1233 -1.6302
  106OSM   C14S10775   3.132   6.059   5.997 -0.2470 -0.4629  0.5685
  106OSM   H14S10776   3.123   6.110   6.096  2.4167 -1.0976  1.1994
  106OSM   H14T10777   3.067   6.110   5.922  1.0834 -1.6926 -1.4966
  106OSM   C15S10778   3.282   6.073   5.951 -0.4703 -0.5725  0.2270
  106OSM   H15S10779   3.300   5.985   5.886 -3.5230  0.6179 -2.4916
  106OSM   H15T10780   3.339   6.065   6.046  0.7676 -1.3541 -0.5420
  106OSM   C16S10781   3.308   6.206   5.868  0.6477 -0.3078  0.9013
  106OSM   H16S10782   3.276   6.295   5.928 -0.5308  0.6479 -1.0444
  106OSM   H16T10783   3.239   6.201   5.781  0.9577  0.4518  0.6072
  106OSM   C17S10784   3.455   6.215   5.833  0.3866 -0.0216  0.4576
  106OSM   H17S10785   3.481   6.118   5.783 -0.4526 -0.6098  1.1463
  106OSM   H17T10786   3.525   6.221   5.919  0.0621 -0.8964  0.7931
  106OSM   C18S10787   3.478   6.327   5.728  0.0848  0.2998 -0.9104
  106OSM   H18S10788   3.392   6.330   5.658  0.1681  1.7796 -0.9738
  106OSM   H18T10789   3.581   6.313   5.687  0.4481  0.0602  0.0684
  106OSM   H18U10790   3.471   6.424   5.782 -3.2254  1.0852 -2.4996
  106OSM    C1F10791   2.916   6.483   7.047  0.3106  0.2244  0.3404
  106OSM     OF10792   3.030   6.498   7.091  0.4524  0.6186 -0.6697
  106OSM    C2F10793   2.865   6.569   6.938 -0.4537 -0.2244 -0.1458
  106OSM    H2F10794   2.760   6.595   6.962 -0.4541  2.2504 -2.3516
  106OSM    H2G10795   2.864   6.511   6.843  2.3117 -0.5329 -0.0750
  106OSM    C3F10796   2.941   6.702   6.938  0.2292  0.0827  0.1814
  106OSM    H3F10797   3.042   6.670   6.903 -0.1296 -1.9748  0.8735
  106OSM    H3G10798   2.950   6.734   7.044 -0.7620  0.1450  0.2597
  106OSM    C4F10799   2.874   6.817   6.856 -0.3404  0.2624  0.2308
  106OSM    H4F10800   2.912   6.917   6.884  0.5826 -0.3554  1.2796
  106OSM    H4G10801   2.764   6.801   6.861  0.0325 -3.0061  0.2707
  106OSM    C5F10802   2.907   6.806   6.716 -0.1659 -0.5702  0.1701
  106OSM    H5F10803   2.885   6.702   6.684  0.6841 -0.4176 -0.9961
  106OSM    H5G10804   3.014   6.832   6.703  0.8467 -3.3218  2.1582
  106OSM    C6F10805   2.815   6.906   6.632 -0.7887  0.7952 -0.1814
  106OSM    H6F10806   2.849   7.011   6.643  2.3921  0.2316 -2.9994
  106OSM    H6G10807   2.708   6.893   6.660 -1.1443  0.5516 -1.5333
  106OSM    C7F10808   2.832   6.882   6.487 -0.9793 -0.3232  0.2529
  106OSM    H7F10809   2.803   6.776   6.472  3.8819 -2.4023  3.2345
  106OSM    H7G10810   2.935   6.899   6.451 -1.6645  1.4875 -1.0055
  106OSM    C8F10811   2.748   6.970   6.400 -0.9788 -0.1981  0.4122
  106OSM    H8F10812   2.800   7.068   6.396  0.5016 -0.9863 -0.5538
  106OSM    H8G10813   2.652   6.985   6.454  0.5091  0.5686  3.0393
  106OSM    C9F10814   2.741   6.915   6.259 -0.0749 -0.3730 -0.6975
  106OSM    H9F10815   2.794   6.822   6.236 -1.2971 -0.9970 -1.0806
  106OSM   C10F10816   2.681   6.981   6.158  0.5034  0.0587 -0.8647
  106OSM   H10F10817   2.680   6.933   6.059 -2.6980 -0.7813 -0.5329
  106OSM   C11F10818   2.612   7.113   6.165 -0.3568  0.0938  0.7830
  106OSM   H11F10819   2.686   7.193   6.145  0.6207 -0.9900 -0.1510
  106OSM   H11G10820   2.579   7.135   6.268  1.7063  1.3899  1.2168
  106OSM   C12F10821   2.495   7.116   6.063  0.0705  0.0348 -0.9116
  106OSM   H12F10822   2.435   7.025   6.087  0.0093 -0.1001 -1.5651
  106OSM   H12G10823   2.541   7.111   5.962  1.4529 -1.0323 -0.2608
  106OSM   C13F10824   2.418   7.246   6.073  0.3714  1.3227 -0.6552
  106OSM   H13F10825   2.497   7.322   6.088  1.1338  1.0478 -2.9669
  106OSM   H13G10826   2.348   7.231   6.159  0.1320  0.6608 -0.9641
  106OSM   C14F10827   2.347   7.280   5.943  0.5559  0.5164 -0.4166
  106OSM   H14F10828   2.276   7.196   5.928 -0.0066  0.5403  1.8403
  106OSM   H14G10829   2.420   7.293   5.861  1.2168 -0.7148 -0.0416
  106OSM   C15F10830   2.250   7.397   5.943  0.7468 -0.0982 -0.5661
  106OSM   H15F10831   2.173   7.382   6.022  1.6122  1.6488  0.6650
  106OSM   H15G10832   2.196   7.378   5.847 -2.7903  2.5985  0.6578
  106OSM   C16F10833   2.316   7.536   5.956 -0.1437  0.4811  0.0673
  106OSM   H16F10834   2.380   7.532   5.865  0.0254 -2.7037  0.2149
  106OSM   H16G10835   2.386   7.531   6.042 -0.3783 -0.4574  0.2206
  106OSM   C17F10836   2.223   7.660   5.976 -0.5966  0.3126  0.4367
  106OSM   H17F10837   2.182   7.643   6.078  1.8726  0.8805  1.6048
  106OSM   H17G10838   2.136   7.650   5.908  0.2793 -1.2447 -0.5126
  106OSM   C18F10839   2.281   7.806   5.961 -0.3632 -0.0284  0.2673
  106OSM   H18F10840   2.380   7.816   6.012 -0.4896 -0.9433  0.7103
  106OSM   H18G10841   2.222   7.895   5.991 -0.5659  1.2849 -3.4956
  106OSM   H18H10842   2.304   7.822   5.853 -0.9224  3.4033  0.5338
  107OSM      N10843   4.063   2.219   8.008 -0.0141 -0.8304  0.0722
  107OSM    C1510844   4.192   2.244   8.084  0.2494 -0.5688  0.2929
  107OSM   H15A10845   4.236   2.340   8.061 -1.8868  0.4528  0.2395
  107OSM   H15B10846   4.256   2.158   8.077 -1.4970 -1.8090 -1.1850
  107OSM   H15C10847   4.155   2.266   8.183  1.1327  1.6381  0.2081
  107OSM    C1410848   4.013   2.090   8.066 -0.0459 -0.1000  0.0249
  107OSM   H14A10849   3.989   2.108   8.170  0.1715  0.7357 -0.0653
  107OSM   H14B10850   4.084   2.009   8.075 -1.7309 -1.3687  4.3627
  107OSM   H14C10851   3.923   2.062   8.013 -1.0750  0.4395  1.4328
  107OSM    C1310852   3.967   2.329   8.016  0.0891  0.1943  0.5960
  107OSM   H13A10853   3.937   2.345   8.119 -0.7723 -0.9257  0.5427
  107OSM   H13B10854   3.875   2.308   7.963  0.0793  2.3803 -0.4039
  107OSM   H13C10855   4.004   2.413   7.958 -3.1009  0.4056 -1.3987
  107OSM    C1210856   4.106   2.190   7.862  0.2501  0.6994 -0.2489
  107OSM   H12A10857   4.035   2.128   7.809  0.3390  1.4291 -1.2457
  107OSM   H12B10858   4.192   2.125   7.870  1.3461  2.2971  1.9789
  107OSM    C1110859   4.159   2.319   7.781 -0.5236  0.6574  0.1333
  107OSM   H11A10860   4.077   2.393   7.772 -0.9079  0.0718 -1.4274
  107OSM   H11B10861   4.176   2.284   7.677  0.2707 -1.6389  0.9806
  107OSM      P10862   4.423   2.345   7.797 -0.5759 -0.2447  0.1740
  107OSM    O1310863   4.509   2.398   7.900 -0.9880 -0.2420  0.1658
  107OSM    O1410864   4.431   2.196   7.776 -0.4751 -0.3414 -0.3143
  107OSM    O1110865   4.453   2.415   7.662  0.1587 -0.1960  0.7155
  107OSM    O1210866   4.273   2.387   7.829 -0.3247  0.1596  0.1128
  107OSM    C1S10867   4.370   2.525   7.608 -0.3970 -0.4094  0.2529
  107OSM    H1S10868   4.399   2.623   7.652 -1.3249 -0.1626  0.3323
  107OSM    H1T10869   4.262   2.500   7.618 -0.9763  0.9818 -1.8103
  107OSM     NF10870   4.327   2.682   7.405 -0.0889  0.6423 -0.3673
  107OSM    HNF10871   4.239   2.669   7.359 -0.1370  0.9283 -0.3622
  107OSM    C2S10872   4.392   2.565   7.454 -0.0582 -0.0420  0.8668
  107OSM    H2S10873   4.500   2.592   7.455 -0.0924  0.1029  0.5721
  107OSM    C3S10874   4.368   2.436   7.370  0.1018 -0.6837 -1.1459
  107OSM    H3S10875   4.266   2.402   7.398  0.7478 -1.2634  0.6623
  107OSM     O310876   4.435   2.322   7.415 -0.1950  0.0435  0.1936
  107OSM    HO310877   4.446   2.333   7.509  0.8694  3.3589 -0.1827
  107OSM    C4S10878   4.399   2.450   7.227  0.3740 -0.1709  0.0510
  107OSM    H4S10879   4.488   2.513   7.212  0.2650 -0.0784 -0.2048
  107OSM    C5S10880   4.317   2.433   7.117 -0.4645 -0.4708 -0.2490
  107OSM    H5S10881   4.220   2.382   7.130 -0.1714 -1.2438 -1.0066
  107OSM    C6S10882   4.353   2.477   6.972  0.0987 -0.1006 -1.2321
  107OSM    H6S10883   4.261   2.476   6.909 -0.8890  1.0841  0.1344
  107OSM    H6T10884   4.433   2.411   6.931  1.9356  1.4870 -0.3281
  107OSM    C7S10885   4.390   2.628   6.964  0.3351 -0.1149 -0.0892
  107OSM    H7S10886   4.484   2.637   7.022  1.1106 -1.1218 -1.1621
  107OSM    H7T10887   4.306   2.682   7.014 -1.2663 -2.4830 -0.0410
  107OSM    C8S10888   4.397   2.681   6.821 -0.2456  0.4175 -0.4875
  107OSM    H8S10889   4.388   2.791   6.827 -4.7895  0.2113 -0.3311
  107OSM    H8T10890   4.308   2.648   6.763  0.4103 -1.8861 -0.2770
  107OSM    C9S10891   4.518   2.629   6.745 -0.4717 -0.6825  0.4505
  107OSM    H9S10892   4.517   2.518   6.753 -0.3657 -0.6677  0.6875
  107OSM    H9T10893   4.619   2.665   6.776  0.2906 -2.0456 -0.3008
  107OSM   C10S10894   4.485   2.647   6.594  0.6608  0.3956 -0.8136
  107OSM   H10S10895   4.462   2.754   6.580  1.9624  0.8621  0.3545
  107OSM   H10T10896   4.395   2.584   6.578 -0.6830  1.6365  1.3472
  107OSM   C11S10897   4.605   2.611   6.495 -0.5624  0.0508  0.0572
  107OSM   H11S10898   4.628   2.503   6.483  0.3608  0.4158 -1.8964
  107OSM   H11T10899   4.695   2.657   6.540 -0.5335  0.4707 -0.4181
  107OSM   C12S10900   4.575   2.664   6.353  0.2077 -0.2936 -0.2999
  107OSM   H12S10901   4.591   2.773   6.342 -1.6283 -0.0285 -0.6311
  107OSM   H12T10902   4.465   2.659   6.349  0.1508 -0.9201  1.2429
  107OSM   C13S10903   4.637   2.599   6.231  0.4498 -0.1623 -0.6095
  107OSM   H13S10904   4.644   2.489   6.246 -0.1914 -0.2908 -1.2014
  107OSM   H13T10905   4.742   2.635   6.228  0.9458 -1.5902 -1.2961
  107OSM   C14S10906   4.571   2.633   6.097  0.2964  0.1086  0.1779
  107OSM   H14S10907   4.547   2.742   6.097 -0.0667  0.0679  2.2220
  107OSM   H14T10908   4.474   2.578   6.089  0.9459 -0.9082 -1.1226
  107OSM   C15S10909   4.655   2.611   5.977 -1.3338  0.2201 -0.0965
  107OSM   H15S10910   4.695   2.508   5.966  2.1798  1.6119 -1.7794
  107OSM   H15T10911   4.740   2.682   5.986 -1.8168  0.8877 -0.7001
  107OSM   C16S10912   4.582   2.653   5.844  0.5806 -0.4829 -0.2452
  107OSM   H16S10913   4.490   2.590   5.836 -0.3343  0.4565  1.9008
  107OSM   H16T10914   4.646   2.628   5.757 -0.0091  2.4184 -1.6012
  107OSM   C17S10915   4.537   2.799   5.837  0.3927  0.2876  0.3760
  107OSM   H17S10916   4.633   2.853   5.853 -0.1836  0.5440  3.5928
  107OSM   H17T10917   4.465   2.825   5.917  0.4035 -0.6481  0.7064
  107OSM   C18S10918   4.479   2.845   5.706 -0.0627  0.7019  0.4625
  107OSM   H18S10919   4.551   2.835   5.622  1.3370  0.4815  1.6532
  107OSM   H18T10920   4.458   2.954   5.704  2.2573  1.1968  0.3893
  107OSM   H18U10921   4.381   2.797   5.685  0.0301  1.0721 -0.8808
  107OSM    C1F10922   4.365   2.812   7.421  0.7489 -0.1495 -0.2369
  107OSM     OF10923   4.445   2.849   7.508 -0.4317  0.0626 -0.1749
  107OSM    C2F10924   4.289   2.907   7.336  0.0316 -0.4469 -0.3511
  107OSM    H2F10925   4.204   2.953   7.392  1.0848 -0.6165  1.4613
  107OSM    H2G10926   4.242   2.865   7.245 -2.0085 -0.1498  0.5009
  107OSM    C3F10927   4.393   3.021   7.297 -0.2076  0.0887  0.2372
  107OSM    H3F10928   4.482   2.968   7.258 -1.5243 -1.2930 -1.0185
  107OSM    H3G10929   4.428   3.087   7.380 -1.3439  0.0650  0.7600
  107OSM    C4F10930   4.345   3.119   7.180  0.3523 -0.0665 -0.5213
  107OSM    H4F10931   4.416   3.203   7.161  1.0968 -0.9503 -1.8409
  107OSM    H4G10932   4.247   3.156   7.216  0.4205 -0.4637  0.0835
  107OSM    C5F10933   4.325   3.037   7.058  0.1806 -0.1040 -0.2073
  107OSM    H5F10934   4.248   2.957   7.060  1.1831 -1.0800  0.1689
  107OSM    H5G10935   4.416   2.982   7.026  0.1009 -0.2733 -0.1439
  107OSM    C6F10936   4.265   3.132   6.948 -0.3363  0.1079  0.0807
  107OSM    H6F10937   4.351   3.183   6.901 -1.6347  1.1894 -1.2112
  107OSM    H6G10938   4.191   3.208   6.983 -1.9699 -1.5276  0.3538
  107OSM    C7F10939   4.185   3.067   6.836 -0.5054 -0.0242  0.7967
  107OSM    H7F10940   4.081   3.055   6.875 -0.3018  0.5536  1.5502
  107OSM    H7G10941   4.231   2.966   6.830  1.0113  0.5388  2.3331
  107OSM    C8F10942   4.178   3.147   6.710  0.3630  0.1914  0.4631
  107OSM    H8F10943   4.261   3.221   6.712  0.6007 -0.0849  0.7369
  107OSM    H8G10944   4.092   3.217   6.709 -0.1274 -0.4031  0.5907
  107OSM    C9F10945   4.170   3.066   6.585 -0.5323 -0.3298 -0.8643
  107OSM    H9F10946   4.082   3.000   6.580 -2.4474  2.0907 -0.7134
  107OSM   C10F10947   4.253   3.070   6.482 -0.4330  0.1999  0.4748
  107OSM   H10F10948   4.244   3.002   6.396  1.0014  2.1141 -1.2738
  107OSM   C11F10949   4.372   3.163   6.480  0.0871 -0.0435  0.8533
  107OSM   H11F10950   4.438   3.138   6.566 -1.9024 -4.0761  1.4718
  107OSM   H11G10951   4.341   3.268   6.494  3.5498  1.3974 -1.0235
  107OSM   C12F10952   4.446   3.170   6.343  0.2416 -0.6369  1.0548
  107OSM   H12F10953   4.493   3.070   6.332 -2.5052 -2.1404  2.0296
  107OSM   H12G10954   4.519   3.252   6.359  2.8354 -2.2537 -1.6135
  107OSM   C13F10955   4.370   3.209   6.227  0.3206 -0.3284  0.1607
  107OSM   H13F10956   4.312   3.304   6.225  1.4946  0.4427  1.1741
  107OSM   H13G10957   4.285   3.142   6.201 -0.1098  0.1383  0.3324
  107OSM   C14F10958   4.460   3.206   6.110 -0.1062  0.3089  0.6698
  107OSM   H14F10959   4.509   3.106   6.105  0.1386  0.4333  0.5764
  107OSM   H14G10960   4.542   3.279   6.125 -0.4067  0.7800  0.0483
  107OSM   C15F10961   4.395   3.231   5.971 -0.2516 -0.1010  0.0794
  107OSM   H15F10962   4.341   3.328   5.975 -1.0496 -0.5467  0.4864
  107OSM   H15G10963   4.329   3.149   5.933  0.0523 -0.0462 -0.5809
  107OSM   C16F10964   4.503   3.244   5.859 -0.3360 -0.1999  0.2141
  107OSM   H16F10965   4.576   3.160   5.853  0.0766  0.0458  1.3702
  107OSM   H16G10966   4.564   3.329   5.896  0.4597 -1.2467  1.4236
  107OSM   C17F10967   4.427   3.261   5.725  0.2381 -0.6268  0.1202
  107OSM   H17F10968   4.355   3.344   5.741  1.0147  0.2138 -0.6102
  107OSM   H17G10969   4.361   3.172   5.715 -0.0309 -0.1649 -3.2972
  107OSM   C18F10970   4.519   3.285   5.611  0.0611  0.5539  0.1472
  107OSM   H18F10971   4.551   3.390   5.622 -3.4223  1.7498  0.1284
  107OSM   H18G10972   4.461   3.283   5.516 -1.3988 -2.0015  0.9774
  107OSM   H18H10973   4.588   3.198   5.601 -0.7830 -0.3163  1.4847
  108OSM      N10974   6.902   4.670   7.860 -0.3340  0.3544 -0.5265
  108OSM    C1510975   6.787   4.729   7.938  0.4320 -0.2864  0.6853
  108OSM   H15A10976   6.694   4.706   7.889  1.8165  1.5960 -3.2470
  108OSM   H15B10977   6.803   4.836   7.947  1.4693 -0.2210 -1.3542
  108OSM   H15C10978   6.780   4.673   8.030 -1.8809 -2.7171 -0.8330
  108OSM    C1410979   6.950   4.764   7.758 -0.1489  0.2663 -0.2163
  108OSM   H14A10980   6.991   4.854   7.800 -0.0133 -0.0433  0.3227
  108OSM   H14B10981   6.867   4.791   7.695 -1.5354 -2.7605  0.1070
  108OSM   H14C10982   7.027   4.721   7.696  0.4207  0.7613  0.1363
  108OSM    C1310983   7.021   4.662   7.948  0.5657  0.6401 -0.1811
  108OSM   H13A10984   6.998   4.592   8.028 -0.1381  1.6826  0.5568
  108OSM   H13B10985   7.051   4.752   7.999 -2.1365  0.8168  1.3046
  108OSM   H13C10986   7.108   4.616   7.904  0.0842 -1.5416  0.9625
  108OSM    C1210987   6.860   4.535   7.800 -0.2189 -0.0673  0.9240
  108OSM   H12A10988   6.838   4.467   7.881  1.6486 -1.1033  0.6101
  108OSM   H12B10989   6.947   4.501   7.746  0.9475  0.2806  2.4981
  108OSM    C1110990   6.736   4.532   7.711  0.2098  0.3617  0.4502
  108OSM   H11A10991   6.752   4.438   7.654  3.1045  1.4852 -0.7416
  108OSM   H11B10992   6.733   4.618   7.641  1.6545  2.1464  2.4549
  108OSM      P10993   6.485   4.581   7.731 -0.1635  0.3633 -0.0048
  108OSM    O1310994   6.370   4.538   7.818 -0.3654 -0.0724 -0.2078
  108OSM    O1410995   6.499   4.726   7.720 -0.2303 -0.2233  0.2601
  108OSM    O1110996   6.466   4.522   7.586  0.3445  0.3233 -0.2620
  108OSM    O1210997   6.624   4.523   7.787  0.4368  0.4203 -0.5719
  108OSM    C1S10998   6.345   4.500   7.514  0.4908 -0.2666  0.1078
  108OSM    H1S10999   6.280   4.589   7.502  3.1556  1.5545 -2.0927
  108OSM    H1T11000   6.290   4.419   7.566  1.0764 -0.8534 -0.1661
  108OSM     NF11001   6.250   4.441   7.292  0.4239  0.0709  0.4409
  108OSM    HNF11002   6.203   4.353   7.294  0.9103 -0.2700 -1.1947
  108OSM    C2S11003   6.375   4.452   7.370 -0.3975  0.0975  0.5628
  108OSM    H2S11004   6.440   4.524   7.317  0.3194  0.7234  2.2223
  108OSM    C3S11005   6.456   4.320   7.366  0.0687 -0.1376 -0.2056
  108OSM    H3S11006   6.393   4.237   7.404  1.1895 -0.4057  1.1501
  108OSM     O311007   6.555   4.308   7.461 -0.6691 -0.2038  0.1162
  108OSM    HO311008   6.543   4.385   7.518  0.0184 -1.6201  2.2865
  108OSM    C4S11009   6.501   4.272   7.225 -0.2239 -0.6108  0.5838
  108OSM    H4S11010   6.429   4.199   7.186  0.1496 -1.5966  1.6759
  108OSM    C5S11011   6.613   4.307   7.156  0.3075  1.0393 -0.6642
  108OSM    H5S11012   6.684   4.382   7.195  1.7969 -0.1968 -0.8867
  108OSM    C6S11013   6.645   4.237   7.029  0.0238 -0.6511  0.0190
  108OSM    H6S11014   6.569   4.163   6.995 -0.5597  0.7274 -1.8071
  108OSM    H6T11015   6.743   4.185   7.025  1.3587  1.7893 -3.2506
  108OSM    C7S11016   6.653   4.350   6.925  0.0323 -0.6720 -0.1192
  108OSM    H7S11017   6.709   4.439   6.962  1.0196 -1.5395  0.5234
  108OSM    H7T11018   6.556   4.399   6.904  1.0993  0.7683 -1.9889
  108OSM    C8S11019   6.712   4.296   6.791 -0.3116  0.0001 -0.0302
  108OSM    H8S11020   6.655   4.204   6.765  2.0548 -0.3170 -5.1180
  108OSM    H8T11021   6.815   4.258   6.807 -0.2442  0.2096  0.0430
  108OSM    C9S11022   6.710   4.390   6.676 -0.8473  0.0053 -0.2742
  108OSM    H9S11023   6.757   4.486   6.709  1.9223 -1.0104 -0.9949
  108OSM    H9T11024   6.604   4.414   6.652 -0.6478  0.6604 -0.5156
  108OSM   C10S11025   6.769   4.336   6.548 -0.6641 -0.7513  0.6858
  108OSM   H10S11026   6.729   4.233   6.532 -2.6500 -0.1063  1.2615
  108OSM   H10T11027   6.875   4.340   6.578 -1.3067 -0.7671  3.1658
  108OSM   C11S11028   6.756   4.424   6.415 -0.2400 -0.1993  0.3467
  108OSM   H11S11029   6.837   4.398   6.344  0.6576 -2.1894  1.9778
  108OSM   H11T11030   6.779   4.527   6.453  0.9435 -0.1401 -0.4915
  108OSM   C12S11031   6.624   4.409   6.344 -0.0963 -0.1564  0.2532
  108OSM   H12S11032   6.535   4.421   6.410 -0.3859  1.8642 -0.4345
  108OSM   H12T11033   6.616   4.303   6.312  0.7297  0.1529 -1.0595
  108OSM   C13S11034   6.603   4.507   6.229 -0.3491 -0.0592 -0.1218
  108OSM   H13S11035   6.512   4.477   6.174 -0.3534 -2.2960  1.0090
  108OSM   H13T11036   6.689   4.496   6.160 -0.3486 -1.3929  0.0713
  108OSM   C14S11037   6.574   4.650   6.273  0.0001  0.5391  0.0820
  108OSM   H14S11038   6.660   4.678   6.338  0.0342 -1.3875  0.9221
  108OSM   H14T11039   6.477   4.662   6.325 -0.4415  1.4309 -0.9169
  108OSM   C15S11040   6.573   4.749   6.160  0.0260  0.2218  0.5315
  108OSM   H15S11041   6.560   4.851   6.202  1.9409  0.3484  0.9066
  108OSM   H15T11042   6.485   4.715   6.102 -0.1012 -1.3542  1.5921
  108OSM   C16S11043   6.698   4.747   6.067  0.1689 -0.2667  0.3395
  108OSM   H16S11044   6.690   4.657   6.002 -0.7895 -0.5802  0.8713
  108OSM   H16T11045   6.793   4.730   6.122  1.0431 -2.6339 -1.7264
  108OSM   C17S11046   6.710   4.871   5.979 -0.2968 -0.9859  0.5231
  108OSM   H17S11047   6.735   4.956   6.045  0.0865 -1.1699  0.6186
  108OSM   H17T11048   6.616   4.913   5.939 -0.0211  0.0691  0.9625
  108OSM   C18S11049   6.809   4.851   5.863  0.3261 -0.4780 -0.7179
  108OSM   H18S11050   6.823   4.942   5.801  0.0036  0.5830  0.7222
  108OSM   H18T11051   6.758   4.764   5.816 -2.5972  1.0096 -0.4865
  108OSM   H18U11052   6.905   4.812   5.904  0.9033 -0.4752 -2.0001
  108OSM    C1F11053   6.182   4.537   7.241 -0.1268  0.2976  0.7285
  108OSM     OF11054   6.204   4.652   7.266  0.1276  0.3817 -0.7966
  108OSM    C2F11055   6.074   4.501   7.160  0.6071  0.2545 -0.3582
  108OSM    H2F11056   5.987   4.564   7.189 -0.1530 -0.9658  0.0820
  108OSM    H2G11057   6.054   4.393   7.176  2.4549  0.1122  1.3871
  108OSM    C3F11058   6.114   4.520   7.018 -0.1289 -0.1174 -0.0185
  108OSM    H3F11059   6.153   4.623   7.006  1.9755 -0.9593 -0.9964
  108OSM    H3G11060   6.021   4.516   6.958 -0.2020 -2.1985  0.1561
  108OSM    C4F11061   6.219   4.425   6.962 -0.2876  0.0440  0.3173
  108OSM    H4F11062   6.199   4.317   6.978  0.1099 -0.6997 -3.3017
  108OSM    H4G11063   6.323   4.443   6.997 -0.3719  2.3067 -0.4601
  108OSM    C5F11064   6.231   4.447   6.809 -0.8592  0.0100  0.3519
  108OSM    H5F11065   6.130   4.441   6.761 -1.4395 -3.7144  1.7082
  108OSM    H5G11066   6.305   4.377   6.765  1.0142  1.9188  0.3258
  108OSM    C6F11067   6.300   4.580   6.786 -0.1671 -0.0651  0.4395
  108OSM    H6F11068   6.390   4.579   6.851 -1.1721 -1.6862  1.9001
  108OSM    H6G11069   6.236   4.664   6.821 -1.2660 -0.3764 -0.7307
  108OSM    C7F11070   6.356   4.612   6.643  0.3332  0.0481 -0.4473
  108OSM    H7F11071   6.426   4.531   6.616  0.2993 -0.8604  1.9857
  108OSM    H7G11072   6.405   4.712   6.645  0.3475  0.0399  1.3457
  108OSM    C8F11073   6.255   4.622   6.531 -0.2655 -0.0492  0.3695
  108OSM    H8F11074   6.309   4.671   6.447  0.1189  0.6051  0.9924
  108OSM    H8G11075   6.176   4.692   6.564 -0.2243  0.5737 -0.8097
  108OSM    C9F11076   6.207   4.493   6.473  0.2910  0.2772  0.6727
  108OSM    H9F11077   6.225   4.405   6.536 -0.2456  0.7893  1.5537
  108OSM   C10F11078   6.180   4.451   6.349 -0.4617 -0.0327  0.1869
  108OSM   H10F11079   6.131   4.353   6.338  1.9006 -1.5630  2.0975
  108OSM   C11F11080   6.186   4.537   6.230 -0.1759 -0.0518  0.2357
  108OSM   H11F11081   6.264   4.505   6.158 -0.1791  0.2391  0.1033
  108OSM   H11G11082   6.198   4.644   6.257 -1.4685 -0.0022  0.6718
  108OSM   C12F11083   6.057   4.543   6.143  0.1202 -0.6580  1.3980
  108OSM   H12F11084   5.979   4.613   6.181 -1.5144 -0.8025 -1.4593
  108OSM   H12G11085   6.002   4.449   6.125  0.0813  0.1340 -4.0411
  108OSM   C13F11086   6.092   4.582   5.994  0.0141  0.3221 -0.7077
  108OSM   H13F11087   6.164   4.506   5.958 -0.3993  0.5622 -2.1105
  108OSM   H13G11088   6.134   4.683   5.975  1.1266  0.0545  0.2146
  108OSM   C14F11089   5.970   4.558   5.905  0.0565  0.0759  0.2154
  108OSM   H14F11090   5.896   4.635   5.935 -2.4026 -2.5185  1.3061
  108OSM   H14G11091   5.922   4.458   5.916 -2.4749  1.0711 -0.9607
  108OSM   C15F11092   6.003   4.578   5.759  0.4702 -0.2587  0.1835
  108OSM   H15F11093   6.096   4.526   5.728  0.3191  0.1881 -1.0582
  108OSM   H15G11094   6.021   4.685   5.735  0.8478 -0.2415  0.5412
  108OSM   C16F11095   5.885   4.533   5.666 -0.5107 -0.1254  0.6918
  108OSM   H16F11096   5.798   4.601   5.673 -2.3733 -2.4634  1.5528
  108OSM   H16G11097   5.855   4.430   5.697  0.3788 -0.1222  1.6329
  108OSM   C17F11098   5.913   4.530   5.511 -0.2330  0.5817 -0.0510
  108OSM   H17F11099   6.005   4.469   5.506  0.3424  1.2794  1.3312
  108OSM   H17G11100   5.945   4.626   5.465 -0.0704  0.4599 -0.1951
  108OSM   C18F11101   5.790   4.486   5.436 -0.6842  0.4895  0.5379
  108OSM   H18F11102   5.760   4.384   5.471  0.1552 -0.0281 -0.2034
  108OSM   H18G11103   5.827   4.460   5.334  1.2664 -0.0140  1.3215
  108OSM   H18H11104   5.707   4.559   5.440 -1.6104 -0.5048 -0.1896
  109OSM      N11105   2.460   5.440   7.902  0.6027  0.2191 -0.1261
  109OSM    C1511106   2.469   5.533   7.787 -0.5388 -0.7997  0.0023
  109OSM   H15A11107   2.426   5.628   7.817  1.5429 -0.4964  2.2876
  109OSM   H15B11108   2.420   5.495   7.699 -0.4428 -0.8873 -0.0125
  109OSM   H15C11109   2.571   5.540   7.753 -1.4083  1.2755 -2.4524
  109OSM    C1411110   2.316   5.409   7.926 -0.2664  0.5982 -0.0588
  109OSM   H14A11111   2.290   5.324   7.987 -2.8220  1.6935  0.4823
  109OSM   H14B11112   2.270   5.391   7.830 -1.0354 -1.4417  0.6557
  109OSM   H14C11113   2.269   5.494   7.972  1.2631  1.7087 -0.4420
  109OSM    C1311114   2.526   5.314   7.871 -0.0454 -0.3613  0.0242
  109OSM   H13A11115   2.506   5.244   7.950 -2.2841  0.6987  0.4802
  109OSM   H13B11116   2.632   5.327   7.860 -0.2072  1.9718  0.6499
  109OSM   H13C11117   2.488   5.278   7.776 -1.0418  1.0639 -0.1533
  109OSM    C1211118   2.514   5.502   8.026 -0.7823  0.8609  0.3124
  109OSM   H12A11119   2.488   5.438   8.109 -1.8585 -1.0311 -1.3937
  109OSM   H12B11120   2.460   5.594   8.042 -4.0424 -0.9718  0.6963
  109OSM    C1111121   2.670   5.527   8.019  0.5939  0.6754 -0.3420
  109OSM   H11A11122   2.713   5.425   8.011 -2.7586 -1.2450  2.9450
  109OSM   H11B11123   2.700   5.562   8.120 -1.7629 -2.6190  1.6997
  109OSM      P11124   2.742   5.759   7.936 -0.1558 -0.3362 -0.2712
  109OSM    O1311125   2.641   5.816   8.024  0.3926 -0.1593 -0.1191
  109OSM    O1411126   2.888   5.775   7.969 -0.3682 -0.2307 -0.0767
  109OSM    O1111127   2.718   5.811   7.789  0.1001  0.2868 -0.5111
  109OSM    O1211128   2.715   5.610   7.910 -0.8101  0.4001 -0.1589
  109OSM    C1S11129   2.805   5.814   7.672  0.5770 -0.3841 -0.1418
  109OSM    H1S11130   2.877   5.729   7.670 -0.6880 -1.5489  1.2218
  109OSM    H1T11131   2.872   5.902   7.662  0.6669 -0.3868  0.4108
  109OSM     NF11132   2.791   5.782   7.409  0.0903 -0.5103  0.1861
  109OSM    HNF11133   2.813   5.867   7.362  1.9766 -1.3649 -0.5815
  109OSM    C2S11134   2.715   5.807   7.537 -0.2124 -0.6837 -0.8528
  109OSM    H2S11135   2.656   5.716   7.558 -0.0975 -0.6964 -0.5763
  109OSM    C3S11136   2.610   5.924   7.531 -0.1313 -0.0590 -0.5299
  109OSM    H3S11137   2.669   6.016   7.514 -1.3903  0.7578 -0.6022
  109OSM     O311138   2.542   5.949   7.654  0.1074 -0.0279  0.1850
  109OSM    HO311139   2.591   5.900   7.720  0.4367  1.3652  1.0216
  109OSM    C4S11140   2.513   5.928   7.416  0.0679 -0.4576 -0.4989
  109OSM    H4S11141   2.455   5.835   7.406 -1.2554  0.1893  0.8330
  109OSM    C5S11142   2.487   6.031   7.333  0.2626  0.2204  0.4763
  109OSM    H5S11143   2.536   6.127   7.358  1.1927 -0.3870  1.0753
  109OSM    C6S11144   2.376   6.034   7.226 -0.2514  0.4430 -0.1607
  109OSM    H6S11145   2.339   6.138   7.214  1.0640  0.8216 -1.1594
  109OSM    H6T11146   2.288   5.975   7.260 -0.4060 -0.1100 -1.4495
  109OSM    C7S11147   2.446   5.981   7.105 -0.0200 -0.7205  0.0209
  109OSM    H7S11148   2.488   5.879   7.122  0.0130 -0.5352  1.0849
  109OSM    H7T11149   2.537   6.044   7.092 -0.8294  0.7068  1.0869
  109OSM    C8S11150   2.358   5.980   6.983  0.2115 -0.3176 -0.4413
  109OSM    H8S11151   2.334   6.087   6.963  0.8188 -0.1493 -0.2850
  109OSM    H8T11152   2.264   5.923   6.999  0.8027 -1.1535  0.1444
  109OSM    C9S11153   2.435   5.928   6.859 -0.1823 -0.2916 -0.1630
  109OSM    H9S11154   2.457   5.820   6.871 -1.8209 -0.8177 -1.5161
  109OSM    H9T11155   2.523   5.996   6.848 -0.2403 -0.2251 -0.2235
  109OSM   C10S11156   2.344   5.937   6.739 -0.0451  0.1319 -0.0986
  109OSM   H10S11157   2.307   6.038   6.709  2.7382  1.2790  0.0665
  109OSM   H10T11158   2.258   5.875   6.772  2.3847 -4.1146 -1.0564
  109OSM   C11S11159   2.394   5.862   6.614 -0.0345  0.2009 -1.0050
  109OSM   H11S11160   2.361   5.756   6.620 -1.1080  0.5398 -0.6537
  109OSM   H11T11161   2.505   5.861   6.612 -0.0080 -0.1569  0.0380
  109OSM   C12S11162   2.335   5.918   6.491  0.2921  0.3248  0.1889
  109OSM   H12S11163   2.359   6.026   6.484 -1.8917  0.8514  0.1812
  109OSM   H12T11164   2.226   5.907   6.509  0.4875 -0.8463  0.7591
  109OSM   C13S11165   2.379   5.859   6.358 -0.5858 -0.0439  0.3629
  109OSM   H13S11166   2.349   5.752   6.363 -0.2998 -0.1309  0.2667
  109OSM   H13T11167   2.489   5.866   6.345 -0.8168  0.0251 -1.8415
  109OSM   C14S11168   2.322   5.920   6.230  0.1808 -0.0462  0.4970
  109OSM   H14S11169   2.334   6.030   6.245  0.7251  0.0532 -0.6419
  109OSM   H14T11170   2.214   5.896   6.217  0.1384 -0.3864  1.3596
  109OSM   C15S11171   2.383   5.883   6.092  0.4648 -0.3354 -0.5553
  109OSM   H15S11172   2.385   5.772   6.087  0.3547 -0.2850 -1.9764
  109OSM   H15T11173   2.485   5.926   6.083  0.5010  0.0408  1.1471
  109OSM   C16S11174   2.299   5.946   5.983 -0.5676 -0.0216 -0.5766
  109OSM   H16S11175   2.302   6.057   5.982 -1.7572  0.0665  1.3078
  109OSM   H16T11176   2.194   5.916   6.003 -0.0611 -2.4426 -1.2028
  109OSM   C17S11177   2.333   5.890   5.843 -0.5931 -0.1877  0.1662
  109OSM   H17S11178   2.259   5.938   5.775  0.2971  2.7808  1.1198
  109OSM   H17T11179   2.335   5.779   5.838  1.0862 -0.1218 -2.4229
  109OSM   C18S11180   2.473   5.939   5.790 -0.0910 -0.3504 -0.4744
  109OSM   H18S11181   2.552   5.883   5.845  1.0017 -0.3147 -1.9687
  109OSM   H18T11182   2.484   6.048   5.804 -1.0561 -0.4753  1.6913
  109OSM   H18U11183   2.485   5.928   5.680 -0.0161  0.3574 -0.5398
  109OSM    C1F11184   2.862   5.671   7.388  0.1489  0.0996  0.0136
  109OSM     OF11185   2.867   5.585   7.476  0.0529 -0.2486  0.0995
  109OSM    C2F11186   2.936   5.657   7.252  0.1667 -0.1894 -0.1067
  109OSM    H2F11187   2.991   5.754   7.249 -2.2873  1.5251  3.4849
  109OSM    H2G11188   2.858   5.665   7.173 -1.1854  2.0384  1.3454
  109OSM    C3F11189   3.014   5.519   7.239  0.8406 -0.2826  0.5521
  109OSM    H3F11190   2.943   5.435   7.230  0.5086 -0.1154  1.5372
  109OSM    H3G11191   3.069   5.526   7.335  0.0217 -1.1213  1.0903
  109OSM    C4F11192   3.110   5.522   7.112 -0.2099  0.6646 -0.0388
  109OSM    H4F11193   3.203   5.463   7.126 -0.4970 -0.3173 -1.9185
  109OSM    H4G11194   3.148   5.626   7.109  2.7521 -0.3046  0.3957
  109OSM    C5F11195   3.047   5.483   6.984  0.0851  0.6603 -0.6064
  109OSM    H5F11196   2.987   5.568   6.945 -0.3037  1.1165  0.9000
  109OSM    H5G11197   2.986   5.391   6.997 -0.3372  0.6272 -2.5254
  109OSM    C6F11198   3.152   5.445   6.878 -0.0844 -0.7952 -0.0204
  109OSM    H6F11199   3.187   5.344   6.910 -0.9873 -0.4045  2.3998
  109OSM    H6G11200   3.243   5.509   6.885 -0.3072 -0.5846  1.0171
  109OSM    C7F11201   3.100   5.441   6.734  0.6017 -0.3904  0.7940
  109OSM    H7F11202   3.044   5.533   6.705  0.3838 -0.4117  1.1408
  109OSM    H7G11203   3.017   5.367   6.738 -0.5285  0.8315  0.7964
  109OSM    C8F11204   3.185   5.383   6.616  0.5853  0.6780 -0.7275
  109OSM    H8F11205   3.122   5.368   6.526  1.0784  0.3706 -1.0255
  109OSM    H8G11206   3.236   5.292   6.653 -1.2523  0.0550  0.4086
  109OSM    C9F11207   3.281   5.492   6.568 -0.2942 -0.1253 -0.2264
  109OSM    H9F11208   3.319   5.562   6.643 -2.6936  0.5862  0.4022
  109OSM   C10F11209   3.309   5.514   6.436  0.3812  1.0072 -0.1058
  109OSM   H10F11210   3.375   5.599   6.410  0.6831  0.8243  0.0503
  109OSM   C11F11211   3.250   5.440   6.314 -0.1199  0.3991  0.6273
  109OSM   H11F11212   3.170   5.371   6.349 -1.3887  2.3113  1.7024
  109OSM   H11G11213   3.332   5.375   6.277 -0.3240 -0.3475  1.4671
  109OSM   C12F11214   3.193   5.536   6.211 -0.1907  0.4979 -0.1008
  109OSM   H12F11215   3.252   5.629   6.195  0.9335 -0.5441 -2.4387
  109OSM   H12G11216   3.091   5.559   6.250 -0.6777 -1.6833  0.0210
  109OSM   C13F11217   3.164   5.473   6.075  0.3649 -0.4400 -0.0678
  109OSM   H13F11218   3.093   5.389   6.084 -0.1403 -0.0295 -0.1912
  109OSM   H13G11219   3.254   5.431   6.024 -0.4849  0.3946 -2.3841
  109OSM   C14F11220   3.110   5.570   5.975 -0.3168 -0.3082  0.2863
  109OSM   H14F11221   3.163   5.666   5.994 -1.5532  0.1785  1.4329
  109OSM   H14G11222   3.001   5.589   5.984 -0.0370  1.5705 -0.0014
  109OSM   C15F11223   3.131   5.530   5.826 -0.0256  0.1213  0.2570
  109OSM   H15F11224   3.107   5.421   5.828 -0.6904  0.2844  1.3435
  109OSM   H15G11225   3.233   5.532   5.782 -1.8254  1.9490 -4.5834
  109OSM   C16F11226   3.066   5.623   5.727  0.4888  0.1008 -0.1420
  109OSM   H16F11227   3.091   5.597   5.622  4.5214  0.2641  0.6347
  109OSM   H16G11228   3.114   5.721   5.745 -0.4459  0.8938 -1.6646
  109OSM   C17F11229   2.913   5.640   5.730  0.7280 -0.0460  0.1002
  109OSM   H17F11230   2.900   5.711   5.646 -1.0341 -1.5057 -0.9283
  109OSM   H17G11231   2.875   5.679   5.827  2.5930 -1.2580  1.3771
  109OSM   C18F11232   2.840   5.507   5.702 -1.0945 -0.2057  0.1392
  109OSM   H18F11233   2.866   5.440   5.786  0.4183 -0.5470 -0.5795
  109OSM   H18G11234   2.878   5.460   5.609 -2.1640  1.4469 -1.2121
  109OSM   H18H11235   2.730   5.518   5.686 -1.0034 -1.5596 -1.8172
  110OSM      N11236   4.496   0.540   7.927 -0.1378  0.1262  0.3053
  110OSM    C1511237   4.397   0.534   7.816 -0.0331 -0.4356 -0.7096
  110OSM   H15A11238   4.439   0.529   7.717  0.1388  0.2336 -0.6738
  110OSM   H15B11239   4.331   0.620   7.819  0.7643  0.1988  1.7179
  110OSM   H15C11240   4.341   0.442   7.825 -0.0602 -0.2695  1.2713
  110OSM    C1411241   4.581   0.656   7.895  0.8412 -0.8503  0.1704
  110OSM   H14A11242   4.520   0.742   7.871  0.6305  0.2153  3.9347
  110OSM   H14B11243   4.656   0.637   7.819 -0.9801 -0.0141 -1.9483
  110OSM   H14C11244   4.630   0.675   7.989 -1.5494  0.2930  1.2547
  110OSM    C1311245   4.426   0.567   8.061 -0.0088  0.5489 -0.5184
  110OSM   H13A11246   4.359   0.650   8.048  0.0621  0.3802 -2.1121
  110OSM   H13B11247   4.484   0.590   8.149 -1.9012 -0.3793  1.0371
  110OSM   H13C11248   4.377   0.476   8.092  0.2766 -0.1984 -2.1410
  110OSM    C1211249   4.569   0.413   7.926 -0.4696  0.1781 -0.1331
  110OSM   H12A11250   4.502   0.329   7.916 -0.0560  0.0111 -2.0689
  110OSM   H12B11251   4.623   0.397   8.018 -0.0625 -1.1621 -0.5842
  110OSM    C1111252   4.673   0.397   7.811 -0.9985 -0.5025  0.5604
  110OSM   H11A11253   4.629   0.428   7.714  1.1611 -1.7106 -0.8930
  110OSM   H11B11254   4.692   0.287   7.808  0.0568 -0.3082 -0.9406
  110OSM      P11255   4.897   0.508   7.734 -0.1626  0.2050 -0.2646
  110OSM    O1311256   5.014   0.570   7.800 -0.1345  0.5162 -0.1301
  110OSM    O1411257   4.930   0.398   7.651 -0.4074  0.6067 -0.4437
  110OSM    O1111258   4.822   0.617   7.644  0.4968  0.3120  0.0699
  110OSM    O1211259   4.790   0.470   7.845 -0.8430 -0.0795  0.2647
  110OSM    C1S11260   4.740   0.581   7.527  0.0450 -0.1614  0.0861
  110OSM    H1S11261   4.633   0.601   7.549  0.2678  0.2688  0.8061
  110OSM    H1T11262   4.749   0.472   7.512  2.7060  0.1275 -0.9450
  110OSM     NF11263   4.691   0.589   7.290 -0.2222 -0.2273  0.4749
  110OSM    HNF11264   4.734   0.517   7.236  2.2716  0.2914  1.6420
  110OSM    C2S11265   4.781   0.642   7.394  0.3751 -0.7411  0.7807
  110OSM    H2S11266   4.765   0.752   7.396  1.1079 -0.6401  1.4382
  110OSM    C3S11267   4.937   0.629   7.365 -0.2560 -0.1301 -0.3058
  110OSM    H3S11268   4.976   0.529   7.394 -0.0363 -0.3628 -1.3665
  110OSM     O311269   5.015   0.728   7.437 -0.4189 -0.0954  0.0647
  110OSM    HO311270   4.962   0.758   7.511  0.1762 -1.2281  0.9822
  110OSM    C4S11271   4.962   0.658   7.221  1.3453 -0.3160 -0.2395
  110OSM    H4S11272   4.941   0.759   7.183  1.4019 -1.2792 -3.0988
  110OSM    C5S11273   5.003   0.561   7.139 -0.4644  0.1862 -0.2334
  110OSM    H5S11274   5.011   0.460   7.183 -3.7176 -0.9341 -1.8829
  110OSM    C6S11275   5.031   0.585   6.987 -0.9799  0.1653 -0.5809
  110OSM    H6S11276   5.138   0.603   6.963 -0.9059  0.2988 -0.1596
  110OSM    H6T11277   4.961   0.660   6.945  0.5893  2.5666  0.9234
  110OSM    C7S11278   5.005   0.453   6.912  0.1777  0.0767 -0.1952
  110OSM    H7S11279   4.913   0.403   6.948 -0.4257  0.2483 -1.4581
  110OSM    H7T11280   5.095   0.388   6.919 -0.6797 -0.9810  1.9720
  110OSM    C8S11281   4.973   0.475   6.761  0.0249  0.1621  0.8307
  110OSM    H8S11282   5.043   0.556   6.730  0.5747 -0.1274  1.2993
  110OSM    H8T11283   4.871   0.518   6.748 -0.0617 -0.4806 -0.7537
  110OSM    C9S11284   5.004   0.354   6.671  0.4304  1.2963 -0.0125
  110OSM    H9S11285   4.935   0.270   6.695  1.1458  0.3328 -1.2113
  110OSM    H9T11286   5.112   0.331   6.680  0.1302  0.3690  1.6135
  110OSM   C10S11287   4.977   0.371   6.522  0.3264 -0.2009  0.5290
  110OSM   H10S11288   5.030   0.464   6.492  0.3319 -1.0967 -2.5689
  110OSM   H10T11289   4.872   0.401   6.501  0.5546  0.3113  0.1178
  110OSM   C11S11290   5.019   0.258   6.433 -0.0302  0.1677 -0.0154
  110OSM   H11S11291   4.980   0.159   6.464  0.0800  0.3351  0.6560
  110OSM   H11T11292   5.129   0.240   6.435 -0.3654 -2.3142 -0.4796
  110OSM   C12S11293   4.983   0.276   6.288  0.1770  0.0155 -0.9314
  110OSM   H12S11294   4.874   0.260   6.275 -0.3289  2.4325 -0.2166
  110OSM   H12T11295   5.035   0.197   6.230  1.1108 -0.4323  0.4688
  110OSM   C13S11296   5.006   0.415   6.223 -0.3490  0.2221  0.2101
  110OSM   H13S11297   5.115   0.434   6.222 -0.1167 -1.0432  0.2706
  110OSM   H13T11298   4.953   0.496   6.277 -0.5930  2.4357 -3.0550
  110OSM   C14S11299   4.946   0.435   6.084  0.0928 -0.5249  0.7641
  110OSM   H14S11300   4.976   0.534   6.043 -0.7093 -0.8712 -0.7425
  110OSM   H14T11301   4.836   0.441   6.098 -0.0671  0.0197 -0.5502
  110OSM   C15S11302   4.992   0.324   5.988 -0.0023 -0.2216 -0.1017
  110OSM   H15S11303   4.942   0.227   6.011 -1.3154 -0.3321 -3.0005
  110OSM   H15T11304   5.101   0.310   6.003  0.1862 -0.0274 -1.2113
  110OSM   C16S11305   4.958   0.363   5.844 -0.2484  0.6394  0.7538
  110OSM   H16S11306   5.023   0.448   5.817  0.6998 -0.6112 -1.1464
  110OSM   H16T11307   4.854   0.400   5.837 -0.0296  1.2516  0.7166
  110OSM   C17S11308   5.002   0.257   5.739  0.0378 -0.1364 -0.0956
  110OSM   H17S11309   5.097   0.210   5.771  0.0575 -1.8657 -2.5102
  110OSM   H17T11310   5.034   0.295   5.640  2.3478  0.5766  0.8402
  110OSM   C18S11311   4.885   0.158   5.728 -0.1285  0.2411 -0.7617
  110OSM   H18S11312   4.798   0.192   5.667  1.3308  1.3927 -2.3128
  110OSM   H18T11313   4.848   0.123   5.827  0.1392  2.0439  0.0166
  110OSM   H18U11314   4.906   0.062   5.675 -2.1467 -1.3120  1.0451
  110OSM    C1F11315   4.559   0.615   7.279 -0.3573 -0.1339  0.5352
  110OSM     OF11316   4.511   0.701   7.348  0.0571 -0.0299  0.0106
  110OSM    C2F11317   4.478   0.531   7.180 -0.3726 -0.6392 -0.3084
  110OSM    H2F11318   4.380   0.584   7.181  1.1173  2.3272 -0.7673
  110OSM    H2G11319   4.463   0.429   7.221  1.3519 -1.9659 -2.7556
  110OSM    C3F11320   4.527   0.532   7.031  0.5720  1.0994 -0.0258
  110OSM    H3F11321   4.451   0.482   6.968  1.0712  0.6661 -0.2878
  110OSM    H3G11322   4.627   0.484   7.023  0.5078  1.1039 -1.0780
  110OSM    C4F11323   4.540   0.670   6.961  0.4921  0.5015 -0.4711
  110OSM    H4F11324   4.604   0.728   7.031 -0.8403  0.2556  1.0037
  110OSM    H4G11325   4.445   0.727   6.957 -0.7100 -1.4421 -0.9845
  110OSM    C5F11326   4.616   0.661   6.836 -0.1309  0.0839  1.4478
  110OSM    H5F11327   4.574   0.576   6.779  1.3951 -0.1800  0.6536
  110OSM    H5G11328   4.722   0.633   6.851  0.2695  1.0345  0.5391
  110OSM    C6F11329   4.620   0.791   6.750 -0.1399  0.2442 -0.5311
  110OSM    H6F11330   4.634   0.879   6.817 -2.3292 -0.3260  0.7641
  110OSM    H6G11331   4.522   0.812   6.701 -1.0271  0.9342  1.4364
  110OSM    C7F11332   4.726   0.784   6.633  0.0798 -0.3752 -0.4814
  110OSM    H7F11333   4.832   0.778   6.665  0.0075  0.9236  0.0762
  110OSM    H7G11334   4.712   0.890   6.602 -0.6581 -0.7745 -1.5743
  110OSM    C8F11335   4.683   0.691   6.515  0.2054  0.1015  0.7467
  110OSM    H8F11336   4.575   0.713   6.500  0.1643 -0.1704  0.6404
  110OSM    H8G11337   4.708   0.596   6.567 -2.4093 -0.1845  1.6179
  110OSM    C9F11338   4.766   0.709   6.388 -0.5463 -0.0826 -0.3078
  110OSM    H9F11339   4.874   0.690   6.394 -0.4413  0.5020 -0.3339
  110OSM   C10F11340   4.718   0.756   6.271 -0.7771 -0.9569 -0.4867
  110OSM   H10F11341   4.795   0.756   6.193  0.6072  1.8939  0.7197
  110OSM   C11F11342   4.581   0.792   6.221  0.6424  0.2540 -0.3707
  110OSM   H11F11343   4.565   0.895   6.183 -0.8440  0.9836  2.0442
  110OSM   H11G11344   4.504   0.783   6.301  1.8094  2.3522  1.0905
  110OSM   C12F11345   4.542   0.693   6.107  0.0537 -0.5473  0.5298
  110OSM   H12F11346   4.438   0.709   6.071  0.3549 -1.7816 -0.9998
  110OSM   H12G11347   4.541   0.584   6.130 -0.7593 -1.5229 -3.3978
  110OSM   C13F11348   4.615   0.723   5.975  0.1771 -0.4780  0.1884
  110OSM   H13F11349   4.724   0.707   5.978  0.0157 -2.2472 -1.3360
  110OSM   H13G11350   4.609   0.831   5.949  1.8064 -0.0758  1.3243
  110OSM   C14F11351   4.572   0.624   5.867  0.2206  0.0623  0.4950
  110OSM   H14F11352   4.464   0.635   5.844  0.2221 -0.1175  0.4029
  110OSM   H14G11353   4.581   0.518   5.898 -2.3428 -1.3634 -3.0062
  110OSM   C15F11354   4.659   0.636   5.749 -0.9798  0.0012  0.2507
  110OSM   H15F11355   4.759   0.611   5.790 -1.2113 -0.3483  0.6126
  110OSM   H15G11356   4.668   0.739   5.708  0.0824 -0.6277 -1.1569
  110OSM   C16F11357   4.616   0.519   5.650 -0.4698  0.0447 -0.4117
  110OSM   H16F11358   4.523   0.539   5.593 -1.4458 -2.0370  0.3585
  110OSM   H16G11359   4.596   0.429   5.712 -0.5712 -1.1647 -2.1384
  110OSM   C17F11360   4.720   0.466   5.546 -0.8036 -0.4947 -0.3288
  110OSM   H17F11361   4.655   0.391   5.496 -1.4818  0.0244 -0.2402
  110OSM   H17G11362   4.806   0.418   5.598  0.3289  1.2874 -0.4380
  110OSM   C18F11363   4.761   0.577   5.455 -0.3946  0.3383  0.3917
  110OSM   H18F11364   4.820   0.549   5.364 -0.8351  0.9238 -0.0808
  110OSM   H18G11365   4.820   0.654   5.508 -1.0265  0.5573  0.7799
  110OSM   H18H11366   4.671   0.620   5.407  1.4509  1.0215 -2.7664
  111OSM      N11367   6.847   1.609   8.140 -0.5504  0.2377  0.2025
  111OSM    C1511368   6.727   1.550   8.070  0.4691 -0.1535 -0.3656
  111OSM   H15A11369   6.756   1.468   8.006 -0.1714 -0.4040 -0.3458
  111OSM   H15B11370   6.675   1.628   8.016 -0.4518 -0.4896  0.0146
  111OSM   H15C11371   6.664   1.505   8.146  2.6670 -0.2458  1.5181
  111OSM    C1411372   6.800   1.731   8.211 -0.3983  0.6633  0.7000
  111OSM   H14A11373   6.714   1.710   8.273 -1.4749  0.7751 -0.6972
  111OSM   H14B11374   6.765   1.804   8.138 -3.1292  0.3923  1.6068
  111OSM   H14C11375   6.875   1.765   8.281  0.0070 -1.7101  1.4966
  111OSM    C1311376   6.907   1.498   8.228  0.1390 -0.2974 -0.1182
  111OSM   H13A11377   6.832   1.454   8.292  1.3167 -1.9088  0.2200
  111OSM   H13B11378   6.982   1.538   8.295  0.7346 -0.7702 -0.4933
  111OSM   H13C11379   6.964   1.431   8.166  0.2750 -0.0553 -0.2539
  111OSM    C1211380   6.955   1.644   8.036  0.1867 -0.8529 -0.0424
  111OSM   H12A11381   7.037   1.693   8.087 -1.3212 -0.8944  2.5502
  111OSM   H12B11382   6.912   1.721   7.973 -1.4296 -0.4305  1.4967
  111OSM    C1111383   7.014   1.539   7.943  0.3460 -0.3951  0.5277
  111OSM   H11A11384   7.038   1.593   7.849 -2.6714 -2.9443 -1.9606
  111OSM   H11B11385   6.938   1.462   7.917 -1.4983  0.4275  3.0872
  111OSM      P11386   7.166   1.329   7.992  0.1510 -0.0422 -0.2152
  111OSM    O1311387   7.298   1.313   8.054 -0.6195 -0.3655  0.2735
  111OSM    O1411388   7.059   1.251   8.059  0.2391  0.0606 -0.2277
  111OSM    O1111389   7.177   1.302   7.837 -0.0782  0.2620  0.7174
  111OSM    O1211390   7.126   1.478   8.004 -0.3386  0.1286 -0.0573
  111OSM    C1S11391   7.255   1.386   7.751 -0.2667 -0.3314  0.1778
  111OSM    H1S11392   7.357   1.396   7.795 -0.1729 -2.7906  0.6828
  111OSM    H1T11393   7.215   1.489   7.745 -0.6821 -0.5495 -1.1367
  111OSM     NF11394   7.337   1.426   7.519  0.0296 -0.5856 -0.4989
  111OSM    HNF11395   7.294   1.466   7.438  5.1019 -0.6944 -3.7128
  111OSM    C2S11396   7.268   1.333   7.615 -0.1722  0.3993  0.3514
  111OSM    H2S11397   7.334   1.243   7.613 -0.6963 -0.1613  3.4154
  111OSM    C3S11398   7.136   1.274   7.561  0.8576 -0.3726 -0.4816
  111OSM    H3S11399   7.061   1.352   7.537  1.2365 -0.3866 -1.7932
  111OSM     O311400   7.068   1.182   7.648  0.1508 -0.4809 -0.1631
  111OSM    HO311401   7.097   1.211   7.734  1.2431 -0.9722 -0.3488
  111OSM    C4S11402   7.164   1.216   7.419 -0.3595  0.1019 -0.2079
  111OSM    H4S11403   7.156   1.304   7.354 -2.2710  0.6202  0.6489
  111OSM    C5S11404   7.188   1.093   7.378 -0.0272  0.4459 -0.3702
  111OSM    H5S11405   7.184   1.021   7.461  1.7576  2.0523  1.2163
  111OSM    C6S11406   7.197   1.047   7.235 -0.1356 -0.6811 -0.1912
  111OSM    H6S11407   7.101   0.997   7.209 -0.0559 -1.3547  0.7610
  111OSM    H6T11408   7.261   0.957   7.236 -1.7731 -1.8935 -0.2890
  111OSM    C7S11409   7.239   1.153   7.137  0.3811  0.3979  0.0741
  111OSM    H7S11410   7.332   1.207   7.165  0.1533 -0.7696  3.7411
  111OSM    H7T11411   7.156   1.226   7.143 -0.4492 -0.6244  2.1107
  111OSM    C8S11412   7.246   1.098   6.991 -0.2647  0.3736  0.0988
  111OSM    H8S11413   7.146   1.054   6.969 -0.1281 -0.3464  0.8774
  111OSM    H8T11414   7.321   1.016   6.993 -1.1788 -0.4982 -0.4553
  111OSM    C9S11415   7.278   1.197   6.877 -0.1892  0.1194  0.4774
  111OSM    H9S11416   7.387   1.191   6.853 -0.1139  1.9618  0.2006
  111OSM    H9T11417   7.264   1.303   6.906 -1.9784  0.6737 -2.1076
  111OSM   C10S11418   7.192   1.164   6.747 -0.2009  0.4370  0.0364
  111OSM   H10S11419   7.085   1.185   6.770 -0.1784  1.6162 -0.8403
  111OSM   H10T11420   7.208   1.057   6.721 -1.0956 -0.0974  1.5832
  111OSM   C11S11421   7.224   1.248   6.622  0.0520 -1.4921  0.0155
  111OSM   H11S11422   7.326   1.223   6.587  1.0254  1.9067  0.0538
  111OSM   H11T11423   7.222   1.353   6.658  0.3857 -1.0348 -1.2596
  111OSM   C12S11424   7.117   1.236   6.511  0.1716 -0.0266 -0.1692
  111OSM   H12S11425   7.018   1.255   6.557  0.6410  2.1993  0.0289
  111OSM   H12T11426   7.098   1.131   6.483  1.7802  0.1274 -2.0743
  111OSM   C13S11427   7.137   1.317   6.379 -0.4527 -0.1167  0.9429
  111OSM   H13S11428   7.246   1.324   6.359 -0.6390 -0.9870 -0.5212
  111OSM   H13T11429   7.105   1.423   6.388  2.3257  1.2050 -2.3422
  111OSM   C14S11430   7.059   1.259   6.256 -0.2792  0.6909  0.3173
  111OSM   H14S11431   6.956   1.225   6.280  0.5127 -0.8453  1.7735
  111OSM   H14T11432   7.109   1.163   6.232  0.0147  0.3094  2.3092
  111OSM   C15S11433   7.060   1.356   6.134  0.8401 -0.3643  0.0036
  111OSM   H15S11434   7.150   1.354   6.070 -0.0393 -1.9568 -1.2596
  111OSM   H15T11435   7.028   1.458   6.162  0.2567 -0.3295 -0.7651
  111OSM   C16S11436   6.942   1.316   6.037  0.0723 -0.0480 -0.3028
  111OSM   H16S11437   6.842   1.319   6.085 -1.3936  1.6541 -3.1805
  111OSM   H16T11438   6.968   1.213   6.004  1.0991 -0.7125  2.2837
  111OSM   C17S11439   6.923   1.405   5.921  0.2623 -0.0301  0.2925
  111OSM   H17S11440   7.021   1.400   5.869 -0.0866  1.3346 -0.5656
  111OSM   H17T11441   6.916   1.511   5.952  2.2500  0.4756 -0.8066
  111OSM   C18S11442   6.803   1.369   5.830 -0.9676  0.0355  0.9656
  111OSM   H18S11443   6.792   1.454   5.760  1.9530 -0.4185 -0.1933
  111OSM   H18T11444   6.709   1.338   5.880 -1.3480 -0.9269 -0.2881
  111OSM   H18U11445   6.831   1.278   5.773 -1.4897 -1.2572  2.6973
  111OSM    C1F11446   7.457   1.488   7.535  0.5026 -0.0042  0.0361
  111OSM     OF11447   7.526   1.471   7.631  0.2300 -1.1007 -0.1960
  111OSM    C2F11448   7.496   1.571   7.414 -0.5515 -0.2238  0.2550
  111OSM    H2F11449   7.435   1.661   7.391  1.4160  1.2500  0.5131
  111OSM    H2G11450   7.496   1.493   7.335 -0.6634 -0.0115  0.0447
  111OSM    C3F11451   7.645   1.627   7.419 -0.3729  0.2850 -0.9010
  111OSM    H3F11452   7.717   1.544   7.435 -1.6879 -1.3991 -3.0826
  111OSM    H3G11453   7.669   1.694   7.505  2.9229 -1.4559 -0.2897
  111OSM    C4F11454   7.697   1.701   7.298  0.0782 -0.0740  0.3735
  111OSM    H4F11455   7.609   1.761   7.268  0.9633  0.6058 -0.9680
  111OSM    H4G11456   7.720   1.632   7.214 -0.3505  1.5390 -1.1350
  111OSM    C5F11457   7.821   1.793   7.326  0.9704 -0.2159 -0.0395
  111OSM    H5F11458   7.892   1.720   7.371 -0.4526  0.3457  3.3752
  111OSM    H5G11459   7.801   1.862   7.411  0.7731 -1.5884  1.0574
  111OSM    C6F11460   7.873   1.875   7.207  0.2429  0.3735  0.8112
  111OSM    H6F11461   7.798   1.948   7.169 -1.0422 -0.9173  0.8100
  111OSM    H6G11462   7.882   1.800   7.125 -1.2766  1.0267 -0.0050
  111OSM    C7F11463   8.015   1.944   7.230  0.5419 -0.2263  0.0593
  111OSM    H7F11464   8.081   1.860   7.261  0.2067 -0.9300 -1.0506
  111OSM    H7G11465   8.013   2.016   7.314 -2.2323  0.4229 -0.4529
  111OSM    C8F11466   8.072   2.011   7.104 -0.5035  0.6363 -0.3417
  111OSM    H8F11467   8.096   1.944   7.018  0.3991  0.9045 -0.3063
  111OSM    H8G11468   8.170   2.042   7.144 -0.7106  1.1410 -0.2123
  111OSM    C9F11469   7.995   2.126   7.050 -0.9038  0.0422  0.1923
  111OSM    H9F11470   7.914   2.160   7.117 -1.2360 -0.4872  0.0694
  111OSM   C10F11471   8.036   2.215   6.960 -0.3165 -0.0709  0.2027
  111OSM   H10F11472   7.955   2.285   6.934 -0.4126 -0.0332  0.6024
  111OSM   C11F11473   8.155   2.198   6.872  1.3102  0.4463 -0.1585
  111OSM   H11F11474   8.233   2.130   6.915  0.8117 -0.0676 -0.0468
  111OSM   H11G11475   8.202   2.294   6.845 -0.7150  0.9622 -2.1806
  111OSM   C12F11476   8.105   2.146   6.737 -0.1143  0.6013 -0.3481
  111OSM   H12F11477   8.028   2.067   6.753  0.6419  0.2322  1.7647
  111OSM   H12G11478   8.190   2.105   6.679 -0.7194 -1.4661  0.1051
  111OSM   C13F11479   8.062   2.266   6.644  0.1149  0.3739 -0.2313
  111OSM   H13F11480   8.145   2.338   6.629  0.7454 -0.6484 -1.8791
  111OSM   H13G11481   7.975   2.330   6.669  0.7436  1.9619 -1.8453
  111OSM   C14F11482   8.032   2.212   6.507  0.3746  0.0230  0.3708
  111OSM   H14F11483   7.936   2.158   6.520  0.5502 -0.1649  0.9193
  111OSM   H14G11484   8.106   2.133   6.483  2.2421  1.5099  0.9721
  111OSM   C15F11485   8.022   2.323   6.395 -0.4544  0.7343  0.3567
  111OSM   H15F11486   8.118   2.375   6.375 -1.0105  2.7331  2.5080
  111OSM   H15G11487   7.942   2.398   6.411 -0.0522  1.5869 -1.3964
  111OSM   C16F11488   7.976   2.265   6.265  0.3126 -0.0387  0.0622
  111OSM   H16F11489   7.876   2.220   6.287 -0.5707  2.4350  1.4939
  111OSM   H16G11490   8.040   2.184   6.224  0.3462 -0.6868  1.3346
  111OSM   C17F11491   7.953   2.363   6.153 -0.1968  0.4752  0.1621
  111OSM   H17F11492   8.052   2.402   6.122  0.0112 -1.5886 -2.0489
  111OSM   H17G11493   7.887   2.440   6.198  0.5649 -1.4063  4.9972
  111OSM   C18F11494   7.886   2.305   6.026 -0.0837  0.5928  0.0384
  111OSM   H18F11495   7.782   2.270   6.047  0.2262 -3.2388 -3.3814
  111OSM   H18G11496   7.959   2.234   5.982 -0.9578  0.6485 -1.5939
  111OSM   H18H11497   7.858   2.383   5.951 -1.9188 -1.2977 -1.3757
  112OSM      N11498   3.643   6.749   7.604 -0.1515 -0.4370 -0.6156
  112OSM    C1511499   3.592   6.680   7.484  0.5284 -0.3119 -0.0998
  112OSM   H15A11500   3.537   6.751   7.423  0.3733 -0.7782 -0.5074
  112OSM   H15B11501   3.522   6.600   7.503 -1.7357  1.6473  0.2269
  112OSM   H15C11502   3.676   6.636   7.432  1.9913  0.4765  1.5050
  112OSM    C1411503   3.742   6.849   7.564  0.4795  0.2514  0.1042
  112OSM   H14A11504   3.826   6.791   7.529  0.6102 -0.8562  2.0936
  112OSM   H14B11505   3.772   6.918   7.642  2.9646 -0.2209 -0.3480
  112OSM   H14C11506   3.711   6.904   7.476 -1.4645 -0.7260  0.1090
  112OSM    C1311507   3.535   6.825   7.673  0.4992  0.1817 -0.3625
  112OSM   H13A11508   3.454   6.759   7.698 -1.7716  2.7462 -0.5763
  112OSM   H13B11509   3.500   6.899   7.602  2.3234  0.9707 -0.5252
  112OSM   H13C11510   3.563   6.875   7.765 -1.2593 -1.4906  1.1650
  112OSM    C1211511   3.696   6.650   7.702 -0.2326  0.2027 -0.2988
  112OSM   H12A11512   3.614   6.604   7.756 -1.0253  1.7126 -0.1599
  112OSM   H12B11513   3.743   6.705   7.782 -1.7963  0.1723  0.6904
  112OSM    C1111514   3.813   6.551   7.672 -0.0963  0.2260  0.3798
  112OSM   H11A11515   3.783   6.485   7.588  1.1538  1.3790 -1.0270
  112OSM   H11B11516   3.834   6.492   7.764 -0.0117  0.2601  0.3825
  112OSM      P11517   4.056   6.554   7.611 -0.0738  0.3972 -0.2633
  112OSM    O1311518   4.162   6.657   7.597  0.2076  0.9718  0.3915
  112OSM    O1411519   4.070   6.455   7.723 -0.0106  0.4802 -0.0830
  112OSM    O1111520   4.034   6.477   7.476 -0.4679 -0.7053 -0.0990
  112OSM    O1211521   3.925   6.629   7.632  0.4375  0.8209 -0.0037
  112OSM    C1S11522   4.013   6.544   7.353  0.5768  0.4529  0.3711
  112OSM    H1S11523   4.097   6.606   7.316 -0.1745  0.7738 -0.8842
  112OSM    H1T11524   3.913   6.593   7.353  0.3454  0.0770 -1.6915
  112OSM     NF11525   3.995   6.510   7.103 -0.3578  0.6243  0.2916
  112OSM    HNF11526   3.911   6.515   7.050 -0.6312 -0.7938  0.5572
  112OSM    C2S11527   3.990   6.443   7.235  0.2472 -0.0952  0.2906
  112OSM    H2S11528   4.076   6.372   7.235 -1.1511 -1.8594 -0.0566
  112OSM    C3S11529   3.862   6.359   7.263  0.4194 -0.2363  0.1111
  112OSM    H3S11530   3.771   6.423   7.268  0.2171 -0.6237  2.0185
  112OSM     O311531   3.873   6.289   7.390  0.5724  0.3767  0.0308
  112OSM    HO311532   3.949   6.322   7.439 -0.7216  0.7999  1.8552
  112OSM    C4S11533   3.855   6.261   7.150  0.1394  0.2756 -0.4392
  112OSM    H4S11534   3.891   6.161   7.178 -0.3361  0.3630  0.5519
  112OSM    C5S11535   3.764   6.281   7.055 -0.3312  0.3453 -0.2596
  112OSM    H5S11536   3.689   6.359   7.072 -0.9692 -0.8517  3.2608
  112OSM    C6S11537   3.747   6.203   6.923 -0.1441  0.1125 -0.1600
  112OSM    H6S11538   3.645   6.175   6.890 -0.6319  1.8989 -0.2479
  112OSM    H6T11539   3.801   6.106   6.932 -1.8839 -0.8354  0.5996
  112OSM    C7S11540   3.795   6.294   6.806 -0.2523 -0.0212 -0.7690
  112OSM    H7S11541   3.904   6.311   6.801 -0.3762  1.3154  0.4368
  112OSM    H7T11542   3.766   6.401   6.813  1.6478  0.4353  1.3602
  112OSM    C8S11543   3.733   6.248   6.675  0.4847 -0.5626 -0.1705
  112OSM    H8S11544   3.628   6.217   6.692  0.7310 -0.0557  2.6014
  112OSM    H8T11545   3.788   6.157   6.642 -0.1902 -1.1255  0.2373
  112OSM    C9S11546   3.744   6.348   6.550  0.0025 -0.1770  0.0449
  112OSM    H9S11547   3.726   6.298   6.453  0.6228  0.8739 -0.6324
  112OSM    H9T11548   3.853   6.361   6.536 -0.1572  1.0899 -0.1879
  112OSM   C10S11549   3.669   6.483   6.563  0.3348 -0.1661 -0.1677
  112OSM   H10S11550   3.682   6.524   6.666  2.2232  0.8345 -0.7616
  112OSM   H10T11551   3.561   6.463   6.547  0.1515  1.8915 -1.9106
  112OSM   C11S11552   3.722   6.599   6.470  0.4034  0.3849  0.6027
  112OSM   H11S11553   3.724   6.557   6.367  0.4061  0.8246  0.4207
  112OSM   H11T11554   3.824   6.636   6.489  0.2308  1.4175 -0.3522
  112OSM   C12S11555   3.619   6.709   6.467 -0.1596  0.1500  0.0832
  112OSM   H12S11556   3.627   6.774   6.556 -0.1510  0.8906 -0.4550
  112OSM   H12T11557   3.520   6.662   6.486  0.6918 -0.7462  2.6649
  112OSM   C13S11558   3.608   6.787   6.336  0.2846 -0.3394  0.3919
  112OSM   H13S11559   3.707   6.817   6.297  0.7431 -0.7363  1.2077
  112OSM   H13T11560   3.544   6.875   6.360  0.5454  0.0293 -0.2457
  112OSM   C14S11561   3.518   6.712   6.233  0.7274  0.1441  0.3323
  112OSM   H14S11562   3.415   6.719   6.274  0.8300 -2.1915  1.1582
  112OSM   H14T11563   3.542   6.603   6.233 -0.2954 -0.1064  1.4831
  112OSM   C15S11564   3.513   6.769   6.090  0.6074 -0.5868 -0.9406
  112OSM   H15S11565   3.607   6.749   6.035  3.1677 -0.9808  3.1401
  112OSM   H15T11566   3.507   6.878   6.111  3.4058 -0.4266 -0.5664
  112OSM   C16S11567   3.393   6.725   6.016  0.2446  0.9517  0.0022
  112OSM   H16S11568   3.300   6.710   6.074  0.4386  0.8656  0.2909
  112OSM   H16T11569   3.415   6.622   5.981 -1.8454  0.8692 -1.2224
  112OSM   C17S11570   3.378   6.809   5.885  0.0969 -0.3462  0.5409
  112OSM   H17S11571   3.424   6.907   5.910  0.4565 -0.0930 -0.9950
  112OSM   H17T11572   3.275   6.844   5.864 -0.7230 -1.6670  2.1548
  112OSM   C18S11573   3.442   6.744   5.759 -0.1278 -0.9409  0.4944
  112OSM   H18S11574   3.530   6.679   5.778 -0.2675 -2.1235 -2.4253
  112OSM   H18T11575   3.469   6.823   5.686 -0.0672  0.6538  2.1714
  112OSM   H18U11576   3.364   6.680   5.713 -0.4190  0.1985 -0.6549
  112OSM    C1F11577   4.108   6.555   7.044 -0.3745  0.1661 -0.0652
  112OSM     OF11578   4.221   6.547   7.099  0.2808 -0.0984  0.0475
  112OSM    C2F11579   4.099   6.595   6.902  0.1311  0.1415  0.7624
  112OSM    H2F11580   4.002   6.570   6.855 -0.8591  0.8149  2.3640
  112OSM    H2G11581   4.179   6.543   6.845  0.3692  1.6129 -0.3015
  112OSM    C3F11582   4.096   6.753   6.883  0.7173  0.3285  0.0799
  112OSM    H3F11583   4.182   6.800   6.934  0.5354  0.3508  0.3691
  112OSM    H3G11584   4.000   6.786   6.928  0.5997 -0.8613  0.7614
  112OSM    C4F11585   4.113   6.791   6.737 -0.4054 -0.1951  0.1834
  112OSM    H4F11586   4.088   6.899   6.742 -3.2946 -0.6501 -1.5986
  112OSM    H4G11587   4.034   6.741   6.676  0.4735 -0.1492 -1.0182
  112OSM    C5F11588   4.250   6.768   6.676 -0.4917  0.3709 -0.1828
  112OSM    H5F11589   4.301   6.681   6.721  1.0817 -0.8802 -3.9178
  112OSM    H5G11590   4.316   6.846   6.719  1.8277 -0.6297 -1.6731
  112OSM    C6F11591   4.246   6.757   6.530 -0.2464 -0.1843 -0.3468
  112OSM    H6F11592   4.219   6.655   6.495 -0.0705 -0.6921  0.9533
  112OSM    H6G11593   4.352   6.757   6.496  0.6183 -0.3249  2.1735
  112OSM    C7F11594   4.149   6.857   6.467  0.0998 -0.0947  0.2173
  112OSM    H7F11595   4.179   6.957   6.504 -1.2836  0.7691 -0.8742
  112OSM    H7G11596   4.041   6.844   6.490  0.1799  0.6894  1.0823
  112OSM    C8F11597   4.163   6.868   6.315 -0.5743  0.5518 -0.1956
  112OSM    H8F11598   4.121   6.779   6.263  1.6543 -0.1836 -0.8880
  112OSM    H8G11599   4.274   6.873   6.307 -0.6259  1.8866 -0.2688
  112OSM    C9F11600   4.080   6.989   6.278  0.3236 -0.1932 -0.5717
  112OSM    H9F11601   4.102   7.073   6.346 -0.2926  1.4308 -2.3034
  112OSM   C10F11602   3.991   7.003   6.179  0.7948 -0.7059  0.0582
  112OSM   H10F11603   3.937   7.098   6.177  1.5035 -0.1274  2.9437
  112OSM   C11F11604   3.942   6.907   6.073 -0.0939  0.0335  0.5493
  112OSM   H11F11605   3.837   6.883   6.098 -0.1346 -1.1837 -0.7048
  112OSM   H11G11606   3.999   6.812   6.081  0.1008 -0.0181 -1.0976
  112OSM   C12F11607   3.948   6.962   5.929 -0.7422  0.1681  0.5153
  112OSM   H12F11608   4.052   6.997   5.912 -0.2098 -1.2176  0.7233
  112OSM   H12G11609   3.878   7.045   5.906  0.0208  0.9360  0.9029
  112OSM   C13F11610   3.926   6.843   5.828  0.4646  0.0358  0.0599
  112OSM   H13F11611   3.824   6.800   5.837 -0.0290  1.2210  0.3078
  112OSM   H13G11612   4.000   6.761   5.842  0.2875 -0.4381 -1.5727
  112OSM   C14F11613   3.941   6.883   5.678 -0.3586 -0.0336 -1.3558
  112OSM   H14F11614   3.921   6.791   5.619  0.1559 -0.0960 -1.4414
  112OSM   H14G11615   4.048   6.912   5.669  0.8194 -1.5693  4.0773
  112OSM   C15F11616   3.844   6.988   5.638  0.0641  0.3531 -0.2475
  112OSM   H15F11617   3.861   7.075   5.705 -0.4563  0.3940 -0.1646
  112OSM   H15G11618   3.735   6.966   5.643 -0.3550  1.9709 -1.3193
  112OSM   C16F11619   3.866   7.041   5.495  0.0266  0.6384 -0.4597
  112OSM   H16F11620   3.855   6.955   5.426  3.6690  0.0345 -0.5008
  112OSM   H16G11621   3.971   7.072   5.476  0.5417 -1.2185 -0.8557
  112OSM   C17F11622   3.766   7.147   5.462  0.8585 -0.1186 -0.3426
  112OSM   H17F11623   3.747   7.228   5.535 -0.2140  0.2370 -0.9906
  112OSM   H17G11624   3.667   7.097   5.454  0.1422  1.2438 -0.3061
  112OSM   C18F11625   3.786   7.216   5.324 -0.5219 -0.4999 -0.8980
  112OSM   H18F11626   3.705   7.286   5.295 -0.0285  1.9521  2.9603
  112OSM   H18G11627   3.777   7.133   5.250 -0.8339 -0.1167 -1.2907
  112OSM   H18H11628   3.885   7.266   5.314 -1.0868  0.3188 -2.8114
  113OSM      N11629   0.255   6.036   7.666 -0.1275  0.5217  0.9716
  113OSM    C1511630   0.120   5.957   7.660 -0.0398 -0.4683  0.0300
  113OSM   H15A11631   0.076   5.947   7.758  1.1302 -2.8754  0.3931
  113OSM   H15B11632   0.136   5.855   7.628  2.0909 -0.7199  1.6633
  113OSM   H15C11633   0.045   5.997   7.593  0.4255 -0.1724 -0.3259
  113OSM    C1411634   0.229   6.163   7.734 -0.0192 -0.4156 -0.1496
  113OSM   H14A11635   0.317   6.221   7.757 -1.4223  0.7955  2.5771
  113OSM   H14B11636   0.167   6.153   7.821  1.2235 -2.8584  0.5378
  113OSM   H14C11637   0.174   6.229   7.667  1.0512  1.7682  1.0020
  113OSM    C1311638   0.344   5.950   7.750  0.1947  0.0253  0.9125
  113OSM   H13A11639   0.306   5.948   7.851  0.4541 -1.4428  1.0105
  113OSM   H13B11640   0.440   5.999   7.758 -0.3819  1.2962  0.2481
  113OSM   H13C11641   0.358   5.851   7.707  0.9916  0.0279  1.1450
  113OSM    C1211642   0.305   6.051   7.524 -0.2687  0.8343  0.3601
  113OSM   H12A11643   0.386   6.123   7.537  0.9554 -0.5983  0.9759
  113OSM   H12B11644   0.221   6.092   7.470 -0.7917 -0.4661  0.1595
  113OSM    C1111645   0.357   5.923   7.452 -0.3736  0.0002 -0.0517
  113OSM   H11A11646   0.443   5.893   7.514 -0.5925  0.4578  0.4864
  113OSM   H11B11647   0.383   5.943   7.346  0.2824 -2.3599 -0.3936
  113OSM      P11648   0.283   5.685   7.401 -0.3465  0.3926  0.2428
  113OSM    O1311649   0.308   5.701   7.257  0.1183 -0.7526 -0.3110
  113OSM    O1411650   0.377   5.598   7.467 -0.2005  0.5131 -0.2429
  113OSM    O1111651   0.145   5.614   7.409 -0.3277 -0.4012  0.2765
  113OSM    O1211652   0.257   5.828   7.462  0.0951 -0.2846  0.8775
  113OSM    C1S11653   0.016   5.662   7.366 -0.2450  0.3677 -0.0201
  113OSM    H1S11654   0.000   5.772   7.366  2.1643  0.8060  1.8225
  113OSM    H1T11655  -0.066   5.621   7.429 -0.6119  0.4925 -0.4100
  113OSM     NF11656  -0.132   5.658   7.172  0.8004  0.1751 -0.3455
  113OSM    HNF11657  -0.209   5.596   7.188  1.8260 -0.6396  1.7692
  113OSM    C2S11658  -0.010   5.606   7.225 -0.0933  0.2650  0.4665
  113OSM    H2S11659   0.069   5.651   7.162  0.9183 -1.2914  0.5750
  113OSM    C3S11660  -0.010   5.453   7.212  0.0158  0.4478 -0.0241
  113OSM    H3S11661  -0.089   5.408   7.276 -0.5826 -1.1457 -1.7780
  113OSM     O311662   0.108   5.386   7.265 -0.4520 -0.1165 -0.3422
  113OSM    HO311663   0.163   5.456   7.303  0.9052 -2.3678  2.1553
  113OSM    C4S11664  -0.037   5.395   7.082  0.1355  0.3249  0.3992
  113OSM    H4S11665   0.023   5.432   6.997  0.1700 -0.1115  0.2282
  113OSM    C5S11666  -0.126   5.295   7.054  0.4855  0.0755 -0.0158
  113OSM    H5S11667  -0.197   5.271   7.134  1.3809 -0.4649  0.6459
  113OSM    C6S11668  -0.168   5.242   6.919  0.0556  0.1712  0.1848
  113OSM    H6S11669  -0.219   5.144   6.933  0.7168  0.0097  1.7011
  113OSM    H6T11670  -0.079   5.218   6.857 -0.7752 -3.1862  0.0823
  113OSM    C7S11671  -0.248   5.348   6.836  0.7600  0.1670  0.5448
  113OSM    H7S11672  -0.183   5.436   6.817  1.4180 -0.4576 -0.1479
  113OSM    H7T11673  -0.344   5.378   6.885  0.5627 -0.2697  0.4314
  113OSM    C8S11674  -0.291   5.315   6.693 -0.0266 -0.3591 -0.0672
  113OSM    H8S11675  -0.329   5.211   6.697 -0.0287 -0.4056 -1.0409
  113OSM    H8T11676  -0.207   5.314   6.621 -0.1770 -1.0246 -0.2365
  113OSM    C9S11677  -0.409   5.393   6.636 -0.0958 -0.3961 -0.1388
  113OSM    H9S11678  -0.487   5.368   6.711  0.7428 -0.0289  0.8616
  113OSM    H9T11679  -0.434   5.359   6.533 -2.0240 -1.5159  0.6345
  113OSM   C10S11680  -0.380   5.547   6.622 -0.0584  0.0968  0.9095
  113OSM   H10S11681  -0.271   5.567   6.608 -0.1134  0.5303  1.0904
  113OSM   H10T11682  -0.421   5.615   6.699  0.1012  0.1630  0.9373
  113OSM   C11S11683  -0.437   5.607   6.488  0.0053  0.3133 -0.3023
  113OSM   H11S11684  -0.548   5.611   6.496  0.1130  0.2600  2.0577
  113OSM   H11T11685  -0.416   5.534   6.407  1.0367  1.5284 -1.1489
  113OSM   C12S11686  -0.388   5.740   6.442 -0.5192  1.0285 -0.3147
  113OSM   H12S11687  -0.281   5.739   6.410  0.1877 -2.5520  1.6020
  113OSM   H12T11688  -0.384   5.810   6.528  1.0043 -0.2640  0.7085
  113OSM   C13S11689  -0.472   5.790   6.322 -0.0988 -0.7751 -0.1219
  113OSM   H13S11690  -0.442   5.895   6.302 -0.5470 -0.5630  0.3190
  113OSM   H13T11691  -0.580   5.795   6.347  0.0193 -0.1034  0.2829
  113OSM   C14S11692  -0.455   5.706   6.196 -0.5516  0.0053  1.3482
  113OSM   H14S11693  -0.471   5.597   6.216 -0.5001 -0.6055 -1.4349
  113OSM   H14T11694  -0.351   5.718   6.159 -0.6060  1.9333  1.7369
  113OSM   C15S11695  -0.557   5.740   6.079 -0.1925  0.2212 -0.2852
  113OSM   H15S11696  -0.571   5.850   6.070 -1.0976  0.1805  0.5302
  113OSM   H15T11697  -0.659   5.701   6.097 -0.1519 -0.3493 -1.2498
  113OSM   C16S11698  -0.493   5.695   5.945 -0.4440 -0.2353  0.3774
  113OSM   H16S11699  -0.471   5.586   5.942 -0.2908 -0.1858 -0.4013
  113OSM   H16T11700  -0.394   5.745   5.942 -0.5893  0.0252 -0.2384
  113OSM   C17S11701  -0.567   5.729   5.817  0.6141 -2.0484 -0.5212
  113OSM   H17S11702  -0.578   5.839   5.820 -0.8247 -2.1077 -1.9076
  113OSM   H17T11703  -0.668   5.684   5.830 -0.5413  0.8856  1.6871
  113OSM   C18S11704  -0.491   5.705   5.684 -0.1958 -0.0275  0.6150
  113OSM   H18S11705  -0.457   5.601   5.667 -1.3309 -0.4289  0.7638
  113OSM   H18T11706  -0.398   5.765   5.673  0.0265 -0.5958 -0.7488
  113OSM   H18U11707  -0.553   5.738   5.598 -0.0670 -0.8022  0.2223
  113OSM    C1F11708  -0.153   5.779   7.139 -0.5290 -0.2426 -0.3368
  113OSM     OF11709  -0.056   5.856   7.134  0.4031 -0.1909 -0.5306
  113OSM    C2F11710  -0.292   5.821   7.109 -0.1237 -0.3886 -0.2291
  113OSM    H2F11711  -0.368   5.794   7.186 -2.4495 -1.1046 -2.6370
  113OSM    H2G11712  -0.317   5.772   7.013 -2.7381 -0.7847  0.5634
  113OSM    C3F11713  -0.298   5.973   7.091 -0.0183  0.8393  0.4920
  113OSM    H3F11714  -0.224   6.020   7.023 -3.3577  0.7972 -3.6038
  113OSM    H3G11715  -0.285   6.017   7.192 -2.4903 -1.9841  2.2252
  113OSM    C4F11716  -0.440   6.004   7.042  0.2058 -0.1599  0.3729
  113OSM    H4F11717  -0.510   5.942   7.103 -1.2666 -0.3189 -1.3859
  113OSM    H4G11718  -0.454   5.972   6.937  0.3968 -1.0072  0.6012
  113OSM    C5F11719  -0.487   6.154   7.056 -0.0451  0.6028  0.4004
  113OSM    H5F11720  -0.461   6.183   7.160 -0.8416  0.5440  0.6262
  113OSM    H5G11721  -0.597   6.170   7.052 -0.2889 -0.3681  2.2832
  113OSM    C6F11722  -0.431   6.257   6.959 -1.0514  0.4662 -1.8023
  113OSM    H6F11723  -0.325   6.231   6.941 -0.5623  0.2565  0.8870
  113OSM    H6G11724  -0.438   6.357   7.007  3.0363  0.6747 -1.2590
  113OSM    C7F11725  -0.501   6.256   6.827 -0.4133 -0.0577 -0.7489
  113OSM    H7F11726  -0.523   6.363   6.809  0.1163  0.3801  0.9652
  113OSM    H7G11727  -0.599   6.207   6.848  0.1493 -1.0182 -0.2643
  113OSM    C8F11728  -0.428   6.185   6.710  0.3219 -0.2248 -0.3163
  113OSM    H8F11729  -0.393   6.085   6.743  1.7446  1.1713  2.8432
  113OSM    H8G11730  -0.332   6.233   6.682  1.0788 -2.1799 -1.2716
  113OSM    C9F11731  -0.524   6.175   6.597 -1.0600  0.6968 -0.7004
  113OSM    H9F11732  -0.628   6.186   6.632 -0.6198  1.7409  0.3321
  113OSM   C10F11733  -0.495   6.170   6.462 -0.1214 -0.3884 -0.7043
  113OSM   H10F11734  -0.576   6.178   6.388 -0.6287  0.6649 -0.0531
  113OSM   C11F11735  -0.354   6.178   6.406  0.0556 -0.9958 -0.1838
  113OSM   H11F11736  -0.311   6.077   6.391  0.2447 -0.5300 -3.9001
  113OSM   H11G11737  -0.284   6.224   6.478  0.9279 -1.0789 -0.9525
  113OSM   C12F11738  -0.346   6.247   6.268 -0.1285  1.1541 -0.9714
  113OSM   H12F11739  -0.246   6.283   6.235  1.0712 -0.5045  0.6764
  113OSM   H12G11740  -0.402   6.343   6.265 -0.9642  0.7412  0.5308
  113OSM   C13F11741  -0.406   6.158   6.156  0.4890 -0.0602  0.7882
  113OSM   H13F11742  -0.504   6.129   6.200  0.0348 -2.7940 -1.7197
  113OSM   H13G11743  -0.343   6.068   6.141 -0.8201 -0.7732 -0.7625
  113OSM   C14F11744  -0.419   6.228   6.019  0.1937  0.4519  0.4955
  113OSM   H14F11745  -0.317   6.249   5.980  0.3109 -3.1263 -1.5137
  113OSM   H14G11746  -0.470   6.325   6.038 -0.8388 -0.0753  0.4857
  113OSM   C15F11747  -0.496   6.150   5.912  0.2009  0.4121 -0.3951
  113OSM   H15F11748  -0.604   6.164   5.932  0.9459  3.1522  2.4434
  113OSM   H15G11749  -0.481   6.041   5.928 -2.0054  0.4237  2.6342
  113OSM   C16F11750  -0.464   6.206   5.776 -0.0018  0.6033 -0.0609
  113OSM   H16F11751  -0.470   6.317   5.775 -0.4049  0.5857 -1.1031
  113OSM   H16G11752  -0.552   6.185   5.711 -1.1954 -2.0087  2.1848
  113OSM   C17F11753  -0.333   6.157   5.707  0.0554  0.0437  0.4656
  113OSM   H17F11754  -0.317   6.049   5.727 -2.4276 -0.6277 -0.7360
  113OSM   H17G11755  -0.247   6.213   5.749  0.2268  0.5385 -0.5409
  113OSM   C18F11756  -0.340   6.183   5.553 -0.2046 -0.4503 -0.5707
  113OSM   H18F11757  -0.246   6.141   5.511  0.8613 -1.1581  2.2422
  113OSM   H18G11758  -0.350   6.292   5.535  2.5676  0.2882  1.5999
  113OSM   H18H11759  -0.420   6.118   5.511  2.8687 -3.8636 -1.6782
  114OSM      N11760   5.307   6.019   7.763  0.0131 -0.3568  0.1302
  114OSM    C1511761   5.406   5.982   7.870 -0.3608  0.2065  0.3337
  114OSM   H15A11762   5.351   5.930   7.947 -3.3911  0.4883 -1.4687
  114OSM   H15B11763   5.459   6.070   7.902  1.6076 -0.5296 -0.6846
  114OSM   H15C11764   5.482   5.918   7.826 -1.0207 -1.1716  1.1243
  114OSM    C1411765   5.197   6.107   7.819  0.9199 -0.2983 -0.8603
  114OSM   H14A11766   5.146   6.056   7.899 -0.6879 -0.4039 -1.9056
  114OSM   H14B11767   5.119   6.149   7.757 -0.5638 -2.7769 -0.7883
  114OSM   H14C11768   5.242   6.195   7.863 -3.1258  1.3062  0.4664
  114OSM    C1311769   5.384   6.094   7.656 -0.1364 -0.0518  0.2432
  114OSM   H13A11770   5.453   6.028   7.605 -0.6699  0.4315 -1.1609
  114OSM   H13B11771   5.442   6.171   7.706  0.5224 -0.9201  0.8531
  114OSM   H13C11772   5.320   6.134   7.580 -0.0778 -2.0379 -0.9223
  114OSM    C1211773   5.237   5.902   7.699 -0.2367  0.6148  0.0581
  114OSM   H12A11774   5.183   5.931   7.609 -1.0573 -0.0429  0.3217
  114OSM   H12B11775   5.152   5.870   7.757 -0.1386  1.8577  0.9207
  114OSM    C1111776   5.317   5.787   7.649  0.1042 -0.5307  0.3982
  114OSM   H11A11777   5.242   5.718   7.607  1.0567 -1.4880  0.2154
  114OSM   H11B11778   5.365   5.732   7.732  1.7332 -0.2664 -0.3232
  114OSM      P11779   5.554   5.791   7.533 -0.1924  0.0166 -0.5409
  114OSM    O1311780   5.628   5.919   7.545  0.6562 -0.3527  0.3542
  114OSM    O1411781   5.590   5.674   7.617 -0.4190 -0.2411  0.0514
  114OSM    O1111782   5.571   5.739   7.389  0.4996  0.5101  0.4578
  114OSM    O1211783   5.403   5.821   7.538  0.2951 -0.3655 -0.8636
  114OSM    C1S11784   5.473   5.640   7.346 -0.1029  0.4134 -0.2841
  114OSM    H1S11785   5.373   5.689   7.344 -0.2905  0.1448  1.1399
  114OSM    H1T11786   5.460   5.555   7.416  0.2348  0.7325  0.1744
  114OSM     NF11787   5.368   5.562   7.140  0.2133  0.2513 -0.2916
  114OSM    HNF11788   5.343   5.466   7.154 -0.3554  0.7454  2.7883
  114OSM    C2S11789   5.495   5.602   7.199 -0.1127 -0.2772  0.2693
  114OSM    H2S11790   5.519   5.700   7.152 -0.0282 -0.0397  0.7978
  114OSM    C3S11791   5.610   5.505   7.191  0.0072  0.0440  0.2360
  114OSM    H3S11792   5.576   5.411   7.238  0.4266  0.4688  1.4136
  114OSM     O311793   5.722   5.563   7.258 -0.3118 -0.0045  0.0205
  114OSM    HO311794   5.669   5.634   7.295 -0.8987  0.1865 -1.1693
  114OSM    C4S11795   5.652   5.475   7.050  0.0381 -0.2982  0.0689
  114OSM    H4S11796   5.736   5.536   7.012 -2.0492  0.9916 -2.8574
  114OSM    C5S11797   5.616   5.369   6.978 -0.1995 -0.2216 -0.0399
  114OSM    H5S11798   5.566   5.297   7.044 -2.4940  2.4802  1.3608
  114OSM    C6S11799   5.688   5.334   6.849 -0.0841  0.4495  0.2444
  114OSM    H6S11800   5.628   5.370   6.762 -0.7241 -0.9540  0.0761
  114OSM    H6T11801   5.688   5.223   6.835 -1.1985  0.5661 -0.9406
  114OSM    C7S11802   5.831   5.383   6.828 -0.0090 -0.6139 -0.2215
  114OSM    H7S11803   5.893   5.350   6.914 -0.9617 -1.1034  0.3027
  114OSM    H7T11804   5.824   5.493   6.836 -0.5273 -0.5368 -1.4506
  114OSM    C8S11805   5.895   5.333   6.697 -0.2801  0.1471 -0.7295
  114OSM    H8S11806   5.873   5.225   6.682  3.1579 -0.7009 -0.5533
  114OSM    H8T11807   6.004   5.348   6.707 -0.6097  2.2387  0.2079
  114OSM    C9S11808   5.854   5.406   6.566  0.6588  0.4565  0.7585
  114OSM    H9S11809   5.856   5.515   6.584 -0.3970  0.3734  1.4981
  114OSM    H9T11810   5.751   5.380   6.534  1.4322 -3.1261  0.6453
  114OSM   C10S11811   5.942   5.380   6.435 -0.3371 -0.7090  0.0871
  114OSM   H10S11812   5.942   5.275   6.399  0.5088 -1.0943  1.1498
  114OSM   H10T11813   6.046   5.405   6.465  0.5215 -0.1207 -3.0519
  114OSM   C11S11814   5.901   5.478   6.321 -0.3233  0.3828  0.6770
  114OSM   H11S11815   5.853   5.569   6.363 -0.3402  1.4762 -1.5252
  114OSM   H11T11816   5.820   5.426   6.265  0.7080 -1.9856  1.2560
  114OSM   C12S11817   6.010   5.509   6.217 -0.1436  0.4900  0.5841
  114OSM   H12S11818   6.069   5.417   6.199  1.7585  1.7533 -0.0043
  114OSM   H12T11819   6.084   5.572   6.269  2.9884 -1.9998 -0.5437
  114OSM   C13S11820   5.963   5.568   6.086  0.4308  0.7532  0.3347
  114OSM   H13S11821   6.047   5.610   6.026 -1.2503  0.5529 -2.3019
  114OSM   H13T11822   5.895   5.654   6.101  1.4265  1.2018  2.6569
  114OSM   C14S11823   5.907   5.454   5.993 -0.0335  0.2317 -0.3350
  114OSM   H14S11824   5.834   5.392   6.050  1.7231 -1.9460 -0.3055
  114OSM   H14T11825   5.996   5.391   5.971  0.3987  0.9981 -0.8035
  114OSM   C15S11826   5.830   5.502   5.868 -0.0625  0.3508  0.6132
  114OSM   H15S11827   5.735   5.551   5.897 -0.6846 -0.9746  0.8817
  114OSM   H15T11828   5.808   5.406   5.818  1.0907 -0.8345  2.2738
  114OSM   C16S11829   5.912   5.600   5.786  0.3017  0.4272  0.5222
  114OSM   H16S11830   6.016   5.563   5.797 -0.5743 -1.6124  2.8619
  114OSM   H16T11831   5.915   5.706   5.820  1.3797  1.3599 -2.1513
  114OSM   C17S11832   5.885   5.585   5.630 -0.2289  0.1696 -0.7238
  114OSM   H17S11833   5.779   5.594   5.599 -0.5481 -0.7762  0.0400
  114OSM   H17T11834   5.904   5.477   5.610  1.2016  0.3170 -0.3337
  114OSM   C18S11835   5.993   5.662   5.552 -0.8664 -0.8353 -0.3591
  114OSM   H18S11836   5.995   5.770   5.580  0.6394 -1.0363  0.4268
  114OSM   H18T11837   5.965   5.659   5.444  0.5114  1.7397 -0.8776
  114OSM   H18U11838   6.094   5.619   5.572 -0.4530  1.0734  2.0623
  114OSM    C1F11839   5.289   5.642   7.081 -0.1430  0.1682 -0.1166
  114OSM     OF11840   5.333   5.757   7.067 -0.0191  0.2082  0.4476
  114OSM    C2F11841   5.155   5.590   7.035  0.5311  0.2409  0.6147
  114OSM    H2F11842   5.106   5.549   7.126  0.6379 -1.3469 -0.0218
  114OSM    H2G11843   5.163   5.505   6.965 -2.0199 -0.2058  0.7985
  114OSM    C3F11844   5.058   5.700   6.977  0.0633 -0.6571  0.1710
  114OSM    H3F11845   5.109   5.784   6.925 -1.6339  1.3723  1.5962
  114OSM    H3G11846   5.013   5.756   7.062  0.0818 -1.5176  0.7688
  114OSM    C4F11847   4.948   5.649   6.887  0.1143 -0.0291 -0.3220
  114OSM    H4F11848   4.863   5.720   6.885 -0.5611 -0.7962  0.3781
  114OSM    H4G11849   4.917   5.554   6.936 -0.0863  1.5711  2.8868
  114OSM    C5F11850   4.981   5.635   6.737 -0.3037 -0.3140 -0.7813
  114OSM    H5F11851   5.054   5.552   6.731 -1.6381 -1.4898 -1.1790
  114OSM    H5G11852   5.029   5.719   6.683 -0.2206  0.0433 -0.1647
  114OSM    C6F11853   4.872   5.575   6.649  0.4005  0.2976 -0.3454
  114OSM    H6F11854   4.805   5.658   6.617  1.0571  0.3600 -1.6230
  114OSM    H6G11855   4.802   5.507   6.701  0.4020 -1.1600 -2.1412
  114OSM    C7F11856   4.919   5.494   6.517  0.1851  0.0556 -0.3302
  114OSM    H7F11857   4.991   5.418   6.556 -0.7859 -1.4311 -1.3422
  114OSM    H7G11858   4.969   5.566   6.448 -0.3136  2.7986  1.9713
  114OSM    C8F11859   4.800   5.413   6.451  0.1299  0.5452 -0.0337
  114OSM    H8F11860   4.745   5.363   6.534 -1.4983 -0.9356 -1.9016
  114OSM    H8G11861   4.829   5.340   6.372 -1.2633 -0.3815  0.2752
  114OSM    C9F11862   4.695   5.512   6.406  0.5474  0.4088  0.0592
  114OSM    H9F11863   4.631   5.552   6.486 -0.6211 -1.4214  0.0787
  114OSM   C10F11864   4.675   5.538   6.275 -0.5429  0.1244  0.1244
  114OSM   H10F11865   4.593   5.607   6.250  0.2610  0.9331 -0.3765
  114OSM   C11F11866   4.749   5.483   6.159  0.2402 -0.5838  0.1239
  114OSM   H11F11867   4.856   5.460   6.179  0.3333  0.5839  1.0713
  114OSM   H11G11868   4.759   5.570   6.090 -1.4868 -0.4246  0.0340
  114OSM   C12F11869   4.669   5.377   6.081  0.0864 -0.5128 -0.3767
  114OSM   H12F11870   4.581   5.432   6.040 -0.5480 -0.6953  0.7117
  114OSM   H12G11871   4.629   5.288   6.134 -0.3692  0.6142  1.2453
  114OSM   C13F11872   4.745   5.329   5.951  0.3208  0.1821  0.4449
  114OSM   H13F11873   4.682   5.244   5.917  0.4666 -0.8806  2.6589
  114OSM   H13G11874   4.838   5.280   5.985 -0.5971 -0.7678  1.7043
  114OSM   C14F11875   4.753   5.427   5.835  0.4737  0.1206 -0.1431
  114OSM   H14F11876   4.840   5.496   5.836 -0.9163  2.0480 -2.4009
  114OSM   H14G11877   4.653   5.475   5.833 -0.8059 -2.4418 -0.7103
  114OSM   C15F11878   4.769   5.351   5.701  0.3588 -0.2332  0.6588
  114OSM   H15F11879   4.674   5.294   5.695 -1.0505  2.1073 -1.1464
  114OSM   H15G11880   4.855   5.283   5.717 -1.0306 -1.8353  1.6805
  114OSM   C16F11881   4.763   5.451   5.582 -0.8974  0.3673  0.3064
  114OSM   H16F11882   4.859   5.507   5.589 -0.3521 -0.7342  2.8701
  114OSM   H16G11883   4.682   5.526   5.585 -0.1763  1.1328  1.9980
  114OSM   C17F11884   4.766   5.387   5.442  0.3625  0.3907  0.1474
  114OSM   H17F11885   4.864   5.334   5.439  0.2318  0.0873  0.9764
  114OSM   H17G11886   4.755   5.466   5.365 -1.0025  0.6678  0.5900
  114OSM   C18F11887   4.651   5.287   5.414 -0.0479 -0.3594  0.2367
  114OSM   H18F11888   4.629   5.216   5.497 -3.4323 -0.1261 -0.3496
  114OSM   H18G11889   4.666   5.229   5.321 -0.4181 -1.4775  0.8610
  114OSM   H18H11890   4.553   5.334   5.392 -0.2162 -0.7691  0.1220
  115OSM      N11891   5.836   6.769   7.660 -0.4407 -0.4751  0.2049
  115OSM    C1511892   5.689   6.790   7.663  0.0661  0.4594 -0.1181
  115OSM   H15A11893   5.651   6.889   7.642 -0.7384  0.1321 -0.2512
  115OSM   H15B11894   5.639   6.751   7.751 -0.8308 -0.5715 -1.0660
  115OSM   H15C11895   5.643   6.733   7.584 -1.1464 -0.1841  1.0050
  115OSM    C1411896   5.877   6.838   7.786  0.0588  0.6011  1.0994
  115OSM   H14A11897   5.856   6.944   7.779  0.2638  0.6087  0.5325
  115OSM   H14B11898   5.984   6.831   7.797  0.0532 -0.4942  0.5613
  115OSM   H14C11899   5.827   6.803   7.875 -1.8646  0.2883 -0.0441
  115OSM    C1311900   5.867   6.620   7.675  0.0811  0.8301  0.5810
  115OSM   H13A11901   5.832   6.567   7.589 -0.7403  1.5784  0.4397
  115OSM   H13B11902   5.828   6.585   7.770  0.1046  0.3556  0.4136
  115OSM   H13C11903   5.974   6.604   7.682 -0.1526 -1.5669 -0.5358
  115OSM    C1211904   5.889   6.829   7.526  0.7597 -0.4695  0.4194
  115OSM   H12A11905   5.808   6.812   7.458 -0.3251 -2.6345  2.1084
  115OSM   H12B11906   5.963   6.763   7.483  0.2823  0.1245 -1.3809
  115OSM    C1111907   5.938   6.975   7.524  0.0154 -0.3610 -0.2109
  115OSM   H11A11908   5.951   7.013   7.421  0.7570 -1.4711 -0.5331
  115OSM   H11B11909   6.038   6.958   7.570 -0.2324 -2.1546 -0.2831
  115OSM      P11910   5.738   7.142   7.572 -0.0684 -0.3164 -0.1923
  115OSM    O1311911   5.631   7.102   7.667  0.5842  0.0598 -0.6320
  115OSM    O1411912   5.775   7.286   7.562 -0.1620  0.3882  0.3628
  115OSM    O1111913   5.693   7.099   7.430  0.6906 -0.2546  0.3872
  115OSM    O1211914   5.866   7.066   7.611  0.3180 -0.3320  0.2568
  115OSM    C1S11915   5.651   7.192   7.328  0.0830  0.9380  0.3137
  115OSM    H1S11916   5.681   7.295   7.356 -0.0533  0.6148  1.7431
  115OSM    H1T11917   5.540   7.193   7.336  0.0635  1.4518 -0.0163
  115OSM     NF11918   5.742   7.246   7.101 -0.5796  0.1822  0.4260
  115OSM    HNF11919   5.678   7.262   7.027  1.5158  1.4045 -1.2499
  115OSM    C2S11920   5.709   7.140   7.196 -0.1551 -0.0723 -0.1137
  115OSM    H2S11921   5.806   7.091   7.220 -0.7463 -0.9849  0.5110
  115OSM    C3S11922   5.619   7.022   7.139  0.2955  0.6602 -0.3802
  115OSM    H3S11923   5.528   7.062   7.089 -0.4228 -0.0023  0.3733
  115OSM     O311924   5.573   6.937   7.242 -0.8149 -0.0287  0.0760
  115OSM    HO311925   5.598   6.987   7.320 -3.1833  1.2300  0.1135
  115OSM    C4S11926   5.695   6.933   7.038  0.6114 -0.4880  0.0712
  115OSM    H4S11927   5.802   6.927   7.063  0.2969 -2.1746  1.2319
  115OSM    C5S11928   5.647   6.869   6.926  1.1606  0.5377 -0.6879
  115OSM    H5S11929   5.548   6.905   6.896 -0.1439  0.1592  2.7608
  115OSM    C6S11930   5.732   6.791   6.824  0.3578  0.2619 -0.1962
  115OSM    H6S11931   5.710   6.682   6.822 -2.0709  0.7168 -1.8268
  115OSM    H6T11932   5.835   6.801   6.866  0.1269 -3.0829  1.5190
  115OSM    C7S11933   5.708   6.834   6.684  0.2831  0.4474 -0.1704
  115OSM    H7S11934   5.705   6.945   6.674  0.2216  0.4636  0.0203
  115OSM    H7T11935   5.607   6.799   6.656 -1.1275  2.9173  1.4406
  115OSM    C8S11936   5.809   6.776   6.587 -0.1947 -0.0915  0.0361
  115OSM    H8S11937   5.818   6.666   6.601 -0.6080 -0.1826 -0.3814
  115OSM    H8T11938   5.906   6.829   6.599 -0.0619 -0.3873  0.3135
  115OSM    C9S11939   5.758   6.796   6.439 -0.1586  0.1353 -0.3079
  115OSM    H9S11940   5.715   6.898   6.433 -1.4891 -0.3440  0.5436
  115OSM    H9T11941   5.668   6.731   6.434 -0.1631 -0.0688  1.6656
  115OSM   C10S11942   5.873   6.775   6.336 -0.2601  0.2696  0.2440
  115OSM   H10S11943   5.920   6.675   6.343  1.9468  0.9044 -3.1915
  115OSM   H10T11944   5.956   6.848   6.351 -0.4551  0.7669 -1.0188
  115OSM   C11S11945   5.812   6.780   6.192 -0.4376  0.2189 -0.5214
  115OSM   H11S11946   5.750   6.871   6.176 -0.9758 -0.3963 -2.1799
  115OSM   H11T11947   5.745   6.692   6.181 -1.2137  0.7884 -0.4217
  115OSM   C12S11948   5.919   6.776   6.078 -0.0643  0.4775 -0.2084
  115OSM   H12S11949   5.948   6.670   6.070  0.9402  0.7290  0.0370
  115OSM   H12T11950   6.008   6.835   6.108  0.8679 -0.9618 -0.0677
  115OSM   C13S11951   5.863   6.826   5.949 -0.3178  0.1534 -0.0608
  115OSM   H13S11952   5.938   6.787   5.877 -1.2122 -2.7990  0.4538
  115OSM   H13T11953   5.847   6.935   5.933 -0.4671  0.2609  0.7963
  115OSM   C14S11954   5.738   6.751   5.905 -0.1933  0.5594 -0.7586
  115OSM   H14S11955   5.643   6.772   5.959  0.6442  3.2726 -0.1630
  115OSM   H14T11956   5.756   6.643   5.922  1.4082  0.9038 -0.0497
  115OSM   C15S11957   5.731   6.768   5.756 -0.1682 -1.1938  0.0622
  115OSM   H15S11958   5.832   6.754   5.712  0.2839 -1.7408  1.2334
  115OSM   H15T11959   5.699   6.871   5.726  0.6595 -2.0032 -4.1253
  115OSM   C16S11960   5.624   6.684   5.685 -0.3196  0.2811 -0.9040
  115OSM   H16S11961   5.521   6.696   5.725 -0.9506  0.6983 -2.5399
  115OSM   H16T11962   5.646   6.577   5.705 -0.3976 -0.0584 -2.5000
  115OSM   C17S11963   5.614   6.694   5.534  0.0429 -0.5063 -0.2883
  115OSM   H17S11964   5.715   6.731   5.505  0.2863 -0.2125  0.8663
  115OSM   H17T11965   5.537   6.774   5.519  0.6824  0.3220  0.6618
  115OSM   C18S11966   5.581   6.566   5.469  0.4361  0.0568 -0.4911
  115OSM   H18S11967   5.483   6.523   5.500 -0.7088  1.7167 -1.6598
  115OSM   H18T11968   5.660   6.491   5.493 -0.6537 -0.7259  0.7874
  115OSM   H18U11969   5.576   6.578   5.359 -0.1692 -1.1591 -0.6187
  115OSM    C1F11970   5.828   7.340   7.124 -0.3624  0.7209  0.2584
  115OSM     OF11971   5.917   7.330   7.209 -0.1339 -0.1186 -0.6804
  115OSM    C2F11972   5.816   7.466   7.047  0.4532  0.1316 -0.0482
  115OSM    H2F11973   5.842   7.549   7.117  1.4119 -0.3806  0.2262
  115OSM    H2G11974   5.709   7.475   7.020  0.5429  1.3941 -0.0435
  115OSM    C3F11975   5.910   7.465   6.930 -0.0417  0.4715 -0.3187
  115OSM    H3F11976   5.908   7.372   6.869  0.4200  1.9371 -2.7223
  115OSM    H3G11977   6.012   7.474   6.971 -1.8190  0.4035  4.8211
  115OSM    C4F11978   5.879   7.580   6.839  0.1498  0.8098 -0.1231
  115OSM    H4F11979   5.916   7.675   6.882  0.9146  0.9708 -1.0898
  115OSM    H4G11980   5.770   7.585   6.821  0.0595 -1.2950 -0.5101
  115OSM    C5F11981   5.937   7.545   6.702  0.1748 -0.3320  0.1848
  115OSM    H5F11982   5.909   7.442   6.671 -0.2488 -0.2267  0.2096
  115OSM    H5G11983   6.047   7.539   6.713  0.1399 -2.2275 -0.1126
  115OSM    C6F11984   5.893   7.645   6.594  0.2173 -0.1996  0.0598
  115OSM    H6F11985   5.951   7.738   6.615  0.0161 -0.4387  1.8964
  115OSM    H6G11986   5.787   7.666   6.620 -0.0568 -1.9590  0.4906
  115OSM    C7F11987   5.898   7.588   6.448  0.7992  0.4197  0.3147
  115OSM    H7F11988   5.830   7.658   6.395 -0.5086  0.2604  1.7182
  115OSM    H7G11989   5.852   7.488   6.443  0.3680  0.6533 -0.6554
  115OSM    C8F11990   6.032   7.587   6.385 -0.5467  0.2809  0.2953
  115OSM    H8F11991   6.104   7.519   6.434 -0.5508  0.3312  0.3699
  115OSM    H8G11992   6.073   7.690   6.389  1.3946 -0.4079 -0.6732
  115OSM    C9F11993   6.022   7.534   6.238 -0.2438  0.6158 -0.0073
  115OSM    H9F11994   6.084   7.444   6.225  0.2214  0.8393  0.6406
  115OSM   C10F11995   5.984   7.603   6.130  0.3779 -0.3875 -0.0465
  115OSM   H10F11996   5.979   7.552   6.033 -3.8703  0.5906 -0.5452
  115OSM   C11F11997   5.931   7.748   6.128 -0.2782 -0.3235 -0.0362
  115OSM   H11F11998   5.938   7.801   6.226 -1.8383  0.9889 -0.5871
  115OSM   H11G11999   5.822   7.748   6.105 -0.4223 -1.2635  0.6111
  115OSM   C12F12000   5.999   7.847   6.025  0.7328  0.9826  0.3401
  115OSM   H12F12001   6.109   7.843   6.043  0.6667 -0.4710  0.4964
  115OSM   H12G12002   5.963   7.949   6.050 -1.4209  0.5671 -0.8969
  115OSM   C13F12003   5.964   7.822   5.874 -0.7235  0.0529  0.3064
  115OSM   H13F12004   5.862   7.781   5.860 -1.4615  1.5521  1.0188
  115OSM   H13G12005   6.036   7.751   5.828 -0.2561  0.8342 -0.1957
  115OSM   C14F12006   5.984   7.958   5.796  0.4232 -0.2925  0.3888
  115OSM   H14F12007   5.915   8.030   5.846 -1.6634 -1.9578  0.0512
  115OSM   H14G12008   5.950   7.941   5.692 -1.1319 -3.5145  1.2752
  115OSM   C15F12009   6.131   8.011   5.798 -0.0293 -0.2517  0.7126
  115OSM   H15F12010   6.190   7.931   5.749 -2.0080 -1.6702  0.5288
  115OSM   H15G12011   6.163   8.036   5.902 -1.8683  0.6032  1.1124
  115OSM   C16F12012   6.134   8.133   5.703 -0.1931  0.0360  0.2417
  115OSM   H16F12013   6.077   8.222   5.735  0.1600  0.4358 -0.2188
  115OSM   H16G12014   6.078   8.101   5.612 -0.7890  2.6987 -0.3971
  115OSM   C17F12015   6.270   8.175   5.644  0.0298 -0.5318  0.7065
  115OSM   H17F12016   6.264   8.244   5.557  1.7020 -2.4891 -1.0730
  115OSM   H17G12017   6.314   8.089   5.590 -1.0006 -1.6163  1.5665
  115OSM   C18F12018   6.362   8.222   5.750 -0.5528 -0.8523 -0.1144
  115OSM   H18F12019   6.307   8.283   5.824  0.4045 -0.2044  0.0839
  115OSM   H18G12020   6.443   8.290   5.716  0.0931 -0.7435  1.5373
  115OSM   H18H12021   6.414   8.143   5.809  0.4468  1.2626  2.0331
  116OSM      N12022   0.040   5.362   7.702 -0.2271  0.6425  0.0137
  116OSM    C1512023   0.034   5.240   7.790  0.4720 -0.0531  0.4562
  116OSM   H15A12024   0.061   5.252   7.893  0.4520  1.4732  0.3112
  116OSM   H15B12025   0.092   5.162   7.743 -1.5096 -1.6990  0.5962
  116OSM   H15C12026  -0.062   5.190   7.794  1.1145 -1.5967 -1.5130
  116OSM    C1412027  -0.025   5.475   7.781 -0.1209  0.1298 -0.2362
  116OSM   H14A12028  -0.029   5.569   7.729  0.4986 -0.0449 -0.6058
  116OSM   H14B12029   0.029   5.502   7.870 -0.5364 -1.6764  0.6141
  116OSM   H14C12030  -0.126   5.447   7.809  0.9840  0.5323  5.0163
  116OSM    C1312031   0.183   5.405   7.696 -0.1188 -0.8102  0.0895
  116OSM   H13A12032   0.197   5.494   7.637  3.9336 -0.8664  0.7021
  116OSM   H13B12033   0.250   5.337   7.645  1.6347  1.8518 -1.3709
  116OSM   H13C12034   0.225   5.434   7.791 -1.0413  0.0552  0.2471
  116OSM    C1212035  -0.025   5.354   7.565  0.5324  0.3239 -0.0531
  116OSM   H12A12036   0.035   5.290   7.502  0.5259 -1.3561  1.5597
  116OSM   H12B12037  -0.018   5.452   7.521  2.7718  0.2046 -0.0649
  116OSM    C1112038  -0.173   5.300   7.542  0.3197  0.4838  0.0944
  116OSM   H11A12039  -0.181   5.201   7.592  0.5159  0.8373  0.8397
  116OSM   H11B12040  -0.189   5.297   7.432 -0.2811  3.0477  0.0503
  116OSM      P12041  -0.399   5.338   7.656 -0.2018  0.1028  0.2924
  116OSM    O1312042  -0.368   5.251   7.774  0.1722 -0.6093 -0.2638
  116OSM    O1412043  -0.482   5.461   7.678  0.5835  0.1758  0.1261
  116OSM    O1112044  -0.450   5.250   7.543 -0.1539  0.0732  0.2761
  116OSM    O1212045  -0.263   5.396   7.585  0.4957  0.1100 -0.0332
  116OSM    C1S12046  -0.516   5.303   7.423  0.5988  0.3745  1.1177
  116OSM    H1S12047  -0.525   5.413   7.418  0.4462  0.4300  2.2035
  116OSM    H1T12048  -0.619   5.263   7.409  0.0048  2.4259 -0.9554
  116OSM     NF12049  -0.498   5.328   7.177 -0.5898 -0.3071  0.0499
  116OSM    HNF12050  -0.571   5.291   7.120 -1.1124  0.1504  0.4136
  116OSM    C2S12051  -0.447   5.255   7.293 -0.3027 -0.7054 -0.5168
  116OSM    H2S12052  -0.341   5.284   7.313  0.0965 -2.4611  0.0819
  116OSM    C3S12053  -0.454   5.101   7.289  0.0609  0.0713  0.2284
  116OSM    H3S12054  -0.563   5.082   7.284  0.4025 -2.4138  0.7423
  116OSM     O312055  -0.415   5.029   7.406  0.2032 -0.2102  0.5280
  116OSM    HO312056  -0.415   5.099   7.472 -0.1663  0.0804  0.2195
  116OSM    C4S12057  -0.393   5.041   7.166  0.3563  0.6147  0.4073
  116OSM    H4S12058  -0.292   5.072   7.137 -0.0007  0.8247 -0.6330
  116OSM    C5S12059  -0.461   4.962   7.080 -0.4503 -0.2047 -0.4773
  116OSM    H5S12060  -0.567   4.941   7.103 -0.2135 -0.5782  0.3393
  116OSM    C6S12061  -0.404   4.906   6.957  0.2677 -0.1577  0.6494
  116OSM    H6S12062  -0.407   4.970   6.867  2.3166 -1.4893 -0.4641
  116OSM    H6T12063  -0.464   4.814   6.937  1.2685 -0.8247  0.6122
  116OSM    C7S12064  -0.264   4.849   6.967 -0.3383 -0.5282  0.1298
  116OSM    H7S12065  -0.270   4.773   7.048 -1.5046 -0.5700  0.0113
  116OSM    H7T12066  -0.190   4.925   7.001 -0.5937  0.5178 -1.5302
  116OSM    C8S12067  -0.211   4.794   6.836 -0.0614  0.2603 -0.1891
  116OSM    H8S12068  -0.285   4.720   6.799 -0.9228  0.3010  1.3683
  116OSM    H8T12069  -0.115   4.750   6.870  0.3921 -0.6934 -2.5230
  116OSM    C9S12070  -0.191   4.897   6.726 -0.3533  0.1062  0.0664
  116OSM    H9S12071  -0.113   4.964   6.768 -0.6289  0.4234  0.0708
  116OSM    H9T12072  -0.276   4.965   6.706  0.7773  1.1250 -1.4681
  116OSM   C10S12073  -0.158   4.830   6.595 -0.0589 -0.3231 -0.2576
  116OSM   H10S12074  -0.247   4.777   6.553  0.9681 -1.2017 -1.4310
  116OSM   H10T12075  -0.074   4.758   6.605  0.6979  0.8921  4.3528
  116OSM   C11S12076  -0.124   4.928   6.484  0.1138 -0.1077  0.4183
  116OSM   H11S12077  -0.089   4.872   6.395  1.3641 -1.5257  1.7540
  116OSM   H11T12078  -0.044   4.995   6.521 -0.9067  0.1644  2.2626
  116OSM   C12S12079  -0.241   5.013   6.438 -0.0348  0.2328 -0.2357
  116OSM   H12S12080  -0.275   5.062   6.531 -0.1482  1.3503 -0.8485
  116OSM   H12T12081  -0.310   4.937   6.396  2.2236 -2.7118  0.9694
  116OSM   C13S12082  -0.213   5.102   6.317 -0.8945 -1.0942 -0.1518
  116OSM   H13S12083  -0.192   5.029   6.236  0.2158 -2.1403  1.0364
  116OSM   H13T12084  -0.131   5.173   6.339 -1.7885  1.1372 -3.3141
  116OSM   C14S12085  -0.342   5.184   6.296  0.0498 -0.2999 -0.0347
  116OSM   H14S12086  -0.375   5.231   6.390  1.3186  1.3794 -0.3926
  116OSM   H14T12087  -0.419   5.118   6.249 -0.6241  0.4868 -0.0590
  116OSM   C15S12088  -0.330   5.295   6.184  0.7363  0.0204 -0.0644
  116OSM   H15S12089  -0.264   5.379   6.214 -1.4250  2.1929 -0.9563
  116OSM   H15T12090  -0.424   5.355   6.187  1.0472  0.5455 -0.5144
  116OSM   C16S12091  -0.289   5.249   6.047 -0.0029 -0.2333  0.1032
  116OSM   H16S12092  -0.337   5.150   6.030  0.2622 -0.0570 -1.8989
  116OSM   H16T12093  -0.179   5.234   6.047  0.2311  1.1807  1.9196
  116OSM   C17S12094  -0.322   5.335   5.926 -0.2238  0.0069 -1.0507
  116OSM   H17S12095  -0.288   5.436   5.957 -2.0761  0.1479  0.6599
  116OSM   H17T12096  -0.431   5.352   5.928  0.0545  1.9160 -0.1962
  116OSM   C18S12097  -0.264   5.314   5.787 -0.5057 -0.2221 -0.5239
  116OSM   H18S12098  -0.155   5.333   5.787 -0.4531 -0.5117 -1.2336
  116OSM   H18T12099  -0.321   5.383   5.721 -1.1365 -0.6040 -0.3816
  116OSM   H18U12100  -0.275   5.206   5.766 -0.5937 -0.5407  1.0120
  116OSM    C1F12101  -0.475   5.457   7.155  0.8084 -0.1610  0.1513
  116OSM     OF12102  -0.407   5.522   7.233 -0.3111 -0.6279 -0.3629
  116OSM    C2F12103  -0.524   5.513   7.020 -0.5090  0.1754 -0.5408
  116OSM    H2F12104  -0.560   5.418   6.975  0.6596 -0.1002 -0.9218
  116OSM    H2G12105  -0.438   5.540   6.954  1.2451 -2.2589  0.6080
  116OSM    C3F12106  -0.622   5.631   7.040  0.0230  0.7132 -0.4809
  116OSM    H3F12107  -0.592   5.698   7.123  0.5836  1.9166 -1.6250
  116OSM    H3G12108  -0.720   5.590   7.072  0.5881  0.1823  0.6243
  116OSM    C4F12109  -0.634   5.716   6.911 -0.3947  0.0544  0.6949
  116OSM    H4F12110  -0.666   5.648   6.829 -0.1227  1.4665 -0.6313
  116OSM    H4G12111  -0.536   5.762   6.890  0.0618 -0.1858  2.1916
  116OSM    C5F12112  -0.744   5.822   6.915 -0.4436 -0.2765  0.6534
  116OSM    H5F12113  -0.726   5.893   6.998 -0.6264  0.9860 -0.3453
  116OSM    H5G12114  -0.849   5.786   6.921 -0.6172 -0.1444 -1.0557
  116OSM    C6F12115  -0.739   5.903   6.777  0.2694 -0.6936  0.8828
  116OSM    H6F12116  -0.634   5.939   6.769 -0.2594  0.5121 -2.4903
  116OSM    H6G12117  -0.813   5.985   6.769 -0.3262 -1.3441 -1.0535
  116OSM    C7F12118  -0.757   5.814   6.660  0.2364 -0.0707  0.5179
  116OSM    H7F12119  -0.682   5.733   6.643  0.5470  0.7174 -2.2775
  116OSM    H7G12120  -0.748   5.875   6.568 -1.0447  0.6201  0.8289
  116OSM    C8F12121  -0.896   5.742   6.652  0.8716 -0.3422 -0.1893
  116OSM    H8F12122  -0.911   5.685   6.746  1.5435 -0.0644  0.0928
  116OSM    H8G12123  -0.899   5.671   6.566  1.3598  1.1468 -1.4766
  116OSM    C9F12124  -1.003   5.852   6.643 -0.1826  0.3890  0.8880
  116OSM    H9F12125  -1.034   5.886   6.742  1.2779 -2.3774  2.4242
  116OSM   C10F12126  -1.061   5.894   6.526  0.2306  0.2350 -0.5397
  116OSM   H10F12127  -1.143   5.967   6.534 -0.0446 -0.0519 -0.7048
  116OSM   C11F12128  -1.031   5.831   6.394 -0.3369 -0.1526  0.9244
  116OSM   H11F12129  -1.113   5.766   6.357 -0.0924  0.9260 -1.6750
  116OSM   H11G12130  -0.937   5.773   6.385 -1.1489 -1.3557 -0.2598
  116OSM   C12F12131  -1.016   5.939   6.278  0.5370 -0.2657 -0.5687
  116OSM   H12F12132  -0.989   5.889   6.182  2.6064  0.7159 -0.5610
  116OSM   H12G12133  -0.948   6.025   6.295 -0.2858  0.8014 -2.3752
  116OSM   C13F12134  -1.145   6.020   6.252 -0.1834  0.0966  0.3795
  116OSM   H13F12135  -1.130   6.084   6.162  1.6569 -1.1947 -0.2916
  116OSM   H13G12136  -1.183   6.073   6.342 -2.6194 -2.1243  0.7777
  116OSM   C14F12137  -1.270   5.934   6.228  0.5035  0.2337 -0.1567
  116OSM   H14F12138  -1.360   5.999   6.222 -0.0741 -0.4694  0.5671
  116OSM   H14G12139  -1.289   5.885   6.326 -1.2558  2.2078  0.5669
  116OSM   C15F12140  -1.261   5.825   6.117  0.5059 -0.6347 -0.1897
  116OSM   H15F12141  -1.356   5.769   6.102 -1.1241  2.0654 -0.5746
  116OSM   H15G12142  -1.189   5.752   6.160  2.8198  1.8570  0.4374
  116OSM   C16F12143  -1.213   5.871   5.974  0.1336  0.0031 -0.1955
  116OSM   H16F12144  -1.238   5.789   5.903  0.5612  1.4375 -2.1023
  116OSM   H16G12145  -1.103   5.881   5.986 -0.0837  1.0825  1.1188
  116OSM   C17F12146  -1.272   5.999   5.911 -0.1146 -0.1470  0.0110
  116OSM   H17F12147  -1.229   6.087   5.962  0.7067 -1.4809  1.7142
  116OSM   H17G12148  -1.381   5.993   5.934 -0.3989 -0.4929 -1.2943
  116OSM   C18F12149  -1.256   5.993   5.762  0.3502  0.0381  0.2979
  116OSM   H18F12150  -1.294   6.088   5.719 -2.8397 -0.8959  0.8022
  116OSM   H18G12151  -1.307   5.904   5.719  2.7542 -0.2532 -2.1837
  116OSM   H18H12152  -1.150   5.984   5.730  0.1193  0.0668 -0.4938
  117OSM      N12153   6.601   6.680   7.686  1.1581  0.0659  0.3317
  117OSM    C1512154   6.585   6.535   7.680  0.3082 -0.3448 -0.7712
  117OSM   H15A12155   6.545   6.500   7.775 -0.4537  0.2358 -0.8731
  117OSM   H15B12156   6.675   6.483   7.652 -0.0353 -0.6026 -1.4216
  117OSM   H15C12157   6.513   6.507   7.605 -1.1972  0.5280  0.2728
  117OSM    C1412158   6.710   6.724   7.785 -0.8515 -0.0555  0.4824
  117OSM   H14A12159   6.807   6.679   7.769  0.1080  1.8537  0.6041
  117OSM   H14B12160   6.694   6.700   7.889  4.5991 -2.4069  1.1258
  117OSM   H14C12161   6.732   6.828   7.769 -1.0551 -0.2429 -1.1328
  117OSM    C1312162   6.645   6.729   7.553 -0.2710 -0.6839  0.5333
  117OSM   H13A12163   6.731   6.686   7.504 -0.4365  0.8593 -1.1983
  117OSM   H13B12164   6.676   6.831   7.568  0.0763 -0.3048 -2.3311
  117OSM   H13C12165   6.557   6.728   7.491  0.3304  0.4764 -0.3687
  117OSM    C1212166   6.473   6.750   7.721  0.0200  0.3071 -0.8803
  117OSM   H12A12167   6.499   6.854   7.736  0.0995  0.1097  0.4948
  117OSM   H12B12168   6.438   6.713   7.817  1.3958  0.8518 -0.1453
  117OSM    C1112169   6.353   6.747   7.629  0.4337 -0.0691 -0.0062
  117OSM   H11A12170   6.286   6.821   7.678 -1.5729 -0.1597 -2.4376
  117OSM   H11B12171   6.288   6.657   7.624  0.2423 -0.1446  2.5059
  117OSM      P12172   6.406   6.956   7.481  0.0663  0.5010  0.1355
  117OSM    O1312173   6.424   7.016   7.619 -0.1342  0.3374  0.3494
  117OSM    O1412174   6.514   6.977   7.382 -0.1722  0.0471  0.1795
  117OSM    O1112175   6.270   7.008   7.417  0.6444  0.7528 -0.5690
  117OSM    O1212176   6.382   6.796   7.497 -0.4240  0.9318  0.1544
  117OSM    C1S12177   6.243   7.145   7.396  0.0591 -0.0153  0.3875
  117OSM    H1S12178   6.296   7.215   7.464 -1.4098  1.5854 -0.0642
  117OSM    H1T12179   6.135   7.168   7.402  0.4304  3.4514 -2.6741
  117OSM     NF12180   6.221   7.332   7.223 -0.1093 -0.1372  0.7349
  117OSM    HNF12181   6.135   7.349   7.176  1.3195  1.4845 -1.5037
  117OSM    C2S12182   6.271   7.192   7.248 -0.1702 -0.1528  0.1279
  117OSM    H2S12183   6.379   7.188   7.223 -0.5743 -2.8627 -1.5539
  117OSM    C3S12184   6.212   7.080   7.152 -0.7326  0.0910 -0.6495
  117OSM    H3S12185   6.111   7.045   7.184 -0.8299 -1.7027 -2.6943
  117OSM     O312186   6.293   6.958   7.148  0.1042  0.1277 -0.5116
  117OSM    HO312187   6.341   6.972   7.230 -0.0913  0.0306 -0.3824
  117OSM    C4S12188   6.200   7.129   7.009 -0.4501  0.3623  0.9769
  117OSM    H4S12189   6.295   7.152   6.958 -1.1141  2.3140  0.5384
  117OSM    C5S12190   6.084   7.124   6.939 -0.1674  0.3586 -0.2405
  117OSM    H5S12191   5.996   7.079   6.986 -1.2608  0.3857 -2.1542
  117OSM    C6S12192   6.068   7.156   6.792  0.2154 -0.2840  0.6475
  117OSM    H6S12193   5.977   7.218   6.782  0.9805  0.6137 -1.2494
  117OSM    H6T12194   6.035   7.066   6.735  0.2175  1.1959 -1.8189
  117OSM    C7S12195   6.189   7.220   6.732  0.0312  0.1600 -0.0054
  117OSM    H7S12196   6.268   7.143   6.735  1.1483  1.1717 -1.9004
  117OSM    H7T12197   6.232   7.310   6.781  1.1860 -0.0669 -0.5866
  117OSM    C8S12198   6.170   7.264   6.589 -0.2115 -0.0477  0.5809
  117OSM    H8S12199   6.262   7.314   6.551 -0.6107 -2.2525 -3.9379
  117OSM    H8T12200   6.083   7.334   6.581 -0.1432  0.1461  1.4069
  117OSM    C9S12201   6.164   7.151   6.487  0.4435  0.0324 -0.2532
  117OSM    H9S12202   6.068   7.096   6.491  0.7163 -0.5712 -1.5541
  117OSM    H9T12203   6.244   7.077   6.504 -1.3914 -2.5173 -2.0129
  117OSM   C10S12204   6.170   7.203   6.346  0.5910  0.1752 -0.1020
  117OSM   H10S12205   6.276   7.217   6.318  1.0865 -0.4540  1.3733
  117OSM   H10T12206   6.109   7.294   6.331  1.0518  0.4179 -0.5155
  117OSM   C11S12207   6.128   7.101   6.239  0.3422 -0.0802  0.0558
  117OSM   H11S12208   6.017   7.091   6.241  0.4433 -1.4415  0.1649
  117OSM   H11T12209   6.165   6.998   6.261 -0.3235 -0.1168  1.0882
  117OSM   C12S12210   6.166   7.153   6.102 -0.0692 -0.0507  0.3314
  117OSM   H12S12211   6.275   7.143   6.081  0.2270  2.9570  0.0249
  117OSM   H12T12212   6.155   7.263   6.099  1.1598  0.0541 -2.0967
  117OSM   C13S12213   6.088   7.081   5.987 -0.1075 -0.3485  0.5893
  117OSM   H13S12214   5.981   7.062   6.013 -1.3511  1.1464 -2.9060
  117OSM   H13T12215   6.141   6.984   5.973  2.1271  1.1007 -1.6565
  117OSM   C14S12216   6.101   7.159   5.856  0.0097  0.0825  0.6170
  117OSM   H14S12217   6.209   7.172   5.834 -0.3643  0.0946 -1.4921
  117OSM   H14T12218   6.058   7.262   5.864 -0.4964  0.1276 -1.7327
  117OSM   C15S12219   6.025   7.089   5.739  0.1752 -0.0406 -0.4617
  117OSM   H15S12220   5.917   7.070   5.758  0.3945  0.0819  1.0538
  117OSM   H15T12221   6.068   6.986   5.732  0.2267 -0.2584  2.0061
  117OSM   C16S12222   6.049   7.150   5.599  0.6884 -0.2791  0.2188
  117OSM   H16S12223   6.016   7.079   5.521 -0.3456  1.6787 -1.2256
  117OSM   H16T12224   6.151   7.191   5.584  0.4290 -0.3079 -1.8962
  117OSM   C17S12225   5.961   7.269   5.567 -0.9096 -0.9167  0.2566
  117OSM   H17S12226   5.986   7.348   5.642 -1.6608 -0.6552  0.2429
  117OSM   H17T12227   5.855   7.237   5.580 -1.7789  1.8619  0.7826
  117OSM   C18S12228   5.969   7.334   5.430  0.7862  0.2700  0.2770
  117OSM   H18S12229   6.073   7.363   5.405  0.4137  1.8333  0.4507
  117OSM   H18T12230   5.908   7.427   5.424 -0.0034 -0.2872 -0.8632
  117OSM   H18U12231   5.931   7.271   5.347  2.5025 -2.1686  1.2428
  117OSM    C1F12232   6.289   7.433   7.265  0.3798  0.2978  0.0355
  117OSM     OF12233   6.380   7.417   7.345  0.3636  0.1525  0.6684
  117OSM    C2F12234   6.236   7.568   7.218 -0.1626 -0.3152 -0.3315
  117OSM    H2F12235   6.205   7.626   7.308 -2.1598 -0.6691 -0.7466
  117OSM    H2G12236   6.147   7.548   7.155 -1.4524  2.0775  0.5896
  117OSM    C3F12237   6.366   7.643   7.167  0.0931  0.0670  1.0352
  117OSM    H3F12238   6.450   7.647   7.240 -0.5565  0.9597  1.7641
  117OSM    H3G12239   6.337   7.749   7.146  1.0984  0.0700 -0.4304
  117OSM    C4F12240   6.427   7.579   7.035 -0.0793  0.3141 -0.1550
  117OSM    H4F12241   6.433   7.472   7.063  1.0307  0.8291  1.7794
  117OSM    H4G12242   6.534   7.608   7.023  1.1101 -3.7070 -0.5242
  117OSM    C5F12243   6.351   7.589   6.901 -0.2539  0.6690 -0.6953
  117OSM    H5F12244   6.245   7.557   6.912 -0.4655  0.1853 -3.4727
  117OSM    H5G12245   6.407   7.524   6.830  0.2365 -0.1132  0.3914
  117OSM    C6F12246   6.332   7.733   6.844  0.5067 -0.6877 -0.4075
  117OSM    H6F12247   6.430   7.785   6.838  0.9166 -1.5431 -1.4145
  117OSM    H6G12248   6.269   7.786   6.919  2.6245  1.0975  0.2426
  117OSM    C7F12249   6.265   7.753   6.711 -0.2821  0.5042  0.4703
  117OSM    H7F12250   6.268   7.858   6.673 -1.8347  0.2400 -0.4611
  117OSM    H7G12251   6.162   7.724   6.740 -0.7048  1.3634 -0.1087
  117OSM    C8F12252   6.330   7.664   6.599  0.4717 -0.2309  0.2746
  117OSM    H8F12253   6.261   7.669   6.512 -0.1949  1.1494  0.8721
  117OSM    H8G12254   6.334   7.560   6.639 -2.1478  0.1960  1.8035
  117OSM    C9F12255   6.467   7.712   6.570 -0.6256  0.0496 -0.5548
  117OSM    H9F12256   6.553   7.662   6.618  0.3525  1.8038 -0.3818
  117OSM   C10F12257   6.501   7.795   6.474 -0.2176 -0.0380 -0.1743
  117OSM   H10F12258   6.607   7.818   6.460 -0.3003  0.8975  0.6941
  117OSM   C11F12259   6.410   7.870   6.379  0.5453  0.4082 -0.5575
  117OSM   H11F12260   6.431   7.979   6.379  0.5314  0.4104 -0.4801
  117OSM   H11G12261   6.304   7.873   6.413  0.9705 -0.6915  0.9548
  117OSM   C12F12262   6.421   7.828   6.230  0.1863  0.7422 -0.3043
  117OSM   H12F12263   6.525   7.830   6.193 -0.0098  0.4777 -0.8814
  117OSM   H12G12264   6.358   7.898   6.172  3.7599  3.8469 -0.8079
  117OSM   C13F12265   6.376   7.678   6.190  0.3476  0.0230 -0.4459
  117OSM   H13F12266   6.266   7.671   6.201  0.4625 -1.8011 -0.1360
  117OSM   H13G12267   6.421   7.594   6.248 -0.8550  0.0597  0.5687
  117OSM   C14F12268   6.413   7.657   6.044 -0.2060 -0.0934  0.6615
  117OSM   H14F12269   6.521   7.666   6.022 -0.7240 -0.7761 -2.5261
  117OSM   H14G12270   6.366   7.740   5.988  0.4927  0.1553  0.4318
  117OSM   C15F12271   6.350   7.524   6.006  0.7036 -0.3101 -0.1691
  117OSM   H15F12272   6.246   7.534   5.969  0.7662  0.8145 -0.0831
  117OSM   H15G12273   6.358   7.443   6.082  0.0397 -1.9886 -1.8083
  117OSM   C16F12274   6.416   7.465   5.886  0.1488 -0.1798  0.2994
  117OSM   H16F12275   6.377   7.364   5.864 -3.4505  1.2893 -0.9126
  117OSM   H16G12276   6.525   7.455   5.898  0.3744  0.1489 -1.1912
  117OSM   C17F12277   6.404   7.554   5.762  0.2704  0.5529  0.2094
  117OSM   H17F12278   6.466   7.499   5.688  0.1342  0.2157  0.3445
  117OSM   H17G12279   6.437   7.659   5.777 -1.5226  1.0099  1.2656
  117OSM   C18F12280   6.265   7.558   5.704 -0.2199 -0.2903  0.6666
  117OSM   H18F12281   6.259   7.622   5.614 -0.5419 -1.3538 -0.0854
  117OSM   H18G12282   6.187   7.593   5.775  0.7943  1.0182  1.1834
  117OSM   H18H12283   6.222   7.465   5.662  0.8044  0.3624 -2.0302
  118OSM      N12284   5.876   5.925   7.824 -0.1890  0.5277  0.1634
  118OSM    C1512285   5.737   5.969   7.844  0.4983 -0.2438 -0.6161
  118OSM   H15A12286   5.738   6.074   7.870 -2.3714 -0.5051  0.9310
  118OSM   H15B12287   5.705   5.911   7.929  1.1864 -0.4418 -0.4877
  118OSM   H15C12288   5.679   5.959   7.754  0.7308 -0.3872 -0.7527
  118OSM    C1412289   5.970   5.979   7.933  0.7136  0.7282  0.8515
  118OSM   H14A12290   6.073   5.948   7.922 -0.1383 -1.8502 -0.7702
  118OSM   H14B12291   5.933   5.944   8.028  0.7231 -0.0650  0.5753
  118OSM   H14C12292   5.965   6.087   7.932  1.2538  0.7568  0.2563
  118OSM    C1312293   5.872   5.770   7.828  0.0074 -0.7066 -0.4094
  118OSM   H13A12294   5.804   5.735   7.752 -1.4712 -1.3190  1.1011
  118OSM   H13B12295   5.823   5.748   7.923 -0.8180  1.8367 -0.1627
  118OSM   H13C12296   5.971   5.729   7.818  0.3626  0.1709 -0.5769
  118OSM    C1212297   5.926   5.966   7.682 -0.1624 -0.6434 -0.1641
  118OSM   H12A12298   5.847   5.938   7.614 -0.9428  1.3099 -0.1456
  118OSM   H12B12299   6.009   5.908   7.645  0.7420 -0.1123  0.9565
  118OSM    C1112300   5.969   6.115   7.660  0.0296  0.4711 -0.0035
  118OSM   H11A12301   5.891   6.181   7.704 -0.4126 -0.6066  0.8776
  118OSM   H11B12302   5.971   6.140   7.552  2.1477 -1.6672 -0.5537
  118OSM      P12303   6.136   6.282   7.761  0.1617  0.0002 -0.4341
  118OSM    O1312304   6.051   6.311   7.881 -0.2383  0.5177 -0.3325
  118OSM    O1412305   6.281   6.288   7.792  0.3968  0.4390  0.0932
  118OSM    O1112306   6.097   6.372   7.634 -0.0970  0.3493 -0.0892
  118OSM    O1212307   6.101   6.137   7.711 -0.2489  0.1992  0.0056
  118OSM    C1S12308   6.194   6.429   7.537 -0.3466  0.2685 -0.2582
  118OSM    H1S12309   6.296   6.431   7.582 -0.4434  3.3685  0.0329
  118OSM    H1T12310   6.167   6.536   7.525  0.5518  0.8280  2.1813
  118OSM     NF12311   6.276   6.422   7.313 -0.2397  0.1146  0.0767
  118OSM    HNF12312   6.261   6.502   7.256 -2.5318  0.0229  0.4529
  118OSM    C2S12313   6.169   6.374   7.396 -0.4851 -0.5085 -0.2776
  118OSM    H2S12314   6.185   6.265   7.406 -2.2633 -0.6000  4.1825
  118OSM    C3S12315   6.021   6.407   7.356  0.0957  0.4461 -0.3471
  118OSM    H3S12316   6.000   6.515   7.371  0.5952  0.3396  1.3542
  118OSM     O312317   5.918   6.341   7.429 -0.5903 -0.2814  0.0608
  118OSM    HO312318   5.960   6.305   7.507 -1.5363 -2.4053 -0.3306
  118OSM    C4S12319   6.021   6.368   7.213  0.2301 -0.0293 -0.4177
  118OSM    H4S12320   6.075   6.434   7.144 -0.8240  1.1833 -0.1153
  118OSM    C5S12321   5.956   6.265   7.163 -0.9490  0.2837 -0.3157
  118OSM    H5S12322   5.933   6.181   7.230  0.9048 -0.0705 -0.0623
  118OSM    C6S12323   5.953   6.218   7.022 -0.7281 -0.3134 -0.0833
  118OSM    H6S12324   5.851   6.176   7.010 -1.0412  0.5563 -0.5076
  118OSM    H6T12325   6.026   6.136   7.004  0.3634  0.7278 -0.5336
  118OSM    C7S12326   5.976   6.325   6.914 -0.3804  1.1094  0.3495
  118OSM    H7S12327   6.080   6.363   6.915  0.3784 -0.8412 -0.0369
  118OSM    H7T12328   5.907   6.411   6.921 -0.6369  0.9832 -0.4824
  118OSM    C8S12329   5.937   6.263   6.777  0.1744  0.7671 -0.8413
  118OSM    H8S12330   5.827   6.252   6.771  0.0063  0.9328  1.1988
  118OSM    H8T12331   5.973   6.159   6.764  0.0366  0.3004  2.0131
  118OSM    C9S12332   6.003   6.351   6.668  0.8841 -0.6608  0.2789
  118OSM    H9S12333   6.110   6.321   6.661  0.9951 -0.2793  0.2953
  118OSM    H9T12334   5.993   6.460   6.688 -0.4956 -1.0948  2.1488
  118OSM   C10S12335   5.940   6.320   6.530  0.0886  0.8595 -1.0213
  118OSM   H10S12336   5.830   6.338   6.531  0.1802  1.4268  0.1377
  118OSM   H10T12337   5.958   6.211   6.512 -2.4994 -0.0225  1.0465
  118OSM   C11S12338   5.999   6.388   6.412  0.4106 -0.3393  0.3826
  118OSM   H11S12339   6.110   6.396   6.418  0.4455 -0.5434  0.0230
  118OSM   H11T12340   5.951   6.487   6.400  1.5278  0.1500 -0.1483
  118OSM   C12S12341   5.957   6.317   6.279  0.2749  0.1961 -0.0288
  118OSM   H12S12342   5.852   6.280   6.283 -0.2804  1.6720 -0.3374
  118OSM   H12T12343   6.021   6.226   6.279  0.2558  0.1846 -0.4041
  118OSM   C13S12344   5.975   6.408   6.162  0.3527  0.0171  0.6992
  118OSM   H13S12345   6.077   6.451   6.160  1.4537 -2.4315 -1.5647
  118OSM   H13T12346   5.902   6.491   6.155 -0.1791 -0.5279 -0.4470
  118OSM   C14S12347   5.956   6.330   6.032 -0.1047  0.2893 -0.1666
  118OSM   H14S12348   5.850   6.297   6.023 -0.4953  1.6661 -0.9252
  118OSM   H14T12349   6.025   6.244   6.042  1.7212  1.5944 -0.9859
  118OSM   C15S12350   5.990   6.405   5.901  0.0182  0.0813 -0.0928
  118OSM   H15S12351   6.100   6.413   5.888 -0.2075 -1.1865 -5.0321
  118OSM   H15T12352   5.932   6.500   5.889  0.8884  0.3920 -2.3327
  118OSM   C16S12353   5.944   6.331   5.780  0.4255 -0.0447 -0.5871
  118OSM   H16S12354   5.987   6.380   5.690  1.8360 -0.3565 -0.0965
  118OSM   H16T12355   5.833   6.323   5.771  0.5886 -1.5311 -1.5260
  118OSM   C17S12356   6.002   6.191   5.764  0.0472 -0.3395  0.2341
  118OSM   H17S12357   5.965   6.127   5.847  3.8585  0.1566  2.5669
  118OSM   H17T12358   6.111   6.204   5.781  0.3343 -1.2839 -0.7447
  118OSM   C18S12359   5.973   6.129   5.631 -0.0389  0.5165  0.4022
  118OSM   H18S12360   5.865   6.111   5.611  0.5022 -0.8988 -1.5804
  118OSM   H18T12361   6.030   6.034   5.638  0.7396  0.7975 -1.3740
  118OSM   H18U12362   6.014   6.193   5.550 -2.3794  0.4044 -0.9757
  118OSM    C1F12363   6.401   6.380   7.339  0.8392  0.6342  0.8636
  118OSM     OF12364   6.431   6.286   7.405  0.0262 -0.4735 -0.1343
  118OSM    C2F12365   6.511   6.476   7.283 -0.2962  0.6339  0.5343
  118OSM    H2F12366   6.509   6.568   7.346 -0.6702  1.5841 -0.8248
  118OSM    H2G12367   6.477   6.501   7.180  0.1824  2.4849  0.7931
  118OSM    C3F12368   6.651   6.415   7.263 -0.6984 -0.0075  0.1947
  118OSM    H3F12369   6.633   6.326   7.199 -2.7826  0.6962 -0.2866
  118OSM    H3G12370   6.697   6.371   7.353  0.6738  0.1366 -0.4197
  118OSM    C4F12371   6.742   6.514   7.188 -0.2848 -0.7603 -0.5396
  118OSM    H4F12372   6.845   6.514   7.230  0.7220  0.9888 -2.8086
  118OSM    H4G12373   6.709   6.618   7.209  2.0697 -0.1872  0.6936
  118OSM    C5F12374   6.751   6.500   7.043 -0.5110 -0.5041  0.1550
  118OSM    H5F12375   6.773   6.593   6.988  1.2424 -1.9917 -1.8203
  118OSM    H5G12376   6.652   6.467   7.006 -0.7777  0.1161  0.2999
  118OSM    C6F12377   6.870   6.404   7.005  0.4638 -0.3218 -0.3093
  118OSM    H6F12378   6.853   6.309   7.059 -2.7022 -0.8979 -2.0601
  118OSM    H6G12379   6.962   6.453   7.043 -0.7666  1.6012  0.3082
  118OSM    C7F12380   6.869   6.384   6.849  0.3701 -0.1391 -0.7732
  118OSM    H7F12381   6.889   6.479   6.795  1.3842  0.6645  0.9115
  118OSM    H7G12382   6.773   6.339   6.816  0.7071 -1.4961 -0.0191
  118OSM    C8F12383   6.976   6.284   6.810  0.2586  0.4568  0.3700
  118OSM    H8F12384   7.067   6.335   6.849 -0.6368  0.1970  2.9913
  118OSM    H8G12385   6.980   6.267   6.701 -1.2496 -1.8698  0.6058
  118OSM    C9F12386   6.953   6.143   6.863  0.2828  0.0556  0.2378
  118OSM    H9F12387   6.983   6.122   6.966  0.6046 -3.5156 -0.4348
  118OSM   C10F12388   6.913   6.042   6.784  0.1745 -0.0575  0.8240
  118OSM   H10F12389   6.865   5.955   6.831 -1.7191  0.2058 -0.5357
  118OSM   C11F12390   6.863   6.062   6.643 -0.7044  0.1957  0.2395
  118OSM   H11F12391   6.831   6.165   6.617 -0.9271 -0.4444 -2.2749
  118OSM   H11G12392   6.779   5.991   6.634 -0.6241 -0.0703  1.3502
  118OSM   C12F12393   6.958   6.021   6.531  0.4289 -0.0377 -0.1151
  118OSM   H12F12394   6.966   5.910   6.526  0.6822  0.0038 -0.7313
  118OSM   H12G12395   7.059   6.065   6.540 -0.2976  1.5346  0.7877
  118OSM   C13F12396   6.908   6.070   6.386  0.8532 -0.1682  0.5224
  118OSM   H13F12397   6.806   6.035   6.363  1.5936 -1.8596 -0.3888
  118OSM   H13G12398   6.974   6.014   6.316  1.3320  1.2740 -0.2143
  118OSM   C14F12399   6.939   6.211   6.334 -0.7396  0.0513 -0.7177
  118OSM   H14F12400   7.035   6.254   6.368 -0.9880  0.2481 -0.2592
  118OSM   H14G12401   6.866   6.278   6.384  0.7818  0.9201  0.4072
  118OSM   C15F12402   6.932   6.220   6.178  0.2161  0.4834 -0.6866
  118OSM   H15F12403   6.830   6.187   6.148  1.2090 -1.0151 -2.6153
  118OSM   H15G12404   7.018   6.158   6.143  0.0164  0.5387 -1.2850
  118OSM   C16F12405   6.952   6.366   6.133  0.5825 -0.5079 -0.0951
  118OSM   H16F12406   7.056   6.396   6.158  0.4072  0.3771 -0.4066
  118OSM   H16G12407   6.877   6.428   6.186 -1.4750 -2.1850 -0.8747
  118OSM   C17F12408   6.925   6.387   5.982  0.6781 -0.2056 -0.2168
  118OSM   H17F12409   6.939   6.494   5.954  0.5892  0.1105  0.9040
  118OSM   H17G12410   6.818   6.358   5.973  0.4233  0.8526 -0.7954
  118OSM   C18F12411   7.016   6.311   5.888  0.0760  0.0927  0.1354
  118OSM   H18F12412   6.970   6.313   5.787  0.5837 -1.3171 -0.1513
  118OSM   H18G12413   7.015   6.204   5.918 -0.7434 -0.4428 -1.6826
  118OSM   H18H12414   7.123   6.343   5.893  0.4790 -1.3164  1.1330
  119OSM      N12415   3.403   3.792   8.137 -0.4800 -0.2669  0.1732
  119OSM    C1512416   3.449   3.917   8.209 -0.1143  0.2427  0.1965
  119OSM   H15A12417   3.403   3.938   8.304  0.4724  2.4222  0.0580
  119OSM   H15B12418   3.426   4.007   8.153  0.5385 -0.6041 -1.4988
  119OSM   H15C12419   3.555   3.912   8.228  0.5115 -0.4992 -2.9440
  119OSM    C1412420   3.469   3.787   8.007 -0.4908 -0.3334 -0.2931
  119OSM   H14A12421   3.465   3.872   7.940 -0.5159 -0.7801 -0.8697
  119OSM   H14B12422   3.417   3.704   7.959 -4.2349  1.9866 -0.6728
  119OSM   H14C12423   3.571   3.754   8.021 -0.0471  0.0627 -2.3287
  119OSM    C1312424   3.432   3.669   8.216  0.0504  0.3473 -0.4920
  119OSM   H13A12425   3.535   3.649   8.242  0.1037  0.7874 -0.3617
  119OSM   H13B12426   3.391   3.584   8.162  1.6068  0.3830 -1.8182
  119OSM   H13C12427   3.375   3.682   8.306  1.1916 -0.4690  0.3767
  119OSM    C1212428   3.250   3.805   8.122 -0.1823  0.0972 -0.1381
  119OSM   H12A12429   3.234   3.900   8.073 -0.2905  0.5058  0.6671
  119OSM   H12B12430   3.200   3.826   8.216 -0.0026 -2.1456  0.5090
  119OSM    C1112431   3.178   3.691   8.053  0.0978 -0.0486 -0.3447
  119OSM   H11A12432   3.069   3.687   8.077 -0.1150 -2.9649 -1.3698
  119OSM   H11B12433   3.211   3.594   8.097  1.5408  0.4712 -0.2276
  119OSM      P12434   3.128   3.811   7.833 -0.5541 -0.0326  0.0450
  119OSM    O1312435   2.980   3.806   7.823 -0.0388 -0.2396 -0.1306
  119OSM    O1412436   3.183   3.941   7.864  0.2718 -0.1018 -0.3791
  119OSM    O1112437   3.185   3.784   7.693 -0.5555 -0.2144 -0.0546
  119OSM    O1212438   3.193   3.689   7.910 -0.0972 -0.5265  0.2328
  119OSM    C1S12439   3.114   3.776   7.570  0.2736  0.2804  0.1127
  119OSM    H1S12440   3.073   3.878   7.549 -2.0656 -0.3679  1.1836
  119OSM    H1T12441   3.023   3.713   7.582 -0.0136  0.8868  1.3339
  119OSM     NF12442   3.141   3.690   7.335  0.4385  0.6176 -0.2151
  119OSM    HNF12443   3.119   3.597   7.305  1.2158  0.4168 -0.1953
  119OSM    C2S12444   3.198   3.696   7.469  0.2908 -0.3735 -0.6214
  119OSM    H2S12445   3.294   3.751   7.467  0.7907 -1.2320 -1.1315
  119OSM    C3S12446   3.240   3.554   7.512 -0.1215  0.1033 -0.0138
  119OSM    H3S12447   3.153   3.493   7.480 -0.4351  0.6404 -0.1961
  119OSM     O312448   3.244   3.526   7.659  0.2110 -0.3437  0.0314
  119OSM    HO312449   3.224   3.614   7.691  1.7635 -0.2095  0.7172
  119OSM    C4S12450   3.356   3.486   7.444 -0.5063  0.0744  0.2818
  119OSM    H4S12451   3.333   3.436   7.349  0.8555  0.3985 -0.2525
  119OSM    C5S12452   3.483   3.484   7.485 -0.0781 -0.5547  0.2349
  119OSM    H5S12453   3.506   3.517   7.587 -0.8163 -1.0559  0.5672
  119OSM    C6S12454   3.599   3.416   7.415  0.2125 -0.3314  0.2627
  119OSM    H6S12455   3.670   3.370   7.487  1.6279 -0.4711 -1.1720
  119OSM    H6T12456   3.675   3.487   7.377  0.5624 -0.4740  0.6834
  119OSM    C7S12457   3.561   3.299   7.309 -0.5550  0.3977 -0.2101
  119OSM    H7S12458   3.660   3.256   7.283  0.2257  0.6602  2.0927
  119OSM    H7T12459   3.541   3.355   7.216  1.6014 -0.5825 -1.3500
  119OSM    C8S12460   3.467   3.195   7.359  0.4167 -0.1846 -0.1719
  119OSM    H8S12461   3.366   3.241   7.352  1.6221  2.5037 -1.5760
  119OSM    H8T12462   3.492   3.173   7.465 -0.0647  0.3675  0.0604
  119OSM    C9S12463   3.456   3.079   7.260  0.5515 -0.2201 -0.2611
  119OSM    H9S12464   3.394   2.996   7.299 -2.1992  2.2480  0.9850
  119OSM    H9T12465   3.558   3.034   7.254  0.4958 -0.6023  1.3107
  119OSM   C10S12466   3.408   3.133   7.121  0.5624 -0.3906 -0.0403
  119OSM   H10S12467   3.494   3.189   7.081  0.7621  0.0267  0.9389
  119OSM   H10T12468   3.323   3.202   7.139 -0.1381 -0.5942 -2.3509
  119OSM   C11S12469   3.387   3.018   7.017 -0.1340 -0.0717  0.1235
  119OSM   H11S12470   3.287   2.969   7.021  0.4606 -1.2684  1.0242
  119OSM   H11T12471   3.463   2.943   7.047 -0.2985  0.2870  1.5016
  119OSM   C12S12472   3.397   3.050   6.869 -0.7611 -0.5092  0.1314
  119OSM   H12S12473   3.500   3.089   6.852 -0.0898 -2.2713 -0.0253
  119OSM   H12T12474   3.326   3.134   6.858 -1.2175 -1.0094 -0.8668
  119OSM   C13S12475   3.382   2.930   6.773 -0.2931 -0.2637  0.3006
  119OSM   H13S12476   3.281   2.884   6.776 -0.2378 -0.5050 -0.9875
  119OSM   H13T12477   3.450   2.845   6.797  0.7647 -0.7491 -3.7299
  119OSM   C14S12478   3.415   2.967   6.632 -0.1994 -0.0447  0.0210
  119OSM   H14S12479   3.435   2.876   6.572 -2.4367 -0.3929 -0.2756
  119OSM   H14T12480   3.504   3.033   6.640 -0.1789 -0.0618 -0.0710
  119OSM   C15S12481   3.320   3.063   6.559 -0.6728  0.3534  0.1056
  119OSM   H15S12482   3.312   3.163   6.607 -0.2298  0.8107 -0.7439
  119OSM   H15T12483   3.220   3.014   6.560 -1.5556  2.0308  2.3278
  119OSM   C16S12484   3.372   3.109   6.420 -0.2420  0.5925 -0.1145
  119OSM   H16S12485   3.380   3.018   6.357  0.7698  0.6988 -0.1595
  119OSM   H16T12486   3.467   3.162   6.442 -0.0066 -0.8864  3.0845
  119OSM   C17S12487   3.255   3.180   6.347  0.1777 -0.1365 -0.2292
  119OSM   H17S12488   3.160   3.127   6.366  0.6824 -1.3341 -0.8875
  119OSM   H17T12489   3.265   3.169   6.237  0.4398  2.2349 -0.4926
  119OSM   C18S12490   3.254   3.332   6.375  0.2323 -0.8528 -0.3004
  119OSM   H18S12491   3.198   3.397   6.304  0.2637 -0.7395 -0.2225
  119OSM   H18T12492   3.353   3.382   6.373 -1.1147  2.0226 -0.9908
  119OSM   H18U12493   3.213   3.349   6.477  0.0038 -0.8855 -0.3858
  119OSM    C1F12494   3.119   3.790   7.259  0.3125  0.2262 -0.1676
  119OSM     OF12495   3.150   3.900   7.303 -0.5823 -0.3329  0.5826
  119OSM    C2F12496   3.054   3.760   7.121 -0.2067  0.0767 -0.2161
  119OSM    H2F12497   2.945   3.744   7.133 -0.5574  1.0931 -1.8068
  119OSM    H2G12498   3.106   3.673   7.076 -2.5316 -0.2961 -2.3424
  119OSM    C3F12499   3.063   3.883   7.021 -0.1343 -0.6505  0.4724
  119OSM    H3F12500   3.169   3.905   6.994 -0.0866 -0.8230  0.5119
  119OSM    H3G12501   3.022   3.964   7.084 -2.3695 -1.9401  0.7989
  119OSM    C4F12502   2.970   3.866   6.903 -0.0113 -0.7223  0.4287
  119OSM    H4F12503   2.954   3.965   6.856  2.6577 -0.1359  0.5959
  119OSM    H4G12504   2.868   3.827   6.921  0.5654 -2.6836 -0.3231
  119OSM    C5F12505   3.026   3.770   6.798 -0.5957  0.6116 -0.2133
  119OSM    H5F12506   3.026   3.669   6.844 -0.6557  1.3131  1.3797
  119OSM    H5G12507   3.133   3.791   6.776 -0.4629 -0.0400 -0.2250
  119OSM    C6F12508   2.954   3.784   6.658 -0.0637 -0.0563  0.2117
  119OSM    H6F12509   2.966   3.885   6.615 -0.1558  0.2833  0.9646
  119OSM    H6G12510   2.853   3.743   6.679  0.7627 -1.4353  1.7106
  119OSM    C7F12511   3.018   3.679   6.566 -0.4158 -0.4102 -0.1000
  119OSM    H7F12512   3.021   3.576   6.608 -2.3323 -1.2279 -1.7854
  119OSM    H7G12513   3.117   3.724   6.545 -0.5122 -1.4246 -3.1204
  119OSM    C8F12514   2.929   3.660   6.441 -0.4709 -0.0761 -0.7918
  119OSM    H8F12515   2.825   3.657   6.479 -1.2242  1.8628 -2.5237
  119OSM    H8G12516   2.948   3.562   6.393  0.2722 -0.3960  0.1208
  119OSM    C9F12517   2.943   3.774   6.346  0.3753  0.4227 -0.3188
  119OSM    H9F12518   2.858   3.844   6.341  0.5818  0.6635 -0.5347
  119OSM   C10F12519   3.051   3.792   6.271 -0.3501 -0.2448 -0.1322
  119OSM   H10F12520   3.059   3.880   6.206  0.7848 -0.6048 -0.5113
  119OSM   C11F12521   3.177   3.707   6.270  0.5645  0.4003  0.0518
  119OSM   H11F12522   3.178   3.640   6.359  0.0746  1.0009  0.5208
  119OSM   H11G12523   3.265   3.772   6.289  0.6335  0.7498 -1.3725
  119OSM   C12F12524   3.204   3.622   6.143  0.3597  0.0769  0.3897
  119OSM   H12F12525   3.134   3.537   6.158  0.4550 -0.4503 -1.8211
  119OSM   H12G12526   3.312   3.597   6.130  0.1108 -1.0340  0.3158
  119OSM   C13F12527   3.150   3.688   6.008 -0.1778 -0.0118  0.0108
  119OSM   H13F12528   3.194   3.789   5.993 -1.7927  0.7408  0.0949
  119OSM   H13G12529   3.041   3.706   6.015 -0.1024 -0.1959  3.8437
  119OSM   C14F12530   3.182   3.607   5.885  0.0249 -0.0703 -0.6866
  119OSM   H14F12531   3.149   3.503   5.906  0.6663 -0.1354  0.0480
  119OSM   H14G12532   3.293   3.601   5.875 -0.0379 -0.5193 -1.1645
  119OSM   C15F12533   3.116   3.641   5.752  0.1564 -0.2217 -0.0129
  119OSM   H15F12534   3.140   3.749   5.738 -0.4140 -0.2120 -1.0123
  119OSM   H15G12535   3.007   3.641   5.769  0.5470  2.3375  3.5268
  119OSM   C16F12536   3.166   3.565   5.629 -0.1910 -0.3047  0.2577
  119OSM   H16F12537   3.183   3.457   5.646 -3.2272 -1.1909 -1.5722
  119OSM   H16G12538   3.265   3.605   5.599  0.4279 -2.4919 -0.7890
  119OSM   C17F12539   3.073   3.566   5.512 -0.5429 -0.2658  0.5339
  119OSM   H17F12540   2.986   3.508   5.549 -1.2196  0.4871  0.1591
  119OSM   H17G12541   3.119   3.515   5.425 -2.5081 -0.5058 -0.4257
  119OSM   C18F12542   3.032   3.710   5.468 -0.2689  0.5698 -0.6339
  119OSM   H18F12543   3.119   3.777   5.453  2.3241 -2.2141  0.9263
  119OSM   H18G12544   2.978   3.751   5.556  1.8920  0.3053  0.8863
  119OSM   H18H12545   2.951   3.708   5.392 -2.3326 -2.0976  1.4213
  120OSM      N12546   4.748   2.124   7.432 -0.2839 -0.2580 -0.4336
  120OSM    C1512547   4.893   2.085   7.472  0.4979  0.0088  0.1339
  120OSM   H15A12548   4.920   2.153   7.552 -0.1811 -1.4446  1.6719
  120OSM   H15B12549   4.957   2.106   7.388  0.6564  0.2188  0.3079
  120OSM   H15C12550   4.894   1.981   7.504  0.1133 -0.6866 -1.9389
  120OSM    C1412551   4.658   2.130   7.554 -0.4769 -0.4651  0.9002
  120OSM   H14A12552   4.559   2.166   7.530  0.5285  1.4656 -0.6031
  120OSM   H14B12553   4.703   2.185   7.636 -0.9856  0.3131  0.6642
  120OSM   H14C12554   4.654   2.030   7.595 -1.0376 -0.5645  0.6111
  120OSM    C1312555   4.765   2.262   7.377  0.2175 -0.8953 -0.2121
  120OSM   H13A12556   4.674   2.311   7.348  0.1704 -1.3075 -0.7794
  120OSM   H13B12557   4.825   2.266   7.287  0.1772 -1.5197 -0.2713
  120OSM   H13C12558   4.809   2.327   7.451 -0.1936 -3.1936  2.2570
  120OSM    C1212559   4.687   2.038   7.329  0.1958 -0.2783 -0.2015
  120OSM   H12A12560   4.748   2.035   7.239 -1.8679  1.2690 -1.7551
  120OSM   H12B12561   4.596   2.080   7.289  0.9838  2.0004  0.2659
  120OSM    C1112562   4.657   1.895   7.369 -0.0542  0.0535 -0.4800
  120OSM   H11A12563   4.603   1.837   7.292 -1.8367 -0.9381  1.3933
  120OSM   H11B12564   4.589   1.892   7.457  2.9867 -0.1714  2.0584
  120OSM      P12565   4.865   1.754   7.296 -0.3539  0.5158  0.3820
  120OSM    O1312566   5.005   1.758   7.333  0.3459  0.0706  0.5926
  120OSM    O1412567   4.812   1.622   7.265 -0.0631 -0.3181  0.0826
  120OSM    O1112568   4.847   1.851   7.170 -0.3192 -0.4664  0.1012
  120OSM    O1212569   4.778   1.823   7.411 -0.3508  0.4950  0.1014
  120OSM    C1S12570   4.959   1.847   7.076  0.8066 -0.1113  0.3339
  120OSM    H1S12571   5.011   1.749   7.067 -0.0398 -0.6373  1.0909
  120OSM    H1T12572   5.040   1.919   7.100 -0.3044  1.6236 -0.8192
  120OSM     NF12573   4.987   1.820   6.828  0.1343 -0.2552 -0.2892
  120OSM    HNF12574   5.009   1.875   6.748  1.6304 -0.6283 -0.1718
  120OSM    C2S12575   4.904   1.886   6.934 -0.1451  0.4803  0.0333
  120OSM    H2S12576   4.806   1.834   6.924 -1.1102  2.2048  0.1683
  120OSM    C3S12577   4.874   2.041   6.919  0.1997  0.0879 -0.2106
  120OSM    H3S12578   4.975   2.087   6.931  0.4663 -0.4085 -0.5383
  120OSM     O312579   4.794   2.096   7.031 -0.3537  0.4863  0.3386
  120OSM    HO312580   4.856   2.077   7.102  0.5032  3.1294  0.4041
  120OSM    C4S12581   4.809   2.084   6.794 -0.1874  0.0707  0.0247
  120OSM    H4S12582   4.712   2.035   6.776  0.2442 -0.5290 -0.7382
  120OSM    C5S12583   4.859   2.186   6.713 -0.3082  0.5533  0.2473
  120OSM    H5S12584   4.946   2.243   6.750  0.6624 -0.0269 -1.0687
  120OSM    C6S12585   4.798   2.234   6.579 -0.0906 -0.3741 -0.3638
  120OSM    H6S12586   4.769   2.341   6.582  1.0229 -0.0700  2.2633
  120OSM    H6T12587   4.713   2.173   6.539 -0.2067 -0.5988  0.2072
  120OSM    C7S12588   4.909   2.228   6.473 -0.0009  0.8736 -0.4882
  120OSM    H7S12589   4.957   2.128   6.465 -1.3721  0.3110 -2.2756
  120OSM    H7T12590   4.989   2.298   6.507  0.0169  0.9982 -0.7852
  120OSM    C8S12591   4.852   2.259   6.332  0.1871 -0.0295 -0.5822
  120OSM    H8S12592   4.817   2.364   6.323 -0.8432 -0.0014  2.5649
  120OSM    H8T12593   4.762   2.197   6.310 -0.5132  1.3727 -1.8592
  120OSM    C9S12594   4.953   2.230   6.217  0.0087 -0.5752  0.6343
  120OSM    H9S12595   4.989   2.125   6.223 -0.2650 -0.6301  1.5007
  120OSM    H9T12596   5.041   2.298   6.218 -0.9651  0.7461 -0.6876
  120OSM   C10S12597   4.884   2.250   6.079 -0.0193  0.2419  0.0593
  120OSM   H10S12598   4.846   2.354   6.075 -0.1662  0.1610 -1.2562
  120OSM   H10T12599   4.798   2.184   6.053 -1.0840  1.9837 -1.0521
  120OSM   C11S12600   4.999   2.254   5.973 -0.1212  0.2534 -0.2693
  120OSM   H11S12601   5.041   2.151   5.976 -0.9239 -0.0607  2.3637
  120OSM   H11T12602   5.074   2.331   6.001  0.4104  0.0359 -1.0672
  120OSM   C12S12603   4.961   2.283   5.830 -0.1730 -0.4762 -0.2536
  120OSM   H12S12604   5.055   2.275   5.770 -0.6353  2.7579 -1.5665
  120OSM   H12T12605   4.946   2.392   5.827  1.2966 -0.2688 -1.3266
  120OSM   C13S12606   4.835   2.218   5.767 -0.4823  0.2834 -0.1425
  120OSM   H13S12607   4.748   2.220   5.836  0.0300 -0.7848  0.5569
  120OSM   H13T12608   4.873   2.114   5.757  0.8266  0.8038 -0.9493
  120OSM   C14S12609   4.793   2.282   5.636  0.3763  0.4440  0.4297
  120OSM   H14S12610   4.883   2.293   5.572  1.0718  4.9635  1.8870
  120OSM   H14T12611   4.750   2.381   5.661 -0.2844 -0.1651  1.8267
  120OSM   C15S12612   4.685   2.201   5.574  0.4863  0.6276  0.0499
  120OSM   H15S12613   4.614   2.180   5.657  2.3291  0.9639  1.8200
  120OSM   H15T12614   4.735   2.104   5.551 -2.9986 -1.0957 -0.8744
  120OSM   C16S12615   4.624   2.277   5.457  0.0630  0.4376  1.1546
  120OSM   H16S12616   4.580   2.370   5.500  1.1490  1.2369  0.6000
  120OSM   H16T12617   4.550   2.214   5.404  0.0274  0.0863  1.6151
  120OSM   C17S12618   4.742   2.312   5.355 -0.0491  0.2061  0.2500
  120OSM   H17S12619   4.800   2.219   5.336 -0.5919 -0.3016  1.0398
  120OSM   H17T12620   4.820   2.388   5.378  2.0076 -1.6792 -0.1460
  120OSM   C18S12621   4.682   2.369   5.221 -0.0960  0.3775 -0.2081
  120OSM   H18S12622   4.759   2.353   5.143  2.3241 -0.4432  2.1760
  120OSM   H18T12623   4.674   2.480   5.219  0.1718  0.4533  1.3949
  120OSM   H18U12624   4.585   2.320   5.199  0.8161 -1.9103  0.5381
  120OSM    C1F12625   5.001   1.691   6.809  0.2375  0.6470 -0.2831
  120OSM     OF12626   4.944   1.609   6.877  0.8328  0.7494 -0.3635
  120OSM    C2F12627   5.096   1.641   6.699  0.3456 -0.6779 -0.2420
  120OSM    H2F12628   5.197   1.663   6.740  0.0509  0.2918  0.0078
  120OSM    H2G12629   5.075   1.697   6.604 -0.6425 -0.3466  0.1553
  120OSM    C3F12630   5.076   1.489   6.680  0.1943 -0.1983 -0.4231
  120OSM    H3F12631   4.967   1.473   6.665 -0.9022  3.2890  2.4345
  120OSM    H3G12632   5.113   1.445   6.776 -0.8573  2.0261  1.0890
  120OSM    C4F12633   5.153   1.439   6.555 -0.8696 -0.0615 -0.4538
  120OSM    H4F12634   5.183   1.333   6.569 -1.7153 -0.4460 -1.3941
  120OSM    H4G12635   5.247   1.497   6.544  0.5883 -2.1147  0.6025
  120OSM    C5F12636   5.077   1.434   6.417  0.1465  0.6268 -0.5683
  120OSM    H5F12637   5.030   1.534   6.409  0.9137  1.1582  1.0172
  120OSM    H5G12638   5.009   1.347   6.427  1.2474 -0.0788  1.6300
  120OSM    C6F12639   5.182   1.412   6.305 -0.2501 -0.0774  0.3695
  120OSM    H6F12640   5.247   1.326   6.330 -1.4548 -1.2248 -0.2744
  120OSM    H6G12641   5.240   1.506   6.311 -1.2266  0.4769  1.7149
  120OSM    C7F12642   5.116   1.390   6.168 -0.6176 -0.6581 -0.0409
  120OSM    H7F12643   5.062   1.481   6.133  0.3649  2.2063  4.8231
  120OSM    H7G12644   5.036   1.315   6.183 -1.4555  0.1572 -0.3512
  120OSM    C8F12645   5.208   1.340   6.051  0.4063  0.1627  0.0242
  120OSM    H8F12646   5.137   1.314   5.969  1.4560 -0.3730 -0.7377
  120OSM    H8G12647   5.250   1.240   6.077  0.5272 -0.5359 -2.5257
  120OSM    C9F12648   5.306   1.433   5.992 -0.5696 -0.7567  0.1647
  120OSM    H9F12649   5.394   1.462   6.052 -2.8316  1.7880  2.5566
  120OSM   C10F12650   5.294   1.502   5.873 -0.7259 -0.6289  0.3290
  120OSM   H10F12651   5.385   1.561   5.853 -2.2978  2.4554  1.4964
  120OSM   C11F12652   5.195   1.517   5.758 -0.1553 -0.2878 -0.0870
  120OSM   H11F12653   5.174   1.626   5.762  2.8462  0.5104 -2.6274
  120OSM   H11G12654   5.102   1.457   5.769  0.7405 -1.7589 -0.3046
  120OSM   C12F12655   5.265   1.485   5.616  0.1267  0.8329 -0.5643
  120OSM   H12F12656   5.350   1.556   5.606  0.2227  0.7572 -0.2977
  120OSM   H12G12657   5.199   1.504   5.529  0.5960  0.7270 -0.9485
  120OSM   C13F12658   5.314   1.340   5.605 -0.2409  0.4010  0.5882
  120OSM   H13F12659   5.238   1.278   5.657  0.9208 -0.8161  0.8826
  120OSM   H13G12660   5.404   1.343   5.670  0.2009 -1.0297  0.0717
  120OSM   C14F12661   5.351   1.275   5.469 -0.1711  0.2992 -0.1193
  120OSM   H14F12662   5.262   1.274   5.402 -1.7584  3.6344  1.7151
  120OSM   H14G12663   5.376   1.167   5.484 -1.5164 -0.0434 -0.2301
  120OSM   C15F12664   5.451   1.361   5.391  0.3530 -0.6197  0.6511
  120OSM   H15F12665   5.403   1.460   5.373  1.8460 -0.2706 -1.9703
  120OSM   H15G12666   5.463   1.318   5.290  0.4422  0.2431  0.2831
  120OSM   C16F12667   5.589   1.393   5.451  0.5009  0.3521 -0.3583
  120OSM   H16F12668   5.581   1.471   5.530  0.1020  0.8545 -0.8859
  120OSM   H16G12669   5.663   1.426   5.375 -1.7324  0.4362 -2.6418
  120OSM   C17F12670   5.646   1.267   5.522  0.2425 -0.1232 -0.1665
  120OSM   H17F12671   5.644   1.179   5.453 -0.6748 -2.3360  2.4955
  120OSM   H17G12672   5.591   1.240   5.615  0.0869  2.6608  0.6241
  120OSM   C18F12673   5.792   1.305   5.554  0.4612  0.6549  0.6397
  120OSM   H18F12674   5.835   1.220   5.611 -0.7692 -0.6428 -0.3054
  120OSM   H18G12675   5.789   1.392   5.623 -0.3207  0.6024  0.6913
  120OSM   H18H12676   5.850   1.328   5.462 -0.1852  1.0132  0.3078
  121OSM      N12677   4.242   4.590   7.852  0.2807 -0.0679  0.3074
  121OSM    C1512678   4.202   4.697   7.955  0.0697  0.2968  0.2306
  121OSM   H15A12679   4.251   4.679   8.050  0.1287 -0.9348 -0.0112
  121OSM   H15B12680   4.095   4.694   7.968  0.0204 -1.2346 -0.3342
  121OSM   H15C12681   4.234   4.795   7.922  2.8357 -0.6878 -0.2551
  121OSM    C1412682   4.127   4.485   7.845  0.1421 -0.0274  0.0984
  121OSM   H14A12683   4.108   4.435   7.939 -0.1214  1.9615  1.1592
  121OSM   H14B12684   4.149   4.408   7.773  1.2052  0.1851  0.1797
  121OSM   H14C12685   4.035   4.535   7.817  0.5556  0.8384  0.2299
  121OSM    C1312686   4.263   4.664   7.720  0.5840  0.4314  0.0304
  121OSM   H13A12687   4.172   4.707   7.681  1.4300  0.5367 -1.9538
  121OSM   H13B12688   4.294   4.589   7.649 -0.9698 -0.9611  0.7435
  121OSM   H13C12689   4.334   4.744   7.732  1.6201 -0.3843 -0.4480
  121OSM    C1212690   4.369   4.514   7.890 -0.1149 -0.1153  0.0457
  121OSM   H12A12691   4.342   4.458   7.979 -0.7273  0.4868  0.2473
  121OSM   H12B12692   4.446   4.580   7.927 -0.5421  0.0928  0.5907
  121OSM    C1112693   4.421   4.417   7.788  0.7519  0.1749  0.1450
  121OSM   H11A12694   4.516   4.369   7.820  0.0783  0.0221  2.0685
  121OSM   H11B12695   4.441   4.461   7.688  1.7134  1.7722  0.9928
  121OSM      P12696   4.337   4.183   7.852  0.4149  0.3190 -0.2715
  121OSM    O1312697   4.367   4.215   7.991  0.2907  0.1359 -0.5840
  121OSM    O1412698   4.216   4.093   7.828 -0.3518  0.5055  0.3441
  121OSM    O1112699   4.467   4.118   7.791  0.2427  0.2028 -0.4939
  121OSM    O1212700   4.326   4.315   7.762 -0.1569  0.3039  1.1479
  121OSM    C1S12701   4.467   4.083   7.650 -0.5464 -0.2044  0.0564
  121OSM    H1S12702   4.388   4.141   7.597  0.7138 -0.9650 -2.8053
  121OSM    H1T12703   4.444   3.976   7.635 -0.8857 -0.5048  2.3614
  121OSM     NF12704   4.582   4.076   7.441 -0.0178 -0.3661 -0.5570
  121OSM    HNF12705   4.637   3.995   7.422  3.1667  1.2395  1.1211
  121OSM    C2S12706   4.599   4.124   7.577 -1.1824  0.0036  0.1077
  121OSM    H2S12707   4.597   4.235   7.574 -3.1507  0.0416  1.0440
  121OSM    C3S12708   4.726   4.059   7.654 -0.2255 -0.5701 -0.5042
  121OSM    H3S12709   4.711   3.949   7.653 -0.6859 -0.5194  0.0087
  121OSM     O312710   4.735   4.094   7.793 -0.1757  0.1405  0.2801
  121OSM    HO312711   4.656   4.140   7.820 -0.8076 -1.5110  1.3673
  121OSM    C4S12712   4.853   4.072   7.581  0.6533  0.1352  0.4568
  121OSM    H4S12713   4.884   3.988   7.518  1.1325  1.0672 -0.5873
  121OSM    C5S12714   4.921   4.186   7.586 -0.1471 -0.2045 -0.0286
  121OSM    H5S12715   4.878   4.271   7.642  0.2656 -0.7323  1.1191
  121OSM    C6S12716   5.050   4.208   7.517 -0.4407 -0.2565 -0.0936
  121OSM    H6S12717   5.103   4.115   7.485 -0.0826 -0.5540  1.3256
  121OSM    H6T12718   5.114   4.262   7.590 -1.1055  1.8188 -0.9581
  121OSM    C7S12719   5.036   4.294   7.388 -0.4257  0.3693  0.0092
  121OSM    H7S12720   5.140   4.320   7.359 -0.4397  1.1855  0.6624
  121OSM    H7T12721   4.993   4.394   7.412  1.6887  1.0330  1.2119
  121OSM    C8S12722   4.946   4.219   7.280  0.7652  0.1832 -0.2116
  121OSM    H8S12723   4.837   4.228   7.296  0.7681 -0.6774  0.3582
  121OSM    H8T12724   4.971   4.112   7.295 -0.6024 -0.3833 -1.7005
  121OSM    C9S12725   4.976   4.259   7.134 -0.0416  0.5663  0.2041
  121OSM    H9S12726   5.086   4.268   7.126  0.1270  0.6003  2.0792
  121OSM    H9T12727   4.947   4.363   7.108 -5.0063 -0.2403  1.4568
  121OSM   C10S12728   4.918   4.168   7.028  0.0069  0.3895  0.1470
  121OSM   H10S12729   4.808   4.168   7.037  0.1541  0.7814  2.4267
  121OSM   H10T12730   4.949   4.065   7.053  2.6646  0.6117 -1.7357
  121OSM   C11S12731   4.955   4.217   6.889 -0.0163 -0.1958  0.0050
  121OSM   H11S12732   5.060   4.243   6.866 -0.3209 -1.2857 -3.1033
  121OSM   H11T12733   4.892   4.305   6.863  0.7639  0.0930 -0.9547
  121OSM   C12S12734   4.921   4.111   6.789 -0.1385  0.0529 -0.1162
  121OSM   H12S12735   4.812   4.095   6.799 -0.2289  1.9278  4.0182
  121OSM   H12T12736   4.968   4.015   6.819 -1.0453 -0.6342 -0.8710
  121OSM   C13S12737   4.978   4.144   6.645  0.8289  0.4780 -0.5682
  121OSM   H13S12738   5.087   4.155   6.662  0.8499  0.8523 -0.9460
  121OSM   H13T12739   4.934   4.236   6.602 -0.5124 -0.4678 -1.2845
  121OSM   C14S12740   4.944   4.027   6.540 -0.0009  0.1401  0.4013
  121OSM   H14S12741   4.837   4.016   6.510  0.7389  0.3682 -2.6724
  121OSM   H14T12742   4.965   3.926   6.581  1.7551  0.1194 -0.4472
  121OSM   C15S12743   5.032   4.038   6.413 -0.6433 -0.2789  0.1862
  121OSM   H15S12744   5.132   4.037   6.461 -0.4248  3.4827  0.0993
  121OSM   H15T12745   5.021   4.138   6.366 -0.0803 -0.7769 -1.0801
  121OSM   C16S12746   5.020   3.921   6.312  0.1314 -0.6976  0.0751
  121OSM   H16S12747   4.916   3.913   6.274  0.8966 -1.1743 -2.0272
  121OSM   H16T12748   5.048   3.835   6.377 -1.9686 -0.3377  1.5810
  121OSM   C17S12749   5.118   3.934   6.194 -0.5314 -0.2976  0.1399
  121OSM   H17S12750   5.110   3.844   6.129  1.0216  1.3640 -2.5364
  121OSM   H17T12751   5.224   3.944   6.226 -0.6396  0.5247  0.2677
  121OSM   C18S12752   5.083   4.042   6.096 -0.6167 -0.1301 -0.2276
  121OSM   H18S12753   4.976   4.040   6.065 -0.8687  3.5267 -0.0881
  121OSM   H18T12754   5.147   4.036   6.006  0.8912 -2.2501  0.8838
  121OSM   H18U12755   5.109   4.135   6.151  1.0516 -1.1563  0.8132
  121OSM    C1F12756   4.484   4.119   7.351  0.5881  0.6930  0.4884
  121OSM     OF12757   4.413   4.215   7.369 -0.1887  0.4179 -0.2478
  121OSM    C2F12758   4.449   4.029   7.231 -0.4683  0.2829  0.0028
  121OSM    H2F12759   4.422   4.091   7.144  0.2433 -0.1338 -0.5311
  121OSM    H2G12760   4.369   3.956   7.256 -0.4179  0.0423 -0.5248
  121OSM    C3F12761   4.565   3.929   7.185  0.5919 -0.2348  1.0382
  121OSM    H3F12762   4.580   3.857   7.268  1.7300 -0.4701  0.6479
  121OSM    H3G12763   4.664   3.979   7.182  1.1570 -1.3509  0.3204
  121OSM    C4F12764   4.541   3.866   7.044 -0.3957 -0.1161  0.0203
  121OSM    H4F12765   4.450   3.802   7.041  0.3144 -1.1042 -0.9344
  121OSM    H4G12766   4.627   3.799   7.024 -0.6510 -0.1864 -0.8556
  121OSM    C5F12767   4.537   3.965   6.933  0.2814  0.4996  0.4948
  121OSM    H5F12768   4.635   4.016   6.928  1.3742 -1.4325  1.0473
  121OSM    H5G12769   4.472   4.055   6.944  0.0730  0.4349 -0.1471
  121OSM    C6F12770   4.507   3.910   6.794 -0.1517  0.6460 -0.1186
  121OSM    H6F12771   4.399   3.883   6.795  0.0539 -0.5502 -2.3327
  121OSM    H6G12772   4.569   3.822   6.764 -3.8902 -2.0868 -0.5751
  121OSM    C7F12773   4.500   4.020   6.687 -0.9118 -0.0110  0.1903
  121OSM    H7F12774   4.591   4.083   6.695 -1.8449  1.5400 -0.7747
  121OSM    H7G12775   4.412   4.084   6.708 -1.8446 -1.1207 -0.2060
  121OSM    C8F12776   4.457   3.975   6.540  0.0993  0.1234 -0.4353
  121OSM    H8F12777   4.462   4.073   6.488 -1.4709  0.9082  0.7976
  121OSM    H8G12778   4.348   3.954   6.548 -0.8885  4.1228 -1.2269
  121OSM    C9F12779   4.547   3.871   6.470 -0.2783 -0.0617 -0.2886
  121OSM    H9F12780   4.654   3.881   6.489  0.2952  0.3894 -3.2044
  121OSM   C10F12781   4.503   3.776   6.386 -0.9706 -0.9688  0.4646
  121OSM   H10F12782   4.584   3.710   6.351  2.7960  2.8358  1.2098
  121OSM   C11F12783   4.361   3.757   6.346  0.0745  0.4936 -0.4022
  121OSM   H11F12784   4.286   3.792   6.420  0.7822 -1.7151  1.5048
  121OSM   H11G12785   4.346   3.646   6.343 -0.0411  0.4875  0.3512
  121OSM   C12F12786   4.327   3.828   6.212  0.1993 -0.4014 -0.2567
  121OSM   H12F12787   4.365   3.932   6.205 -0.6032 -0.0781  0.0354
  121OSM   H12G12788   4.216   3.820   6.202  0.2666 -2.5527  0.2271
  121OSM   C13F12789   4.385   3.761   6.089 -0.2198 -0.4349 -0.2506
  121OSM   H13F12790   4.368   3.652   6.100  2.6383 -0.9811 -0.4566
  121OSM   H13G12791   4.496   3.770   6.088 -0.0458 -1.4949 -3.8360
  121OSM   C14F12792   4.326   3.804   5.959  0.8636  1.0892  0.1547
  121OSM   H14F12793   4.361   3.908   5.943  0.2198  1.5613  1.6822
  121OSM   H14G12794   4.216   3.791   5.967  1.2577 -1.8921  2.9916
  121OSM   C15F12795   4.372   3.711   5.850 -0.2364 -0.1942  0.5335
  121OSM   H15F12796   4.379   3.605   5.884 -0.7737 -0.1367  0.8168
  121OSM   H15G12797   4.469   3.741   5.803 -1.5216  0.3791 -1.9442
  121OSM   C16F12798   4.279   3.722   5.733  0.2956  0.1976  0.4158
  121OSM   H16F12799   4.173   3.715   5.765  0.4916 -0.8444  0.8721
  121OSM   H16G12800   4.303   3.639   5.663 -0.7624 -0.5653  0.9344
  121OSM   C17F12801   4.287   3.864   5.655 -0.4014  1.0438 -0.0020
  121OSM   H17F12802   4.315   3.939   5.732 -1.3912  2.1389 -0.6880
  121OSM   H17G12803   4.189   3.891   5.612  0.2059  2.5948 -0.4743
  121OSM   C18F12804   4.400   3.856   5.545  0.6899 -0.0552 -1.0402
  121OSM   H18F12805   4.363   3.802   5.454 -0.0860 -0.5918 -0.4226
  121OSM   H18G12806   4.487   3.795   5.577  0.9233  0.1533 -1.2716
  121OSM   H18H12807   4.419   3.956   5.502  0.0293 -0.5443 -2.5512
  122OSM      N12808   5.351   6.110   7.181 -0.3535  0.2408  0.1197
  122OSM    C1512809   5.341   6.231   7.267 -0.3189 -0.1029 -0.0620
  122OSM   H15A12810   5.305   6.317   7.212 -1.6752 -0.1448  0.7340
  122OSM   H15B12811   5.433   6.260   7.315  0.3908 -0.1009 -1.3849
  122OSM   H15C12812   5.277   6.207   7.350 -0.8625  2.6774  0.4175
  122OSM    C1412813   5.382   6.152   7.040  0.1056  0.3338  1.0522
  122OSM   H14A12814   5.468   6.217   7.042 -1.2923  2.2736  1.0231
  122OSM   H14B12815   5.301   6.210   6.998  2.4603  2.0397 -1.5171
  122OSM   H14C12816   5.408   6.064   6.984 -0.9945  1.5116 -1.4669
  122OSM    C1312817   5.469   6.031   7.221 -0.1574 -0.0673  0.1208
  122OSM   H13A12818   5.503   5.961   7.147  0.2691 -2.2415  2.2434
  122OSM   H13B12819   5.442   5.965   7.303  0.9247 -0.2518  0.3436
  122OSM   H13C12820   5.548   6.094   7.258  0.7990 -0.2134 -1.5911
  122OSM    C1212821   5.229   6.024   7.192  0.2993 -0.1586  0.1543
  122OSM   H12A12822   5.245   5.947   7.119  0.4249 -1.3458  1.4042
  122OSM   H12B12823   5.142   6.075   7.153  2.3122  2.6742 -1.0320
  122OSM    C1112824   5.195   5.966   7.326 -0.4977  0.3610 -0.2606
  122OSM   H11A12825   5.282   5.905   7.358 -2.5898 -1.4710  2.3546
  122OSM   H11B12826   5.111   5.893   7.327  0.2606 -0.5311 -0.0930
  122OSM      P12827   5.035   6.118   7.470 -0.0735 -0.0289  0.1637
  122OSM    O1312828   4.960   6.012   7.543  0.1304 -0.2329 -0.1268
  122OSM    O1412829   5.055   6.244   7.548 -0.0703  0.3124  0.3390
  122OSM    O1112830   4.967   6.145   7.332  0.3794  0.0999  0.0635
  122OSM    O1212831   5.185   6.062   7.432 -0.0330 -0.4232 -0.1510
  122OSM    C1S12832   4.988   6.262   7.256 -0.7426  0.4257  1.0539
  122OSM    H1S12833   5.092   6.267   7.217 -0.8887  2.1103  0.8083
  122OSM    H1T12834   4.976   6.353   7.319 -0.1821  2.7601 -2.0073
  122OSM     NF12835   4.935   6.386   7.062  0.2593 -0.2510  0.3605
  122OSM    HNF12836   4.894   6.473   7.086 -0.8435 -1.2270  2.2494
  122OSM    C2S12837   4.891   6.270   7.138 -0.1629 -0.0520 -0.3761
  122OSM    H2S12838   4.897   6.177   7.077  1.0920  0.8397 -1.6638
  122OSM    C3S12839   4.750   6.286   7.195 -0.3353 -0.0519 -0.0633
  122OSM    H3S12840   4.749   6.384   7.247  0.8183  0.1551 -0.4106
  122OSM     O312841   4.709   6.185   7.285 -0.1972 -0.0236  0.4920
  122OSM    HO312842   4.789   6.141   7.316 -0.6058  0.0168  1.6326
  122OSM    C4S12843   4.653   6.296   7.087  1.1144  0.2882  0.0019
  122OSM    H4S12844   4.621   6.199   7.046  0.3215  0.2414  0.6968
  122OSM    C5S12845   4.594   6.405   7.033  0.0072 -0.2639  0.0038
  122OSM    H5S12846   4.610   6.510   7.064 -1.0718 -0.4620  1.3099
  122OSM    C6S12847   4.503   6.408   6.918 -0.7315  0.1759  0.1622
  122OSM    H6S12848   4.539   6.493   6.856 -1.4177 -0.5261 -1.2707
  122OSM    H6T12849   4.411   6.442   6.971 -0.8292 -0.6737  0.5582
  122OSM    C7S12850   4.487   6.280   6.825  0.2691  0.0768 -0.2787
  122OSM    H7S12851   4.475   6.194   6.894 -1.9029 -0.7403 -1.5671
  122OSM    H7T12852   4.586   6.249   6.786  0.8627 -0.0275  1.2429
  122OSM    C8S12853   4.372   6.294   6.718 -0.4864 -0.2032 -0.4230
  122OSM    H8S12854   4.271   6.315   6.757 -0.7641 -1.3640 -0.4977
  122OSM    H8T12855   4.358   6.189   6.685  0.5974 -0.1842 -1.0029
  122OSM    C9S12856   4.412   6.384   6.598  0.2499  0.1125 -0.1153
  122OSM    H9S12857   4.521   6.377   6.579  0.6279  0.4683  1.7604
  122OSM    H9T12858   4.385   6.487   6.628 -0.5085 -0.6772  2.1122
  122OSM   C10S12859   4.331   6.353   6.472 -0.3928  0.1609 -0.7536
  122OSM   H10S12860   4.221   6.358   6.490 -0.6241 -1.6345 -1.4845
  122OSM   H10T12861   4.335   6.244   6.452 -2.6944 -0.1460  0.0878
  122OSM   C11S12862   4.373   6.432   6.350  0.2920 -0.0742  0.4709
  122OSM   H11S12863   4.481   6.408   6.334 -0.5085 -2.4264 -2.4030
  122OSM   H11T12864   4.376   6.542   6.365  2.1009  0.1751 -1.1619
  122OSM   C12S12865   4.303   6.394   6.223  1.2910  0.3161  1.0474
  122OSM   H12S12866   4.195   6.394   6.250  1.6542  0.8457  2.5768
  122OSM   H12T12867   4.325   6.288   6.197  0.5167  0.3689  0.1001
  122OSM   C13S12868   4.330   6.499   6.112 -0.1542 -0.2006 -0.2859
  122OSM   H13S12869   4.440   6.507   6.105 -0.1010 -0.3568  0.3355
  122OSM   H13T12870   4.287   6.597   6.143  2.7940  0.2948  2.6823
  122OSM   C14S12871   4.280   6.459   5.976  0.4733  0.2429  0.0004
  122OSM   H14S12872   4.169   6.450   5.982  0.4997  0.5181  1.3571
  122OSM   H14T12873   4.325   6.360   5.954 -0.4286 -0.0573 -0.5727
  122OSM   C15S12874   4.309   6.562   5.870 -0.5368 -0.1030  0.8135
  122OSM   H15S12875   4.418   6.581   5.859 -0.6327 -0.4827 -1.3155
  122OSM   H15T12876   4.258   6.656   5.898  0.1094  0.7259 -0.6236
  122OSM   C16S12877   4.248   6.528   5.719  0.4974  0.2381  0.1797
  122OSM   H16S12878   4.306   6.439   5.689  2.4729  1.9014 -1.2833
  122OSM   H16T12879   4.261   6.615   5.650 -2.0912  0.9397  0.4678
  122OSM   C17S12880   4.092   6.507   5.712  0.4655  0.0044  0.2423
  122OSM   H17S12881   4.041   6.595   5.757  0.8304 -0.2162  1.1023
  122OSM   H17T12882   4.062   6.418   5.771  0.9278  0.0301  0.5194
  122OSM   C18S12883   4.060   6.482   5.564  0.4512 -0.3432  0.5545
  122OSM   H18S12884   4.060   6.581   5.513  0.7919 -0.8872 -0.5480
  122OSM   H18T12885   3.960   6.434   5.552 -1.1150  2.5937  0.8463
  122OSM   H18U12886   4.138   6.417   5.518 -0.2258 -0.0187 -1.1264
  122OSM    C1F12887   5.036   6.380   6.975  0.1187  1.0875 -0.0865
  122OSM     OF12888   5.103   6.275   6.958  0.5180  0.2224  0.4133
  122OSM    C2F12889   5.077   6.499   6.904 -0.4775 -0.6832 -0.3714
  122OSM    H2F12890   5.161   6.473   6.836 -0.4299  1.0889 -1.0224
  122OSM    H2G12891   5.109   6.580   6.973 -2.1269  0.3438 -0.7400
  122OSM    C3F12892   4.957   6.559   6.819  0.7254 -0.4527 -0.6075
  122OSM    H3F12893   5.002   6.626   6.742 -0.2251  1.8305  0.7134
  122OSM    H3G12894   4.894   6.620   6.887 -0.8306 -1.2885 -1.2669
  122OSM    C4F12895   4.873   6.463   6.734  0.5581 -0.3032  0.1219
  122OSM    H4F12896   4.829   6.382   6.796 -0.5085 -0.5047 -0.8676
  122OSM    H4G12897   4.939   6.412   6.661 -1.1550  0.6225 -2.1876
  122OSM    C5F12898   4.760   6.521   6.640  0.2697 -0.0310  0.0818
  122OSM    H5F12899   4.669   6.551   6.696  0.1903  1.0754 -0.5900
  122OSM    H5G12900   4.723   6.452   6.561 -0.5776  0.5704 -0.0578
  122OSM    C6F12901   4.797   6.644   6.558 -0.4085 -0.0349  0.9166
  122OSM    H6F12902   4.852   6.716   6.623  0.6526  0.6769 -0.7131
  122OSM    H6G12903   4.704   6.696   6.528 -1.8659 -2.7621  0.3632
  122OSM    C7F12904   4.887   6.603   6.437 -0.3928  0.4008  0.2004
  122OSM    H7F12905   4.831   6.533   6.371 -0.5643  0.0234  0.7490
  122OSM    H7G12906   4.969   6.537   6.471 -0.3817  1.2669  1.9457
  122OSM    C8F12907   4.941   6.723   6.354  0.1143  0.4016  0.2596
  122OSM    H8F12908   5.014   6.683   6.280 -0.1844  2.9241 -1.4827
  122OSM    H8G12909   5.002   6.779   6.428  0.0046  1.6948 -0.5940
  122OSM    C9F12910   4.837   6.815   6.289 -0.4574  0.3954  0.8294
  122OSM    H9F12911   4.788   6.885   6.358 -2.6294 -1.0096  0.8390
  122OSM   C10F12912   4.825   6.829   6.149 -0.6426  0.1758 -0.3152
  122OSM   H10F12913   4.739   6.882   6.106 -2.5728 -2.9863 -0.6118
  122OSM   C11F12914   4.906   6.744   6.050 -0.3041 -0.3379  0.1268
  122OSM   H11F12915   5.005   6.711   6.088 -0.2697 -0.6787 -0.2522
  122OSM   H11G12916   4.930   6.808   5.962  0.1995 -1.2195 -0.3912
  122OSM   C12F12917   4.828   6.612   6.010  0.2660 -0.1278 -0.4571
  122OSM   H12F12918   4.796   6.559   6.103 -0.7068  0.2532 -0.5601
  122OSM   H12G12919   4.912   6.545   5.981  1.4943  1.1597  0.0564
  122OSM   C13F12920   4.736   6.604   5.889  1.4844  0.0413 -0.2932
  122OSM   H13F12921   4.657   6.682   5.896 -1.0354 -2.2452 -1.4792
  122OSM   H13G12922   4.683   6.507   5.898  0.3101  0.7954  1.6950
  122OSM   C14F12923   4.809   6.615   5.750  0.1454 -0.1366  0.6642
  122OSM   H14F12924   4.870   6.522   5.744  1.9389  0.9407  1.4713
  122OSM   H14G12925   4.886   6.694   5.768 -1.3889  1.1076  2.0251
  122OSM   C15F12926   4.721   6.647   5.628  0.1806  0.0009 -0.1001
  122OSM   H15F12927   4.781   6.704   5.554 -1.1387 -0.1447 -1.3328
  122OSM   H15G12928   4.637   6.710   5.665 -0.0035 -0.8841  1.0421
  122OSM   C16F12929   4.660   6.523   5.572  0.5870  0.8716  0.6677
  122OSM   H16F12930   4.560   6.552   5.534 -0.6634 -0.2302  2.9318
  122OSM   H16G12931   4.654   6.446   5.653 -0.7185 -0.6430 -0.8024
  122OSM   C17F12932   4.732   6.466   5.450 -0.1634 -0.3959  0.1156
  122OSM   H17F12933   4.841   6.452   5.466 -0.2802  0.3490  1.7724
  122OSM   H17G12934   4.717   6.549   5.377  0.8772  1.5014  1.9496
  122OSM   C18F12935   4.666   6.336   5.395  0.8822 -0.2223  0.1686
  122OSM   H18F12936   4.709   6.302   5.298  0.0783 -1.9029  0.3718
  122OSM   H18G12937   4.555   6.341   5.390  0.9402  0.6844 -0.4992
  122OSM   H18H12938   4.687   6.251   5.463  2.0132 -0.7981 -0.8668
  123OSM      N12939   0.935   6.726   2.875  0.3156 -0.2718  0.4931
  123OSM    C1512940   1.007   6.737   2.741  0.4409  0.3542 -0.2968
  123OSM   H15A12941   1.108   6.775   2.741  1.3555 -1.7666 -2.8747
  123OSM   H15B12942   0.952   6.799   2.671  0.3035 -1.7398 -2.1714
  123OSM   H15C12943   1.017   6.640   2.694 -2.6633 -0.0094 -0.4041
  123OSM    C1412944   0.948   6.876   2.919 -0.0591  0.1181  0.3419
  123OSM   H14A12945   1.047   6.908   2.947  0.1352  0.7998 -1.0571
  123OSM   H14B12946   0.880   6.907   2.997  2.1775  1.7163  1.7546
  123OSM   H14C12947   0.924   6.942   2.838  2.6698  0.0342 -0.6251
  123OSM    C1312948   0.784   6.697   2.852  0.3014 -0.3626 -0.3515
  123OSM   H13A12949   0.731   6.704   2.946  0.1331  2.5475 -0.5732
  123OSM   H13B12950   0.778   6.594   2.822  0.7582 -0.4174 -0.2518
  123OSM   H13C12951   0.737   6.767   2.785  0.8055  0.9598  0.6297
  123OSM    C1212952   1.012   6.631   2.967 -0.0831  0.5882  0.3518
  123OSM   H12A12953   1.117   6.654   2.955  0.1824 -0.5894  0.2189
  123OSM   H12B12954   0.990   6.529   2.937 -2.8646  1.6515 -1.6104
  123OSM    C1112955   0.980   6.639   3.111  0.0521 -0.6331 -0.1003
  123OSM   H11A12956   0.991   6.741   3.153  2.1102 -1.5994  1.9068
  123OSM   H11B12957   1.052   6.583   3.175 -0.7623 -0.4046  1.0473
  123OSM      P12958   0.816   6.447   3.183 -0.3920 -0.0303 -0.1910
  123OSM    O1312959   0.671   6.430   3.208  0.1508 -0.0453  0.0110
  123OSM    O1412960   0.893   6.348   3.101  0.3717  0.2783 -0.5921
  123OSM    O1112961   0.896   6.455   3.318 -0.0415 -0.0750 -0.5098
  123OSM    O1212962   0.843   6.594   3.125 -0.4390 -0.5802 -0.0835
  123OSM    C1S12963   0.854   6.540   3.430 -0.0695  0.6253 -0.2971
  123OSM    H1S12964   0.747   6.570   3.424 -0.2270 -0.0988 -1.2190
  123OSM    H1T12965   0.917   6.631   3.444  0.2774  0.4527 -0.7222
  123OSM     NF12966   0.798   6.520   3.665  0.7581 -0.0053 -1.2810
  123OSM    HNF12967   0.850   6.576   3.729  0.2565 -1.3795  0.4353
  123OSM    C2S12968   0.870   6.461   3.561  0.0937 -0.7512  0.0056
  123OSM    H2S12969   0.832   6.357   3.560  1.2701 -1.1999 -0.1569
  123OSM    C3S12970   1.025   6.443   3.580 -0.3002  0.5091 -0.3299
  123OSM    H3S12971   1.061   6.547   3.595  1.6722 -0.4322  1.9797
  123OSM     O312972   1.101   6.391   3.474 -0.3685  0.2405  0.4050
  123OSM    HO312973   1.039   6.389   3.400 -0.3222  3.1977  0.1649
  123OSM    C4S12974   1.046   6.363   3.712  0.5589  0.4845  0.6544
  123OSM    H4S12975   1.060   6.425   3.802 -2.4127  0.7225  1.0470
  123OSM    C5S12976   1.067   6.229   3.721  0.1524 -0.1056  0.0211
  123OSM    H5S12977   1.068   6.180   3.622 -0.6417  1.4219 -0.7892
  123OSM    C6S12978   1.063   6.138   3.832  0.4361  0.5230  0.3586
  123OSM    H6S12979   1.154   6.075   3.834 -1.7230 -2.9847 -1.3950
  123OSM    H6T12980   0.991   6.054   3.821  1.9967 -0.8303  0.1032
  123OSM    C7S12981   1.034   6.195   3.974  0.9464  0.1219 -0.2593
  123OSM    H7S12982   0.997   6.300   3.980  0.3471 -0.1795  2.7614
  123OSM    H7T12983   1.134   6.197   4.024  1.2050  0.6525 -0.7843
  123OSM    C8S12984   0.940   6.102   4.058 -0.1308 -0.4740 -0.4949
  123OSM    H8S12985   0.972   5.996   4.054  0.3384 -0.2824 -2.7428
  123OSM    H8T12986   0.841   6.105   4.007  0.1623  0.5863 -1.0406
  123OSM    C9S12987   0.933   6.162   4.204 -0.3597  0.1910 -0.6986
  123OSM    H9S12988   0.903   6.269   4.204  1.9226  0.8997 -2.1731
  123OSM    H9T12989   1.038   6.165   4.240  0.1164 -0.4216 -1.9817
  123OSM   C10S12990   0.855   6.059   4.293 -0.2203  0.1444  0.3109
  123OSM   H10S12991   0.909   5.962   4.302  0.3501  0.5254  1.0564
  123OSM   H10T12992   0.757   6.032   4.248  0.0060  0.4978 -0.3978
  123OSM   C11S12993   0.833   6.096   4.433 -0.5628 -0.5999 -0.7676
  123OSM   H11S12994   0.786   6.197   4.433  0.6777  0.0381  1.1079
  123OSM   H11T12995   0.925   6.100   4.495 -1.1868  0.9983  0.1328
  123OSM   C12S12996   0.733   6.012   4.504 -0.0903  0.3843  0.3759
  123OSM   H12S12997   0.769   5.908   4.515 -1.0397  0.1115  1.0367
  123OSM   H12T12998   0.645   6.011   4.437  3.0942 -0.1129 -4.3143
  123OSM   C13S12999   0.698   6.068   4.636  0.5707 -0.2830 -0.4410
  123OSM   H13S13000   0.663   6.173   4.631  1.0571  0.5064  5.6436
  123OSM   H13T13001   0.785   6.097   4.699 -0.0615  2.4894 -0.7160
  123OSM   C14S13002   0.593   5.975   4.705 -0.2643 -0.4355  0.3939
  123OSM   H14S13003   0.644   5.877   4.710  1.5384  0.2632 -2.0999
  123OSM   H14T13004   0.509   5.958   4.634  0.3567  0.9821 -0.7362
  123OSM   C15S13005   0.531   6.013   4.842 -0.4266  0.1098 -0.6280
  123OSM   H15S13006   0.508   6.121   4.852  0.9294  0.2619  1.3921
  123OSM   H15T13007   0.609   6.010   4.921 -0.0398 -0.3040 -1.0178
  123OSM   C16S13008   0.402   5.930   4.877  0.2983  0.9394  0.1041
  123OSM   H16S13009   0.430   5.823   4.889 -0.8224  0.7514  1.1801
  123OSM   H16T13010   0.320   5.941   4.803  0.8534 -0.2716 -0.7169
  123OSM   C17S13011   0.348   5.979   5.009 -0.0989 -0.1790  0.1867
  123OSM   H17S13012   0.284   6.069   5.017 -1.4019 -1.0286 -0.2777
  123OSM   H17T13013   0.432   6.026   5.065 -0.8689 -0.4018  1.5783
  123OSM   C18S13014   0.284   5.872   5.095  1.0230 -0.0948  0.8878
  123OSM   H18S13015   0.212   5.823   5.027 -0.8098  3.7028 -0.1762
  123OSM   H18T13016   0.227   5.919   5.178 -1.1281 -0.1427 -0.5076
  123OSM   H18U13017   0.358   5.800   5.138  1.0208 -1.1692 -0.8289
  123OSM    C1F13018   0.664   6.526   3.684 -0.0044  0.6715  0.0107
  123OSM     OF13019   0.581   6.487   3.601 -0.8319 -0.0770  0.2437
  123OSM    C2F13020   0.620   6.588   3.811 -0.5000  0.4179  0.2976
  123OSM    H2F13021   0.648   6.695   3.818 -1.6971  0.6418  2.6858
  123OSM    H2G13022   0.674   6.541   3.896 -3.2766 -0.0859  1.8939
  123OSM    C3F13023   0.472   6.573   3.838  0.6502  1.1170 -0.9841
  123OSM    H3F13024   0.448   6.465   3.839 -1.9919  1.6362  0.3102
  123OSM    H3G13025   0.409   6.620   3.759 -0.4079 -0.6034 -1.2244
  123OSM    C4F13026   0.428   6.640   3.972 -0.1823 -0.2820 -0.9050
  123OSM    H4F13027   0.450   6.748   3.975 -0.2567 -0.2732 -0.6538
  123OSM    H4G13028   0.482   6.588   4.054  0.4461  0.5359 -0.7954
  123OSM    C5F13029   0.291   6.618   4.018  0.2533  0.5419  0.2621
  123OSM    H5F13030   0.278   6.507   4.024 -0.2169  0.5964  0.2509
  123OSM    H5G13031   0.226   6.663   3.940 -0.0835  0.5840  0.5625
  123OSM    C6F13032   0.261   6.675   4.163 -0.0182 -0.5795  0.3652
  123OSM    H6F13033   0.279   6.785   4.160 -0.6016 -0.5012 -1.9384
  123OSM    H6G13034   0.335   6.616   4.222  0.4643 -0.2918  0.0593
  123OSM    C7F13035   0.122   6.656   4.229 -0.0232  0.1212 -0.5329
  123OSM    H7F13036   0.095   6.550   4.212  1.4228 -0.7771  2.1477
  123OSM    H7G13037   0.043   6.728   4.199 -0.0411 -0.2095 -1.2796
  123OSM    C8F13038   0.134   6.671   4.385  0.6137 -0.1827  0.1788
  123OSM    H8F13039   0.170   6.770   4.418  0.3038 -0.0862  0.2219
  123OSM    H8G13040   0.210   6.594   4.412  1.1017  0.0760 -0.4135
  123OSM    C9F13041   0.001   6.641   4.457 -0.5659 -0.2549 -0.4091
  123OSM    H9F13042  -0.082   6.611   4.391  0.1321  1.3481 -2.1101
  123OSM   C10F13043  -0.019   6.645   4.593  0.3685  0.0657 -0.0302
  123OSM   H10F13044  -0.122   6.630   4.627 -0.4952  4.0239 -0.4334
  123OSM   C11F13045   0.080   6.685   4.698  0.2812  0.3297  0.3817
  123OSM   H11F13046   0.154   6.757   4.657  0.4395 -0.0517 -0.0113
  123OSM   H11G13047   0.158   6.607   4.714 -0.7007 -0.9784 -0.9028
  123OSM   C12F13048   0.009   6.719   4.835 -0.4967 -0.0814 -0.4256
  123OSM   H12F13049  -0.068   6.795   4.811 -0.3104 -0.7796 -3.6820
  123OSM   H12G13050   0.080   6.762   4.910 -2.6010  1.4432  0.8134
  123OSM   C13F13051  -0.053   6.601   4.906  0.7529  0.4762  0.1392
  123OSM   H13F13052   0.023   6.525   4.933  0.4908  0.6497  1.4389
  123OSM   H13G13053  -0.137   6.562   4.844  0.5806  1.8874 -0.5552
  123OSM   C14F13054  -0.132   6.646   5.041  0.4350  0.0376  0.2514
  123OSM   H14F13055  -0.226   6.701   5.018  0.7211  2.0176  3.2429
  123OSM   H14G13056  -0.063   6.722   5.083  1.4644 -1.4372  1.3363
  123OSM   C15F13057  -0.155   6.524   5.141 -0.2999 -0.5321 -0.4592
  123OSM   H15F13058  -0.136   6.429   5.087 -0.8583 -0.5079 -0.6970
  123OSM   H15G13059  -0.256   6.531   5.185  0.3407  0.8698  0.9031
  123OSM   C16F13060  -0.041   6.513   5.249  0.0517  0.2732  0.1809
  123OSM   H16F13061   0.058   6.551   5.216 -0.4123  2.6287  1.3086
  123OSM   H16G13062  -0.026   6.405   5.273 -3.0200  0.6531  5.0394
  123OSM   C17F13063  -0.065   6.581   5.387 -0.2080 -0.0465  0.6041
  123OSM   H17F13064  -0.064   6.692   5.383 -1.3657 -0.0679 -1.8633
  123OSM   H17G13065   0.025   6.563   5.451  0.1117  2.6914  1.0403
  123OSM   C18F13066  -0.200   6.532   5.447 -0.3214  0.6462 -0.0502
  123OSM   H18F13067  -0.291   6.572   5.399 -0.0281  1.3845 -0.0136
  123OSM   H18G13068  -0.200   6.558   5.555 -0.0290 -1.1896  0.4225
  123OSM   H18H13069  -0.198   6.421   5.439  0.3727  0.6169  0.4150
  124OSM      N13070   0.549   0.986   3.000  0.4701  0.3490 -0.3228
  124OSM    C1513071   0.678   0.911   3.026  0.1477 -0.1742 -0.7075
  124OSM   H15A13072   0.667   0.804   3.016  0.4845 -0.0990 -2.1358
  124OSM   H15B13073   0.704   0.914   3.131  0.4882  0.6273 -0.8058
  124OSM   H15C13074   0.756   0.945   2.959  1.0916 -1.3813 -0.2465
  124OSM    C1413075   0.553   1.117   3.073 -0.2678  0.4041  0.0110
  124OSM   H14A13076   0.650   1.164   3.066 -1.3635  3.1230  1.1378
  124OSM   H14B13077   0.528   1.108   3.178  0.7430  1.2590  0.3413
  124OSM   H14C13078   0.480   1.188   3.035 -0.5693 -1.2586 -2.6851
  124OSM    C1313079   0.537   1.021   2.852  0.3965  0.8610 -0.8932
  124OSM   H13A13080   0.615   1.092   2.827 -0.0198  1.3337 -0.8496
  124OSM   H13B13081   0.434   1.053   2.847 -0.5503 -0.7023  3.8093
  124OSM   H13C13082   0.558   0.927   2.802 -0.4364 -1.3190  2.5673
  124OSM    C1213083   0.428   0.898   3.045  0.2130  0.2485  0.9817
  124OSM   H12A13084   0.429   0.809   2.984 -0.1567  0.7128  0.2869
  124OSM   H12B13085   0.335   0.953   3.043  0.7072  1.1674  2.0689
  124OSM    C1113086   0.439   0.853   3.191  0.3909  0.6349 -1.0589
  124OSM   H11A13087   0.539   0.813   3.215 -0.4588 -0.9070  0.1059
  124OSM   H11B13088   0.366   0.771   3.212  1.6481 -0.0244  0.9912
  124OSM      P13089   0.266   1.014   3.302  0.3386 -0.1599  0.0205
  124OSM    O1313090   0.242   1.152   3.265  0.0673  0.1745 -0.4637
  124OSM    O1413091   0.180   0.906   3.250 -0.0563  0.4030 -0.1883
  124OSM    O1113092   0.259   1.001   3.462  0.5998  0.1367 -0.1050
  124OSM    O1213093   0.419   0.966   3.279  0.1398  0.4681  0.2905
  124OSM    C1S13094   0.333   1.075   3.559 -0.1173 -1.0386 -0.6490
  124OSM    H1S13095   0.279   1.169   3.585 -0.3044 -1.4859  0.6369
  124OSM    H1T13096   0.435   1.088   3.516  0.4580 -0.2719  0.8767
  124OSM     NF13097   0.433   1.077   3.781  0.0477  0.2414 -0.3054
  124OSM    HNF13098   0.523   1.037   3.793  0.0226 -0.0899 -1.1615
  124OSM    C2S13099   0.355   1.003   3.693 -0.6612 -0.1089  0.2709
  124OSM    H2S13100   0.251   0.987   3.729 -1.0897  1.3035 -0.2800
  124OSM    C3S13101   0.416   0.864   3.659 -0.2296 -0.8006  0.3516
  124OSM    H3S13102   0.509   0.887   3.604  1.8758  1.2653  4.2797
  124OSM     O313103   0.333   0.772   3.587  0.6214  0.0973 -0.0695
  124OSM    HO313104   0.272   0.817   3.528  1.6673 -1.9336 -2.9511
  124OSM    C4S13105   0.468   0.799   3.784 -0.3187  0.1947 -0.3785
  124OSM    H4S13106   0.560   0.831   3.834  1.1172 -4.1236  0.2256
  124OSM    C5S13107   0.409   0.703   3.856  0.4011 -0.7139  0.1849
  124OSM    H5S13108   0.317   0.654   3.818 -0.0424  0.6725 -0.6000
  124OSM    C6S13109   0.468   0.642   3.980 -0.0901 -0.4473  0.2443
  124OSM    H6S13110   0.578   0.649   3.973 -0.1603 -0.9208 -2.5006
  124OSM    H6T13111   0.450   0.532   3.983  0.6204 -0.7142 -2.3713
  124OSM    C7S13112   0.419   0.696   4.112  0.0557  0.5014 -0.1724
  124OSM    H7S13113   0.312   0.668   4.103 -0.4119  2.3366 -0.8774
  124OSM    H7T13114   0.425   0.806   4.121  0.4018  0.4053  0.9214
  124OSM    C8S13115   0.487   0.637   4.235  0.3258 -0.0037 -0.7686
  124OSM    H8S13116   0.595   0.661   4.226  0.2545  0.7652  0.2806
  124OSM    H8T13117   0.484   0.526   4.243  2.5624  0.0553  2.3497
  124OSM    C9S13118   0.423   0.703   4.362  0.2324  0.4272 -0.3636
  124OSM    H9S13119   0.321   0.660   4.372 -0.3826  1.5380 -1.5412
  124OSM    H9T13120   0.412   0.813   4.348 -2.4949 -0.0129 -2.5626
  124OSM   C10S13121   0.503   0.685   4.488  0.1088 -0.2754 -0.2712
  124OSM   H10S13122   0.597   0.739   4.463  0.9262 -0.9960  1.1417
  124OSM   H10T13123   0.527   0.577   4.503 -0.0767 -0.2786  0.0085
  124OSM   C11S13124   0.442   0.747   4.618 -0.1013  0.0627  0.0316
  124OSM   H11S13125   0.345   0.693   4.616 -1.0749  1.7330 -0.4474
  124OSM   H11T13126   0.436   0.857   4.599 -0.1882  0.0187 -0.1988
  124OSM   C12S13127   0.528   0.717   4.735  0.5819 -0.1343 -0.3152
  124OSM   H12S13128   0.624   0.773   4.735  0.2808  0.3862 -0.7285
  124OSM   H12T13129   0.538   0.607   4.749 -0.6450 -0.5962 -2.6209
  124OSM   C13S13130   0.455   0.752   4.871 -0.4055  0.0430  0.4117
  124OSM   H13S13131   0.404   0.851   4.870 -0.0873  0.2352  1.5267
  124OSM   H13T13132   0.529   0.748   4.954 -1.0906 -0.6423  0.9994
  124OSM   C14S13133   0.341   0.658   4.911  0.4014  0.1434  0.6770
  124OSM   H14S13134   0.368   0.553   4.936 -0.6121 -0.4429 -0.5810
  124OSM   H14T13135   0.258   0.657   4.838 -0.5951 -0.7549  1.7794
  124OSM   C15S13136   0.274   0.712   5.035  0.5676  0.2957 -0.3701
  124OSM   H15S13137   0.176   0.661   5.026  0.3005  1.1105 -2.5540
  124OSM   H15T13138   0.247   0.820   5.038 -0.5116  0.0814 -1.5771
  124OSM   C16S13139   0.373   0.692   5.159 -0.1663  0.3059  0.4867
  124OSM   H16S13140   0.481   0.696   5.136  0.2198  1.2637  2.3141
  124OSM   H16T13141   0.362   0.589   5.199 -0.2104 -0.7382 -2.0137
  124OSM   C17S13142   0.327   0.789   5.270 -0.1191 -0.4264 -0.0581
  124OSM   H17S13143   0.307   0.890   5.230  0.5114 -0.4805 -0.5306
  124OSM   H17T13144   0.406   0.815   5.345  1.8626  1.1181 -2.5193
  124OSM   C18S13145   0.205   0.743   5.344  0.1675  1.0936 -0.0687
  124OSM   H18S13146   0.122   0.729   5.272 -0.2921  0.8617  0.5035
  124OSM   H18T13147   0.181   0.840   5.392  2.7414  2.3670 -1.1243
  124OSM   H18U13148   0.215   0.664   5.421 -1.3064  0.6834 -0.2667
  124OSM    C1F13149   0.400   1.187   3.842  1.7118 -0.0957 -0.0805
  124OSM     OF13150   0.314   1.263   3.795 -0.1881  0.0538 -0.3213
  124OSM    C2F13151   0.449   1.213   3.982  0.4390  0.1469 -0.1377
  124OSM    H2F13152   0.411   1.299   4.041 -0.0408 -1.6165  2.2645
  124OSM    H2G13153   0.557   1.237   3.971  0.3899 -0.2062 -1.4964
  124OSM    C3F13154   0.430   1.089   4.079 -0.0539  0.4530  0.3737
  124OSM    H3F13155   0.503   1.011   4.050 -1.0241 -0.2012 -0.3686
  124OSM    H3G13156   0.330   1.053   4.047 -0.1847  0.8100  0.3746
  124OSM    C4F13157   0.420   1.118   4.228 -0.0931 -0.3706  0.1375
  124OSM    H4F13158   0.503   1.188   4.252  1.4833 -1.4819 -1.7678
  124OSM    H4G13159   0.441   1.025   4.286 -1.5703 -0.7544  0.1108
  124OSM    C5F13160   0.291   1.178   4.277  1.5971 -0.9623 -0.3463
  124OSM    H5F13161   0.207   1.109   4.255 -0.3336  1.6351 -1.6588
  124OSM    H5G13162   0.275   1.278   4.230 -1.3131 -1.9663 -1.7611
  124OSM    C6F13163   0.293   1.195   4.422  0.1864  0.3289 -0.2986
  124OSM    H6F13164   0.377   1.265   4.443 -0.8288  1.5504 -0.1955
  124OSM    H6G13165   0.328   1.096   4.457 -0.5071  0.4900  0.9460
  124OSM    C7F13166   0.164   1.232   4.497 -0.0444 -0.6338  0.4782
  124OSM    H7F13167   0.078   1.170   4.464 -1.3307  0.1418  2.2100
  124OSM    H7G13168   0.132   1.335   4.468 -0.6172 -0.8186  0.4417
  124OSM    C8F13169   0.169   1.241   4.651 -0.2276  0.1318 -0.1903
  124OSM    H8F13170   0.092   1.302   4.703 -0.5782 -1.2984  1.0488
  124OSM    H8G13171   0.262   1.299   4.673  1.2695 -2.2863  0.1949
  124OSM    C9F13172   0.183   1.106   4.719  0.0880 -0.3706  0.5408
  124OSM    H9F13173   0.256   1.044   4.664 -1.3870  1.3025 -3.7937
  124OSM   C10F13174   0.137   1.060   4.833  0.9527 -1.1439 -0.2655
  124OSM   H10F13175   0.171   0.962   4.869 -1.1240 -2.0896 -0.7039
  124OSM   C11F13176   0.053   1.135   4.932  0.1468 -0.3193  0.3231
  124OSM   H11F13177  -0.053   1.130   4.901  0.7027  0.3940 -1.8980
  124OSM   H11G13178   0.097   1.237   4.935  2.1103 -1.1353  1.9166
  124OSM   C12F13179   0.075   1.109   5.076  0.0944 -0.0329  0.1401
  124OSM   H12F13180   0.184   1.107   5.101  0.1917  0.7023 -0.2085
  124OSM   H12G13181   0.044   1.007   5.104  0.9586  0.0692  1.5839
  124OSM   C13F13182   0.021   1.212   5.175 -1.1949  0.0591 -0.9285
  124OSM   H13F13183  -0.004   1.148   5.262  0.5113 -2.7010 -2.3217
  124OSM   H13G13184  -0.073   1.255   5.135 -1.2054  0.9498  0.0324
  124OSM   C14F13185   0.140   1.315   5.201 -0.0886  0.1383 -0.0559
  124OSM   H14F13186   0.185   1.348   5.105 -0.9422  1.9798  0.1339
  124OSM   H14G13187   0.217   1.270   5.267 -0.5987 -1.5592 -0.5437
  124OSM   C15F13188   0.085   1.442   5.275  1.4632 -0.1787  0.0783
  124OSM   H15F13189   0.171   1.500   5.314  1.7644 -1.5720  1.6495
  124OSM   H15G13190   0.023   1.413   5.363 -0.3345  0.7085 -0.8474
  124OSM   C16F13191  -0.003   1.529   5.178  0.7830 -0.8830 -0.6519
  124OSM   H16F13192  -0.102   1.479   5.173  1.4024 -2.1324 -0.7629
  124OSM   H16G13193   0.037   1.542   5.075 -0.2958 -2.3038 -1.2750
  124OSM   C17F13194  -0.042   1.669   5.225 -0.1841  0.0778 -0.6834
  124OSM   H17F13195   0.042   1.739   5.206  0.5791  0.1373  2.3528
  124OSM   H17G13196  -0.052   1.671   5.335  1.2796 -0.2793 -0.5215
  124OSM   C18F13197  -0.163   1.724   5.156  0.7328 -0.4120 -0.1491
  124OSM   H18F13198  -0.184   1.663   5.065  1.2629  0.4182 -0.8472
  124OSM   H18G13199  -0.156   1.829   5.121 -3.4829  0.3372  0.8055
  124OSM   H18H13200  -0.243   1.741   5.230  0.8306 -1.7249  0.2926
  125OSM      N13201   3.282   4.469   2.904  0.0457  0.1774  0.5720
  125OSM    C1513202   3.211   4.384   2.808 -0.0295 -0.5516  1.2839
  125OSM   H15A13203   3.112   4.418   2.784 -0.0580 -2.5015 -1.9930
  125OSM   H15B13204   3.192   4.287   2.851  1.1971 -1.6600 -0.5258
  125OSM   H15C13205   3.268   4.374   2.717 -1.0965 -0.1915  0.5640
  125OSM    C1413206   3.422   4.413   2.921  0.1748  0.1195 -0.2207
  125OSM   H14A13207   3.474   4.419   2.827  0.2734  4.5100 -0.1180
  125OSM   H14B13208   3.421   4.311   2.955  0.7799 -0.1939 -1.1044
  125OSM   H14C13209   3.492   4.473   2.978  1.6171 -1.1846 -0.5512
  125OSM    C1313210   3.280   4.604   2.846 -0.0500 -0.1620 -0.0258
  125OSM   H13A13211   3.323   4.675   2.914 -0.8268  0.0978  0.2019
  125OSM   H13B13212   3.181   4.638   2.819 -0.4236 -1.5106 -0.4347
  125OSM   H13C13213   3.342   4.621   2.759 -0.5170  1.5416 -0.0539
  125OSM    C1213214   3.217   4.472   3.043 -0.2847 -0.3163 -0.3107
  125OSM   H12A13215   3.119   4.514   3.035 -0.7173 -1.1017  0.5814
  125OSM   H12B13216   3.275   4.543   3.101 -1.2542  0.5295 -0.3520
  125OSM    C1113217   3.215   4.338   3.119  0.0322  0.0001 -0.4879
  125OSM   H11A13218   3.156   4.360   3.210 -1.2980 -0.9567 -1.0966
  125OSM   H11B13219   3.319   4.321   3.155 -0.1762 -1.0192 -0.3545
  125OSM      P13220   3.035   4.149   3.064  0.0105  0.5641  0.3360
  125OSM    O1313221   2.943   4.198   2.956 -0.3625  0.0879 -0.8739
  125OSM    O1413222   3.051   4.000   3.072  0.7518  0.4895 -0.5023
  125OSM    O1113223   2.988   4.209   3.206 -0.4596 -0.4934 -0.7975
  125OSM    O1213224   3.171   4.221   3.051  0.1732  0.0441  0.5151
  125OSM    C1S13225   2.853   4.193   3.234  0.2753 -0.6609  0.3261
  125OSM    H1S13226   2.820   4.087   3.227 -0.6510 -0.4711  1.4632
  125OSM    H1T13227   2.790   4.251   3.163  0.1649 -0.4708  0.5791
  125OSM     NF13228   2.676   4.198   3.419 -0.0851 -0.4446 -0.2152
  125OSM    HNF13229   2.610   4.272   3.431  0.5075 -0.2482  2.3315
  125OSM    C2S13230   2.813   4.239   3.375  0.0374  0.0681  0.2154
  125OSM    H2S13231   2.890   4.200   3.445 -0.0638  1.4662  1.1540
  125OSM    C3S13232   2.835   4.391   3.382 -0.2207 -0.4508  0.2493
  125OSM    H3S13233   2.774   4.450   3.310 -0.1343  1.8572  1.9866
  125OSM     O313234   2.971   4.435   3.362  0.4235 -0.1267 -0.4550
  125OSM    HO313235   3.008   4.353   3.328  1.4326 -1.0765  2.5655
  125OSM    C4S13236   2.787   4.436   3.519 -0.5437  0.6600  0.1476
  125OSM    H4S13237   2.858   4.427   3.602 -0.4445 -1.4467 -0.1210
  125OSM    C5S13238   2.688   4.521   3.539  0.3776 -0.4870 -0.3697
  125OSM    H5S13239   2.642   4.566   3.449  0.2531 -1.1440 -0.6434
  125OSM    C6S13240   2.635   4.569   3.672 -0.5791 -0.2511 -0.0336
  125OSM    H6S13241   2.526   4.581   3.655 -0.8447 -0.9628  1.0609
  125OSM    H6T13242   2.672   4.674   3.680 -1.4806  0.0834 -0.0528
  125OSM    C7S13243   2.668   4.493   3.803  0.5367 -0.9555  0.3034
  125OSM    H7S13244   2.777   4.470   3.808  0.6803 -0.2455  0.4583
  125OSM    H7T13245   2.611   4.398   3.818 -2.6914  1.3024  4.5074
  125OSM    C8S13246   2.632   4.574   3.927 -0.3658 -0.6503 -0.1288
  125OSM    H8S13247   2.526   4.605   3.929 -0.3040 -0.3501 -1.0711
  125OSM    H8T13248   2.698   4.662   3.942 -0.5461 -0.5549  0.1065
  125OSM    C9S13249   2.679   4.490   4.052 -0.0367  0.6382 -0.6744
  125OSM    H9S13250   2.788   4.510   4.058  0.0092  0.3674 -0.5879
  125OSM    H9T13251   2.662   4.381   4.035 -2.3061  0.4599  2.0196
  125OSM   C10S13252   2.605   4.518   4.178 -0.5385 -0.3101  0.0794
  125OSM   H10S13253   2.495   4.504   4.170 -0.4363 -0.9666 -0.2422
  125OSM   H10T13254   2.602   4.627   4.200 -0.9691  0.5752 -3.6764
  125OSM   C11S13255   2.651   4.440   4.293 -0.4284 -0.4626  0.2114
  125OSM   H11S13256   2.758   4.458   4.315 -0.2439  0.1704 -1.0848
  125OSM   H11T13257   2.619   4.336   4.271 -1.1442 -0.1604 -0.2004
  125OSM   C12S13258   2.574   4.461   4.427  0.1878  0.2920  0.7185
  125OSM   H12S13259   2.466   4.435   4.419  0.2298  0.1836  0.4615
  125OSM   H12T13260   2.588   4.567   4.457 -1.2983  1.3577 -1.9683
  125OSM   C13S13261   2.619   4.368   4.536 -0.8258  0.4192  0.0799
  125OSM   H13S13262   2.724   4.392   4.560 -0.3620 -0.1866 -1.2477
  125OSM   H13T13263   2.607   4.262   4.507 -3.8435  1.1437 -1.7669
  125OSM   C14S13264   2.526   4.395   4.660 -0.7480 -0.3441  0.6444
  125OSM   H14S13265   2.562   4.323   4.737 -1.6632  0.4930  1.8866
  125OSM   H14T13266   2.423   4.366   4.630 -0.1957 -1.5369 -0.1506
  125OSM   C15S13267   2.520   4.538   4.717  0.0815  0.2604  0.1198
  125OSM   H15S13268   2.449   4.599   4.656 -1.2434 -2.1444 -0.8987
  125OSM   H15T13269   2.622   4.577   4.702  0.8458 -2.0086 -0.9949
  125OSM   C16S13270   2.478   4.535   4.865 -0.3222  0.5243 -0.3496
  125OSM   H16S13271   2.528   4.457   4.927 -1.3709 -0.9735 -1.3384
  125OSM   H16T13272   2.373   4.504   4.884  0.0083 -0.1177  0.4811
  125OSM   C17S13273   2.489   4.678   4.928  0.0524  0.4396 -0.6476
  125OSM   H17S13274   2.452   4.756   4.859  2.1778  1.0847 -1.1261
  125OSM   H17T13275   2.596   4.704   4.942  0.4228  0.1316 -2.6999
  125OSM   C18S13276   2.408   4.692   5.058  0.5160  0.3206  0.6800
  125OSM   H18S13277   2.443   4.610   5.125  2.6464  1.3913  0.9739
  125OSM   H18T13278   2.299   4.685   5.038  0.8418 -0.9613 -0.7997
  125OSM   H18U13279   2.434   4.790   5.105 -1.7256  0.8299  0.9854
  125OSM    C1F13280   2.636   4.075   3.439  0.8450  0.4116 -0.5581
  125OSM     OF13281   2.704   3.974   3.425 -1.0064  0.2772  0.6201
  125OSM    C2F13282   2.499   4.051   3.492  0.4024  0.1662  0.1395
  125OSM    H2F13283   2.435   4.024   3.405 -2.7554  0.3147  2.2785
  125OSM    H2G13284   2.459   4.146   3.534 -1.4311 -0.8495  0.7865
  125OSM    C3F13285   2.495   3.952   3.612  0.0607 -0.0363  0.0866
  125OSM    H3F13286   2.525   3.848   3.585 -0.1621 -0.2357  0.5919
  125OSM    H3G13287   2.388   3.943   3.638  0.1435  1.4020  0.9972
  125OSM    C4F13288   2.576   4.001   3.737 -0.5614 -0.0279  0.6372
  125OSM    H4F13289   2.678   4.038   3.713  0.7888 -3.8703 -0.1935
  125OSM    H4G13290   2.594   3.909   3.797 -2.0539 -0.7758 -0.0010
  125OSM    C5F13291   2.500   4.096   3.825 -0.7149  0.0672  0.1993
  125OSM    H5F13292   2.454   4.173   3.759 -1.5898 -1.6421 -1.2812
  125OSM    H5G13293   2.571   4.161   3.881  0.8924 -0.0872 -1.5514
  125OSM    C6F13294   2.395   4.031   3.920 -0.0236 -0.9933 -0.3817
  125OSM    H6F13295   2.445   3.968   3.996  2.0571 -0.1428 -0.9594
  125OSM    H6G13296   2.318   3.982   3.856  0.0568  1.3595 -2.4546
  125OSM    C7F13297   2.319   4.143   3.995 -0.4811 -0.6122 -0.1722
  125OSM    H7F13298   2.227   4.101   4.041  0.3464 -1.4843  0.7216
  125OSM    H7G13299   2.284   4.223   3.927  1.4541  0.3680 -0.0910
  125OSM    C8F13300   2.391   4.219   4.111 -0.2700  0.2652 -0.3731
  125OSM    H8F13301   2.326   4.277   4.179  0.9658 -0.6530  1.6724
  125OSM    H8G13302   2.464   4.286   4.060  1.3536  0.1034  1.6028
  125OSM    C9F13303   2.461   4.122   4.204 -0.5114  0.0702  0.2648
  125OSM    H9F13304   2.559   4.087   4.169 -0.4084  1.1492 -0.5776
  125OSM   C10F13305   2.415   4.056   4.313 -0.2179 -1.0557  0.1891
  125OSM   H10F13306   2.483   3.978   4.351  1.5013 -0.5104 -1.5736
  125OSM   C11F13307   2.272   4.066   4.375 -0.3198  0.2898 -0.0945
  125OSM   H11F13308   2.229   3.965   4.359  1.6675 -0.4634 -1.0265
  125OSM   H11G13309   2.225   4.153   4.323  3.2249  1.9876 -0.7922
  125OSM   C12F13310   2.247   4.075   4.527  0.4093 -0.1356 -0.0090
  125OSM   H12F13311   2.275   4.180   4.548 -1.4094  0.4052 -0.0963
  125OSM   H12G13312   2.315   4.011   4.587  1.9688  2.4346  1.0781
  125OSM   C13F13313   2.099   4.061   4.571  0.1032 -0.0828  0.3530
  125OSM   H13F13314   2.029   4.103   4.495 -0.9577  0.2142  1.4683
  125OSM   H13G13315   2.098   4.122   4.664  1.7320 -0.4073  0.6247
  125OSM   C14F13316   2.056   3.915   4.598  0.4185  0.7247  0.0113
  125OSM   H14F13317   2.068   3.862   4.501  1.4241  0.7733  0.1019
  125OSM   H14G13318   1.948   3.914   4.625  0.5359  0.8157  0.5028
  125OSM   C15F13319   2.156   3.840   4.698  0.0641 -0.8948 -0.1626
  125OSM   H15F13320   2.154   3.903   4.789 -1.9291 -2.0449  0.6612
  125OSM   H15G13321   2.260   3.825   4.660  0.1089  0.7577 -0.7500
  125OSM   C16F13322   2.103   3.707   4.741  0.5285  0.9108  0.1439
  125OSM   H16F13323   2.133   3.625   4.672 -0.4357 -0.7605  1.6291
  125OSM   H16G13324   1.992   3.718   4.747  0.3574 -0.8995  1.1305
  125OSM   C17F13325   2.166   3.668   4.882 -0.4273 -0.3968 -0.3141
  125OSM   H17F13326   2.143   3.749   4.954  0.9473 -0.8500  0.6642
  125OSM   H17G13327   2.276   3.670   4.870 -0.0848 -1.7011  2.0527
  125OSM   C18F13328   2.128   3.535   4.936  0.3181  0.4384  0.5152
  125OSM   H18F13329   2.019   3.519   4.949  0.4079  0.4290  1.2566
  125OSM   H18G13330   2.186   3.514   5.028 -0.2361  2.9289  1.5074
  125OSM   H18H13331   2.161   3.453   4.869  1.2555  1.3004 -0.1091
  126OSM      N13332   1.313   4.864   2.858  0.6322 -0.0868 -0.2740
  126OSM    C1513333   1.398   4.990   2.833 -0.1066 -0.2494  0.1079
  126OSM   H15A13334   1.373   5.042   2.742 -2.0347 -1.9691 -0.4193
  126OSM   H15B13335   1.502   4.961   2.835  1.1070  3.4913 -0.9833
  126OSM   H15C13336   1.380   5.061   2.913 -0.2382 -0.9637  0.7282
  126OSM    C1413337   1.172   4.906   2.871  0.1838 -1.1885  0.3210
  126OSM   H14A13338   1.106   4.821   2.861  0.5695 -1.5560  0.7928
  126OSM   H14B13339   1.144   4.969   2.788 -2.0186 -2.0292  0.3684
  126OSM   H14C13340   1.166   4.963   2.962 -0.6796 -3.0211  1.4708
  126OSM    C1313341   1.323   4.783   2.736 -0.0575  0.6513  0.9149
  126OSM   H13A13342   1.427   4.768   2.708 -0.6903  0.8314 -1.8100
  126OSM   H13B13343   1.278   4.822   2.646  1.3075 -2.1427 -1.1560
  126OSM   H13C13344   1.271   4.694   2.765 -0.9830  1.9577  3.5029
  126OSM    C1213345   1.367   4.788   2.972  0.4776 -0.2402 -0.2807
  126OSM   H12A13346   1.464   4.745   2.954  0.0021 -1.5400  0.1845
  126OSM   H12B13347   1.308   4.698   2.979  0.3835 -0.1272  0.4104
  126OSM    C1113348   1.352   4.847   3.118 -0.8911 -0.1676  0.5080
  126OSM   H11A13349   1.401   4.947   3.118 -2.7816  0.8401  2.2920
  126OSM   H11B13350   1.415   4.785   3.185 -0.3339  1.7224  1.8457
  126OSM      P13351   1.145   4.746   3.208 -0.4461  0.2298  0.3454
  126OSM    O1313352   1.004   4.757   3.167 -0.0414  0.1048  0.0661
  126OSM    O1413353   1.223   4.619   3.187 -0.0123 -0.1577 -0.7249
  126OSM    O1113354   1.150   4.782   3.357 -0.1262  0.5395 -0.2464
  126OSM    O1213355   1.216   4.866   3.156  0.1633 -0.2803 -0.0704
  126OSM    C1S13356   1.142   4.913   3.411  0.2145  0.8829  0.5212
  126OSM    H1S13357   1.059   4.964   3.358 -0.4698 -0.1084  0.6328
  126OSM    H1T13358   1.236   4.969   3.388 -0.0275  1.5773  1.1698
  126OSM     NF13359   1.081   5.036   3.620 -0.2438  0.4032  0.4734
  126OSM    HNF13360   1.144   5.077   3.685  0.9206  0.1212 -0.4415
  126OSM    C2S13361   1.131   4.908   3.561  0.5913 -0.2049  0.1990
  126OSM    H2S13362   1.055   4.832   3.591 -2.2772  2.4046 -0.0259
  126OSM    C3S13363   1.270   4.865   3.602 -0.7250  0.0646 -0.0262
  126OSM    H3S13364   1.346   4.934   3.560 -0.6333  0.4208  0.7183
  126OSM     O313365   1.327   4.743   3.552  0.3017 -0.6740 -0.0765
  126OSM    HO313366   1.267   4.727   3.479 -0.1691 -0.1195  0.1781
  126OSM    C4S13367   1.279   4.872   3.756  0.4366  0.9967 -0.1549
  126OSM    H4S13368   1.188   4.839   3.809  1.1506  0.3021  0.6590
  126OSM    C5S13369   1.387   4.916   3.822  0.5114 -0.4594  0.7035
  126OSM    H5S13370   1.462   4.960   3.754 -2.5653  1.3337 -1.7748
  126OSM    C6S13371   1.385   4.930   3.970 -0.2107  0.4000 -1.1940
  126OSM    H6S13372   1.460   5.004   4.004  1.4482 -1.4653 -0.6010
  126OSM    H6T13373   1.416   4.838   4.024  0.4099 -0.0091 -2.2253
  126OSM    C7S13374   1.247   4.985   4.032 -0.4188 -0.0366 -0.0906
  126OSM    H7S13375   1.159   4.927   3.994 -0.7144  0.7845 -0.6897
  126OSM    H7T13376   1.228   5.090   4.002  1.6339  0.2042 -0.7168
  126OSM    C8S13377   1.250   4.973   4.187 -0.3697  0.7150 -0.2714
  126OSM    H8S13378   1.281   4.874   4.226  0.1834  1.4099  1.0869
  126OSM    H8T13379   1.150   5.000   4.228 -0.1856  2.3461 -0.8318
  126OSM    C9S13380   1.355   5.065   4.253 -0.2300  0.4871 -1.1763
  126OSM    H9S13381   1.343   5.174   4.235 -2.4819  0.7972  1.4420
  126OSM    H9T13382   1.453   5.046   4.205  1.2755  1.6093  1.2596
  126OSM   C10S13383   1.375   5.027   4.403  0.5481  0.2615  0.4539
  126OSM   H10S13384   1.397   4.919   4.418 -0.8162  0.2905  3.2722
  126OSM   H10T13385   1.280   5.057   4.451 -1.1696  2.7574 -3.9619
  126OSM   C11S13386   1.490   5.117   4.456 -0.2833 -0.7615 -0.0268
  126OSM   H11S13387   1.456   5.221   4.436 -1.4158 -1.3430 -1.2688
  126OSM   H11T13388   1.582   5.103   4.395 -0.9636  1.1431 -1.5728
  126OSM   C12S13389   1.519   5.071   4.596  0.3528 -0.0964 -1.0394
  126OSM   H12S13390   1.560   4.968   4.600 -4.2674 -2.1279  0.8139
  126OSM   H12T13391   1.430   5.071   4.662 -0.1222  1.8069 -1.6036
  126OSM   C13S13392   1.620   5.166   4.666 -0.4008  0.1173  0.0023
  126OSM   H13S13393   1.592   5.272   4.683 -1.8398 -0.2480  0.0590
  126OSM   H13T13394   1.713   5.179   4.607  1.4767  1.6528  3.0611
  126OSM   C14S13395   1.673   5.108   4.797 -0.0494 -0.0254  0.1221
  126OSM   H14S13396   1.774   5.143   4.825  0.5714 -0.2863 -1.6813
  126OSM   H14T13397   1.687   4.999   4.780  1.0091  0.0304  0.6163
  126OSM   C15S13398   1.586   5.140   4.921 -0.2004  0.1924  0.3474
  126OSM   H15S13399   1.497   5.075   4.907 -0.6329  0.5416  1.3923
  126OSM   H15T13400   1.558   5.248   4.921  0.4845  0.3856 -0.6945
  126OSM   C16S13401   1.648   5.105   5.059  0.3553  0.1370  0.8495
  126OSM   H16S13402   1.580   5.137   5.141 -0.6445  2.6126 -0.8217
  126OSM   H16T13403   1.746   5.153   5.073  0.7708 -0.7545  1.0853
  126OSM   C17S13404   1.665   4.958   5.073  0.0109  0.3076  0.0631
  126OSM   H17S13405   1.726   4.920   4.988 -0.7503  1.2090 -0.8993
  126OSM   H17T13406   1.573   4.897   5.060  0.8009 -0.8388 -0.3301
  126OSM   C18S13407   1.727   4.899   5.199 -0.3529  0.3227 -0.0912
  126OSM   H18S13408   1.822   4.951   5.225 -0.8427  1.1624  0.0793
  126OSM   H18T13409   1.755   4.793   5.187  1.3053  0.5026  1.6693
  126OSM   H18U13410   1.661   4.902   5.289  0.7511 -0.9933  0.8019
  126OSM    C1F13411   0.961   5.084   3.596 -0.2148 -0.3554 -0.5468
  126OSM     OF13412   0.889   5.037   3.513  0.5283 -0.5942  0.2600
  126OSM    C2F13413   0.930   5.209   3.672  0.1593 -0.2769  0.0562
  126OSM    H2F13414   0.884   5.297   3.622  0.6252  1.6693  2.8108
  126OSM    H2G13415   1.024   5.260   3.702  0.4808 -0.0719 -1.2668
  126OSM    C3F13416   0.834   5.182   3.787  0.5954  0.0164  0.4055
  126OSM    H3F13417   0.742   5.134   3.749  1.1644 -1.1574  0.4555
  126OSM    H3G13418   0.799   5.275   3.839 -1.4541  0.1421 -1.0963
  126OSM    C4F13419   0.898   5.096   3.900  0.9538 -0.2349 -0.2080
  126OSM    H4F13420   0.981   5.159   3.939 -0.6293  1.0629  1.2440
  126OSM    H4G13421   0.937   5.002   3.855  0.8677 -0.3309 -0.0827
  126OSM    C5F13422   0.800   5.068   4.007  0.1897 -0.3097  0.3168
  126OSM    H5F13423   0.702   5.050   3.959  1.2293  0.2078 -2.1988
  126OSM    H5G13424   0.789   5.156   4.074  0.4385 -0.4508  0.5473
  126OSM    C6F13425   0.835   4.938   4.089  0.1622  0.0295 -0.7130
  126OSM    H6F13426   0.942   4.940   4.120  0.3401 -1.2657 -1.2023
  126OSM    H6G13427   0.828   4.845   4.030  1.1373 -0.6411  0.1881
  126OSM    C7F13428   0.757   4.920   4.219 -0.6027  0.1067  0.1981
  126OSM    H7F13429   0.648   4.939   4.209 -0.7187 -0.4358  0.3542
  126OSM    H7G13430   0.794   5.013   4.265 -0.5432  1.0950 -1.7505
  126OSM    C8F13431   0.799   4.795   4.305 -0.2525  0.0235 -0.0164
  126OSM    H8F13432   0.787   4.816   4.413  2.2892  3.8418 -0.3123
  126OSM    H8G13433   0.908   4.774   4.298 -0.4155 -0.3073 -2.2657
  126OSM    C9F13434   0.729   4.671   4.250  0.3284  0.1181 -1.0822
  126OSM    H9F13435   0.686   4.689   4.150 -0.7120  0.4709 -0.5796
  126OSM   C10F13436   0.722   4.548   4.311 -0.1392  0.6019 -0.7915
  126OSM   H10F13437   0.652   4.475   4.269  0.1819 -0.5100  0.5197
  126OSM   C11F13438   0.777   4.507   4.449 -0.4402  0.0581 -1.0552
  126OSM   H11F13439   0.867   4.568   4.473 -0.4965 -0.6782  1.3607
  126OSM   H11G13440   0.810   4.401   4.443 -0.8679 -0.0258 -2.0474
  126OSM   C12F13441   0.678   4.530   4.567  0.5785 -0.7080  0.1014
  126OSM   H12F13442   0.584   4.479   4.538 -1.0439  2.1675 -0.0996
  126OSM   H12G13443   0.663   4.640   4.574  1.0310 -0.6814  0.7582
  126OSM   C13F13444   0.728   4.493   4.706  0.5394 -0.2729  0.0283
  126OSM   H13F13445   0.820   4.554   4.722  1.1552 -1.2142  0.1836
  126OSM   H13G13446   0.766   4.389   4.698  0.7554 -0.2147  0.2549
  126OSM   C14F13447   0.628   4.510   4.820 -0.1650  0.4621 -0.3205
  126OSM   H14F13448   0.543   4.440   4.807 -2.9199  3.6017 -0.5716
  126OSM   H14G13449   0.585   4.612   4.810 -3.3866 -0.8096 -0.6491
  126OSM   C15F13450   0.698   4.511   4.955 -0.3983  0.1640 -0.5592
  126OSM   H15F13451   0.782   4.583   4.955  0.3361 -0.6556 -2.1896
  126OSM   H15G13452   0.741   4.409   4.962  1.9171  0.8146 -3.2725
  126OSM   C16F13453   0.590   4.541   5.065 -0.5086  0.3497 -0.9972
  126OSM   H16F13454   0.540   4.636   5.036 -1.0932  0.1798 -0.5469
  126OSM   H16G13455   0.642   4.566   5.160  0.3354 -1.1515 -1.0354
  126OSM   C17F13456   0.487   4.432   5.081 -0.0285  0.0033  0.5892
  126OSM   H17F13457   0.536   4.351   5.139 -0.0176  0.3861  1.1154
  126OSM   H17G13458   0.453   4.385   4.986  0.0478 -0.1774  0.6504
  126OSM   C18F13459   0.361   4.477   5.155  0.9432 -0.0643  0.0361
  126OSM   H18F13460   0.320   4.559   5.092  0.2176 -0.3384  0.1377
  126OSM   H18G13461   0.373   4.519   5.257 -0.9791  1.2786 -0.2271
  126OSM   H18H13462   0.278   4.403   5.161 -0.6944  1.6872 -0.1825
  127OSM      N13463   6.779   0.806   3.426 -0.4151 -0.4059 -0.8862
  127OSM    C1513464   6.806   0.838   3.285 -0.4085 -0.0752 -0.3718
  127OSM   H15A13465   6.768   0.770   3.210  1.3534  1.1819 -2.5496
  127OSM   H15B13466   6.911   0.862   3.276 -0.3058 -0.1970  0.4640
  127OSM   H15C13467   6.768   0.936   3.260  0.9834  0.3287 -1.0611
  127OSM    C1413468   6.830   0.665   3.450  0.3274  0.6440 -0.4055
  127OSM   H14A13469   6.767   0.601   3.392 -1.7827  1.7791  0.5237
  127OSM   H14B13470   6.831   0.637   3.554 -1.0307  0.0768 -0.5226
  127OSM   H14C13471   6.929   0.662   3.406  0.8101  1.4645  0.5714
  127OSM    C1313472   6.867   0.895   3.504 -0.3842 -0.5532  0.0815
  127OSM   H13A13473   6.882   0.862   3.606  3.1425 -0.9370 -0.4331
  127OSM   H13B13474   6.838   0.999   3.499  0.6289 -0.2139  0.9492
  127OSM   H13C13475   6.966   0.902   3.462 -1.0748  2.3062 -1.3484
  127OSM    C1213476   6.641   0.825   3.474  0.0448 -0.5886  0.3409
  127OSM   H12A13477   6.623   0.768   3.564 -0.9959 -2.0326 -0.7488
  127OSM   H12B13478   6.575   0.799   3.394  0.9467  0.8691 -0.9410
  127OSM    C1113479   6.586   0.969   3.502 -0.1092  0.4162  0.2524
  127OSM   H11A13480   6.607   1.021   3.597  0.0544  0.1087  0.3865
  127OSM   H11B13481   6.478   0.946   3.514  0.2069 -0.8733  0.8656
  127OSM      P13482   6.670   1.178   3.373 -0.7387 -0.0756  0.1459
  127OSM    O1313483   6.761   1.142   3.262  0.3643 -0.1127  0.5158
  127OSM    O1413484   6.584   1.296   3.357  0.1450 -0.1394 -0.0908
  127OSM    O1113485   6.751   1.198   3.512 -0.3682  0.4441 -0.1391
  127OSM    O1213486   6.580   1.047   3.388  0.3650 -0.0378  0.4424
  127OSM    C1S13487   6.879   1.260   3.528  0.2703 -0.1782 -0.5313
  127OSM    H1S13488   6.879   1.342   3.453 -0.1221 -0.3476 -0.7202
  127OSM    H1T13489   6.967   1.193   3.528 -0.4185 -1.1065  0.6808
  127OSM     NF13490   7.006   1.419   3.670 -0.2820  0.0189 -0.5545
  127OSM    HNF13491   7.078   1.392   3.732 -1.7633  0.5785  1.5068
  127OSM    C2S13492   6.890   1.326   3.670  0.2989  0.6568  0.0440
  127OSM    H2S13493   6.798   1.385   3.689 -2.0921 -2.1722 -1.8510
  127OSM    C3S13494   6.894   1.219   3.784 -0.2279  0.1073 -0.3726
  127OSM    H3S13495   6.986   1.157   3.785 -0.6385 -0.5474 -1.2106
  127OSM     O313496   6.791   1.115   3.778 -0.0559  0.5099  0.9462
  127OSM    HO313497   6.752   1.135   3.692  1.9550  0.4661 -0.0297
  127OSM    C4S13498   6.893   1.289   3.921 -0.4194 -0.0768 -0.1334
  127OSM    H4S13499   6.984   1.346   3.942 -1.5530  1.5467  0.6509
  127OSM    C5S13500   6.787   1.301   4.007 -0.2464 -0.1587  0.1206
  127OSM    H5S13501   6.686   1.263   3.985  0.2187 -0.4292 -1.6569
  127OSM    C6S13502   6.790   1.382   4.136 -0.2321 -0.7611 -0.0769
  127OSM    H6S13503   6.712   1.461   4.126 -0.2614 -0.6207  1.1762
  127OSM    H6T13504   6.884   1.439   4.147 -0.9211  1.2101 -3.0082
  127OSM    C7S13505   6.759   1.302   4.266  0.6894  0.0126 -0.0331
  127OSM    H7S13506   6.851   1.249   4.298 -0.2181 -0.6855  1.4962
  127OSM    H7T13507   6.678   1.229   4.244  0.6616 -0.2391  0.8686
  127OSM    C8S13508   6.704   1.393   4.377 -0.0666  0.1229  1.3511
  127OSM    H8S13509   6.602   1.423   4.346 -0.8083 -0.8305  2.7710
  127OSM    H8T13510   6.757   1.491   4.388 -0.9898  1.0803 -1.7155
  127OSM    C9S13511   6.698   1.318   4.516 -0.2950 -0.2133  0.0904
  127OSM    H9S13512   6.797   1.277   4.545 -0.3635 -0.7747 -0.4417
  127OSM    H9T13513   6.633   1.228   4.516  1.4575 -1.5550 -0.9888
  127OSM   C10S13514   6.648   1.417   4.629 -0.2787 -0.3942  0.1561
  127OSM   H10S13515   6.540   1.441   4.614 -1.4272 -4.3889  0.8499
  127OSM   H10T13516   6.715   1.506   4.625  0.3615 -0.8860 -0.2371
  127OSM   C11S13517   6.668   1.355   4.769  0.2588  0.4315 -0.3584
  127OSM   H11S13518   6.682   1.439   4.840  1.4420  1.5187 -1.7990
  127OSM   H11T13519   6.761   1.296   4.753 -0.1225  0.3184 -2.3307
  127OSM   C12S13520   6.554   1.259   4.804 -0.0037 -0.3325 -0.1936
  127OSM   H12S13521   6.562   1.168   4.741 -2.0284 -0.7245  0.0398
  127OSM   H12T13522   6.454   1.302   4.782  0.4222  0.4631 -0.5940
  127OSM   C13S13523   6.574   1.219   4.946 -0.0472 -0.2283 -0.6408
  127OSM   H13S13524   6.681   1.216   4.977 -0.4992  1.9405  1.3920
  127OSM   H13T13525   6.523   1.121   4.961 -0.1657 -0.0247  0.3950
  127OSM   C14S13526   6.508   1.321   5.047  0.7301 -0.1576  0.0718
  127OSM   H14S13527   6.416   1.343   4.988  0.7488 -1.4737 -0.4792
  127OSM   H14T13528   6.570   1.410   5.067 -2.8372  2.0319  2.4634
  127OSM   C15S13529   6.478   1.250   5.177  0.3077 -0.0269 -0.8041
  127OSM   H15S13530   6.563   1.187   5.210 -1.2151 -1.2610  0.9710
  127OSM   H15T13531   6.404   1.171   5.151 -0.5846  0.3439  0.5245
  127OSM   C16S13532   6.430   1.342   5.279  0.5907 -0.7767  0.0398
  127OSM   H16S13533   6.361   1.298   5.355  0.6595  0.2657  0.7161
  127OSM   H16T13534   6.364   1.418   5.234  1.2677  0.5461  1.1869
  127OSM   C17S13535   6.537   1.412   5.361  0.1649 -0.1301 -0.5402
  127OSM   H17S13536   6.489   1.491   5.422  2.9882  1.0378  0.2870
  127OSM   H17T13537   6.604   1.471   5.296  0.0854  1.5830  0.8467
  127OSM   C18S13538   6.623   1.333   5.463  0.0205  0.7574  0.2403
  127OSM   H18S13539   6.691   1.402   5.517 -0.0810  0.9511  0.1216
  127OSM   H18T13540   6.685   1.255   5.415 -1.2723 -0.1380 -0.0374
  127OSM   H18U13541   6.559   1.288   5.542  0.3777 -2.3191 -1.0802
  127OSM    C1F13542   7.007   1.529   3.588 -1.2508 -0.3842  0.0679
  127OSM     OF13543   6.911   1.574   3.528 -0.6432 -0.2105  0.2412
  127OSM    C2F13544   7.135   1.596   3.587 -0.0738 -0.5542  0.2088
  127OSM    H2F13545   7.161   1.631   3.484 -2.9867  0.5622 -0.2476
  127OSM    H2G13546   7.217   1.536   3.631  0.2784 -0.6809 -0.6000
  127OSM    C3F13547   7.121   1.723   3.669 -0.2885 -0.7337 -0.4600
  127OSM    H3F13548   7.030   1.782   3.642  0.9627  1.7542  0.4923
  127OSM    H3G13549   7.209   1.787   3.646 -0.7746 -0.4394 -1.5759
  127OSM    C4F13550   7.108   1.697   3.816 -0.7378  0.6817  0.2464
  127OSM    H4F13551   7.023   1.627   3.826 -1.7255  1.9739  1.2293
  127OSM    H4G13552   7.090   1.787   3.879 -0.0260  0.1001  1.3146
  127OSM    C5F13553   7.234   1.637   3.884  1.0198  0.2491 -0.1194
  127OSM    H5F13554   7.315   1.705   3.851  1.8571 -0.4902  0.3558
  127OSM    H5G13555   7.261   1.536   3.845 -1.0528 -0.3387 -0.1201
  127OSM    C6F13556   7.234   1.626   4.035 -0.4818  0.2164 -0.0131
  127OSM    H6F13557   7.206   1.728   4.069 -3.0273 -0.8407  1.3749
  127OSM    H6G13558   7.331   1.591   4.077  0.1223  1.7749 -0.0497
  127OSM    C7F13559   7.120   1.533   4.091 -0.1786 -0.1716 -0.7698
  127OSM    H7F13560   7.154   1.436   4.049  1.7276  0.7487 -1.4698
  127OSM    H7G13561   7.018   1.555   4.053 -0.8949 -3.0872 -0.7333
  127OSM    C8F13562   7.115   1.542   4.245 -0.2665  0.8144 -0.9531
  127OSM    H8F13563   7.213   1.508   4.287 -0.6621  1.5751  0.6773
  127OSM    H8G13564   7.043   1.463   4.274  0.0156  1.1024  0.6656
  127OSM    C9F13565   7.075   1.682   4.294 -0.2898 -0.7837 -0.3541
  127OSM    H9F13566   7.051   1.758   4.218  0.4461  0.2047  0.3795
  127OSM   C10F13567   7.039   1.714   4.419 -0.2690  0.5092 -0.3554
  127OSM   H10F13568   7.004   1.818   4.431  0.4856  0.7481 -0.1496
  127OSM   C11F13569   7.055   1.628   4.540 -0.2100  0.3428 -0.4559
  127OSM   H11F13570   7.136   1.556   4.516 -2.5364 -2.4992 -0.2725
  127OSM   H11G13571   6.974   1.554   4.556 -1.1320  1.4135 -0.0248
  127OSM   C12F13572   7.094   1.715   4.665 -0.2895 -0.0177  0.7938
  127OSM   H12F13573   7.007   1.780   4.688 -1.8238 -2.3878  2.1898
  127OSM   H12G13574   7.180   1.777   4.632  1.0544 -2.0372  0.2788
  127OSM   C13F13575   7.131   1.626   4.787 -0.2767 -0.4549  0.2989
  127OSM   H13F13576   7.227   1.580   4.757 -0.8325 -1.1795 -0.4215
  127OSM   H13G13577   7.057   1.544   4.793 -0.1340 -0.5018  1.8085
  127OSM   C14F13578   7.147   1.702   4.915  0.1958  0.6427 -0.2272
  127OSM   H14F13579   7.047   1.712   4.963  0.6516 -0.8666  1.1088
  127OSM   H14G13580   7.184   1.804   4.891  0.2093  0.9159  0.9087
  127OSM   C15F13581   7.248   1.638   5.018  0.6237  0.1310  0.8960
  127OSM   H15F13582   7.340   1.632   4.958 -0.3523  1.4443 -0.8259
  127OSM   H15G13583   7.200   1.540   5.039 -0.6424  0.2910 -0.9700
  127OSM   C16F13584   7.259   1.727   5.134  0.2193 -0.8106 -0.3035
  127OSM   H16F13585   7.159   1.751   5.176  0.1043 -0.4875 -0.7618
  127OSM   H16G13586   7.297   1.825   5.098 -0.3736  0.1059  1.4456
  127OSM   C17F13587   7.350   1.670   5.241  0.0235 -0.0550 -0.1546
  127OSM   H17F13588   7.333   1.560   5.249  0.0323  0.0242  1.1543
  127OSM   H17G13589   7.318   1.724   5.332  0.6420  2.3136 -1.2686
  127OSM   C18F13590   7.503   1.682   5.217 -0.1236  0.1060 -0.1285
  127OSM   H18F13591   7.559   1.619   5.289 -0.1058 -0.0590 -0.2857
  127OSM   H18G13592   7.542   1.785   5.235  1.6525 -0.6886  0.7534
  127OSM   H18H13593   7.523   1.654   5.111 -0.2002 -1.0353  0.1536
  128OSM      N13594   0.399   6.832   3.404  0.3422  0.6589 -0.1943
  128OSM    C1513595   0.363   6.707   3.333  0.1428 -1.0528 -0.0323
  128OSM   H15A13596   0.319   6.634   3.399  1.6505 -1.0319  1.0553
  128OSM   H15B13597   0.452   6.669   3.285  1.5594  0.1292  1.5341
  128OSM   H15C13598   0.281   6.715   3.263  0.4772 -0.8001 -0.3991
  128OSM    C1413599   0.281   6.881   3.491  0.7096  0.4292  0.1518
  128OSM   H14A13600   0.194   6.885   3.427 -0.4518 -1.3510  1.5273
  128OSM   H14B13601   0.303   6.979   3.529 -1.6535  0.0403  2.8624
  128OSM   H14C13602   0.259   6.827   3.581 -0.6720  0.3081 -0.2444
  128OSM    C1313603   0.519   6.800   3.484 -0.1899 -0.2175 -0.0799
  128OSM   H13A13604   0.608   6.785   3.424  0.0610 -0.6483  0.3925
  128OSM   H13B13605   0.505   6.707   3.538  0.1967 -0.2519 -0.0385
  128OSM   H13C13606   0.536   6.889   3.543  1.4997 -0.7277  0.2623
  128OSM    C1213607   0.427   6.936   3.297 -0.4154 -0.1494  0.5261
  128OSM   H12A13608   0.493   6.887   3.227 -0.2518 -0.8955  1.1765
  128OSM   H12B13609   0.487   7.015   3.338 -0.3892  0.4123 -0.5720
  128OSM    C1113610   0.307   6.996   3.217 -0.4413 -0.6410  0.8357
  128OSM   H11A13611   0.366   7.062   3.150  0.5658 -1.0621  1.2926
  128OSM   H11B13612   0.249   7.071   3.276  0.5787  0.4871  0.4691
  128OSM      P13613   0.071   6.885   3.158  0.2418  0.1120  0.3842
  128OSM    O1313614   0.008   6.951   3.047 -0.2994  0.1290 -0.5851
  128OSM    O1413615   0.043   6.738   3.175  0.2582 -0.2863 -0.0167
  128OSM    O1113616   0.037   6.959   3.291 -0.2677 -0.2586  0.2075
  128OSM    O1213617   0.234   6.902   3.146  0.3612  0.4685  0.1787
  128OSM    C1S13618  -0.046   6.895   3.393  0.1281 -0.0855 -0.1954
  128OSM    H1S13619   0.006   6.806   3.433  0.8732  0.5247  0.2418
  128OSM    H1T13620  -0.147   6.869   3.358  0.4445 -1.6070 -0.0305
  128OSM     NF13621  -0.132   6.933   3.618 -0.1226  0.9380  0.1345
  128OSM    HNF13622  -0.225   6.959   3.643  0.1577  0.7352  1.4947
  128OSM    C2S13623  -0.070   6.996   3.507  0.1380  0.4354 -0.0666
  128OSM    H2S13624   0.035   7.020   3.536 -0.1017  2.6355 -0.8529
  128OSM    C3S13625  -0.136   7.127   3.456  0.8402 -0.2986 -0.2638
  128OSM    H3S13626  -0.232   7.092   3.413  1.1615 -2.4638  0.6340
  128OSM     O313627  -0.052   7.196   3.363 -0.1106 -0.0692 -0.1042
  128OSM    HO313628   0.023   7.136   3.358 -0.5470 -0.5239 -2.5959
  128OSM    C4S13629  -0.151   7.230   3.566 -0.4867  0.2647 -0.1289
  128OSM    H4S13630  -0.048   7.256   3.596  0.1849 -2.3768  0.0765
  128OSM    C5S13631  -0.259   7.290   3.614  0.3517  0.2679 -0.3127
  128OSM    H5S13632  -0.360   7.265   3.580  0.3198 -0.1576  0.0843
  128OSM    C6S13633  -0.240   7.408   3.717  0.6393  0.0801  0.1839
  128OSM    H6S13634  -0.300   7.494   3.680 -4.7080 -4.1932 -2.4843
  128OSM    H6T13635  -0.136   7.440   3.736  0.1993  2.1362 -0.5763
  128OSM    C7S13636  -0.313   7.360   3.847  0.0184 -0.3004 -1.2271
  128OSM    H7S13637  -0.419   7.371   3.815  0.2907  1.7750 -1.5264
  128OSM    H7T13638  -0.287   7.431   3.928 -0.4761 -1.5647  0.1084
  128OSM    C8S13639  -0.269   7.216   3.909  0.3498 -0.1047 -0.0664
  128OSM    H8S13640  -0.159   7.220   3.919  0.7596  1.6684 -3.6188
  128OSM    H8T13641  -0.287   7.136   3.833  1.1045 -1.4772  1.1577
  128OSM    C9S13642  -0.327   7.181   4.046 -0.2070 -0.2133 -0.1827
  128OSM    H9S13643  -0.309   7.275   4.102 -2.5195  1.2382 -1.6981
  128OSM    H9T13644  -0.268   7.097   4.088  1.9480  0.7672 -1.0436
  128OSM   C10S13645  -0.476   7.141   4.033 -0.4091 -0.1443  0.0141
  128OSM   H10S13646  -0.485   7.054   3.965  2.0154 -0.7643  0.4045
  128OSM   H10T13647  -0.530   7.223   3.981  0.3981  0.0025 -0.6035
  128OSM   C11S13648  -0.550   7.114   4.164 -0.6967 -0.4722 -0.3399
  128OSM   H11S13649  -0.519   7.020   4.213  0.8186  0.5442  0.7246
  128OSM   H11T13650  -0.658   7.101   4.139 -0.9733 -1.8559  1.4141
  128OSM   C12S13651  -0.544   7.229   4.266 -0.1343 -0.3284 -0.4432
  128OSM   H12S13652  -0.575   7.332   4.237 -1.2233 -0.7879 -0.9856
  128OSM   H12T13653  -0.440   7.233   4.304 -0.0032  1.9927 -0.8956
  128OSM   C13S13654  -0.638   7.203   4.381 -0.7779 -0.2929 -0.1932
  128OSM   H13S13655  -0.610   7.107   4.429  0.4364 -0.4807 -1.2211
  128OSM   H13T13656  -0.737   7.192   4.333 -2.0825  0.0437  2.2599
  128OSM   C14S13657  -0.647   7.314   4.485 -0.5564 -0.3726 -0.9635
  128OSM   H14S13658  -0.675   7.411   4.438 -1.4264 -0.9202 -1.6030
  128OSM   H14T13659  -0.548   7.319   4.534 -1.9891  0.2141  2.1542
  128OSM   C15S13660  -0.731   7.293   4.608 -0.4780  0.9937  0.0563
  128OSM   H15S13661  -0.680   7.208   4.658  1.0361  0.4260 -2.2746
  128OSM   H15T13662  -0.828   7.250   4.574 -0.9195  0.6668  1.6347
  128OSM   C16S13663  -0.758   7.419   4.689  0.2266 -0.7442 -0.8938
  128OSM   H16S13664  -0.830   7.484   4.636 -0.2912  0.9248  1.6623
  128OSM   H16T13665  -0.669   7.483   4.706 -0.7454  0.7843 -1.4341
  128OSM   C17S13666  -0.815   7.395   4.832  0.3009  0.0690 -0.1542
  128OSM   H17S13667  -0.909   7.336   4.826  1.1780 -1.5859  1.3099
  128OSM   H17T13668  -0.831   7.498   4.870 -1.0530 -0.9641  2.3651
  128OSM   C18S13669  -0.718   7.318   4.928 -0.3990  0.0092 -0.3404
  128OSM   H18S13670  -0.774   7.296   5.021 -0.0089 -0.0267 -0.1137
  128OSM   H18T13671  -0.638   7.387   4.960 -1.1329  1.0489 -0.6839
  128OSM   H18U13672  -0.680   7.224   4.882  0.5597 -0.3065  1.0566
  128OSM    C1F13673  -0.071   6.831   3.682 -0.3557  0.2281 -0.0908
  128OSM     OF13674   0.039   6.782   3.657 -0.3393  0.0340  0.0845
  128OSM    C2F13675  -0.159   6.764   3.783 -0.3850  0.5301 -0.1660
  128OSM    H2F13676  -0.228   6.691   3.735 -0.1257 -0.8036  1.4080
  128OSM    H2G13677  -0.214   6.844   3.837 -1.0535 -0.8908  1.3365
  128OSM    C3F13678  -0.081   6.695   3.893  0.0764  0.0686  0.0029
  128OSM    H3F13679   0.005   6.757   3.927  0.5211 -0.7741  0.4403
  128OSM    H3G13680  -0.046   6.597   3.854 -1.5441 -0.1043 -1.1332
  128OSM    C4F13681  -0.156   6.667   4.024  0.3656 -0.8035  0.5262
  128OSM    H4F13682  -0.101   6.610   4.103  2.0538  0.1094  0.0605
  128OSM    H4G13683  -0.230   6.589   3.994  1.0884 -1.0010 -0.8071
  128OSM    C5F13684  -0.222   6.794   4.086 -0.0103 -1.0120  0.4166
  128OSM    H5F13685  -0.305   6.841   4.028  0.1300  1.0093  1.7457
  128OSM    H5G13686  -0.151   6.879   4.083 -1.2530  0.0412 -0.4905
  128OSM    C6F13687  -0.273   6.782   4.232  0.2476  0.3097 -0.2111
  128OSM    H6F13688  -0.235   6.690   4.282 -0.5609  0.2142  0.2324
  128OSM    H6G13689  -0.384   6.777   4.233  0.2512  0.1062 -0.5804
  128OSM    C7F13690  -0.226   6.899   4.322  0.0576 -0.2497 -0.3509
  128OSM    H7F13691  -0.222   6.992   4.260  0.4776  0.4189  0.6533
  128OSM    H7G13692  -0.121   6.873   4.345  0.8453  0.8707 -2.4148
  128OSM    C8F13693  -0.323   6.915   4.443  0.6290 -0.1711 -1.1166
  128OSM    H8F13694  -0.307   6.825   4.506  3.0209  1.9565  1.6182
  128OSM    H8G13695  -0.428   6.906   4.408  0.8205  0.3497 -1.8589
  128OSM    C9F13696  -0.294   7.041   4.514 -0.5210 -0.3495 -0.2888
  128OSM    H9F13697  -0.259   7.123   4.449 -3.4631 -0.1339 -1.7354
  128OSM   C10F13698  -0.339   7.073   4.640  0.2516  0.8009 -0.5962
  128OSM   H10F13699  -0.307   7.166   4.689  0.3609  0.1891  0.5497
  128OSM   C11F13700  -0.408   6.976   4.733  0.2656  0.8716 -0.5008
  128OSM   H11F13701  -0.419   6.878   4.682  4.0426  0.1557 -0.2535
  128OSM   H11G13702  -0.509   7.010   4.765  0.7109  1.1364  0.6434
  128OSM   C12F13703  -0.336   6.941   4.866 -0.7830 -0.2327  0.3814
  128OSM   H12F13704  -0.234   6.901   4.849 -0.6785  0.6166 -1.1408
  128OSM   H12G13705  -0.374   6.848   4.913  1.9523 -2.8304 -2.1488
  128OSM   C13F13706  -0.336   7.049   4.970  0.4266 -0.1157  0.0221
  128OSM   H13F13707  -0.439   7.083   4.994 -0.2024 -0.9841 -1.3530
  128OSM   H13G13708  -0.273   7.134   4.933  0.9337 -0.6813 -0.4401
  128OSM   C14F13709  -0.272   7.014   5.111 -0.0051 -0.4325  0.2833
  128OSM   H14F13710  -0.170   6.976   5.088 -0.0178 -0.5867  0.4768
  128OSM   H14G13711  -0.312   6.931   5.174 -1.1558 -0.8944 -1.0154
  128OSM   C15F13712  -0.253   7.139   5.205  0.1976 -0.0297 -0.0464
  128OSM   H15F13713  -0.179   7.200   5.149  0.0609 -0.3328 -0.5718
  128OSM   H15G13714  -0.221   7.113   5.308 -1.8961  0.4495  0.7775
  128OSM   C16F13715  -0.383   7.207   5.230 -0.1753 -1.0233 -0.1845
  128OSM   H16F13716  -0.461   7.133   5.259 -1.2887  0.4056  0.6818
  128OSM   H16G13717  -0.411   7.254   5.133 -0.3558 -1.4986 -0.3633
  128OSM   C17F13718  -0.369   7.328   5.321 -0.7292 -0.7543  0.2777
  128OSM   H17F13719  -0.311   7.409   5.271 -0.6486 -0.2062  1.2261
  128OSM   H17G13720  -0.319   7.298   5.416 -0.8699 -3.4209 -0.4330
  128OSM   C18F13721  -0.512   7.377   5.364  0.3947 -0.0669 -0.5951
  128OSM   H18F13722  -0.496   7.465   5.430  2.4905  0.3916 -1.6209
  128OSM   H18G13723  -0.555   7.299   5.430  1.5852 -1.1234 -1.0150
  128OSM   H18H13724  -0.573   7.385   5.271 -2.1874  0.8097  1.0832
  129OSM      N13725   0.331   5.783   3.214  0.8698 -0.5823 -0.0391
  129OSM    C1513726   0.336   5.721   3.350  0.3396  0.0218  0.1767
  129OSM   H15A13727   0.429   5.737   3.402 -0.0287  0.7904  0.6242
  129OSM   H15B13728   0.323   5.614   3.344 -0.6192  0.1242  0.1725
  129OSM   H15C13729   0.253   5.765   3.405  2.0722  2.0194  1.3506
  129OSM    C1413730   0.380   5.928   3.214 -0.0040  0.4227  0.0694
  129OSM   H14A13731   0.397   5.964   3.113  0.6374  0.5459  0.2155
  129OSM   H14B13732   0.483   5.922   3.246  0.5841 -2.3655 -1.9715
  129OSM   H14C13733   0.327   5.991   3.285  0.3839 -0.3467  1.0521
  129OSM    C1313734   0.412   5.712   3.112  0.3637  0.2619 -0.5987
  129OSM   H13A13735   0.425   5.776   3.026  2.1043  1.3288  0.3806
  129OSM   H13B13736   0.357   5.627   3.075  2.6117 -0.9135 -1.4063
  129OSM   H13C13737   0.514   5.688   3.138  0.1336  0.2985  0.3906
  129OSM    C1213738   0.184   5.788   3.159 -0.2969 -0.2865  0.0999
  129OSM   H12A13739   0.201   5.808   3.054 -2.3488  0.1580 -0.1898
  129OSM   H12B13740   0.132   5.872   3.201 -0.0691  0.8432 -1.7895
  129OSM    C1113741   0.101   5.660   3.169  0.2550  0.0651  0.4004
  129OSM   H11A13742   0.006   5.685   3.118  0.2703 -0.7052 -0.0144
  129OSM   H11B13743   0.086   5.643   3.277  0.3031  1.1329  0.5918
  129OSM      P13744   0.094   5.416   3.078  0.4777 -0.5719 -0.1141
  129OSM    O1313745  -0.035   5.471   3.019  0.1611 -0.0270  0.2051
  129OSM    O1413746   0.174   5.336   2.989  0.1931  0.4812  0.8132
  129OSM    O1113747   0.059   5.343   3.210 -0.2507  0.6051  0.3704
  129OSM    O1213748   0.169   5.551   3.107  0.1637  0.3255 -0.1260
  129OSM    C1S13749   0.179   5.282   3.284  0.1193 -0.1746  0.0292
  129OSM    H1S13750   0.265   5.352   3.288  0.2715 -0.3659  0.1236
  129OSM    H1T13751   0.211   5.196   3.222 -0.6004  0.0712 -0.7010
  129OSM     NF13752   0.284   5.226   3.511  0.2369 -0.8025 -0.7003
  129OSM    HNF13753   0.302   5.130   3.530 -0.1845 -0.5371  1.2677
  129OSM    C2S13754   0.157   5.259   3.435 -0.9377 -0.9523 -0.0197
  129OSM    H2S13755   0.126   5.357   3.479  1.3569  0.1552 -0.6968
  129OSM    C3S13756   0.036   5.164   3.460  0.9210  0.2377 -0.5725
  129OSM    H3S13757   0.079   5.062   3.448  0.8941  0.0508  0.6898
  129OSM     O313758  -0.075   5.173   3.371  0.1097  0.5223  0.2146
  129OSM    HO313759  -0.055   5.218   3.288 -2.0530 -0.6221 -1.0409
  129OSM    C4S13760  -0.015   5.158   3.604  0.2630  1.2189 -0.1741
  129OSM    H4S13761   0.042   5.083   3.661  0.0839  0.8559 -0.4664
  129OSM    C5S13762  -0.105   5.234   3.673 -0.3533  0.4424  0.6832
  129OSM    H5S13763  -0.141   5.322   3.618  0.1328 -1.4520 -3.0243
  129OSM    C6S13764  -0.137   5.220   3.815 -1.1024 -0.4714 -0.1564
  129OSM    H6S13765  -0.242   5.185   3.822 -0.5708 -2.5255 -1.3531
  129OSM    H6T13766  -0.145   5.318   3.865  0.6679 -1.6759  2.7380
  129OSM    C7S13767  -0.044   5.138   3.913  0.6826 -0.4815 -0.2934
  129OSM    H7S13768   0.057   5.182   3.903  0.5115 -0.1377 -0.5142
  129OSM    H7T13769  -0.038   5.032   3.880  1.0066 -0.5313 -0.0850
  129OSM    C8S13770  -0.085   5.153   4.060  0.1193  0.2518 -0.8649
  129OSM    H8S13771  -0.186   5.112   4.085  0.3139  0.4490  0.3216
  129OSM    H8T13772  -0.084   5.264   4.067 -0.6629  0.2231 -0.0539
  129OSM    C9S13773   0.028   5.096   4.151 -0.5197 -0.1847 -0.3344
  129OSM    H9S13774   0.129   5.125   4.115 -0.4230  1.9928  1.4601
  129OSM    H9T13775   0.029   4.985   4.151  0.4287 -0.2447  2.0091
  129OSM   C10S13776   0.013   5.148   4.299 -0.0394  0.0457  0.5259
  129OSM   H10S13777  -0.092   5.124   4.325 -0.8326  0.3784 -2.1149
  129OSM   H10T13778   0.018   5.259   4.309  2.5395  0.0222  0.0330
  129OSM   C11S13779   0.104   5.078   4.401 -0.5764 -0.3538 -0.7771
  129OSM   H11S13780   0.093   4.969   4.379  2.3024 -0.6018 -1.4419
  129OSM   H11T13781   0.078   5.101   4.506 -1.0370  1.2932 -1.2204
  129OSM   C12S13782   0.251   5.118   4.375  0.2625  0.4511 -0.4333
  129OSM   H12S13783   0.267   5.226   4.395 -0.2681  0.9141 -2.3209
  129OSM   H12T13784   0.275   5.093   4.269  0.6385 -0.6103 -0.1038
  129OSM   C13S13785   0.357   5.043   4.458 -0.6768  0.3340  0.4107
  129OSM   H13S13786   0.450   5.044   4.397 -0.2945 -2.5464  0.8099
  129OSM   H13T13787   0.337   4.934   4.456  3.7106 -0.6996 -2.2333
  129OSM   C14S13788   0.403   5.109   4.590  0.2792  0.0468 -0.1799
  129OSM   H14S13789   0.311   5.131   4.648  0.5408 -0.2645  0.3662
  129OSM   H14T13790   0.442   5.213   4.579 -0.5037  0.2340 -1.4057
  129OSM   C15S13791   0.498   5.025   4.677 -0.2049 -0.0509  0.3036
  129OSM   H15S13792   0.589   4.999   4.619  1.2471 -0.3781  2.5881
  129OSM   H15T13793   0.444   4.931   4.698 -1.3099  0.5391  0.2087
  129OSM   C16S13794   0.546   5.079   4.814 -0.1465 -0.1545 -0.6173
  129OSM   H16S13795   0.463   5.122   4.875 -0.2900  1.3271 -1.7946
  129OSM   H16T13796   0.616   5.164   4.805 -0.6041  0.3782  0.5785
  129OSM   C17S13797   0.641   4.969   4.891 -0.2974  0.4375  0.3562
  129OSM   H17S13798   0.583   4.879   4.919 -1.9404  0.5376 -2.3399
  129OSM   H17T13799   0.670   5.020   4.985 -2.4857  4.0780 -0.7107
  129OSM   C18S13800   0.764   4.921   4.819  0.2934  0.2270 -0.3462
  129OSM   H18S13801   0.737   4.882   4.719 -0.9421  0.5526 -0.1511
  129OSM   H18T13802   0.813   4.848   4.886 -1.8971  0.8320  2.1017
  129OSM   H18U13803   0.828   5.009   4.792 -1.3752  1.9247  0.9269
  129OSM    C1F13804   0.375   5.321   3.533  0.3553 -1.0875  0.9843
  129OSM     OF13805   0.354   5.431   3.483  0.3781  0.1462  0.1827
  129OSM    C2F13806   0.504   5.285   3.598 -0.0801  0.8873  0.1954
  129OSM    H2F13807   0.577   5.263   3.518 -0.2314  0.7876  0.0836
  129OSM    H2G13808   0.489   5.195   3.661  0.4919  0.0818 -0.7983
  129OSM    C3F13809   0.560   5.401   3.674  0.8440  0.3159 -0.1390
  129OSM    H3F13810   0.572   5.494   3.614 -2.0723  0.9955  0.2083
  129OSM    H3G13811   0.668   5.385   3.696  1.4069  1.0620 -2.1434
  129OSM    C4F13812   0.475   5.423   3.803  0.8387  0.0283  0.0154
  129OSM    H4F13813   0.365   5.421   3.788  0.3678  1.6678  2.5621
  129OSM    H4G13814   0.485   5.526   3.843 -4.0877  1.7739 -2.4391
  129OSM    C5F13815   0.512   5.320   3.906  0.2932 -0.0521 -0.7800
  129OSM    H5F13816   0.619   5.342   3.925  0.2459 -0.1229 -0.4302
  129OSM    H5G13817   0.493   5.215   3.874 -4.1763  0.2497  0.1802
  129OSM    C6F13818   0.439   5.342   4.039 -0.7308 -0.2860  0.0837
  129OSM    H6F13819   0.437   5.242   4.087 -0.2683  0.2575  1.2665
  129OSM    H6G13820   0.334   5.375   4.023  0.2019  3.3841  0.7011
  129OSM    C7F13821   0.507   5.450   4.130  0.4230  0.2265 -0.0840
  129OSM    H7F13822   0.529   5.546   4.078 -0.1530  0.4499  0.0657
  129OSM    H7G13823   0.607   5.413   4.160  1.5620  3.6841  0.8960
  129OSM    C8F13824   0.442   5.489   4.264  0.2777  0.5524 -0.0630
  129OSM    H8F13825   0.436   5.394   4.320 -0.9805  1.0378  0.6587
  129OSM    H8G13826   0.335   5.510   4.241 -0.1221 -0.2100  1.0355
  129OSM    C9F13827   0.509   5.608   4.324 -0.5203  0.7009  0.2207
  129OSM    H9F13828   0.453   5.701   4.305  0.1897  1.5339  1.9563
  129OSM   C10F13829   0.621   5.609   4.400  0.4205 -0.1493  0.4236
  129OSM   H10F13830   0.662   5.704   4.436  0.4786 -0.4871  1.2737
  129OSM   C11F13831   0.699   5.489   4.435  0.4549  0.3628 -0.3392
  129OSM   H11F13832   0.805   5.521   4.429  0.1794  1.0676 -2.3938
  129OSM   H11G13833   0.687   5.400   4.369 -0.3368 -2.0892  2.8746
  129OSM   C12F13834   0.664   5.436   4.577 -0.3299  0.6581 -0.9451
  129OSM   H12F13835   0.721   5.342   4.587 -2.8733 -0.8705  0.3511
  129OSM   H12G13836   0.556   5.407   4.578 -0.3688  0.7942 -0.3566
  129OSM   C13F13837   0.701   5.532   4.699 -0.3162 -0.1396  0.9849
  129OSM   H13F13838   0.624   5.612   4.705 -1.4840 -1.0894 -0.5227
  129OSM   H13G13839   0.804   5.570   4.677 -0.3655  0.0912  1.1470
  129OSM   C14F13840   0.697   5.464   4.828 -0.1712  0.1806 -0.0217
  129OSM   H14F13841   0.772   5.383   4.817  0.5002  0.7433  0.3018
  129OSM   H14G13842   0.599   5.417   4.850  0.0312  0.6492  2.1676
  129OSM   C15F13843   0.732   5.570   4.934  0.0598  0.4920 -0.3620
  129OSM   H15F13844   0.686   5.664   4.896 -1.2708  1.6678  3.7301
  129OSM   H15G13845   0.841   5.588   4.928  0.1420  0.8573  1.6194
  129OSM   C16F13846   0.679   5.527   5.071  0.4642  0.3991  0.1920
  129OSM   H16F13847   0.696   5.421   5.097 -0.3739  0.5152  1.3284
  129OSM   H16G13848   0.568   5.530   5.079  0.4825 -0.8309  1.2745
  129OSM   C17F13849   0.733   5.611   5.192 -0.5679  0.1784  0.2394
  129OSM   H17F13850   0.840   5.584   5.211 -0.6266 -0.3410 -0.1286
  129OSM   H17G13851   0.675   5.578   5.281  0.8557 -1.1491  0.7150
  129OSM   C18F13852   0.723   5.766   5.183  0.1360  0.3915  0.2243
  129OSM   H18F13853   0.771   5.799   5.088 -2.6138  0.4542 -1.2191
  129OSM   H18G13854   0.776   5.809   5.271  2.0708  0.3331 -0.8489
  129OSM   H18H13855   0.615   5.790   5.190  0.5350  2.5716 -0.2790
  130OSM      N13856   1.433   1.970   3.250 -0.8231 -1.1036  0.0377
  130OSM    C1513857   1.520   2.087   3.302 -0.1605 -0.0963  0.7463
  130OSM   H15A13858   1.527   2.084   3.409  0.1717  1.9963  0.8308
  130OSM   H15B13859   1.471   2.178   3.269 -1.3798 -0.6776  0.9125
  130OSM   H15C13860   1.620   2.087   3.261  0.5359  0.0379  2.4048
  130OSM    C1413861   1.403   2.007   3.111  0.1326  0.1325 -0.8391
  130OSM   H14A13862   1.335   1.930   3.076  0.5309 -2.2931  3.1046
  130OSM   H14B13863   1.487   2.012   3.044 -2.3739 -0.0539 -4.2959
  130OSM   H14C13864   1.351   2.101   3.100  0.3849  0.3772  0.0055
  130OSM    C1313865   1.531   1.850   3.247 -0.8574 -0.0071  0.5127
  130OSM   H13A13866   1.480   1.775   3.188 -0.3577  1.2391 -1.6057
  130OSM   H13B13867   1.563   1.811   3.342  0.2189 -1.9026 -0.5800
  130OSM   H13C13868   1.614   1.873   3.182 -0.9456  0.4263  0.5487
  130OSM    C1213869   1.309   1.954   3.330 -0.4939  0.2111 -1.0820
  130OSM   H12A13870   1.231   2.025   3.306 -2.8543 -1.9531 -0.2752
  130OSM   H12B13871   1.328   1.966   3.436 -0.2769  0.0217 -1.0998
  130OSM    C1113872   1.247   1.817   3.327 -0.0440 -0.0910 -0.1276
  130OSM   H11A13873   1.153   1.817   3.388 -0.9078 -1.6231 -1.3820
  130OSM   H11B13874   1.310   1.735   3.368  0.9217 -0.5670 -2.3954
  130OSM      P13875   1.092   1.807   3.112  0.1569 -0.6112  0.4791
  130OSM    O1313876   1.145   1.867   2.987  0.0890  0.1696  0.0600
  130OSM    O1413877   1.005   1.689   3.088  0.2806  0.3051 -0.4551
  130OSM    O1113878   1.015   1.913   3.198 -0.1493 -0.4680  0.2354
  130OSM    O1213879   1.217   1.770   3.196  0.0938 -0.4284 -0.3019
  130OSM    C1S13880   0.908   1.869   3.286  0.6841 -0.2350  0.2307
  130OSM    H1S13881   0.928   1.765   3.322  0.2660 -0.2326  0.4760
  130OSM    H1T13882   0.811   1.868   3.232  1.5905 -2.1345 -1.4864
  130OSM     NF13883   0.801   1.910   3.495  0.0572 -0.3808  0.0101
  130OSM    HNF13884   0.716   1.959   3.479  1.6674  2.0164 -1.9214
  130OSM    C2S13885   0.902   1.969   3.410 -0.4098 -0.0519 -0.3791
  130OSM    H2S13886   0.999   1.958   3.463 -0.1256 -1.6875 -1.1548
  130OSM    C3S13887   0.885   2.119   3.379 -0.6966  0.1487 -0.2984
  130OSM    H3S13888   0.782   2.132   3.340 -1.7624  2.3884  2.8262
  130OSM     O313889   0.974   2.174   3.275 -0.2966  0.4933 -0.4455
  130OSM    HO313890   1.011   2.100   3.226 -2.6619 -0.6742 -0.6046
  130OSM    C4S13891   0.899   2.196   3.506  1.0514  0.4286 -1.1112
  130OSM    H4S13892   0.998   2.190   3.554  1.1039 -1.4877 -1.3751
  130OSM    C5S13893   0.790   2.234   3.578 -0.5079 -0.2268  0.2773
  130OSM    H5S13894   0.690   2.218   3.536 -0.3237  1.8958 -1.0983
  130OSM    C6S13895   0.788   2.278   3.721 -0.3540 -0.1544  0.3892
  130OSM    H6S13896   0.741   2.205   3.789 -0.9090  0.8516  1.1171
  130OSM    H6T13897   0.734   2.375   3.734  0.4343  0.6069 -1.5480
  130OSM    C7S13898   0.925   2.315   3.770  0.1333 -0.2188  0.2684
  130OSM    H7S13899   0.969   2.400   3.713 -0.7183  0.0339 -0.0127
  130OSM    H7T13900   0.998   2.232   3.760  0.8410  0.6426 -2.6663
  130OSM    C8S13901   0.915   2.365   3.913 -0.1948  0.7252  0.9459
  130OSM    H8S13902   0.921   2.269   3.968 -1.4690  0.9457  1.5027
  130OSM    H8T13903   0.817   2.414   3.932 -0.2808  2.8075 -3.4777
  130OSM    C9S13904   1.038   2.451   3.943 -0.5493  0.3393  0.3664
  130OSM    H9S13905   1.031   2.544   3.883  2.7787  0.8325  0.5277
  130OSM    H9T13906   1.125   2.396   3.901 -1.2595  0.5834 -1.5256
  130OSM   C10S13907   1.057   2.474   4.097  0.0072  0.0711 -0.7569
  130OSM   H10S13908   1.149   2.537   4.097 -0.1299  0.3295  0.8722
  130OSM   H10T13909   1.077   2.375   4.144  0.4223  0.6698  0.3795
  130OSM   C11S13910   0.943   2.552   4.161  0.2403  0.4144 -0.6035
  130OSM   H11S13911   0.847   2.497   4.150  0.3387  0.5111 -2.3279
  130OSM   H11T13912   0.920   2.639   4.096 -1.0680  0.0935 -0.6117
  130OSM   C12S13913   0.974   2.603   4.309  0.6091  0.5387  0.6209
  130OSM   H12S13914   1.063   2.666   4.325 -0.3715  2.4339 -0.9700
  130OSM   H12T13915   0.994   2.509   4.366 -1.1046  0.1105  0.5755
  130OSM   C13S13916   0.861   2.673   4.373  0.6947  0.6640  0.5056
  130OSM   H13S13917   0.762   2.635   4.339  0.2426  0.5394  1.8945
  130OSM   H13T13918   0.874   2.780   4.343 -0.5862  0.5243 -0.6498
  130OSM   C14S13919   0.854   2.677   4.528 -0.1001 -0.2762 -0.0907
  130OSM   H14S13920   0.835   2.582   4.582 -2.1161  0.7250  1.0954
  130OSM   H14T13921   0.774   2.751   4.551 -0.2705 -0.1603 -1.0456
  130OSM   C15S13922   0.974   2.748   4.593 -0.1386 -0.1062  0.5164
  130OSM   H15S13923   0.999   2.836   4.531  1.7215 -1.8738 -1.4197
  130OSM   H15T13924   1.059   2.678   4.576 -0.1757  0.1531 -0.7829
  130OSM   C16S13925   0.950   2.784   4.740 -0.4694  0.2035 -0.0899
  130OSM   H16S13926   0.847   2.760   4.773  0.8178 -3.6605  1.6741
  130OSM   H16T13927   0.962   2.894   4.745  2.9611 -0.0877  0.6198
  130OSM   C17S13928   1.047   2.721   4.843  0.7664 -0.3396  0.0999
  130OSM   H17S13929   1.149   2.746   4.808  0.2219 -0.0002 -1.2926
  130OSM   H17T13930   1.029   2.611   4.844 -1.4445 -0.0990 -2.4364
  130OSM   C18S13931   1.018   2.779   4.983  0.0720  0.1576  0.1456
  130OSM   H18S13932   0.910   2.758   4.996 -0.7403  0.8533 -4.1999
  130OSM   H18T13933   1.024   2.889   4.992 -0.7317  0.3821 -1.6051
  130OSM   H18U13934   1.070   2.727   5.067  0.0338  0.2711  0.2399
  130OSM    C1F13935   0.810   1.802   3.573 -0.8315 -0.9695 -0.0800
  130OSM     OF13936   0.918   1.752   3.597 -0.5216  0.2394  0.0003
  130OSM    C2F13937   0.674   1.752   3.630 -0.0668 -0.5285  0.5470
  130OSM    H2F13938   0.616   1.741   3.536  1.9056 -2.0617 -0.5541
  130OSM    H2G13939   0.623   1.824   3.697  1.6562  1.1095  0.1667
  130OSM    C3F13940   0.670   1.605   3.688  0.4554  0.9123 -0.7870
  130OSM    H3F13941   0.703   1.523   3.621  2.0035 -1.3158  2.4782
  130OSM    H3G13942   0.565   1.583   3.715  0.9685 -0.1882  0.4521
  130OSM    C4F13943   0.735   1.594   3.826  0.0591  0.3496 -0.4201
  130OSM    H4F13944   0.697   1.674   3.893 -0.0295  0.2894 -0.3980
  130OSM    H4G13945   0.844   1.614   3.820  0.1478  0.1648  0.5099
  130OSM    C5F13946   0.709   1.462   3.894  0.0109  0.2252 -0.2934
  130OSM    H5F13947   0.747   1.389   3.819  0.7690 -0.3689  0.6558
  130OSM    H5G13948   0.600   1.442   3.906 -0.0898  0.4775 -0.7341
  130OSM    C6F13949   0.777   1.450   4.030 -0.6454  0.3274  0.6213
  130OSM    H6F13950   0.884   1.478   4.026 -0.4494 -0.5204 -1.1898
  130OSM    H6G13951   0.789   1.344   4.062 -1.8065  0.0094  0.0587
  130OSM    C7F13952   0.714   1.525   4.144 -0.1372  0.0373  0.5528
  130OSM    H7F13953   0.619   1.479   4.177 -0.1834 -0.9605 -0.8690
  130OSM    H7G13954   0.703   1.634   4.123  0.4674 -0.1768 -1.0298
  130OSM    C8F13955   0.806   1.527   4.275 -0.5919  0.3052 -0.5548
  130OSM    H8F13956   0.752   1.592   4.348 -0.5793  0.8871 -1.0539
  130OSM    H8G13957   0.902   1.578   4.251 -0.4257  1.2972  1.8856
  130OSM    C9F13958   0.832   1.387   4.331 -0.0303  0.0790 -0.3754
  130OSM    H9F13959   0.914   1.342   4.272 -3.2944 -1.1350 -4.5475
  130OSM   C10F13960   0.762   1.317   4.417 -0.7449 -0.2813 -0.6975
  130OSM   H10F13961   0.800   1.221   4.454 -0.5435 -0.7089 -1.9781
  130OSM   C11F13962   0.644   1.357   4.490  0.4244 -0.4012  0.6537
  130OSM   H11F13963   0.584   1.266   4.515 -1.1110  0.0586 -1.1566
  130OSM   H11G13964   0.581   1.420   4.424  0.6412  1.5103  2.1827
  130OSM   C12F13965   0.681   1.446   4.617 -0.3301 -0.1555 -0.1536
  130OSM   H12F13966   0.717   1.543   4.576  0.6012  0.4313  1.9405
  130OSM   H12G13967   0.768   1.410   4.676  0.3373  0.8510 -0.4877
  130OSM   C13F13968   0.556   1.473   4.697 -0.4704  0.4286 -0.7128
  130OSM   H13F13969   0.470   1.459   4.629 -0.0170 -0.0025 -1.2023
  130OSM   H13G13970   0.555   1.572   4.747  0.2660  0.5577 -0.9316
  130OSM   C14F13971   0.527   1.355   4.799 -0.3871 -0.1246 -0.5607
  130OSM   H14F13972   0.543   1.253   4.757 -1.8771 -0.3522 -0.6293
  130OSM   H14G13973   0.418   1.351   4.819 -0.2161 -0.7499  0.3096
  130OSM   C15F13974   0.597   1.372   4.934  0.0798 -0.4072  0.3273
  130OSM   H15F13975   0.544   1.454   4.987  3.8625  2.5378 -0.0714
  130OSM   H15G13976   0.701   1.411   4.930 -0.5104  1.1037 -1.8958
  130OSM   C16F13977   0.608   1.236   5.009 -0.2203 -0.0684 -0.2582
  130OSM   H16F13978   0.675   1.168   4.953  0.2001  0.2271 -0.1139
  130OSM   H16G13979   0.510   1.184   5.007 -0.2777 -0.2528  2.6539
  130OSM   C17F13980   0.644   1.249   5.156  0.5006 -0.9090  0.0685
  130OSM   H17F13981   0.573   1.325   5.196  0.1582 -1.1445 -0.0868
  130OSM   H17G13982   0.744   1.296   5.171  0.9629 -1.7571 -0.2948
  130OSM   C18F13983   0.642   1.115   5.223 -0.9133  0.7673 -0.3516
  130OSM   H18F13984   0.724   1.047   5.190 -0.2991  1.9379 -1.3391
  130OSM   H18G13985   0.549   1.056   5.210  1.2699 -2.5500 -2.7911
  130OSM   H18H13986   0.645   1.121   5.334  0.6780 -2.0120 -0.1450
  131OSM      N13987   6.207   5.252   3.091  0.3495  0.6714  0.1837
  131OSM    C1513988   6.208   5.241   2.943 -0.2764  0.0159 -0.1967
  131OSM   H15A13989   6.248   5.145   2.914  2.2470  1.9231 -3.9150
  131OSM   H15B13990   6.266   5.323   2.904  1.3536 -1.7726 -1.7326
  131OSM   H15C13991   6.113   5.262   2.896 -1.0935  0.4507  1.5704
  131OSM    C1413992   6.142   5.124   3.138 -0.2687 -0.1098  0.3720
  131OSM   H14A13993   6.053   5.097   3.084 -0.2862 -0.7548  0.7117
  131OSM   H14B13994   6.118   5.131   3.243 -1.4263  2.1067  0.0212
  131OSM   H14C13995   6.207   5.041   3.113  0.9908  0.7846  0.5917
  131OSM    C1313996   6.341   5.254   3.149 -0.2262 -0.0814  0.2204
  131OSM   H13A13997   6.402   5.167   3.133  1.6124  1.2048 -0.0680
  131OSM   H13B13998   6.330   5.259   3.257 -0.4514 -1.8034  0.2955
  131OSM   H13C13999   6.400   5.341   3.123 -1.0106  0.2677 -0.4336
  131OSM    C1214000   6.129   5.374   3.128  0.0910 -0.1462 -0.2237
  131OSM   H12A14001   6.042   5.391   3.066  0.9988  0.4882 -1.3477
  131OSM   H12B14002   6.191   5.459   3.105 -0.0584  0.1505  0.4421
  131OSM    C1114003   6.088   5.390   3.279 -0.7325 -0.3937  0.0349
  131OSM   H11A14004   6.040   5.489   3.297 -3.7616 -1.3038 -2.0863
  131OSM   H11B14005   6.178   5.381   3.343  0.8014 -1.1329 -2.0974
  131OSM      P14006   5.838   5.305   3.257 -0.0875  0.4609  0.3335
  131OSM    O1314007   5.841   5.388   3.139  0.0849 -0.8047  0.3121
  131OSM    O1414008   5.769   5.173   3.241 -0.6332 -0.2149  0.1315
  131OSM    O1114009   5.781   5.390   3.381  0.0476 -0.2237 -0.2069
  131OSM    O1214010   5.988   5.289   3.306  0.2883  0.2379  0.2690
  131OSM    C1S14011   5.810   5.336   3.515 -0.5470 -0.6181 -1.2023
  131OSM    H1S14012   5.910   5.380   3.536 -0.4979 -0.1860 -2.2735
  131OSM    H1T14013   5.808   5.225   3.523 -1.3451 -0.6053 -1.1663
  131OSM     NF14014   5.772   5.359   3.754 -0.5343 -0.0198 -0.1271
  131OSM    HNF14015   5.717   5.303   3.815 -1.7570  1.2291 -0.0202
  131OSM    C2S14016   5.718   5.387   3.629  0.9513  0.2677  0.1990
  131OSM    H2S14017   5.718   5.498   3.625  0.2300  0.2806  0.5018
  131OSM    C3S14018   5.572   5.332   3.597 -0.0065  0.3973  0.7764
  131OSM    H3S14019   5.589   5.223   3.588  0.1126  0.4645  0.0859
  131OSM     O314020   5.521   5.370   3.467 -0.1791  0.1233 -0.2317
  131OSM    HO314021   5.602   5.400   3.425  0.3618  0.0953  0.7584
  131OSM    C4S14022   5.467   5.361   3.697  0.2091 -0.6644 -0.3246
  131OSM    H4S14023   5.437   5.278   3.763 -0.2188  0.8737  1.4985
  131OSM    C5S14024   5.424   5.480   3.734 -0.1475  0.3368  0.1410
  131OSM    H5S14025   5.451   5.569   3.675 -0.2662  0.6644  0.5817
  131OSM    C6S14026   5.320   5.508   3.840  0.1654  0.3532 -0.2557
  131OSM    H6S14027   5.288   5.411   3.883  1.2935 -0.1516 -0.4972
  131OSM    H6T14028   5.227   5.544   3.792  0.0991  0.9433  0.3064
  131OSM    C7S14029   5.362   5.612   3.949 -1.2247 -0.0137  0.2586
  131OSM    H7S14030   5.347   5.716   3.912 -0.7102  0.7555  2.1189
  131OSM    H7T14031   5.473   5.615   3.953 -1.2057 -0.1054 -0.1753
  131OSM    C8S14032   5.302   5.597   4.089 -0.2284 -0.5306  0.3367
  131OSM    H8S14033   5.192   5.614   4.091 -0.0644  0.7608 -0.4698
  131OSM    H8T14034   5.329   5.686   4.149  1.4209 -0.1594 -0.8915
  131OSM    C9S14035   5.345   5.468   4.152  0.6309  0.8872 -0.1864
  131OSM    H9S14036   5.456   5.461   4.143  0.5465  1.7274 -2.3383
  131OSM    H9T14037   5.305   5.378   4.101  0.5022 -0.4081  2.0518
  131OSM   C10S14038   5.293   5.443   4.295 -0.2517 -0.5556  0.6790
  131OSM   H10S14039   5.305   5.335   4.318  0.9867 -0.8774 -1.2762
  131OSM   H10T14040   5.187   5.473   4.284  0.2348  0.2374 -3.4643
  131OSM   C11S14041   5.385   5.520   4.397  0.0424  1.1094 -0.0525
  131OSM   H11S14042   5.358   5.628   4.391  1.5769  1.4803 -0.7508
  131OSM   H11T14043   5.493   5.527   4.374 -0.0542  1.0573 -0.5273
  131OSM   C12S14044   5.361   5.459   4.542  0.1938 -0.5250 -0.3746
  131OSM   H12S14045   5.429   5.512   4.613 -0.6907 -2.7797  2.3483
  131OSM   H12T14046   5.391   5.352   4.541 -0.6259 -0.8576  2.1819
  131OSM   C13S14047   5.220   5.469   4.589  1.1152  1.0246 -0.7807
  131OSM   H13S14048   5.143   5.444   4.513  0.2229 -1.3705  0.7683
  131OSM   H13T14049   5.198   5.573   4.621 -2.7973  0.4514 -1.1409
  131OSM   C14S14050   5.186   5.382   4.715 -0.3188 -0.9995  0.2417
  131OSM   H14S14051   5.271   5.366   4.783  0.7611 -0.9050 -1.0377
  131OSM   H14T14052   5.146   5.294   4.660 -0.5010 -0.6509 -0.1974
  131OSM   C15S14053   5.063   5.434   4.781  0.6236 -0.1614 -0.7601
  131OSM   H15S14054   4.982   5.447   4.707  0.6074  0.6012 -0.6167
  131OSM   H15T14055   5.087   5.539   4.809 -0.7264  0.0236 -0.2430
  131OSM   C16S14056   5.009   5.350   4.896  0.2698  0.7939  0.1557
  131OSM   H16S14057   5.090   5.331   4.970  0.3660  1.5745  0.2650
  131OSM   H16T14058   4.976   5.254   4.852 -0.2540  0.0865  2.0010
  131OSM   C17S14059   4.892   5.422   4.961 -0.0017 -0.8653  0.8382
  131OSM   H17S14060   4.819   5.464   4.888 -0.3131 -2.2306  0.3239
  131OSM   H17T14061   4.928   5.510   5.018  0.6907  0.7143 -1.8462
  131OSM   C18S14062   4.810   5.333   5.053  0.1702 -0.0017  0.6710
  131OSM   H18S14063   4.882   5.274   5.114  0.9406  0.5206  0.2909
  131OSM   H18T14064   4.751   5.257   4.998 -0.1964 -1.3866  2.8593
  131OSM   H18U14065   4.740   5.384   5.121  1.8649  1.7800  1.1789
  131OSM    C1F14066   5.880   5.407   3.807  0.4606  0.7529 -0.0999
  131OSM     OF14067   5.969   5.462   3.739  0.4917  0.3913 -0.4005
  131OSM    C2F14068   5.883   5.387   3.959 -0.6662 -0.8344 -0.2392
  131OSM    H2F14069   5.904   5.278   3.964  0.9831 -0.5200  0.4968
  131OSM    H2G14070   5.785   5.418   4.001 -0.7005  0.4911 -1.2775
  131OSM    C3F14071   6.000   5.432   4.052  0.3909  0.2780 -0.2889
  131OSM    H3F14072   5.980   5.541   4.052 -2.1247 -0.1305 -1.0679
  131OSM    H3G14073   6.101   5.411   4.009 -0.3600  0.4950 -2.2562
  131OSM    C4F14074   5.994   5.391   4.205 -0.5154  0.3925 -0.9230
  131OSM    H4F14075   6.098   5.421   4.228  0.2149 -2.3840 -0.3193
  131OSM    H4G14076   5.997   5.280   4.207 -1.1418  0.3812 -0.4660
  131OSM    C5F14077   5.883   5.457   4.290 -0.1515  0.2160 -0.4058
  131OSM    H5F14078   5.783   5.419   4.259  0.1419 -0.8500 -0.1055
  131OSM    H5G14079   5.888   5.567   4.297  1.4298  0.0804  1.2005
  131OSM    C6F14080   5.899   5.417   4.432 -1.0571  0.4967 -0.6025
  131OSM    H6F14081   5.997   5.450   4.473 -1.7560 -0.0995  1.7071
  131OSM    H6G14082   5.899   5.306   4.438 -0.8528  0.5442  0.5130
  131OSM    C7F14083   5.804   5.473   4.531  0.3395  0.4029 -0.1779
  131OSM    H7F14084   5.706   5.426   4.507  0.1339  0.5833  0.2875
  131OSM    H7G14085   5.798   5.583   4.542  1.5754  0.3005  2.4873
  131OSM    C8F14086   5.829   5.424   4.679  0.1082  0.3241 -0.9433
  131OSM    H8F14087   5.929   5.464   4.708  0.4579  0.0040 -1.6681
  131OSM    H8G14088   5.858   5.317   4.669  0.0498  0.3482 -1.4014
  131OSM    C9F14089   5.726   5.440   4.789  0.5401 -0.4320  0.2533
  131OSM    H9F14090   5.625   5.436   4.744  1.0481 -0.6179 -0.9170
  131OSM   C10F14091   5.741   5.475   4.917  0.2534 -0.5493 -0.7266
  131OSM   H10F14092   5.655   5.486   4.984  1.0899 -1.7067  0.5932
  131OSM   C11F14093   5.875   5.512   4.977  0.5433  0.1491 -0.1053
  131OSM   H11F14094   5.965   5.504   4.913  1.4286 -1.5655  1.2513
  131OSM   H11G14095   5.895   5.448   5.065 -1.8373 -2.0493 -1.0362
  131OSM   C12F14096   5.881   5.665   5.019  0.1939  0.0428  0.1565
  131OSM   H12F14097   5.833   5.678   5.119  0.9602 -0.5025  0.6081
  131OSM   H12G14098   5.836   5.737   4.947  0.2640 -1.1697 -1.1329
  131OSM   C13F14099   6.025   5.714   5.048 -0.6313 -0.6813  0.0405
  131OSM   H13F14100   6.105   5.675   4.981 -0.6938 -0.1118 -0.3662
  131OSM   H13G14101   6.065   5.685   5.148  1.6279  2.2407  0.1334
  131OSM   C14F14102   6.041   5.860   5.025  0.1106  0.6259  0.1280
  131OSM   H14F14103   5.969   5.916   5.088  0.3769  0.0493  0.9575
  131OSM   H14G14104   6.011   5.881   4.920  1.0648 -0.1656 -0.3250
  131OSM   C15F14105   6.180   5.920   5.051  0.0368 -0.3312  0.2053
  131OSM   H15F14106   6.164   6.030   5.057 -0.0169 -0.4079  1.9263
  131OSM   H15G14107   6.249   5.898   4.966 -0.9439  0.0739 -0.7193
  131OSM   C16F14108   6.244   5.896   5.190  0.2011 -0.3548  0.0554
  131OSM   H16F14109   6.342   5.948   5.182 -0.6095  1.1915 -0.1837
  131OSM   H16G14110   6.261   5.788   5.209  0.9876 -0.3560 -0.5698
  131OSM   C17F14111   6.163   5.951   5.304  0.3225 -0.0779 -0.5407
  131OSM   H17F14112   6.057   5.919   5.305  0.7289 -1.4497  0.5536
  131OSM   H17G14113   6.166   6.062   5.301  1.3128 -0.0161  1.1800
  131OSM   C18F14114   6.228   5.909   5.441  0.3094  0.4209 -0.5646
  131OSM   H18F14115   6.154   5.904   5.524 -0.5218  0.3949 -1.2982
  131OSM   H18G14116   6.305   5.980   5.478  0.5350 -0.1246  0.0350
  131OSM   H18H14117   6.285   5.814   5.431 -1.0726 -0.7368  1.7102
  132OSM      N14118   5.017   4.208   3.198 -0.0572 -0.5036 -0.2956
  132OSM    C1514119   5.046   4.206   3.344 -0.3385  1.0202 -0.5794
  132OSM   H15A14120   5.040   4.105   3.383  0.2148  1.7241  1.4531
  132OSM   H15B14121   4.975   4.272   3.391 -1.7866  0.7570 -2.3100
  132OSM   H15C14122   5.145   4.240   3.370  0.6121 -3.4402  2.8583
  132OSM    C1414123   5.102   4.097   3.139  0.9758  0.3765 -0.5065
  132OSM   H14A14124   5.206   4.125   3.151  0.9310 -0.1788  1.4275
  132OSM   H14B14125   5.087   4.102   3.032 -1.4049  4.0014 -0.1711
  132OSM   H14C14126   5.082   3.998   3.179 -0.2079  0.8341  0.0654
  132OSM    C1314127   4.873   4.188   3.169  0.1135 -0.5764 -0.5107
  132OSM   H13A14128   4.843   4.096   3.217  0.4016  0.0831  1.0241
  132OSM   H13B14129   4.853   4.183   3.063 -1.4722 -1.2796 -0.2119
  132OSM   H13C14130   4.807   4.261   3.215 -0.1448 -0.7133 -0.6606
  132OSM    C1214131   5.059   4.339   3.135 -0.2342 -0.3196  0.5483
  132OSM   H12A14132   5.036   4.339   3.029 -0.2335 -1.1687  0.5446
  132OSM   H12B14133   5.166   4.356   3.138 -0.2748  0.2706 -0.5825
  132OSM    C1114134   5.007   4.476   3.198  0.0118  0.1991  0.7332
  132OSM   H11A14135   5.056   4.562   3.147  0.1252 -0.9988 -1.2678
  132OSM   H11B14136   5.051   4.466   3.299 -0.0803  0.2818  0.7822
  132OSM      P14137   4.797   4.621   3.247 -0.1738  0.1513  0.3258
  132OSM    O1314138   4.862   4.733   3.176  0.3037 -0.2199 -0.9565
  132OSM    O1414139   4.652   4.597   3.220  0.2483  0.4882  0.0214
  132OSM    O1114140   4.830   4.626   3.403 -0.3261  0.0717 -0.0493
  132OSM    O1214141   4.866   4.491   3.202 -0.2884  0.2715  0.5417
  132OSM    C1S14142   4.811   4.510   3.476 -0.4117  0.1018  0.0641
  132OSM    H1S14143   4.876   4.429   3.437 -1.2241 -1.5472  1.9564
  132OSM    H1T14144   4.705   4.479   3.465 -0.4023  0.0251  0.1951
  132OSM     NF14145   4.834   4.384   3.682  0.2904 -0.3866 -0.1703
  132OSM    HNF14146   4.763   4.359   3.747 -0.2559 -0.7739 -0.9178
  132OSM    C2S14147   4.838   4.521   3.633 -0.1168 -0.4905  0.1958
  132OSM    H2S14148   4.941   4.561   3.645  1.1401 -1.2516 -5.3668
  132OSM    C3S14149   4.729   4.608   3.699 -0.5565 -0.6227 -0.1264
  132OSM    H3S14150   4.626   4.575   3.671 -1.1204 -0.6646  1.8577
  132OSM     O314151   4.713   4.744   3.654 -0.0791  0.3524  0.1008
  132OSM    HO314152   4.731   4.729   3.561 -0.6178 -1.1340  0.2045
  132OSM    C4S14153   4.746   4.594   3.855  0.5382  0.4505  0.1044
  132OSM    H4S14154   4.693   4.507   3.897  1.8219  0.6607  2.2952
  132OSM    C5S14155   4.823   4.669   3.939 -0.4198  0.6626 -0.0688
  132OSM    H5S14156   4.907   4.722   3.891  0.1794 -0.2484 -0.0402
  132OSM    C6S14157   4.833   4.647   4.093 -0.1384  0.1595  0.1862
  132OSM    H6S14158   4.870   4.741   4.139  0.1009 -0.6461  1.7048
  132OSM    H6T14159   4.910   4.568   4.104 -1.1515 -0.6678  1.8370
  132OSM    C7S14160   4.715   4.602   4.181 -0.4622  0.3764  0.0202
  132OSM    H7S14161   4.675   4.510   4.134  1.8369  0.4497 -2.3045
  132OSM    H7T14162   4.631   4.673   4.193  0.1900  0.9864  1.3593
  132OSM    C8S14163   4.771   4.567   4.328 -0.9631 -0.5316 -0.0902
  132OSM    H8S14164   4.824   4.660   4.358  0.0387 -1.5797  1.5017
  132OSM    H8T14165   4.850   4.492   4.308  0.2054  0.0185  2.0999
  132OSM    C9S14166   4.664   4.524   4.428  0.1144  0.0650 -0.8339
  132OSM    H9S14167   4.615   4.435   4.383  1.9464 -0.6799 -1.4215
  132OSM    H9T14168   4.602   4.615   4.445  1.3096  0.4685  1.8335
  132OSM   C10S14169   4.727   4.490   4.564 -0.3797 -0.3163  1.1729
  132OSM   H10S14170   4.810   4.562   4.582 -0.6624  0.5368 -0.6739
  132OSM   H10T14171   4.774   4.389   4.560  0.2293 -0.0118 -0.5967
  132OSM   C11S14172   4.634   4.510   4.680 -0.1588 -0.3284  0.0572
  132OSM   H11S14173   4.558   4.429   4.680 -1.4671  0.8439  0.0668
  132OSM   H11T14174   4.569   4.600   4.668  1.0301  0.5362 -0.1339
  132OSM   C12S14175   4.705   4.524   4.813 -0.5871  0.5426  0.2527
  132OSM   H12S14176   4.644   4.542   4.904  2.1997 -0.9517  2.6001
  132OSM   H12T14177   4.771   4.613   4.808 -1.3906  1.0852 -1.4396
  132OSM   C13S14178   4.802   4.409   4.846 -0.3055 -0.0223 -0.5849
  132OSM   H13S14179   4.883   4.390   4.773 -1.2137  0.5780 -1.7801
  132OSM   H13T14180   4.750   4.311   4.842  0.8963 -0.7956  1.3585
  132OSM   C14S14181   4.864   4.427   4.990  0.3191  0.4126  0.0308
  132OSM   H14S14182   4.897   4.530   5.015  1.7551 -0.1556  0.5965
  132OSM   H14T14183   4.951   4.358   4.998  0.8732  1.1397  0.4118
  132OSM   C15S14184   4.760   4.366   5.092  0.2514 -0.5966  0.7084
  132OSM   H15S14185   4.752   4.257   5.073 -0.3661 -0.6606  1.2830
  132OSM   H15T14186   4.662   4.415   5.075  2.0729  2.9029 -0.7071
  132OSM   C16S14187   4.815   4.406   5.229  0.9747  0.2022 -0.4385
  132OSM   H16S14188   4.806   4.516   5.228 -0.9427  0.0868 -1.6396
  132OSM   H16T14189   4.922   4.380   5.236  0.9043  0.1723  0.7391
  132OSM   C17S14190   4.729   4.340   5.340 -0.8048  0.9381  0.1960
  132OSM   H17S14191   4.775   4.383   5.432 -0.9438  4.6836 -1.2778
  132OSM   H17T14192   4.747   4.231   5.330 -2.2154  0.9219 -4.9677
  132OSM   C18S14193   4.577   4.364   5.333  0.4984 -0.2140 -0.0245
  132OSM   H18S14194   4.524   4.344   5.429  0.6036  3.5930  1.0140
  132OSM   H18T14195   4.530   4.308   5.249  1.8321  0.8807 -1.5457
  132OSM   H18U14196   4.559   4.470   5.306 -0.1842 -0.1467  0.6472
  132OSM    C1F14197   4.939   4.311   3.659  0.2006 -0.1653 -0.3451
  132OSM     OF14198   5.039   4.358   3.612 -0.2719  0.5437 -0.9333
  132OSM    C2F14199   4.929   4.166   3.697  0.6410  0.2759  1.0875
  132OSM    H2F14200   4.923   4.099   3.608  0.9423  1.7061 -0.0618
  132OSM    H2G14201   4.833   4.160   3.752 -0.3066 -0.2616 -0.5607
  132OSM    C3F14202   5.053   4.127   3.781  0.0991  0.6300 -0.5870
  132OSM    H3F14203   5.144   4.133   3.718  0.5330 -3.3151 -0.5789
  132OSM    H3G14204   5.058   4.022   3.817  1.4413  1.0305  0.5255
  132OSM    C4F14205   5.068   4.197   3.924  0.4964  0.0632 -0.0196
  132OSM    H4F14206   5.052   4.306   3.910 -1.4523 -0.1094  0.5712
  132OSM    H4G14207   5.172   4.182   3.960  0.1493 -0.5470  0.7479
  132OSM    C5F14208   4.956   4.155   4.027 -0.1256  0.1335  0.7714
  132OSM    H5F14209   4.965   4.044   4.026  1.2783  0.2358 -0.0404
  132OSM    H5G14210   4.852   4.188   4.006  1.1603  2.7622 -2.2119
  132OSM    C6F14211   4.981   4.203   4.177  0.0030  0.8684  0.0789
  132OSM    H6F14212   4.963   4.313   4.180 -0.0588  0.9481 -1.7698
  132OSM    H6G14213   5.090   4.187   4.189 -0.2026  0.5119  1.5520
  132OSM    C7F14214   4.905   4.114   4.277 -0.1874 -0.5298  0.1727
  132OSM    H7F14215   4.938   4.010   4.256 -0.9384 -1.1458  1.8266
  132OSM    H7G14216   4.798   4.130   4.252  0.9507  3.3496 -3.2294
  132OSM    C8F14217   4.938   4.157   4.419  0.2500  0.3134  0.2985
  132OSM    H8F14218   4.942   4.268   4.431 -0.9435  0.7272 -2.3319
  132OSM    H8G14219   5.040   4.122   4.445  1.1686  1.4450 -1.5250
  132OSM    C9F14220   4.840   4.093   4.521  0.0149 -0.7384  0.7978
  132OSM    H9F14221   4.743   4.075   4.472  1.2043 -0.7760 -1.7608
  132OSM   C10F14222   4.853   4.059   4.653  0.3218  0.1059 -0.9397
  132OSM   H10F14223   4.776   4.000   4.705  1.2992  1.6949  2.6715
  132OSM   C11F14224   4.978   4.070   4.738  0.0203 -0.7458  0.2530
  132OSM   H11F14225   4.992   4.175   4.771  0.7335 -2.0330  4.7883
  132OSM   H11G14226   5.068   4.051   4.676  0.9273  0.5372  1.1334
  132OSM   C12F14227   4.976   3.985   4.866 -0.0284 -1.0366  0.1056
  132OSM   H12F14228   4.903   4.032   4.935  0.1872  0.6856 -0.7827
  132OSM   H12G14229   5.072   4.001   4.919  0.7433  1.1712 -1.7789
  132OSM   C13F14230   4.944   3.837   4.859  0.6133 -0.3890 -0.4153
  132OSM   H13F14231   4.997   3.790   4.773  0.2473  1.1136 -1.5050
  132OSM   H13G14232   4.838   3.821   4.830  0.6369  0.6580 -1.1473
  132OSM   C14F14233   4.980   3.769   4.995 -1.1325  0.6187  0.6740
  132OSM   H14F14234   5.079   3.804   5.032 -0.6184 -0.5052  0.4004
  132OSM   H14G14235   4.995   3.659   4.991  0.8223  0.8811 -0.3293
  132OSM   C15F14236   4.879   3.811   5.108  0.0599  0.3189 -0.2331
  132OSM   H15F14237   4.885   3.919   5.131  1.4340  0.0055  1.0446
  132OSM   H15G14238   4.907   3.759   5.202  1.0568  1.3040  0.0294
  132OSM   C16F14239   4.743   3.757   5.088  0.7866 -0.3141 -0.4870
  132OSM   H16F14240   4.738   3.646   5.084  1.2227 -0.3189 -4.3500
  132OSM   H16G14241   4.694   3.788   4.993  0.8249  2.3654  0.3016
  132OSM   C17F14242   4.645   3.817   5.196  0.3377 -0.6911 -0.3291
  132OSM   H17F14243   4.667   3.926   5.196  0.2328 -0.6696 -0.5634
  132OSM   H17G14244   4.685   3.775   5.291 -0.7383  0.3850  0.6472
  132OSM   C18F14245   4.499   3.786   5.185 -0.4917 -0.4649 -0.2346
  132OSM   H18F14246   4.451   3.841   5.269 -1.0456 -1.8796  0.3999
  132OSM   H18G14247   4.480   3.679   5.205  0.4253 -0.1875  2.4483
  132OSM   H18H14248   4.456   3.807   5.084 -2.0598  0.8253  0.6445
  133OSM      N14249   3.811   6.564   3.394  0.8423  0.5995 -0.9036
  133OSM    C1514250   3.731   6.673   3.336 -0.0709 -0.2916  0.3345
  133OSM   H15A14251   3.667   6.641   3.255  0.3842 -0.7754  0.1564
  133OSM   H15B14252   3.788   6.755   3.296  1.9751 -2.3702 -1.2916
  133OSM   H15C14253   3.655   6.714   3.401  0.1984  1.3845 -0.3718
  133OSM    C1414254   3.907   6.505   3.294  1.1914  0.0947 -0.4755
  133OSM   H14A14255   3.960   6.588   3.251  2.2100  0.1557  0.8296
  133OSM   H14B14256   3.849   6.457   3.217 -2.3850  0.8882  1.4643
  133OSM   H14C14257   3.974   6.435   3.343 -1.1631 -2.5889 -0.7969
  133OSM    C1314258   3.909   6.635   3.493  0.7159 -0.5586  0.3521
  133OSM   H13A14259   3.863   6.683   3.578 -1.6192 -2.3118  0.1731
  133OSM   H13B14260   3.965   6.704   3.432  1.2344 -1.1110  0.1863
  133OSM   H13C14261   3.974   6.554   3.524 -1.7301 -1.2136  4.6422
  133OSM    C1214262   3.716   6.465   3.452  0.1500  0.2862 -0.0206
  133OSM   H12A14263   3.778   6.383   3.485  0.1987 -0.1977 -1.2391
  133OSM   H12B14264   3.662   6.424   3.368  1.5098 -0.7379 -0.4325
  133OSM    C1114265   3.613   6.496   3.563 -0.2334  0.2237  0.3332
  133OSM   H11A14266   3.671   6.528   3.651  1.0366 -1.6897  0.2604
  133OSM   H11B14267   3.565   6.402   3.599 -0.7120  0.8643  1.3825
  133OSM      P14268   3.414   6.558   3.405 -0.0229 -0.0655 -0.2160
  133OSM    O1314269   3.384   6.671   3.312  0.0705  0.4467 -0.6726
  133OSM    O1414270   3.455   6.435   3.342 -0.8135  0.1554 -0.2619
  133OSM    O1114271   3.284   6.525   3.486 -0.2636  0.2660 -0.4662
  133OSM    O1214272   3.520   6.593   3.514 -0.3816  0.5926 -0.4031
  133OSM    C1S14273   3.292   6.509   3.625  0.2277  0.2492  0.8057
  133OSM    H1S14274   3.323   6.605   3.672 -2.4491  2.0843 -0.8566
  133OSM    H1T14275   3.356   6.426   3.659  0.0276  0.2355  1.1561
  133OSM     NF14276   3.154   6.496   3.822  0.0276 -0.6396 -0.0081
  133OSM    HNF14277   3.131   6.421   3.884  1.6179 -1.6631 -0.6306
  133OSM    C2S14278   3.151   6.476   3.681  0.1771  0.9062  0.3666
  133OSM    H2S14279   3.070   6.538   3.635  0.1381  0.2180 -0.5225
  133OSM    C3S14280   3.108   6.331   3.641 -0.2033  0.3509  0.5564
  133OSM    H3S14281   3.184   6.265   3.687 -0.4347  1.4873  2.6913
  133OSM     O314282   3.138   6.303   3.507 -0.3640 -0.1549  0.3411
  133OSM    HO314283   3.184   6.382   3.482  2.9412 -1.4124  1.8763
  133OSM    C4S14284   2.968   6.287   3.677  0.0200 -0.1505 -0.0439
  133OSM    H4S14285   2.968   6.234   3.773 -2.0840  0.2506  0.2314
  133OSM    C5S14286   2.851   6.306   3.603 -0.4099 -1.1632 -0.1128
  133OSM    H5S14287   2.854   6.360   3.507 -0.5928  0.4252  0.7447
  133OSM    C6S14288   2.712   6.271   3.644  0.0639  0.6264  0.1422
  133OSM    H6S14289   2.683   6.193   3.571  2.2116  0.5856 -0.7488
  133OSM    H6T14290   2.643   6.358   3.637 -0.5876  0.1918  0.9672
  133OSM    C7S14291   2.686   6.212   3.782 -0.1609  0.1081  0.0788
  133OSM    H7S14292   2.722   6.276   3.866 -2.7956  0.3124  1.1545
  133OSM    H7T14293   2.739   6.115   3.779  0.5176  0.4760  0.0355
  133OSM    C8S14294   2.536   6.176   3.802  0.4646 -0.3013  0.4880
  133OSM    H8S14295   2.503   6.117   3.714  3.0377 -0.7296 -0.2497
  133OSM    H8T14296   2.474   6.268   3.813 -0.9818 -1.1174 -0.4707
  133OSM    C9S14297   2.510   6.085   3.925  0.5943  0.4081  0.2072
  133OSM    H9S14298   2.564   6.134   4.009 -0.7350 -0.7167  1.7702
  133OSM    H9T14299   2.550   5.982   3.915 -0.5891 -0.0418 -0.0740
  133OSM   C10S14300   2.373   6.089   3.982  0.0962  0.0443  0.4932
  133OSM   H10S14301   2.303   6.063   3.900 -0.0847  1.0871  0.2932
  133OSM   H10T14302   2.352   6.192   4.018 -0.3903 -0.1937  0.8915
  133OSM   C11S14303   2.346   5.999   4.104 -0.3368 -0.7397 -0.1162
  133OSM   H11S14304   2.358   5.895   4.067 -1.9241 -0.3720 -1.7810
  133OSM   H11T14305   2.241   6.017   4.133  0.0477 -0.7399  1.3747
  133OSM   C12S14306   2.446   6.007   4.211  0.5258  0.3955  0.6899
  133OSM   H12S14307   2.468   6.112   4.238 -1.3335  0.8351  0.5849
  133OSM   H12T14308   2.541   5.965   4.170  0.8918  2.0106 -0.2164
  133OSM   C13S14309   2.411   5.938   4.346  0.0966 -0.0890  0.2661
  133OSM   H13S14310   2.500   5.906   4.406  1.1216  3.9129  1.1649
  133OSM   H13T14311   2.347   5.851   4.322  0.8850 -0.5552 -0.2148
  133OSM   C14S14312   2.330   6.043   4.429 -0.4611  0.0548  0.0684
  133OSM   H14S14313   2.231   6.065   4.383 -0.0795  0.8250 -0.4039
  133OSM   H14T14314   2.391   6.136   4.429  0.0252 -0.2485  1.0761
  133OSM   C15S14315   2.308   6.010   4.583 -0.2254 -0.4490 -0.3414
  133OSM   H15S14316   2.386   5.948   4.631  1.2225  1.3298 -0.3136
  133OSM   H15T14317   2.211   5.958   4.601 -0.3200 -0.7200 -1.5412
  133OSM   C16S14318   2.306   6.131   4.677 -0.0096 -0.1485  0.7162
  133OSM   H16S14319   2.406   6.181   4.678 -0.0186 -0.0458 -0.9285
  133OSM   H16T14320   2.288   6.089   4.778 -1.2405 -0.5945  0.3250
  133OSM   C17S14321   2.204   6.236   4.633  0.2323 -0.6827 -0.4309
  133OSM   H17S14322   2.105   6.202   4.597  0.6571 -0.1393 -2.2332
  133OSM   H17T14323   2.233   6.281   4.535  1.3045 -2.8249 -1.1521
  133OSM   C18S14324   2.192   6.344   4.736  0.5992 -0.7254 -0.1763
  133OSM   H18S14325   2.140   6.437   4.704 -1.2893  0.6171  5.5307
  133OSM   H18T14326   2.293   6.383   4.759 -0.0870  0.8614  0.2973
  133OSM   H18U14327   2.160   6.311   4.837  1.6948  0.1277  0.4604
  133OSM    C1F14328   3.141   6.623   3.862 -0.5980 -0.0810 -0.4390
  133OSM     OF14329   3.143   6.714   3.779 -0.3312  0.5237 -0.1041
  133OSM    C2F14330   3.108   6.653   4.009  0.3037 -0.3440  0.6008
  133OSM    H2F14331   3.139   6.753   4.046  1.0404  0.5000 -2.1016
  133OSM    H2G14332   3.155   6.582   4.081  1.7537  0.6212  0.6461
  133OSM    C3F14333   2.956   6.650   4.031  0.1735  0.4264 -0.4284
  133OSM    H3F14334   2.927   6.551   3.989  0.9646  0.2689 -0.6258
  133OSM    H3G14335   2.897   6.723   3.972  3.6355  2.0769 -2.1689
  133OSM    C4F14336   2.918   6.655   4.178  0.5185 -0.3600 -0.0341
  133OSM    H4F14337   2.943   6.758   4.209 -0.7689  0.1029 -0.4791
  133OSM    H4G14338   2.987   6.585   4.231  2.1892  0.9337 -0.4253
  133OSM    C5F14339   2.765   6.633   4.186  0.0494  0.0207 -0.1585
  133OSM    H5F14340   2.726   6.546   4.130  1.7045 -0.8982  0.0882
  133OSM    H5G14341   2.716   6.715   4.129 -0.7743 -0.9807 -0.9226
  133OSM    C6F14342   2.719   6.627   4.333 -0.2046 -0.2493 -0.2744
  133OSM    H6F14343   2.610   6.615   4.344 -0.0873 -0.4294  0.8344
  133OSM    H6G14344   2.733   6.725   4.384 -0.2886 -0.3646 -0.0273
  133OSM    C7F14345   2.794   6.519   4.408  0.1405 -0.2882  0.0429
  133OSM    H7F14346   2.903   6.540   4.421  0.5462 -2.2550  0.1799
  133OSM    H7G14347   2.776   6.439   4.333 -1.1942  0.1213 -0.0957
  133OSM    C8F14348   2.743   6.479   4.551  0.4582  0.0240 -0.0444
  133OSM    H8F14349   2.790   6.542   4.630 -1.2658 -0.5176  1.4851
  133OSM    H8G14350   2.794   6.382   4.570 -1.1573 -0.7336  0.6320
  133OSM    C9F14351   2.589   6.476   4.560  0.1791  0.0912 -0.2765
  133OSM    H9F14352   2.542   6.434   4.470 -0.7949 -0.0653  0.2941
  133OSM   C10F14353   2.514   6.524   4.662 -0.2630  0.2587  0.0792
  133OSM   H10F14354   2.406   6.510   4.649 -0.7613 -1.0943  4.2284
  133OSM   C11F14355   2.551   6.589   4.790  0.0065  0.3715 -0.4263
  133OSM   H11F14356   2.503   6.689   4.799 -1.2218 -0.3648  2.3650
  133OSM   H11G14357   2.658   6.617   4.798 -0.2155  1.2286 -0.3471
  133OSM   C12F14358   2.506   6.498   4.914 -0.3886  0.4176  0.8151
  133OSM   H12F14359   2.395   6.508   4.910 -0.3364  0.9678 -2.9288
  133OSM   H12G14360   2.538   6.546   5.009 -0.0832  0.3399  0.7520
  133OSM   C13F14361   2.565   6.354   4.910 -0.2495 -0.3402 -0.6236
  133OSM   H13F14362   2.676   6.352   4.909 -0.2115 -0.9702  0.9662
  133OSM   H13G14363   2.521   6.312   4.818 -2.6959  1.6006 -0.4571
  133OSM   C14F14364   2.518   6.284   5.033 -0.4942  0.6217  0.3356
  133OSM   H14F14365   2.457   6.351   5.097 -0.9751 -0.0664  0.6026
  133OSM   H14G14366   2.611   6.263   5.089  1.9266  0.0298 -3.5455
  133OSM   C15F14367   2.411   6.172   5.005 -0.5681  0.0749 -0.4782
  133OSM   H15F14368   2.456   6.109   4.925  0.3064  0.7081 -0.5010
  133OSM   H15G14369   2.320   6.220   4.963  0.7010  0.2352 -3.3426
  133OSM   C16F14370   2.388   6.080   5.124 -0.1009  1.2869 -0.0209
  133OSM   H16F14371   2.324   6.121   5.206 -0.9562 -1.3849  0.7504
  133OSM   H16G14372   2.477   6.049   5.184 -0.9539 -0.4890  0.3860
  133OSM   C17F14373   2.311   5.963   5.061  0.0382 -0.2743  0.1773
  133OSM   H17F14374   2.353   5.939   4.961 -1.0572  1.7809 -0.8365
  133OSM   H17G14375   2.207   6.002   5.053  0.7045  1.9698  1.6567
  133OSM   C18F14376   2.315   5.837   5.150  0.3555  0.0986  0.0416
  133OSM   H18F14377   2.423   5.809   5.140  0.7701  2.1588 -2.2006
  133OSM   H18G14378   2.248   5.752   5.125 -0.3928  0.9858 -1.0173
  133OSM   H18H14379   2.279   5.858   5.253  0.7843  1.7377 -0.1124
  134OSM      N14380   1.329   1.446   3.000 -0.1354 -0.6285 -0.2382
  134OSM    C1514381   1.303   1.469   3.147  0.0824  0.2286 -0.1084
  134OSM   H15A14382   1.390   1.516   3.191 -0.6775  0.1797  1.5384
  134OSM   H15B14383   1.280   1.376   3.197 -0.7215  0.1111 -0.6752
  134OSM   H15C14384   1.219   1.536   3.157 -2.3915 -1.9454 -3.9651
  134OSM    C1414385   1.232   1.352   2.937  0.2323  0.6465 -0.3506
  134OSM   H14A14386   1.247   1.252   2.974  1.5573  0.9677  0.0460
  134OSM   H14B14387   1.252   1.341   2.831 -1.0469 -1.8262 -0.4007
  134OSM   H14C14388   1.128   1.377   2.950  0.6773  1.2522  3.1187
  134OSM    C1314389   1.322   1.571   2.923 -0.9175 -0.3758 -0.0202
  134OSM   H13A14390   1.341   1.568   2.817 -0.5720 -0.7416  0.0527
  134OSM   H13B14391   1.376   1.650   2.973  0.6942 -1.3669 -0.1275
  134OSM   H13C14392   1.223   1.615   2.927  0.9216  4.4141 -0.6070
  134OSM    C1214393   1.465   1.387   2.985 -0.7928 -0.2575  0.2999
  134OSM   H12A14394   1.478   1.347   2.885  2.5851 -0.8251  0.8575
  134OSM   H12B14395   1.464   1.299   3.048  0.2538 -0.2795  0.3042
  134OSM    C1114396   1.594   1.467   3.004  0.1251  0.3886 -0.6779
  134OSM   H11A14397   1.592   1.549   2.929 -0.1161  1.0949  0.0961
  134OSM   H11B14398   1.689   1.413   2.984  1.6318  2.3917  0.7429
  134OSM      P14399   1.679   1.453   3.239  0.1334  0.2067  0.1361
  134OSM    O1314400   1.633   1.313   3.249  0.2172  0.7698 -0.3507
  134OSM    O1414401   1.820   1.479   3.211 -0.5754 -0.4097  0.3146
  134OSM    O1114402   1.651   1.523   3.370 -0.0972  0.1403 -0.3040
  134OSM    O1214403   1.594   1.531   3.132  0.5290 -0.0227  0.3403
  134OSM    C1S14404   1.522   1.513   3.441 -0.5066  0.2633 -0.7555
  134OSM    H1S14405   1.466   1.418   3.424  0.7702 -0.9766  1.4526
  134OSM    H1T14406   1.459   1.598   3.410 -1.0076  0.6165  1.0658
  134OSM     NF14407   1.398   1.490   3.658 -0.1123 -0.2432  0.5782
  134OSM    HNF14408   1.335   1.563   3.684  1.3399  0.2798  2.9847
  134OSM    C2S14409   1.528   1.532   3.598 -0.8256  0.0790 -0.0929
  134OSM    H2S14410   1.596   1.457   3.645 -1.7018  0.1668  1.3886
  134OSM    C3S14411   1.570   1.678   3.626 -0.2014  0.3439  0.5117
  134OSM    H3S14412   1.489   1.749   3.599 -0.4403  0.5234  1.6621
  134OSM     O314413   1.677   1.720   3.547  0.3150 -0.5594  0.1265
  134OSM    HO314414   1.697   1.653   3.481 -1.4803 -1.0346  0.0265
  134OSM    C4S14415   1.609   1.692   3.771 -0.1279 -0.2772  0.8205
  134OSM    H4S14416   1.523   1.722   3.833 -0.6628  1.3774 -0.6361
  134OSM    C5S14417   1.729   1.659   3.824 -0.4693 -0.8490 -0.0360
  134OSM    H5S14418   1.821   1.634   3.769  0.0143  0.1922  0.2664
  134OSM    C6S14419   1.740   1.657   3.975 -0.3716 -0.4201  0.1934
  134OSM    H6S14420   1.772   1.562   4.022 -0.8362 -0.7168 -0.0824
  134OSM    H6T14421   1.641   1.671   4.024 -0.4859 -1.4538  0.2617
  134OSM    C7S14422   1.834   1.767   4.023 -0.5472  0.7106 -0.5805
  134OSM    H7S14423   1.798   1.867   3.994 -2.7614 -0.4112 -1.9674
  134OSM    H7T14424   1.933   1.748   3.976  0.1956  0.2563  1.0483
  134OSM    C8S14425   1.841   1.759   4.174 -0.1899 -0.5337  0.2583
  134OSM    H8S14426   1.904   1.672   4.203  0.0960 -0.9041 -1.3844
  134OSM    H8T14427   1.740   1.737   4.214 -0.3649 -3.8197 -1.6555
  134OSM    C9S14428   1.916   1.877   4.239  0.0440  0.4679  0.1602
  134OSM    H9S14429   1.862   1.972   4.219  0.9339  0.7962 -0.7763
  134OSM    H9T14430   2.016   1.892   4.194  0.8661  0.6337  1.9423
  134OSM   C10S14431   1.928   1.860   4.390 -0.2607 -0.5697 -0.4088
  134OSM   H10S14432   1.989   1.772   4.421  1.4919  0.5127 -0.6433
  134OSM   H10T14433   1.826   1.848   4.431  0.3114 -0.2453  1.1631
  134OSM   C11S14434   1.988   1.974   4.470 -0.7055 -1.0591 -0.0454
  134OSM   H11S14435   1.922   2.063   4.459  0.3032 -0.4015 -1.0697
  134OSM   H11T14436   2.083   1.998   4.418 -1.1735 -0.8090 -0.8097
  134OSM   C12S14437   2.026   1.949   4.617  0.0159 -0.2732  0.0684
  134OSM   H12S14438   2.052   1.842   4.630 -1.6791 -0.6358  0.7237
  134OSM   H12T14439   1.936   1.982   4.672  1.4817  1.6254  1.4465
  134OSM   C13S14440   2.147   2.037   4.663  0.0015  0.2429 -0.2884
  134OSM   H13S14441   2.140   2.083   4.764  0.8101  1.3939 -0.7288
  134OSM   H13T14442   2.174   2.126   4.602  1.4046 -0.0741 -0.1603
  134OSM   C14S14443   2.288   1.957   4.653 -1.1826 -0.0523  0.4676
  134OSM   H14S14444   2.293   1.930   4.545 -0.2487  0.2300  0.4347
  134OSM   H14T14445   2.289   1.861   4.708 -1.7600 -0.9428 -1.0173
  134OSM   C15S14446   2.404   2.045   4.697  0.2498 -0.4593 -0.6134
  134OSM   H15S14447   2.402   2.067   4.806  0.1130  0.9269 -0.8676
  134OSM   H15T14448   2.391   2.139   4.638  2.8449 -0.9991 -2.1603
  134OSM   C16S14449   2.540   1.984   4.671 -0.4774  0.0330  0.5010
  134OSM   H16S14450   2.617   2.057   4.703 -1.4934  1.0579  0.6836
  134OSM   H16T14451   2.557   1.960   4.563  2.7745  2.4523  0.3298
  134OSM   C17S14452   2.580   1.859   4.763  0.4040  0.6616  0.4338
  134OSM   H17S14453   2.632   1.803   4.683 -0.1552  2.2199 -1.0765
  134OSM   H17T14454   2.492   1.797   4.793  2.2747  0.2551  6.4593
  134OSM   C18S14455   2.669   1.884   4.885  0.0853 -0.3965 -0.0380
  134OSM   H18S14456   2.761   1.938   4.854  1.5614 -2.2342  0.9188
  134OSM   H18T14457   2.695   1.778   4.907 -0.5635 -1.1943 -2.7392
  134OSM   H18U14458   2.616   1.932   4.970 -2.0050 -1.2997 -0.7439
  134OSM    C1F14459   1.345   1.371   3.648 -0.4304 -0.4621 -0.0397
  134OSM     OF14460   1.418   1.274   3.638  0.0559  0.0783 -0.1563
  134OSM    C2F14461   1.200   1.351   3.652  0.7629 -0.1087 -0.1081
  134OSM    H2F14462   1.160   1.310   3.557 -0.3751 -0.5095  0.5200
  134OSM    H2G14463   1.157   1.453   3.656  1.2055  0.1163 -0.8953
  134OSM    C3F14464   1.143   1.269   3.774  0.1487  0.5749 -0.2472
  134OSM    H3F14465   1.199   1.173   3.773  0.0825  0.4221  2.3465
  134OSM    H3G14466   1.033   1.252   3.768 -0.0957  2.2633 -1.3906
  134OSM    C4F14467   1.175   1.338   3.910  0.1270 -0.0992 -0.0488
  134OSM    H4F14468   1.086   1.402   3.929 -0.7517 -1.5457  0.9755
  134OSM    H4G14469   1.264   1.404   3.910 -0.5631  0.8986 -1.8402
  134OSM    C5F14470   1.180   1.236   4.023 -0.6680  0.0120  0.0925
  134OSM    H5F14471   1.244   1.149   3.999  0.9721  1.1926 -0.0170
  134OSM    H5G14472   1.083   1.183   4.029 -1.8331  1.5536 -3.1554
  134OSM    C6F14473   1.201   1.297   4.164 -0.3291  0.4414  0.0658
  134OSM    H6F14474   1.121   1.370   4.188 -1.2625  0.0265 -1.5911
  134OSM    H6G14475   1.297   1.351   4.156  0.7999 -1.6374 -1.6893
  134OSM    C7F14476   1.216   1.198   4.280  0.0406  0.1458  0.2521
  134OSM    H7F14477   1.321   1.162   4.286  0.4772  1.5157  1.3754
  134OSM    H7G14478   1.148   1.115   4.254 -0.6576  0.1401  2.0038
  134OSM    C8F14479   1.176   1.245   4.416 -1.4361 -0.2682 -0.1519
  134OSM    H8F14480   1.192   1.167   4.493 -0.2894  1.4820  1.4496
  134OSM    H8G14481   1.067   1.264   4.405 -1.2713  0.3316 -0.8511
  134OSM    C9F14482   1.259   1.361   4.457 -0.2221 -0.1938  0.1837
  134OSM    H9F14483   1.345   1.376   4.390 -1.4976  2.3701 -1.0270
  134OSM   C10F14484   1.218   1.459   4.540  0.1099 -0.9638  0.1578
  134OSM   H10F14485   1.283   1.547   4.554 -0.9573  0.1280 -1.3493
  134OSM   C11F14486   1.088   1.449   4.617  0.2394 -1.1524  0.4050
  134OSM   H11F14487   1.013   1.375   4.581  0.0990 -1.1881  0.7643
  134OSM   H11G14488   1.045   1.552   4.613  1.6669 -0.5173  0.8470
  134OSM   C12F14489   1.116   1.429   4.762  0.7171 -0.0470 -0.6660
  134OSM   H12F14490   1.184   1.508   4.801 -0.4233 -0.6819  2.9974
  134OSM   H12G14491   1.170   1.340   4.799  0.3684  1.4809  4.2142
  134OSM   C13F14492   0.992   1.437   4.848 -0.1192  0.2151 -0.7694
  134OSM   H13F14493   0.941   1.340   4.830 -0.3357  0.3414 -0.8479
  134OSM   H13G14494   0.919   1.513   4.812 -1.0896 -0.2351  0.1630
  134OSM   C14F14495   1.025   1.443   5.001 -0.2229  0.7369 -0.0799
  134OSM   H14F14496   1.108   1.373   5.022 -0.2889 -0.4003 -3.1519
  134OSM   H14G14497   0.939   1.417   5.067 -0.7234  1.0532 -0.5932
  134OSM   C15F14498   1.072   1.586   5.039  0.0525  0.3925  0.0570
  134OSM   H15F14499   0.992   1.657   5.008 -0.1684 -0.0928 -0.5127
  134OSM   H15G14500   1.164   1.614   4.985  0.1446  2.9763  1.4073
  134OSM   C16F14501   1.088   1.600   5.192  0.3469  0.3061 -0.2258
  134OSM   H16F14502   1.004   1.542   5.236 -0.7084  1.8188 -0.1831
  134OSM   H16G14503   1.060   1.704   5.217  1.8082  0.9541 -1.1400
  134OSM   C17F14504   1.223   1.550   5.247  1.2376  0.1548  0.5905
  134OSM   H17F14505   1.301   1.576   5.173  1.0811 -4.2473 -1.4976
  134OSM   H17G14506   1.223   1.438   5.248  0.2920  0.0563  3.9589
  134OSM   C18F14507   1.248   1.597   5.392  0.2613 -0.4762 -0.0205
  134OSM   H18F14508   1.268   1.507   5.454  1.6679 -1.8760 -2.3425
  134OSM   H18G14509   1.156   1.652   5.418 -0.0889 -1.2697  0.4550
  134OSM   H18H14510   1.336   1.665   5.400  1.7204 -2.3911  1.3147
  135OSM      N14511   4.722   0.403   2.702  0.6075  0.5160  0.2281
  135OSM    C1514512   4.674   0.264   2.672 -0.4115 -0.1559 -0.0696
  135OSM   H15A14513   4.747   0.199   2.625 -2.1319 -0.5171 -2.4144
  135OSM   H15B14514   4.590   0.256   2.606 -0.4345 -2.2509  0.1280
  135OSM   H15C14515   4.649   0.214   2.765  1.4269 -0.4852  0.2916
  135OSM    C1414516   4.802   0.459   2.585 -0.6526  0.0982 -0.0406
  135OSM   H14A14517   4.731   0.469   2.504 -0.7628  0.0845  0.0539
  135OSM   H14B14518   4.877   0.390   2.551 -0.4993 -0.4346  1.3294
  135OSM   H14C14519   4.835   0.560   2.601 -0.1988 -0.2666  1.4787
  135OSM    C1314520   4.604   0.490   2.732 -0.5987 -0.4380  0.6205
  135OSM   H13A14521   4.549   0.452   2.816  0.2706  1.5203  2.1432
  135OSM   H13B14522   4.540   0.493   2.645 -0.3615  0.8681  0.4674
  135OSM   H13C14523   4.646   0.582   2.768  0.6921 -0.8437  0.2034
  135OSM    C1214524   4.811   0.404   2.830 -0.0568  0.4545  0.2143
  135OSM   H12A14525   4.854   0.503   2.833 -0.1623  0.5615 -1.3232
  135OSM   H12B14526   4.892   0.333   2.822 -0.8453 -0.6856  1.7347
  135OSM    C1114527   4.755   0.357   2.965  0.0940 -0.4143  0.0650
  135OSM   H11A14528   4.677   0.431   2.995  1.0995  0.8762 -0.4242
  135OSM   H11B14529   4.840   0.370   3.035 -0.7105  2.1421  0.6995
  135OSM      P14530   4.789   0.096   2.999 -0.3324 -0.0369 -0.6923
  135OSM    O1314531   4.694  -0.015   3.013 -0.4798 -0.1119  0.4151
  135OSM    O1414532   4.911   0.083   2.914 -0.1583 -0.3839  0.0613
  135OSM    O1114533   4.840   0.137   3.142  0.5816  0.5619  0.1915
  135OSM    O1214534   4.702   0.219   2.957  0.0154 -0.2829 -0.0240
  135OSM    C1S14535   4.738   0.182   3.231  0.7451  0.2232 -0.0235
  135OSM    H1S14536   4.669   0.106   3.272  0.0478  1.4839  1.2368
  135OSM    H1T14537   4.675   0.267   3.197 -1.0000 -1.3403 -0.8835
  135OSM     NF14538   4.726   0.243   3.477 -0.5515  0.0607 -0.3436
  135OSM    HNF14539   4.698   0.335   3.506 -0.4484 -0.0766  0.2052
  135OSM    C2S14540   4.811   0.236   3.365  0.4041 -0.0810  0.4529
  135OSM    H2S14541   4.887   0.158   3.389  0.9914 -0.2921 -1.8213
  135OSM    C3S14542   4.897   0.366   3.335  0.3306 -0.3182  0.1951
  135OSM    H3S14543   4.836   0.445   3.287  0.8211 -0.2565 -0.3444
  135OSM     O314544   5.002   0.343   3.240 -0.2722  0.0436  0.1925
  135OSM    HO314545   4.972   0.265   3.193  2.0687 -1.2830  0.7199
  135OSM    C4S14546   4.950   0.412   3.467 -0.3513 -0.0235 -0.5312
  135OSM    H4S14547   5.017   0.343   3.519 -0.3535  1.4018  1.5161
  135OSM    C5S14548   4.923   0.531   3.513 -0.4092 -0.0608 -0.4797
  135OSM    H5S14549   4.860   0.594   3.448 -0.8137  1.4539  1.2981
  135OSM    C6S14550   4.984   0.595   3.632 -0.4529  0.0797 -0.2524
  135OSM    H6S14551   4.938   0.695   3.632  0.7875  0.6743 -1.0012
  135OSM    H6T14552   5.093   0.602   3.613 -0.2957 -2.2528 -0.5593
  135OSM    C7S14553   4.949   0.521   3.768 -0.5136  0.7668  1.1842
  135OSM    H7S14554   4.965   0.411   3.764  0.0176  0.8637 -0.4330
  135OSM    H7T14555   4.838   0.528   3.767 -0.6309  0.0324  3.5015
  135OSM    C8S14556   5.020   0.579   3.892  0.0572  0.3372  0.1373
  135OSM    H8S14557   4.997   0.688   3.900  1.2052  0.7279 -1.4318
  135OSM    H8T14558   5.129   0.558   3.880 -0.4517 -1.5610 -1.8661
  135OSM    C9S14559   4.964   0.517   4.020  0.1628 -0.7247  0.2804
  135OSM    H9S14560   5.039   0.519   4.101 -0.2837  1.8888  0.7253
  135OSM    H9T14561   4.924   0.415   3.998 -0.0040 -0.2799 -1.6773
  135OSM   C10S14562   4.850   0.598   4.080  0.2513 -1.0744 -0.5192
  135OSM   H10S14563   4.769   0.595   4.004  0.8396  0.2974 -1.2568
  135OSM   H10T14564   4.869   0.708   4.086 -2.2451 -0.6072  0.0309
  135OSM   C11S14565   4.820   0.561   4.224 -0.2377  0.4289  0.1503
  135OSM   H11S14566   4.800   0.453   4.234  1.3586  0.3448  4.1820
  135OSM   H11T14567   4.723   0.611   4.247  0.1801  1.6091 -0.5392
  135OSM   C12S14568   4.927   0.606   4.325 -0.4162 -0.4893 -0.5526
  135OSM   H12S14569   4.939   0.717   4.332 -0.6073 -0.5574  1.4006
  135OSM   H12T14570   5.019   0.564   4.281  0.7295  0.3574  0.9500
  135OSM   C13S14571   4.897   0.550   4.469 -0.2727  0.3151 -0.4924
  135OSM   H13S14572   4.980   0.573   4.539  0.7122  0.0778 -1.5436
  135OSM   H13T14573   4.894   0.439   4.468  1.4572  0.1944  1.6051
  135OSM   C14S14574   4.758   0.605   4.524 -0.2999 -0.2036 -0.2565
  135OSM   H14S14575   4.724   0.531   4.599 -1.2671 -0.0677 -0.5430
  135OSM   H14T14576   4.677   0.606   4.448  0.4517 -0.6532 -1.0852
  135OSM   C15S14577   4.773   0.738   4.593  0.1080 -0.2101 -0.4682
  135OSM   H15S14578   4.797   0.814   4.516 -2.2133 -0.0788 -1.1607
  135OSM   H15T14579   4.854   0.735   4.669  1.8567  1.4671 -2.1724
  135OSM   C16S14580   4.649   0.782   4.679  0.2145  0.3206 -0.1897
  135OSM   H16S14581   4.617   0.684   4.721  1.7158  0.4219  1.2662
  135OSM   H16T14582   4.567   0.832   4.623 -0.1517 -1.0889 -0.9691
  135OSM   C17S14583   4.683   0.882   4.792  0.9287 -0.0982  0.2974
  135OSM   H17S14584   4.769   0.841   4.849  0.8199 -1.0641 -0.2130
  135OSM   H17T14585   4.604   0.886   4.871 -0.0873 -0.2162 -0.6910
  135OSM   C18S14586   4.725   1.023   4.744  0.6812 -0.9539 -0.2462
  135OSM   H18S14587   4.817   1.014   4.683  1.7554  0.6073  1.0643
  135OSM   H18T14588   4.733   1.096   4.828 -0.9200  0.7112 -1.4461
  135OSM   H18U14589   4.650   1.070   4.676  0.0043 -2.7120 -0.7671
  135OSM    C1F14590   4.681   0.141   3.539  0.5555 -0.7291  0.7630
  135OSM     OF14591   4.696   0.027   3.491 -0.3301  0.4423  0.1694
  135OSM    C2F14592   4.596   0.164   3.662 -0.2395  0.4189  0.3365
  135OSM    H2F14593   4.654   0.127   3.749 -2.5472 -1.6381  1.1012
  135OSM    H2G14594   4.502   0.105   3.651  0.2324 -0.5012  1.1496
  135OSM    C3F14595   4.581   0.308   3.707 -0.5571 -0.8114  0.0917
  135OSM    H3F14596   4.518   0.369   3.638 -0.7453  1.0734  1.8539
  135OSM    H3G14597   4.686   0.345   3.706 -0.5334 -0.8605  0.6618
  135OSM    C4F14598   4.523   0.323   3.852  0.2055  0.6362 -0.5563
  135OSM    H4F14599   4.566   0.247   3.922 -2.0430 -0.7925 -0.6343
  135OSM    H4G14600   4.415   0.301   3.843  0.6693 -1.3440 -2.3519
  135OSM    C5F14601   4.532   0.467   3.906 -0.2763  0.9193  0.4353
  135OSM    H5F14602   4.466   0.532   3.844  0.1861  1.8204  0.8633
  135OSM    H5G14603   4.635   0.501   3.882  0.5198 -1.2629  0.5585
  135OSM    C6F14604   4.497   0.475   4.055  0.3868  0.3670 -0.0199
  135OSM    H6F14605   4.536   0.564   4.108 -0.0680  1.1034 -0.9064
  135OSM    H6G14606   4.556   0.396   4.106  0.3142  1.1638  1.3521
  135OSM    C7F14607   4.348   0.455   4.100  0.0265  1.2879  0.2042
  135OSM    H7F14608   4.317   0.349   4.091  2.5655  0.2698  2.0285
  135OSM    H7G14609   4.294   0.529   4.038 -1.6638  0.3880  0.5305
  135OSM    C8F14610   4.324   0.493   4.248  0.1723 -0.0651  0.4070
  135OSM    H8F14611   4.217   0.520   4.248  0.1948  0.0441  1.0705
  135OSM    H8G14612   4.388   0.581   4.270  2.1652 -1.0100 -1.2180
  135OSM    C9F14613   4.367   0.374   4.325  1.0992  0.1311 -0.1122
  135OSM    H9F14614   4.458   0.320   4.298  1.0310 -0.4698  0.8062
  135OSM   C10F14615   4.279   0.318   4.409 -0.0434  0.3923 -0.2941
  135OSM   H10F14616   4.317   0.235   4.470 -1.4442 -0.9977 -1.2522
  135OSM   C11F14617   4.138   0.352   4.436 -0.0460 -0.1490  0.1291
  135OSM   H11F14618   4.081   0.264   4.401  0.5192  0.4150 -2.3537
  135OSM   H11G14619   4.098   0.426   4.364  0.9812  0.8088  0.5162
  135OSM   C12F14620   4.104   0.393   4.586  0.2272  0.2288  0.7097
  135OSM   H12F14621   3.994   0.382   4.592  0.3152 -3.2065 -0.9709
  135OSM   H12G14622   4.145   0.495   4.601  0.1077  0.4572 -0.3929
  135OSM   C13F14623   4.156   0.302   4.703 -0.1234  0.6616 -0.1634
  135OSM   H13F14624   4.164   0.355   4.800 -1.1223  1.7949 -0.6732
  135OSM   H13G14625   4.256   0.270   4.667 -0.3088  1.6452 -1.6587
  135OSM   C14F14626   4.068   0.172   4.731  0.4930 -0.0783  0.1541
  135OSM   H14F14627   4.068   0.102   4.645  2.2266  0.8489 -0.6601
  135OSM   H14G14628   3.966   0.204   4.760  0.2878 -1.5953  1.2068
  135OSM   C15F14629   4.129   0.087   4.843 -0.7671 -0.5160 -0.4669
  135OSM   H15F14630   4.237   0.079   4.821 -0.4105  1.6586  0.2747
  135OSM   H15G14631   4.073  -0.010   4.845 -2.1565  0.1672 -2.6969
  135OSM   C16F14632   4.124   0.142   4.986 -0.1814  0.2592 -0.1257
  135OSM   H16F14633   4.032   0.204   4.987  0.6179  1.5365  2.1024
  135OSM   H16G14634   4.205   0.219   4.988  0.5396 -0.4590 -0.9743
  135OSM   C17F14635   4.124   0.038   5.098  0.7440 -0.2741 -0.2845
  135OSM   H17F14636   4.128   0.102   5.189  0.3403  0.2803 -0.6450
  135OSM   H17G14637   4.219  -0.017   5.085  0.5592 -0.3258 -1.5888
  135OSM   C18F14638   3.997  -0.055   5.101 -0.7916 -0.5620  0.2205
  135OSM   H18F14639   3.991  -0.126   5.186 -0.1069 -0.7610  0.1067
  135OSM   H18G14640   4.014  -0.114   5.009 -0.2050 -0.0918  0.0132
  135OSM   H18H14641   3.905   0.007   5.103 -0.6458 -0.2544  3.2931
  136OSM      N14642   2.251   3.416   3.077 -0.5488 -0.1399 -0.2291
  136OSM    C1514643   2.307   3.519   3.176  0.6702  0.5078 -0.0121
  136OSM   H15A14644   2.410   3.499   3.202  0.0250 -1.2764  1.3787
  136OSM   H15B14645   2.250   3.512   3.267  0.4055  0.3257 -0.1921
  136OSM   H15C14646   2.309   3.620   3.138 -0.4775  0.7275  0.4674
  136OSM    C1414647   2.321   3.446   2.947  0.5365 -0.5232  0.5095
  136OSM   H14A14648   2.426   3.456   2.969  0.7202 -2.0705  0.4763
  136OSM   H14B14649   2.269   3.528   2.899 -3.0586 -2.0350  1.4546
  136OSM   H14C14650   2.304   3.363   2.880 -3.4439  0.1313  0.4561
  136OSM    C1314651   2.284   3.271   3.123 -0.4640 -0.0341 -0.1001
  136OSM   H13A14652   2.381   3.254   3.080  0.0713  0.3808  0.9264
  136OSM   H13B14653   2.223   3.203   3.065 -0.2162 -0.3191 -0.0279
  136OSM   H13C14654   2.281   3.263   3.231 -0.7845  0.7329 -0.0438
  136OSM    C1214655   2.109   3.431   3.073 -0.0692  0.1730  0.3013
  136OSM   H12A14656   2.091   3.529   3.032 -0.3546  0.4842  1.1549
  136OSM   H12B14657   2.073   3.433   3.174  0.8425  0.2855  0.6324
  136OSM    C1114658   2.040   3.325   2.977 -0.2691  0.3815  0.1339
  136OSM   H11A14659   2.107   3.309   2.890 -0.9745  1.2125 -0.5829
  136OSM   H11B14660   1.953   3.358   2.916  0.8628 -0.4838 -2.0840
  136OSM      P14661   1.899   3.194   3.139 -0.4155 -0.1433  0.0942
  136OSM    O1314662   1.791   3.268   3.078  0.2321  0.5553  0.8889
  136OSM    O1414663   1.875   3.054   3.169  0.1633  0.5397  0.1068
  136OSM    O1114664   1.938   3.272   3.282  0.1716 -0.3233 -0.5845
  136OSM    O1214665   2.025   3.197   3.040  0.5376 -0.3614 -0.4836
  136OSM    C1S14666   2.061   3.245   3.355  0.2381 -0.0406  0.0827
  136OSM    H1S14667   2.155   3.286   3.311  1.4932 -0.3984  2.2868
  136OSM    H1T14668   2.078   3.135   3.361  0.4501 -0.0107  0.0536
  136OSM     NF14669   2.170   3.249   3.563 -0.8587 -0.1687  0.3383
  136OSM    HNF14670   2.176   3.152   3.585  1.3768 -0.1201  0.2059
  136OSM    C2S14671   2.041   3.287   3.502  0.2152 -0.2413 -0.8375
  136OSM    H2S14672   2.020   3.396   3.510 -0.7192 -0.2107 -2.9432
  136OSM    C3S14673   1.911   3.217   3.562  0.3601  0.3967  0.6206
  136OSM    H3S14674   1.905   3.111   3.530 -2.4666  0.1114  1.8592
  136OSM     O314675   1.790   3.275   3.513  0.0678 -0.8520 -0.2135
  136OSM    HO314676   1.813   3.323   3.433 -2.6547  0.7025 -0.1965
  136OSM    C4S14677   1.908   3.203   3.711  0.5932 -0.8973  0.0769
  136OSM    H4S14678   1.965   3.114   3.741 -3.2366 -4.1457 -1.3597
  136OSM    C5S14679   1.875   3.300   3.801 -0.4400  0.3507 -0.4122
  136OSM    H5S14680   1.831   3.396   3.768 -0.2527  0.4699 -0.3210
  136OSM    C6S14681   1.884   3.290   3.955  0.2047 -0.5727 -0.1292
  136OSM    H6S14682   1.782   3.280   3.997  0.0274 -0.3776 -0.5042
  136OSM    H6T14683   1.923   3.387   3.991 -2.5454  0.9416 -0.9676
  136OSM    C7S14684   1.963   3.172   4.021  0.0450  0.1619  0.9516
  136OSM    H7S14685   2.062   3.164   3.971  0.3677  3.0796  0.9921
  136OSM    H7T14686   1.899   3.082   4.005  0.1131  0.0108  1.5015
  136OSM    C8S14687   1.975   3.162   4.170 -0.6523  0.6513  0.0244
  136OSM    H8S14688   1.874   3.173   4.214 -0.4339 -0.1956  0.7718
  136OSM    H8T14689   2.042   3.244   4.205  2.6798 -1.7274 -0.3139
  136OSM    C9S14690   2.034   3.025   4.211  0.2501  0.1830  0.0750
  136OSM    H9S14691   2.144   3.036   4.201  0.1208  1.6358  0.0883
  136OSM    H9T14692   2.012   2.952   4.130  2.6880  0.4829 -0.9442
  136OSM   C10S14693   2.012   2.993   4.358 -1.1268 -0.1963 -0.3027
  136OSM   H10S14694   2.037   3.083   4.418 -0.4251 -1.4357  1.3499
  136OSM   H10T14695   2.084   2.917   4.395 -0.8487 -0.1764 -0.7951
  136OSM   C11S14696   1.878   2.930   4.390 -1.1874  0.0508  0.1901
  136OSM   H11S14697   1.875   2.833   4.337 -0.8871  0.7647 -1.1767
  136OSM   H11T14698   1.799   2.991   4.341  0.1478 -0.7460 -3.2192
  136OSM   C12S14699   1.843   2.920   4.538 -0.3238 -0.5850  0.5240
  136OSM   H12S14700   1.736   2.935   4.560 -0.7326 -0.1008 -1.6180
  136OSM   H12T14701   1.900   3.000   4.590 -1.6291 -0.9760  2.6689
  136OSM   C13S14702   1.891   2.782   4.605  0.7711  0.4454  0.0146
  136OSM   H13S14703   1.994   2.762   4.570  0.5080  0.1040 -0.5755
  136OSM   H13T14704   1.830   2.697   4.569  0.7365  1.3038 -2.0514
  136OSM   C14S14705   1.897   2.784   4.757 -0.5864  0.0029 -0.4460
  136OSM   H14S14706   1.989   2.843   4.776  0.3541 -0.4987 -3.0975
  136OSM   H14T14707   1.914   2.681   4.795 -0.9301  0.9912  2.7344
  136OSM   C15S14708   1.761   2.824   4.826  0.6471  0.2917 -0.6388
  136OSM   H15S14709   1.685   2.751   4.790 -0.1062  1.2531 -1.0419
  136OSM   H15T14710   1.729   2.928   4.804  0.5860  0.3308 -0.3661
  136OSM   C16S14711   1.777   2.804   4.981 -0.2872  0.5201  0.2508
  136OSM   H16S14712   1.872   2.852   5.012 -0.1959  1.4121 -1.3126
  136OSM   H16T14713   1.785   2.694   4.993 -0.3727  0.1732 -2.3266
  136OSM   C17S14714   1.649   2.849   5.049 -0.1147 -0.0353 -0.4912
  136OSM   H17S14715   1.561   2.784   5.026 -0.8857  1.0942 -0.8416
  136OSM   H17T14716   1.624   2.955   5.024  1.1313  0.1876 -0.8183
  136OSM   C18S14717   1.672   2.841   5.205  0.2982 -0.4886  0.4945
  136OSM   H18S14718   1.584   2.876   5.262  0.1297  0.7607 -0.4711
  136OSM   H18T14719   1.757   2.906   5.235  1.5293 -1.4083 -0.8656
  136OSM   H18U14720   1.692   2.735   5.231 -1.7013 -0.8706  0.6311
  136OSM    C1F14721   2.279   3.326   3.553 -0.0572  1.0869  0.1707
  136OSM     OF14722   2.274   3.434   3.496 -0.1047  0.5470  0.0105
  136OSM    C2F14723   2.409   3.272   3.597  0.3650 -0.1009 -0.3144
  136OSM    H2F14724   2.444   3.220   3.505 -3.2373 -1.2427 -1.2192
  136OSM    H2G14725   2.384   3.186   3.663  2.6732 -1.9736 -1.7137
  136OSM    C3F14726   2.503   3.375   3.653 -0.4343 -0.2207  0.1398
  136OSM    H3F14727   2.518   3.446   3.570  0.3887 -1.0399 -0.4359
  136OSM    H3G14728   2.604   3.330   3.662  0.7434  1.9157 -1.6463
  136OSM    C4F14729   2.459   3.448   3.779 -0.4921  0.5346 -0.0158
  136OSM    H4F14730   2.431   3.381   3.863  0.5827  0.5885  0.4032
  136OSM    H4G14731   2.369   3.504   3.747 -1.7191 -0.1061  2.0844
  136OSM    C5F14732   2.572   3.532   3.835  0.0464 -0.1837  0.5447
  136OSM    H5F14733   2.609   3.593   3.751 -1.4842 -0.6772 -0.5432
  136OSM    H5G14734   2.654   3.472   3.881  0.8508  0.1735 -0.3978
  136OSM    C6F14735   2.540   3.637   3.939  0.7240  0.1174 -0.3143
  136OSM    H6F14736   2.458   3.704   3.906 -0.9230 -2.4440 -1.8308
  136OSM    H6G14737   2.623   3.708   3.956 -0.8574  2.3806 -1.5632
  136OSM    C7F14738   2.497   3.583   4.076 -0.0490  0.5032  0.3360
  136OSM    H7F14739   2.570   3.513   4.122 -0.0161  0.6797  0.5599
  136OSM    H7G14740   2.405   3.523   4.063  0.1937  0.1318  0.3190
  136OSM    C8F14741   2.464   3.694   4.177  0.7221 -0.1487  0.0397
  136OSM    H8F14742   2.405   3.763   4.114  1.2408 -0.6759 -1.0492
  136OSM    H8G14743   2.554   3.748   4.214  0.9555  0.6059 -1.5571
  136OSM    C9F14744   2.376   3.637   4.286  0.5035 -0.2323 -0.3231
  136OSM    H9F14745   2.269   3.625   4.263  0.4791 -1.1781  0.2066
  136OSM   C10F14746   2.400   3.620   4.416 -0.2918 -0.4747 -0.1279
  136OSM   H10F14747   2.316   3.591   4.482  1.0598  0.6017  2.2205
  136OSM   C11F14748   2.525   3.654   4.486 -0.2184 -0.1443 -0.4393
  136OSM   H11F14749   2.602   3.689   4.414  1.1321 -0.3654  0.8593
  136OSM   H11G14750   2.565   3.566   4.540  1.1937  0.3663 -0.6129
  136OSM   C12F14751   2.505   3.767   4.596  0.6402  0.6978 -0.1804
  136OSM   H12F14752   2.440   3.745   4.684  0.5058 -1.7566 -0.7997
  136OSM   H12G14753   2.459   3.848   4.537  0.3521 -1.1614 -2.6684
  136OSM   C13F14754   2.639   3.823   4.647  0.4674 -0.7928 -0.9194
  136OSM   H13F14755   2.714   3.810   4.566 -0.6035 -1.9442 -1.7727
  136OSM   H13G14756   2.666   3.766   4.738 -1.1555 -0.7803 -0.3890
  136OSM   C14F14757   2.650   3.972   4.693  0.1325  0.1357  0.4430
  136OSM   H14F14758   2.592   4.043   4.629 -1.2162  0.8924  2.4104
  136OSM   H14G14759   2.751   4.008   4.662 -0.1847  0.9506  0.3223
  136OSM   C15F14760   2.630   4.005   4.844 -0.0617 -0.5821  0.2425
  136OSM   H15F14761   2.658   4.107   4.878  0.4888 -0.9662  0.9761
  136OSM   H15G14762   2.686   3.934   4.908 -3.2311 -0.2317  3.7914
  136OSM   C16F14763   2.489   3.980   4.876  0.3514  0.2863  0.0607
  136OSM   H16F14764   2.461   3.873   4.867 -0.2618  0.4609 -0.1200
  136OSM   H16G14765   2.422   4.036   4.808  1.4872  2.0468  0.3299
  136OSM   C17F14766   2.447   4.021   5.019  0.6729 -0.8240  0.7474
  136OSM   H17F14767   2.496   4.118   5.041 -0.1896  0.2350 -1.6561
  136OSM   H17G14768   2.470   3.944   5.095  0.3928 -0.2636  1.4140
  136OSM   C18F14769   2.294   4.030   5.029  0.4210  0.1028 -0.2024
  136OSM   H18F14770   2.274   4.031   5.138  2.3976  1.3793  0.2004
  136OSM   H18G14771   2.248   3.944   4.976 -1.4271  0.7615  0.2514
  136OSM   H18H14772   2.244   4.121   4.987 -0.9468 -0.2696  0.5618
  137OSM      N14773   5.942   0.731   2.953  0.0951  0.3636  0.5444
  137OSM    C1514774   5.880   0.602   2.899 -0.2178 -0.6980  0.0577
  137OSM   H15A14775   5.884   0.596   2.791  0.7967 -0.3484  0.0574
  137OSM   H15B14776   5.776   0.599   2.926 -0.3348  2.2663  0.2508
  137OSM   H15C14777   5.934   0.521   2.946 -1.0199 -0.9031  0.6471
  137OSM    C1414778   6.088   0.751   2.902  0.5715  0.5477  0.6078
  137OSM   H14A14779   6.150   0.669   2.934 -1.0156 -1.0918 -0.3132
  137OSM   H14B14780   6.138   0.841   2.935 -1.2304  1.4462  1.0757
  137OSM   H14C14781   6.087   0.750   2.794  2.8610  1.5904  0.5176
  137OSM    C1314782   5.860   0.845   2.898  0.0819  0.0756 -0.2749
  137OSM   H13A14783   5.842   0.835   2.792  0.6863 -0.1652 -0.3606
  137OSM   H13B14784   5.905   0.942   2.912  0.3948 -0.0280 -0.5330
  137OSM   H13C14785   5.766   0.846   2.952  0.7088  0.2684  0.8417
  137OSM    C1214786   5.942   0.730   3.101 -1.4679  0.3254 -0.4024
  137OSM   H12A14787   5.846   0.702   3.142 -0.4353  0.9246  2.7308
  137OSM   H12B14788   5.956   0.835   3.125 -1.6143  0.7821 -2.1996
  137OSM    C1114789   6.040   0.644   3.177  0.2921  0.3035  0.5374
  137OSM   H11A14790   6.017   0.667   3.283  1.6334 -1.8730  1.3658
  137OSM   H11B14791   6.149   0.657   3.159  0.3651 -2.4565 -1.7606
  137OSM      P14792   5.901   0.433   3.242 -0.2107  0.3489 -0.3001
  137OSM    O1314793   5.777   0.427   3.162 -0.4304 -0.2954  0.0417
  137OSM    O1414794   5.940   0.303   3.298  0.1106  0.2222 -0.4681
  137OSM    O1114795   5.871   0.529   3.369 -0.3032  0.5089 -0.0896
  137OSM    O1214796   6.019   0.505   3.161 -0.1305  0.2072 -0.0381
  137OSM    C1S14797   5.742   0.557   3.415 -0.1082 -0.3217  0.3950
  137OSM    H1S14798   5.669   0.529   3.337  1.8400  0.0872 -1.7018
  137OSM    H1T14799   5.721   0.666   3.415  2.5448  0.2940 -1.3114
  137OSM     NF14800   5.590   0.528   3.601  0.0233 -0.0028 -0.5667
  137OSM    HNF14801   5.571   0.602   3.665  1.6814  1.1287 -1.3079
  137OSM    C2S14802   5.722   0.505   3.565 -0.1186 -1.0221 -0.0679
  137OSM    H2S14803   5.749   0.398   3.573  0.5951 -0.7638  1.4643
  137OSM    C3S14804   5.821   0.583   3.665 -0.7918 -0.1662 -0.2517
  137OSM    H3S14805   5.806   0.693   3.666  0.3557  0.0490  2.6521
  137OSM     O314806   5.959   0.563   3.630 -0.4832  0.6599  0.2350
  137OSM    HO314807   5.957   0.550   3.535 -0.4182  1.3149  0.1410
  137OSM    C4S14808   5.802   0.548   3.813 -0.5324  1.0147 -0.3462
  137OSM    H4S14809   5.765   0.627   3.880 -1.6814 -0.9168  1.3972
  137OSM    C5S14810   5.833   0.430   3.870 -0.2909  0.1077  0.0161
  137OSM    H5S14811   5.847   0.343   3.804  3.1071 -1.0426  1.9763
  137OSM    C6S14812   5.820   0.391   4.009 -0.0627  0.4695 -0.4337
  137OSM    H6S14813   5.921   0.352   4.033 -0.6304 -0.4428  0.5587
  137OSM    H6T14814   5.752   0.304   4.022  2.0834 -1.0929  0.8528
  137OSM    C7S14815   5.786   0.500   4.114 -0.5774  0.1108 -0.9482
  137OSM    H7S14816   5.683   0.540   4.112  0.3723  2.9588  1.2590
  137OSM    H7T14817   5.853   0.588   4.105 -0.1896  0.2670  2.3524
  137OSM    C8S14818   5.789   0.453   4.260  0.3572  1.3328 -0.4932
  137OSM    H8S14819   5.867   0.374   4.258  1.1325  2.0900 -2.3728
  137OSM    H8T14820   5.695   0.410   4.300 -0.5658  1.9253 -1.9354
  137OSM    C9S14821   5.832   0.574   4.346 -0.4009  0.1213  0.1857
  137OSM    H9S14822   5.758   0.658   4.349  0.1271  0.7524 -2.2721
  137OSM    H9T14823   5.926   0.613   4.301 -0.7853 -0.4627 -1.1520
  137OSM   C10S14824   5.851   0.557   4.493 -0.6018 -1.0234 -0.1744
  137OSM   H10S14825   5.895   0.654   4.525 -0.6000  0.0309 -3.0739
  137OSM   H10T14826   5.910   0.471   4.530 -0.1631 -1.1741 -1.1894
  137OSM   C11S14827   5.711   0.539   4.567 -0.4806 -0.1351  0.8371
  137OSM   H11S14828   5.652   0.456   4.523 -2.0371  0.9385  0.8433
  137OSM   H11T14829   5.658   0.635   4.552  1.8003  0.9999 -0.5069
  137OSM   C12S14830   5.729   0.512   4.715 -0.2160 -0.2468  0.1324
  137OSM   H12S14831   5.788   0.420   4.731 -1.6470 -1.3775 -0.8642
  137OSM   H12T14832   5.625   0.495   4.752 -0.1624 -1.9804 -0.4259
  137OSM   C13S14833   5.782   0.632   4.793 -0.5771 -0.4727 -0.6465
  137OSM   H13S14834   5.726   0.710   4.738  0.0494 -0.8706 -1.8878
  137OSM   H13T14835   5.888   0.652   4.767 -0.3872  1.0183  1.1716
  137OSM   C14S14836   5.755   0.636   4.943 -0.3315  0.3528  0.0216
  137OSM   H14S14837   5.824   0.705   4.998  0.3112  0.1425 -0.5039
  137OSM   H14T14838   5.752   0.537   4.992  0.2196  1.7494  3.1593
  137OSM   C15S14839   5.609   0.679   4.972 -0.6167  0.4233 -0.2801
  137OSM   H15S14840   5.544   0.601   4.927 -1.1790  0.6034  0.2009
  137OSM   H15T14841   5.581   0.770   4.914 -1.7478 -0.6297 -1.4339
  137OSM   C16S14842   5.561   0.673   5.115 -0.7129 -0.2298  0.2013
  137OSM   H16S14843   5.621   0.748   5.171  1.1839 -1.0983 -0.5596
  137OSM   H16T14844   5.581   0.572   5.155 -0.9898  0.1341  1.2840
  137OSM   C17S14845   5.412   0.715   5.139 -0.1744  0.4261 -1.2898
  137OSM   H17S14846   5.387   0.692   5.245  0.8463  0.8814 -0.9409
  137OSM   H17T14847   5.343   0.653   5.078  1.6463 -1.8344 -1.1868
  137OSM   C18S14848   5.380   0.862   5.115  0.3220  0.3224  0.0606
  137OSM   H18S14849   5.271   0.878   5.122  0.4432  0.5543  2.8623
  137OSM   H18T14850   5.404   0.897   5.012 -0.6582 -0.5887 -0.4835
  137OSM   H18U14851   5.440   0.925   5.185  0.8918 -0.4441  0.2672
  137OSM    C1F14852   5.488   0.450   3.558 -0.5903  0.2527  0.2960
  137OSM     OF14853   5.516   0.361   3.480 -0.2912 -0.0415  0.7822
  137OSM    C2F14854   5.345   0.472   3.614  0.0810 -0.2651 -0.1396
  137OSM    H2F14855   5.271   0.470   3.532  0.0446  1.2861 -0.1812
  137OSM    H2G14856   5.339   0.572   3.662  0.2584  0.5897 -1.8278
  137OSM    C3F14857   5.307   0.355   3.703  0.0197 -0.6756 -0.3955
  137OSM    H3F14858   5.300   0.266   3.638  3.6622 -1.6253  0.2844
  137OSM    H3G14859   5.204   0.378   3.738  0.9184  0.7261  1.5342
  137OSM    C4F14860   5.388   0.331   3.827  0.0087 -0.6396  0.6263
  137OSM    H4F14861   5.448   0.423   3.849 -0.9714 -0.0858  1.0770
  137OSM    H4G14862   5.460   0.250   3.806  0.9159  0.3597 -0.2221
  137OSM    C5F14863   5.313   0.291   3.953  0.6013  0.3144  0.0064
  137OSM    H5F14864   5.257   0.197   3.935 -1.6111  1.7179 -0.8894
  137OSM    H5G14865   5.244   0.373   3.982  2.3834  1.3402  1.6074
  137OSM    C6F14866   5.402   0.262   4.079  0.4405  0.7892 -0.3794
  137OSM    H6F14867   5.464   0.354   4.090 -0.0365  1.1222 -0.4323
  137OSM    H6G14868   5.465   0.176   4.048 -0.2163 -0.6634  2.1014
  137OSM    C7F14869   5.328   0.222   4.208  0.6131 -0.0391 -0.3362
  137OSM    H7F14870   5.406   0.195   4.284 -0.2385 -1.2909  0.1195
  137OSM    H7G14871   5.278   0.124   4.197  1.3303 -0.2862 -1.5358
  137OSM    C8F14872   5.235   0.327   4.269 -0.7296  0.7178  0.0305
  137OSM    H8F14873   5.174   0.380   4.192 -2.0288 -0.3721  0.2580
  137OSM    H8G14874   5.294   0.406   4.318  2.0172 -0.3697 -1.2862
  137OSM    C9F14875   5.160   0.269   4.385  0.5989 -0.0467  0.1560
  137OSM    H9F14876   5.065   0.219   4.360  0.6429  0.5381 -1.2970
  137OSM   C10F14877   5.184   0.283   4.517  0.6430  0.3718  0.6659
  137OSM   H10F14878   5.130   0.214   4.585 -1.9865  0.8586 -0.8108
  137OSM   C11F14879   5.302   0.346   4.572  0.1090 -0.0944 -0.0854
  137OSM   H11F14880   5.387   0.354   4.500 -0.4057 -3.0346 -1.1333
  137OSM   H11G14881   5.345   0.286   4.655  1.7640  2.1316  0.7910
  137OSM   C12F14882   5.260   0.475   4.640  0.0191 -1.1517 -0.2828
  137OSM   H12F14883   5.220   0.548   4.567  1.3823  1.4288  1.4101
  137OSM   H12G14884   5.348   0.525   4.684  0.0589 -1.0857 -0.4385
  137OSM   C13F14885   5.177   0.468   4.773 -0.0931 -0.2566  0.2697
  137OSM   H13F14886   5.237   0.411   4.847 -1.9174  1.4242  3.2523
  137OSM   H13G14887   5.090   0.402   4.750 -1.2073  1.0149  0.6738
  137OSM   C14F14888   5.147   0.608   4.836 -0.2843  0.4320 -0.2153
  137OSM   H14F14889   5.102   0.668   4.755 -1.3233  0.6819  0.5168
  137OSM   H14G14890   5.238   0.660   4.872 -0.5431 -1.0984  3.0616
  137OSM   C15F14891   5.042   0.606   4.954 -0.0754 -0.6429 -0.1827
  137OSM   H15F14892   5.082   0.559   5.046 -0.0936  0.5586  0.4547
  137OSM   H15G14893   4.953   0.554   4.912  0.5504 -0.9964 -1.0921
  137OSM   C16F14894   5.001   0.753   4.990 -0.0273  0.5190 -0.2640
  137OSM   H16F14895   4.951   0.789   4.897  0.5444  0.7662 -0.4843
  137OSM   H16G14896   5.091   0.815   5.013  0.2463  0.1744 -0.3882
  137OSM   C17F14897   4.904   0.757   5.110  0.0686 -0.3893  0.4208
  137OSM   H17F14898   4.946   0.696   5.193 -0.3651  0.1960  1.0816
  137OSM   H17G14899   4.813   0.706   5.071  0.4703 -0.0217 -1.0642
  137OSM   C18F14900   4.865   0.894   5.163  0.2538 -0.1640  0.0683
  137OSM   H18F14901   4.763   0.878   5.204  0.3761 -1.6984 -0.1880
  137OSM   H18G14902   4.861   0.965   5.078  0.5593 -0.6322 -0.3354
  137OSM   H18H14903   4.923   0.935   5.249  0.8195 -1.0574  0.1238
  138OSM      N14904   4.505   3.257   3.022 -0.1113 -0.3896  0.2704
  138OSM    C1514905   4.627   3.195   3.071 -0.7782 -0.3571 -0.3478
  138OSM   H15A14906   4.607   3.089   3.062 -0.6756 -0.2899 -1.6960
  138OSM   H15B14907   4.654   3.229   3.170 -1.0334  1.0230 -0.7278
  138OSM   H15C14908   4.718   3.218   3.018 -0.3387 -2.5237 -0.6176
  138OSM    C1414909   4.380   3.206   3.102  0.1434 -0.3603  0.4059
  138OSM   H14A14910   4.380   3.233   3.206 -0.5576  1.0861  0.0494
  138OSM   H14B14911   4.380   3.098   3.099  2.2636 -0.5110  2.6113
  138OSM   H14C14912   4.283   3.237   3.066  0.8026  0.2948 -0.9063
  138OSM    C1314913   4.508   3.410   3.037 -0.1146 -0.7328 -0.2153
  138OSM   H13A14914   4.534   3.460   3.129 -3.5437  2.3886 -0.7188
  138OSM   H13B14915   4.410   3.449   3.015  0.3916  0.6945 -0.0377
  138OSM   H13C14916   4.571   3.441   2.956 -1.6153 -2.0120 -1.9626
  138OSM    C1214917   4.481   3.222   2.877 -0.3435  0.1401  0.0010
  138OSM   H12A14918   4.558   3.258   2.810  0.9765  0.3295  1.5572
  138OSM   H12B14919   4.389   3.275   2.854 -1.3486 -1.8768 -0.8772
  138OSM    C1114920   4.453   3.075   2.836  0.7292  0.4675 -1.0514
  138OSM   H11A14921   4.415   3.062   2.733  0.7670  0.0217 -1.0131
  138OSM   H11B14922   4.376   3.044   2.910  2.4007  1.6393  1.3034
  138OSM      P14923   4.675   2.968   2.755  0.0533  0.2251  0.0038
  138OSM    O1314924   4.633   2.916   2.621  0.1338  0.4628  0.3268
  138OSM    O1414925   4.763   3.087   2.764 -0.3879 -0.0999 -1.0816
  138OSM    O1114926   4.766   2.858   2.825 -0.0344 -0.5820  0.2051
  138OSM    O1214927   4.557   2.980   2.865 -0.3661  0.4138  0.5430
  138OSM    C1S14928   4.821   2.878   2.957 -0.4215 -0.8332 -0.0602
  138OSM    H1S14929   4.782   2.969   3.008  2.1671  0.7876 -0.7339
  138OSM    H1T14930   4.932   2.888   2.957 -0.4285 -0.0389  2.1937
  138OSM     NF14931   4.843   2.768   3.184 -0.0218 -0.1718 -0.2425
  138OSM    HNF14932   4.935   2.730   3.190  0.3705  0.6842 -0.5867
  138OSM    C2S14933   4.796   2.748   3.045  0.2347 -0.7948  0.1459
  138OSM    H2S14934   4.686   2.735   3.046  0.0824  0.1899 -1.1008
  138OSM    C3S14935   4.857   2.626   2.974 -0.0713 -0.3483  0.0612
  138OSM    H3S14936   4.966   2.637   2.954 -0.6880  0.6932 -3.4492
  138OSM     O314937   4.804   2.589   2.850 -0.2226 -0.0132 -0.3061
  138OSM    HO314938   4.753   2.668   2.829  0.6167  0.9027  0.9982
  138OSM    C4S14939   4.838   2.510   3.068  0.5258 -0.1953  0.2386
  138OSM    H4S14940   4.732   2.489   3.089  0.4041  0.2687  0.0911
  138OSM    C5S14941   4.921   2.452   3.144 -0.4272  0.4545  0.9018
  138OSM    H5S14942   5.027   2.480   3.135 -0.6144  0.6918 -1.2294
  138OSM    C6S14943   4.884   2.342   3.249  0.3280  0.1118 -0.4616
  138OSM    H6S14944   4.947   2.251   3.241 -2.2755 -2.2523  3.0272
  138OSM    H6T14945   4.777   2.317   3.234 -0.4042  2.2071  0.8803
  138OSM    C7S14946   4.883   2.402   3.395 -0.1254 -0.3449 -0.0109
  138OSM    H7S14947   4.807   2.482   3.405 -2.5766 -2.6944  1.3036
  138OSM    H7T14948   4.988   2.437   3.408 -0.6317  0.5348  2.2371
  138OSM    C8S14949   4.852   2.297   3.504 -0.5010  0.2671  0.2884
  138OSM    H8S14950   4.902   2.203   3.472 -0.2716  1.0548 -1.7547
  138OSM    H8T14951   4.745   2.269   3.501 -0.4773 -0.1878  2.1766
  138OSM    C9S14952   4.911   2.327   3.639 -0.0152 -0.0937 -0.0537
  138OSM    H9S14953   5.012   2.371   3.625 -1.3108  2.6481 -1.5680
  138OSM    H9T14954   4.923   2.231   3.694 -0.1904  0.7618  1.5635
  138OSM   C10S14955   4.828   2.427   3.717 -0.0209 -0.2787  0.8174
  138OSM   H10S14956   4.828   2.519   3.655  1.0717 -0.0695  1.1021
  138OSM   H10T14957   4.880   2.442   3.814  1.7368 -1.6046  0.1479
  138OSM   C11S14958   4.679   2.381   3.748  0.4759 -0.0627 -1.2217
  138OSM   H11S14959   4.635   2.350   3.651 -1.6298  1.2827 -0.7717
  138OSM   H11T14960   4.623   2.471   3.782  2.0208 -0.2014  2.0548
  138OSM   C12S14961   4.664   2.271   3.852  0.3760 -0.7179 -0.6886
  138OSM   H12S14962   4.736   2.188   3.832 -0.8097 -1.8199 -0.5062
  138OSM   H12T14963   4.560   2.234   3.852 -0.2947  1.0577  0.1287
  138OSM   C13S14964   4.683   2.330   3.995 -0.1403 -0.6964 -0.2278
  138OSM   H13S14965   4.612   2.410   4.024  2.1201  1.9265 -1.4058
  138OSM   H13T14966   4.787   2.369   3.986 -0.4294 -0.0322 -0.7881
  138OSM   C14S14967   4.687   2.215   4.095  0.0683 -0.3655 -0.5998
  138OSM   H14S14968   4.751   2.134   4.054  2.2833  0.4138  1.1149
  138OSM   H14T14969   4.581   2.187   4.111  0.4444 -1.5584 -0.1655
  138OSM   C15S14970   4.745   2.248   4.226 -0.1488  0.0872 -0.0468
  138OSM   H15S14971   4.713   2.350   4.255  1.7644  0.7588 -0.1269
  138OSM   H15T14972   4.854   2.261   4.209 -0.1763  2.9284  1.3556
  138OSM   C16S14973   4.719   2.138   4.329  0.0085 -0.4654  0.1192
  138OSM   H16S14974   4.761   2.042   4.292  1.1266 -0.5081  1.4416
  138OSM   H16T14975   4.608   2.129   4.335 -0.2518  0.3796 -2.1606
  138OSM   C17S14976   4.768   2.162   4.475 -0.0268 -0.0569  0.1811
  138OSM   H17S14977   4.790   2.269   4.497  1.7569  0.1904 -2.2692
  138OSM   H17T14978   4.861   2.104   4.491  0.2427  0.5225  0.7603
  138OSM   C18S14979   4.672   2.111   4.576  0.0537  0.1367 -0.2473
  138OSM   H18S14980   4.698   2.139   4.680  0.6732 -0.7831 -0.1427
  138OSM   H18T14981   4.668   2.000   4.573  1.3300  0.0666  0.1431
  138OSM   H18U14982   4.572   2.149   4.547  0.2314 -0.4488 -1.7666
  138OSM    C1F14983   4.787   2.850   3.273  0.4636  0.0835  0.3637
  138OSM     OF14984   4.692   2.914   3.240  0.5189  0.4580 -0.0130
  138OSM    C2F14985   4.843   2.855   3.407 -0.5681 -0.0775  0.0874
  138OSM    H2F14986   4.866   2.958   3.440 -2.7136 -0.0907  1.8486
  138OSM    H2G14987   4.932   2.789   3.420  0.3898  1.1591 -0.0875
  138OSM    C3F14988   4.733   2.799   3.499 -0.6902  0.1251  0.1559
  138OSM    H3F14989   4.714   2.693   3.470  0.9434 -0.1475 -0.0529
  138OSM    H3G14990   4.637   2.852   3.483 -0.6220 -0.4288 -2.5537
  138OSM    C4F14991   4.775   2.810   3.653 -0.5968  0.1321  0.4469
  138OSM    H4F14992   4.824   2.906   3.677 -0.1002 -0.3708  1.4893
  138OSM    H4G14993   4.848   2.728   3.674  0.9632  1.0597 -1.0987
  138OSM    C5F14994   4.650   2.802   3.747  0.4464  0.1282  0.9722
  138OSM    H5F14995   4.590   2.710   3.727  1.6110 -0.0446 -2.1640
  138OSM    H5G14996   4.579   2.880   3.713 -3.1437 -3.4114 -0.4510
  138OSM    C6F14997   4.684   2.811   3.893  0.4188 -0.5627 -0.3078
  138OSM    H6F14998   4.589   2.812   3.951  0.0662  0.3752 -0.8877
  138OSM    H6G14999   4.744   2.900   3.920 -0.7453 -0.1143  0.9142
  138OSM    C7F15000   4.783   2.704   3.938  0.0134 -0.5519 -0.7352
  138OSM    H7F15001   4.865   2.708   3.863 -0.0985  0.9907 -0.8062
  138OSM    H7G15002   4.750   2.599   3.948  2.1787 -1.1736  0.6238
  138OSM    C8F15003   4.859   2.739   4.072  0.4632 -0.5187  0.5263
  138OSM    H8F15004   4.914   2.832   4.045 -0.5401  0.3769  1.4743
  138OSM    H8G15005   4.933   2.660   4.097  0.3805 -0.7955 -0.0933
  138OSM    C9F15006   4.759   2.760   4.182  0.1771  0.0605 -0.9206
  138OSM    H9F15007   4.683   2.839   4.165 -0.3947 -0.3787 -0.4519
  138OSM   C10F15008   4.762   2.690   4.299 -0.3033  0.1179 -0.6306
  138OSM   H10F15009   4.688   2.711   4.378  1.1375 -0.1150  0.8381
  138OSM   C11F15010   4.862   2.590   4.339  0.8519 -0.3800  0.3665
  138OSM   H11F15011   4.906   2.531   4.256  1.0807 -0.2210  0.3731
  138OSM   H11G15012   4.802   2.515   4.395 -1.7843  1.7178  0.5695
  138OSM   C12F15013   4.981   2.633   4.419  0.7994  0.0878  0.3894
  138OSM   H12F15014   5.031   2.724   4.378 -0.4329 -0.0838 -1.6087
  138OSM   H12G15015   5.052   2.547   4.421 -0.2839 -0.9157 -1.5932
  138OSM   C13F15016   4.943   2.649   4.569 -0.1385 -0.0566 -0.2816
  138OSM   H13F15017   4.865   2.578   4.603 -0.1535  0.2605  0.3611
  138OSM   H13G15018   4.889   2.745   4.581  0.2323  0.1395 -0.1400
  138OSM   C14F15019   5.064   2.630   4.658  0.5731  0.6725 -0.2454
  138OSM   H14F15020   5.159   2.658   4.607  0.1435  0.8917 -0.9299
  138OSM   H14G15021   5.059   2.522   4.684  1.4980  1.4836  4.0824
  138OSM   C15F15022   5.077   2.711   4.788 -0.5014 -0.0054  0.5499
  138OSM   H15F15023   4.988   2.700   4.853 -1.2080 -0.7202 -0.5018
  138OSM   H15G15024   5.077   2.820   4.764  0.9781 -0.0959  0.0307
  138OSM   C16F15025   5.199   2.667   4.880  0.7904 -0.2369  0.4422
  138OSM   H16F15026   5.293   2.705   4.836 -0.2262 -0.8551 -2.5283
  138OSM   H16G15027   5.219   2.558   4.876  0.9913 -0.4778  4.0707
  138OSM   C17F15028   5.181   2.710   5.028 -0.1068 -0.0148 -0.9606
  138OSM   H17F15029   5.076   2.686   5.058 -0.1945 -1.3088 -2.1625
  138OSM   H17G15030   5.200   2.818   5.039  0.0211 -0.0956 -0.3850
  138OSM   C18F15031   5.285   2.632   5.111 -0.5331 -0.4463  0.1773
  138OSM   H18F15032   5.275   2.659   5.219 -1.8572  0.9697 -0.2466
  138OSM   H18G15033   5.386   2.661   5.077 -0.1971 -2.6280 -0.7965
  138OSM   H18H15034   5.277   2.523   5.096  1.8614 -0.5267 -0.8681
  139OSM      N15035   6.465   0.090   3.081  0.2987  0.0299 -0.7688
  139OSM    C1515036   6.340   0.018   3.059  0.4190  0.3057 -0.1281
  139OSM   H15A15037   6.255   0.084   3.062  0.6307  0.6138  3.0672
  139OSM   H15B15038   6.324  -0.032   3.154  1.6699  0.0023 -0.0596
  139OSM   H15C15039   6.339  -0.052   2.976  0.7673  1.3224 -1.0036
  139OSM    C1415040   6.483   0.112   3.229  0.2136 -0.3197 -0.2361
  139OSM   H14A15041   6.516   0.018   3.272  1.1852 -0.4009 -1.1227
  139OSM   H14B15042   6.389   0.138   3.275  0.9975 -1.2492  2.0632
  139OSM   H14C15043   6.553   0.193   3.247  0.3487 -0.7042  1.1407
  139OSM    C1315044   6.578  -0.002   3.031  0.0157 -1.0661  0.6516
  139OSM   H13A15045   6.572  -0.011   2.923 -0.6885  1.5562  0.4175
  139OSM   H13B15046   6.574  -0.103   3.070  1.0847 -0.9689  1.0544
  139OSM   H13C15047   6.672   0.035   3.067 -0.9787  0.9765  1.2629
  139OSM    C1215048   6.466   0.214   3.003  0.3932 -0.9946 -0.9048
  139OSM   H12A15049   6.370   0.259   3.025 -0.9347 -3.2139 -1.7928
  139OSM   H12B15050   6.461   0.199   2.896 -1.6753 -2.0790 -0.6971
  139OSM    C1115051   6.572   0.320   3.040 -0.2134 -0.3928  0.3374
  139OSM   H11A15052   6.582   0.403   2.966  1.4980  1.0954  2.1058
  139OSM   H11B15053   6.674   0.276   3.037  0.0950  0.3728 -0.9269
  139OSM      P15054   6.522   0.527   3.190 -0.0977 -0.0698 -0.0926
  139OSM    O1315055   6.643   0.609   3.188 -0.4544  0.2624 -0.6239
  139OSM    O1415056   6.413   0.570   3.100  0.6498 -0.5664  0.0446
  139OSM    O1115057   6.459   0.539   3.331 -0.0561  0.1966  0.2455
  139OSM    O1215058   6.551   0.378   3.172 -0.3248  0.2906  0.1363
  139OSM    C1S15059   6.344   0.477   3.376  0.3461 -0.3943 -0.5706
  139OSM    H1S15060   6.360   0.367   3.378  2.1053 -0.1587 -0.8860
  139OSM    H1T15061   6.264   0.508   3.305 -1.1859 -1.5879  0.5654
  139OSM     NF15062   6.211   0.442   3.592 -0.1429  0.9042 -0.0452
  139OSM    HNF15063   6.117   0.473   3.605 -0.2755  0.3175  0.4313
  139OSM    C2S15064   6.302   0.525   3.519  0.2531  0.1739  0.6683
  139OSM    H2S15065   6.394   0.522   3.581  0.1335 -1.6844  0.8113
  139OSM    C3S15066   6.257   0.680   3.518  0.5219 -0.1254 -0.5264
  139OSM    H3S15067   6.155   0.684   3.473 -0.6559 -3.3295  1.5213
  139OSM     O315068   6.336   0.763   3.430  0.5855 -0.1951  0.0782
  139OSM    HO315069   6.373   0.690   3.379 -2.6273 -2.2508  0.4262
  139OSM    C4S15070   6.248   0.738   3.658  0.3704  0.2416  0.3167
  139OSM    H4S15071   6.148   0.716   3.699  0.4718  0.4027  0.6562
  139OSM    C5S15072   6.347   0.794   3.728 -0.7690 -0.4161 -0.7170
  139OSM    H5S15073   6.446   0.793   3.682 -1.1621  1.4716 -1.7026
  139OSM    C6S15074   6.336   0.873   3.862  0.2507 -0.0009  0.6171
  139OSM    H6S15075   6.246   0.937   3.871  0.1658 -0.0961  0.4543
  139OSM    H6T15076   6.429   0.934   3.870 -0.1488  0.6452  0.3772
  139OSM    C7S15077   6.329   0.795   3.992  0.7149  0.1267 -0.1776
  139OSM    H7S15078   6.421   0.736   4.013  0.7866  0.5467  0.7361
  139OSM    H7T15079   6.243   0.725   4.005  0.9288  0.2774  2.8223
  139OSM    C8S15080   6.309   0.885   4.114 -0.1957 -0.5595  0.3915
  139OSM    H8S15081   6.218   0.943   4.086 -0.0086 -1.0033 -1.2124
  139OSM    H8T15082   6.396   0.954   4.120 -0.5153 -0.1600  0.4859
  139OSM    C9S15083   6.309   0.812   4.248  0.0080  1.1409 -0.3009
  139OSM    H9S15084   6.403   0.754   4.259  0.7272  2.1903 -0.7508
  139OSM    H9T15085   6.240   0.725   4.249 -1.0988  1.9618  1.6094
  139OSM   C10S15086   6.289   0.908   4.365  1.2852 -0.8935 -0.5307
  139OSM   H10S15087   6.197   0.970   4.359  0.9757 -1.1209  1.3502
  139OSM   H10T15088   6.371   0.984   4.362 -0.4764  1.1408  0.3111
  139OSM   C11S15089   6.292   0.833   4.500 -0.6233  0.1706  0.0900
  139OSM   H11S15090   6.392   0.792   4.526  0.8821  4.3112  1.8605
  139OSM   H11T15091   6.224   0.746   4.489  1.8354 -1.6154 -2.1230
  139OSM   C12S15092   6.243   0.922   4.613 -0.5197 -0.1506 -0.4885
  139OSM   H12S15093   6.136   0.944   4.596 -1.0744 -2.5722 -0.3518
  139OSM   H12T15094   6.308   1.013   4.617  1.9687 -1.8453  0.4340
  139OSM   C13S15095   6.244   0.861   4.750 -0.8384 -0.5566  0.2675
  139OSM   H13S15096   6.352   0.856   4.777 -0.8297 -0.1529  0.3219
  139OSM   H13T15097   6.199   0.760   4.754 -2.3668  0.0291 -1.3368
  139OSM   C14S15098   6.155   0.956   4.845 -0.1753 -0.0804  0.0242
  139OSM   H14S15099   6.130   0.887   4.928 -0.5893 -1.1856 -0.9942
  139OSM   H14T15100   6.062   0.991   4.796  0.1011 -1.6022 -1.7121
  139OSM   C15S15101   6.229   1.073   4.913  0.8331  0.3285  0.0638
  139OSM   H15S15102   6.291   1.116   4.832  1.3209  0.8827  0.7295
  139OSM   H15T15103   6.297   1.043   4.995  0.0359  1.9150  1.3626
  139OSM   C16S15104   6.141   1.185   4.979  0.5168  0.3653 -0.2032
  139OSM   H16S15105   6.071   1.224   4.902 -1.5047  0.3974  1.5836
  139OSM   H16T15106   6.205   1.268   5.015  0.3941 -0.0688  1.0505
  139OSM   C17S15107   6.058   1.140   5.101 -0.2482  0.4830  0.5180
  139OSM   H17S15108   6.131   1.106   5.177  1.9754 -1.1155 -2.1553
  139OSM   H17T15109   5.985   1.063   5.068 -0.6859  2.1298 -2.6891
  139OSM   C18S15110   5.969   1.255   5.152 -0.1995 -0.3938  0.3390
  139OSM   H18S15111   5.926   1.233   5.252 -0.2480 -2.5575 -0.1160
  139OSM   H18T15112   5.887   1.274   5.080  0.5783 -2.4517 -1.1733
  139OSM   H18U15113   6.033   1.345   5.163 -1.4065  0.7729 -1.5807
  139OSM    C1F15114   6.232   0.309   3.619  0.4815  0.0272 -0.3321
  139OSM     OF15115   6.337   0.256   3.597 -0.0462 -0.5523  0.0477
  139OSM    C2F15116   6.115   0.234   3.683 -0.8034  0.4419  0.1095
  139OSM    H2F15117   6.023   0.232   3.620 -0.9297 -1.2854  0.3018
  139OSM    H2G15118   6.088   0.277   3.782  1.7333  1.7019  0.3124
  139OSM    C3F15119   6.147   0.078   3.701  0.2420 -0.4210 -0.2781
  139OSM    H3F15120   6.241   0.064   3.758 -0.7656  0.6406  1.7446
  139OSM    H3G15121   6.150   0.021   3.606 -0.2119  1.9747 -1.8111
  139OSM    C4F15122   6.051   0.023   3.810 -0.2706  0.0545 -0.3677
  139OSM    H4F15123   6.064  -0.087   3.816 -0.4999  0.0538  0.2565
  139OSM    H4G15124   5.946   0.051   3.788 -0.2795  0.6645  0.3899
  139OSM    C5F15125   6.075   0.072   3.953  0.0380 -0.5750  0.5447
  139OSM    H5F15126   6.078   0.183   3.950  3.0769 -0.5958 -0.4104
  139OSM    H5G15127   6.176   0.027   3.964  0.2150 -0.2984  0.0691
  139OSM    C6F15128   5.992   0.005   4.054 -0.1616  0.2809 -0.0860
  139OSM    H6F15129   6.024  -0.101   4.058 -0.8634 -0.1548 -3.3429
  139OSM    H6G15130   5.888   0.011   4.015 -0.5617  2.0854  1.1272
  139OSM    C7F15131   6.007   0.077   4.190 -0.0750 -0.2162  0.3319
  139OSM    H7F15132   5.994   0.186   4.172 -0.2644  0.1943  2.5467
  139OSM    H7G15133   6.111   0.059   4.225  0.9094  0.2762 -2.1760
  139OSM    C8F15134   5.901   0.019   4.291 -0.4441  0.7463  0.4602
  139OSM    H8F15135   5.934  -0.084   4.313  1.2139  0.6526 -2.0052
  139OSM    H8G15136   5.802   0.018   4.240  0.0150 -1.0930 -0.4692
  139OSM    C9F15137   5.909   0.110   4.419 -0.7574  0.4988 -0.7654
  139OSM    H9F15138   6.012   0.128   4.452 -0.3376 -3.5938  0.6890
  139OSM   C10F15139   5.809   0.159   4.490  0.2699 -0.1867 -0.5598
  139OSM   H10F15140   5.849   0.214   4.577 -0.7142 -0.5877  0.1692
  139OSM   C11F15141   5.664   0.131   4.471 -0.3383  0.3124  0.4558
  139OSM   H11F15142   5.658   0.092   4.367 -0.0596 -0.3652  0.6912
  139OSM   H11G15143   5.609   0.227   4.482 -2.1303 -0.3845 -1.6121
  139OSM   C12F15144   5.603   0.044   4.581  0.2252 -0.3946 -0.4795
  139OSM   H12F15145   5.571   0.110   4.664  1.0685 -0.4992 -0.0633
  139OSM   H12G15146   5.669  -0.042   4.606 -0.2102 -1.2228 -2.0802
  139OSM   C13F15147   5.471  -0.033   4.539 -0.2031  0.5611  0.1209
  139OSM   H13F15148   5.416   0.035   4.470 -0.7692 -0.2644 -0.2636
  139OSM   H13G15149   5.414  -0.043   4.634  1.5740  0.3794  1.2012
  139OSM   C14F15150   5.485  -0.177   4.493  0.1001 -0.0417  0.1881
  139OSM   H14F15151   5.537  -0.246   4.562 -1.0497 -2.4050 -1.1670
  139OSM   H14G15152   5.532  -0.168   4.393 -0.9904 -2.4856 -0.6150
  139OSM   C15F15153   5.350  -0.241   4.463 -0.1044  0.1588 -0.6195
  139OSM   H15F15154   5.275  -0.224   4.543 -0.3367  2.2015 -1.2183
  139OSM   H15G15155   5.373  -0.349   4.450 -2.1967 -0.2199 -1.6007
  139OSM   C16F15156   5.274  -0.191   4.334 -0.3884  0.6461 -0.0200
  139OSM   H16F15157   5.244  -0.284   4.282 -1.5903  0.0588  1.6490
  139OSM   H16G15158   5.343  -0.135   4.266 -0.6297  0.2054 -0.6367
  139OSM   C17F15159   5.144  -0.116   4.356  0.2208 -0.3102 -0.9430
  139OSM   H17F15160   5.106  -0.074   4.261  1.9820 -1.7470 -2.3653
  139OSM   H17G15161   5.155  -0.025   4.420 -1.0317  1.0752 -2.5993
  139OSM   C18F15162   5.044  -0.209   4.427 -0.8102  0.4530 -0.4385
  139OSM   H18F15163   5.079  -0.249   4.525 -1.0624 -0.7744 -0.8287
  139OSM   H18G15164   5.012  -0.298   4.369 -2.3192  1.5292 -1.3450
  139OSM   H18H15165   4.951  -0.155   4.455  0.8824  2.2832  2.0918
  140OSM      N15166   3.568   3.469   2.977  0.1242  0.4422 -0.8589
  140OSM    C1515167   3.482   3.575   3.036 -0.1692  0.2904  0.0822
  140OSM   H15A15168   3.417   3.541   3.115 -2.3413 -0.2662 -1.8419
  140OSM   H15B15169   3.407   3.603   2.964 -0.8863  2.0742  1.4354
  140OSM   H15C15170   3.522   3.673   3.060  0.5468  0.0305 -0.0059
  140OSM    C1415171   3.483   3.372   2.903 -0.7984  0.4401 -0.6070
  140OSM   H14A15172   3.547   3.291   2.871 -0.8588  1.0482 -2.3456
  140OSM   H14B15173   3.429   3.418   2.822  1.1539  1.2981 -1.4869
  140OSM   H14C15174   3.408   3.332   2.971 -0.2207  0.3762  0.0119
  140OSM    C1315175   3.669   3.537   2.889 -0.9327 -0.0887 -0.4977
  140OSM   H13A15176   3.743   3.468   2.850 -0.7832  0.1275 -0.6005
  140OSM   H13B15177   3.720   3.609   2.952 -1.4843 -1.5263  1.6924
  140OSM   H13C15178   3.629   3.584   2.800 -1.1332  0.5788 -0.0638
  140OSM    C1215179   3.651   3.412   3.095  0.5200  0.4926  0.3878
  140OSM   H12A15180   3.593   3.407   3.186 -1.1836  0.8017 -0.6519
  140OSM   H12B15181   3.719   3.490   3.127 -0.0698  1.3994 -0.5108
  140OSM    C1115182   3.731   3.289   3.077 -0.1579  0.2709 -0.2417
  140OSM   H11A15183   3.661   3.205   3.060  1.3160 -1.2446  0.8413
  140OSM   H11B15184   3.779   3.255   3.171  0.1948 -1.2544 -0.9541
  140OSM      P15185   3.980   3.336   2.991 -0.3492 -0.4265 -0.3506
  140OSM    O1315186   4.066   3.231   2.935 -0.4585  0.7653  0.3409
  140OSM    O1415187   4.001   3.477   2.944 -0.4272  0.0277 -0.1707
  140OSM    O1115188   3.994   3.335   3.149 -0.3193  0.1517 -0.3724
  140OSM    O1215189   3.831   3.298   2.967 -0.4031 -1.0433 -0.0063
  140OSM    C1S15190   4.003   3.455   3.226  0.7076 -0.5161 -0.1312
  140OSM    H1S15191   3.936   3.535   3.188  0.7503 -1.3933 -2.1852
  140OSM    H1T15192   4.103   3.503   3.222  0.5591 -0.1549  0.4313
  140OSM     NF15193   3.930   3.555   3.442  0.1554 -0.0810  0.0015
  140OSM    HNF15194   3.996   3.590   3.507 -0.5500  0.9835  0.1609
  140OSM    C2S15195   3.970   3.435   3.377  0.8787  0.4356 -0.4802
  140OSM    H2S15196   3.887   3.361   3.386  0.5143  0.7472 -1.2787
  140OSM    C3S15197   4.094   3.365   3.445 -0.0563  0.0534  0.8651
  140OSM    H3S15198   4.165   3.451   3.447 -0.3022  0.5144 -2.6415
  140OSM     O315199   4.154   3.263   3.367 -0.1607 -0.4861  0.0018
  140OSM    HO315200   4.090   3.247   3.297  2.3776  1.4433 -3.0672
  140OSM    C4S15201   4.066   3.321   3.579 -1.0419  0.1365 -0.4560
  140OSM    H4S15202   4.093   3.392   3.658  1.2388  1.2541 -2.1561
  140OSM    C5S15203   4.019   3.205   3.631  0.3397 -0.8966  0.1076
  140OSM    H5S15204   4.008   3.121   3.562  0.8278 -2.7683  2.1922
  140OSM    C6S15205   3.996   3.167   3.774 -0.5465 -0.0982  0.0280
  140OSM    H6S15206   4.046   3.075   3.809 -1.7553 -0.8532 -0.1667
  140OSM    H6T15207   3.886   3.151   3.780 -1.2861  2.9486 -2.3880
  140OSM    C7S15208   4.008   3.292   3.868  0.7878 -0.2885  0.0438
  140OSM    H7S15209   3.930   3.367   3.844 -0.2756 -1.3297  0.1253
  140OSM    H7T15210   4.112   3.331   3.865  0.6601  0.0174 -0.4702
  140OSM    C8S15211   3.979   3.239   4.012  0.5241 -0.5218 -0.3991
  140OSM    H8S15212   4.035   3.144   4.022  1.1876  0.0640  1.9193
  140OSM    H8T15213   3.868   3.232   4.025  0.5014  0.0150 -0.3053
  140OSM    C9S15214   4.020   3.343   4.119 -0.1230  0.8101 -0.2863
  140OSM    H9S15215   3.947   3.427   4.119 -1.9798 -0.7165  0.5401
  140OSM    H9T15216   4.118   3.389   4.093  0.9007 -1.1641 -0.1528
  140OSM   C10S15217   4.024   3.289   4.264 -0.2330  0.0480  0.9077
  140OSM   H10S15218   4.097   3.206   4.274 -0.8526 -0.7510 -0.7818
  140OSM   H10T15219   3.918   3.262   4.282 -0.6573  0.1973 -1.1553
  140OSM   C11S15220   4.080   3.383   4.376  0.2557 -0.0123  1.0822
  140OSM   H11S15221   4.017   3.475   4.384 -0.8239 -0.6862  0.5856
  140OSM   H11T15222   4.179   3.419   4.342  1.9435 -3.8879  1.3987
  140OSM   C12S15223   4.103   3.315   4.502  0.1380 -0.3451  0.4959
  140OSM   H12S15224   4.190   3.246   4.493 -1.6267 -2.5634 -0.8261
  140OSM   H12T15225   4.016   3.254   4.534 -0.7966  0.6610 -0.0779
  140OSM   C13S15226   4.128   3.411   4.617  0.2080 -0.3712  0.6214
  140OSM   H13S15227   4.033   3.467   4.626  0.0442 -0.4563 -0.5227
  140OSM   H13T15228   4.214   3.479   4.598 -0.5142  0.3241 -0.2219
  140OSM   C14S15229   4.162   3.343   4.757 -0.5389 -0.2494  0.3755
  140OSM   H14S15230   4.071   3.287   4.787  0.5946 -1.8810  0.9568
  140OSM   H14T15231   4.170   3.434   4.820 -0.0990 -0.3530  0.4706
  140OSM   C15S15232   4.295   3.269   4.771  0.4050  0.1961  0.6802
  140OSM   H15S15233   4.368   3.327   4.710 -0.7278 -1.2189 -2.2048
  140OSM   H15T15234   4.288   3.167   4.727  0.5706  0.6077 -0.3227
  140OSM   C16S15235   4.347   3.261   4.922 -0.3035  0.5679  1.1876
  140OSM   H16S15236   4.430   3.188   4.920 -1.6628 -1.1470 -3.4132
  140OSM   H16T15237   4.263   3.226   4.987 -1.7613  0.1046 -0.8566
  140OSM   C17S15238   4.383   3.393   4.995  0.0903 -0.1584  0.5074
  140OSM   H17S15239   4.297   3.463   4.995 -0.6953 -1.0988  0.6509
  140OSM   H17T15240   4.468   3.443   4.944  1.2277 -1.2031  1.2870
  140OSM   C18S15241   4.426   3.354   5.140 -0.1047  0.1724  0.0993
  140OSM   H18S15242   4.463   3.450   5.182 -0.1705 -0.0816  0.7518
  140OSM   H18T15243   4.509   3.282   5.121 -1.0245 -0.3579 -2.2897
  140OSM   H18U15244   4.333   3.325   5.194 -0.3698  1.2600  0.2437
  140OSM    C1F15245   3.819   3.613   3.408  0.8401 -0.3923 -1.3909
  140OSM     OF15246   3.741   3.549   3.335  0.6174  0.2055 -0.1831
  140OSM    C2F15247   3.795   3.753   3.453  0.4495 -0.0583 -0.6840
  140OSM    H2F15248   3.763   3.810   3.363 -0.9441 -1.0033 -0.8263
  140OSM    H2G15249   3.890   3.795   3.491  0.0149 -0.6048  1.1138
  140OSM    C3F15250   3.681   3.753   3.564 -0.2901  0.2162 -0.1341
  140OSM    H3F15251   3.689   3.659   3.623 -1.2711 -0.6416 -1.3231
  140OSM    H3G15252   3.583   3.741   3.515 -0.5958  0.0478  0.5139
  140OSM    C4F15253   3.689   3.871   3.660  0.1902  0.7909 -0.5404
  140OSM    H4F15254   3.670   3.967   3.607 -0.4188  0.0463 -1.7152
  140OSM    H4G15255   3.789   3.883   3.707 -0.1940 -3.1638  1.7300
  140OSM    C5F15256   3.570   3.862   3.750 -0.7956  0.8267  0.2201
  140OSM    H5F15257   3.598   3.782   3.821 -0.5413 -0.0747 -0.8551
  140OSM    H5G15258   3.479   3.833   3.692 -0.2997 -1.4761  0.4947
  140OSM    C6F15259   3.537   3.995   3.811 -0.3022  0.2855  0.0900
  140OSM    H6F15260   3.498   4.068   3.737 -1.1015 -0.8576 -0.6513
  140OSM    H6G15261   3.630   4.031   3.860 -1.6230  1.7329  1.6607
  140OSM    C7F15262   3.431   3.993   3.923  0.8451  0.0320  0.0962
  140OSM    H7F15263   3.440   3.904   3.988 -2.6358  0.0570  0.8022
  140OSM    H7G15264   3.330   3.977   3.880  0.4120  0.0022  1.1044
  140OSM    C8F15265   3.421   4.127   4.005  0.9623  0.1906 -0.0409
  140OSM    H8F15266   3.325   4.133   4.061 -0.1036 -1.8981 -1.4685
  140OSM    H8G15267   3.404   4.209   3.932  1.0703  0.5023  0.2833
  140OSM    C9F15268   3.543   4.142   4.096 -0.1557 -0.2535 -0.5992
  140OSM    H9F15269   3.637   4.154   4.039  0.4495  1.5274  0.6925
  140OSM   C10F15270   3.555   4.145   4.229  0.3434  0.2859 -0.8068
  140OSM   H10F15271   3.653   4.167   4.275  0.0412  1.0437 -0.5240
  140OSM   C11F15272   3.449   4.094   4.319  1.2321  0.4344 -0.4390
  140OSM   H11F15273   3.408   4.000   4.277  6.4134 -1.3021 -2.3535
  140OSM   H11G15274   3.364   4.166   4.325 -0.3596 -1.3337 -0.7007
  140OSM   C12F15275   3.494   4.070   4.463 -0.3575  0.1986 -0.2951
  140OSM   H12F15276   3.527   4.164   4.513 -0.2935 -0.4321  0.8672
  140OSM   H12G15277   3.584   4.006   4.458 -0.5830 -0.3972  2.2683
  140OSM   C13F15278   3.394   3.998   4.552 -0.1031  0.0491 -0.4012
  140OSM   H13F15279   3.375   3.897   4.509 -0.7521  0.7591 -1.8587
  140OSM   H13G15280   3.291   4.037   4.543 -0.8735 -2.1659 -2.1436
  140OSM   C14F15281   3.442   3.986   4.694 -0.3096 -0.1885 -0.0767
  140OSM   H14F15282   3.548   3.951   4.698  0.0346  0.8991  1.3928
  140OSM   H14G15283   3.389   3.900   4.739 -1.7521 -0.1574 -1.6288
  140OSM   C15F15284   3.414   4.103   4.785 -0.4492  0.1230  0.4873
  140OSM   H15F15285   3.326   4.162   4.751 -1.5148 -1.2050  0.8908
  140OSM   H15G15286   3.502   4.172   4.780 -1.3177  1.2240 -0.1800
  140OSM   C16F15287   3.384   4.077   4.933  0.4836  0.0294 -0.5027
  140OSM   H16F15288   3.331   3.980   4.941  0.0821  0.2578 -0.3959
  140OSM   H16G15289   3.319   4.157   4.973  2.2506  0.1979  2.3451
  140OSM   C17F15290   3.504   4.058   5.028 -0.6147  0.9712  0.0554
  140OSM   H17F15291   3.574   4.143   5.017 -0.7274  1.2121  1.1275
  140OSM   H17G15292   3.565   3.968   5.002 -0.6700  0.8897  0.2051
  140OSM   C18F15293   3.467   4.049   5.175  0.2216  0.2152  0.4424
  140OSM   H18F15294   3.398   3.964   5.192 -1.8679  1.8940  0.9315
  140OSM   H18G15295   3.427   4.151   5.197 -0.8973  0.1534 -1.1045
  140OSM   H18H15296   3.553   4.028   5.242  2.0362 -0.2462 -1.8884
  141OSM      N15297   6.160   1.590   2.947  0.6672 -0.8454  0.5158
  141OSM    C1515298   6.063   1.505   3.019 -0.1096  0.0154  0.3777
  141OSM   H15A15299   6.000   1.564   3.084  0.6722  3.3977 -1.6857
  141OSM   H15B15300   6.123   1.443   3.083 -0.6715 -0.6415  0.2797
  141OSM   H15C15301   5.992   1.448   2.960  0.7045 -0.1090 -0.5042
  141OSM    C1415302   6.227   1.507   2.844  0.5769  0.0100 -0.1331
  141OSM   H14A15303   6.286   1.560   2.771 -2.3953 -1.0437 -3.5769
  141OSM   H14B15304   6.153   1.443   2.799  0.6800  0.8270 -1.5035
  141OSM   H14C15305   6.289   1.437   2.899 -1.4701 -1.1223  0.8930
  141OSM    C1315306   6.077   1.694   2.886 -0.1804 -0.4359 -0.0222
  141OSM   H13A15307   6.005   1.652   2.818 -0.3458  1.5315 -1.1486
  141OSM   H13B15308   6.135   1.763   2.826 -1.7506  0.2567 -0.7964
  141OSM   H13C15309   6.030   1.757   2.961 -1.1637 -2.4227  1.1012
  141OSM    C1215310   6.265   1.644   3.037  0.2519  0.2443 -0.0434
  141OSM   H12A15311   6.326   1.714   2.981  1.3973 -0.8352 -0.1811
  141OSM   H12B15312   6.331   1.564   3.067 -0.7987 -0.1669  1.2583
  141OSM    C1115313   6.217   1.723   3.159  0.5573 -0.1574  0.1994
  141OSM   H11A15314   6.305   1.728   3.226 -0.9446 -1.0927  2.3799
  141OSM   H11B15315   6.147   1.659   3.217  0.7291 -0.9183 -0.4068
  141OSM      P15316   6.246   1.970   3.070 -0.4724 -0.3484  0.2652
  141OSM    O1315317   6.350   1.920   2.975 -0.6024 -0.8121 -0.2372
  141OSM    O1415318   6.155   2.077   3.020  0.3821  0.6454 -0.1269
  141OSM    O1115319   6.306   2.014   3.204 -0.8404 -0.1512  0.9876
  141OSM    O1215320   6.158   1.850   3.121 -0.3246 -0.6397 -0.1836
  141OSM    C1S15321   6.235   2.055   3.318  0.7288 -0.5530 -0.2947
  141OSM    H1S15322   6.126   2.037   3.315  0.3109  1.7391 -1.1000
  141OSM    H1T15323   6.245   2.165   3.325 -3.2792 -0.0540 -0.4533
  141OSM     NF15324   6.212   2.041   3.564 -0.5475 -0.2111 -0.1347
  141OSM    HNF15325   6.253   2.113   3.619 -0.8714 -1.7173  2.2126
  141OSM    C2S15326   6.292   1.989   3.448  0.0824 -0.2648  0.4480
  141OSM    H2S15327   6.277   1.879   3.443  2.7511 -0.9956  3.9464
  141OSM    C3S15328   6.448   2.025   3.465 -0.1819 -0.3311 -0.2990
  141OSM    H3S15329   6.470   2.130   3.494  1.3674 -0.3156 -1.3596
  141OSM     O315330   6.524   2.023   3.345 -0.0966 -0.0598 -0.1200
  141OSM    HO315331   6.449   2.017   3.285  0.4835 -1.4060 -0.7426
  141OSM    C4S15332   6.509   1.934   3.571 -0.1547 -0.0951  0.0989
  141OSM    H4S15333   6.510   1.980   3.671  2.3930  2.1039 -0.8137
  141OSM    C5S15334   6.566   1.815   3.564 -0.1660  0.9663  0.0319
  141OSM    H5S15335   6.576   1.771   3.464  0.1074  0.3007  0.3445
  141OSM    C6S15336   6.625   1.731   3.677 -0.2641  0.1216 -0.1203
  141OSM    H6S15337   6.731   1.719   3.649 -0.3340  0.3800 -0.4935
  141OSM    H6T15338   6.581   1.629   3.671  0.7141 -0.2806 -0.4990
  141OSM    C7S15339   6.626   1.783   3.824 -0.0676  0.5499 -0.3135
  141OSM    H7S15340   6.527   1.779   3.874  0.7885  2.2450  1.6863
  141OSM    H7T15341   6.650   1.892   3.825 -3.6276  1.5155 -2.3350
  141OSM    C8S15342   6.722   1.693   3.910  0.5042  0.3194 -0.4065
  141OSM    H8S15343   6.823   1.696   3.863  0.3348  0.3641 -0.7752
  141OSM    H8T15344   6.685   1.589   3.919 -2.5546  1.3861  0.3872
  141OSM    C9S15345   6.751   1.751   4.052 -0.1213 -0.7670 -0.7738
  141OSM    H9S15346   6.793   1.853   4.036 -0.9592 -0.0999  1.0548
  141OSM    H9T15347   6.835   1.688   4.087  1.8099  1.1927 -1.6371
  141OSM   C10S15348   6.636   1.764   4.148  0.0380 -0.0580 -0.3426
  141OSM   H10S15349   6.602   1.658   4.158  1.1961 -0.3876  0.3335
  141OSM   H10T15350   6.556   1.832   4.111  1.1936  0.9242 -1.1146
  141OSM   C11S15351   6.686   1.809   4.292  0.6552  0.6730  0.4148
  141OSM   H11S15352   6.747   1.901   4.280  0.7308  0.4988 -0.7142
  141OSM   H11T15353   6.746   1.729   4.340 -1.5106 -0.5483  1.2214
  141OSM   C12S15354   6.564   1.815   4.389 -0.2249 -0.9449 -0.3004
  141OSM   H12S15355   6.541   1.706   4.396 -0.0609 -0.8955  2.5002
  141OSM   H12T15356   6.477   1.865   4.343 -0.5305 -1.4311 -0.2608
  141OSM   C13S15357   6.591   1.842   4.547  0.4431  0.1548  0.2781
  141OSM   H13S15358   6.590   1.952   4.559  2.8588  0.4164 -1.2372
  141OSM   H13T15359   6.691   1.814   4.585  0.9948  3.0233  1.1639
  141OSM   C14S15360   6.486   1.789   4.640 -0.0235  0.1898 -0.2217
  141OSM   H14S15361   6.478   1.678   4.646  0.0171  0.1697 -0.5460
  141OSM   H14T15362   6.394   1.828   4.592  0.9110  0.2049 -2.0903
  141OSM   C15S15363   6.506   1.856   4.780  0.0785 -0.4223  0.0126
  141OSM   H15S15364   6.541   1.961   4.769  0.8815 -0.4409  2.0141
  141OSM   H15T15365   6.588   1.817   4.844 -0.6347 -0.1784  1.1026
  141OSM   C16S15366   6.380   1.846   4.872  0.4886 -0.7514 -0.3294
  141OSM   H16S15367   6.360   1.739   4.896  0.3214 -0.0566  3.1347
  141OSM   H16T15368   6.287   1.895   4.838  0.7725 -0.5618 -0.8447
  141OSM   C17S15369   6.407   1.915   5.002 -0.2514 -0.9274  0.7309
  141OSM   H17S15370   6.449   2.017   4.995  1.5154 -1.4383  2.8132
  141OSM   H17T15371   6.473   1.850   5.064 -0.9324 -0.7837  1.6433
  141OSM   C18S15372   6.269   1.924   5.076 -0.1684  0.4542 -0.7382
  141OSM   H18S15373   6.232   1.820   5.072 -1.7662  0.7542  2.7271
  141OSM   H18T15374   6.203   1.992   5.017 -0.7818 -1.2966 -2.1565
  141OSM   H18U15375   6.271   1.965   5.179 -2.8599 -0.2183 -0.3571
  141OSM    C1F15376   6.086   1.998   3.582  0.8299 -0.2636 -0.0225
  141OSM     OF15377   6.050   1.912   3.505  0.0712 -0.6054  0.4235
  141OSM    C2F15378   6.011   2.049   3.699  0.2379  0.5162 -0.1932
  141OSM    H2F15379   6.001   2.158   3.681  0.7587  0.3093 -1.8299
  141OSM    H2G15380   6.071   2.037   3.792  0.6284 -0.6039 -0.5629
  141OSM    C3F15381   5.872   1.982   3.712 -0.3670 -0.0463 -0.1162
  141OSM    H3F15382   5.884   1.877   3.748 -1.8177 -0.8505 -1.8244
  141OSM    H3G15383   5.826   1.986   3.611 -1.1950  1.5535  0.2971
  141OSM    C4F15384   5.774   2.053   3.804 -0.4526  0.5939  0.4347
  141OSM    H4F15385   5.672   2.011   3.793 -0.0967  0.2052 -1.6299
  141OSM    H4G15386   5.766   2.163   3.785 -0.8124  0.5232  0.1878
  141OSM    C5F15387   5.821   2.049   3.958  0.5068 -0.0356  0.1857
  141OSM    H5F15388   5.928   2.076   3.971  0.9759 -1.7195  0.0722
  141OSM    H5G15389   5.815   1.943   3.992 -0.9546  0.1714  0.6350
  141OSM    C6F15390   5.733   2.140   4.038 -0.8033 -0.4804  0.6789
  141OSM    H6F15391   5.635   2.088   4.045 -0.0351 -1.9947  0.5934
  141OSM    H6G15392   5.722   2.234   3.980  1.6320 -0.7069 -0.2784
  141OSM    C7F15393   5.788   2.153   4.177 -0.2558  0.5261 -0.1268
  141OSM    H7F15394   5.749   2.247   4.219 -0.6063  0.6081 -0.6266
  141OSM    H7G15395   5.899   2.155   4.190 -0.3819 -1.1602  1.5750
  141OSM    C8F15396   5.724   2.043   4.267 -0.3071 -0.9028 -0.3387
  141OSM    H8F15397   5.763   1.948   4.224  0.6604 -0.6968  0.0673
  141OSM    H8G15398   5.613   2.047   4.264 -0.2989 -0.5175 -0.1315
  141OSM    C9F15399   5.789   2.064   4.398 -0.4438  0.1753  0.1558
  141OSM    H9F15400   5.897   2.083   4.392 -0.2883 -0.5025  0.6656
  141OSM   C10F15401   5.724   2.066   4.515 -0.0839 -0.4275  0.5634
  141OSM   H10F15402   5.784   2.095   4.602 -0.6720 -0.6676  1.0592
  141OSM   C11F15403   5.579   2.054   4.540 -0.0437 -0.0240 -0.1989
  141OSM   H11F15404   5.534   1.964   4.494  2.0086 -1.8530  1.2095
  141OSM   H11G15405   5.520   2.138   4.496 -1.6045 -1.6164 -1.2592
  141OSM   C12F15406   5.526   2.053   4.685 -0.4957  0.5397  0.4138
  141OSM   H12F15407   5.571   2.137   4.742 -0.9103  0.9411  0.1648
  141OSM   H12G15408   5.563   1.953   4.714 -2.0731 -0.7523 -1.7105
  141OSM   C13F15409   5.374   2.045   4.698  0.0952  0.0939 -0.1035
  141OSM   H13F15410   5.345   2.034   4.805  1.2331 -3.9641 -0.0482
  141OSM   H13G15411   5.347   1.958   4.635  0.3552 -1.0913  1.3685
  141OSM   C14F15412   5.295   2.178   4.656 -0.0880  0.6069  0.0755
  141OSM   H14F15413   5.311   2.204   4.549 -3.4146 -0.8716 -0.9284
  141OSM   H14G15414   5.336   2.262   4.717  1.4584 -0.7540  0.9962
  141OSM   C15F15415   5.148   2.169   4.661  0.1318 -0.8218 -0.4065
  141OSM   H15F15416   5.120   2.074   4.611 -1.4743 -0.2778 -0.5960
  141OSM   H15G15417   5.103   2.248   4.598 -0.6962 -1.6293 -0.8526
  141OSM   C16F15418   5.089   2.168   4.802 -0.1715 -0.4220 -0.3135
  141OSM   H16F15419   5.138   2.083   4.852 -0.4502 -0.0824  0.5487
  141OSM   H16G15420   4.978   2.162   4.801 -0.1638 -0.7260  0.3278
  141OSM   C17F15421   5.138   2.292   4.883 -0.2696  0.3460 -0.3903
  141OSM   H17F15422   5.159   2.377   4.814  2.5508 -0.4017 -0.5746
  141OSM   H17G15423   5.235   2.264   4.930 -1.0660 -1.4200  0.2770
  141OSM   C18F15424   5.040   2.338   4.992 -0.0762 -0.0693 -0.2076
  141OSM   H18F15425   5.089   2.405   5.065 -0.4929  0.2212 -0.1894
  141OSM   H18G15426   5.010   2.247   5.048 -0.9348  1.6608  2.3090
  141OSM   H18H15427   4.944   2.389   4.968 -2.1146 -2.0652  2.9519
  142OSM      N15428   6.799   5.103   2.789  0.0317  0.5603  0.1678
  142OSM    C1515429   6.655   5.077   2.795 -0.0547  0.4361  0.0244
  142OSM   H15A15430   6.600   5.164   2.828  0.3752  0.8724 -0.3764
  142OSM   H15B15431   6.634   5.000   2.867  0.0476 -1.6687 -2.0677
  142OSM   H15C15432   6.606   5.051   2.702 -0.9562 -1.9096  1.1002
  142OSM    C1415433   6.877   4.989   2.729  0.0620 -0.5252 -0.4808
  142OSM   H14A15434   6.977   5.027   2.716  0.2412  0.0000  1.9868
  142OSM   H14B15435   6.840   4.972   2.629 -1.3006  1.9242 -0.4495
  142OSM   H14C15436   6.878   4.904   2.797  0.7138  1.9008  2.7893
  142OSM    C1315437   6.830   5.224   2.697 -0.4166  0.4038 -0.1984
  142OSM   H13A15438   6.937   5.230   2.679 -0.3409 -0.1819  0.0102
  142OSM   H13B15439   6.796   5.320   2.733  4.0747  3.4704 -3.0155
  142OSM   H13C15440   6.775   5.217   2.605 -0.2887  0.4699 -0.2812
  142OSM    C1215441   6.854   5.129   2.931  0.1698 -0.3889 -0.0148
  142OSM   H12A15442   6.804   5.221   2.959 -0.1319 -0.4980 -0.1879
  142OSM   H12B15443   6.957   5.161   2.939  0.1935 -0.7331  1.2670
  142OSM    C1115444   6.832   5.026   3.048  0.3030  0.5422  0.4224
  142OSM   H11A15445   6.731   5.042   3.092 -0.0437  0.5174 -0.3479
  142OSM   H11B15446   6.915   5.046   3.119 -0.1338  0.4985  0.9532
  142OSM      P15447   6.749   4.778   2.996  0.5434  0.2251  0.1108
  142OSM    O1315448   6.611   4.832   3.008 -0.4364  0.4060  0.7183
  142OSM    O1415449   6.778   4.690   2.883 -0.2965  0.0257 -0.2401
  142OSM    O1115450   6.774   4.701   3.130 -0.1539 -0.1007  0.0627
  142OSM    O1215451   6.854   4.890   3.002  0.2733 -0.3299  0.5079
  142OSM    C1S15452   6.796   4.765   3.257  0.6234  0.1649 -0.5432
  142OSM    H1S15453   6.729   4.853   3.271  1.0034  0.4800 -0.6684
  142OSM    H1T15454   6.902   4.796   3.275  0.9617 -0.7994 -0.8407
  142OSM     NF15455   6.769   4.752   3.501 -0.2345  0.4368 -0.2110
  142OSM    HNF15456   6.852   4.764   3.554 -0.3303  0.8899 -0.1600
  142OSM    C2S15457   6.764   4.670   3.384  0.2578  0.2530 -0.5415
  142OSM    H2S15458   6.659   4.634   3.376  0.4085 -0.2524 -0.2894
  142OSM    C3S15459   6.862   4.546   3.367  0.6566 -0.0090  0.2993
  142OSM    H3S15460   6.967   4.582   3.367  0.2086  1.3758 -0.8262
  142OSM     O315461   6.844   4.472   3.243  1.1146  0.3751 -0.0200
  142OSM    HO315462   6.783   4.532   3.199  0.2339  1.2921  2.2736
  142OSM    C4S15463   6.849   4.447   3.479 -0.1313  0.8150  0.2127
  142OSM    H4S15464   6.877   4.489   3.576 -0.2299 -0.1408  0.6637
  142OSM    C5S15465   6.807   4.319   3.479  0.2954 -0.2502 -0.2430
  142OSM    H5S15466   6.778   4.280   3.380 -0.8572  1.6555 -0.7254
  142OSM    C6S15467   6.779   4.226   3.590  0.2810  0.3143  0.2654
  142OSM    H6S15468   6.844   4.137   3.596  0.6235  0.3340 -2.1410
  142OSM    H6T15469   6.681   4.175   3.575  0.9795 -1.9657  2.6409
  142OSM    C7S15470   6.783   4.287   3.727 -0.6912 -0.3773 -0.4054
  142OSM    H7S15471   6.696   4.357   3.728 -0.4820 -0.1254  0.2746
  142OSM    H7T15472   6.876   4.346   3.736 -1.4324  0.7083  0.2910
  142OSM    C8S15473   6.781   4.171   3.831  0.6988 -0.1000  0.5386
  142OSM    H8S15474   6.870   4.107   3.810  0.6847  0.7180 -2.4401
  142OSM    H8T15475   6.690   4.110   3.815  1.0445 -0.0366 -2.0759
  142OSM    C9S15476   6.767   4.217   3.980 -0.3759  0.0014  0.2020
  142OSM    H9S15477   6.719   4.136   4.040  1.4760 -0.8931  0.5283
  142OSM    H9T15478   6.699   4.305   3.981 -0.4626 -0.0433 -0.5968
  142OSM   C10S15479   6.890   4.264   4.048 -0.0201  0.3406  0.1213
  142OSM   H10S15480   6.945   4.334   3.982  2.1871  0.1192  1.6137
  142OSM   H10T15481   6.955   4.178   4.075  2.1817  2.3463  1.5974
  142OSM   C11S15482   6.845   4.336   4.180 -0.1247 -0.4212  0.3169
  142OSM   H11S15483   6.934   4.371   4.237  1.4495 -0.4921 -1.9456
  142OSM   H11T15484   6.780   4.258   4.223 -1.9124  1.1751  0.6428
  142OSM   C12S15485   6.754   4.460   4.171  0.1436  0.4560  0.6827
  142OSM   H12S15486   6.654   4.427   4.137  0.6896  1.3164 -2.0212
  142OSM   H12T15487   6.790   4.520   4.084  0.6933  0.6155  1.0130
  142OSM   C13S15488   6.746   4.545   4.299  0.6180 -0.7944  0.4455
  142OSM   H13S15489   6.849   4.577   4.323 -0.1810  3.3420 -0.8000
  142OSM   H13T15490   6.701   4.488   4.383  0.4173  1.0394  1.6419
  142OSM   C14S15491   6.659   4.668   4.264 -0.2884  0.3451  0.2214
  142OSM   H14S15492   6.559   4.622   4.248 -0.1032  0.0975 -0.2799
  142OSM   H14T15493   6.698   4.713   4.170  2.0112 -1.8133  0.0300
  142OSM   C15S15494   6.649   4.763   4.380 -0.5083  0.2184  0.3812
  142OSM   H15S15495   6.590   4.856   4.369  0.6459  0.8328 -1.0165
  142OSM   H15T15496   6.751   4.806   4.391 -0.4308 -0.3632  2.3206
  142OSM   C16S15497   6.605   4.698   4.509  0.4623  0.1718 -0.0165
  142OSM   H16S15498   6.679   4.630   4.556  0.3522  0.9060  1.2585
  142OSM   H16T15499   6.511   4.641   4.495 -1.4105  2.3665  2.4798
  142OSM   C17S15500   6.564   4.803   4.610 -0.4229  0.1535  0.4956
  142OSM   H17S15501   6.510   4.886   4.559 -2.1574  0.0451  2.0685
  142OSM   H17T15502   6.654   4.854   4.650 -2.6264  4.0358  1.0340
  142OSM   C18S15503   6.472   4.757   4.723 -0.1040  0.7028 -0.0250
  142OSM   H18S15504   6.380   4.720   4.672 -0.9657  2.4154  0.2111
  142OSM   H18T15505   6.439   4.846   4.780 -2.5173  0.0856 -0.3402
  142OSM   H18U15506   6.529   4.690   4.791  0.2713  1.0709  0.0282
  142OSM    C1F15507   6.675   4.828   3.551 -0.5796 -0.3906  0.5852
  142OSM     OF15508   6.583   4.859   3.477  0.2284  0.2521  0.3150
  142OSM    C2F15509   6.684   4.862   3.694  0.3851  0.1574 -0.4196
  142OSM    H2F15510   6.744   4.955   3.705 -0.2519  0.4294  0.9358
  142OSM    H2G15511   6.752   4.786   3.740  0.9757  0.5692 -0.6038
  142OSM    C3F15512   6.549   4.876   3.766  0.5162 -0.0428  0.3666
  142OSM    H3F15513   6.560   4.880   3.876  0.8052  0.4541  0.3259
  142OSM    H3G15514   6.502   4.776   3.755  0.0814 -0.1284  2.5828
  142OSM    C4F15515   6.454   4.994   3.733  0.1393  0.0859  0.0780
  142OSM    H4F15516   6.423   4.984   3.627 -1.1328 -1.4371  0.5402
  142OSM    H4G15517   6.514   5.087   3.743 -1.3802  1.2709 -1.2043
  142OSM    C5F15518   6.322   5.018   3.814  0.3353  0.9106  0.0927
  142OSM    H5F15519   6.262   5.103   3.778  0.8829  1.1321 -0.3021
  142OSM    H5G15520   6.349   5.037   3.920  0.2730  1.4733  0.0064
  142OSM    C6F15521   6.236   4.887   3.793 -0.2354 -0.9301 -0.4466
  142OSM    H6F15522   6.275   4.824   3.876  0.2777  0.9051  0.7720
  142OSM    H6G15523   6.267   4.864   3.689  0.7418  2.7575 -1.0962
  142OSM    C7F15524   6.084   4.919   3.810  0.4012 -0.1305 -0.1522
  142OSM    H7F15525   6.036   4.820   3.792  1.0952 -0.9450  2.0420
  142OSM    H7G15526   6.061   5.000   3.738  2.0636  0.6320  0.1370
  142OSM    C8F15527   6.060   4.963   3.959  0.6946 -0.0327 -0.5460
  142OSM    H8F15528   5.963   5.016   3.960 -0.2097 -1.6134  0.7763
  142OSM    H8G15529   6.135   5.041   3.986 -1.1657  1.6354 -0.0330
  142OSM    C9F15530   6.047   4.853   4.067 -0.6474 -0.3499  1.5344
  142OSM    H9F15531   5.974   4.776   4.038  0.8953 -0.5541 -2.4929
  142OSM   C10F15532   6.125   4.849   4.175  0.1278  0.7885  0.5908
  142OSM   H10F15533   6.107   4.766   4.245  1.2049  0.6752  0.7553
  142OSM   C11F15534   6.237   4.941   4.215 -0.3408  0.0410  0.2415
  142OSM   H11F15535   6.216   5.048   4.194 -1.7089 -0.3527 -0.5476
  142OSM   H11G15536   6.326   4.907   4.157 -2.0552  2.1502 -4.0929
  142OSM   C12F15537   6.266   4.915   4.359 -0.3518 -0.6711  0.2738
  142OSM   H12F15538   6.367   4.961   4.369 -0.7413  0.0011  1.2823
  142OSM   H12G15539   6.285   4.811   4.391  2.1334  0.2633  2.2090
  142OSM   C13F15540   6.174   4.999   4.451  0.2656 -0.1477 -0.2691
  142OSM   H13F15541   6.077   4.945   4.450  0.1694  0.0276 -0.4953
  142OSM   H13G15542   6.167   5.097   4.400  0.8580  0.2912  0.4788
  142OSM   C14F15543   6.233   5.004   4.595  0.0944  0.2880 -0.1862
  142OSM   H14F15544   6.342   5.019   4.580  0.0826 -0.3689 -1.0046
  142OSM   H14G15545   6.220   4.900   4.633 -0.4565 -0.1838 -1.6140
  142OSM   C15F15546   6.170   5.109   4.689  0.2395 -0.0236  0.4133
  142OSM   H15F15547   6.063   5.083   4.702 -0.0193  0.5842 -0.4280
  142OSM   H15G15548   6.162   5.209   4.642 -1.1754 -0.4456 -0.3123
  142OSM   C16F15549   6.220   5.102   4.827 -0.0911 -0.6141 -0.9461
  142OSM   H16F15550   6.322   5.145   4.827 -0.8834  1.4928  0.9480
  142OSM   H16G15551   6.230   4.997   4.862  2.5068  0.1749  0.9416
  142OSM   C17F15552   6.140   5.181   4.931 -0.4071 -0.6546  0.3254
  142OSM   H17F15553   6.032   5.161   4.919 -0.6422  0.9739 -0.5411
  142OSM   H17G15554   6.155   5.286   4.899 -0.2724 -0.8883 -0.3875
  142OSM   C18F15555   6.192   5.137   5.073  0.5574  0.2343  0.4521
  142OSM   H18F15556   6.131   5.185   5.152 -1.2567 -0.7407 -0.2956
  142OSM   H18G15557   6.303   5.134   5.078  0.5268 -0.4708  0.7887
  142OSM   H18H15558   6.164   5.030   5.082 -0.3877  0.1636 -2.3845
  143OSM      N15559   0.823   2.440   3.084 -0.4045 -0.2354 -0.3889
  143OSM    C1515560   0.960   2.462   3.116  0.2576  0.2082  0.0582
  143OSM   H15A15561   1.003   2.504   3.026 -1.9156 -1.4556 -1.9151
  143OSM   H15B15562   1.007   2.368   3.138  0.5088  0.3197 -0.0064
  143OSM   H15C15563   0.980   2.525   3.201 -0.6863 -1.6413  1.7297
  143OSM    C1415564   0.756   2.569   3.041  0.5463  0.3910 -0.3386
  143OSM   H14A15565   0.648   2.565   3.045  0.1448  0.8054 -5.0271
  143OSM   H14B15566   0.768   2.587   2.935  0.3878  0.6844 -0.3069
  143OSM   H14C15567   0.788   2.655   3.097 -0.4028  0.2503  0.4496
  143OSM    C1315568   0.807   2.348   2.965 -0.2238  0.1748 -0.3908
  143OSM   H13A15569   0.821   2.244   2.992  2.5374  0.9411  1.4434
  143OSM   H13B15570   0.875   2.371   2.884  1.5800 -1.5434  0.5567
  143OSM   H13C15571   0.705   2.361   2.932 -0.1430  4.0441  0.4101
  143OSM    C1215572   0.747   2.381   3.205 -0.6043  0.4678  0.5778
  143OSM   H12A15573   0.783   2.429   3.295  0.9162 -0.0482  0.2695
  143OSM   H12B15574   0.771   2.276   3.207 -0.5536  0.4314 -0.9816
  143OSM    C1115575   0.593   2.379   3.202 -0.0525  0.5980  0.1747
  143OSM   H11A15576   0.557   2.484   3.195 -2.2649 -0.1586 -0.3656
  143OSM   H11B15577   0.562   2.350   3.305 -0.7952  3.0583  0.7112
  143OSM      P15578   0.407   2.315   3.029 -0.1477  0.0597  0.1709
  143OSM    O1315579   0.422   2.434   2.942  0.8693 -0.1660  0.3531
  143OSM    O1415580   0.369   2.191   2.956 -0.2932 -0.0692 -0.5024
  143OSM    O1115581   0.306   2.340   3.151 -0.2304 -0.9603 -0.3253
  143OSM    O1215582   0.545   2.288   3.098  0.6399  0.2401  0.4831
  143OSM    C1S15583   0.282   2.258   3.261  0.1126  0.5304  0.0495
  143OSM    H1S15584   0.370   2.197   3.292 -1.5766 -1.6301  0.8540
  143OSM    H1T15585   0.207   2.179   3.238  1.4254 -1.5045  2.2868
  143OSM     NF15586   0.228   2.263   3.502  0.1023  0.7394  0.7029
  143OSM    HNF15587   0.141   2.259   3.551  0.2869  0.0716  0.9817
  143OSM    C2S15588   0.233   2.342   3.378 -0.6399 -0.5961 -0.0117
  143OSM    H2S15589   0.319   2.412   3.383 -1.1386 -0.0179  0.6178
  143OSM    C3S15590   0.106   2.415   3.339  0.0685 -0.6001  0.5071
  143OSM    H3S15591   0.037   2.345   3.287  1.5392 -1.5934 -0.1681
  143OSM     O315592   0.114   2.508   3.234 -0.0154 -0.2173 -0.1322
  143OSM    HO315593   0.196   2.477   3.196 -0.2888 -1.0394 -0.0854
  143OSM    C4S15594   0.034   2.469   3.466  0.4120 -0.1844 -0.0317
  143OSM    H4S15595  -0.047   2.406   3.507  1.2098  0.4028  2.6835
  143OSM    C5S15596   0.047   2.592   3.525  0.2006 -0.2242  0.1086
  143OSM    H5S15597   0.119   2.666   3.488  0.9883 -0.1607  1.7148
  143OSM    C6S15598  -0.041   2.634   3.643 -0.1635 -0.4043  0.6478
  143OSM    H6S15599  -0.096   2.548   3.687  1.7645 -1.1636  1.6891
  143OSM    H6T15600  -0.109   2.712   3.603 -0.8662  0.0742  2.6285
  143OSM    C7S15601   0.041   2.698   3.751  0.2618 -0.1425 -0.4484
  143OSM    H7S15602   0.095   2.784   3.704  1.9547 -1.2660 -0.6642
  143OSM    H7T15603   0.123   2.627   3.774  4.3781  3.5328 -2.0706
  143OSM    C8S15604  -0.038   2.742   3.873  0.3344 -0.3887  0.5449
  143OSM    H8S15605  -0.110   2.661   3.896  1.8068 -1.7591  0.4984
  143OSM    H8T15606  -0.097   2.831   3.841  1.1498 -0.1692 -0.4122
  143OSM    C9S15607   0.050   2.776   3.994  0.0513 -0.3583 -0.1254
  143OSM    H9S15608   0.148   2.820   3.965 -0.0171  0.6742  1.1007
  143OSM    H9T15609   0.089   2.678   4.031 -1.3652 -0.7130  0.4808
  143OSM   C10S15610  -0.015   2.852   4.106  0.4703  0.0547  0.4017
  143OSM   H10S15611  -0.117   2.811   4.125  0.4747  0.3477  1.0984
  143OSM   H10T15612  -0.020   2.961   4.086 -0.8315 -0.2291 -1.0201
  143OSM   C11S15613   0.051   2.820   4.240  0.2550 -0.8490 -0.6280
  143OSM   H11S15614   0.160   2.836   4.231 -0.2065  2.1790 -2.1742
  143OSM   H11T15615   0.040   2.712   4.266  1.3225 -0.8114  0.0334
  143OSM   C12S15616  -0.004   2.891   4.368  0.4206  0.0491  0.7593
  143OSM   H12S15617  -0.113   2.868   4.368  0.7706 -1.7748  0.0308
  143OSM   H12T15618   0.005   2.999   4.344  1.0698 -0.2767 -0.5752
  143OSM   C13S15619   0.065   2.856   4.499  0.5612  1.1875 -0.3999
  143OSM   H13S15620   0.165   2.905   4.497  1.7899 -1.1581 -0.6897
  143OSM   H13T15621   0.083   2.746   4.502  0.1922  1.1090 -0.9313
  143OSM   C14S15622  -0.005   2.911   4.621  0.3327  0.2724 -0.2542
  143OSM   H14S15623  -0.103   2.862   4.640  0.6723 -0.0602  0.7107
  143OSM   H14T15624  -0.023   3.016   4.587  0.5495  0.5964  0.6093
  143OSM   C15S15625   0.070   2.906   4.755  0.1397 -0.1956 -0.1452
  143OSM   H15S15626   0.028   2.983   4.824 -1.1819 -2.7070  2.0153
  143OSM   H15T15627   0.179   2.926   4.743  0.4482 -1.0196  1.1164
  143OSM   C16S15628   0.063   2.766   4.825  0.1185 -0.6031 -0.6222
  143OSM   H16S15629   0.097   2.687   4.755 -1.8755 -0.5788 -1.6937
  143OSM   H16T15630  -0.040   2.745   4.860  0.2725 -0.2881  0.0389
  143OSM   C17S15631   0.150   2.767   4.953 -0.4895  0.4365 -0.1313
  143OSM   H17S15632   0.135   2.854   5.021 -1.2040  1.0824 -1.0892
  143OSM   H17T15633   0.258   2.773   4.925  0.7551 -2.0679  3.3862
  143OSM   C18S15634   0.146   2.642   5.041 -0.1914  0.8049 -0.6401
  143OSM   H18S15635   0.199   2.645   5.139 -1.6891 -0.1663  0.2403
  143OSM   H18T15636   0.187   2.563   4.974 -0.6827  0.8243 -0.9655
  143OSM   H18U15637   0.039   2.617   5.054  0.1378  0.2595  1.3369
  143OSM    C1F15638   0.337   2.216   3.563 -0.3487 -0.0279  0.4147
  143OSM     OF15639   0.453   2.237   3.518  0.4098  0.0485 -0.6777
  143OSM    C2F15640   0.313   2.138   3.681 -0.5003 -0.1826  0.3881
  143OSM    H2F15641   0.246   2.053   3.656  2.0291 -1.2279 -3.8442
  143OSM    H2G15642   0.259   2.202   3.754 -0.6206 -0.8161  0.8564
  143OSM    C3F15643   0.439   2.068   3.746  0.3656 -0.2347 -0.5849
  143OSM    H3F15644   0.515   2.147   3.764  1.2719 -1.5977  2.2093
  143OSM    H3G15645   0.474   1.984   3.682  1.1283 -1.1101  0.9294
  143OSM    C4F15646   0.416   2.031   3.891  0.4887  0.2491 -0.0535
  143OSM    H4F15647   0.333   1.958   3.887  1.4757 -1.1856  2.6520
  143OSM    H4G15648   0.371   2.113   3.951 -0.1808 -0.9758  1.1704
  143OSM    C5F15649   0.537   1.983   3.969 -0.8836  0.4455  0.2882
  143OSM    H5F15650   0.624   2.051   3.950 -0.3672  0.1604  1.5504
  143OSM    H5G15651   0.567   1.884   3.929  1.7702  0.6394  1.5481
  143OSM    C6F15652   0.515   1.947   4.120  0.7308 -0.1695  0.4199
  143OSM    H6F15653   0.584   1.867   4.155 -0.4231 -1.4854 -0.2117
  143OSM    H6G15654   0.408   1.916   4.129  0.4900 -0.0013 -1.3348
  143OSM    C7F15655   0.544   2.067   4.211  0.6741 -0.2449  0.1406
  143OSM    H7F15656   0.476   2.144   4.168  1.0512 -0.7359 -1.3698
  143OSM    H7G15657   0.652   2.088   4.193  0.6165 -1.3905 -1.7500
  143OSM    C8F15658   0.503   2.039   4.359 -0.2053 -0.3829 -0.1348
  143OSM    H8F15659   0.564   1.951   4.390  1.8267  1.6718  2.1437
  143OSM    H8G15660   0.396   2.018   4.375  0.2094 -0.9554  2.4166
  143OSM    C9F15661   0.540   2.140   4.463 -0.5499 -0.1588  0.9834
  143OSM    H9F15662   0.563   2.237   4.416 -0.7081 -1.5872 -2.2939
  143OSM   C10F15663   0.528   2.131   4.591  0.2575 -0.3753 -0.4216
  143OSM   H10F15664   0.544   2.222   4.651 -1.3259  0.8105 -1.7234
  143OSM   C11F15665   0.472   2.011   4.662 -0.9674  0.5542 -0.2585
  143OSM   H11F15666   0.456   1.931   4.587 -3.0352  0.6517  0.0370
  143OSM   H11G15667   0.378   2.032   4.716 -0.9408 -1.6992  0.7682
  143OSM   C12F15668   0.575   1.955   4.773 -0.2452 -0.6351 -0.5223
  143OSM   H12F15669   0.674   1.963   4.723  1.2664  0.9380  2.4940
  143OSM   H12G15670   0.544   1.853   4.802 -1.8101 -0.1007 -0.1780
  143OSM   C13F15671   0.568   2.034   4.903  0.3342  0.6032  0.8687
  143OSM   H13F15672   0.469   2.016   4.948  0.0131  0.8361  0.2651
  143OSM   H13G15673   0.586   2.142   4.881  0.9840  0.4463  0.5949
  143OSM   C14F15674   0.678   2.001   5.011  0.3765  0.2187 -0.0588
  143OSM   H14F15675   0.698   1.892   5.018  0.3129  0.2272  0.2393
  143OSM   H14G15676   0.641   2.028   5.112  0.7895  3.7167 -0.7062
  143OSM   C15F15677   0.815   2.060   4.997 -0.5466 -0.2682  0.5598
  143OSM   H15F15678   0.807   2.170   4.986 -1.0445 -0.4408 -1.0563
  143OSM   H15G15679   0.855   2.023   4.900  0.5850 -1.7625  1.5539
  143OSM   C16F15680   0.917   2.000   5.102 -0.1222  0.0291  0.0964
  143OSM   H16F15681   1.019   2.030   5.071  0.0963 -0.1068  0.6793
  143OSM   H16G15682   0.929   1.890   5.103 -2.3773 -0.2630  0.0148
  143OSM   C17F15683   0.885   2.034   5.243 -0.3293  0.2605 -0.5487
  143OSM   H17F15684   0.950   1.978   5.315 -3.6220  1.3786  3.7263
  143OSM   H17G15685   0.788   1.989   5.273  1.0475 -1.5091  1.6415
  143OSM   C18F15686   0.887   2.184   5.285 -0.5897 -0.6101 -0.1380
  143OSM   H18F15687   0.819   2.244   5.221  0.5352  0.9163  0.0640
  143OSM   H18G15688   0.991   2.222   5.290 -0.9418  0.2105  2.3617
  143OSM   H18H15689   0.852   2.195   5.390  0.9278  0.7966  0.2582
  144OSM      N15690   6.627   2.304   3.064  0.2816  0.1508  0.7243
  144OSM    C1515691   6.569   2.171   3.025  0.6595  0.0138 -0.5950
  144OSM   H15A15692   6.586   2.152   2.919 -4.3528  1.1288 -1.8671
  144OSM   H15B15693   6.464   2.182   3.047  0.9932 -0.3898  1.3982
  144OSM   H15C15694   6.596   2.095   3.096 -0.7569  1.1377  1.2099
  144OSM    C1415695   6.772   2.302   3.046  0.5125 -0.1418  0.1672
  144OSM   H14A15696   6.796   2.256   2.951 -2.5850  0.1837 -0.8820
  144OSM   H14B15697   6.825   2.262   3.131 -0.3803  1.2590  1.4179
  144OSM   H14C15698   6.801   2.406   3.039 -3.2025  1.1155  1.3300
  144OSM    C1315699   6.562   2.407   2.975 -0.1775  0.2695 -0.0361
  144OSM   H13A15700   6.601   2.501   3.012  2.6269 -0.5667 -0.6295
  144OSM   H13B15701   6.454   2.411   2.979 -0.2094 -0.7106  0.2361
  144OSM   H13C15702   6.592   2.399   2.871 -2.2533  1.5111 -0.8011
  144OSM    C1215703   6.593   2.336   3.212 -1.3148  0.1304 -0.0561
  144OSM   H12A15704   6.658   2.278   3.275 -1.1382  0.0949 -0.2680
  144OSM   H12B15705   6.492   2.301   3.229 -1.0061 -0.2931  0.9845
  144OSM    C1115706   6.607   2.479   3.265  0.5574  0.3926  0.5537
  144OSM   H11A15707   6.711   2.519   3.257  0.9450 -0.3894  1.5369
  144OSM   H11B15708   6.595   2.470   3.375  1.5937 -0.1490  0.6377
  144OSM      P15709   6.359   2.565   3.260 -0.0083 -0.0323  0.4166
  144OSM    O1315710   6.282   2.669   3.179 -0.2587  0.2396 -0.3794
  144OSM    O1415711   6.322   2.424   3.248 -0.0069 -0.3045 -0.1009
  144OSM    O1115712   6.364   2.613   3.410  0.2084  0.2904  0.4349
  144OSM    O1215713   6.510   2.573   3.209  0.4059 -0.7032  0.3141
  144OSM    C1S15714   6.435   2.732   3.449  0.4146  0.2011  0.5559
  144OSM    H1S15715   6.381   2.814   3.396 -0.3612 -1.3829 -1.2250
  144OSM    H1T15716   6.542   2.731   3.421  0.4654 -3.1079  0.5210
  144OSM     NF15717   6.500   2.887   3.633  0.1398  0.1122  0.2741
  144OSM    HNF15718   6.579   2.888   3.694  0.9655 -0.0311 -0.7612
  144OSM    C2S15719   6.431   2.757   3.602 -0.4293 -0.4033  0.2000
  144OSM    H2S15720   6.323   2.759   3.630 -0.7523  0.7976 -0.9771
  144OSM    C3S15721   6.490   2.635   3.681 -0.1563  0.6047  0.2440
  144OSM    H3S15722   6.596   2.630   3.648 -0.7963  3.3635 -2.6462
  144OSM     O315723   6.424   2.511   3.646 -0.2951  0.7315  0.0563
  144OSM    HO315724   6.388   2.543   3.563  1.7503 -0.2030 -1.2606
  144OSM    C4S15725   6.491   2.652   3.837  0.8471  0.1252  0.0920
  144OSM    H4S15726   6.595   2.648   3.872  1.6519 -2.0950 -2.2680
  144OSM    C5S15727   6.386   2.640   3.923  0.3314  0.5544  0.3725
  144OSM    H5S15728   6.290   2.598   3.889  0.2230 -0.5840  1.9883
  144OSM    C6S15729   6.402   2.637   4.068  0.2967 -0.2638  0.3548
  144OSM    H6S15730   6.415   2.536   4.110 -1.3010 -0.6834 -0.0921
  144OSM    H6T15731   6.312   2.687   4.109  1.5705  2.3774  0.1989
  144OSM    C7S15732   6.523   2.720   4.118 -0.4299  0.3887  0.0386
  144OSM    H7S15733   6.517   2.831   4.108 -0.1903  0.3868 -0.1437
  144OSM    H7T15734   6.615   2.674   4.075 -0.2266 -0.2927  1.1844
  144OSM    C8S15735   6.538   2.703   4.271  0.0130  0.1640  0.4891
  144OSM    H8S15736   6.647   2.714   4.284  0.4382 -1.1784 -1.4570
  144OSM    H8T15737   6.511   2.598   4.298 -2.3830  0.2724 -1.1872
  144OSM    C9S15738   6.459   2.805   4.349  0.4809  0.2289  0.7622
  144OSM    H9S15739   6.352   2.791   4.324  0.7504 -0.8966  0.1930
  144OSM    H9T15740   6.483   2.904   4.303 -1.2688 -0.3005 -1.4338
  144OSM   C10S15741   6.473   2.813   4.500  0.3615 -0.1974  0.6623
  144OSM   H10S15742   6.416   2.902   4.536 -1.2865 -0.9138 -0.0708
  144OSM   H10T15743   6.577   2.832   4.534  0.2257  0.9367  0.4845
  144OSM   C11S15744   6.419   2.684   4.574 -0.1413 -0.0685 -0.5812
  144OSM   H11S15745   6.470   2.596   4.530  1.6983  1.4506 -1.6102
  144OSM   H11T15746   6.312   2.691   4.543 -0.2955  0.7363  0.1064
  144OSM   C12S15747   6.432   2.688   4.728 -0.4189 -0.2483 -0.7015
  144OSM   H12S15748   6.363   2.614   4.774 -2.4335  2.4453  0.9015
  144OSM   H12T15749   6.399   2.786   4.769  1.9422  0.3001  0.0133
  144OSM   C13S15750   6.578   2.669   4.780  0.5716 -0.5706  0.2945
  144OSM   H13S15751   6.635   2.757   4.743  0.0667  0.2390  1.3816
  144OSM   H13T15752   6.621   2.578   4.731  0.2466 -0.8889  0.5955
  144OSM   C14S15753   6.592   2.650   4.935 -0.2102 -0.1062 -0.1781
  144OSM   H14S15754   6.517   2.717   4.982 -0.3326  1.1244 -2.0330
  144OSM   H14T15755   6.698   2.674   4.958  0.8356 -1.9246 -2.5830
  144OSM   C15S15756   6.548   2.517   4.991  0.0783 -0.0921 -0.0695
  144OSM   H15S15757   6.601   2.436   4.936 -0.0366 -1.7813  2.1739
  144OSM   H15T15758   6.440   2.493   4.986 -0.0496  0.4963 -0.1130
  144OSM   C16S15759   6.596   2.507   5.143  0.0844 -0.8107 -0.2233
  144OSM   H16S15760   6.534   2.574   5.206 -1.6940 -1.9420 -0.6908
  144OSM   H16T15761   6.701   2.543   5.147 -0.7378  1.7111  3.3403
  144OSM   C17S15762   6.573   2.365   5.193 -1.1759 -0.6849 -0.4047
  144OSM   H17S15763   6.640   2.301   5.130  1.4731  1.2921  0.2291
  144OSM   H17T15764   6.467   2.341   5.170 -1.4860  0.5872 -0.3323
  144OSM   C18S15765   6.601   2.346   5.343  0.3271  0.4510 -0.1818
  144OSM   H18S15766   6.703   2.386   5.363  0.9910 -1.0596 -0.3962
  144OSM   H18T15767   6.601   2.239   5.374 -3.1262  0.0142 -1.2841
  144OSM   H18U15768   6.524   2.399   5.403 -0.0181 -0.5040  0.2446
  144OSM    C1F15769   6.456   3.009   3.602  0.4934  0.0640 -0.3392
  144OSM     OF15770   6.338   3.027   3.567 -0.0882 -0.3870  0.5645
  144OSM    C2F15771   6.548   3.121   3.619  0.1870 -0.0388  0.3129
  144OSM    H2F15772   6.496   3.220   3.618  0.8913  0.3443  0.7382
  144OSM    H2G15773   6.614   3.116   3.530  1.3009  1.8330  0.9665
  144OSM    C3F15774   6.638   3.122   3.744 -0.2545  0.4250 -0.7659
  144OSM    H3F15775   6.700   3.214   3.732  1.9003 -0.7334  0.7178
  144OSM    H3G15776   6.706   3.034   3.753 -1.6497 -0.4356  2.5718
  144OSM    C4F15777   6.565   3.146   3.877  0.7631  0.0854  0.3733
  144OSM    H4F15778   6.501   3.056   3.886  0.2768  0.3068 -0.7450
  144OSM    H4G15779   6.497   3.234   3.871  0.8927  0.2395  1.0436
  144OSM    C5F15780   6.661   3.168   3.993  0.4169 -0.1531 -0.5133
  144OSM    H5F15781   6.711   3.266   3.976  1.3330 -0.7426 -1.3703
  144OSM    H5G15782   6.744   3.097   4.015  0.5623  0.8792  2.7891
  144OSM    C6F15783   6.581   3.155   4.125 -0.5130 -0.5433  0.3837
  144OSM    H6F15784   6.542   3.053   4.110  0.6043 -1.2072  1.7447
  144OSM    H6G15785   6.498   3.229   4.133  0.4223  0.5851  0.0395
  144OSM    C7F15786   6.667   3.170   4.250  0.8674  0.1699  0.3503
  144OSM    H7F15787   6.725   3.264   4.238 -1.4986  1.4531 -2.1142
  144OSM    H7G15788   6.749   3.096   4.252  0.7560  0.0305  2.5934
  144OSM    C8F15789   6.603   3.171   4.389 -0.1991  0.0336  0.0763
  144OSM    H8F15790   6.563   3.071   4.417  0.3850 -1.0567 -2.6347
  144OSM    H8G15791   6.519   3.244   4.384 -0.4005 -0.2349 -0.5204
  144OSM    C9F15792   6.704   3.222   4.496  0.5487  0.3400  0.5235
  144OSM    H9F15793   6.804   3.243   4.455  0.5155 -1.2066 -0.4197
  144OSM   C10F15794   6.676   3.248   4.626  0.5864 -0.1646 -0.5288
  144OSM   H10F15795   6.760   3.269   4.694 -0.6249  3.5824  0.0191
  144OSM   C11F15796   6.549   3.215   4.703  0.5006  0.0290  0.5402
  144OSM   H11F15797   6.471   3.162   4.645 -0.2719  1.4002  0.2975
  144OSM   H11G15798   6.502   3.312   4.729  0.6999  0.4793 -0.7057
  144OSM   C12F15799   6.577   3.129   4.834 -0.0012  0.4765  0.2425
  144OSM   H12F15800   6.633   3.035   4.816  0.1023  0.4823  0.5349
  144OSM   H12G15801   6.485   3.078   4.871 -0.6415 -0.2709 -2.1684
  144OSM   C13F15802   6.646   3.202   4.946 -0.1743 -0.1945 -0.3330
  144OSM   H13F15803   6.731   3.268   4.916  0.3220 -0.1863  1.0130
  144OSM   H13G15804   6.702   3.133   5.013 -0.2628  0.2631  0.2214
  144OSM   C14F15805   6.550   3.284   5.034  0.7408  0.0529  0.5661
  144OSM   H14F15806   6.467   3.224   5.077 -0.4589  1.1873 -0.0845
  144OSM   H14G15807   6.491   3.355   4.972  0.1645 -1.7084 -1.0132
  144OSM   C15F15808   6.624   3.358   5.143 -0.8447 -0.3237  0.0246
  144OSM   H15F15809   6.695   3.434   5.103  0.1364 -1.0058  0.4383
  144OSM   H15G15810   6.678   3.283   5.205 -0.8151 -0.4458 -0.1461
  144OSM   C16F15811   6.530   3.440   5.225  0.3538 -0.2991 -1.0155
  144OSM   H16F15812   6.464   3.370   5.281 -2.1184  1.4793 -1.5420
  144OSM   H16G15813   6.466   3.501   5.157 -0.0804  1.7425  1.0879
  144OSM   C17F15814   6.596   3.530   5.341 -0.1720 -0.4954 -0.1366
  144OSM   H17F15815   6.641   3.454   5.410 -1.3642  0.6907  2.0730
  144OSM   H17G15816   6.518   3.587   5.396  0.7566  0.7988 -0.1226
  144OSM   C18F15817   6.700   3.633   5.300 -0.3402  0.4170  0.5103
  144OSM   H18F15818   6.657   3.704   5.226  1.7102  2.1299  0.8473
  144OSM   H18G15819   6.783   3.578   5.249 -1.3630 -0.2449 -0.4848
  144OSM   H18H15820   6.734   3.685   5.392  2.1394  0.9736 -0.6237
  145SAPE     N15821   2.078   6.369   7.926 -0.2941 -0.3200  0.7787
  145SAPE   HN115822   2.114   6.458   7.966  1.7005 -0.1566 -1.1877
  145SAPE   HN215823   1.974   6.372   7.935 -0.2387 -2.0988  2.9023
  145SAPE   HN315824   2.119   6.289   7.979  1.4986 -0.1805 -0.3204
  145SAPE   C1215825   2.122   6.361   7.780 -0.4559 -0.4575 -0.5062
  145SAPE  H12A15826   2.213   6.298   7.795 -0.8324 -0.8438  0.2542
  145SAPE  H12B15827   2.140   6.464   7.744  1.0937 -0.9872 -1.3255
  145SAPE   C1115828   2.023   6.295   7.681 -0.6359  0.3053  0.1831
  145SAPE  H11A15829   2.073   6.278   7.583 -1.5626 -0.6698 -0.1531
  145SAPE  H11B15830   1.942   6.364   7.648 -2.0328 -1.9459 -1.4274
  145SAPE     P15831   1.844   6.102   7.707  0.2432 -0.3659  0.0370
  145SAPE   O1315832   1.814   5.998   7.806  0.8335  0.6033 -0.2827
  145SAPE   O1415833   1.743   6.213   7.691  0.1610  0.1652  0.1520
  145SAPE   O1215834   1.989   6.162   7.732  0.3316 -0.1425 -0.4485
  145SAPE   O1115835   1.853   6.033   7.563  0.2975  0.7128  0.0328
  145SAPE    C115836   1.755   5.938   7.523  0.4655 -0.1642  0.5872
  145SAPE    HA15837   1.796   5.835   7.518 -0.2536 -0.3880 -1.6752
  145SAPE    HB15838   1.660   5.941   7.581  0.8092 -0.5142  1.1816
  145SAPE    C215839   1.706   5.964   7.375 -0.2034 -0.0230 -0.5278
  145SAPE    HS15840   1.611   5.909   7.357 -0.6841  0.1297  1.3189
  145SAPE   O2115841   1.807   5.926   7.275 -0.5601 -0.6339 -0.1921
  145SAPE   C2115842   1.849   5.803   7.271  0.0280  0.0791 -0.2909
  145SAPE   O2215843   1.807   5.709   7.333 -0.1254  0.3034 -0.9527
  145SAPE   C2215844   1.979   5.793   7.185  0.2691  0.3181 -0.1705
  145SAPE   H2R15845   2.054   5.868   7.216 -0.7435  1.3990 -0.2961
  145SAPE   H2S15846   2.017   5.693   7.217 -0.9257 -0.4657 -1.0878
  145SAPE    C315847   1.672   6.115   7.363 -0.2755  0.3057  0.6469
  145SAPE    HX15848   1.773   6.156   7.382  0.8871 -1.5136 -1.2544
  145SAPE    HY15849   1.608   6.160   7.443 -0.9493 -0.6917  0.6860
  145SAPE   O3115850   1.638   6.156   7.227  0.4492  0.5336 -0.3728
  145SAPE   C3115851   1.507   6.175   7.211 -0.2799  0.0167 -0.8267
  145SAPE   O3215852   1.418   6.152   7.291  0.2497  0.3575  0.4744
  145SAPE   C3215853   1.481   6.209   7.063  0.3228  0.9603  0.2775
  145SAPE   H2X15854   1.402   6.141   7.025  1.9922 -0.7291 -0.3623
  145SAPE   H2Y15855   1.567   6.177   7.000 -1.7385 -1.5043 -1.4909
  145SAPE   C2315856   1.961   5.804   7.033 -0.2329  1.0098 -0.5751
  145SAPE   H3R15857   2.056   5.796   6.976 -0.7820  0.5047 -1.4603
  145SAPE   H3S15858   1.903   5.895   7.008  2.5158  2.9826 -0.1975
  145SAPE   C2415859   1.875   5.677   6.982 -0.2772 -0.7509  0.0298
  145SAPE   H4R15860   1.852   5.705   6.877 -1.3778  0.1913  0.4914
  145SAPE   H4S15861   1.779   5.673   7.039 -1.2238  0.0057 -1.4351
  145SAPE   C2515862   1.939   5.540   6.994  0.1011 -0.0118  0.0935
  145SAPE   H5R15863   1.946   5.499   7.096  2.0671 -1.0038 -0.3838
  145SAPE   C2615864   1.980   5.465   6.892  0.2600 -0.0751  0.2883
  145SAPE   H6R15865   2.029   5.368   6.909 -0.5689 -0.3258  1.3811
  145SAPE   C2715866   1.973   5.511   6.740 -0.0421  0.8491 -0.7413
  145SAPE   H7R15867   1.870   5.545   6.718 -0.0702  0.3512 -1.3992
  145SAPE   H7S15868   1.982   5.418   6.680  0.0686  0.6532 -0.4232
  145SAPE   C2815869   2.070   5.616   6.690  0.6809 -0.0177 -0.8868
  145SAPE   H8R15870   2.128   5.679   6.758 -0.4865 -0.0681  0.1855
  145SAPE   C2915871   2.092   5.635   6.564  0.1649 -0.1810  0.0587
  145SAPE   H9R15872   2.173   5.702   6.531  1.5140 -1.9925 -0.4938
  145SAPE  C21015873   2.028   5.556   6.456 -0.6261 -0.4973 -0.1677
  145SAPE  H10R15874   1.921   5.534   6.473 -0.9364 -2.8464 -3.9938
  145SAPE  H10S15875   2.059   5.450   6.467 -2.2804 -1.0653 -0.6798
  145SAPE  C21115876   2.054   5.622   6.327 -0.2019 -0.5841 -0.6066
  145SAPE  H11R15877   2.021   5.727   6.319 -1.0972 -0.7536  0.6199
  145SAPE  C21215878   2.109   5.566   6.219 -0.3405 -0.0700 -0.3011
  145SAPE  H12R15879   2.121   5.624   6.126 -1.2355 -1.1052 -1.0912
  145SAPE  C21315880   2.165   5.429   6.197 -0.3272  0.7953  0.3105
  145SAPE  H13R15881   2.260   5.420   6.255 -0.7278  2.2706  1.2620
  145SAPE  H13S15882   2.196   5.428   6.091  2.8086 -0.3801  1.1118
  145SAPE  C21415883   2.079   5.313   6.233 -0.0561  0.6327  0.1597
  145SAPE  H14R15884   1.991   5.340   6.293  1.6189  3.0307  1.7679
  145SAPE  C21515885   2.113   5.187   6.186 -0.2199 -0.6642  0.0310
  145SAPE  H15R15886   2.052   5.099   6.210  0.2517 -0.7388  1.0236
  145SAPE  C21615887   2.233   5.150   6.108  0.6541  0.4748 -0.4358
  145SAPE  H16R15888   2.283   5.066   6.161 -1.2162 -0.2224  0.3224
  145SAPE  H16S15889   2.303   5.236   6.104 -1.6212  2.3899 -2.3257
  145SAPE  C21715890   2.204   5.094   5.960  0.1027 -0.1280  0.3808
  145SAPE  H17R15891   2.145   5.001   5.973 -1.6240  1.1256  1.9918
  145SAPE  H17S15892   2.302   5.066   5.916  0.2894 -0.1600  0.8127
  145SAPE  C21815893   2.121   5.195   5.867 -0.1696 -0.8781 -0.2222
  145SAPE  H18R15894   2.188   5.283   5.878  0.8276 -1.7030  0.5647
  145SAPE  H18S15895   2.032   5.231   5.922  0.7350  0.6354  0.3075
  145SAPE  C21915896   2.100   5.138   5.728 -0.8606 -0.2217 -0.3815
  145SAPE  H19R15897   2.204   5.122   5.692  0.1405  2.1899  1.2213
  145SAPE  H19S15898   2.051   5.212   5.660 -0.2902 -1.7209 -2.5383
  145SAPE  C22015899   2.009   5.010   5.726  0.2723  0.0140  0.5134
  145SAPE  H20R15900   2.018   4.984   5.619  1.3205  1.9740  0.0657
  145SAPE  H20S15901   1.903   5.037   5.746  0.2877  0.7731 -0.3793
  145SAPE  H20T15902   2.047   4.932   5.796  1.0708  0.7979  0.9799
  145SAPE   C3315903   1.454   6.357   7.040 -0.4063  0.1335 -1.0277
  145SAPE   H3X15904   1.555   6.403   7.030 -0.0369 -0.9323 -2.5631
  145SAPE   H3Y15905   1.400   6.409   7.122  0.1069  0.8280 -1.1213
  145SAPE   C3415906   1.387   6.383   6.899 -0.3547  0.2328 -0.4728
  145SAPE   H4X15907   1.359   6.490   6.892  0.4912  0.4894 -0.0672
  145SAPE   H4Y15908   1.285   6.341   6.894 -0.5828  0.9103 -1.9786
  145SAPE   C3515909   1.473   6.334   6.785 -0.4241  0.0176  0.2212
  145SAPE   H5X15910   1.477   6.223   6.788 -1.0547 -0.1145 -1.9455
  145SAPE   H5Y15911   1.577   6.369   6.800 -0.2436 -1.2820  2.4889
  145SAPE   C3615912   1.417   6.389   6.649 -0.3775  0.3937  0.0172
  145SAPE   H6X15913   1.452   6.492   6.628 -1.3868  0.8025  0.2958
  145SAPE   H6Y15914   1.307   6.390   6.665 -0.3836 -1.0022  0.1765
  145SAPE   C3715915   1.446   6.292   6.523 -0.7032 -0.0056 -0.1021
  145SAPE   H7X15916   1.382   6.203   6.539  0.5654 -0.6056  1.9490
  145SAPE   H7Y15917   1.550   6.255   6.511 -0.3301  0.3719  1.6335
  145SAPE   C3815918   1.404   6.359   6.390  0.1311  0.5896 -0.3189
  145SAPE   H8X15919   1.470   6.447   6.371  0.5637  0.4451  0.4563
  145SAPE   H8Y15920   1.299   6.387   6.415 -0.0217  0.8919 -1.2718
  145SAPE   C3915921   1.407   6.264   6.267  0.6295 -0.5306 -0.5431
  145SAPE   H9X15922   1.330   6.184   6.280 -0.8527  0.9369  0.1947
  145SAPE   H9Y15923   1.506   6.215   6.264  1.3683  0.7044  1.4893
  145SAPE  C31015924   1.383   6.345   6.137  0.1075 -0.0848  0.0357
  145SAPE  H10X15925   1.461   6.422   6.122  1.2448 -1.5060 -1.9108
  145SAPE  H10Y15926   1.288   6.398   6.160 -2.2106 -2.4824 -2.9989
  145SAPE  C31115927   1.361   6.260   6.008  0.1989 -0.0097 -0.0625
  145SAPE  H11X15928   1.327   6.330   5.929  0.1466 -0.9041 -0.8457
  145SAPE  H11Y15929   1.285   6.184   6.037 -0.1401  0.0627 -0.7346
  145SAPE  C31215930   1.494   6.193   5.969 -0.6223 -0.5428  0.3159
  145SAPE  H12X15931   1.563   6.187   6.055  1.3963 -2.0884 -1.3071
  145SAPE  H12Y15932   1.535   6.271   5.902 -0.7181  1.2491  2.2257
  145SAPE  C31315933   1.477   6.059   5.901  0.1773  0.3646  0.6904
  145SAPE  H13X15934   1.378   6.053   5.851  1.0280  1.7501 -1.2942
  145SAPE  H13Y15935   1.485   5.986   5.984  1.4523 -2.8896 -2.0809
  145SAPE  C31415936   1.577   6.038   5.792  0.3149 -0.5258  0.6177
  145SAPE  H14X15937   1.682   6.044   5.828  0.0055  1.1379  1.3641
  145SAPE  H14Y15938   1.570   6.126   5.725  2.7668 -1.0000 -0.3571
  145SAPE  C31515939   1.555   5.894   5.731 -0.5320 -0.0717  0.1900
  145SAPE  H15X15940   1.533   5.832   5.820 -1.8627  1.4827  1.0103
  145SAPE  H15Y15941   1.648   5.858   5.682 -2.4475 -3.3214 -1.4233
  145SAPE  C31615942   1.438   5.888   5.639  0.6961 -0.0556 -0.7008
  145SAPE  H16X15943   1.449   5.947   5.545 -2.8661  1.1530 -0.4918
  145SAPE  H16Y15944   1.354   5.938   5.691  0.4733 -0.2641 -0.8596
  145SAPE  C31715945   1.399   5.746   5.608 -0.5303  0.5147  0.4273
  145SAPE  H17X15946   1.482   5.686   5.566 -0.9773  0.3240 -0.1978
  145SAPE  H17Y15947   1.322   5.748   5.528 -0.7245 -1.7821  0.5152
  145SAPE  C31815948   1.351   5.655   5.724  0.1174  0.1734  0.6899
  145SAPE  H18X15949   1.257   5.695   5.768  0.7026  1.3313  0.9310
  145SAPE  H18Y15950   1.416   5.651   5.814 -1.7339  0.0232  2.0633
  145SAPE  H18Z15951   1.336   5.551   5.687 -1.0625  0.6549 -0.2578
  146SAPE     N15952   5.673   5.203   7.759 -0.5528 -0.0459 -0.6340
  146SAPE   HN115953   5.644   5.299   7.734 -1.0083  0.2987  1.1023
  146SAPE   HN215954   5.776   5.196   7.756 -0.5424 -2.2229  1.5663
  146SAPE   HN315955   5.622   5.153   7.682 -1.8110  2.2540 -1.3956
  146SAPE   C1215956   5.616   5.183   7.901  0.5887 -0.3551  0.2955
  146SAPE  H12A15957   5.673   5.255   7.964 -2.5830 -0.8229  4.0768
  146SAPE  H12B15958   5.629   5.077   7.930 -0.7684 -0.3304  1.0951
  146SAPE   C1115959   5.462   5.214   7.910  0.6004 -0.8377  0.4367
  146SAPE  H11A15960   5.435   5.321   7.894 -0.1219 -1.1975 -0.8793
  146SAPE  H11B15961   5.444   5.189   8.016 -0.7531  0.5614  0.5573
  146SAPE     P15962   5.268   5.048   7.843 -0.3764  0.2685 -0.2719
  146SAPE   O1315963   5.305   4.904   7.858 -0.1221  0.0576 -0.0426
  146SAPE   O1415964   5.208   5.099   7.962 -0.2567  0.9031  0.3778
  146SAPE   O1215965   5.396   5.127   7.814  0.2257  0.3787  0.8427
  146SAPE   O1115966   5.191   5.083   7.714  0.4134 -0.1617 -0.5038
  146SAPE    C115967   5.242   5.070   7.586 -0.0940  0.2191  0.5068
  146SAPE    HA15968   5.331   5.004   7.578 -0.1446  0.2482 -0.3850
  146SAPE    HB15969   5.160   5.028   7.524  1.3575 -1.9411 -0.0365
  146SAPE    C215970   5.280   5.213   7.533  0.0331  0.4143  0.6926
  146SAPE    HS15971   5.325   5.271   7.616  0.8460  1.3609 -0.3775
  146SAPE   O2115972   5.159   5.267   7.481 -0.1362 -0.3700 -0.0061
  146SAPE   C2115973   5.153   5.401   7.470  0.1036  0.5832 -0.3741
  146SAPE   O2215974   5.236   5.478   7.519  0.0542  0.8105 -0.4644
  146SAPE   C2215975   5.023   5.440   7.401 -0.2563 -0.4779 -0.0028
  146SAPE   H2R15976   5.036   5.405   7.296  0.3435  0.1507 -0.1469
  146SAPE   H2S15977   4.943   5.383   7.453 -0.3614  0.9642  1.5055
  146SAPE    C315978   5.377   5.210   7.413 -0.4800 -0.3736  0.2339
  146SAPE    HX15979   5.475   5.167   7.443  0.7243  1.3996 -0.9765
  146SAPE    HY15980   5.393   5.315   7.382 -0.2414 -0.1449  1.1189
  146SAPE   O3115981   5.337   5.116   7.311  0.8782  0.1563  0.0277
  146SAPE   C3115982   5.285   5.171   7.203 -0.7373  0.7295  0.5520
  146SAPE   O3215983   5.269   5.289   7.182 -0.1224 -0.3186 -0.0966
  146SAPE   C3215984   5.265   5.052   7.102  0.2319 -0.3444  0.6725
  146SAPE   H2X15985   5.234   4.966   7.164 -1.6744  0.1880  0.5134
  146SAPE   H2Y15986   5.359   5.022   7.050 -0.3471 -1.5787  0.3158
  146SAPE   C2315987   5.001   5.591   7.408 -0.4625  0.6058 -0.0232
  146SAPE   H3R15988   5.088   5.648   7.367  1.8439 -2.1776  0.6308
  146SAPE   H3S15989   4.996   5.619   7.515  1.1036 -0.6074  0.4150
  146SAPE   C2415990   4.875   5.640   7.333 -0.5147  0.1127  0.6873
  146SAPE   H4R15991   4.786   5.574   7.332 -1.1896  0.9857 -0.6139
  146SAPE   H4S15992   4.908   5.638   7.226 -3.1114 -2.3613 -0.1739
  146SAPE   C2515993   4.834   5.778   7.380  0.3480 -0.3226  0.2593
  146SAPE   H5R15994   4.860   5.807   7.483  1.4894  1.4677 -0.4812
  146SAPE   C2615995   4.766   5.868   7.317  0.3751 -0.3661  0.3803
  146SAPE   H6R15996   4.744   5.967   7.361  0.2259 -0.7207  1.1059
  146SAPE   C2715997   4.714   5.850   7.177 -0.5214  0.3622 -0.3761
  146SAPE   H7R15998   4.744   5.747   7.147 -0.6718  0.5532 -1.1990
  146SAPE   H7S15999   4.772   5.918   7.111 -0.7616 -0.4886 -1.4987
  146SAPE   C2816000   4.569   5.837   7.161  0.2969 -0.3109  0.1697
  146SAPE   H8R16001   4.525   5.857   7.260  2.3129 -0.2148  1.0886
  146SAPE   C2916002   4.495   5.793   7.056 -0.0353  0.3518 -0.6713
  146SAPE   H9R16003   4.386   5.789   7.062  0.0695 -1.3254  2.5023
  146SAPE  C21016004   4.547   5.749   6.922 -0.5439 -0.4008 -0.0980
  146SAPE  H10R16005   4.642   5.800   6.893 -0.7839 -1.2492 -2.6519
  146SAPE  H10S16006   4.474   5.787   6.847 -1.5875 -3.7317 -0.9379
  146SAPE  C21116007   4.573   5.601   6.901 -0.0487 -0.7698  0.9534
  146SAPE  H11R16008   4.657   5.561   6.960  1.1575  3.2485  2.2747
  146SAPE  C21216009   4.520   5.514   6.804 -0.6617 -0.5124  0.1348
  146SAPE  H12R16010   4.550   5.408   6.798 -2.7665 -1.0861 -1.8803
  146SAPE  C21316011   4.421   5.559   6.700 -0.1828 -0.3475  0.5609
  146SAPE  H13R16012   4.479   5.578   6.607  1.6018  0.0225  1.6882
  146SAPE  H13S16013   4.370   5.654   6.728  1.5578  0.6578  0.4630
  146SAPE  C21416014   4.320   5.459   6.694  0.1252 -0.0074  0.8876
  146SAPE  H14R16015   4.331   5.370   6.757 -0.1673  0.0869  1.0729
  146SAPE  C21516016   4.215   5.465   6.605  0.0542  0.1491 -0.2906
  146SAPE  H15R16017   4.141   5.384   6.601 -1.1441  1.1779  0.1662
  146SAPE  C21616018   4.191   5.580   6.505 -0.7086  0.1316  0.1285
  146SAPE  H16R16019   4.243   5.668   6.548  2.7843 -2.4187  1.6214
  146SAPE  H16S16020   4.083   5.605   6.497 -0.5941  0.6554  0.2244
  146SAPE  C21716021   4.249   5.549   6.365  0.1829 -0.3828  0.7286
  146SAPE  H17R16022   4.353   5.509   6.372  0.4011  0.3623  2.0043
  146SAPE  H17S16023   4.232   5.651   6.324 -0.3896 -0.7457  0.0495
  146SAPE  C21816024   4.175   5.443   6.266  0.2184 -0.5653 -0.6315
  146SAPE  H18R16025   4.070   5.476   6.278  1.0062  1.1719  2.8371
  146SAPE  H18S16026   4.180   5.339   6.304  0.2660 -0.4200 -0.2337
  146SAPE  C21916027   4.207   5.452   6.116  0.5056  0.0039  0.0138
  146SAPE  H19R16028   4.306   5.407   6.095  0.8794  1.6540 -2.2422
  146SAPE  H19S16029   4.210   5.558   6.082 -0.2044  0.5296  1.5202
  146SAPE  C22016030   4.106   5.368   6.040 -0.1022  0.8249  0.5555
  146SAPE  H20R16031   4.110   5.264   6.079 -0.8054 -1.0912 -3.8692
  146SAPE  H20S16032   4.142   5.355   5.936  0.9997  0.0212  1.0077
  146SAPE  H20T16033   4.000   5.402   6.039 -0.2155  0.6457 -2.6520
  146SAPE   C3316034   5.158   5.093   7.002 -0.1181 -0.0212 -0.1220
  146SAPE   H3X16035   5.104   5.172   7.059 -1.1876 -0.3551 -0.6452
  146SAPE   H3Y16036   5.085   5.009   6.994  1.0555 -1.0592 -0.1459
  146SAPE   C3416037   5.206   5.135   6.867 -0.1317  0.2360  0.4000
  146SAPE   H4X16038   5.294   5.203   6.875 -0.5251  0.6636  1.2364
  146SAPE   H4Y16039   5.128   5.200   6.822  0.5570  0.8624  0.0952
  146SAPE   C3516040   5.223   5.003   6.792  0.0917  0.3361  0.7240
  146SAPE   H5X16041   5.118   4.969   6.781  0.4508 -0.9664  1.0978
  146SAPE   H5Y16042   5.277   4.927   6.853  0.6550  2.0972  2.5298
  146SAPE   C3616043   5.287   5.022   6.652 -0.1297 -0.2738  0.0049
  146SAPE   H6X16044   5.391   5.055   6.671  0.1241  1.4602 -3.5048
  146SAPE   H6Y16045   5.225   5.092   6.591  0.8400  2.3021  1.7912
  146SAPE   C3716046   5.292   4.893   6.567 -0.1062  0.1557 -0.2848
  146SAPE   H7X16047   5.190   4.857   6.545  0.4803 -0.9773 -1.2397
  146SAPE   H7Y16048   5.349   4.818   6.625  0.9949  1.2904  0.1528
  146SAPE   C3816049   5.352   4.921   6.431  0.1678 -0.1069  0.0160
  146SAPE   H8X16050   5.285   4.992   6.379  0.1324 -1.7347 -2.2840
  146SAPE   H8Y16051   5.359   4.832   6.364 -1.0419  0.9204 -1.5348
  146SAPE   C3916052   5.492   4.985   6.422 -0.1534  0.3971 -1.1401
  146SAPE   H9X16053   5.567   4.930   6.482  0.8444  1.1619 -1.6383
  146SAPE   H9Y16054   5.486   5.086   6.469 -0.8145  0.0498 -0.4637
  146SAPE  C31016055   5.549   5.005   6.281  0.0523  0.3606 -1.4896
  146SAPE  H10X16056   5.462   5.041   6.221 -0.1168  1.1538 -0.7797
  146SAPE  H10Y16057   5.573   4.903   6.244  0.9623  0.3994 -1.0120
  146SAPE  C31116058   5.670   5.102   6.287  0.3435  0.0682 -0.7462
  146SAPE  H11X16059   5.756   5.060   6.344  0.8026  0.5077 -1.1129
  146SAPE  H11Y16060   5.631   5.196   6.330  0.9632 -0.1065  0.2309
  146SAPE  C31216061   5.732   5.135   6.149 -0.3009  0.1506  0.7374
  146SAPE  H12X16062   5.832   5.181   6.159 -0.8743  1.2953  1.3404
  146SAPE  H12Y16063   5.666   5.212   6.104 -1.0494 -1.3741 -0.9450
  146SAPE  C31316064   5.741   5.019   6.046  0.4594  0.8450  0.1547
  146SAPE  H13X16065   5.636   4.997   6.018  0.6664 -1.4462  0.9826
  146SAPE  H13Y16066   5.776   4.937   6.112  1.5532  1.3732  0.2617
  146SAPE  C31416067   5.813   5.042   5.911  0.3233  0.5044 -0.0112
  146SAPE  H14X16068   5.923   5.051   5.928 -0.1399  2.0820  2.6787
  146SAPE  H14Y16069   5.780   5.142   5.877 -2.7908 -0.2270  0.5188
  146SAPE  C31516070   5.779   4.946   5.790 -0.0938  0.0082 -0.1009
  146SAPE  H15X16071   5.670   4.931   5.775 -0.2458 -1.4878  2.0534
  146SAPE  H15Y16072   5.806   4.841   5.813 -0.1388 -0.1303 -0.6667
  146SAPE  C31616073   5.839   4.996   5.659  0.3543  0.3390 -0.2190
  146SAPE  H16X16074   5.949   5.010   5.666  0.6902 -2.4934  1.6736
  146SAPE  H16Y16075   5.795   5.095   5.634 -0.0663  0.6051  1.4900
  146SAPE  C31716076   5.819   4.895   5.546 -0.1649 -0.1316 -0.9557
  146SAPE  H17X16077   5.712   4.863   5.546  0.2076 -2.0548  3.2140
  146SAPE  H17Y16078   5.884   4.806   5.561  1.5643  1.1069 -0.8265
  146SAPE  C31816079   5.859   4.958   5.408  0.5417 -0.4040  0.1028
  146SAPE  H18X16080   5.834   4.906   5.313  0.8155  1.9069 -1.3301
  146SAPE  H18Y16081   5.969   4.971   5.414  0.3561  1.3610  0.2779
  146SAPE  H18Z16082   5.805   5.054   5.392 -0.8455 -1.3041 -0.8789
  147SAPE     N16083   2.507   2.185   7.386  0.3509 -0.2045 -0.1365
  147SAPE   HN116084   2.580   2.214   7.454  2.7706 -0.7318 -2.3491
  147SAPE   HN216085   2.447   2.262   7.348 -0.9929 -0.6739  0.9601
  147SAPE   HN316086   2.441   2.116   7.427 -3.0260 -0.3949 -5.0295
  147SAPE   C1216087   2.585   2.111   7.277 -0.2329 -0.0126 -0.0567
  147SAPE  H12A16088   2.667   2.179   7.244 -0.6083  0.7026  0.4682
  147SAPE  H12B16089   2.516   2.093   7.192 -0.9241 -0.9182  0.6753
  147SAPE   C1116090   2.651   1.974   7.315 -0.1863  0.5204  0.2054
  147SAPE  H11A16091   2.713   1.944   7.227  0.8431 -1.4260  1.5293
  147SAPE  H11B16092   2.580   1.888   7.319 -0.7898  0.8996 -1.4614
  147SAPE     P16093   2.882   2.004   7.448  0.0163 -0.1178  0.0085
  147SAPE   O1316094   2.895   2.127   7.532 -0.0448 -0.1244 -0.3855
  147SAPE   O1416095   2.945   1.875   7.491 -0.7665 -0.1562  0.1886
  147SAPE   O1216096   2.725   1.982   7.439 -0.1062 -0.4776 -0.3889
  147SAPE   O1116097   2.932   2.041   7.305  0.1915  0.0967  0.8512
  147SAPE    C116098   3.066   2.082   7.288 -0.2670  0.0981  0.1427
  147SAPE    HA16099   3.082   2.187   7.318  1.2291 -0.1952  0.4418
  147SAPE    HB16100   3.143   2.037   7.355  1.4438  0.9300 -1.1991
  147SAPE    C216101   3.119   2.066   7.137 -0.3011 -0.4876  0.2542
  147SAPE    HS16102   3.227   2.041   7.140 -0.3317 -0.6395  0.1570
  147SAPE   O2116103   3.097   2.181   7.054  0.1184  0.4811  0.3223
  147SAPE   C2116104   3.175   2.282   7.067 -0.3471  0.4451 -0.1718
  147SAPE   O2216105   3.265   2.286   7.156 -0.1471 -0.1993  0.1446
  147SAPE   C2216106   3.139   2.392   6.968 -0.0045 -0.2302 -0.2802
  147SAPE   H2R16107   3.099   2.339   6.879 -1.7794  0.7954 -0.1381
  147SAPE   H2S16108   3.059   2.456   7.011  1.9255  1.7416  0.5473
  147SAPE    C316109   3.060   1.938   7.061 -0.6991  0.5120 -0.1750
  147SAPE    HX16110   2.951   1.924   7.076 -0.9299  1.6050 -0.7309
  147SAPE    HY16111   3.099   1.854   7.123 -2.6145  0.1496  0.5944
  147SAPE   O3116112   3.113   1.925   6.926 -0.4768  0.0367 -0.5022
  147SAPE   C3116113   3.030   1.977   6.832 -0.4881 -0.4703 -0.1915
  147SAPE   O3216114   2.923   2.032   6.859 -0.2002 -0.5834  0.0935
  147SAPE   C3216115   3.103   1.964   6.696 -0.4745  0.5626  0.1129
  147SAPE   H2X16116   3.051   1.896   6.626  0.3372  1.5016 -1.4627
  147SAPE   H2Y16117   3.205   1.926   6.716 -0.6971  0.3581  0.8773
  147SAPE   C2316118   3.259   2.487   6.933 -0.2824 -0.8947  0.5275
  147SAPE   H3R16119   3.292   2.532   7.028  1.0785  1.1167 -0.8119
  147SAPE   H3S16120   3.224   2.569   6.866 -2.1698 -0.4624  1.9748
  147SAPE   C2416121   3.363   2.406   6.865 -0.9746  0.2183 -0.2303
  147SAPE   H4R16122   3.334   2.382   6.761  0.5333 -0.2481 -0.5620
  147SAPE   H4S16123   3.368   2.306   6.912 -0.2369  1.0457  1.5776
  147SAPE   C2516124   3.501   2.465   6.878 -0.3537 -0.3928 -0.1944
  147SAPE   H5R16125   3.540   2.487   6.978 -2.5530 -1.1537  0.8634
  147SAPE   C2616126   3.586   2.482   6.768  0.3149 -0.4886 -1.1335
  147SAPE   H6R16127   3.689   2.516   6.789 -0.7033  0.8563  2.5766
  147SAPE   C2716128   3.542   2.445   6.629  0.0209  0.2834 -0.8035
  147SAPE   H7R16129   3.476   2.356   6.632 -1.2223  1.1570 -1.7536
  147SAPE   H7S16130   3.636   2.409   6.582  1.2417 -0.1993  1.7960
  147SAPE   C2816131   3.474   2.556   6.554 -0.2063  0.2542  0.0713
  147SAPE   H8R16132   3.419   2.630   6.614  2.7136  3.0366 -0.4057
  147SAPE   C2916133   3.472   2.557   6.418 -0.1819 -0.4307 -0.4858
  147SAPE   H9R16134   3.425   2.638   6.362  2.1967  1.2128 -0.2621
  147SAPE  C21016135   3.548   2.468   6.323  0.5419  0.0499 -0.0463
  147SAPE  H10R16136   3.488   2.476   6.230  0.5377  2.7944  0.0988
  147SAPE  H10S16137   3.529   2.365   6.360 -0.3414  0.9513  2.1949
  147SAPE  C21116138   3.694   2.518   6.309  0.2455 -0.6982 -0.1236
  147SAPE  H11R16139   3.760   2.508   6.396 -0.3885  1.0790  0.6067
  147SAPE  C21216140   3.754   2.568   6.201 -0.1388  0.1873 -0.0927
  147SAPE  H12R16141   3.859   2.600   6.211  0.0177 -0.4234  0.2548
  147SAPE  C21316142   3.682   2.591   6.073 -1.0899  0.2540 -0.4848
  147SAPE  H13R16143   3.718   2.689   6.033  0.6354 -0.2811 -0.3445
  147SAPE  H13S16144   3.574   2.609   6.091 -0.5750  1.5719  1.8218
  147SAPE  C21416145   3.703   2.485   5.967 -0.5118  0.6928 -0.5205
  147SAPE  H14R16146   3.616   2.421   5.944 -0.3576  0.2614  0.0820
  147SAPE  C21516147   3.816   2.453   5.909 -0.1364 -0.2327 -0.0868
  147SAPE  H15R16148   3.823   2.377   5.830  0.6075  0.0161 -0.2719
  147SAPE  C21616149   3.956   2.505   5.936 -0.1710 -0.1984  0.5507
  147SAPE  H16R16150   4.020   2.426   5.981  1.1041  0.1486 -0.5919
  147SAPE  H16S16151   3.949   2.591   6.005  0.1531 -1.3125  2.0244
  147SAPE  C21716152   4.050   2.550   5.818  0.2070 -0.6354 -0.1912
  147SAPE  H17R16153   4.125   2.628   5.841 -1.7594  2.1142 -2.3725
  147SAPE  H17S16154   3.989   2.600   5.739  0.1265  1.8279  1.3328
  147SAPE  C21816155   4.114   2.427   5.751 -0.1481  0.5145 -0.0659
  147SAPE  H18R16156   4.037   2.365   5.701  0.3055  0.5317 -0.8040
  147SAPE  H18S16157   4.170   2.362   5.821 -0.6539  0.5276  0.3616
  147SAPE  C21916158   4.211   2.470   5.640  0.1068 -0.5280 -0.1162
  147SAPE  H19R16159   4.291   2.536   5.680 -1.1021  1.2741 -0.5686
  147SAPE  H19S16160   4.159   2.528   5.561  1.8398 -0.5361 -1.3321
  147SAPE  C22016161   4.293   2.361   5.581  0.6239  0.4215 -0.2954
  147SAPE  H20R16162   4.367   2.310   5.647  1.9257  0.1063 -1.9073
  147SAPE  H20S16163   4.355   2.412   5.504 -0.4125  3.1028  0.5343
  147SAPE  H20T16164   4.222   2.285   5.543  0.6204  0.9071 -1.2800
  147SAPE   C3316165   3.101   2.101   6.627 -0.1377 -0.1218 -0.7126
  147SAPE   H3X16166   3.146   2.190   6.676 -2.3289  1.6848 -1.7837
  147SAPE   H3Y16167   2.991   2.120   6.621 -0.2963 -0.3903  1.0068
  147SAPE   C3416168   3.153   2.103   6.486  0.1492 -0.0665  0.6755
  147SAPE   H4X16169   3.094   2.036   6.420  1.1816 -0.4521  0.1197
  147SAPE   H4Y16170   3.259   2.070   6.486 -0.2274 -1.3268  0.1090
  147SAPE   C3516171   3.135   2.240   6.432  0.6492  0.1430 -0.9993
  147SAPE   H5X16172   3.202   2.314   6.480 -0.2513  0.9864 -1.0040
  147SAPE   H5Y16173   3.031   2.270   6.458  1.2950  2.3177 -0.7688
  147SAPE   C3616174   3.174   2.246   6.284  0.0984 -1.0190  0.2572
  147SAPE   H6X16175   3.233   2.155   6.259 -0.0847 -0.6197 -1.8152
  147SAPE   H6Y16176   3.236   2.333   6.255 -1.4072 -0.5392 -1.7209
  147SAPE   C3716177   3.058   2.266   6.186  0.2894  0.9068 -0.2759
  147SAPE   H7X16178   2.990   2.179   6.191  1.1231  0.2495 -0.1228
  147SAPE   H7Y16179   3.100   2.274   6.083  1.0334 -1.7963 -0.2642
  147SAPE   C3816180   2.964   2.385   6.226  0.8553 -0.0161  0.3061
  147SAPE   H8X16181   3.038   2.468   6.229 -0.1324  0.9915 -1.6351
  147SAPE   H8Y16182   2.927   2.382   6.331  1.5533  0.3018  0.5676
  147SAPE   C3916183   2.849   2.407   6.127 -0.7415 -0.3837  0.2695
  147SAPE   H9X16184   2.779   2.485   6.164 -0.1994 -0.6055  1.8152
  147SAPE   H9Y16185   2.792   2.311   6.120  1.3623 -1.6326 -0.9970
  147SAPE  C31016186   2.900   2.443   5.983 -0.5146  0.1558 -0.6602
  147SAPE  H10X16187   2.948   2.356   5.932 -0.3119  0.3998 -0.8857
  147SAPE  H10Y16188   2.972   2.526   5.993 -0.5584  0.1019  0.2371
  147SAPE  C31116189   2.784   2.493   5.889  0.2262  0.1259  0.1444
  147SAPE  H11X16190   2.709   2.562   5.933  1.6471  0.2049  2.6627
  147SAPE  H11Y16191   2.723   2.403   5.863 -1.0628  1.3885 -1.4434
  147SAPE  C31216192   2.844   2.535   5.753 -0.3871  0.2339  0.6397
  147SAPE  H12X16193   2.882   2.447   5.698 -1.8052  0.2871 -0.4818
  147SAPE  H12Y16194   2.921   2.614   5.759 -1.1004  0.9401  0.7015
  147SAPE  C31316195   2.727   2.590   5.667  0.1872  0.3847 -0.5313
  147SAPE  H13X16196   2.756   2.587   5.560  0.6990 -2.4289 -0.3779
  147SAPE  H13Y16197   2.705   2.691   5.708 -0.9739 -0.2573  0.4744
  147SAPE  C31416198   2.603   2.497   5.668 -0.1066  0.2499  0.0843
  147SAPE  H14X16199   2.550   2.510   5.765  0.6333 -1.9025  0.8345
  147SAPE  H14Y16200   2.641   2.395   5.650 -0.1266  0.1188  0.7610
  147SAPE  C31516201   2.503   2.535   5.557 -0.9742  0.3638  0.0507
  147SAPE  H15X16202   2.551   2.506   5.461 -1.7684  3.3716 -1.3918
  147SAPE  H15Y16203   2.483   2.645   5.550 -1.5665  0.2564  0.0413
  147SAPE  C31616204   2.367   2.468   5.556 -0.1576  0.4965  0.3159
  147SAPE  H16X16205   2.324   2.474   5.658  2.9249  2.0563  1.6513
  147SAPE  H16Y16206   2.373   2.359   5.537 -2.9468  0.1815  0.7183
  147SAPE  C31716207   2.273   2.527   5.445  0.2168 -0.4418  0.3444
  147SAPE  H17X16208   2.339   2.500   5.359  0.2906 -0.1604  0.3124
  147SAPE  H17Y16209   2.272   2.638   5.453  3.1914  0.0334 -3.0116
  147SAPE  C31816210   2.137   2.466   5.410  0.7009  0.4671  0.4546
  147SAPE  H18X16211   2.095   2.416   5.500 -1.8018  0.7803 -0.4810
  147SAPE  H18Y16212   2.149   2.383   5.338 -0.4067  0.7893 -0.1230
  147SAPE  H18Z16213   2.071   2.547   5.373  1.6307  1.1061  0.1448
  148SAPE     N16214   1.717   4.678   7.539 -0.4207 -0.1942 -0.6875
  148SAPE   HN116215   1.718   4.748   7.616 -0.0429 -2.4939  1.5364
  148SAPE   HN216216   1.810   4.633   7.531 -1.1792 -1.4307 -3.4867
  148SAPE   HN316217   1.687   4.732   7.456  0.3973  0.6124 -0.4718
  148SAPE   C1216218   1.610   4.590   7.592  0.3600 -0.3032 -0.4056
  148SAPE  H12A16219   1.619   4.581   7.703 -1.5769 -1.6236 -0.3063
  148SAPE  H12B16220   1.606   4.488   7.548  1.5894 -0.2996 -0.5491
  148SAPE   C1116221   1.476   4.660   7.567  0.4731 -0.7886  0.2412
  148SAPE  H11A16222   1.497   4.760   7.610  1.0656 -1.4937  1.6679
  148SAPE  H11B16223   1.392   4.601   7.610  0.4250 -0.1391  1.0646
  148SAPE     P16224   1.337   4.623   7.346 -0.7112 -0.0423 -0.2025
  148SAPE   O1316225   1.346   4.477   7.368 -0.7900 -0.1733  0.2499
  148SAPE   O1416226   1.209   4.682   7.385  0.1042 -0.2437 -0.1588
  148SAPE   O1216227   1.453   4.693   7.430  0.0110 -0.0389  0.3151
  148SAPE   O1116228   1.373   4.658   7.199  0.2920 -0.9948 -0.3728
  148SAPE    C116229   1.463   4.764   7.174 -0.1687 -0.9095  0.6531
  148SAPE    HA16230   1.426   4.857   7.223 -0.8806 -0.9536  0.2217
  148SAPE    HB16231   1.567   4.758   7.212  0.3522 -0.1310 -0.5882
  148SAPE    C216232   1.474   4.787   7.020  0.8801 -0.8807  0.7856
  148SAPE    HS16233   1.553   4.863   7.002 -0.8523  0.6351 -0.9699
  148SAPE   O2116234   1.350   4.826   6.961 -0.1134 -0.1378 -0.3947
  148SAPE   C2116235   1.329   4.951   6.973 -0.6584  0.3364  0.1273
  148SAPE   O2216236   1.403   5.032   7.031  0.0895 -0.2773  0.4642
  148SAPE   C2216237   1.220   4.997   6.887  0.0510  0.2838 -0.3034
  148SAPE   H2R16238   1.229   4.953   6.785  0.6838 -1.5864  0.5238
  148SAPE   H2S16239   1.120   4.978   6.930 -0.4649 -2.2341 -2.3236
  148SAPE    C316240   1.520   4.651   6.959  0.0328 -0.1847 -0.0125
  148SAPE    HX16241   1.431   4.585   6.961 -1.3077  1.5332 -0.2046
  148SAPE    HY16242   1.599   4.600   7.019 -0.5970  0.4057  1.3673
  148SAPE   O3116243   1.564   4.682   6.824 -0.1008 -0.3182 -0.8023
  148SAPE   C3116244   1.513   4.616   6.726 -0.0099 -0.4113 -0.7028
  148SAPE   O3216245   1.457   4.509   6.732  0.1216  0.4786 -0.0953
  148SAPE   C3216246   1.562   4.687   6.592 -0.2089  0.3465 -1.4327
  148SAPE   H2X16247   1.648   4.631   6.550  0.2569  0.3362 -0.5016
  148SAPE   H2Y16248   1.603   4.787   6.619  2.3651 -0.7188 -1.0684
  148SAPE   C2316249   1.232   5.146   6.853 -0.0172 -0.2232 -0.0711
  148SAPE   H3R16250   1.326   5.175   6.802  0.5652 -1.3792  0.3216
  148SAPE   H3S16251   1.234   5.207   6.946  0.1379  0.6986 -0.6681
  148SAPE   C2416252   1.113   5.189   6.762 -0.3873  0.3871 -0.3994
  148SAPE   H4R16253   1.023   5.208   6.824  0.9088 -0.2962  1.7941
  148SAPE   H4S16254   1.087   5.107   6.692 -0.8266  0.5674 -0.4473
  148SAPE   C2516255   1.139   5.309   6.680 -0.3887 -0.2195  0.5899
  148SAPE   H5R16256   1.174   5.388   6.748 -1.7050  0.3520  0.6331
  148SAPE   C2616257   1.144   5.324   6.545 -0.2133 -0.4576 -0.1711
  148SAPE   H6R16258   1.162   5.427   6.511 -0.0579  0.0844  1.4730
  148SAPE   C2716259   1.106   5.228   6.439  0.0619  0.2584  0.4530
  148SAPE   H7R16260   1.001   5.192   6.449  0.0260  0.1125 -0.3338
  148SAPE   H7S16261   1.173   5.140   6.454  0.5135  0.2668 -1.2683
  148SAPE   C2816262   1.113   5.277   6.293 -0.7688  0.1368  0.1174
  148SAPE   H8R16263   1.125   5.385   6.278 -1.8744  0.0578 -1.4994
  148SAPE   C2916264   1.131   5.190   6.189  0.1632  0.3721  0.2969
  148SAPE   H9R16265   1.128   5.233   6.088  0.9420  3.6214  1.5495
  148SAPE  C21016266   1.136   5.036   6.190  0.4329 -0.6152 -0.1488
  148SAPE  H10R16267   1.097   4.999   6.287  0.3422 -0.3209 -0.0720
  148SAPE  H10S16268   1.243   5.005   6.184  0.7795  0.2715  1.0516
  148SAPE  C21116269   1.051   4.959   6.092  0.5670 -0.3338 -0.8310
  148SAPE  H11R16270   0.946   4.989   6.075 -0.6943 -2.6805  1.8927
  148SAPE  C21216271   1.090   4.847   6.021  0.0931  0.0791  0.0168
  148SAPE  H12R16272   1.009   4.796   5.968 -0.4872 -0.3175  1.2525
  148SAPE  C21316273   1.220   4.775   6.013  0.2659 -0.1591  0.7890
  148SAPE  H13R16274   1.213   4.667   6.038  0.2899 -0.0887  1.1126
  148SAPE  H13S16275   1.296   4.818   6.083  0.7879  1.4690 -0.7070
  148SAPE  C21416276   1.263   4.780   5.871  0.9806  0.6372  0.3925
  148SAPE  H14R16277   1.327   4.865   5.844  2.0122  0.4422  2.0419
  148SAPE  C21516278   1.236   4.694   5.768 -0.3647 -0.3768  0.4246
  148SAPE  H15R16279   1.283   4.712   5.670  0.4273  0.3459  0.9128
  148SAPE  C21616280   1.139   4.579   5.783  0.0748 -0.2481 -1.0442
  148SAPE  H16R16281   1.054   4.599   5.715 -0.7033 -0.9531 -0.3061
  148SAPE  H16S16282   1.093   4.570   5.884  0.7526  1.1289 -0.5873
  148SAPE  C21716283   1.205   4.444   5.750  0.6828 -0.9755 -0.1372
  148SAPE  H17R16284   1.274   4.456   5.663 -2.5696  2.7808 -2.5431
  148SAPE  H17S16285   1.121   4.377   5.724 -1.2938  0.9482  0.9493
  148SAPE  C21816286   1.279   4.385   5.877 -0.0842 -0.0681  0.1498
  148SAPE  H18R16287   1.211   4.395   5.965  1.6007  0.1779  1.4776
  148SAPE  H18S16288   1.369   4.448   5.892 -1.2851  1.8973 -0.5952
  148SAPE  C21916289   1.309   4.235   5.861 -0.3802 -0.1046 -0.4206
  148SAPE  H19R16290   1.223   4.166   5.874 -1.0149  0.9803  1.7750
  148SAPE  H19S16291   1.373   4.210   5.949 -1.1214 -0.4140  0.0392
  148SAPE  C22016292   1.388   4.196   5.738 -0.2985 -0.2286  0.1294
  148SAPE  H20R16293   1.460   4.278   5.717  0.1970 -0.7488 -0.2312
  148SAPE  H20S16294   1.326   4.176   5.648  1.8630  0.1834 -1.5193
  148SAPE  H20T16295   1.433   4.097   5.761 -0.9350 -0.5681 -0.0560
  148SAPE   C3316296   1.455   4.712   6.486  0.0111 -0.0710 -0.1507
  148SAPE   H3X16297   1.493   4.784   6.410  1.0953 -0.4588 -0.0044
  148SAPE   H3Y16298   1.370   4.757   6.542 -0.8182 -0.4900 -1.0479
  148SAPE   C3416299   1.414   4.579   6.417  0.1420 -0.5879 -0.0161
  148SAPE   H4X16300   1.401   4.499   6.492 -2.4080  1.8523  2.3844
  148SAPE   H4Y16301   1.481   4.554   6.331 -0.8824 -2.7021 -0.2734
  148SAPE   C3516302   1.276   4.588   6.346 -0.3377  0.1367 -0.8598
  148SAPE   H5X16303   1.283   4.681   6.286 -1.1935  2.3288  2.1868
  148SAPE   H5Y16304   1.192   4.596   6.419 -0.5250  1.1829 -1.1720
  148SAPE   C3616305   1.245   4.472   6.248  0.2213 -0.6271 -0.5024
  148SAPE   H6X16306   1.328   4.468   6.173 -1.0562  0.4819 -2.0687
  148SAPE   H6Y16307   1.149   4.492   6.195 -1.0428 -2.5104  0.9768
  148SAPE   C3716308   1.233   4.331   6.308 -0.3937 -0.3259 -0.8528
  148SAPE   H7X16309   1.131   4.314   6.348  0.6922  0.8719  2.8208
  148SAPE   H7Y16310   1.304   4.320   6.392 -0.1325  0.1168 -1.0088
  148SAPE   C3816311   1.252   4.230   6.204  0.3341 -0.0086 -0.0323
  148SAPE   H8X16312   1.343   4.245   6.142  1.0716  2.6435  1.5268
  148SAPE   H8Y16313   1.170   4.255   6.133  0.6111 -2.1570 -1.1818
  148SAPE   C3916314   1.228   4.088   6.259 -0.4133  0.3144  0.4392
  148SAPE   H9X16315   1.154   4.080   6.341  0.9857 -1.5974  1.6086
  148SAPE   H9Y16316   1.327   4.063   6.301 -0.0591  1.3342  0.2541
  148SAPE  C31016317   1.195   3.990   6.145 -0.9141  0.5156  0.2949
  148SAPE  H10X16318   1.269   3.993   6.061 -1.0158  1.2470  0.2249
  148SAPE  H10Y16319   1.098   4.017   6.099  0.0874  0.4788 -2.0186
  148SAPE  C31116320   1.209   3.846   6.208  0.1675  0.1080  0.2202
  148SAPE  H11X16321   1.131   3.836   6.286 -2.2417  1.5050 -1.8505
  148SAPE  H11Y16322   1.309   3.833   6.254 -0.1726 -1.8452  0.4992
  148SAPE  C31216323   1.209   3.719   6.115  0.0981 -0.3154 -0.2436
  148SAPE  H12X16324   1.103   3.717   6.082  0.2556  3.6368 -1.5314
  148SAPE  H12Y16325   1.213   3.636   6.188 -0.6915  0.5398  0.7928
  148SAPE  C31316326   1.319   3.714   6.010  0.0046 -0.5914  0.7215
  148SAPE  H13X16327   1.417   3.732   6.060  1.0807  0.2664 -1.5328
  148SAPE  H13Y16328   1.303   3.805   5.949  0.0474 -1.4985 -0.6836
  148SAPE  C31416329   1.320   3.599   5.908  0.0929 -0.0518 -0.2823
  148SAPE  H14X16330   1.232   3.594   5.840  0.0739 -0.0306 -0.2595
  148SAPE  H14Y16331   1.331   3.505   5.965 -0.1432  0.5596  0.8052
  148SAPE  C31516332   1.436   3.611   5.814 -0.0086 -0.6909 -0.6479
  148SAPE  H15X16333   1.442   3.517   5.754  1.2982 -1.2380  0.2792
  148SAPE  H15Y16334   1.523   3.626   5.882  0.6072 -0.8248 -1.4039
  148SAPE  C31616335   1.426   3.732   5.720 -0.0819  0.4607  0.6494
  148SAPE  H16X16336   1.441   3.822   5.782  0.1802  0.5030  0.5269
  148SAPE  H16Y16337   1.326   3.729   5.672  0.3664  2.6239 -0.5325
  148SAPE  C31716338   1.534   3.738   5.606 -0.0343 -0.3863 -1.1392
  148SAPE  H17X16339   1.531   3.643   5.549  0.0364 -2.1158  1.5578
  148SAPE  H17Y16340   1.632   3.740   5.658  0.0319  0.6338 -1.2887
  148SAPE  C31816341   1.538   3.859   5.511 -0.4334 -0.3815 -0.5766
  148SAPE  H18X16342   1.566   3.939   5.583  2.5387 -1.4898 -0.3733
  148SAPE  H18Y16343   1.435   3.867   5.469 -1.9897 -4.0156  2.0009
  148SAPE  H18Z16344   1.609   3.857   5.426 -0.3177 -2.8488 -0.5020
  149SAPE     N16345   2.976   5.250   7.622  0.2125 -0.7243  0.6986
  149SAPE   HN116346   2.888   5.294   7.655  0.6730  1.1862 -0.4459
  149SAPE   HN216347   2.984   5.164   7.681 -0.1358 -1.4741 -0.3267
  149SAPE   HN316348   3.062   5.307   7.637  0.3812 -0.5626 -0.7997
  149SAPE   C1216349   2.964   5.214   7.474  0.0416 -0.3222  0.9495
  149SAPE  H12A16350   3.062   5.180   7.434 -0.1900 -0.7458  0.7442
  149SAPE  H12B16351   2.930   5.311   7.431  0.2454  0.3927  2.3137
  149SAPE   C1116352   2.863   5.108   7.445 -0.5315  0.4850 -0.0633
  149SAPE  H11A16353   2.896   5.017   7.500 -0.5727  0.7130  0.3466
  149SAPE  H11B16354   2.859   5.092   7.335  1.7702  1.8692 -0.4163
  149SAPE     P16355   2.645   5.087   7.594  0.0238  0.0225  0.3992
  149SAPE   O1316356   2.700   5.090   7.732  0.2023 -0.1072 -0.1035
  149SAPE   O1416357   2.504   5.127   7.581  0.1303  0.3264  0.3692
  149SAPE   O1216358   2.735   5.159   7.487  0.6928  0.0188 -0.2836
  149SAPE   O1116359   2.663   4.936   7.549  0.5137  0.4684 -0.1427
  149SAPE    C116360   2.639   4.891   7.414  0.1072  0.0363 -0.3356
  149SAPE    HA16361   2.611   4.974   7.346  0.1151 -0.4342 -0.9234
  149SAPE    HB16362   2.738   4.846   7.391 -0.6498 -2.4808  0.9853
  149SAPE    C216363   2.535   4.786   7.412 -0.0435 -0.0701 -0.2525
  149SAPE    HS16364   2.527   4.727   7.506  1.2379  1.2433  0.7243
  149SAPE   O2116365   2.564   4.692   7.312  0.5021 -0.7215  0.3675
  149SAPE   C2116366   2.500   4.576   7.316 -0.5820 -0.6416 -0.5263
  149SAPE   O2216367   2.425   4.539   7.404 -0.2330  0.7688  0.2196
  149SAPE   C2216368   2.529   4.495   7.197 -0.1806  0.7105  0.2553
  149SAPE   H2R16369   2.584   4.560   7.125 -0.3044  0.3203 -0.1959
  149SAPE   H2S16370   2.603   4.414   7.215 -0.1638  0.5195 -0.5919
  149SAPE    C316371   2.396   4.858   7.400 -0.1610  0.2174 -0.1644
  149SAPE    HX16372   2.383   4.932   7.481 -3.0889  1.5867 -1.7433
  149SAPE    HY16373   2.316   4.782   7.409  0.2901 -0.5832 -2.1866
  149SAPE   O3116374   2.383   4.936   7.280  0.2157 -0.0972  0.3612
  149SAPE   C3116375   2.326   4.885   7.176 -0.1576  0.1005 -0.3103
  149SAPE   O3216376   2.258   4.786   7.168 -0.7822  0.1139  0.2091
  149SAPE   C3216377   2.347   4.971   7.056 -0.4560  0.2844  0.5924
  149SAPE   H2X16378   2.433   5.035   7.083 -1.2329  1.3519  0.5996
  149SAPE   H2Y16379   2.255   5.032   7.045 -0.7152 -0.5402 -3.4057
  149SAPE   C2316380   2.416   4.426   7.117 -0.5160 -0.1664 -0.2689
  149SAPE   H3R16381   2.330   4.495   7.097 -0.5135 -0.3820 -1.0503
  149SAPE   H3S16382   2.384   4.333   7.169  0.0592 -0.3187 -0.1897
  149SAPE   C2416383   2.461   4.383   6.970  0.0727  0.0032 -0.0718
  149SAPE   H4R16384   2.501   4.475   6.924  0.2862 -0.0914 -0.0734
  149SAPE   H4S16385   2.363   4.371   6.919 -0.2481  1.3920  0.1777
  149SAPE   C2516386   2.552   4.268   6.964 -0.4852  0.4182  0.4188
  149SAPE   H5R16387   2.533   4.193   7.043  0.1086 -0.6508 -0.4186
  149SAPE   C2616388   2.679   4.258   6.900  0.1529  0.2785 -0.5006
  149SAPE   H6R16389   2.730   4.161   6.917 -0.3303  0.2228  0.7082
  149SAPE   C2716390   2.721   4.355   6.792  0.4447 -0.0007  0.5296
  149SAPE   H7R16391   2.637   4.406   6.742  0.9387 -0.5196 -0.8722
  149SAPE   H7S16392   2.769   4.286   6.719 -0.6498 -0.6991  0.4571
  149SAPE   C2816393   2.811   4.463   6.831 -0.7567 -0.4047  0.2479
  149SAPE   H8R16394   2.830   4.462   6.939  1.1574 -0.6527 -0.0585
  149SAPE   C2916395   2.880   4.539   6.749 -0.1532  0.4056 -0.1541
  149SAPE   H9R16396   2.942   4.613   6.801  0.8808 -0.5616  0.0127
  149SAPE  C21016397   2.864   4.544   6.597 -0.4335 -0.0637  0.2239
  149SAPE  H10R16398   2.802   4.464   6.551  0.1649 -0.1559 -0.4329
  149SAPE  H10S16399   2.967   4.525   6.560 -0.0624  0.2093  1.0768
  149SAPE  C21116400   2.821   4.682   6.545  0.2914 -0.5495  0.0698
  149SAPE  H11R16401   2.805   4.752   6.628  0.0036 -0.7644  0.1977
  149SAPE  C21216402   2.825   4.718   6.416 -0.1247 -0.0515  0.2487
  149SAPE  H12R16403   2.772   4.801   6.368  1.4365  0.3663 -0.8392
  149SAPE  C21316404   2.884   4.630   6.303 -0.0666 -0.2577  0.0730
  149SAPE  H13R16405   2.825   4.647   6.210  0.8542  2.2093 -0.1387
  149SAPE  H13S16406   2.864   4.524   6.329 -0.5239 -0.2736 -0.3165
  149SAPE  C21416407   3.033   4.651   6.281 -0.4631 -0.2116  0.0869
  149SAPE  H14R16408   3.091   4.668   6.372 -2.0038 -0.8946  1.2386
  149SAPE  C21516409   3.098   4.655   6.165 -0.1559 -0.2930 -0.3212
  149SAPE  H15R16410   3.207   4.665   6.164 -0.1579  0.8429  2.5796
  149SAPE  C21616411   3.037   4.642   6.031  0.6224 -0.2945  0.5624
  149SAPE  H16R16412   2.948   4.708   6.032  1.7272  1.2770  1.7065
  149SAPE  H16S16413   2.987   4.545   6.012  1.5109 -0.6473 -0.0761
  149SAPE  C21716414   3.122   4.686   5.902 -0.5082 -0.2005 -0.1707
  149SAPE  H17R16415   3.201   4.608   5.894 -1.4185 -1.0148 -1.9449
  149SAPE  H17S16416   3.167   4.787   5.911  2.3727 -1.1872 -2.0872
  149SAPE  C21816417   3.038   4.676   5.769  0.2448  0.0930 -0.3434
  149SAPE  H18R16418   2.945   4.734   5.785 -1.0089 -2.3032  1.6147
  149SAPE  H18S16419   3.002   4.571   5.762  0.8304 -0.1697  0.5545
  149SAPE  C21916420   3.119   4.686   5.640 -0.5508 -0.4319 -0.3646
  149SAPE  H19R16421   3.217   4.636   5.654 -0.0454  0.0957 -1.7611
  149SAPE  H19S16422   3.147   4.793   5.624 -0.3459 -0.6030 -1.2482
  149SAPE  C22016423   3.047   4.633   5.519 -0.0581 -1.1470  0.2916
  149SAPE  H20R16424   3.121   4.643   5.437 -1.6235  1.0322 -0.9398
  149SAPE  H20S16425   2.950   4.682   5.498  1.5437  2.2482  0.2219
  149SAPE  H20T16426   3.029   4.524   5.533 -2.1866 -0.7065  1.3348
  149SAPE   C3316427   2.363   4.880   6.928 -0.3492 -0.3637 -0.3882
  149SAPE   H3X16428   2.267   4.834   6.897 -0.5515 -0.5488  0.5014
  149SAPE   H3Y16429   2.442   4.807   6.954 -0.3923  0.2028  1.4691
  149SAPE   C3416430   2.419   4.967   6.815 -0.5016  0.5249  0.2539
  149SAPE   H4X16431   2.525   4.995   6.831 -0.1927 -0.5751  0.2440
  149SAPE   H4Y16432   2.356   5.058   6.811 -0.3780  0.5936 -0.1659
  149SAPE   C3516433   2.429   4.889   6.685  0.5136  0.2793 -0.6660
  149SAPE   H5X16434   2.323   4.859   6.668  0.8066 -0.4320 -1.2533
  149SAPE   H5Y16435   2.470   4.788   6.702  1.0841  0.6320  0.1292
  149SAPE   C3616436   2.489   4.962   6.568 -0.1200 -0.3210  0.1609
  149SAPE   H6X16437   2.585   5.010   6.598 -1.2434  1.6243  0.8092
  149SAPE   H6Y16438   2.421   5.047   6.544  1.8539  1.0547 -0.8042
  149SAPE   C3716439   2.495   4.873   6.442 -0.1203 -0.0456  0.6099
  149SAPE   H7X16440   2.391   4.835   6.433 -0.4664  0.7516  1.1015
  149SAPE   H7Y16441   2.559   4.784   6.459 -4.5846 -3.7931 -0.1543
  149SAPE   C3816442   2.543   4.946   6.313 -0.4117 -0.0165 -0.0525
  149SAPE   H8X16443   2.647   4.978   6.332 -0.1116  0.2307 -1.9478
  149SAPE   H8Y16444   2.469   5.027   6.296 -0.4368 -0.1423 -0.5652
  149SAPE   C3916445   2.531   4.851   6.197  0.1617 -0.2240  0.1173
  149SAPE   H9X16446   2.436   4.867   6.142  0.2683 -2.1120 -0.6991
  149SAPE   H9Y16447   2.515   4.751   6.242  0.4110 -1.3961 -2.2278
  149SAPE  C31016448   2.644   4.845   6.089  0.3304  0.0898  0.8760
  149SAPE  H10X16449   2.621   4.755   6.028  1.7308 -1.3210  2.3129
  149SAPE  H10Y16450   2.739   4.815   6.139 -0.8692 -2.0759  1.9901
  149SAPE  C31116451   2.673   4.965   5.999 -0.4916 -0.0040  0.4253
  149SAPE  H11X16452   2.711   5.047   6.064 -1.7254  1.1329 -0.2307
  149SAPE  H11Y16453   2.578   5.000   5.953  0.8822  1.8062 -1.2412
  149SAPE  C31216454   2.763   4.924   5.879 -0.3039 -0.7388  0.5699
  149SAPE  H12X16455   2.709   4.853   5.813  1.8439  0.5951 -2.9196
  149SAPE  H12Y16456   2.859   4.885   5.919  2.4879  4.0440 -0.6127
  149SAPE  C31316457   2.798   5.048   5.789  0.3298  0.0684  0.4334
  149SAPE  H13X16458   2.841   5.120   5.861 -0.2426  0.7404  0.1198
  149SAPE  H13Y16459   2.703   5.085   5.746  0.5758  0.8310  0.5353
  149SAPE  C31416460   2.899   5.023   5.674 -0.1057  0.5616 -1.0833
  149SAPE  H14X16461   2.881   4.957   5.587  0.9622 -0.0599 -0.8638
  149SAPE  H14Y16462   2.986   4.966   5.714 -1.4354 -0.2497  0.7698
  149SAPE  C31516463   2.945   5.155   5.616 -0.8721  0.2117 -0.9303
  149SAPE  H15X16464   2.955   5.219   5.706 -1.0809 -1.1155  0.0540
  149SAPE  H15Y16465   2.874   5.205   5.546 -0.6659 -1.3907 -2.3521
  149SAPE  C31616466   3.085   5.134   5.544 -0.2402 -0.2901  0.2584
  149SAPE  H16X16467   3.158   5.071   5.598  1.6882  0.9083 -0.8298
  149SAPE  H16Y16468   3.142   5.229   5.537 -1.4204  0.4491  0.3361
  149SAPE  C31716469   3.066   5.081   5.398 -0.0309 -0.9138  0.1918
  149SAPE  H17X16470   3.000   5.153   5.344  0.5865  0.7526  1.5969
  149SAPE  H17Y16471   3.020   4.980   5.404  0.7306 -1.2567  0.2927
  149SAPE  C31816472   3.191   5.075   5.322 -0.0106  0.4595  0.7901
  149SAPE  H18X16473   3.253   5.166   5.336  0.9377  0.4264 -2.3425
  149SAPE  H18Y16474   3.172   5.080   5.212  0.3403 -2.5447  0.5215
  149SAPE  H18Z16475   3.253   4.988   5.352  0.8906  1.1614  1.0064
  150SAPE     N16476   3.210   6.582   7.290 -0.3090  0.3880  0.8625
  150SAPE   HN116477   3.310   6.584   7.260 -0.5419  3.1009  0.0481
  150SAPE   HN216478   3.201   6.499   7.352  2.0796  0.2439  1.1266
  150SAPE   HN316479   3.143   6.577   7.210 -1.5025  2.0836  1.7022
  150SAPE   C1216480   3.167   6.701   7.369 -0.3465 -0.7417  0.4183
  150SAPE  H12A16481   3.240   6.707   7.453  1.1457  2.2549 -0.9120
  150SAPE  H12B16482   3.064   6.695   7.410 -1.4360  1.8042 -1.6015
  150SAPE   C1116483   3.183   6.840   7.297 -0.2925  0.0065  0.4370
  150SAPE  H11A16484   3.118   6.857   7.209 -0.4490 -1.7771  0.1763
  150SAPE  H11B16485   3.285   6.844   7.252 -1.0310  0.3055 -1.2758
  150SAPE     P16486   3.163   7.086   7.359 -0.3566 -0.4447  0.1288
  150SAPE   O1316487   3.041   7.129   7.427  0.4016 -0.1715  0.2638
  150SAPE   O1416488   3.287   7.158   7.383 -0.1938  0.2128 -0.3288
  150SAPE   O1216489   3.191   6.936   7.391 -0.1008  0.5300 -0.0059
  150SAPE   O1116490   3.139   7.076   7.198 -0.3733  0.5441  0.2484
  150SAPE    C116491   3.173   7.185   7.115  0.4617 -1.0540 -0.8875
  150SAPE    HA16492   3.106   7.266   7.150  1.5361 -0.1832 -0.8023
  150SAPE    HB16493   3.282   7.206   7.120  0.3309 -0.4646 -0.3914
  150SAPE    C216494   3.142   7.150   6.968  0.1632 -0.1197  0.0203
  150SAPE    HS16495   3.166   7.236   6.902 -0.8987  0.9417  0.9719
  150SAPE   O2116496   3.001   7.120   6.957 -0.0179  0.2689 -0.2141
  150SAPE   C2116497   2.896   7.209   6.966 -0.0016  0.1063  0.4563
  150SAPE   O2216498   2.910   7.324   6.997  0.6101  0.0773 -0.8954
  150SAPE   C2216499   2.757   7.146   6.927 -0.1407  0.6963 -0.1644
  150SAPE   H2R16500   2.763   7.130   6.817  0.7221 -1.3806  0.1389
  150SAPE   H2S16501   2.761   7.047   6.976 -0.4584  1.3617  1.2689
  150SAPE    C316502   3.222   7.028   6.928 -0.2490 -0.4688 -0.5444
  150SAPE    HX16503   3.172   6.943   6.980 -0.2724  0.3151  0.7735
  150SAPE    HY16504   3.324   7.038   6.972 -0.9376  1.3268  0.7830
  150SAPE   O3116505   3.239   7.020   6.789  0.2680 -0.7158  0.5933
  150SAPE   C3116506   3.301   6.916   6.750 -0.2240  0.8354 -0.1279
  150SAPE   O3216507   3.324   6.820   6.823 -0.6071 -0.2003  0.6157
  150SAPE   C3216508   3.317   6.916   6.595 -0.3967 -0.5891 -0.6007
  150SAPE   H2X16509   3.318   6.818   6.542 -2.8071  0.8787 -3.6528
  150SAPE   H2Y16510   3.421   6.949   6.574  0.3524 -3.2586 -1.4541
  150SAPE   C2316511   2.645   7.238   6.965  0.4567 -0.4538  0.4782
  150SAPE   H3R16512   2.672   7.318   7.037  1.3791  2.2558 -2.5956
  150SAPE   H3S16513   2.563   7.170   6.996  1.0499 -2.1362 -1.4379
  150SAPE   C2416514   2.584   7.326   6.850 -0.0568 -0.1829  0.2199
  150SAPE   H4R16515   2.503   7.389   6.893 -1.1471 -0.3293 -1.5067
  150SAPE   H4S16516   2.536   7.254   6.780  0.8016 -0.6248  0.0678
  150SAPE   C2516517   2.693   7.418   6.790 -0.8089  0.3070  0.3063
  150SAPE   H5R16518   2.709   7.515   6.839 -0.7621  0.5744 -0.2306
  150SAPE   C2616519   2.763   7.407   6.674  0.2266  1.5264  0.0690
  150SAPE   H6R16520   2.849   7.475   6.662  1.5382 -0.0259  0.3842
  150SAPE   C2716521   2.738   7.307   6.561 -0.1534 -0.0180  0.4509
  150SAPE   H7R16522   2.725   7.201   6.591  1.8173 -1.0084 -1.8127
  150SAPE   H7S16523   2.825   7.301   6.492 -0.9090  1.7106 -0.7275
  150SAPE   C2816524   2.611   7.338   6.477 -0.3392 -0.1738 -0.1851
  150SAPE   H8R16525   2.514   7.292   6.499 -1.6643  2.0249 -1.0341
  150SAPE   C2916526   2.605   7.438   6.382  0.0727  0.7926  0.5267
  150SAPE   H9R16527   2.514   7.453   6.321 -0.6906 -3.1165  0.4410
  150SAPE  C21016528   2.721   7.520   6.336 -0.0289 -0.0063 -0.4222
  150SAPE  H10R16529   2.798   7.532   6.415 -0.1619 -1.0834 -0.1198
  150SAPE  H10S16530   2.677   7.621   6.321 -1.1417 -0.3059  0.7106
  150SAPE  C21116531   2.782   7.464   6.212 -0.2147 -0.0651 -0.4333
  150SAPE  H11R16532   2.809   7.357   6.210 -1.3657 -0.3603 -2.7782
  150SAPE  C21216533   2.835   7.541   6.121 -0.4726  0.2391  0.1225
  150SAPE  H12R16534   2.883   7.488   6.037 -1.5013 -0.2090 -0.2010
  150SAPE  C21316535   2.838   7.693   6.106  0.5459  0.5580 -0.6029
  150SAPE  H13R16536   2.940   7.732   6.090  1.5542 -1.8088 -0.2886
  150SAPE  H13S16537   2.797   7.752   6.191 -0.1993  1.6849 -1.6999
  150SAPE  C21416538   2.751   7.744   5.993  0.2480 -0.4888 -0.2215
  150SAPE  H14R16539   2.642   7.743   6.006  0.1305 -2.5195 -1.0422
  150SAPE  C21516540   2.796   7.779   5.871  0.1713 -0.4144  0.1592
  150SAPE  H15R16541   2.724   7.819   5.798  1.5462 -1.0044 -1.5794
  150SAPE  C21616542   2.944   7.785   5.828  0.3239 -0.5394 -0.4243
  150SAPE  H16R16543   3.026   7.753   5.896  1.5916  3.5263  0.2846
  150SAPE  H16S16544   2.959   7.892   5.802  2.7832 -1.0999 -1.5765
  150SAPE  C21716545   2.966   7.723   5.689  0.0131 -0.3677 -0.3075
  150SAPE  H17R16546   2.927   7.619   5.681 -1.9638  0.1643  1.5245
  150SAPE  H17S16547   3.073   7.719   5.660 -0.1332 -0.3876 -0.8504
  150SAPE  C21816548   2.904   7.812   5.571  0.6168 -0.0373  0.4436
  150SAPE  H18R16549   2.934   7.919   5.561  0.1760  0.0522  0.0334
  150SAPE  H18S16550   2.798   7.815   5.604  0.5757 -0.1987  0.3278
  150SAPE  C21916551   2.903   7.750   5.429 -0.0423  0.3572  0.0067
  150SAPE  H19R16552   2.882   7.641   5.437  0.2076  0.3016 -0.0639
  150SAPE  H19S16553   3.008   7.765   5.394  0.2470 -0.3508  0.5442
  150SAPE  C22016554   2.802   7.821   5.337  0.0227 -0.5813  0.6293
  150SAPE  H20R16555   2.700   7.791   5.368 -0.4618  1.9212  1.7158
  150SAPE  H20S16556   2.804   7.808   5.227 -1.9142 -0.8398  0.5954
  150SAPE  H20T16557   2.803   7.929   5.365  0.2495 -0.5225  0.3980
  150SAPE   C3316558   3.225   7.009   6.508  0.6814 -0.6664 -0.7614
  150SAPE   H3X16559   3.235   7.115   6.540 -2.5295 -0.5996  0.3415
  150SAPE   H3Y16560   3.122   6.982   6.539  1.3468 -1.1834  1.0911
  150SAPE   C3416561   3.238   6.996   6.354 -0.1095  0.2304 -0.2535
  150SAPE   H4X16562   3.213   6.894   6.319  0.6055  0.5442 -1.7426
  150SAPE   H4Y16563   3.341   7.022   6.320  0.0720 -0.1417 -0.0037
  150SAPE   C3516564   3.142   7.087   6.282 -0.5007  0.5151  0.2724
  150SAPE   H5X16565   3.192   7.186   6.292  3.7996 -1.4500  0.4107
  150SAPE   H5Y16566   3.041   7.086   6.328 -0.3930 -0.6273  0.5098
  150SAPE   C3616567   3.129   7.063   6.132  0.2383 -0.1937  0.0005
  150SAPE   H6X16568   3.077   6.966   6.117  1.9185 -1.5294  2.2349
  150SAPE   H6Y16569   3.230   7.050   6.085  0.1569 -0.7426 -0.0287
  150SAPE   C3716570   3.058   7.167   6.058  0.9737  0.1657 -0.1264
  150SAPE   H7X16571   3.123   7.257   6.051 -0.2046  1.3054  2.1911
  150SAPE   H7Y16572   2.970   7.192   6.121  1.1371  0.3958  0.0148
  150SAPE   C3816573   3.018   7.131   5.914  0.3765  0.2989 -0.3376
  150SAPE   H8X16574   2.956   7.039   5.919  0.2778  0.3848  0.0112
  150SAPE   H8Y16575   3.109   7.105   5.855 -0.3603 -0.4873 -1.1746
  150SAPE   C3916576   2.951   7.247   5.851  0.4358  0.0445 -0.4379
  150SAPE   H9X16577   3.008   7.340   5.832 -2.6183  1.9887 -0.5687
  150SAPE   H9Y16578   2.876   7.282   5.924  2.1144  0.7940  0.9977
  150SAPE  C31016579   2.886   7.214   5.712 -0.5638 -0.0190  0.6831
  150SAPE  H10X16580   2.967   7.174   5.647 -0.1134  1.9624 -0.0695
  150SAPE  H10Y16581   2.862   7.309   5.660  1.3626 -1.1339 -2.5666
  150SAPE  C31116582   2.774   7.109   5.707  0.4974 -0.3272 -0.0704
  150SAPE  H11X16583   2.690   7.141   5.773  1.2874 -0.3388  0.9732
  150SAPE  H11Y16584   2.799   7.009   5.748 -1.9415 -0.6877  0.6849
  150SAPE  C31216585   2.709   7.089   5.574  0.3916 -0.5308  0.0116
  150SAPE  H12X16586   2.691   7.191   5.532 -2.0338 -0.6205  0.6378
  150SAPE  H12Y16587   2.613   7.036   5.591  0.8516 -0.6532  2.6747
  150SAPE  C31316588   2.783   7.006   5.467  0.7264 -0.8713 -0.4983
  150SAPE  H13X16589   2.829   6.916   5.512 -0.3230 -0.4342  1.5992
  150SAPE  H13Y16590   2.865   7.076   5.439 -1.1494  2.5951  1.8553
  150SAPE  C31416591   2.688   6.966   5.361 -0.2644  0.5832  0.4836
  150SAPE  H14X16592   2.651   7.062   5.319 -0.1425  2.5752  4.5085
  150SAPE  H14Y16593   2.605   6.907   5.405 -0.0483  0.0819  0.2184
  150SAPE  C31516594   2.770   6.890   5.251  0.4396 -0.4457 -0.8407
  150SAPE  H15X16595   2.876   6.919   5.264  0.8610 -2.2597  0.0404
  150SAPE  H15Y16596   2.732   6.912   5.149 -0.5557  3.5369  0.2003
  150SAPE  C31616597   2.761   6.739   5.289  0.8096  0.1071 -0.3143
  150SAPE  H16X16598   2.658   6.702   5.304  1.3910 -1.5339 -0.2197
  150SAPE  H16Y16599   2.807   6.726   5.389 -0.4604 -1.2382  0.1294
  150SAPE  C31716600   2.826   6.646   5.179  0.8159  0.4479  0.3205
  150SAPE  H17X16601   2.937   6.654   5.177  0.9307 -0.9773 -1.1170
  150SAPE  H17Y16602   2.791   6.669   5.076 -1.3631 -0.0686  0.9044
  150SAPE  C31816603   2.790   6.496   5.195  1.2262 -0.5766  0.7147
  150SAPE  H18X16604   2.821   6.440   5.104  0.8187  0.0418  0.1821
  150SAPE  H18Y16605   2.680   6.484   5.204  1.0472 -1.0743 -1.5128
  150SAPE  H18Z16606   2.819   6.446   5.290 -1.6052 -0.4839  1.7251
  151SAPE     N16607   4.803   3.264   7.947 -0.0490  0.1146 -0.0618
  151SAPE   HN116608   4.853   3.325   8.015 -0.6887  1.8557 -1.1074
  151SAPE   HN216609   4.778   3.177   8.000  0.4199  0.2744  0.4320
  151SAPE   HN316610   4.878   3.236   7.881  0.3818 -0.4313  0.6352
  151SAPE   C1216611   4.697   3.340   7.876  0.4764  0.3741 -0.3255
  151SAPE  H12A16612   4.608   3.342   7.943  0.9165 -0.8150  0.3185
  151SAPE  H12B16613   4.654   3.275   7.796  0.2562 -0.7701  0.6872
  151SAPE   C1116614   4.750   3.470   7.822 -0.0538 -0.9046  0.5726
  151SAPE  H11A16615   4.774   3.538   7.907 -0.6294 -0.1126  0.1064
  151SAPE  H11B16616   4.675   3.526   7.764 -0.8716 -1.8423  0.6991
  151SAPE     P16617   4.935   3.525   7.637  0.3029  0.1814  0.0147
  151SAPE   O1316618   4.872   3.660   7.636 -0.4116 -0.0488 -0.1802
  151SAPE   O1416619   5.083   3.512   7.652 -0.5000  0.4715  0.4604
  151SAPE   O1216620   4.866   3.438   7.748  0.5025  0.3460  0.1335
  151SAPE   O1116621   4.896   3.450   7.502 -0.3363 -0.9262  0.7178
  151SAPE    C116622   4.826   3.326   7.490  0.0733  0.2030 -0.2221
  151SAPE    HA16623   4.866   3.237   7.543 -1.8822 -1.6993 -1.7420
  151SAPE    HB16624   4.722   3.330   7.529 -0.0886 -1.8250 -0.3196
  151SAPE    C216625   4.823   3.290   7.342  0.0816  0.0598  0.0012
  151SAPE    HS16626   4.928   3.270   7.311  0.4433 -1.0896  1.7997
  151SAPE   O2116627   4.761   3.399   7.263 -0.2766 -0.6082 -0.2434
  151SAPE   C2116628   4.791   3.403   7.133 -0.7623  0.0658  0.6004
  151SAPE   O2216629   4.865   3.330   7.073  0.4174  0.1921  0.1826
  151SAPE   C2216630   4.729   3.525   7.070 -0.0077 -0.6722  0.1078
  151SAPE   H2R16631   4.636   3.558   7.120 -0.9469 -1.4618 -1.0653
  151SAPE   H2S16632   4.799   3.612   7.067  0.2673 -0.9211 -0.8512
  151SAPE    C316633   4.734   3.158   7.326  0.4861  0.2425 -0.3315
  151SAPE    HX16634   4.637   3.179   7.376  0.5038  0.2147 -0.2859
  151SAPE    HY16635   4.773   3.074   7.387  0.9443  1.1096  0.6032
  151SAPE   O3116636   4.702   3.107   7.194  0.0127  0.4482 -0.4326
  151SAPE   C3116637   4.803   3.051   7.133  0.3148  0.0359 -0.4115
  151SAPE   O3216638   4.915   3.033   7.179  0.0756  0.3775  0.0594
  151SAPE   C3216639   4.763   2.997   6.998 -0.4595 -0.0111  0.0006
  151SAPE   H2X16640   4.667   3.044   6.968 -0.4620  0.9330  1.3900
  151SAPE   H2Y16641   4.742   2.889   7.010  1.6227 -0.3239  1.2137
  151SAPE   C2316642   4.689   3.508   6.927  0.4817 -0.5693  0.0237
  151SAPE   H3R16643   4.776   3.454   6.882  1.4019 -0.7714  1.9129
  151SAPE   H3S16644   4.664   3.602   6.874 -1.6697 -0.7146  0.7049
  151SAPE   C2416645   4.568   3.417   6.912  0.3046  0.4675  0.4576
  151SAPE   H4R16646   4.483   3.469   6.961  0.1403  0.0494  0.6178
  151SAPE   H4S16647   4.586   3.323   6.969  2.8503 -0.6880 -1.9877
  151SAPE   C2516648   4.551   3.399   6.762  0.0731  0.1820 -0.1840
  151SAPE   H5R16649   4.634   3.343   6.718 -0.6383 -0.2075 -1.0716
  151SAPE   C2616650   4.462   3.459   6.681 -1.0245 -0.4799 -0.1747
  151SAPE   H6R16651   4.457   3.431   6.575  1.1006 -1.5242 -0.0521
  151SAPE   C2716652   4.359   3.562   6.720  0.7539  0.3169  0.5750
  151SAPE   H7R16653   4.355   3.640   6.642  3.0548  0.8542  0.9397
  151SAPE   H7S16654   4.397   3.615   6.810  4.0873 -0.5077 -0.2117
  151SAPE   C2816655   4.228   3.488   6.750 -0.2034 -1.4952 -0.2276
  151SAPE   H8R16656   4.234   3.417   6.833  1.7574  1.0328  1.9716
  151SAPE   C2916657   4.108   3.517   6.692 -0.2577  0.1845 -0.0206
  151SAPE   H9R16658   4.016   3.471   6.728  0.8249 -1.7451  0.4028
  151SAPE  C21016659   4.088   3.608   6.571 -1.0559 -0.3459 -0.3439
  151SAPE  H10R16660   4.174   3.604   6.502 -0.6967  1.4933 -0.0591
  151SAPE  H10S16661   4.080   3.712   6.610  1.5394 -0.2411  0.0991
  151SAPE  C21116662   3.957   3.588   6.496 -1.1032  0.4110 -0.4253
  151SAPE  H11R16663   3.867   3.609   6.555 -1.3489  0.4537 -0.8072
  151SAPE  C21216664   3.950   3.565   6.361  1.0303  0.2106 -0.2413
  151SAPE  H12R16665   3.848   3.557   6.321  0.9754 -1.7902  0.1748
  151SAPE  C21316666   4.069   3.524   6.273  0.3444  0.1029 -0.1918
  151SAPE  H13R16667   4.166   3.503   6.323  0.7792 -1.9820 -1.7468
  151SAPE  H13S16668   4.084   3.609   6.203  1.7255  1.4477  1.6475
  151SAPE  C21416669   4.053   3.401   6.181  0.7101  0.2478 -0.1974
  151SAPE  H14R16670   4.061   3.307   6.238 -2.3285  0.3502  0.6018
  151SAPE  C21516671   4.035   3.393   6.051  0.0309  0.3449  0.2015
  151SAPE  H15R16672   4.039   3.293   6.004  0.0506  0.5549 -0.2439
  151SAPE  C21616673   4.031   3.496   5.949  0.5712  0.1971 -0.3096
  151SAPE  H16R16674   4.112   3.477   5.875  0.1453 -1.4663 -0.3743
  151SAPE  H16S16675   4.029   3.600   5.989 -1.8188  0.1488 -0.1669
  151SAPE  C21716676   3.901   3.482   5.863  0.2579  0.0328  0.0253
  151SAPE  H17R16677   3.816   3.519   5.925  0.0490 -1.0015  0.3696
  151SAPE  H17S16678   3.870   3.379   5.838 -1.1751  0.6045 -0.6695
  151SAPE  C21816679   3.884   3.584   5.737 -0.2319  0.0013 -0.0152
  151SAPE  H18R16680   3.982   3.572   5.687 -0.1122 -0.3796  0.3023
  151SAPE  H18S16681   3.871   3.689   5.770  0.3578 -0.3554  1.4313
  151SAPE  C21916682   3.762   3.553   5.643  0.1767 -0.4187 -0.3365
  151SAPE  H19R16683   3.785   3.455   5.595 -1.7736 -1.3639  0.5418
  151SAPE  H19S16684   3.745   3.621   5.557  0.3203 -0.4672 -0.4033
  151SAPE  C22016685   3.625   3.548   5.716 -0.1390 -0.4508  0.2327
  151SAPE  H20R16686   3.550   3.503   5.648 -0.3457  0.9729 -0.5351
  151SAPE  H20S16687   3.591   3.650   5.745  0.0650 -0.6967  1.3738
  151SAPE  H20T16688   3.629   3.476   5.800 -0.4817 -3.3239 -2.0578
  151SAPE   C3316689   4.865   3.026   6.885 -0.3307  0.1018  0.5920
  151SAPE   H3X16690   4.966   2.982   6.894 -0.1416  0.4420  0.1616
  151SAPE   H3Y16691   4.868   3.136   6.873 -1.2328  0.0596 -0.1686
  151SAPE   C3416692   4.821   2.974   6.748  0.1530  0.2994 -0.0718
  151SAPE   H4X16693   4.712   2.961   6.768  0.0577  1.9888  0.6152
  151SAPE   H4Y16694   4.867   2.875   6.724 -1.0942  0.1749 -2.2694
  151SAPE   C3516695   4.860   3.049   6.617  0.4775  0.4799 -0.2739
  151SAPE   H5X16696   4.971   3.039   6.612  0.6286 -0.2191  2.4554
  151SAPE   H5Y16697   4.833   3.156   6.627 -3.9976 -0.4323 -0.8751
  151SAPE   C3616698   4.798   3.008   6.485  0.7769 -0.2785 -0.3875
  151SAPE   H6X16699   4.689   3.020   6.504  1.2065  2.1413  1.0735
  151SAPE   H6Y16700   4.821   2.900   6.474  0.6934 -0.1352 -2.2061
  151SAPE   C3716701   4.828   3.090   6.367 -0.2217 -0.2584  0.1309
  151SAPE   H7X16702   4.938   3.091   6.349 -0.1817 -1.9000  0.0941
  151SAPE   H7Y16703   4.785   3.191   6.382 -2.2687 -1.1803  0.8755
  151SAPE   C3816704   4.776   3.024   6.241 -0.1953  0.7534  0.4752
  151SAPE   H8X16705   4.667   3.004   6.255  0.0162 -2.1735 -1.1925
  151SAPE   H8Y16706   4.833   2.929   6.230  0.1308  1.1222 -1.3758
  151SAPE   C3916707   4.796   3.113   6.113  0.4191 -0.4731  0.4411
  151SAPE   H9X16708   4.733   3.204   6.121 -0.9089 -1.4491  1.7577
  151SAPE   H9Y16709   4.761   3.046   6.031  0.7502 -1.0311  0.7438
  151SAPE  C31016710   4.940   3.144   6.084 -0.5001 -0.0497 -0.3099
  151SAPE  H10X16711   5.001   3.052   6.096  0.9325  1.0294  1.1473
  151SAPE  H10Y16712   4.980   3.219   6.155 -0.5237  0.4136 -0.7773
  151SAPE  C31116713   4.962   3.188   5.938 -0.8177  0.5690 -0.2737
  151SAPE  H11X16714   5.046   3.260   5.923 -1.0554  0.9555  0.2066
  151SAPE  H11Y16715   4.875   3.252   5.911 -0.5789  1.1371  0.2732
  151SAPE  C31216716   4.993   3.069   5.840 -0.3554 -0.7301 -0.5121
  151SAPE  H12X16717   4.912   2.993   5.840 -0.7088 -0.4177  1.3925
  151SAPE  H12Y16718   5.087   3.015   5.865 -0.6989  0.0213  2.9845
  151SAPE  C31316719   4.999   3.120   5.693 -0.3574 -0.1100  0.6187
  151SAPE  H13X16720   5.024   3.030   5.633 -2.0234 -0.6365  0.6498
  151SAPE  H13Y16721   5.081   3.194   5.684 -0.6341  0.4807  2.5146
  151SAPE  C31416722   4.869   3.183   5.631  0.1993  0.0340  0.3842
  151SAPE  H14X16723   4.835   3.265   5.697  2.4477  1.4365 -0.0737
  151SAPE  H14Y16724   4.794   3.104   5.609  1.6617 -1.8164  1.7240
  151SAPE  C31516725   4.892   3.240   5.488 -0.2655 -0.6472 -0.2847
  151SAPE  H15X16726   4.804   3.263   5.425 -0.9307 -0.8244  0.5712
  151SAPE  H15Y16727   4.941   3.164   5.423 -2.1701  0.0435 -2.6504
  151SAPE  C31616728   4.969   3.375   5.499 -0.2236 -0.2087  0.2242
  151SAPE  H16X16729   5.062   3.370   5.561  0.2094  0.2210 -0.3797
  151SAPE  H16Y16730   4.902   3.451   5.544 -0.4456 -1.1929  1.6431
  151SAPE  C31716731   5.021   3.417   5.371  0.2464  0.1307  0.0988
  151SAPE  H17X16732   5.066   3.326   5.326  0.9333  0.1856  0.6564
  151SAPE  H17Y16733   5.117   3.470   5.390  1.4225 -2.4722  1.9572
  151SAPE  C31816734   4.917   3.492   5.285  0.0975  0.2481 -0.2474
  151SAPE  H18X16735   4.830   3.423   5.276  0.0782  0.0512  1.1640
  151SAPE  H18Y16736   4.957   3.533   5.190 -1.8197 -1.1111 -1.7232
  151SAPE  H18Z16737   4.883   3.581   5.343 -0.2424 -1.3337  2.1546
  152SAPE     N16738   6.353   4.914   7.604  0.1460  0.5728  0.2689
  152SAPE   HN116739   6.421   4.846   7.644 -1.9408 -0.2270  2.7709
  152SAPE   HN216740   6.382   4.980   7.529 -1.4235  0.8994 -0.0959
  152SAPE   HN316741   6.327   4.976   7.683 -0.0579  2.3213 -1.1185
  152SAPE   C1216742   6.231   4.835   7.576 -0.1108  0.5993 -0.4079
  152SAPE  H12A16743   6.240   4.740   7.632  1.0062  0.6215 -0.5268
  152SAPE  H12B16744   6.237   4.814   7.467 -1.9602  0.9095 -0.5987
  152SAPE   C1116745   6.107   4.925   7.623 -0.1251  0.0556  0.2539
  152SAPE  H11A16746   6.125   4.951   7.730  0.8882  0.6807 -0.0538
  152SAPE  H11B16747   6.015   4.863   7.621 -0.8667  0.9628  2.5846
  152SAPE     P16748   5.984   5.145   7.555 -0.5787  0.1113  0.0905
  152SAPE   O1316749   5.912   5.122   7.684  0.3261 -0.1164  0.4941
  152SAPE   O1416750   6.047   5.279   7.533  0.3868  0.3765 -0.4311
  152SAPE   O1216751   6.106   5.039   7.540  0.0082  0.7891 -0.2773
  152SAPE   O1116752   5.896   5.110   7.432  0.0323 -0.2902  1.0936
  152SAPE    C116753   5.822   5.210   7.370 -0.5830 -0.6396  0.4819
  152SAPE    HA16754   5.717   5.216   7.407 -0.3782  0.5934  0.8765
  152SAPE    HB16755   5.874   5.308   7.369 -1.0335 -0.3927 -0.5006
  152SAPE    C216756   5.836   5.176   7.218  0.5009 -0.0048 -0.0105
  152SAPE    HS16757   5.773   5.246   7.158 -0.0666 -1.4362 -1.1580
  152SAPE   O2116758   5.799   5.035   7.190  0.1619  0.1144 -0.0023
  152SAPE   C2116759   5.670   5.020   7.189  0.1436 -0.1155 -0.3554
  152SAPE   O2216760   5.591   5.108   7.214 -0.1178 -1.0648 -0.3424
  152SAPE   C2216761   5.631   4.885   7.139 -0.2564 -0.2139  0.2652
  152SAPE   H2R16762   5.694   4.806   7.186 -0.2024 -1.8918 -2.3785
  152SAPE   H2S16763   5.529   4.867   7.179 -1.6589 -0.9998 -3.3134
  152SAPE    C316764   5.985   5.191   7.167  0.2468  0.2486 -0.2201
  152SAPE    HX16765   6.054   5.139   7.236 -1.8875  2.3975  3.9475
  152SAPE    HY16766   6.005   5.300   7.182  2.3155  0.1204 -1.7338
  152SAPE   O3116767   5.982   5.162   7.029 -0.5396  0.5274  0.1185
  152SAPE   C3116768   6.101   5.146   6.973  0.1141  0.3192 -0.4911
  152SAPE   O3216769   6.207   5.189   7.014 -0.0021  0.1402 -0.5072
  152SAPE   C3216770   6.081   5.063   6.848 -0.9172  0.5744 -0.8819
  152SAPE   H2X16771   5.980   5.090   6.810 -0.0686  2.0323 -2.2717
  152SAPE   H2Y16772   6.068   4.955   6.869  0.0480  0.6682  0.3313
  152SAPE   C2316773   5.628   4.865   6.983  0.5569  0.2101 -0.4144
  152SAPE   H3R16774   5.560   4.942   6.940 -2.6061 -1.3757  1.3841
  152SAPE   H3S16775   5.596   4.765   6.948 -0.7864  0.2505  0.6498
  152SAPE   C2416776   5.765   4.891   6.912  1.0582 -0.1125 -0.1195
  152SAPE   H4R16777   5.831   4.808   6.945 -0.3046 -1.4009 -0.5288
  152SAPE   H4S16778   5.803   4.988   6.951 -1.3192  0.5940  0.5910
  152SAPE   C2516779   5.748   4.893   6.762  0.3430  0.4407  0.1488
  152SAPE   H5R16780   5.668   4.959   6.729  1.0206  0.6561 -1.1078
  152SAPE   C2616781   5.804   4.808   6.674  0.5853  0.1628 -0.2602
  152SAPE   H6R16782   5.767   4.808   6.571  0.4133 -1.0103 -0.2110
  152SAPE   C2716783   5.910   4.701   6.694 -0.3404 -0.2715  0.2224
  152SAPE   H7R16784   5.966   4.709   6.790 -0.2656  0.5558  0.1189
  152SAPE   H7S16785   5.986   4.720   6.616  0.7208 -0.1261  1.2538
  152SAPE   C2816786   5.848   4.566   6.694  0.3130 -0.1080  0.8510
  152SAPE   H8R16787   5.828   4.522   6.793 -1.4942 -1.3092  0.0104
  152SAPE   C2916788   5.807   4.499   6.584 -0.3451  0.6407 -0.5963
  152SAPE   H9R16789   5.778   4.395   6.601  2.3487  0.3166  4.0005
  152SAPE  C21016790   5.838   4.551   6.446 -0.5163  0.2614  0.6172
  152SAPE  H10R16791   5.894   4.471   6.393 -0.4381  0.7967 -0.1244
  152SAPE  H10S16792   5.920   4.625   6.453 -0.6427  0.3515  1.1944
  152SAPE  C21116793   5.712   4.592   6.374 -0.2370 -0.4154 -0.1746
  152SAPE  H11R16794   5.690   4.699   6.386 -0.2651 -0.2347 -1.6428
  152SAPE  C21216795   5.641   4.524   6.291  0.4016  0.2493 -0.5041
  152SAPE  H12R16796   5.542   4.561   6.259 -0.5343 -1.5942  0.1285
  152SAPE  C21316797   5.660   4.388   6.241 -0.2467 -0.2503  0.3933
  152SAPE  H13R16798   5.763   4.353   6.260  0.8438  1.0069 -2.6001
  152SAPE  H13S16799   5.660   4.395   6.130  0.5642 -0.3034  0.3847
  152SAPE  C21416800   5.547   4.299   6.294 -0.1522 -0.4770 -0.0249
  152SAPE  H14R16801   5.577   4.280   6.398  1.1969  0.6168 -0.1837
  152SAPE  C21516802   5.430   4.263   6.236 -0.0229 -0.0798 -0.4105
  152SAPE  H15R16803   5.356   4.207   6.294 -1.0763  0.4276 -1.2251
  152SAPE  C21616804   5.390   4.296   6.097 -0.6030 -0.9258 -0.6286
  152SAPE  H16R16805   5.436   4.395   6.077  1.5820 -1.2223  2.2499
  152SAPE  H16S16806   5.281   4.319   6.101 -0.1061  1.5236  1.9658
  152SAPE  C21716807   5.410   4.200   5.983 -0.5962  0.3576 -0.5861
  152SAPE  H17R16808   5.366   4.103   6.014  1.0555 -0.6113 -1.1756
  152SAPE  H17S16809   5.517   4.182   5.958  0.0107  1.9986  0.6235
  152SAPE  C21816810   5.327   4.232   5.859 -0.2698 -0.1258  0.0981
  152SAPE  H18R16811   5.225   4.264   5.888 -1.1625 -1.4397 -1.4401
  152SAPE  H18S16812   5.324   4.142   5.795  2.2106 -0.0231 -0.2421
  152SAPE  C21916813   5.391   4.343   5.777 -0.6349  0.8270 -0.3415
  152SAPE  H19R16814   5.477   4.385   5.834 -0.0729  1.4535 -1.6103
  152SAPE  H19S16815   5.311   4.420   5.768 -0.9063  0.3727 -2.1099
  152SAPE  C22016816   5.442   4.300   5.640 -0.6225 -0.0828 -0.3724
  152SAPE  H20R16817   5.481   4.392   5.590 -0.7788 -0.2702 -0.8483
  152SAPE  H20S16818   5.352   4.276   5.579 -0.2054  1.6237 -1.7581
  152SAPE  H20T16819   5.513   4.215   5.643 -1.2342 -0.6158 -0.5789
  152SAPE   C3316820   6.184   5.076   6.734 -0.8953 -0.0729 -0.6152
  152SAPE   H3X16821   6.280   5.023   6.752 -0.4355  0.0121 -2.5989
  152SAPE   H3Y16822   6.204   5.185   6.726  2.7165 -0.5749  0.0083
  152SAPE   C3416823   6.129   5.033   6.596 -0.2839  0.5079 -0.3144
  152SAPE   H4X16824   6.028   5.079   6.588 -0.0983  0.7274 -1.5014
  152SAPE   H4Y16825   6.110   4.924   6.601  0.3247  0.4185  0.1451
  152SAPE   C3516826   6.206   5.070   6.476 -0.1678 -0.3750 -0.5492
  152SAPE   H5X16827   6.299   5.010   6.477 -0.7345 -1.3511 -2.1174
  152SAPE   H5Y16828   6.220   5.178   6.452 -0.8163 -0.3520 -0.8620
  152SAPE   C3616829   6.125   5.002   6.363 -0.3388  0.1332  0.7094
  152SAPE   H6X16830   6.018   5.032   6.360 -0.6918 -1.1301  0.1047
  152SAPE   H6Y16831   6.124   4.893   6.386  1.0331 -0.5911 -2.1540
  152SAPE   C3716832   6.202   5.017   6.228  0.2339  0.1355 -0.3303
  152SAPE   H7X16833   6.301   4.968   6.239 -0.3112 -0.6642  1.3100
  152SAPE   H7Y16834   6.224   5.126   6.216 -1.3540  0.3893 -1.2359
  152SAPE   C3816835   6.109   4.968   6.122 -0.3623 -0.0811 -0.0331
  152SAPE   H8X16836   6.016   5.029   6.127 -1.9887 -2.4606  0.5695
  152SAPE   H8Y16837   6.078   4.863   6.140  0.9067 -0.7164 -1.3891
  152SAPE   C3916838   6.172   4.973   5.979 -0.4099 -0.7944 -0.5541
  152SAPE   H9X16839   6.171   5.071   5.928  0.2013  0.1463  1.1662
  152SAPE   H9Y16840   6.113   4.907   5.912 -2.3563  0.6362 -0.3301
  152SAPE  C31016841   6.319   4.933   5.967 -0.3958 -0.1512 -0.1021
  152SAPE  H10X16842   6.343   4.853   6.040  1.7950 -0.2407 -0.8328
  152SAPE  H10Y16843   6.390   5.013   5.996 -0.2525  0.2372 -1.4328
  152SAPE  C31116844   6.352   4.891   5.818  0.6133 -0.3724  0.4742
  152SAPE  H11X16845   6.295   4.799   5.790  2.4390 -1.0545 -1.2104
  152SAPE  H11Y16846   6.455   4.850   5.815  0.0403 -1.8883  0.4493
  152SAPE  C31216847   6.346   5.011   5.722  0.7935 -0.1282  0.1966
  152SAPE  H12X16848   6.410   5.084   5.776 -1.6021  1.2429  1.3235
  152SAPE  H12Y16849   6.250   5.067   5.726  0.2004 -1.1189  3.7643
  152SAPE  C31316850   6.395   4.980   5.578  0.1267 -0.5847  0.2122
  152SAPE  H13X16851   6.317   4.924   5.523 -0.0541 -0.2941  0.1695
  152SAPE  H13Y16852   6.490   4.923   5.591  2.1216  2.6838  1.3758
  152SAPE  C31416853   6.423   5.113   5.497  0.8573 -0.0593 -0.2663
  152SAPE  H14X16854   6.507   5.085   5.431 -0.4322 -2.4282 -1.0172
  152SAPE  H14Y16855   6.451   5.194   5.568 -1.7886  1.0906 -0.4024
  152SAPE  C31516856   6.307   5.155   5.412  0.3255  0.1890  0.0197
  152SAPE  H15X16857   6.260   5.071   5.356  0.1098  1.1441 -1.2681
  152SAPE  H15Y16858   6.349   5.229   5.341  0.1961 -1.4115 -1.8053
  152SAPE  C31616859   6.191   5.224   5.482 -0.3727  0.0578  0.2526
  152SAPE  H16X16860   6.233   5.289   5.562 -1.7367 -0.1265  1.1425
  152SAPE  H16Y16861   6.136   5.150   5.544 -0.2418  1.1284  1.7213
  152SAPE  C31716862   6.091   5.304   5.396 -0.4561  0.2610 -0.4443
  152SAPE  H17X16863   6.015   5.343   5.468  0.9785  0.6543  0.9098
  152SAPE  H17Y16864   6.036   5.235   5.328 -4.1184  2.1165  0.3434
  152SAPE  C31816865   6.159   5.422   5.326  0.5963 -0.3211  0.3116
  152SAPE  H18X16866   6.203   5.492   5.400  2.2301 -0.8716 -0.0794
  152SAPE  H18Y16867   6.077   5.465   5.266  0.2112 -2.5021 -0.8637
  152SAPE  H18Z16868   6.235   5.398   5.247  0.4660  1.0411 -0.2458
  153SAPE     N16869   3.731   4.858   7.826  0.5434  0.2474 -0.9810
  153SAPE   HN116870   3.748   4.925   7.903  0.7153 -1.0648  0.1559
  153SAPE   HN216871   3.630   4.860   7.804 -0.1082 -0.6129  1.6434
  153SAPE   HN316872   3.772   4.766   7.853  1.2840  0.8670  0.0699
  153SAPE   C1216873   3.802   4.915   7.707  0.4111  0.4079 -0.3528
  153SAPE  H12A16874   3.748   5.010   7.689 -1.6010 -0.8725 -1.5036
  153SAPE  H12B16875   3.772   4.850   7.622 -3.2907 -1.3462  2.0757
  153SAPE   C1116876   3.949   4.916   7.727 -0.4889  0.6612 -0.4838
  153SAPE  H11A16877   3.980   4.965   7.632 -0.1031  0.5724 -0.4055
  153SAPE  H11B16878   3.981   4.810   7.720 -0.2928  0.6608  0.3595
  153SAPE     P16879   4.109   5.058   7.870 -0.3073 -0.0634 -0.5652
  153SAPE   O1316880   4.110   5.128   7.997 -0.2645 -0.2455 -0.4619
  153SAPE   O1416881   4.222   4.964   7.842  0.4551 -0.2035 -0.4426
  153SAPE   O1216882   3.971   4.988   7.850  0.2963 -0.6072 -0.0344
  153SAPE   O1116883   4.110   5.153   7.752 -0.0619 -0.5023  0.0252
  153SAPE    C116884   4.035   5.280   7.765 -0.1012  0.3034 -0.0932
  153SAPE    HA16885   3.942   5.269   7.706 -0.3103  1.6466 -0.0326
  153SAPE    HB16886   4.014   5.312   7.869  3.4132 -1.5266  1.3547
  153SAPE    C216887   4.105   5.401   7.694  0.0681 -0.6516  0.1081
  153SAPE    HS16888   4.049   5.492   7.723  1.4933  0.8605 -1.6626
  153SAPE   O2116889   4.083   5.393   7.544  0.1545 -0.3051  0.1811
  153SAPE   C2116890   4.126   5.503   7.473 -0.8042  0.7089  0.5710
  153SAPE   O2216891   4.163   5.606   7.522  0.0176 -0.5219  0.0146
  153SAPE   C2216892   4.137   5.459   7.324  0.2541 -0.6916  0.1907
  153SAPE   H2R16893   4.149   5.349   7.319  0.5514 -0.7311  1.3903
  153SAPE   H2S16894   4.034   5.475   7.284 -0.2032 -0.5387  1.3943
  153SAPE    C316895   4.251   5.409   7.741 -0.5536 -0.0692  0.7814
  153SAPE    HX16896   4.241   5.400   7.852 -2.0665 -0.0306  0.6626
  153SAPE    HY16897   4.295   5.506   7.712 -0.2573  0.0906  1.7309
  153SAPE   O3116898   4.322   5.302   7.679 -0.7930  0.3211 -0.3168
  153SAPE   C3116899   4.458   5.308   7.678  0.3809 -0.0498 -0.9176
  153SAPE   O3216900   4.522   5.394   7.735  0.3713 -1.2260 -0.0575
  153SAPE   C3216901   4.510   5.219   7.564  0.0967  0.0594  0.1590
  153SAPE   H2X16902   4.434   5.153   7.518  1.2548  0.1500 -1.9999
  153SAPE   H2Y16903   4.593   5.160   7.610  0.5346  0.6387  0.1128
  153SAPE   C2316904   4.240   5.540   7.246  0.8818  0.4099  0.0351
  153SAPE   H3R16905   4.346   5.509   7.260  0.4289 -0.5540  1.6083
  153SAPE   H3S16906   4.237   5.647   7.275  0.1773  0.7416 -1.2047
  153SAPE   C2416907   4.203   5.547   7.094  0.0156 -0.5328 -0.8356
  153SAPE   H4R16908   4.262   5.618   7.032 -2.5898  0.4608 -2.3440
  153SAPE   H4S16909   4.100   5.582   7.073  0.2713 -0.6658 -2.4583
  153SAPE   C2516910   4.233   5.419   7.030  0.7789  1.2789  0.3400
  153SAPE   H5R16911   4.335   5.379   7.043 -0.5260 -3.1147 -1.2128
  153SAPE   C2616912   4.148   5.337   6.972  0.1857  0.0772  0.0011
  153SAPE   H6R16913   4.184   5.242   6.930 -0.4303 -0.3075  0.3385
  153SAPE   C2716914   4.002   5.360   6.963 -0.2058 -0.0247  0.3612
  153SAPE   H7R16915   3.955   5.397   7.057 -0.6240 -1.7900  0.8845
  153SAPE   H7S16916   3.964   5.258   6.942 -0.5636  0.2202 -0.1852
  153SAPE   C2816917   3.958   5.461   6.870  0.5365  0.2152 -0.1333
  153SAPE   H8R16918   4.008   5.559   6.878  1.8462 -0.4574  0.0873
  153SAPE   C2916919   3.852   5.461   6.784 -0.4265  0.1268  0.3303
  153SAPE   H9R16920   3.839   5.549   6.719 -3.4562  0.1149  0.7805
  153SAPE  C21016921   3.769   5.336   6.753 -0.9856 -0.0566 -0.5908
  153SAPE  H10R16922   3.734   5.289   6.848  1.5578  1.3039  1.1425
  153SAPE  H10S16923   3.844   5.265   6.713 -0.4830 -0.4664  1.0018
  153SAPE  C21116924   3.653   5.366   6.665  0.2339 -0.1742 -0.4129
  153SAPE  H11R16925   3.558   5.334   6.710  0.1882 -4.8327 -3.2340
  153SAPE  C21216926   3.647   5.425   6.544  0.4246  0.1397 -0.5371
  153SAPE  H12R16927   3.555   5.447   6.488  0.1852  0.1205 -0.1547
  153SAPE  C21316928   3.766   5.463   6.465  0.1201  0.0921 -0.0523
  153SAPE  H13R16929   3.866   5.470   6.512  0.1684  1.2446 -0.2909
  153SAPE  H13S16930   3.747   5.566   6.426  0.4182  0.1948  0.0733
  153SAPE  C21416931   3.765   5.371   6.341 -0.4227 -0.3510 -0.0436
  153SAPE  H14R16932   3.794   5.269   6.372 -1.4965 -0.7258 -0.2214
  153SAPE  C21516933   3.742   5.394   6.214  0.0323  0.7438 -0.2676
  153SAPE  H15R16934   3.742   5.311   6.142  1.1903 -1.4936  2.1443
  153SAPE  C21616935   3.705   5.532   6.155  0.0435 -0.5961 -0.1625
  153SAPE  H16R16936   3.802   5.581   6.136  1.1703 -2.7188 -0.1847
  153SAPE  H16S16937   3.648   5.585   6.234  1.0415  0.3898 -0.0826
  153SAPE  C21716938   3.628   5.537   6.022  0.1319  0.0628 -0.5988
  153SAPE  H17R16939   3.540   5.470   6.033 -1.5072  2.4017  1.7811
  153SAPE  H17S16940   3.689   5.496   5.938  0.1323  1.6846 -1.4352
  153SAPE  C21816941   3.594   5.685   5.984 -0.0949  0.0277  0.0213
  153SAPE  H18R16942   3.684   5.734   5.943 -0.4297 -0.4834 -1.3822
  153SAPE  H18S16943   3.573   5.737   6.081  0.1270 -0.7573  0.5005
  153SAPE  C21916944   3.480   5.689   5.883  0.3907  0.2575  0.2144
  153SAPE  H19R16945   3.457   5.797   5.867  0.5852  0.0636 -1.5926
  153SAPE  H19S16946   3.401   5.627   5.930  0.1079 -0.0610 -0.6669
  153SAPE  C22016947   3.538   5.631   5.750 -0.2802 -0.3090 -0.1898
  153SAPE  H20R16948   3.629   5.690   5.724  0.3711 -2.0232 -2.1834
  153SAPE  H20S16949   3.474   5.642   5.659  2.4957 -1.0651 -2.3782
  153SAPE  H20T16950   3.562   5.522   5.754 -0.0487 -0.2280  0.8710
  153SAPE   C3316951   4.565   5.313   7.449  0.2731  0.4294 -0.1234
  153SAPE   H3X16952   4.645   5.382   7.482 -0.1480  0.2390  1.3581
  153SAPE   H3Y16953   4.485   5.381   7.413  1.0646  0.4615 -1.9388
  153SAPE   C3416954   4.613   5.235   7.327  0.4102 -0.0775 -0.2781
  153SAPE   H4X16955   4.540   5.152   7.318  0.9399 -0.5878 -0.0202
  153SAPE   H4Y16956   4.714   5.189   7.337  0.1980 -0.3894  0.5093
  153SAPE   C3516957   4.606   5.326   7.203  0.2468 -0.2241  0.7340
  153SAPE   H5X16958   4.662   5.417   7.234 -2.4229  2.5825 -1.9218
  153SAPE   H5Y16959   4.501   5.360   7.187  1.2445  3.1466  0.5450
  153SAPE   C3616960   4.665   5.270   7.080 -0.0176  0.2196  0.7774
  153SAPE   H6X16961   4.766   5.229   7.103 -0.1370 -1.5192 -1.4493
  153SAPE   H6Y16962   4.674   5.346   7.000 -0.6265 -0.3508  0.1515
  153SAPE   C3716963   4.583   5.154   7.019  0.0841 -0.0870 -0.2269
  153SAPE   H7X16964   4.475   5.180   7.015 -0.1287 -1.0805 -1.9479
  153SAPE   H7Y16965   4.598   5.063   7.080  0.6152 -0.7136 -1.2694
  153SAPE   C3816966   4.623   5.115   6.876 -0.2215  0.0585  0.0330
  153SAPE   H8X16967   4.725   5.071   6.876  0.1264  0.8430  0.6932
  153SAPE   H8Y16968   4.632   5.197   6.802  0.0800  2.1556  2.2561
  153SAPE   C3916969   4.530   5.003   6.824  0.7549  0.0326 -0.4653
  153SAPE   H9X16970   4.504   4.933   6.906  0.7661  0.9217  0.3175
  153SAPE   H9Y16971   4.583   4.945   6.746  0.2706 -0.7979 -0.1907
  153SAPE  C31016972   4.393   5.052   6.759  0.7868  0.3704 -0.6286
  153SAPE  H10X16973   4.362   5.135   6.826  0.5589 -2.0766  2.5417
  153SAPE  H10Y16974   4.316   4.973   6.768  0.4490  0.6834 -0.7519
  153SAPE  C31116975   4.423   5.109   6.621 -0.1288 -0.1719 -0.4428
  153SAPE  H11X16976   4.513   5.173   6.627 -0.0422 -0.2371 -0.9706
  153SAPE  H11Y16977   4.336   5.176   6.601 -2.7481 -2.5120  2.1488
  153SAPE  C31216978   4.434   5.000   6.510  0.3361  0.4662  0.3166
  153SAPE  H12X16979   4.344   4.936   6.518  0.4759  0.4052  1.4726
  153SAPE  H12Y16980   4.517   4.932   6.538  1.1608  1.0595 -0.6289
  153SAPE  C31316981   4.462   5.052   6.364  0.3680  0.2105  0.3215
  153SAPE  H13X16982   4.541   5.130   6.366 -1.3934  2.1610 -1.0717
  153SAPE  H13Y16983   4.366   5.097   6.330  1.6667  3.9836  1.1311
  153SAPE  C31416984   4.513   4.941   6.273 -0.2078  0.3652 -0.5023
  153SAPE  H14X16985   4.477   4.845   6.318  0.3851 -0.5540 -1.9231
  153SAPE  H14Y16986   4.623   4.931   6.272 -0.2117  0.3544 -0.7550
  153SAPE  C31516987   4.455   4.958   6.133  0.0171  1.2713  0.7297
  153SAPE  H15X16988   4.513   5.040   6.085  0.2488  1.3824  1.1978
  153SAPE  H15Y16989   4.350   4.991   6.148 -0.4057 -0.2405  1.1966
  153SAPE  C31616990   4.444   4.828   6.051 -0.5447  0.2845  0.1161
  153SAPE  H16X16991   4.414   4.835   5.945  1.7024 -1.1574 -0.6988
  153SAPE  H16Y16992   4.366   4.768   6.102 -0.1252 -2.7142 -2.4147
  153SAPE  C31716993   4.575   4.735   6.032  0.9960 -0.3233  0.2680
  153SAPE  H17X16994   4.615   4.697   6.128  0.3566  0.0882  0.7068
  153SAPE  H17Y16995   4.652   4.806   5.996 -1.8543  1.8020 -2.0886
  153SAPE  C31816996   4.555   4.615   5.933 -0.3743 -0.1631  0.5233
  153SAPE  H18X16997   4.456   4.572   5.955 -0.8910 -0.1273 -1.5761
  153SAPE  H18Y16998   4.638   4.546   5.959  0.1070  1.0160  2.3065
  153SAPE  H18Z16999   4.566   4.653   5.829 -3.4423  2.0493  0.8748
  154SAPE     N17000   3.351   4.106   7.705  0.7214 -0.4601  0.4337
  154SAPE   HN117001   3.404   4.126   7.792  1.1557 -3.4947  0.9796
  154SAPE   HN217002   3.295   4.189   7.676 -0.1600 -1.9984 -2.7890
  154SAPE   HN317003   3.283   4.031   7.728 -2.1776  1.0035 -2.4191
  154SAPE   C1217004   3.459   4.058   7.609  0.0114  0.3597 -0.7811
  154SAPE  H12A17005   3.537   4.136   7.596  0.3639  0.4095  1.3789
  154SAPE  H12B17006   3.407   4.054   7.510 -0.4304 -0.6238 -0.5245
  154SAPE   C1117007   3.506   3.924   7.655  0.0704 -0.2902 -0.2139
  154SAPE  H11A17008   3.558   3.862   7.579 -0.1858 -1.4278  0.5119
  154SAPE  H11B17009   3.420   3.855   7.671  0.3897 -0.2969  1.8215
  154SAPE     P17010   3.730   3.949   7.809 -0.0804  0.4519  0.0091
  154SAPE   O1317011   3.777   4.087   7.808  0.5186 -0.1844 -0.4547
  154SAPE   O1417012   3.770   3.864   7.928 -0.3011  0.4919 -0.0374
  154SAPE   O1217013   3.573   3.928   7.781 -0.0858 -0.4170  0.1774
  154SAPE   O1117014   3.776   3.878   7.671  0.3643  0.1440 -0.0742
  154SAPE    C117015   3.907   3.895   7.610 -0.0030 -0.1099  0.3179
  154SAPE    HA17016   3.972   3.969   7.660  1.8863 -0.6819 -1.1916
  154SAPE    HB17017   3.965   3.801   7.597 -1.9721 -0.9609 -3.5780
  154SAPE    C217018   3.899   3.948   7.462 -0.5003 -0.0691  0.6094
  154SAPE    HS17019   3.836   4.040   7.457 -0.6066 -0.0674  1.7508
  154SAPE   O2117020   3.845   3.837   7.379  0.1717  0.1553 -0.3752
  154SAPE   C2117021   3.741   3.852   7.291  0.3943 -0.7041  0.2397
  154SAPE   O2217022   3.684   3.960   7.268  0.3800  0.8302 -0.1101
  154SAPE   C2217023   3.727   3.718   7.230  0.6010  1.2147 -0.1914
  154SAPE   H2R17024   3.820   3.660   7.245 -0.5274 -0.1413  2.0225
  154SAPE   H2S17025   3.659   3.665   7.300 -0.4106  2.4364 -0.1993
  154SAPE    C317026   4.046   3.997   7.414  0.0597  0.0508 -0.5122
  154SAPE    HX17027   4.098   3.899   7.419 -0.5695 -0.2208  1.7232
  154SAPE    HY17028   4.092   4.063   7.492  1.3964 -1.7052  0.2491
  154SAPE   O3117029   4.039   4.054   7.284  0.0259 -0.0622  0.2336
  154SAPE   C3117030   4.027   4.191   7.274 -0.0240  0.5118 -0.6060
  154SAPE   O3217031   3.979   4.257   7.368  0.2828  0.0797  0.1748
  154SAPE   C3217032   4.065   4.241   7.142 -0.0314 -0.6168 -0.2001
  154SAPE   H2X17033   4.011   4.187   7.061  0.6317 -0.0339 -1.0516
  154SAPE   H2Y17034   4.174   4.227   7.133  0.2387  0.7941  0.5216
  154SAPE   C2317035   3.676   3.735   7.080  0.3243  0.1476 -0.1576
  154SAPE   H3R17036   3.706   3.646   7.019  0.6212  2.0670 -2.9954
  154SAPE   H3S17037   3.729   3.822   7.037  0.3886 -0.5217 -1.4782
  154SAPE   C2417038   3.527   3.742   7.073  0.4903  0.1946 -0.4900
  154SAPE   H4R17039   3.509   3.776   6.969 -0.3709  0.5135 -0.2465
  154SAPE   H4S17040   3.487   3.826   7.134  1.8256  0.9413 -0.6165
  154SAPE   C2517041   3.453   3.610   7.097  0.1982 -0.8598 -0.3619
  154SAPE   H5R17042   3.471   3.587   7.204 -0.0159  1.9180  0.3516
  154SAPE   C2617043   3.369   3.542   7.018  0.0503 -0.3221 -0.0114
  154SAPE   H6R17044   3.318   3.453   7.057 -0.7054  0.5434  1.0408
  154SAPE   C2717045   3.318   3.592   6.884 -0.2235 -0.4570 -0.1222
  154SAPE   H7R17046   3.338   3.701   6.875 -0.4942 -0.4930 -1.4075
  154SAPE   H7S17047   3.208   3.583   6.874 -0.2825  1.5649 -1.9188
  154SAPE   C2817048   3.387   3.515   6.773 -0.3890  0.7193  0.2827
  154SAPE   H8R17049   3.383   3.405   6.771  0.3045  0.6697  0.9748
  154SAPE   C2917050   3.430   3.565   6.654  0.0302  0.1520 -0.7148
  154SAPE   H9R17051   3.459   3.494   6.575 -1.6646 -1.6238  0.1698
  154SAPE  C21017052   3.452   3.713   6.620  1.0877  0.4032 -0.2627
  154SAPE  H10R17053   3.436   3.771   6.713 -3.3989  0.1195 -0.6736
  154SAPE  H10S17054   3.380   3.757   6.547  2.6166  2.1776 -0.7965
  154SAPE  C21117055   3.598   3.725   6.577  0.1454 -0.3141  0.4579
  154SAPE  H11R17056   3.670   3.712   6.660 -0.4500  0.3501  1.1049
  154SAPE  C21217057   3.646   3.750   6.452 -0.1286  0.1798  0.3562
  154SAPE  H12R17058   3.752   3.742   6.423  0.4352  2.2501  1.6731
  154SAPE  C21317059   3.553   3.776   6.331 -0.6140 -0.1540  0.0996
  154SAPE  H13R17060   3.529   3.884   6.322  3.0408  0.7243 -0.9171
  154SAPE  H13S17061   3.460   3.715   6.337  0.4210 -1.9566 -1.2110
  154SAPE  C21417062   3.614   3.735   6.198 -0.6321  0.2299  0.2899
  154SAPE  H14R17063   3.578   3.642   6.151  2.0791 -0.7888  0.0563
  154SAPE  C21517064   3.700   3.806   6.123 -0.0449  0.4612  0.2376
  154SAPE  H15R17065   3.728   3.773   6.022 -0.6138  1.6743 -0.3412
  154SAPE  C21617066   3.773   3.942   6.160  0.1144  0.6789 -1.0111
  154SAPE  H16R17067   3.879   3.919   6.140  0.9250  4.3354 -1.5997
  154SAPE  H16S17068   3.768   3.958   6.270 -1.6719 -0.6666 -0.8425
  154SAPE  C21717069   3.720   4.062   6.083  0.5102  0.5366 -0.0316
  154SAPE  H17R17070   3.772   4.151   6.125 -0.6753  1.3174 -0.1768
  154SAPE  H17S17071   3.612   4.070   6.107  0.1979 -1.6001 -0.5509
  154SAPE  C21817072   3.732   4.050   5.933  1.1669 -0.7082  0.3313
  154SAPE  H18R17073   3.706   3.950   5.891 -2.4627 -0.2016  1.0361
  154SAPE  H18S17074   3.836   4.067   5.897  0.6542  1.8366 -0.1508
  154SAPE  C21917075   3.650   4.154   5.856 -0.5080  0.2238  0.1863
  154SAPE  H19R17076   3.651   4.123   5.749 -2.4504 -0.6254  0.3623
  154SAPE  H19S17077   3.681   4.259   5.872  0.0901  0.2325 -0.8919
  154SAPE  C22017078   3.498   4.133   5.885 -0.0146 -0.1550 -0.2652
  154SAPE  H20R17079   3.458   4.033   5.855 -1.9389  0.4680  0.0933
  154SAPE  H20S17080   3.444   4.210   5.826 -0.5690  0.5851  1.1648
  154SAPE  H20T17081   3.476   4.149   5.993  1.4208  4.6911 -0.4770
  154SAPE   C3317082   4.039   4.392   7.111  0.9489 -0.0330  0.1297
  154SAPE   H3X17083   4.118   4.441   7.171  1.8963  0.3750 -1.4082
  154SAPE   H3Y17084   3.937   4.427   7.135  0.7696 -2.5091  3.8020
  154SAPE   C3417085   4.071   4.429   6.970  0.1696  0.0283  0.8977
  154SAPE   H4X17086   4.163   4.375   6.937 -0.0205 -0.0048  0.4205
  154SAPE   H4Y17087   4.075   4.540   6.962 -1.7509  0.1925  1.8286
  154SAPE   C3517088   3.947   4.401   6.871 -0.3422 -0.0306 -0.3081
  154SAPE   H5X17089   3.854   4.448   6.909  0.3010 -0.4396  1.8612
  154SAPE   H5Y17090   3.928   4.292   6.866  1.3497 -0.3819  0.4258
  154SAPE   C3617091   3.967   4.458   6.730  0.1172 -0.2283  0.2320
  154SAPE   H6X17092   4.069   4.436   6.694 -0.2003  0.8208 -1.4256
  154SAPE   H6Y17093   3.959   4.568   6.718 -2.3730 -0.5460 -1.8067
  154SAPE   C3717094   3.863   4.418   6.618 -0.0500  0.0581  0.4243
  154SAPE   H7X17095   3.768   4.465   6.650  0.7256  0.8962  1.5899
  154SAPE   H7Y17096   3.852   4.308   6.629  0.4182 -0.0297  0.0477
  154SAPE   C3817097   3.899   4.466   6.485 -0.4279  0.4671 -0.5711
  154SAPE   H8X17098   3.986   4.415   6.438  0.3222  0.5861  0.6271
  154SAPE   H8Y17099   3.930   4.571   6.505 -1.0475  0.3985  0.8282
  154SAPE   C3917100   3.771   4.461   6.400  0.2992  0.4480 -0.8396
  154SAPE   H9X17101   3.689   4.516   6.451 -0.4658  0.7161 -2.2972
  154SAPE   H9Y17102   3.738   4.355   6.391  1.4571 -0.0649  0.6265
  154SAPE  C31017103   3.787   4.526   6.259  0.0277  0.0354 -0.2846
  154SAPE  H10X17104   3.841   4.450   6.198  0.8929  1.2256 -1.0534
  154SAPE  H10Y17105   3.843   4.622   6.255 -2.4391  1.5750 -0.0938
  154SAPE  C31117106   3.655   4.548   6.193 -0.1360  0.0911  0.6270
  154SAPE  H11X17107   3.602   4.620   6.259  0.1404  1.1418 -0.2626
  154SAPE  H11Y17108   3.607   4.448   6.187  3.7507 -2.0313  1.5426
  154SAPE  C31217109   3.664   4.603   6.049  0.4905  0.4241 -0.0011
  154SAPE  H12X17110   3.734   4.530   6.004 -0.9004 -1.6660  1.0751
  154SAPE  H12Y17111   3.706   4.706   6.045  0.8717  0.2437 -3.3660
  154SAPE  C31317112   3.524   4.602   5.995 -0.2963 -0.0626  0.2549
  154SAPE  H13X17113   3.450   4.650   6.062 -2.1453 -0.6168 -1.2876
  154SAPE  H13Y17114   3.481   4.500   5.989  0.3474 -0.3002 -0.6245
  154SAPE  C31417115   3.500   4.690   5.869  0.3521  0.2578  0.5762
  154SAPE  H14X17116   3.532   4.789   5.909 -0.5278  0.7824  0.0238
  154SAPE  H14Y17117   3.393   4.694   5.840  1.1085  0.0585 -2.6508
  154SAPE  C31517118   3.573   4.635   5.743  0.0838  0.8225 -0.2407
  154SAPE  H15X17119   3.679   4.623   5.774 -0.4977  0.8111  1.9375
  154SAPE  H15Y17120   3.573   4.711   5.663  3.3563  0.9652 -0.2511
  154SAPE  C31617121   3.519   4.504   5.693 -0.7610  0.1750 -1.2974
  154SAPE  H16X17122   3.412   4.528   5.673 -0.2638  1.8836 -2.0598
  154SAPE  H16Y17123   3.534   4.435   5.779  0.5948  1.6485 -0.2801
  154SAPE  C31717124   3.582   4.454   5.571 -0.3753  1.0896 -0.1852
  154SAPE  H17X17125   3.685   4.416   5.589  0.3311  2.7400 -0.5862
  154SAPE  H17Y17126   3.601   4.533   5.495 -0.3847 -0.0232 -1.3798
  154SAPE  C31817127   3.495   4.352   5.502 -1.1069  0.7595  0.0910
  154SAPE  H18X17128   3.402   4.401   5.466 -1.5711  0.0377  0.2861
  154SAPE  H18Y17129   3.472   4.265   5.567 -1.6127  2.1544  1.8529
  154SAPE  H18Z17130   3.553   4.306   5.419 -0.1932  0.3520  0.9384
  155SAPE     N17131   3.087   5.601   7.995 -0.5377 -0.4177 -1.0661
  155SAPE   HN117132   3.100   5.554   7.904  2.1444 -2.1742  0.1018
  155SAPE   HN217133   3.054   5.532   8.066  0.3638  1.1251  0.9584
  155SAPE   HN317134   3.017   5.677   7.982  0.5226  0.5633 -1.2488
  155SAPE   C1217135   3.216   5.677   8.029 -0.3550  0.5722  0.0469
  155SAPE  H12A17136   3.254   5.626   8.120 -0.7773  0.9315  0.4302
  155SAPE  H12B17137   3.189   5.781   8.058  0.5113  1.7645 -2.9960
  155SAPE   C1117138   3.313   5.662   7.911 -0.5991 -0.6731 -0.1525
  155SAPE  H11A17139   3.406   5.719   7.932 -0.2517 -1.7441  1.3602
  155SAPE  H11B17140   3.273   5.725   7.828  1.0390  0.0197 -0.4705
  155SAPE     P17141   3.295   5.444   7.745  0.0360  0.2372  0.5416
  155SAPE   O1317142   3.380   5.322   7.725  0.0855  0.3107  0.2990
  155SAPE   O1417143   3.146   5.419   7.749  0.1193 -0.5976  0.0651
  155SAPE   O1217144   3.337   5.522   7.881  0.3162  0.0192 -0.8408
  155SAPE   O1117145   3.328   5.538   7.624 -0.1271  0.4110  0.1048
  155SAPE    C117146   3.430   5.640   7.632  0.3566 -1.2056 -0.1833
  155SAPE    HA17147   3.394   5.733   7.682  0.3670  0.0222 -2.3133
  155SAPE    HB17148   3.519   5.601   7.685  0.6658 -0.5493 -0.1977
  155SAPE    C217149   3.484   5.680   7.487 -0.2190  0.7042 -0.3026
  155SAPE    HS17150   3.583   5.724   7.511 -1.1262  2.0078  1.2571
  155SAPE   O2117151   3.394   5.773   7.425 -0.1622 -1.1134  0.1632
  155SAPE   C2117152   3.410   5.903   7.471  0.1267  0.2845 -0.2338
  155SAPE   O2217153   3.494   5.938   7.553  0.1954 -0.7047 -0.4382
  155SAPE   C2217154   3.313   5.998   7.403 -0.2148  0.3139 -0.2834
  155SAPE   H2R17155   3.223   5.964   7.458  1.0907 -2.7832  0.1568
  155SAPE   H2S17156   3.341   6.101   7.432 -0.5760  0.4825 -0.5210
  155SAPE    C317157   3.504   5.564   7.389 -0.0716 -0.1737  0.3682
  155SAPE    HX17158   3.553   5.591   7.293 -1.4950 -0.5287 -0.4774
  155SAPE    HY17159   3.403   5.528   7.362  0.5702 -0.2259 -2.2268
  155SAPE   O3117160   3.586   5.466   7.458 -0.0436 -0.1704  0.2430
  155SAPE   C3117161   3.570   5.343   7.421 -0.2895 -0.3152  0.3347
  155SAPE   O3217162   3.490   5.310   7.332 -0.3084  0.2958 -0.6680
  155SAPE   C3217163   3.664   5.242   7.489  0.0722 -0.3724 -0.7280
  155SAPE   H2X17164   3.593   5.165   7.525  0.1680 -0.7486 -1.3222
  155SAPE   H2Y17165   3.711   5.293   7.575 -1.3471 -1.6072  0.8365
  155SAPE   C2317166   3.288   5.965   7.251  0.0431  0.1435  0.1839
  155SAPE   H3R17167   3.192   6.011   7.218  0.8678  2.9794  1.3647
  155SAPE   H3S17168   3.283   5.856   7.232 -1.5816  0.4050 -1.1743
  155SAPE   C2417169   3.394   6.028   7.159  0.3178 -0.1659  0.1202
  155SAPE   H4R17170   3.363   6.035   7.052  2.0482  1.9752 -0.3247
  155SAPE   H4S17171   3.483   5.961   7.162 -0.7469 -1.5864  2.1525
  155SAPE   C2517172   3.432   6.164   7.198 -0.1998 -0.2848  0.7197
  155SAPE   H5R17173   3.518   6.160   7.267  1.4212 -0.7157 -1.2309
  155SAPE   C2617174   3.385   6.282   7.145 -0.3571 -0.2085 -0.3538
  155SAPE   H6R17175   3.419   6.379   7.184 -0.1960 -0.0936 -0.7724
  155SAPE   C2717176   3.295   6.301   7.028 -0.4859  0.1856 -0.2156
  155SAPE   H7R17177   3.239   6.396   7.031 -1.9664 -0.5209 -2.5697
  155SAPE   H7S17178   3.222   6.218   7.021  0.8628 -1.2200  1.3042
  155SAPE   C2817179   3.381   6.307   6.896 -0.3852 -0.6787 -0.0980
  155SAPE   H8R17180   3.488   6.287   6.908 -0.6854 -2.2904  0.0635
  155SAPE   C2917181   3.324   6.323   6.769 -0.3767 -1.1853 -0.8874
  155SAPE   H9R17182   3.387   6.334   6.679  0.8478 -0.0965  0.0627
  155SAPE  C21017183   3.177   6.342   6.737 -0.0190 -0.4916  0.2190
  155SAPE  H10R17184   3.123   6.332   6.834 -0.1082 -0.5481  0.1627
  155SAPE  H10S17185   3.134   6.262   6.673  1.3935 -0.6013 -0.6470
  155SAPE  C21117186   3.142   6.486   6.694  0.2002 -0.0961  0.0678
  155SAPE  H11R17187   3.144   6.542   6.788  0.4487 -0.7664  0.4698
  155SAPE  C21217188   3.138   6.536   6.571 -0.5922  0.7431  0.7740
  155SAPE  H12R17189   3.108   6.640   6.552  1.8626  1.1336 -1.5516
  155SAPE  C21317190   3.149   6.459   6.439 -0.9713 -0.3887 -0.5805
  155SAPE  H13R17191   3.195   6.362   6.466  0.9063  1.0240  1.7585
  155SAPE  H13S17192   3.222   6.506   6.370 -0.3030 -0.3367  0.1478
  155SAPE  C21417193   3.016   6.443   6.378  0.6197 -0.6991  0.5239
  155SAPE  H14R17194   2.955   6.372   6.436 -1.5073 -0.9110 -1.8529
  155SAPE  C21517195   2.964   6.499   6.269 -0.4381  0.4110 -0.4646
  155SAPE  H15R17196   2.860   6.476   6.244  0.2784 -3.0092 -0.7414
  155SAPE  C21617197   3.042   6.588   6.173  0.4226  0.0629 -0.3080
  155SAPE  H16R17198   3.150   6.565   6.184  0.8391  2.5046  1.7306
  155SAPE  H16S17199   3.028   6.694   6.204 -0.3600 -0.1321  0.0360
  155SAPE  C21717200   2.986   6.591   6.024 -0.3337  0.1074 -0.1617
  155SAPE  H17R17201   2.883   6.632   6.035 -1.3538 -2.4160  0.5257
  155SAPE  H17S17202   2.971   6.495   5.970  1.1435 -0.4084  0.2902
  155SAPE  C21817203   3.058   6.690   5.926 -0.6438  0.2715 -0.0018
  155SAPE  H18R17204   3.157   6.649   5.898 -1.1306  0.1007 -1.6255
  155SAPE  H18S17205   3.067   6.789   5.976  0.5739  0.1128  0.0990
  155SAPE  C21917206   2.996   6.683   5.784  0.4280 -0.6129 -1.0220
  155SAPE  H19R17207   3.025   6.779   5.736  0.9100 -1.2015 -1.9492
  155SAPE  H19S17208   2.886   6.686   5.799  0.6730  0.7396  0.8202
  155SAPE  C22017209   3.034   6.564   5.702  0.3519  0.5126 -0.1969
  155SAPE  H20R17210   3.019   6.470   5.759  0.7639  1.0312  0.7979
  155SAPE  H20S17211   3.141   6.579   5.674  1.0497  2.1023  2.8190
  155SAPE  H20T17212   2.974   6.557   5.609 -0.7261  1.2995  0.4195
  155SAPE   C3317213   3.779   5.194   7.396 -0.2103 -0.6361 -0.6965
  155SAPE   H3X17214   3.852   5.142   7.462 -0.4223 -1.6335 -1.2333
  155SAPE   H3Y17215   3.825   5.292   7.370 -0.6726 -0.0553  0.5769
  155SAPE   C3417216   3.754   5.115   7.270 -0.4066  0.0799 -0.0171
  155SAPE   H4X17217   3.695   5.169   7.192 -1.5528  0.1324  0.8516
  155SAPE   H4Y17218   3.711   5.016   7.298 -0.1357 -0.7623 -2.3008
  155SAPE   C3517219   3.880   5.080   7.195 -0.0832 -0.2581  0.1137
  155SAPE   H5X17220   3.954   5.163   7.197  0.6988 -0.8802 -1.1611
  155SAPE   H5Y17221   3.861   5.070   7.086  0.4877 -2.1882  0.1581
  155SAPE   C3617222   3.952   4.951   7.248  0.2558  0.1799 -0.4473
  155SAPE   H6X17223   3.881   4.866   7.254 -0.7620  1.0935  2.4684
  155SAPE   H6Y17224   3.989   4.965   7.352 -0.6942  1.0153 -0.1994
  155SAPE   C3717225   4.078   4.908   7.163  0.2482 -0.3175  0.1382
  155SAPE   H7X17226   4.121   4.828   7.226  1.0034  1.1369  1.5627
  155SAPE   H7Y17227   4.145   4.996   7.146 -0.2008  0.0772  0.3716
  155SAPE   C3817228   4.052   4.843   7.024  0.1319 -0.1624  1.0214
  155SAPE   H8X17229   3.952   4.795   7.028 -0.0176 -0.2702 -1.7357
  155SAPE   H8Y17230   4.125   4.761   7.008  0.6698  0.9355 -3.7123
  155SAPE   C3917231   4.065   4.949   6.913 -0.1161  0.0810 -0.6592
  155SAPE   H9X17232   4.171   4.982   6.911  0.4836 -1.6926  0.0090
  155SAPE   H9Y17233   4.000   5.034   6.944  0.6413  0.5369 -0.2830
  155SAPE  C31017234   4.011   4.888   6.784 -0.1010  0.5497 -0.4017
  155SAPE  H10X17235   3.904   4.858   6.786 -0.3329  1.2312 -1.5203
  155SAPE  H10Y17236   4.074   4.797   6.774 -0.2305  0.3236  0.6997
  155SAPE  C31117237   4.031   4.973   6.665  0.1145 -0.4553 -0.0428
  155SAPE  H11X17238   4.132   5.016   6.677  0.8048 -1.0572 -3.0619
  155SAPE  H11Y17239   3.965   5.062   6.672  0.8683  0.2124 -1.2190
  155SAPE  C31217240   3.998   4.906   6.535  0.7509  0.9077 -0.4334
  155SAPE  H12X17241   3.890   4.879   6.542  0.6787  0.7890 -1.6974
  155SAPE  H12Y17242   4.054   4.814   6.508 -1.4650 -0.3112 -1.1265
  155SAPE  C31317243   4.020   4.990   6.413 -0.0704 -0.1071  0.6213
  155SAPE  H13X17244   4.127   4.987   6.387 -0.1921 -2.0263  0.1814
  155SAPE  H13Y17245   3.982   5.094   6.423  4.5697  1.8873 -0.1986
  155SAPE  C31417246   3.960   4.923   6.289  0.2948 -0.2213 -0.3795
  155SAPE  H14X17247   3.851   4.924   6.309  0.4410  1.0607  0.4762
  155SAPE  H14Y17248   4.010   4.826   6.265 -0.8241 -0.8657 -0.1719
  155SAPE  C31517249   3.992   4.986   6.152  0.3653 -1.0102 -0.3881
  155SAPE  H15X17250   4.099   4.989   6.120  1.3204  0.5435  2.5729
  155SAPE  H15Y17251   3.963   5.093   6.162 -0.1932 -1.2213  0.3238
  155SAPE  C31617252   3.908   4.939   6.031 -0.3021 -0.0010  0.6567
  155SAPE  H16X17253   3.798   4.934   6.044 -0.5879  1.4056 -0.8678
  155SAPE  H16Y17254   3.944   4.837   6.004  1.0757 -0.0656  2.4798
  155SAPE  C31717255   3.920   5.028   5.902 -0.0769 -0.1457 -0.5741
  155SAPE  H17X17256   4.029   5.043   5.889 -0.2117 -0.4040 -2.1588
  155SAPE  H17Y17257   3.896   5.135   5.921  2.4183  0.2616  0.6615
  155SAPE  C31817258   3.857   4.982   5.763 -0.1552  0.5669 -0.7792
  155SAPE  H18X17259   3.859   5.068   5.693  1.1487  0.8434 -0.4297
  155SAPE  H18Y17260   3.751   4.958   5.786  0.1959 -0.7902 -0.4465
  155SAPE  H18Z17261   3.913   4.898   5.715 -2.2743 -0.7513 -1.0643
  156SAPE     N17262   4.783   4.174   8.139  0.0644 -0.5833  0.1451
  156SAPE   HN117263   4.719   4.183   8.220 -1.2872  2.8352 -1.1109
  156SAPE   HN217264   4.797   4.077   8.106 -0.2082 -0.6383  0.1903
  156SAPE   HN317265   4.875   4.204   8.177  0.3516  1.4018 -1.9092
  156SAPE   C1217266   4.741   4.265   8.035 -0.4414 -0.8343  0.2539
  156SAPE  H12A17267   4.642   4.247   7.990  0.0288  0.5334 -1.4170
  156SAPE  H12B17268   4.819   4.266   7.956  0.6232 -0.7171  1.2654
  156SAPE   C1117269   4.718   4.405   8.089  0.2731  0.1019 -0.7002
  156SAPE  H11A17270   4.803   4.441   8.152 -1.9021 -0.6740  2.9693
  156SAPE  H11B17271   4.638   4.399   8.166  1.0986  1.3433  0.2924
  156SAPE     P17272   4.714   4.652   8.008 -0.3378 -0.0525  0.1732
  156SAPE   O1317273   4.578   4.723   8.005 -0.0316  0.0209 -0.6480
  156SAPE   O1417274   4.791   4.669   8.129  0.7513  0.3830  0.0254
  156SAPE   O1217275   4.676   4.498   7.995 -0.3186  0.0713  0.4387
  156SAPE   O1117276   4.790   4.695   7.875  0.3274  0.0136 -0.4492
  156SAPE    C117277   4.893   4.606   7.816 -0.1335  0.0662 -0.5812
  156SAPE    HA17278   4.991   4.657   7.830 -0.9967  1.5006  0.5313
  156SAPE    HB17279   4.891   4.511   7.873  0.1158  0.4419  0.0640
  156SAPE    C217280   4.871   4.575   7.670  0.3443  1.0037  0.0914
  156SAPE    HS17281   4.956   4.513   7.635  0.3172  1.2616 -0.4342
  156SAPE   O2117282   4.854   4.705   7.600 -0.0629  0.5769  0.3424
  156SAPE   C2117283   4.960   4.757   7.543 -0.0035 -0.2012  0.1660
  156SAPE   O2217284   5.075   4.720   7.561 -0.2500  0.0118  0.2896
  156SAPE   C2217285   4.919   4.880   7.459  0.5068 -0.6359  0.2638
  156SAPE   H2R17286   4.810   4.880   7.437  1.0496 -0.1376 -3.0283
  156SAPE   H2S17287   4.931   4.969   7.524 -1.1440  0.8303 -1.3001
  156SAPE    C317288   4.742   4.496   7.648  1.0197  0.5169 -0.1601
  156SAPE    HX17289   4.657   4.551   7.693  0.0191 -1.1983  0.1333
  156SAPE    HY17290   4.748   4.403   7.709 -0.2200 -0.1519 -0.9843
  156SAPE   O3117291   4.719   4.448   7.509 -0.0910  0.1215 -0.1758
  156SAPE   C3117292   4.622   4.505   7.441 -0.9925 -0.5007  0.0488
  156SAPE   O3217293   4.543   4.587   7.485 -0.3346 -0.0270 -0.0852
  156SAPE   C3217294   4.630   4.462   7.296 -0.2876  0.0692  0.0810
  156SAPE   H2X17295   4.625   4.351   7.287 -0.6030  0.1737 -1.1541
  156SAPE   H2Y17296   4.723   4.495   7.244 -1.6009  4.5873  0.2013
  156SAPE   C2317297   5.006   4.887   7.326  0.5367  0.6350 -0.5317
  156SAPE   H3R17298   5.110   4.877   7.365 -0.7394  0.9677  3.3887
  156SAPE   H3S17299   4.980   4.984   7.278  0.7579  0.1430 -1.6706
  156SAPE   C2417300   4.965   4.789   7.214 -0.5749  0.2688  1.5849
  156SAPE   H4R17301   4.991   4.691   7.259  1.9485  0.1376  0.0391
  156SAPE   H4S17302   5.047   4.784   7.139 -0.9145 -0.2209  1.2425
  156SAPE   C2517303   4.830   4.799   7.148 -0.0244 -0.7022 -0.8026
  156SAPE   H5R17304   4.753   4.841   7.215  1.8373  1.2753  0.2261
  156SAPE   C2617305   4.800   4.806   7.020 -0.4998 -1.0692 -0.1733
  156SAPE   H6R17306   4.696   4.832   6.996 -0.1044  0.9736  0.2080
  156SAPE   C2717307   4.897   4.772   6.912 -0.3179 -0.2950 -0.1660
  156SAPE   H7R17308   4.980   4.706   6.944  1.2029  1.8874  0.6898
  156SAPE   H7S17309   4.950   4.864   6.877  0.5641 -0.4514  0.7023
  156SAPE   C2817310   4.816   4.708   6.800 -0.4341 -0.0591 -0.4916
  156SAPE   H8R17311   4.768   4.612   6.825  0.2261 -1.4413 -4.0305
  156SAPE   C2917312   4.829   4.725   6.671  0.0924  0.0308 -0.1726
  156SAPE   H9R17313   4.747   4.685   6.611 -0.2800  4.3177 -2.9299
  156SAPE  C21017314   4.904   4.819   6.581 -0.0096  0.6776 -0.4503
  156SAPE  H10R17315   4.928   4.749   6.497 -1.1788  0.6175 -0.7446
  156SAPE  H10S17316   5.009   4.834   6.613  1.0100 -2.1871 -2.0043
  156SAPE  C21117317   4.848   4.951   6.551 -0.0794  0.9634  0.5032
  156SAPE  H11R17318   4.763   4.975   6.617 -1.4387 -3.1146  0.4672
  156SAPE  C21217319   4.891   5.043   6.457 -0.7909 -0.4371  0.3042
  156SAPE  H12R17320   4.834   5.134   6.431 -0.7962 -0.8611 -1.2231
  156SAPE  C21317321   5.011   5.022   6.368  0.4106  0.6736 -0.3837
  156SAPE  H13R17322   5.053   4.919   6.377  0.2648  0.4402 -2.0714
  156SAPE  H13S17323   5.094   5.085   6.406  1.0028  0.3006 -1.0419
  156SAPE  C21417324   4.969   5.050   6.223 -0.1699  0.0947 -0.0049
  156SAPE  H14R17325   4.871   5.100   6.215 -0.6628 -0.7184  0.8330
  156SAPE  C21517326   5.038   4.992   6.120 -0.1155  0.1982 -0.1495
  156SAPE  H15R17327   5.006   4.999   6.015 -1.2924 -0.9276  0.1078
  156SAPE  C21617328   5.167   4.924   6.141 -0.7071  0.3969  0.1229
  156SAPE  H16R17329   5.168   4.852   6.226  1.7810  0.6144  0.3429
  156SAPE  H16S17330   5.234   5.005   6.180  0.0304 -1.2963  2.6273
  156SAPE  C21717331   5.222   4.843   6.016 -0.3213 -0.1358 -0.6571
  156SAPE  H17R17332   5.210   4.908   5.927  0.4805  1.0837  0.1075
  156SAPE  H17S17333   5.161   4.754   5.987  1.9770 -1.9030 -0.4060
  156SAPE  C21817334   5.367   4.792   6.035 -0.4290 -0.2730  0.2063
  156SAPE  H18R17335   5.369   4.717   6.118 -2.9930 -0.1012  0.5177
  156SAPE  H18S17336   5.432   4.879   6.060 -1.1158  0.3216 -0.0550
  156SAPE  C21917337   5.421   4.720   5.908 -0.8494 -0.3318 -0.4810
  156SAPE  H19R17338   5.433   4.793   5.825 -1.2652  1.0654  0.6442
  156SAPE  H19S17339   5.356   4.637   5.874 -0.6511 -0.4745 -0.5204
  156SAPE  C22017340   5.562   4.655   5.919 -0.9368  0.4055 -0.0283
  156SAPE  H20R17341   5.633   4.726   5.966 -0.4987  0.9888 -1.4921
  156SAPE  H20S17342   5.603   4.621   5.821 -0.7939  3.1419 -1.0045
  156SAPE  H20T17343   5.555   4.561   5.978  0.5658 -0.1901 -0.7185
  156SAPE   C3317344   4.511   4.519   7.215  0.9024  0.6524 -0.2918
  156SAPE   H3X17345   4.492   4.628   7.223  1.2501  0.6275  1.2213
  156SAPE   H3Y17346   4.419   4.466   7.246  1.4124 -0.7386 -1.0615
  156SAPE   C3417347   4.530   4.479   7.067 -0.0436  0.0724  0.0710
  156SAPE   H4X17348   4.536   4.368   7.068 -2.5274 -0.1000 -0.1881
  156SAPE   H4Y17349   4.628   4.522   7.036  0.2960  0.0496  1.0703
  156SAPE   C3517350   4.419   4.525   6.976 -0.0821 -0.4713  0.1153
  156SAPE   H5X17351   4.428   4.636   6.979 -3.5065 -0.0160 -1.4689
  156SAPE   H5Y17352   4.320   4.517   7.027 -0.1117 -0.7052  0.0221
  156SAPE   C3617353   4.436   4.488   6.828  0.5168  0.1851 -0.6988
  156SAPE   H6X17354   4.417   4.380   6.810 -2.6176  0.4684  0.2262
  156SAPE   H6Y17355   4.539   4.507   6.793 -0.1450 -0.5498 -3.2017
  156SAPE   C3717356   4.340   4.561   6.737 -0.4247  0.1548  0.3473
  156SAPE   H7X17357   4.383   4.664   6.731 -1.3475  0.6336  1.6227
  156SAPE   H7Y17358   4.241   4.574   6.785 -0.6036 -0.6437  0.2064
  156SAPE   C3817359   4.334   4.517   6.588 -0.6539  0.3582 -0.2748
  156SAPE   H8X17360   4.280   4.594   6.529  1.1317  0.6984 -1.5544
  156SAPE   H8Y17361   4.295   4.415   6.568  0.4157  0.3119 -2.4368
  156SAPE   C3917362   4.481   4.527   6.523  0.0083  0.2397  0.3122
  156SAPE   H9X17363   4.551   4.590   6.582  1.3737 -0.7497 -0.1863
  156SAPE   H9Y17364   4.488   4.563   6.419  2.2312  0.8019  0.6151
  156SAPE  C31017365   4.539   4.376   6.512 -0.6018  0.2706  0.0691
  156SAPE  H10X17366   4.468   4.316   6.450  1.0189 -1.6421 -0.0500
  156SAPE  H10Y17367   4.557   4.324   6.609 -0.4960  2.3422  1.2240
  156SAPE  C31117368   4.678   4.382   6.443  0.6817  0.3980 -0.1573
  156SAPE  H11X17369   4.749   4.402   6.526  2.6971 -1.2511 -1.4117
  156SAPE  H11Y17370   4.682   4.461   6.365 -0.6313  1.0180  0.3607
  156SAPE  C31217371   4.719   4.253   6.376  0.0503  0.2854  0.3660
  156SAPE  H12X17372   4.692   4.165   6.438 -0.4472  0.7753  0.8611
  156SAPE  H12Y17373   4.826   4.275   6.355 -0.3072  3.7081  1.4467
  156SAPE  C31317374   4.664   4.236   6.231 -0.2361 -0.3303  0.1142
  156SAPE  H13X17375   4.712   4.299   6.153 -1.9771 -1.3674 -1.9143
  156SAPE  H13Y17376   4.556   4.258   6.219 -0.1916 -1.1755 -2.6755
  156SAPE  C31417377   4.672   4.092   6.183 -0.3935  0.4889 -0.3744
  156SAPE  H14X17378   4.630   4.015   6.252  1.6987 -1.7325 -1.4459
  156SAPE  H14Y17379   4.779   4.068   6.168  0.0116  1.7508  0.3039
  156SAPE  C31517380   4.597   4.061   6.046  0.5877  0.5670  0.7261
  156SAPE  H15X17381   4.487   4.059   6.063  0.3167 -1.6350 -0.8459
  156SAPE  H15Y17382   4.627   3.956   6.022  0.5920  0.5789  0.6809
  156SAPE  C31617383   4.644   4.154   5.933  0.8228  0.5057 -0.1226
  156SAPE  H16X17384   4.752   4.170   5.955  1.1057 -2.1702  0.8291
  156SAPE  H16Y17385   4.588   4.248   5.955 -1.0819 -0.9760  1.6919
  156SAPE  C31717386   4.649   4.094   5.792  0.5254  0.0504 -0.3594
  156SAPE  H17X17387   4.541   4.073   5.776 -0.1574  1.5547  1.6978
  156SAPE  H17Y17388   4.711   4.003   5.800  1.1230  0.3625 -1.3921
  156SAPE  C31817389   4.712   4.190   5.691 -0.0985 -0.3645  0.1072
  156SAPE  H18X17390   4.711   4.160   5.584  1.8044  0.9287 -0.3141
  156SAPE  H18Y17391   4.813   4.228   5.715 -0.1915  0.2166 -0.3968
  156SAPE  H18Z17392   4.649   4.282   5.694  0.6815  0.1544  1.1950
  157SAPE     N17393   6.736   2.480   7.463 -0.2462 -0.1560 -0.0554
  157SAPE   HN117394   6.835   2.468   7.492 -1.1796 -1.0839  3.0717
  157SAPE   HN217395   6.714   2.579   7.440 -0.0499  0.6219  2.7683
  157SAPE   HN317396   6.677   2.462   7.546 -1.2098  0.8710 -0.4889
  157SAPE   C1217397   6.701   2.404   7.340 -0.0789 -0.3529  0.8650
  157SAPE  H12A17398   6.592   2.411   7.319  0.5664  2.9676 -2.3715
  157SAPE  H12B17399   6.729   2.298   7.361 -0.1670 -0.8860 -1.4716
  157SAPE   C1117400   6.783   2.457   7.220  0.3149 -0.4791  0.5279
  157SAPE  H11A17401   6.719   2.540   7.183  1.4533 -0.5628 -1.8015
  157SAPE  H11B17402   6.775   2.393   7.130  0.5530  1.7938 -1.2043
  157SAPE     P17403   6.978   2.621   7.181  0.0367  0.3151  0.4145
  157SAPE   O1317404   6.935   2.740   7.255 -0.0095 -0.5404 -0.3521
  157SAPE   O1417405   7.127   2.608   7.181 -0.5119  0.4899  0.0042
  157SAPE   O1217406   6.915   2.498   7.253  0.1302  0.8104 -0.2389
  157SAPE   O1117407   6.922   2.623   7.036 -0.4357  0.0145  0.3061
  157SAPE    C117408   6.815   2.710   6.997 -0.2623  0.4074  1.0866
  157SAPE    HA17409   6.738   2.644   6.951 -0.6482  0.6571  1.3637
  157SAPE    HB17410   6.757   2.745   7.086 -0.9705 -0.9902  1.2058
  157SAPE    C217411   6.866   2.830   6.912 -0.8238 -0.1004 -0.4793
  157SAPE    HS17412   6.905   2.909   6.979  0.3696  0.3429 -1.6384
  157SAPE   O2117413   6.759   2.870   6.831  0.1284 -0.1989  0.2011
  157SAPE   C2117414   6.699   2.986   6.853 -0.1066 -0.5823 -0.2992
  157SAPE   O2217415   6.717   3.056   6.948 -0.1031 -0.0885  0.2003
  157SAPE   C2217416   6.600   3.019   6.737  0.0115  0.3878  0.2003
  157SAPE   H2R17417   6.503   2.966   6.746 -1.0229  2.1851  0.1601
  157SAPE   H2S17418   6.565   3.124   6.743  2.0988  1.4728 -3.3548
  157SAPE    C317419   6.984   2.795   6.819 -0.1766  0.5786  0.0303
  157SAPE    HX17420   6.945   2.738   6.732  0.3911  0.2409 -0.0069
  157SAPE    HY17421   7.060   2.735   6.873 -0.2168  0.1515 -0.3791
  157SAPE   O3117422   7.038   2.922   6.785 -0.1158  0.3992  0.4423
  157SAPE   C3117423   7.174   2.940   6.795  0.1094 -0.0329  0.3118
  157SAPE   O3217424   7.254   2.848   6.805  0.1054  0.6475  0.5871
  157SAPE   C3217425   7.200   3.083   6.767 -0.7495  0.2103 -0.9798
  157SAPE   H2X17426   7.205   3.126   6.870  1.2392  0.5655 -1.1883
  157SAPE   H2Y17427   7.120   3.128   6.705 -1.8858  0.8423  0.8603
  157SAPE   C2317428   6.656   3.000   6.593  0.2599 -0.2113  0.4077
  157SAPE   H3R17429   6.574   3.020   6.520  1.1795 -0.7102 -0.7892
  157SAPE   H3S17430   6.687   2.894   6.589  1.6861  0.0207  3.0625
  157SAPE   C2417431   6.775   3.086   6.555  0.1044  0.0443  0.0137
  157SAPE   H4R17432   6.845   3.109   6.639 -1.8572 -0.4683  1.8731
  157SAPE   H4S17433   6.720   3.181   6.536 -1.2802  0.0131  3.2573
  157SAPE   C2517434   6.855   3.040   6.430  0.4367  0.9112 -0.1028
  157SAPE   H5R17435   6.950   2.998   6.468 -1.1921 -2.2479  0.8188
  157SAPE   C2617436   6.837   3.058   6.296 -0.1722  0.5809  0.1284
  157SAPE   H6R17437   6.903   3.012   6.220 -1.4901 -0.5059 -0.3949
  157SAPE   C2717438   6.705   3.102   6.228 -0.2846  0.2580  0.3760
  157SAPE   H7R17439   6.619   3.110   6.298 -1.1760 -0.4812 -0.5937
  157SAPE   H7S17440   6.666   3.031   6.152 -2.8081  0.5635  1.2874
  157SAPE   C2817441   6.727   3.227   6.152 -0.7440 -0.5766  0.0382
  157SAPE   H8R17442   6.792   3.293   6.212 -0.0012 -1.8536  0.6877
  157SAPE   C2917443   6.716   3.257   6.020 -0.3923 -0.0027  0.3779
  157SAPE   H9R17444   6.737   3.361   5.993  1.0413 -0.3864 -0.0237
  157SAPE  C21017445   6.637   3.175   5.918 -0.2489  0.4088 -0.3611
  157SAPE  H10R17446   6.535   3.159   5.959 -1.8680  3.1276 -2.9408
  157SAPE  H10S17447   6.678   3.072   5.913  1.5187  0.9025  2.0808
  157SAPE  C21117448   6.629   3.247   5.786 -0.4016 -0.1132  1.0143
  157SAPE  H11R17449   6.538   3.301   5.756 -0.9411 -0.9612  1.1009
  157SAPE  C21217450   6.730   3.254   5.695  0.2075 -0.1975 -0.5132
  157SAPE  H12R17451   6.716   3.319   5.607 -0.5254  0.6908  0.2484
  157SAPE  C21317452   6.864   3.185   5.699  0.2848  0.2212 -0.8895
  157SAPE  H13R17453   6.854   3.100   5.628 -0.2310 -1.0226  0.6236
  157SAPE  H13S17454   6.885   3.143   5.800 -1.0409 -0.6343 -0.9535
  157SAPE  C21417455   6.984   3.264   5.659  0.1626 -0.9626  0.9386
  157SAPE  H14R17456   7.054   3.290   5.740  1.3668 -0.1423 -0.3268
  157SAPE  C21517457   7.015   3.298   5.529 -0.2039  0.1065 -0.5275
  157SAPE  H15R17458   7.104   3.362   5.515 -1.2795  2.3481  2.0307
  157SAPE  C21617459   6.944   3.266   5.399  0.2637 -0.9972  0.6056
  157SAPE  H16R17460   6.908   3.360   5.352 -0.3459 -1.9104 -0.8503
  157SAPE  H16S17461   6.850   3.209   5.414 -2.1590  2.0116 -1.7180
  157SAPE  C21717462   7.035   3.190   5.295 -0.4871 -0.7648 -0.2194
  157SAPE  H17R17463   6.973   3.145   5.214  0.1995  1.8683 -2.3360
  157SAPE  H17S17464   7.083   3.098   5.334 -1.7255 -1.8520 -1.1383
  157SAPE  C21817465   7.136   3.285   5.221 -0.3447 -0.0295  0.1195
  157SAPE  H18R17466   7.196   3.335   5.300  0.8812 -2.7136  1.0283
  157SAPE  H18S17467   7.096   3.366   5.157 -0.2049  1.7821  2.2058
  157SAPE  C21917468   7.225   3.202   5.128 -0.3559 -0.0591  0.0443
  157SAPE  H19R17469   7.253   3.101   5.164 -0.2072 -1.2090 -3.0760
  157SAPE  H19S17470   7.317   3.261   5.110  0.3673 -1.2747 -0.2678
  157SAPE  C22017471   7.160   3.175   4.987  0.2532  0.1733 -0.1341
  157SAPE  H20R17472   7.063   3.123   4.997  0.8221 -0.9996 -0.5415
  157SAPE  H20S17473   7.224   3.106   4.927 -0.2591 -1.0697  0.7210
  157SAPE  H20T17474   7.143   3.267   4.927 -0.5042 -0.4585 -0.9110
  157SAPE   C3317475   7.334   3.108   6.696 -0.3825 -0.2372  0.4702
  157SAPE   H3X17476   7.421   3.065   6.750  1.6036  2.1259 -0.6898
  157SAPE   H3Y17477   7.365   3.214   6.693 -0.8531 -0.0576  1.4274
  157SAPE   C3417478   7.323   3.048   6.557  0.0123  0.0261 -0.5574
  157SAPE   H4X17479   7.230   3.091   6.514 -0.4923 -0.8059 -0.3146
  157SAPE   H4Y17480   7.307   2.938   6.562  1.8977 -0.3139 -1.0630
  157SAPE   C3517481   7.441   3.074   6.465  0.3599  0.2586  1.1954
  157SAPE   H5X17482   7.527   3.010   6.491 -0.2917 -0.6687  1.1248
  157SAPE   H5Y17483   7.473   3.181   6.464  0.2370  0.3182 -0.8643
  157SAPE   C3617484   7.408   3.078   6.310  0.1579 -0.4523  0.1758
  157SAPE   H6X17485   7.365   2.980   6.279  2.3520 -1.2826 -0.4788
  157SAPE   H6Y17486   7.498   3.097   6.248 -1.1777  6.7161 -0.4308
  157SAPE   C3717487   7.313   3.190   6.264  0.4063 -1.0725  0.3329
  157SAPE   H7X17488   7.373   3.282   6.250 -1.1383  0.0929  1.1131
  157SAPE   H7Y17489   7.229   3.201   6.337 -0.7014  2.8803 -1.2888
  157SAPE   C3817490   7.241   3.165   6.131  0.6720 -0.5167  0.4460
  157SAPE   H8X17491   7.176   3.251   6.105  0.0187 -0.9552  0.6037
  157SAPE   H8Y17492   7.178   3.074   6.130  1.5215 -1.1066 -0.3046
  157SAPE   C3917493   7.334   3.150   6.015  0.1458  0.4105 -0.3111
  157SAPE   H9X17494   7.382   3.049   6.013 -1.4999 -0.4889  1.7260
  157SAPE   H9Y17495   7.414   3.226   6.009 -0.2452  0.7868 -0.8186
  157SAPE  C31017496   7.257   3.140   5.875 -1.1461 -0.6674 -0.0170
  157SAPE  H10X17497   7.207   3.238   5.862  2.6098  1.5108  0.5000
  157SAPE  H10Y17498   7.184   3.056   5.871 -0.5590 -1.1518 -1.5614
  157SAPE  C31117499   7.361   3.120   5.757 -1.1012 -0.3889  0.7652
  157SAPE  H11X17500   7.311   3.143   5.661 -0.8792 -0.1641  0.7019
  157SAPE  H11Y17501   7.403   3.018   5.745  0.1146  0.1607  0.1347
  157SAPE  C31217502   7.489   3.214   5.764  0.2087 -0.0698  0.5761
  157SAPE  H12X17503   7.558   3.191   5.680  0.3269 -3.3522  1.4174
  157SAPE  H12Y17504   7.545   3.187   5.856  0.0069 -0.0637  0.7017
  157SAPE  C31317505   7.448   3.366   5.746  0.3039 -0.4417 -0.4933
  157SAPE  H13X17506   7.534   3.429   5.777 -0.7115  0.2891  0.9395
  157SAPE  H13Y17507   7.361   3.386   5.812  1.6388  0.0232  1.1961
  157SAPE  C31417508   7.401   3.401   5.603 -0.4477 -0.8774  0.1267
  157SAPE  H14X17509   7.294   3.377   5.586 -0.3714 -0.9552 -0.2543
  157SAPE  H14Y17510   7.450   3.338   5.525  0.4640  0.2038 -0.2089
  157SAPE  C31517511   7.443   3.544   5.560  0.4566 -0.6891  0.4325
  157SAPE  H15X17512   7.552   3.546   5.580  0.7379 -1.5891 -0.9435
  157SAPE  H15Y17513   7.379   3.607   5.626  0.4224 -0.6541  0.3663
  157SAPE  C31617514   7.407   3.572   5.414 -0.7915 -0.4385 -0.1184
  157SAPE  H16X17515   7.296   3.578   5.413 -0.7323  1.1279 -0.4995
  157SAPE  H16Y17516   7.448   3.494   5.347  1.8881  2.6644 -2.4043
  157SAPE  C31717517   7.451   3.701   5.352 -0.5151 -0.1802  0.4778
  157SAPE  H17X17518   7.410   3.696   5.249  1.1517 -3.1617 -0.1381
  157SAPE  H17Y17519   7.562   3.700   5.347 -0.4702 -0.1081  1.3238
  157SAPE  C31817520   7.416   3.836   5.431 -0.3433 -0.1088  0.4150
  157SAPE  H18X17521   7.466   3.911   5.367  0.1258 -0.4213  0.4080
  157SAPE  H18Y17522   7.468   3.849   5.528  3.0814 -0.1892 -1.2765
  157SAPE  H18Z17523   7.308   3.862   5.441  0.2256  1.8021  2.1890
  158SAPE     N17524   1.487   3.506   7.236 -0.0555  0.5325  0.0251
  158SAPE   HN117525   1.566   3.556   7.191  1.7622 -0.5925  1.8052
  158SAPE   HN217526   1.401   3.555   7.205  1.9142  4.7467  0.5713
  158SAPE   HN317527   1.511   3.503   7.337 -0.7892 -1.5117  0.1864
  158SAPE   C1217528   1.473   3.366   7.184  0.2234 -0.1693 -0.7629
  158SAPE  H12A17529   1.388   3.324   7.243 -0.0793  1.3855 -0.0387
  158SAPE  H12B17530   1.557   3.304   7.221 -1.3162 -1.9910 -0.1611
  158SAPE   C1117531   1.447   3.366   7.031  0.0186  0.2944 -0.4966
  158SAPE  H11A17532   1.442   3.259   7.000 -1.3061  0.8694 -2.5458
  158SAPE  H11B17533   1.533   3.408   6.975  1.4719 -0.4025  1.1492
  158SAPE     P17534   1.295   3.571   6.964  0.4052  0.1025  0.2820
  158SAPE   O1317535   1.180   3.594   6.876 -0.5493  0.2405 -0.0002
  158SAPE   O1417536   1.308   3.654   7.085  0.5337  0.1928  0.5044
  158SAPE   O1217537   1.313   3.415   6.999 -0.5530 -0.1951 -0.0039
  158SAPE   O1117538   1.421   3.600   6.876 -0.0232  0.2040  0.2570
  158SAPE    C117539   1.473   3.535   6.768 -0.2570  0.0882 -0.0896
  158SAPE    HA17540   1.577   3.575   6.763  0.8872 -2.6127  0.0808
  158SAPE    HB17541   1.475   3.426   6.790 -1.6809  0.3465  1.5101
  158SAPE    C217542   1.383   3.555   6.653  0.0847 -0.2324  0.2853
  158SAPE    HS17543   1.279   3.525   6.680 -0.5618 -0.5417 -2.3077
  158SAPE   O2117544   1.443   3.473   6.550  0.4275 -0.1018  0.4104
  158SAPE   C2117545   1.359   3.444   6.449 -0.3277  0.4426 -0.7928
  158SAPE   O2217546   1.243   3.480   6.440 -0.2152  0.2051 -0.0719
  158SAPE   C2217547   1.416   3.350   6.344  0.7473  0.7478 -0.1600
  158SAPE   H2R17548   1.393   3.403   6.250 -2.3253  0.4030  0.2856
  158SAPE   H2S17549   1.527   3.351   6.349  0.7549 -0.1123  0.0893
  158SAPE    C317550   1.375   3.709   6.614 -0.3529  0.1858  0.0706
  158SAPE    HX17551   1.323   3.769   6.692 -2.7882 -0.5127 -0.9505
  158SAPE    HY17552   1.300   3.714   6.532 -2.1011 -0.5682  1.5507
  158SAPE   O3117553   1.502   3.762   6.578  0.1971  0.6442  0.6634
  158SAPE   C3117554   1.491   3.879   6.509  0.7842 -0.1239  0.2209
  158SAPE   O3217555   1.387   3.931   6.482 -0.3249 -0.2105 -0.4252
  158SAPE   C3217556   1.629   3.924   6.464  0.4009  0.7193 -0.4883
  158SAPE   H2X17557   1.686   3.830   6.449 -2.5965 -1.2544 -0.1578
  158SAPE   H2Y17558   1.691   3.967   6.546 -0.4204 -1.5147  1.3750
  158SAPE   C2317559   1.358   3.203   6.334 -0.0981  0.1478  0.3314
  158SAPE   H3R17560   1.385   3.160   6.235  0.4370  3.5392 -1.1300
  158SAPE   H3S17561   1.248   3.200   6.346 -0.1296  2.4037  0.9322
  158SAPE   C2417562   1.418   3.106   6.441 -0.0716  0.4648  0.3913
  158SAPE   H4R17563   1.523   3.082   6.417 -0.1320 -0.8924  1.3238
  158SAPE   H4S17564   1.356   3.015   6.423 -0.7978  0.7694  1.2639
  158SAPE   C2517565   1.404   3.142   6.585  0.5702 -0.3485 -0.1553
  158SAPE   H5R17566   1.303   3.173   6.613  0.0292 -0.6288 -1.6733
  158SAPE   C2617567   1.498   3.132   6.679  0.1367 -0.3419 -0.0377
  158SAPE   H6R17568   1.475   3.137   6.786 -0.8480 -1.6711 -0.1545
  158SAPE   C2717569   1.631   3.066   6.663  0.0823 -0.3632 -0.0525
  158SAPE   H7R17570   1.675   3.090   6.564 -0.0717  0.1839  0.0099
  158SAPE   H7S17571   1.617   2.957   6.645  1.1883 -0.3512 -1.1675
  158SAPE   C2817572   1.748   3.102   6.758  0.0633  1.2369  0.0909
  158SAPE   H8R17573   1.720   3.103   6.864 -0.7828  0.2256 -0.1079
  158SAPE   C2917574   1.878   3.112   6.729  0.1762  0.4062 -0.3931
  158SAPE   H9R17575   1.945   3.137   6.813 -1.1462  1.7851  0.2940
  158SAPE  C21017576   1.943   3.091   6.595 -0.2013  0.0375 -0.2364
  158SAPE  H10R17577   1.964   3.184   6.538  1.9332 -0.3512 -0.1692
  158SAPE  H10S17578   1.874   3.029   6.533  1.5387 -0.8243 -1.4234
  158SAPE  C21117579   2.081   3.022   6.602  0.4161  0.1261  0.2592
  158SAPE  H11R17580   2.084   2.924   6.551 -1.9287 -0.7071  1.5787
  158SAPE  C21217581   2.199   3.050   6.658  0.5627 -1.0522  0.0800
  158SAPE  H12R17582   2.283   2.982   6.637  2.6735  0.7310  2.0641
  158SAPE  C21317583   2.237   3.157   6.764 -0.5412 -0.1811 -0.0945
  158SAPE  H13R17584   2.348   3.150   6.767 -0.4054  1.6557  0.4858
  158SAPE  H13S17585   2.199   3.123   6.863  0.7764 -2.7844 -0.3967
  158SAPE  C21417586   2.195   3.294   6.738 -0.2557  0.0870 -0.2888
  158SAPE  H14R17587   2.090   3.314   6.764 -0.4052 -0.7736 -0.2039
  158SAPE  C21517588   2.270   3.394   6.676 -0.5156  0.5211  0.1856
  158SAPE  H15R17589   2.214   3.484   6.649  2.3984  2.5661  0.4839
  158SAPE  C21617590   2.417   3.395   6.639 -0.0702 -0.3666 -0.1828
  158SAPE  H16R17591   2.425   3.348   6.539 -0.9524 -1.0897  0.0757
  158SAPE  H16S17592   2.478   3.329   6.704 -0.5306 -0.3804  0.2419
  158SAPE  C21717593   2.460   3.541   6.640  0.4886  0.0307  0.5773
  158SAPE  H17R17594   2.571   3.536   6.634  0.4420 -0.3739 -0.0964
  158SAPE  H17S17595   2.434   3.600   6.730  1.7003  0.5358  0.6151
  158SAPE  C21817596   2.407   3.628   6.521  0.0306  0.5820  0.3153
  158SAPE  H18R17597   2.343   3.711   6.558 -1.2364 -0.5683  0.8026
  158SAPE  H18S17598   2.327   3.577   6.462  0.0040  1.3826 -0.3587
  158SAPE  C21917599   2.519   3.685   6.434  0.6721  0.0765  1.2260
  158SAPE  H19R17600   2.571   3.608   6.374 -0.4678  0.2723 -0.0540
  158SAPE  H19S17601   2.587   3.722   6.513  0.9790  0.9229  0.5765
  158SAPE  C22017602   2.481   3.788   6.328  0.2273  0.3370  0.6955
  158SAPE  H20R17603   2.564   3.821   6.263 -0.2650  0.7844  0.2798
  158SAPE  H20S17604   2.436   3.883   6.365 -0.1707  1.8773 -3.1712
  158SAPE  H20T17605   2.399   3.745   6.266  0.3213  0.5769  0.4004
  158SAPE   C3317606   1.626   4.007   6.335  0.3771  0.2769 -0.0723
  158SAPE   H3X17607   1.719   4.069   6.336  0.3480  0.3353 -0.6099
  158SAPE   H3Y17608   1.542   4.080   6.331  0.4854  0.3546 -1.3967
  158SAPE   C3417609   1.624   3.925   6.210 -0.3948  0.1303 -0.0641
  158SAPE   H4X17610   1.538   3.854   6.206  0.0320 -0.3921 -0.2072
  158SAPE   H4Y17611   1.704   3.848   6.200 -0.3102  0.1904  0.1582
  158SAPE   C3517612   1.608   4.007   6.080 -0.1175  0.2207  0.1975
  158SAPE   H5X17613   1.593   4.113   6.108  1.0526  0.0414  1.6652
  158SAPE   H5Y17614   1.515   3.977   6.027 -0.5818  1.5887  0.2021
  158SAPE   C3617615   1.743   3.995   6.002 -0.1741 -0.3978  0.2247
  158SAPE   H6X17616   1.764   3.887   5.993 -0.7354 -0.3835 -1.5004
  158SAPE   H6Y17617   1.824   4.052   6.052 -0.5757 -0.1395  0.5907
  158SAPE   C3717618   1.732   4.040   5.861  0.3522 -0.4372 -0.3837
  158SAPE   H7X17619   1.702   4.146   5.856  0.2809 -0.4476 -0.2139
  158SAPE   H7Y17620   1.653   3.978   5.813  0.2950 -3.1090  2.7318
  158SAPE   C3817621   1.864   4.023   5.784  0.2185  0.1248  0.1286
  158SAPE   H8X17622   1.896   3.917   5.774 -0.2006  0.0300 -0.2263
  158SAPE   H8Y17623   1.953   4.061   5.839  0.5791 -1.7023  0.8893
  158SAPE   C3917624   1.863   4.094   5.648 -0.4951 -0.3708  0.2966
  158SAPE   H9X17625   1.892   4.202   5.648  0.0315 -0.5023  1.8285
  158SAPE   H9Y17626   1.763   4.086   5.598  0.1688 -2.0235 -0.8455
  158SAPE  C31017627   1.968   4.031   5.553  0.5190 -0.5574  0.5467
  158SAPE  H10X17628   2.054   4.009   5.620  0.9151 -2.0345 -0.4010
  158SAPE  H10Y17629   1.990   4.105   5.473 -1.8209  0.3754  0.6953
  158SAPE  C31117630   1.922   3.907   5.481 -0.5217  0.0316  0.0134
  158SAPE  H11X17631   1.827   3.933   5.430 -0.4915  0.1568  0.0218
  158SAPE  H11Y17632   1.910   3.825   5.556 -0.3706 -0.6889 -0.7397
  158SAPE  C31217633   2.022   3.866   5.368  1.1068  0.5181  0.8608
  158SAPE  H12X17634   2.125   3.841   5.401  1.4710 -1.5811 -1.5937
  158SAPE  H12Y17635   2.027   3.961   5.310  2.5224 -0.1914 -0.2093
  158SAPE  C31317636   1.965   3.745   5.281  0.2131 -0.3389  0.0910
  158SAPE  H13X17637   2.057   3.703   5.234 -0.0394 -0.6282 -0.1528
  158SAPE  H13Y17638   1.906   3.791   5.199 -0.3117  1.3990  1.4082
  158SAPE  C31417639   1.888   3.633   5.354 -0.7114 -0.1794  0.1448
  158SAPE  H14X17640   1.784   3.670   5.366 -1.2970 -1.8246  0.4215
  158SAPE  H14Y17641   1.922   3.624   5.459 -1.9302  1.5145  0.7409
  158SAPE  C31517642   1.901   3.501   5.277  0.7812  0.3373  0.0183
  158SAPE  H15X17643   1.885   3.423   5.355  1.2722 -0.6701 -0.8603
  158SAPE  H15Y17644   2.005   3.481   5.242  0.3769  0.5795 -1.3780
  158SAPE  C31617645   1.794   3.484   5.164 -0.4835  0.0774  0.0750
  158SAPE  H16X17646   1.807   3.568   5.092 -1.0027  1.8319  1.9303
  158SAPE  H16Y17647   1.695   3.503   5.210 -0.1236  0.1357  0.8528
  158SAPE  C31717648   1.812   3.346   5.099 -0.6195 -0.0649 -0.0937
  158SAPE  H17X17649   1.823   3.269   5.178  0.5136  1.8872  1.7688
  158SAPE  H17Y17650   1.909   3.342   5.044 -0.0529  1.4234  0.7177
  158SAPE  C31817651   1.702   3.301   5.001 -0.6144 -0.2730  0.8707
  158SAPE  H18X17652   1.599   3.311   5.043 -0.8343  0.2113  0.2288
  158SAPE  H18Y17653   1.725   3.194   4.980  2.1364  0.4220 -0.0665
  158SAPE  H18Z17654   1.726   3.357   4.908  1.9083 -1.2030  0.8885
  159SAPE     N17655   2.539   0.335   3.290  0.2567  0.4000  1.0502
  159SAPE   HN117656   2.570   0.238   3.314  0.7923  0.1468 -0.5112
  159SAPE   HN217657   2.580   0.410   3.349  0.4235  0.0152  1.4260
  159SAPE   HN317658   2.436   0.328   3.296  0.3018 -3.0032  0.0416
  159SAPE   C1217659   2.558   0.356   3.143  0.2483 -0.2274 -0.0061
  159SAPE  H12A17660   2.666   0.363   3.119  0.4797 -0.7480  0.8348
  159SAPE  H12B17661   2.501   0.447   3.116 -0.4086  0.2212  2.5954
  159SAPE   C1117662   2.500   0.241   3.056 -0.6525  0.0744 -0.0753
  159SAPE  H11A17663   2.545   0.253   2.954  2.7857 -2.2292  0.9896
  159SAPE  H11B17664   2.389   0.237   3.055 -0.6361 -3.4552  0.1791
  159SAPE     P17665   2.541  -0.019   3.034 -0.3496  0.6015 -0.1579
  159SAPE   O1317666   2.422  -0.099   3.069 -0.3518  0.6922  0.5419
  159SAPE   O1417667   2.562   0.009   2.889 -0.5660  0.1248  0.8801
  159SAPE   O1217668   2.549   0.118   3.113 -0.1200  0.2212  0.0228
  159SAPE   O1117669   2.674  -0.099   3.086 -0.0083 -0.2888 -0.0333
  159SAPE    C117670   2.737  -0.052   3.200 -1.0149  0.1486 -0.8153
  159SAPE    HA17671   2.842  -0.088   3.205 -0.4767  1.7177  0.0257
  159SAPE    HB17672   2.740   0.059   3.208  2.0523  0.1799 -1.0359
  159SAPE    C217673   2.674  -0.124   3.328  0.0056  0.5333  0.5333
  159SAPE    HS17674   2.567  -0.101   3.345 -0.1285  0.8329 -0.5892
  159SAPE   O2117675   2.761  -0.086   3.446  0.1296 -0.5297 -0.3178
  159SAPE   C2117676   2.732   0.041   3.477  0.1403 -0.3040 -0.8632
  159SAPE   O2217677   2.634   0.107   3.436 -0.5084 -0.3265 -0.1592
  159SAPE   C2217678   2.838   0.084   3.571  0.8720 -0.9240 -0.8604
  159SAPE   H2R17679   2.938   0.054   3.534  0.9235  0.8915 -2.3525
  159SAPE   H2S17680   2.844   0.195   3.566 -1.3044 -0.7734 -1.0016
  159SAPE    C317681   2.663  -0.277   3.320  0.5182  0.2441 -0.6315
  159SAPE    HX17682   2.763  -0.325   3.314 -0.7659 -2.4808 -2.4558
  159SAPE    HY17683   2.625  -0.293   3.217 -1.0223 -0.8632  0.0702
  159SAPE   O3117684   2.576  -0.330   3.422 -0.6298 -0.1643 -0.5497
  159SAPE   C3117685   2.536  -0.456   3.394 -0.6171 -0.2663  0.5187
  159SAPE   O3217686   2.576  -0.526   3.300  0.5533 -0.5594 -0.2295
  159SAPE   C3217687   2.422  -0.485   3.490  0.4456  0.6846 -0.4592
  159SAPE   H2X17688   2.348  -0.415   3.447  1.1328  0.4251 -2.1496
  159SAPE   H2Y17689   2.441  -0.447   3.592  0.3867  2.2364 -0.9958
  159SAPE   C2317690   2.814   0.033   3.713  0.6367 -0.0895  0.0786
  159SAPE   H3R17691   2.820  -0.078   3.715 -1.1412 -0.2362 -1.0304
  159SAPE   H3S17692   2.718   0.071   3.753  1.2411  2.7008 -0.9033
  159SAPE   C2417693   2.928   0.088   3.805  0.8419  0.1567  0.2367
  159SAPE   H4R17694   3.028   0.072   3.760  0.8059 -1.2858  0.6240
  159SAPE   H4S17695   2.930   0.031   3.900 -2.3429 -2.3361 -1.0157
  159SAPE   C2517696   2.910   0.240   3.827  0.1903  0.2538  0.6637
  159SAPE   H5R17697   2.909   0.292   3.730 -4.7146 -2.1045 -0.8893
  159SAPE   C2617698   2.864   0.288   3.941 -0.1844 -0.6554 -0.0315
  159SAPE   H6R17699   2.865   0.397   3.956  0.2732 -0.6754  0.0819
  159SAPE   C2717700   2.841   0.220   4.073  0.4390  0.2510 -0.0812
  159SAPE   H7R17701   2.818   0.297   4.149  0.8309  1.9166 -1.6010
  159SAPE   H7S17702   2.936   0.182   4.117  0.2709  1.5442  1.4767
  159SAPE   C2817703   2.730   0.119   4.076  0.8442  0.1527  0.0930
  159SAPE   H8R17704   2.703   0.074   3.980 -1.2329  2.2474 -0.4200
  159SAPE   C2917705   2.634   0.100   4.171  0.0567 -0.2825  0.0788
  159SAPE   H9R17706   2.558   0.021   4.160 -0.1168  0.1141 -1.9981
  159SAPE  C21017707   2.624   0.169   4.305  0.0265  0.1406 -0.4888
  159SAPE  H10R17708   2.523   0.154   4.347  0.4444 -0.8784  0.1908
  159SAPE  H10S17709   2.636   0.278   4.291  1.2483 -0.1238 -1.7566
  159SAPE  C21117710   2.744   0.115   4.387  0.0781 -0.0904 -0.6136
  159SAPE  H11R17711   2.837   0.094   4.333  0.4624  1.1756 -0.4539
  159SAPE  C21217712   2.760   0.109   4.524 -0.0992 -0.5850  0.7606
  159SAPE  H12R17713   2.855   0.086   4.574  0.9851  1.6276 -0.1092
  159SAPE  C21317714   2.669   0.158   4.630 -0.2792 -0.4619  0.7776
  159SAPE  H13R17715   2.569   0.183   4.587 -0.4164  2.2186  2.4344
  159SAPE  H13S17716   2.710   0.255   4.666  0.9003 -1.2789  1.7111
  159SAPE  C21417717   2.639   0.069   4.738 -0.0497 -0.4586  0.2335
  159SAPE  H14R17718   2.647  -0.034   4.701 -0.6762 -0.0867 -0.9781
  159SAPE  C21517719   2.595   0.100   4.866 -0.1725 -0.5819  0.0483
  159SAPE  H15R17720   2.598   0.014   4.934  1.6126 -0.6409 -0.0406
  159SAPE  C21617721   2.562   0.231   4.920  0.3336 -0.0951  0.6494
  159SAPE  H16R17722   2.592   0.311   4.850 -2.8096  0.0875 -0.6441
  159SAPE  H16S17723   2.605   0.253   5.020  0.1426 -2.1015  1.2248
  159SAPE  C21717724   2.405   0.253   4.930 -0.7231 -0.6255 -0.1897
  159SAPE  H17R17725   2.395   0.350   4.983 -3.5127 -2.7840  3.7346
  159SAPE  H17S17726   2.358   0.180   4.999 -2.5363  1.0545  0.4558
  159SAPE  C21817727   2.338   0.256   4.794 -0.0988 -0.5928 -0.3305
  159SAPE  H18R17728   2.228   0.259   4.813  0.0896 -2.6608  1.2879
  159SAPE  H18S17729   2.358   0.165   4.734  2.5486  1.3873 -2.7246
  159SAPE  C21917730   2.382   0.373   4.692  0.7894 -0.4046 -0.2536
  159SAPE  H19R17731   2.493   0.379   4.690  0.9431 -1.9675  1.3093
  159SAPE  H19S17732   2.346   0.469   4.735  0.8087  0.0825 -1.2788
  159SAPE  C22017733   2.333   0.349   4.547 -0.0987  0.0725 -0.1352
  159SAPE  H20R17734   2.363   0.434   4.482  0.0392 -0.8088 -1.2591
  159SAPE  H20S17735   2.222   0.361   4.543  0.0528  1.7596 -0.2977
  159SAPE  H20T17736   2.366   0.249   4.513  1.7701  0.2558  1.0041
  159SAPE   C3317737   2.354  -0.622   3.479 -0.0143  0.8928 -0.0848
  159SAPE   H3X17738   2.430  -0.700   3.501 -0.6483  0.5481  0.9571
  159SAPE   H3Y17739   2.332  -0.640   3.372  0.5925  1.8203 -0.3767
  159SAPE   C3417740   2.237  -0.617   3.571 -0.0162  0.2236  0.1552
  159SAPE   H4X17741   2.175  -0.527   3.556 -2.6886 -1.5740 -0.4174
  159SAPE   H4Y17742   2.270  -0.614   3.677 -0.2970  2.1637  0.2148
  159SAPE   C3517743   2.157  -0.746   3.551  0.0104  0.2560  0.8360
  159SAPE   H5X17744   2.200  -0.843   3.585  0.6088  0.2143 -0.0023
  159SAPE   H5Y17745   2.146  -0.747   3.440 -0.2827  1.9063  0.8246
  159SAPE   C3617746   2.022  -0.743   3.622  0.8845  0.1068 -0.6916
  159SAPE   H6X17747   1.953  -0.826   3.594 -0.1540  0.3795  0.9500
  159SAPE   H6Y17748   1.961  -0.657   3.585  2.5838  0.2043 -3.6163
  159SAPE   C3717749   2.039  -0.751   3.778 -0.3690 -0.3078  0.6770
  159SAPE   H7X17750   2.116  -0.677   3.809 -0.8027  0.1319  0.7060
  159SAPE   H7Y17751   2.082  -0.852   3.793 -1.0939 -0.8415 -0.6530
  159SAPE   C3817752   1.926  -0.732   3.862 -0.0098 -0.0521 -0.5368
  159SAPE   H8X17753   1.874  -0.830   3.868  0.0054  0.0321  2.4167
  159SAPE   H8Y17754   1.844  -0.664   3.831  0.9812  0.8846 -1.1719
  159SAPE   C3917755   1.969  -0.685   4.006  0.3466 -0.1084  0.2029
  159SAPE   H9X17756   2.011  -0.583   3.998  1.1755 -0.2253  2.3856
  159SAPE   H9Y17757   2.054  -0.751   4.036  0.4173 -0.0221  0.1933
  159SAPE  C31017758   1.844  -0.677   4.088 -0.0081 -0.1326 -0.0602
  159SAPE  H10X17759   1.776  -0.759   4.057  0.5750 -1.1360  1.2542
  159SAPE  H10Y17760   1.794  -0.579   4.073  2.5246  1.3038  0.3154
  159SAPE  C31117761   1.859  -0.688   4.243  0.2632  0.1450 -0.1483
  159SAPE  H11X17762   1.908  -0.593   4.273 -1.3334  0.9822 -0.1203
  159SAPE  H11Y17763   1.931  -0.770   4.266 -0.1423 -0.3494 -0.6043
  159SAPE  C31217764   1.732  -0.713   4.315 -0.3458 -0.9283 -0.5352
  159SAPE  H12X17765   1.681  -0.802   4.271  1.9377 -1.0096 -3.3827
  159SAPE  H12Y17766   1.659  -0.631   4.304 -2.1708 -1.9201  2.9824
  159SAPE  C31317767   1.751  -0.736   4.465  0.0133 -0.2711  0.1720
  159SAPE  H13X17768   1.757  -0.633   4.507 -1.7073 -0.9575  2.2715
  159SAPE  H13Y17769   1.845  -0.789   4.488 -0.6369 -1.8274 -0.6072
  159SAPE  C31417770   1.635  -0.795   4.537  0.9679 -0.4440 -0.2791
  159SAPE  H14X17771   1.633  -0.904   4.516  0.3866 -0.3232 -0.8727
  159SAPE  H14Y17772   1.544  -0.752   4.490  1.0871  1.7224  1.3260
  159SAPE  C31517773   1.634  -0.780   4.685 -0.0409 -0.1841  0.3093
  159SAPE  H15X17774   1.655  -0.673   4.705 -0.1790 -0.5493  2.7068
  159SAPE  H15Y17775   1.716  -0.842   4.725 -0.0706  1.3623  2.9665
  159SAPE  C31617776   1.499  -0.827   4.753 -0.1736  0.7060  0.4355
  159SAPE  H16X17777   1.476  -0.933   4.729 -0.3485  0.5569  1.2162
  159SAPE  H16Y17778   1.421  -0.758   4.714 -0.1844  1.6077  1.9416
  159SAPE  C31717779   1.491  -0.824   4.906  0.0901 -0.0890 -0.0498
  159SAPE  H17X17780   1.511  -0.719   4.936 -0.5173  0.6704 -2.1289
  159SAPE  H17Y17781   1.575  -0.878   4.956 -0.8812  0.1504  1.9251
  159SAPE  C31817782   1.353  -0.869   4.959 -0.5294  0.1108 -0.3403
  159SAPE  H18X17783   1.316  -0.964   4.916 -1.3402  0.9012 -1.4281
  159SAPE  H18Y17784   1.284  -0.788   4.927  1.3253  2.1169  0.4935
  159SAPE  H18Z17785   1.353  -0.870   5.070  1.3286  1.4657 -0.2768
  160SAPE     N17786   2.247   5.362   2.979 -0.3943  0.0815 -0.0495
  160SAPE   HN117787   2.323   5.296   2.955  0.6436  1.5980 -1.0938
  160SAPE   HN217788   2.212   5.355   3.077 -0.5899  1.1501 -0.0322
  160SAPE   HN317789   2.167   5.349   2.913  1.0443  0.3575 -1.9126
  160SAPE   C1217790   2.312   5.498   2.967 -0.1178 -0.2658 -0.3268
  160SAPE  H12A17791   2.241   5.582   2.986  2.5510  1.9469  0.6339
  160SAPE  H12B17792   2.351   5.512   2.864  1.4559  0.9012  0.3760
  160SAPE   C1117793   2.421   5.513   3.072 -0.6795 -0.5887  0.0246
  160SAPE  H11A17794   2.386   5.496   3.176  1.3810 -0.7075  0.7360
  160SAPE  H11B17795   2.454   5.619   3.064 -0.8617 -0.3015  2.3741
  160SAPE     P17796   2.559   5.289   3.089  0.1407 -0.0427 -0.0503
  160SAPE   O1317797   2.453   5.197   3.048 -0.4399  0.0691 -0.5600
  160SAPE   O1417798   2.701   5.250   3.060 -0.0635 -0.3097  0.5357
  160SAPE   O1217799   2.538   5.437   3.036  0.6317  0.2346  0.2416
  160SAPE   O1117800   2.548   5.304   3.248  0.3364 -0.6722 -0.0201
  160SAPE    C117801   2.644   5.397   3.313 -0.3644  0.2558  0.4478
  160SAPE    HA17802   2.718   5.448   3.248  0.3018  0.1789  1.1306
  160SAPE    HB17803   2.585   5.480   3.357 -0.4093 -0.5482  1.9648
  160SAPE    C217804   2.725   5.311   3.416  0.1034  0.0212 -0.1411
  160SAPE    HS17805   2.699   5.205   3.399  2.2352 -0.2688 -1.8322
  160SAPE   O2117806   2.699   5.356   3.553 -0.3660 -0.2006  0.1837
  160SAPE   C2117807   2.582   5.337   3.600  0.4631  0.0429  0.2989
  160SAPE   O2217808   2.483   5.287   3.537  0.1027  0.2034 -0.0869
  160SAPE   C2217809   2.590   5.383   3.750  0.6476  0.4259  0.4668
  160SAPE   H2R17810   2.650   5.300   3.792  0.8671  0.0609 -0.5312
  160SAPE   H2S17811   2.647   5.479   3.744 -0.6016  1.1072 -2.5399
  160SAPE    C317812   2.880   5.332   3.400  0.4836 -0.4667 -0.6029
  160SAPE    HX17813   2.893   5.436   3.436 -0.1420 -0.4285 -0.4772
  160SAPE    HY17814   2.902   5.331   3.291 -2.7563  1.7220 -1.4179
  160SAPE   O3117815   2.955   5.240   3.481  0.8316  0.5784 -0.8616
  160SAPE   C3117816   3.064   5.288   3.537 -0.6245  0.1813 -0.1970
  160SAPE   O3217817   3.119   5.392   3.507 -0.0272  0.3634  0.5535
  160SAPE   C3217818   3.114   5.197   3.642  0.3272  0.3657 -0.5306
  160SAPE   H2X17819   3.200   5.247   3.692 -0.0299  0.4717 -0.0063
  160SAPE   H2Y17820   3.148   5.106   3.587  1.5649  1.1515 -1.1175
  160SAPE   C2317821   2.453   5.385   3.820  0.2197  0.4302 -0.4681
  160SAPE   H3R17822   2.414   5.282   3.826  1.8219 -0.1625  0.5399
  160SAPE   H3S17823   2.392   5.452   3.756  2.2768  0.0466 -3.0312
  160SAPE   C2417824   2.467   5.448   3.963  0.1518  0.8170 -0.8521
  160SAPE   H4R17825   2.477   5.556   3.936  1.2166  0.7685 -0.6745
  160SAPE   H4S17826   2.552   5.395   4.010  0.0764 -0.1652 -1.8176
  160SAPE   C2517827   2.338   5.416   4.041 -1.1262 -0.5148 -0.3663
  160SAPE   H5R17828   2.252   5.373   3.989 -1.5352 -1.4615  1.0374
  160SAPE   C2617829   2.320   5.414   4.174 -0.2144  0.6076  0.2532
  160SAPE   H6R17830   2.222   5.385   4.213  0.7836 -1.1919  1.5744
  160SAPE   C2717831   2.421   5.470   4.271  0.0546  0.6297  0.4942
  160SAPE   H7R17832   2.369   5.552   4.326  1.0103  0.2895  1.9532
  160SAPE   H7S17833   2.498   5.529   4.217  1.0464 -0.7381  0.3822
  160SAPE   C2817834   2.491   5.370   4.352  0.0586 -0.5907  0.4216
  160SAPE   H8R17835   2.498   5.269   4.310 -2.4568 -0.6947  0.1201
  160SAPE   C2917836   2.533   5.391   4.472 -1.0803 -0.9081 -0.7917
  160SAPE   H9R17837   2.573   5.302   4.523 -0.2795  0.2962  0.8058
  160SAPE  C21017838   2.524   5.523   4.549  0.1408  0.2250 -0.6363
  160SAPE  H10R17839   2.419   5.559   4.542 -0.8003 -2.6195 -4.1358
  160SAPE  H10S17840   2.595   5.594   4.502  1.8899 -0.0224  1.4644
  160SAPE  C21117841   2.562   5.520   4.695 -0.5652 -0.1149  0.1367
  160SAPE  H11R17842   2.671   5.503   4.706 -0.6815 -1.2468 -0.2487
  160SAPE  C21217843   2.495   5.567   4.801 -0.4744  0.4643  0.4854
  160SAPE  H12R17844   2.537   5.550   4.901  0.4552 -2.4702 -0.3071
  160SAPE  C21317845   2.353   5.620   4.810 -0.7779 -0.1255  0.7069
  160SAPE  H13R17846   2.341   5.700   4.734  1.6603  1.1804  1.5998
  160SAPE  H13S17847   2.355   5.675   4.907 -1.8180 -0.9906  1.2442
  160SAPE  C21417848   2.247   5.515   4.793  0.3055  0.4012  0.1021
  160SAPE  H14R17849   2.274   5.418   4.750  0.3044  0.9153 -1.0834
  160SAPE  C21517850   2.114   5.543   4.825  0.1749  0.8811  0.5298
  160SAPE  H15R17851   2.050   5.454   4.816  2.4229 -0.8073  0.4665
  160SAPE  C21617852   2.052   5.667   4.884 -0.1826 -0.0030  0.1364
  160SAPE  H16R17853   2.110   5.711   4.969 -0.4005  1.0063 -0.2245
  160SAPE  H16S17854   1.947   5.644   4.910 -1.3215  0.9727 -3.1785
  160SAPE  C21717855   2.031   5.788   4.784  0.3725  0.7456 -0.1687
  160SAPE  H17R17856   2.009   5.739   4.687  0.6737 -1.4112  0.7950
  160SAPE  H17S17857   2.120   5.854   4.771  0.0541  1.3588  0.6499
  160SAPE  C21817858   1.912   5.873   4.808  0.2191  0.3220 -0.5344
  160SAPE  H18R17859   1.821   5.814   4.786 -0.6037  1.3357  0.0520
  160SAPE  H18S17860   1.899   5.956   4.735  0.1406 -0.6175 -1.6213
  160SAPE  C21917861   1.888   5.940   4.941  0.7080 -0.5659  0.1821
  160SAPE  H19R17862   1.919   5.877   5.028  0.6832 -1.3563 -0.3694
  160SAPE  H19S17863   1.778   5.945   4.956  0.8096 -1.6377  1.6025
  160SAPE  C22017864   1.943   6.080   4.950 -0.2302 -0.1835 -0.2561
  160SAPE  H20R17865   2.039   6.090   4.894  1.2241 -1.7281  1.7819
  160SAPE  H20S17866   1.969   6.110   5.053  1.2869  0.3919 -0.7727
  160SAPE  H20T17867   1.864   6.148   4.910  0.2760  1.4174  1.3535
  160SAPE   C3317868   3.025   5.156   3.767  0.5408  0.0077  1.3222
  160SAPE   H3X17869   3.077   5.066   3.806 -0.2477 -1.7233 -1.3169
  160SAPE   H3Y17870   2.924   5.124   3.732 -0.0504  1.6008  1.4523
  160SAPE   C3417871   3.013   5.266   3.866 -0.3282  0.7769 -0.2922
  160SAPE   H4X17872   2.972   5.361   3.826  0.5364  1.7433  1.0270
  160SAPE   H4Y17873   3.113   5.287   3.911  0.3572 -2.5726  0.0138
  160SAPE   C3517874   2.915   5.229   3.976  0.3539  0.2518 -0.3747
  160SAPE   H5X17875   2.931   5.122   4.000  0.6067 -0.2100 -2.3935
  160SAPE   H5Y17876   2.810   5.239   3.942  0.2183  0.0850 -0.0090
  160SAPE   C3617877   2.946   5.305   4.110  0.0825 -0.4781 -0.4937
  160SAPE   H6X17878   2.983   5.408   4.087  0.3050 -0.2260  0.9244
  160SAPE   H6Y17879   3.026   5.239   4.149  0.0068 -0.3034 -0.0322
  160SAPE   C3717880   2.827   5.302   4.209 -0.3148  0.3486 -0.0840
  160SAPE   H7X17881   2.809   5.193   4.201  4.3656 -0.6105 -0.1511
  160SAPE   H7Y17882   2.738   5.359   4.174 -0.9993  0.7410  2.1264
  160SAPE   C3817883   2.860   5.338   4.353 -0.7227  0.1026 -0.1864
  160SAPE   H8X17884   2.951   5.277   4.372 -1.6381 -1.5111 -0.8081
  160SAPE   H8Y17885   2.792   5.305   4.434  0.6553 -1.3727  0.4272
  160SAPE   C3917886   2.891   5.488   4.375  0.2573  0.1299 -0.2557
  160SAPE   H9X17887   2.803   5.551   4.352  1.6757  2.6023  0.6997
  160SAPE   H9Y17888   2.971   5.515   4.304  0.8383 -3.4673 -1.1869
  160SAPE  C31017889   2.938   5.516   4.522  0.1564  0.6189  0.1799
  160SAPE  H10X17890   2.854   5.488   4.589  0.4864  0.5456  0.5703
  160SAPE  H10Y17891   2.955   5.626   4.532  0.1014  0.7395 -0.9057
  160SAPE  C31117892   3.062   5.456   4.577 -0.9167 -0.1890 -0.2250
  160SAPE  H11X17893   3.155   5.515   4.560 -0.4193 -1.1823 -1.0136
  160SAPE  H11Y17894   3.083   5.356   4.533 -0.3170 -0.1519 -0.0347
  160SAPE  C31217895   3.055   5.443   4.730  0.3764 -0.3298 -0.1069
  160SAPE  H12X17896   2.983   5.521   4.761  1.3361  0.8178 -0.6711
  160SAPE  H12Y17897   3.156   5.463   4.773  0.8759 -1.6133 -0.6334
  160SAPE  C31317898   3.001   5.302   4.778  0.4715 -0.1840  0.2699
  160SAPE  H13X17899   3.066   5.217   4.749  0.0160  0.2153 -2.2385
  160SAPE  H13Y17900   2.899   5.284   4.736  0.9246 -1.3185 -0.3737
  160SAPE  C31417901   2.982   5.298   4.925  0.9291 -0.1962  0.2276
  160SAPE  H14X17902   3.076   5.326   4.978 -0.0707 -0.5112  2.2906
  160SAPE  H14Y17903   2.952   5.194   4.951 -0.1287  0.4366  1.6846
  160SAPE  C31517904   2.865   5.377   4.978 -0.0601  0.4133  0.3256
  160SAPE  H15X17905   2.780   5.339   4.916  0.6380 -1.6330  0.5389
  160SAPE  H15Y17906   2.884   5.483   4.951  0.4924 -0.2146 -2.0382
  160SAPE  C31617907   2.848   5.376   5.126 -0.2926  0.7071 -0.4973
  160SAPE  H16X17908   2.868   5.278   5.174 -0.4213  0.6369 -0.5883
  160SAPE  H16Y17909   2.744   5.404   5.152 -0.0740 -0.0221  1.2899
  160SAPE  C31717910   2.939   5.485   5.183 -0.3632  0.6443 -0.2171
  160SAPE  H17X17911   2.898   5.586   5.165 -0.3617  0.9270  1.1866
  160SAPE  H17Y17912   3.043   5.475   5.147 -0.3119 -1.8663  0.4059
  160SAPE  C31817913   2.937   5.486   5.340 -0.0062 -0.1086 -0.7774
  160SAPE  H18X17914   2.978   5.395   5.390  0.6032  1.5042  1.8337
  160SAPE  H18Y17915   2.842   5.500   5.395  1.2369  0.5627  1.2944
  160SAPE  H18Z17916   3.004   5.570   5.371  1.4842 -0.9672 -1.5233
  161SAPE     N17917   1.660   0.572   3.466 -0.0778  0.0602  0.2788
  161SAPE   HN117918   1.627   0.659   3.420 -0.5242 -0.6598 -0.8138
  161SAPE   HN217919   1.693   0.591   3.563 -0.3717 -3.2889  1.1611
  161SAPE   HN317920   1.742   0.535   3.415 -0.3110  0.6519 -0.5390
  161SAPE   C1217921   1.553   0.462   3.446  0.1155 -0.4617 -0.0050
  161SAPE  H12A17922   1.498   0.443   3.541 -0.4439 -3.1797 -0.8081
  161SAPE  H12B17923   1.610   0.371   3.418 -0.1336 -0.7623  0.4540
  161SAPE   C1117924   1.463   0.506   3.337  0.3140 -0.0004  0.2603
  161SAPE  H11A17925   1.405   0.415   3.311  2.1678 -1.2741  0.3913
  161SAPE  H11B17926   1.510   0.521   3.237  0.9762 -1.1468  0.3826
  161SAPE     P17927   1.229   0.624   3.394  0.1274 -0.0884 -0.2109
  161SAPE   O1317928   1.166   0.593   3.266  0.1292  0.5902  0.5628
  161SAPE   O1417929   1.192   0.542   3.510 -0.2602 -0.5909  0.4952
  161SAPE   O1217930   1.390   0.627   3.376 -0.2980  0.5096  0.0002
  161SAPE   O1117931   1.196   0.767   3.441  0.2004  0.0326  0.4802
  161SAPE    C117932   1.297   0.860   3.491 -0.8652 -0.8704 -0.4683
  161SAPE    HA17933   1.397   0.848   3.445 -0.3353 -1.6404  0.8413
  161SAPE    HB17934   1.258   0.963   3.480  0.1938 -0.0906  2.3253
  161SAPE    C217935   1.328   0.847   3.647 -0.5400  0.4618  0.4995
  161SAPE    HS17936   1.368   0.745   3.668 -0.9637  0.3598  0.8196
  161SAPE   O2117937   1.203   0.871   3.708 -0.2061  0.1143  0.1306
  161SAPE   C2117938   1.162   0.792   3.795  0.0755  0.6270  0.3168
  161SAPE   O2217939   1.209   0.687   3.835  0.2834  0.9563  0.0609
  161SAPE   C2217940   1.033   0.854   3.841 -0.3555 -0.2407  0.9014
  161SAPE   H2R17941   1.065   0.956   3.872  0.6283  0.2632 -1.5368
  161SAPE   H2S17942   0.977   0.869   3.746  0.8171 -1.0805  0.0572
  161SAPE    C317943   1.428   0.952   3.693  0.5559  0.7747  0.0692
  161SAPE    HX17944   1.395   1.049   3.653  1.4554  1.1754  0.2659
  161SAPE    HY17945   1.525   0.920   3.650 -1.4655 -2.2608 -2.7103
  161SAPE   O3117946   1.411   0.972   3.835  0.1736  0.3498  0.8552
  161SAPE   C3117947   1.484   0.894   3.912  0.0419  0.3128  0.1752
  161SAPE   O3217948   1.578   0.823   3.878  0.4078  0.1008  0.2348
  161SAPE   C3217949   1.427   0.906   4.052  0.0017 -0.4620  0.2050
  161SAPE   H2X17950   1.317   0.897   4.057 -0.0275 -0.0021  0.5271
  161SAPE   H2Y17951   1.442   1.010   4.090 -2.4163  0.5368 -1.3222
  161SAPE   C2317952   0.955   0.781   3.951  0.3952  0.1414 -0.1772
  161SAPE   H3R17953   1.004   0.789   4.050 -2.3536 -1.7404  1.4584
  161SAPE   H3S17954   0.957   0.670   3.937  0.3766 -0.0760  1.3696
  161SAPE   C2417955   0.809   0.811   3.977 -0.1250  0.0990  0.4267
  161SAPE   H4R17956   0.753   0.733   4.034 -0.3965 -0.2183 -0.2631
  161SAPE   H4S17957   0.772   0.803   3.873 -0.1698 -1.2610  0.5257
  161SAPE   C2517958   0.795   0.951   4.036  0.1995 -0.6116  0.5450
  161SAPE   H5R17959   0.771   1.032   3.965  1.3669  1.0323  1.9358
  161SAPE   C2617960   0.802   0.982   4.167  0.4990  0.4812 -0.9861
  161SAPE   H6R17961   0.799   1.087   4.200 -1.5081 -0.1587  1.0902
  161SAPE   C2717962   0.829   0.889   4.279 -0.1460  0.3869 -0.5575
  161SAPE   H7R17963   0.826   0.784   4.243  1.4108  0.7973 -2.0084
  161SAPE   H7S17964   0.736   0.897   4.339  0.2327 -0.0109  0.0950
  161SAPE   C2817965   0.945   0.917   4.368 -0.2820 -0.5438 -0.6014
  161SAPE   H8R17966   1.045   0.906   4.325  0.3877  0.5852  0.5947
  161SAPE   C2917967   0.945   0.937   4.502 -0.1710  0.1440  1.1704
  161SAPE   H9R17968   1.042   0.949   4.554  0.3525  1.7115 -0.1246
  161SAPE  C21017969   0.827   0.934   4.602 -0.5334  0.3897 -0.2527
  161SAPE  H10R17970   0.808   0.836   4.650 -3.1003  2.2347  2.9466
  161SAPE  H10S17971   0.730   0.952   4.551 -0.0295  0.9412 -1.0481
  161SAPE  C21117972   0.841   1.040   4.712  1.0117 -0.2519  1.1914
  161SAPE  H11R17973   0.787   1.130   4.679  0.1217 -0.8111  1.0832
  161SAPE  C21217974   0.908   1.042   4.826 -0.3570 -0.2010 -0.7742
  161SAPE  H12R17975   0.927   1.133   4.886  2.2027 -0.2646 -1.3735
  161SAPE  C21317976   1.001   0.923   4.866 -0.0586 -0.1483  0.7131
  161SAPE  H13R17977   1.104   0.961   4.851 -1.5462  4.5913  0.5289
  161SAPE  H13S17978   0.982   0.833   4.803 -1.6259 -0.5717  1.7275
  161SAPE  C21417979   0.963   0.879   5.008 -0.0116  0.5517 -0.2318
  161SAPE  H14R17980   0.874   0.815   5.015 -0.5522  1.4859  2.3388
  161SAPE  C21517981   1.028   0.896   5.124  0.6618 -0.3136 -0.1535
  161SAPE  H15R17982   0.986   0.865   5.221 -0.7998  2.4489  0.1941
  161SAPE  C21617983   1.152   0.971   5.142  0.4731 -0.4526 -0.3601
  161SAPE  H16R17984   1.149   1.044   5.226  0.3669 -0.3009 -0.4957
  161SAPE  H16S17985   1.185   1.022   5.049  1.2246 -0.5514 -0.1557
  161SAPE  C21717986   1.257   0.857   5.176  0.2538 -1.1243  0.2683
  161SAPE  H17R17987   1.238   0.800   5.269 -0.6369  1.3762  1.7068
  161SAPE  H17S17988   1.352   0.913   5.188 -0.0483 -0.1317 -1.5189
  161SAPE  C21817989   1.299   0.758   5.060  0.5831 -0.1525  1.0150
  161SAPE  H18R17990   1.281   0.807   4.962  0.2188 -0.7183  0.7974
  161SAPE  H18S17991   1.230   0.672   5.049  0.7220 -0.0065 -1.5401
  161SAPE  C21917992   1.451   0.711   5.051  0.4683 -0.6396 -0.3809
  161SAPE  H19R17993   1.479   0.684   5.155  1.6799 -0.7669 -0.7238
  161SAPE  H19S17994   1.502   0.803   5.016  2.3364 -0.6030  2.1525
  161SAPE  C22017995   1.485   0.595   4.961  1.0896 -0.2989 -0.3439
  161SAPE  H20R17996   1.590   0.577   4.932  0.9481 -0.1748 -0.9457
  161SAPE  H20S17997   1.408   0.592   4.880 -3.2008  0.4771  3.3052
  161SAPE  H20T17998   1.450   0.506   5.018 -0.1757 -0.5810 -1.4969
  161SAPE   C3317999   1.468   0.803   4.154 -0.6024  0.4718 -0.1000
  161SAPE   H3X18000   1.577   0.783   4.149 -0.9025 -1.2608 -0.5741
  161SAPE   H3Y18001   1.411   0.709   4.137  1.0903 -0.4495 -1.0294
  161SAPE   C3418002   1.443   0.855   4.303 -0.7325  0.3047 -0.1439
  161SAPE   H4X18003   1.337   0.889   4.312 -0.4985  0.6328  1.9285
  161SAPE   H4Y18004   1.516   0.937   4.322  0.7120 -0.9634 -0.0766
  161SAPE   C3518005   1.472   0.746   4.414  0.1871 -0.8606  0.4024
  161SAPE   H5X18006   1.581   0.722   4.416  0.4904  0.4472  2.0880
  161SAPE   H5Y18007   1.419   0.655   4.381  0.0766 -0.1696 -1.4367
  161SAPE   C3618008   1.433   0.790   4.552  0.6210  0.4554 -0.7250
  161SAPE   H6X18009   1.493   0.725   4.620 -0.5306 -0.1665 -0.2789
  161SAPE   H6Y18010   1.325   0.772   4.567  0.5169  0.0163 -1.9618
  161SAPE   C3718011   1.483   0.930   4.586 -0.2116 -0.9407  1.6140
  161SAPE   H7X18012   1.433   1.007   4.524  2.4451  0.0264  0.4941
  161SAPE   H7Y18013   1.594   0.928   4.572 -0.3070 -4.5084  0.2765
  161SAPE   C3818014   1.455   0.969   4.733  0.0367 -0.4390  0.0710
  161SAPE   H8X18015   1.519   0.915   4.807 -1.8599 -1.6845  0.8657
  161SAPE   H8Y18016   1.349   0.948   4.758  0.4654 -0.4353  2.0757
  161SAPE   C3918017   1.482   1.119   4.742 -0.5339  0.0764  1.0500
  161SAPE   H9X18018   1.436   1.165   4.653  0.5782 -0.4308  0.1915
  161SAPE   H9Y18019   1.593   1.124   4.737 -0.4831 -1.5158 -0.2332
  161SAPE  C31018020   1.435   1.175   4.876 -0.3525  0.3071 -0.2912
  161SAPE  H10X18021   1.368   1.104   4.928 -2.6782  2.6576  0.1378
  161SAPE  H10Y18022   1.380   1.270   4.858  0.4600  0.5442 -1.7231
  161SAPE  C31118023   1.553   1.215   4.977  0.2329 -0.2199 -0.1265
  161SAPE  H11X18024   1.618   1.294   4.933  1.7106  0.2574  2.6849
  161SAPE  H11Y18025   1.618   1.126   4.989 -1.2082 -1.0182  2.2720
  161SAPE  C31218026   1.496   1.252   5.123  0.5560  0.0978 -0.2459
  161SAPE  H12X18027   1.422   1.174   5.151  2.5886 -2.0589 -0.4737
  161SAPE  H12Y18028   1.445   1.350   5.120  1.1363  0.4019 -0.4935
  161SAPE  C31318029   1.607   1.265   5.229 -0.3581 -0.4619  0.1686
  161SAPE  H13X18030   1.675   1.345   5.194  1.0502 -1.5634  0.2799
  161SAPE  H13Y18031   1.671   1.177   5.207 -2.1584 -1.3324 -2.0041
  161SAPE  C31418032   1.556   1.285   5.375  0.6387 -0.6593  0.5968
  161SAPE  H14X18033   1.538   1.192   5.433 -2.2782  1.1130  2.7737
  161SAPE  H14Y18034   1.458   1.332   5.349  1.5816  0.7784 -0.5415
  161SAPE  C31518035   1.645   1.374   5.456 -0.3637  0.4937 -0.0468
  161SAPE  H15X18036   1.749   1.336   5.461 -0.0416  1.5313  1.7867
  161SAPE  H15Y18037   1.602   1.370   5.558 -0.8735 -0.2324 -0.2788
  161SAPE  C31618038   1.661   1.515   5.400  0.0398 -0.4759 -0.1086
  161SAPE  H16X18039   1.563   1.538   5.353  0.8796 -1.4162 -2.4825
  161SAPE  H16Y18040   1.737   1.503   5.320 -0.5025 -0.3691 -0.6472
  161SAPE  C31718041   1.698   1.621   5.501  0.4419  0.0930  0.7003
  161SAPE  H17X18042   1.786   1.587   5.561  0.3316  0.8624  1.3131
  161SAPE  H17Y18043   1.607   1.623   5.565 -2.2834 -1.5730 -2.7472
  161SAPE  C31818044   1.705   1.761   5.444 -0.8275  0.0868 -0.4163
  161SAPE  H18X18045   1.735   1.834   5.522  1.8438 -1.7836  0.4750
  161SAPE  H18Y18046   1.604   1.795   5.413 -0.7018  0.2706 -0.6359
  161SAPE  H18Z18047   1.776   1.769   5.358  0.4906 -2.6600  0.3179
  162SAPE     N18048   1.039   5.362   3.274  0.3481 -0.1638 -0.6176
  162SAPE   HN118049   1.100   5.286   3.239 -0.2420 -0.2299 -1.5613
  162SAPE   HN218050   0.949   5.320   3.306  0.9726 -0.4032  0.8794
  162SAPE   HN318051   1.014   5.431   3.200 -1.9957 -0.0234  0.2235
  162SAPE   C1218052   1.114   5.423   3.389 -0.0058  0.0060 -0.1082
  162SAPE  H12A18053   1.143   5.329   3.441  0.7495 -0.9747 -2.1764
  162SAPE  H12B18054   1.048   5.478   3.460  1.4969 -0.4509  1.7254
  162SAPE   C1118055   1.234   5.503   3.334  0.2371  0.0886 -0.4052
  162SAPE  H11A18056   1.307   5.521   3.416  0.6843 -3.1509  0.0279
  162SAPE  H11B18057   1.184   5.598   3.303 -1.7688 -1.0677 -0.9012
  162SAPE     P18058   1.449   5.466   3.196 -0.0798  0.2286  0.4065
  162SAPE   O1318059   1.495   5.390   3.080 -0.0292  0.1144 -0.1599
  162SAPE   O1418060   1.464   5.613   3.191 -0.9071  0.7080 -0.5248
  162SAPE   O1218061   1.297   5.437   3.219  0.3284 -0.2258  0.1533
  162SAPE   O1118062   1.518   5.401   3.324  0.3341  0.0616  0.7539
  162SAPE    C118063   1.485   5.268   3.363  0.1374  0.3688  0.4776
  162SAPE    HA18064   1.376   5.247   3.366  0.2443 -0.7515 -1.6011
  162SAPE    HB18065   1.538   5.201   3.292 -1.6931  0.4325 -1.0244
  162SAPE    C218066   1.553   5.237   3.504  0.9383  0.3963  0.0145
  162SAPE    HS18067   1.536   5.135   3.545  1.7738  0.5373  0.7419
  162SAPE   O2118068   1.510   5.332   3.608  0.5843 -0.3219  0.5488
  162SAPE   C2118069   1.385   5.338   3.649  0.7877  0.0945 -0.6866
  162SAPE   O2218070   1.295   5.261   3.618 -0.3340  0.0851 -0.1923
  162SAPE   C2218071   1.352   5.457   3.741 -0.8090  0.1428 -0.2232
  162SAPE   H2R18072   1.447   5.503   3.773  0.5196 -2.0784 -0.7571
  162SAPE   H2S18073   1.290   5.514   3.668 -2.3830  0.1340  1.0471
  162SAPE    C318074   1.711   5.257   3.500  0.4711 -0.4168  0.3063
  162SAPE    HX18075   1.736   5.365   3.491  0.4278 -0.5296 -1.4623
  162SAPE    HY18076   1.747   5.207   3.408 -3.0954 -1.1660 -0.8629
  162SAPE   O3118077   1.766   5.206   3.620  0.2584 -0.7455  0.2305
  162SAPE   C3118078   1.769   5.073   3.614 -0.3872  1.3337 -0.5630
  162SAPE   O3218079   1.742   5.006   3.514 -0.1215  0.2626 -0.4770
  162SAPE   C3218080   1.807   5.016   3.750  0.2482  1.0059  0.1733
  162SAPE   H2X18081   1.736   5.064   3.821 -2.2056  2.5658 -3.0738
  162SAPE   H2Y18082   1.914   5.035   3.774  0.7264  0.3719 -1.3650
  162SAPE   C2318083   1.258   5.430   3.864  0.2546  0.0975  0.6099
  162SAPE   H3R18084   1.163   5.382   3.830  0.5457  0.5998 -0.9633
  162SAPE   H3S18085   1.226   5.531   3.898  1.4173  1.9416 -3.2739
  162SAPE   C2418086   1.329   5.356   3.986  0.4772  0.1127  0.2511
  162SAPE   H4R18087   1.378   5.271   3.934  1.5725 -0.6808  2.4264
  162SAPE   H4S18088   1.260   5.314   4.063 -0.0737  1.6730  0.6410
  162SAPE   C2518089   1.428   5.447   4.052 -0.1779  0.5740 -0.0748
  162SAPE   H5R18090   1.392   5.547   4.081  0.7225  0.7815  0.3416
  162SAPE   C2618091   1.567   5.424   4.071  0.7115  0.1017 -0.3645
  162SAPE   H6R18092   1.624   5.514   4.101  1.3954 -1.3177  3.0038
  162SAPE   C2718093   1.645   5.303   4.029  0.5023 -0.0343 -0.3572
  162SAPE   H7R18094   1.582   5.228   3.978 -0.1393 -0.9646  1.6979
  162SAPE   H7S18095   1.680   5.250   4.121  0.7786 -1.3865 -1.2161
  162SAPE   C2818096   1.758   5.332   3.936 -0.3310 -0.2408  0.0748
  162SAPE   H8R18097   1.737   5.386   3.842  0.6713 -1.3238 -0.8058
  162SAPE   C2918098   1.887   5.322   3.974 -0.4578 -0.2568 -0.1150
  162SAPE   H9R18099   1.967   5.356   3.907  0.9575 -0.5699  1.3552
  162SAPE  C21018100   1.953   5.274   4.097 -0.0895 -0.2772 -0.6877
  162SAPE  H10R18101   1.879   5.247   4.176 -0.0280 -0.3600 -0.6575
  162SAPE  H10S18102   2.025   5.347   4.140  1.2750 -1.5103 -0.8067
  162SAPE  C21118103   2.044   5.158   4.078 -0.3696  1.0903  0.5278
  162SAPE  H11R18104   2.092   5.151   3.980 -0.3540  0.6235  0.5669
  162SAPE  C21218105   2.108   5.103   4.179 -0.7528 -0.2194 -0.3302
  162SAPE  H12R18106   2.182   5.025   4.155  0.5598  0.2805  1.8351
  162SAPE  C21318107   2.082   5.132   4.327  0.2126  0.2447  0.3069
  162SAPE  H13R18108   2.003   5.209   4.339  0.9486  0.8478  1.4335
  162SAPE  H13S18109   2.178   5.180   4.356 -0.0496  0.3055  1.1066
  162SAPE  C21418110   2.049   5.010   4.414  0.4074  0.2024  0.4899
  162SAPE  H14R18111   1.995   4.923   4.371  1.8547 -0.9083  0.8482
  162SAPE  C21518112   2.066   5.013   4.550  0.5220 -0.4852  0.3751
  162SAPE  H15R18113   2.039   4.928   4.614  0.7080 -1.0141 -0.2390
  162SAPE  C21618114   2.141   5.123   4.619  0.1156  0.6316 -0.6567
  162SAPE  H16R18115   2.078   5.213   4.633  1.5506  1.6885 -0.7780
  162SAPE  H16S18116   2.236   5.150   4.568 -0.3873  0.2722 -1.8201
  162SAPE  C21718117   2.181   5.074   4.758  0.7373 -0.4239 -0.5121
  162SAPE  H17R18118   2.243   5.145   4.816  1.2937 -0.3596 -1.1866
  162SAPE  H17S18119   2.236   4.978   4.754  0.7690 -0.4001 -0.6283
  162SAPE  C21818120   2.052   5.074   4.849  0.0590  0.4068  0.0996
  162SAPE  H18R18121   1.965   5.040   4.789 -0.1678 -3.0076  2.1092
  162SAPE  H18S18122   2.035   5.178   4.884 -1.0285 -0.5057  2.4915
  162SAPE  C21918123   2.050   4.972   4.967 -0.8778 -0.5873 -0.1944
  162SAPE  H19R18124   2.068   4.869   4.932  0.6822  0.2782 -2.1189
  162SAPE  H19S18125   1.951   4.972   5.017 -1.2850 -0.8060 -0.9825
  162SAPE  C22018126   2.158   5.003   5.079 -0.0096  0.2791 -0.1205
  162SAPE  H20R18127   2.129   5.098   5.128 -0.3802 -0.1650  0.5372
  162SAPE  H20S18128   2.258   5.024   5.035  0.4417  0.6489  1.0555
  162SAPE  H20T18129   2.167   4.920   5.152  2.8412  0.0991 -0.5963
  162SAPE   C3318130   1.808   4.862   3.769 -0.0107 -0.3924  0.9279
  162SAPE   H3X18131   1.875   4.815   3.694  1.2391  3.5983 -0.7369
  162SAPE   H3Y18132   1.711   4.810   3.753  0.5824 -0.9781 -1.0765
  162SAPE   C3418133   1.854   4.837   3.917  0.8072 -0.6650 -0.0858
  162SAPE   H4X18134   1.924   4.906   3.969 -0.2575 -0.0046  0.5075
  162SAPE   H4Y18135   1.905   4.738   3.916  0.9385 -0.6076 -1.3685
  162SAPE   C3518136   1.737   4.831   4.016  1.1818  0.2426 -0.3326
  162SAPE   H5X18137   1.666   4.750   3.989 -0.8873  1.9298 -0.2045
  162SAPE   H5Y18138   1.683   4.929   4.019  0.7046 -0.0435  0.9937
  162SAPE   C3618139   1.779   4.799   4.159 -0.3499 -1.1359  0.1788
  162SAPE   H6X18140   1.856   4.872   4.191  1.2810 -1.8786 -1.8297
  162SAPE   H6Y18141   1.831   4.702   4.149  1.9466  0.1608 -1.3111
  162SAPE   C3718142   1.665   4.783   4.258 -0.2663  0.4338  0.0953
  162SAPE   H7X18143   1.610   4.691   4.231  1.4555 -1.0905  1.5701
  162SAPE   H7Y18144   1.610   4.878   4.273 -0.4351  0.5723 -1.2565
  162SAPE   C3818145   1.709   4.752   4.404  0.2642 -0.1014  0.0435
  162SAPE   H8X18146   1.721   4.854   4.445 -0.1088 -0.3528  0.7974
  162SAPE   H8Y18147   1.804   4.695   4.412  0.8731  1.0373  1.3891
  162SAPE   C3918148   1.613   4.668   4.490  0.2624 -0.4642 -0.1763
  162SAPE   H9X18149   1.604   4.567   4.446  3.1048 -1.5076  1.3856
  162SAPE   H9Y18150   1.520   4.728   4.479  2.2991  3.2952  1.0372
  162SAPE  C31018151   1.643   4.654   4.635  0.5325  0.1720 -0.0569
  162SAPE  H10X18152   1.664   4.754   4.679 -0.6839  0.8490 -0.9794
  162SAPE  H10Y18153   1.733   4.590   4.651  1.1563  1.2056  0.7107
  162SAPE  C31118154   1.535   4.600   4.727 -0.1488  0.7104 -0.4364
  162SAPE  H11X18155   1.497   4.504   4.687 -0.8329  0.1128  1.5009
  162SAPE  H11Y18156   1.450   4.671   4.729  0.3624  1.4651 -2.6833
  162SAPE  C31218157   1.596   4.572   4.868 -0.0162  0.1719  0.0399
  162SAPE  H12X18158   1.636   4.662   4.919 -0.4558  0.4226 -0.0604
  162SAPE  H12Y18159   1.681   4.500   4.858  1.3356  1.4724  1.5989
  162SAPE  C31318160   1.495   4.518   4.963 -0.0834 -0.0494 -0.1242
  162SAPE  H13X18161   1.439   4.426   4.937 -0.0062  0.3124 -1.6428
  162SAPE  H13Y18162   1.416   4.597   4.965 -0.3066 -0.2838  1.4332
  162SAPE  C31418163   1.556   4.498   5.103 -0.0343 -0.4872  0.3089
  162SAPE  H14X18164   1.467   4.498   5.169  0.2956 -0.1272  0.7639
  162SAPE  H14Y18165   1.612   4.592   5.123 -1.3907  0.7309 -1.3266
  162SAPE  C31518166   1.639   4.370   5.117  0.1973  0.3065 -0.2575
  162SAPE  H15X18167   1.666   4.384   5.224 -0.3670 -1.5050  0.1473
  162SAPE  H15Y18168   1.731   4.362   5.057  0.6679 -0.6870  0.5715
  162SAPE  C31618169   1.553   4.241   5.103 -0.4830  0.0731 -0.7852
  162SAPE  H16X18170   1.619   4.152   5.113 -0.6001  0.1381  0.8796
  162SAPE  H16Y18171   1.515   4.234   4.999  0.3196 -2.5160 -0.9882
  162SAPE  C31718172   1.435   4.219   5.214 -0.7271  0.9378  0.1607
  162SAPE  H17X18173   1.381   4.127   5.184 -0.3537  0.6861  0.2617
  162SAPE  H17Y18174   1.357   4.295   5.189 -0.8208  0.5706 -0.7027
  162SAPE  C31818175   1.460   4.207   5.364  0.1336 -0.2918  0.0727
  162SAPE  H18X18176   1.520   4.116   5.384  0.1799  0.0993  1.8736
  162SAPE  H18Y18177   1.370   4.204   5.429  3.3148 -0.9220  4.8841
  162SAPE  H18Z18178   1.524   4.292   5.394  0.1727  0.8826 -2.9086
  163SAPE     N18179   2.031   1.814   3.516  0.5187 -0.4473  0.3279
  163SAPE   HN118180   1.989   1.721   3.533  0.7958 -1.1107 -2.2363
  163SAPE   HN218181   2.001   1.841   3.420  0.6486 -1.3821  0.0192
  163SAPE   HN318182   2.134   1.800   3.520  0.7839  0.6905 -1.4391
  163SAPE   C1218183   1.978   1.922   3.620  0.0072  0.5574 -0.2631
  163SAPE  H12A18184   2.008   1.876   3.716  0.5667  1.0109 -0.2136
  163SAPE  H12B18185   1.867   1.916   3.623  0.0841 -0.6189  2.1696
  163SAPE   C1118186   2.044   2.049   3.617 -0.5556 -0.6286 -0.0598
  163SAPE  H11A18187   2.155   2.043   3.627 -0.4730 -0.6567 -0.9448
  163SAPE  H11B18188   2.006   2.106   3.704  0.3958 -0.7107  0.4236
  163SAPE     P18189   1.916   2.219   3.451 -0.1940 -0.0525  0.0850
  163SAPE   O1318190   1.911   2.231   3.305  0.0497 -0.6245  0.2647
  163SAPE   O1418191   1.787   2.185   3.517  0.6841  0.2486 -0.4476
  163SAPE   O1218192   2.030   2.114   3.491  0.3628  0.1537  0.2966
  163SAPE   O1118193   1.969   2.357   3.511  0.7005 -0.2101 -0.3523
  163SAPE    C118194   1.885   2.461   3.553 -0.5340 -0.1004 -0.0389
  163SAPE    HA18195   1.817   2.490   3.470  0.3001 -0.6360 -0.9342
  163SAPE    HB18196   1.823   2.428   3.639 -0.6963 -2.0193 -0.8500
  163SAPE    C218197   1.969   2.582   3.615 -0.2758 -0.0634  0.3863
  163SAPE    HS18198   2.047   2.614   3.542  2.5209 -1.4925  2.5660
  163SAPE   O2118199   2.028   2.531   3.737  0.0117  0.5552 -0.6164
  163SAPE   C2118200   2.113   2.615   3.802  0.7639  0.2983 -0.5069
  163SAPE   O2218201   2.126   2.733   3.771  0.1087  0.8691 -0.1443
  163SAPE   C2218202   2.180   2.557   3.922 -0.2647 -0.5716 -0.7352
  163SAPE   H2R18203   2.259   2.485   3.891 -2.5224 -3.6273  0.0971
  163SAPE   H2S18204   2.229   2.637   3.981 -1.2967  0.9281 -1.8281
  163SAPE    C318205   1.868   2.696   3.644  0.0141 -0.4727 -0.7076
  163SAPE    HX18206   1.821   2.718   3.546  1.8185  2.8085 -0.9641
  163SAPE    HY18207   1.918   2.792   3.670  0.3675 -0.9519  0.4204
  163SAPE   O3118208   1.771   2.652   3.741 -0.0800 -0.0221 -0.1146
  163SAPE   C3118209   1.651   2.711   3.761 -0.3574 -0.3515  0.1937
  163SAPE   O3218210   1.618   2.812   3.705 -0.5148 -0.0291  0.0778
  163SAPE   C3218211   1.563   2.643   3.870 -0.1494  0.0828  0.4818
  163SAPE   H2X18212   1.637   2.612   3.948  1.1610 -2.5035 -1.6206
  163SAPE   H2Y18213   1.515   2.553   3.827 -0.6382  0.5904 -0.0454
  163SAPE   C2318214   2.082   2.479   4.011  0.9854 -0.1397 -0.1089
  163SAPE   H3R18215   2.013   2.421   3.946  1.0064 -1.9953  1.4376
  163SAPE   H3S18216   2.012   2.546   4.064 -0.5538 -1.9824  0.2783
  163SAPE   C2418217   2.159   2.381   4.099  0.5748  0.1320  0.5594
  163SAPE   H4R18218   2.243   2.429   4.153 -1.2088  2.0759  1.7710
  163SAPE   H4S18219   2.201   2.308   4.028 -0.7585  0.7685 -0.9395
  163SAPE   C2518220   2.070   2.296   4.190 -0.3373 -0.1246  0.7098
  163SAPE   H5R18221   2.034   2.206   4.139  1.8998  0.4718 -2.1836
  163SAPE   C2618222   2.033   2.317   4.317 -0.5739  0.8114 -0.9247
  163SAPE   H6R18223   1.979   2.236   4.368  1.1001  0.7013  0.8436
  163SAPE   C2718224   2.071   2.436   4.407 -0.0219  0.1164  0.0431
  163SAPE   H7R18225   2.007   2.414   4.495 -0.0242  0.7381  0.2069
  163SAPE   H7S18226   2.046   2.533   4.358  0.9114 -0.2409 -1.1735
  163SAPE   C2818227   2.215   2.452   4.454 -0.3430  0.4833 -0.4931
  163SAPE   H8R18228   2.285   2.452   4.370 -0.5365 -3.0955 -0.8205
  163SAPE   C2918229   2.272   2.469   4.576  1.2830 -0.1324 -0.1803
  163SAPE   H9R18230   2.381   2.482   4.583  1.5336 -1.3042 -1.4332
  163SAPE  C21018231   2.190   2.468   4.704 -0.5640  0.6011 -0.0942
  163SAPE  H10R18232   2.092   2.416   4.698  0.8524 -2.2303 -0.3296
  163SAPE  H10S18233   2.167   2.575   4.722 -0.1307  0.5459  0.8514
  163SAPE  C21118234   2.267   2.410   4.823  0.9282  0.2410  0.5888
  163SAPE  H11R18235   2.281   2.301   4.819  1.4651  0.3367 -1.8622
  163SAPE  C21218236   2.301   2.474   4.928 -0.6233  0.0999 -0.0155
  163SAPE  H12R18237   2.374   2.435   5.000  0.5424  3.1212  0.5744
  163SAPE  C21318238   2.284   2.622   4.954  0.7397  0.4530 -0.0366
  163SAPE  H13R18239   2.241   2.674   4.866 -3.4650 -1.9398  0.3143
  163SAPE  H13S18240   2.377   2.679   4.974  0.9718 -0.0695  0.3825
  163SAPE  C21418241   2.190   2.639   5.072 -0.0753 -0.0899 -0.7868
  163SAPE  H14R18242   2.111   2.562   5.080 -3.1797  2.9065 -0.3889
  163SAPE  C21518243   2.206   2.717   5.182  0.3680  0.2697 -0.7352
  163SAPE  H15R18244   2.140   2.706   5.269  3.5852  0.8815  2.0066
  163SAPE  C21618245   2.318   2.820   5.194  0.1827 -0.0060 -0.0873
  163SAPE  H16R18246   2.373   2.837   5.099 -1.8571  1.0411 -1.1404
  163SAPE  H16S18247   2.389   2.798   5.276 -1.9234  1.7200  2.3536
  163SAPE  C21718248   2.244   2.950   5.235  0.2065 -0.9666  0.3795
  163SAPE  H17R18249   2.329   3.022   5.235  0.0010 -0.6342 -2.1417
  163SAPE  H17S18250   2.198   2.928   5.334 -2.1379  2.0140  0.1030
  163SAPE  C21818251   2.139   3.028   5.144  0.0112 -0.0614 -0.1346
  163SAPE  H18R18252   2.115   3.123   5.196 -0.8952 -1.2942  1.8369
  163SAPE  H18S18253   2.047   2.967   5.133  0.6566 -0.8711 -1.2136
  163SAPE  C21918254   2.183   3.054   4.996 -0.3349  0.1495 -0.2124
  163SAPE  H19R18255   2.232   2.964   4.953  0.6946  1.0223 -0.9137
  163SAPE  H19S18256   2.265   3.129   5.000  1.4933 -1.7756  0.2847
  163SAPE  C22018257   2.069   3.102   4.903  0.0721 -0.7245 -0.2162
  163SAPE  H20R18258   2.099   3.087   4.798 -2.8719 -1.4901 -1.0356
  163SAPE  H20S18259   2.046   3.210   4.918  1.1618 -0.4153 -0.6983
  163SAPE  H20T18260   1.982   3.034   4.914  0.2222 -0.9812 -0.6030
  163SAPE   C3318261   1.450   2.737   3.923 -0.0302 -0.2705  0.0357
  163SAPE   H3X18262   1.370   2.743   3.847 -0.3466 -3.3760 -0.0118
  163SAPE   H3Y18263   1.497   2.838   3.932  1.1771 -0.9442  1.8738
  163SAPE   C3418264   1.395   2.714   4.060  0.3428  0.4797  0.2569
  163SAPE   H4X18265   1.365   2.607   4.060  0.3936  0.3791 -2.5661
  163SAPE   H4Y18266   1.311   2.785   4.076 -0.0309  0.5946 -1.8226
  163SAPE   C3518267   1.506   2.737   4.163  0.0252  0.1657  0.1896
  163SAPE   H5X18268   1.530   2.846   4.159 -0.2183  0.1935 -0.7800
  163SAPE   H5Y18269   1.600   2.685   4.137 -0.8927 -2.2709  1.4440
  163SAPE   C3618270   1.463   2.692   4.303  0.3418 -0.3267  0.2472
  163SAPE   H6X18271   1.534   2.614   4.337 -1.2591 -0.5136  3.4770
  163SAPE   H6Y18272   1.365   2.640   4.299  0.8769 -1.4448  1.2899
  163SAPE   C3718273   1.454   2.796   4.418 -0.2504 -0.5876  0.4204
  163SAPE   H7X18274   1.364   2.861   4.408  0.6023  0.4013 -1.1236
  163SAPE   H7Y18275   1.544   2.860   4.411 -0.4490 -0.4908 -3.0605
  163SAPE   C3818276   1.443   2.729   4.560  0.3437  0.3978 -0.4327
  163SAPE   H8X18277   1.530   2.661   4.575  1.1841  1.4387 -0.4600
  163SAPE   H8Y18278   1.355   2.661   4.567  0.7090  0.0808  1.6286
  163SAPE   C3918279   1.456   2.832   4.675  0.4968  0.2759 -0.2719
  163SAPE   H9X18280   1.540   2.903   4.658  0.2995  0.5845  0.0218
  163SAPE   H9Y18281   1.466   2.777   4.771 -0.6079  1.2356  0.4320
  163SAPE  C31018282   1.332   2.931   4.683 -0.5467  0.3932 -0.0180
  163SAPE  H10X18283   1.245   2.862   4.677  1.1361 -1.8483  0.2277
  163SAPE  H10Y18284   1.339   3.001   4.597  0.6096 -1.1158 -1.2151
  163SAPE  C31118285   1.321   3.013   4.806  0.1145  0.9186  0.0232
  163SAPE  H11X18286   1.416   3.066   4.830 -0.4816  2.2420 -0.4270
  163SAPE  H11Y18287   1.290   2.944   4.887  0.7457  0.2681 -0.2744
  163SAPE  C31218288   1.210   3.110   4.798  0.6167 -0.0637  0.9387
  163SAPE  H12X18289   1.117   3.055   4.773  0.2781  1.1852 -0.7624
  163SAPE  H12Y18290   1.231   3.191   4.725 -0.2378 -0.7578 -0.1080
  163SAPE  C31318291   1.185   3.177   4.928  0.1582 -0.5685 -0.0167
  163SAPE  H13X18292   1.118   3.104   4.978 -1.9348  0.9104 -0.5256
  163SAPE  H13Y18293   1.110   3.258   4.916 -0.4617 -1.1958 -0.4057
  163SAPE  C31418294   1.307   3.225   5.015  0.5341  0.2275 -0.3118
  163SAPE  H14X18295   1.370   3.289   4.948  0.7021  1.3545  0.8813
  163SAPE  H14Y18296   1.356   3.131   5.047 -2.2361 -2.2574 -2.7614
  163SAPE  C31518297   1.259   3.296   5.142 -0.6229  0.0106 -0.3717
  163SAPE  H15X18298   1.219   3.222   5.215 -0.6210  0.2023 -0.1759
  163SAPE  H15Y18299   1.194   3.381   5.114  1.0381  2.5084  2.6479
  163SAPE  C31618300   1.379   3.365   5.207 -0.0929  0.2068 -0.1340
  163SAPE  H16X18301   1.428   3.420   5.123 -0.6399  0.6224 -0.1873
  163SAPE  H16Y18302   1.449   3.289   5.247 -1.6683 -1.7346 -0.8768
  163SAPE  C31718303   1.362   3.475   5.321  0.0434  0.2494 -0.2441
  163SAPE  H17X18304   1.468   3.491   5.353 -0.5479  4.4056  0.2913
  163SAPE  H17Y18305   1.308   3.450   5.415  0.9566  1.8553  0.7712
  163SAPE  C31818306   1.325   3.611   5.264  0.3743 -0.3251  0.3743
  163SAPE  H18X18307   1.256   3.609   5.178 -1.0878  4.1812  1.1898
  163SAPE  H18Y18308   1.417   3.658   5.224 -1.3380  3.3967  0.3551
  163SAPE  H18Z18309   1.276   3.678   5.338 -0.7517  1.0372 -1.5100
  164SAPE     N18310   3.241   0.418   3.023  0.0680  0.4583  0.2017
  164SAPE   HN118311   3.333   0.418   2.973  0.0212  0.3321  0.1137
  164SAPE   HN218312   3.259   0.346   3.096 -0.4693 -2.9692 -2.7466
  164SAPE   HN318313   3.158   0.391   2.966 -2.0746  3.0127  1.9018
  164SAPE   C1218314   3.220   0.556   3.078  0.9528  0.2710  0.3645
  164SAPE  H12A18315   3.238   0.619   2.988  0.9304  0.8350  0.7528
  164SAPE  H12B18316   3.298   0.576   3.155  1.4460 -1.9794  0.5406
  164SAPE   C1118317   3.077   0.561   3.135 -0.4150  0.3706  0.3789
  164SAPE  H11A18318   3.002   0.553   3.054  2.6265  1.8380 -2.8699
  164SAPE  H11B18319   3.063   0.662   3.179  0.1811 -0.5163  2.7539
  164SAPE     P18320   2.939   0.357   3.254 -0.1138  0.5767  0.4956
  164SAPE   O1318321   2.911   0.296   3.121 -0.1778  0.7615  0.3588
  164SAPE   O1418322   2.967   0.254   3.357 -0.2255 -0.1017 -0.1985
  164SAPE   O1218323   3.057   0.458   3.242 -0.2057 -0.5147 -0.0154
  164SAPE   O1118324   2.809   0.446   3.286  0.3171 -0.1077 -0.0134
  164SAPE    C118325   2.803   0.574   3.351 -0.5981 -0.1211  0.0073
  164SAPE    HA18326   2.871   0.644   3.298 -0.7203  1.7560  2.1842
  164SAPE    HB18327   2.704   0.625   3.345 -0.2132  0.9219  1.9061
  164SAPE    C218328   2.832   0.561   3.503 -0.4772 -0.3419 -0.1234
  164SAPE    HS18329   2.826   0.451   3.517  1.0817 -0.3986  0.3983
  164SAPE   O2118330   2.730   0.625   3.583  0.1952  0.2265 -0.2599
  164SAPE   C2118331   2.608   0.565   3.580 -0.0194 -0.1128 -0.3282
  164SAPE   O2218332   2.577   0.479   3.498 -0.6936  0.0152  0.2803
  164SAPE   C2218333   2.518   0.633   3.688 -1.0652 -0.3554 -0.3874
  164SAPE   H2R18334   2.551   0.739   3.688 -1.7209 -0.1437 -0.9257
  164SAPE   H2S18335   2.413   0.632   3.651 -1.4231 -0.3628  0.5881
  164SAPE    C318336   2.980   0.608   3.535 -0.1797  0.3659  0.0203
  164SAPE    HX18337   2.978   0.716   3.513  0.1755  0.3943  0.1168
  164SAPE    HY18338   3.041   0.553   3.460 -0.2979  1.6749 -1.0695
  164SAPE   O3118339   3.010   0.568   3.667 -0.4813  0.2872 -0.3661
  164SAPE   C3118340   3.120   0.623   3.715  0.6148  0.1326 -0.9019
  164SAPE   O3218341   3.194   0.694   3.646 -0.1146  0.0122 -0.4249
  164SAPE   C3218342   3.146   0.581   3.860 -0.4304 -0.0449  0.5447
  164SAPE   H2X18343   3.122   0.473   3.872  0.9198 -0.3634  0.6194
  164SAPE   H2Y18344   3.074   0.643   3.917 -0.4763 -0.7800  1.3048
  164SAPE   C2318345   2.525   0.576   3.837 -0.3170  0.3509  0.3148
  164SAPE   H3R18346   2.489   0.658   3.903 -1.9736 -0.0720 -0.0240
  164SAPE   H3S18347   2.632   0.548   3.852 -0.2760  1.0294  1.4118
  164SAPE   C2418348   2.431   0.451   3.858 -0.5524  0.2205  0.3494
  164SAPE   H4R18349   2.478   0.392   3.940  1.5879 -0.1789 -1.0898
  164SAPE   H4S18350   2.433   0.392   3.765 -0.2861 -0.4285  0.7618
  164SAPE   C2518351   2.288   0.491   3.886  0.2838  0.8322  0.6630
  164SAPE   H5R18352   2.231   0.528   3.799  2.0702  1.9328 -0.1020
  164SAPE   C2618353   2.222   0.482   4.001  0.0015  0.5528  0.5052
  164SAPE   H6R18354   2.113   0.496   3.995 -0.4920 -1.9678  2.1147
  164SAPE   C2718355   2.289   0.455   4.132 -0.0449  0.3064  0.0642
  164SAPE   H7R18356   2.224   0.508   4.205 -0.7406  1.6184 -1.4282
  164SAPE   H7S18357   2.386   0.507   4.147 -1.3432  2.6100  1.1557
  164SAPE   C2818358   2.300   0.311   4.169  0.3219  0.1730 -0.3233
  164SAPE   H8R18359   2.398   0.269   4.144  0.3015 -2.4311  3.2303
  164SAPE   C2918360   2.212   0.243   4.238  0.6815 -0.2413  0.3262
  164SAPE   H9R18361   2.242   0.140   4.264  1.5980  0.0434  0.4161
  164SAPE  C21018362   2.075   0.283   4.282 -0.1599 -0.4001 -0.3199
  164SAPE  H10R18363   2.052   0.386   4.247 -1.9313 -1.5247 -2.7923
  164SAPE  H10S18364   2.084   0.283   4.393 -1.3323 -0.5511 -0.2182
  164SAPE  C21118365   1.967   0.192   4.225 -0.1462 -0.1834 -0.0879
  164SAPE  H11R18366   1.993   0.152   4.126  1.3851  0.6435 -0.0558
  164SAPE  C21218367   1.861   0.144   4.287 -0.7918 -0.1905 -0.3475
  164SAPE  H12R18368   1.803   0.067   4.235 -0.6645 -0.4706 -0.0731
  164SAPE  C21318369   1.806   0.173   4.425 -0.3020 -0.5227  0.0971
  164SAPE  H13R18370   1.732   0.255   4.410  1.1873  0.3460 -3.9434
  164SAPE  H13S18371   1.882   0.228   4.484 -0.5337 -0.2243  0.1252
  164SAPE  C21418372   1.744   0.056   4.500 -0.1151  0.0413  0.2653
  164SAPE  H14R18373   1.730  -0.032   4.436  1.0523  0.4687 -0.6288
  164SAPE  C21518374   1.705   0.051   4.628 -0.0033  0.4419  0.9574
  164SAPE  H15R18375   1.665  -0.043   4.669  0.2889  0.0099  0.2657
  164SAPE  C21618376   1.716   0.164   4.724 -0.7290  0.3216  0.4539
  164SAPE  H16R18377   1.623   0.226   4.720 -0.6497  0.5449  1.7578
  164SAPE  H16S18378   1.802   0.226   4.690  0.7078 -1.5700  0.4679
  164SAPE  C21718379   1.734   0.116   4.869 -0.0548 -0.7363  0.1079
  164SAPE  H17R18380   1.775   0.200   4.929  0.3163  1.5674 -3.1265
  164SAPE  H17S18381   1.817   0.041   4.867 -1.2344 -2.1106 -2.6615
  164SAPE  C21818382   1.601   0.071   4.930 -0.2350 -0.5929  0.3205
  164SAPE  H18R18383   1.576  -0.019   4.869 -0.6115 -0.2897  0.0168
  164SAPE  H18S18384   1.531   0.158   4.928  1.8381  1.3737  3.6010
  164SAPE  C21918385   1.614   0.020   5.077 -0.3682 -0.3662  0.2973
  164SAPE  H19R18386   1.664  -0.079   5.076 -0.2506 -0.3245  1.4183
  164SAPE  H19S18387   1.516   0.003   5.125 -0.9913 -0.8507 -1.1047
  164SAPE  C22018388   1.702   0.114   5.163  0.8193  0.1327  0.4643
  164SAPE  H20R18389   1.692   0.082   5.269  0.1785  0.2705  0.4491
  164SAPE  H20S18390   1.669   0.219   5.150 -0.4889 -0.2081  0.8976
  164SAPE  H20T18391   1.808   0.102   5.134  0.4709 -1.0763 -0.4065
  164SAPE   C3318392   3.296   0.600   3.894  0.4592 -0.6638  0.8723
  164SAPE   H3X18393   3.341   0.702   3.887  1.1904 -0.7030  3.6194
  164SAPE   H3Y18394   3.342   0.537   3.815 -0.9278 -0.1644 -0.3664
  164SAPE   C3418395   3.326   0.551   4.042 -0.2808 -0.3156 -0.3206
  164SAPE   H4X18396   3.437   0.552   4.051 -0.2411  3.3586  0.0680
  164SAPE   H4Y18397   3.292   0.446   4.056  0.7783 -1.1437 -3.3447
  164SAPE   C3518398   3.272   0.636   4.151 -0.2634 -0.5163  0.1438
  164SAPE   H5X18399   3.272   0.584   4.249  2.6282 -0.7024  0.1235
  164SAPE   H5Y18400   3.170   0.668   4.119  0.0653 -0.9790 -1.4816
  164SAPE   C3618401   3.350   0.770   4.165  0.3180 -0.1023 -0.3244
  164SAPE   H6X18402   3.384   0.814   4.069 -0.3153  0.8459 -0.1211
  164SAPE   H6Y18403   3.437   0.750   4.232 -1.4523 -1.1060  1.7762
  164SAPE   C3718404   3.267   0.886   4.235  0.5721  0.7560  0.2536
  164SAPE   H7X18405   3.182   0.914   4.170  0.4015  1.5649  0.8109
  164SAPE   H7Y18406   3.321   0.982   4.243 -1.5988  2.1734 -1.2077
  164SAPE   C3818407   3.202   0.844   4.369  0.0055  0.3301  0.3846
  164SAPE   H8X18408   3.271   0.791   4.439  0.1100  2.1212  1.7216
  164SAPE   H8Y18409   3.113   0.781   4.350  2.1851 -2.4243 -1.5444
  164SAPE   C3918410   3.158   0.960   4.457  0.8133  0.5364  0.2705
  164SAPE   H9X18411   3.074   1.018   4.412 -0.8077 -1.9940 -0.2494
  164SAPE   H9Y18412   3.241   1.031   4.472  1.5325 -0.5144  1.4058
  164SAPE  C31018413   3.123   0.909   4.600 -0.5765 -0.2660  0.0841
  164SAPE  H10X18414   3.215   0.864   4.643  1.1782  2.0649 -1.0078
  164SAPE  H10Y18415   3.044   0.832   4.592  0.3617 -1.1646 -0.8861
  164SAPE  C31118416   3.078   1.027   4.684 -0.2838  0.0508 -0.0591
  164SAPE  H11X18417   2.973   1.046   4.653 -0.2072  0.6214  0.0306
  164SAPE  H11Y18418   3.142   1.115   4.666 -1.5552  0.6973 -1.7863
  164SAPE  C31218419   3.093   0.997   4.835 -0.3253  0.2187  0.9339
  164SAPE  H12X18420   3.201   0.983   4.852 -0.0942  2.0587  1.2235
  164SAPE  H12Y18421   3.048   0.902   4.870 -1.0540 -0.2075 -0.9783
  164SAPE  C31318422   3.053   1.117   4.917 -0.0768  0.3357 -0.2834
  164SAPE  H13X18423   2.946   1.130   4.942 -0.2011  0.4458 -0.8573
  164SAPE  H13Y18424   3.094   1.206   4.863 -0.7559 -0.2496 -1.8439
  164SAPE  C31418425   3.124   1.111   5.051 -0.3265 -1.5945  0.7654
  164SAPE  H14X18426   3.168   1.012   5.072 -1.1410 -1.5961  2.6005
  164SAPE  H14Y18427   3.047   1.142   5.125  0.3318  0.9409  0.4959
  164SAPE  C31518428   3.231   1.224   5.080  0.5715 -0.0306  0.1512
  164SAPE  H15X18429   3.181   1.318   5.047  2.0420  0.3473 -1.1647
  164SAPE  H15Y18430   3.306   1.219   4.998 -1.0999  0.5953 -1.5036
  164SAPE  C31618431   3.268   1.229   5.227 -0.9573  0.1942  0.4080
  164SAPE  H16X18432   3.319   1.139   5.267 -0.4057  1.1422  1.9355
  164SAPE  H16Y18433   3.180   1.246   5.293 -0.6805 -0.4164  0.9547
  164SAPE  C31718434   3.366   1.340   5.263  0.3421 -0.2534  0.4852
  164SAPE  H17X18435   3.318   1.436   5.236 -0.2313 -0.4855  0.6534
  164SAPE  H17Y18436   3.453   1.334   5.194 -0.9744  0.4488 -1.3453
  164SAPE  C31818437   3.404   1.335   5.409  0.1457 -0.0781 -0.0787
  164SAPE  H18X18438   3.320   1.348   5.479 -0.4005 -0.1058 -0.7189
  164SAPE  H18Y18439   3.474   1.420   5.426  0.3246 -0.0760 -0.7810
  164SAPE  H18Z18440   3.466   1.247   5.435 -0.4798 -0.0420  1.6220
  165SAPE     N18441   2.276   1.365   3.188  0.0606  0.0513 -0.1668
  165SAPE   HN118442   2.265   1.263   3.171 -1.0765  0.0710  0.3440
  165SAPE   HN218443   2.183   1.408   3.171  0.3561  0.4640 -0.8026
  165SAPE   HN318444   2.357   1.404   3.136 -0.9436 -1.9069 -3.4495
  165SAPE   C1218445   2.314   1.384   3.335  0.2764  0.7137 -0.1236
  165SAPE  H12A18446   2.220   1.375   3.394  0.4458  0.4630  0.1053
  165SAPE  H12B18447   2.364   1.483   3.343  0.0991  0.8145 -0.2427
  165SAPE   C1118448   2.419   1.278   3.379 -0.3331 -0.5783 -0.2937
  165SAPE  H11A18449   2.375   1.177   3.387 -0.0790 -0.5855  1.4158
  165SAPE  H11B18450   2.448   1.309   3.482 -0.1217 -0.0209 -0.5151
  165SAPE     P18451   2.666   1.344   3.332 -0.2433 -0.0081  0.1684
  165SAPE   O1318452   2.761   1.337   3.216 -0.0628  0.1893  0.3113
  165SAPE   O1418453   2.629   1.482   3.375  0.0078  0.2291  0.4047
  165SAPE   O1218454   2.533   1.270   3.296 -0.3129  0.9897  0.6600
  165SAPE   O1118455   2.724   1.252   3.450  0.4861 -0.5573  0.0245
  165SAPE    C118456   2.732   1.109   3.416 -0.4767  0.1108  0.4430
  165SAPE    HA18457   2.638   1.071   3.371 -0.2657 -1.7148  1.4632
  165SAPE    HB18458   2.815   1.091   3.345 -1.0648 -0.1457 -0.1988
  165SAPE    C218459   2.746   1.024   3.543 -0.5720 -0.1431 -0.2257
  165SAPE    HS18460   2.733   0.915   3.525  0.7624 -0.2556 -0.6002
  165SAPE   O2118461   2.672   1.076   3.657 -0.4785 -0.2821  0.0944
  165SAPE   C2118462   2.530   1.077   3.642 -0.8002  0.1236  0.1060
  165SAPE   O2218463   2.472   1.026   3.550 -0.6033  0.1249 -0.6104
  165SAPE   C2218464   2.474   1.149   3.765 -0.0816 -1.0611 -0.2719
  165SAPE   H2R18465   2.559   1.168   3.835 -0.7754  1.8981 -0.0893
  165SAPE   H2S18466   2.435   1.248   3.733  0.2578 -1.2412 -1.2638
  165SAPE    C318467   2.892   1.049   3.587 -0.4367 -0.2882  0.0078
  165SAPE    HX18468   2.917   1.157   3.593  2.0009 -0.8753  2.4624
  165SAPE    HY18469   2.973   1.006   3.525  0.0337  0.1727  0.3001
  165SAPE   O3118470   2.915   0.977   3.712  0.2898 -0.0902  0.3423
  165SAPE   C3118471   2.937   1.050   3.820  1.0969 -0.5204  0.5835
  165SAPE   O3218472   2.925   1.170   3.824  0.3614 -0.0399  0.4189
  165SAPE   C3218473   2.962   0.959   3.937 -0.6321  0.7993  0.3715
  165SAPE   H2X18474   2.980   1.026   4.024 -0.2756  0.2779  0.7052
  165SAPE   H2Y18475   3.052   0.898   3.917 -1.1158 -0.2096  1.1982
  165SAPE   C2318476   2.369   1.066   3.846 -0.9236 -0.3896  0.3159
  165SAPE   H3R18477   2.302   1.001   3.787  0.6171 -1.2081 -0.5968
  165SAPE   H3S18478   2.306   1.135   3.906  1.8368  0.4764  2.4460
  165SAPE   C2418479   2.437   0.969   3.948 -0.4599  0.1501  0.2747
  165SAPE   H4R18480   2.510   0.909   3.890  0.0365 -0.4886  1.5206
  165SAPE   H4S18481   2.366   0.890   3.982  1.8419 -1.6467  1.1891
  165SAPE   C2518482   2.500   1.041   4.065  0.9884 -0.4451  0.1141
  165SAPE   H5R18483   2.584   1.104   4.031 -1.8766  2.8306 -1.4870
  165SAPE   C2618484   2.471   1.023   4.193 -0.4285 -0.1458 -0.4567
  165SAPE   H6R18485   2.524   1.095   4.257 -0.3030 -1.6997  1.2708
  165SAPE   C2718486   2.369   0.935   4.254  0.4927 -0.2334  0.3184
  165SAPE   H7R18487   2.277   0.924   4.193 -0.0462 -0.1774  1.1070
  165SAPE   H7S18488   2.325   0.986   4.343  2.0569 -0.5020  1.2942
  165SAPE   C2818489   2.412   0.799   4.293 -0.3736  0.4392  0.3322
  165SAPE   H8R18490   2.459   0.738   4.214  0.7939 -0.0339  1.3511
  165SAPE   C2918491   2.415   0.743   4.413  0.7526 -0.5865 -0.4004
  165SAPE   H9R18492   2.463   0.645   4.417 -0.7652 -1.3616 -0.3793
  165SAPE  C21018493   2.381   0.814   4.547  0.2302  0.1552 -0.0621
  165SAPE  H10R18494   2.346   0.915   4.516  0.4404 -0.4797 -2.5013
  165SAPE  H10S18495   2.472   0.824   4.611  0.0794  2.3654 -0.1256
  165SAPE  C21118496   2.267   0.737   4.617  0.0923  0.6530  0.2865
  165SAPE  H11R18497   2.206   0.663   4.564 -2.5298  1.6541  1.7242
  165SAPE  C21218498   2.229   0.758   4.746 -0.0327 -0.2272 -0.2481
  165SAPE  H12R18499   2.144   0.705   4.790 -0.0261  1.6732  2.2258
  165SAPE  C21318500   2.283   0.868   4.836  0.2663  0.2962  0.4080
  165SAPE  H13R18501   2.191   0.919   4.872 -0.3891 -1.9523  2.1653
  165SAPE  H13S18502   2.345   0.938   4.777  2.0182 -2.7827 -1.7284
  165SAPE  C21418503   2.330   0.799   4.963 -0.4192  0.0300  0.5487
  165SAPE  H14R18504   2.331   0.689   4.959 -0.2469  0.0734 -2.4278
  165SAPE  C21518505   2.320   0.853   5.086 -0.3890 -0.0027 -0.0539
  165SAPE  H15R18506   2.337   0.789   5.174  3.0072  2.3930  1.2764
  165SAPE  C21618507   2.291   0.998   5.121  0.2865 -0.1581  0.3251
  165SAPE  H16R18508   2.191   1.003   5.170  2.0719  0.4138  4.2838
  165SAPE  H16S18509   2.276   1.057   5.027  1.4885 -0.3274  0.0188
  165SAPE  C21718510   2.396   1.069   5.204  0.1887 -0.0142 -0.0385
  165SAPE  H17R18511   2.363   1.174   5.219 -0.3897 -0.4344  1.8497
  165SAPE  H17S18512   2.499   1.051   5.164  1.1288  5.0034 -0.5251
  165SAPE  C21818513   2.394   1.007   5.350 -0.2560 -0.8590  0.5956
  165SAPE  H18R18514   2.462   0.919   5.354 -0.5420 -1.1376 -0.4086
  165SAPE  H18S18515   2.287   0.981   5.369 -0.9121  0.9521 -0.3517
  165SAPE  C21918516   2.425   1.113   5.460  0.5765  0.1714 -0.5794
  165SAPE  H19R18517   2.342   1.181   5.491  0.7569 -0.0915  0.5311
  165SAPE  H19S18518   2.508   1.176   5.422  0.3430  1.5194  0.9805
  165SAPE  C22018519   2.484   1.062   5.590 -0.5026  0.6346 -0.6261
  165SAPE  H20R18520   2.574   0.997   5.583  1.8401  3.2801  2.1325
  165SAPE  H20S18521   2.412   0.997   5.643  1.4042 -0.7330  0.4108
  165SAPE  H20T18522   2.517   1.149   5.651  1.1308 -0.9840  0.9368
  165SAPE   C3318523   2.844   0.870   3.973 -0.0334 -0.0792  0.0444
  165SAPE   H3X18524   2.808   0.800   3.894 -0.2562  0.0181  0.0565
  165SAPE   H3Y18525   2.757   0.932   4.004 -0.0189  0.8824 -1.6926
  165SAPE   C3418526   2.871   0.782   4.091  0.2823 -0.5284  0.5520
  165SAPE   H4X18527   2.920   0.839   4.172  1.4774 -1.5942  0.6147
  165SAPE   H4Y18528   2.937   0.697   4.066  1.5237 -0.4533  3.2263
  165SAPE   C3518529   2.741   0.718   4.144  0.0289 -0.2342  0.1572
  165SAPE   H5X18530   2.674   0.694   4.059 -1.5007 -1.4090  1.6237
  165SAPE   H5Y18531   2.688   0.787   4.213  2.4846  3.1769 -1.1117
  165SAPE   C3618532   2.765   0.590   4.215 -0.2957  0.7972  0.6500
  165SAPE   H6X18533   2.846   0.543   4.156  1.1348  1.5299  1.9459
  165SAPE   H6Y18534   2.681   0.519   4.202  0.4584 -0.2463  1.2517
  165SAPE   C3718535   2.812   0.607   4.363  0.2718 -0.0647 -0.2664
  165SAPE   H7X18536   2.738   0.657   4.431 -0.7346 -1.3146 -0.4121
  165SAPE   H7Y18537   2.902   0.671   4.349 -0.2002  0.7394  0.2717
  165SAPE   C3818538   2.844   0.467   4.428 -0.2632 -0.1610  0.7834
  165SAPE   H8X18539   2.898   0.404   4.354 -1.8236  0.7775 -1.2561
  165SAPE   H8Y18540   2.743   0.422   4.428 -0.3022 -0.0973  1.8113
  165SAPE   C3918541   2.912   0.477   4.566 -0.5060  0.4591  0.3710
  165SAPE   H9X18542   3.014   0.521   4.563 -0.8383  1.2085 -0.2719
  165SAPE   H9Y18543   2.933   0.374   4.603  0.2709  0.0953 -1.0334
  165SAPE  C31018544   2.831   0.558   4.666 -0.4256 -0.0202  0.7890
  165SAPE  H10X18545   2.727   0.532   4.636 -0.6352 -0.9321  2.2065
  165SAPE  H10Y18546   2.865   0.662   4.648 -1.7941  0.4608  0.8650
  165SAPE  C31118547   2.865   0.513   4.806 -0.0911  0.8148  0.4138
  165SAPE  H11X18548   2.971   0.529   4.836 -0.4319  3.5458  0.4770
  165SAPE  H11Y18549   2.849   0.406   4.828  1.4078  0.4786 -0.0231
  165SAPE  C31218550   2.777   0.599   4.892 -0.3696 -0.1648 -0.1267
  165SAPE  H12X18551   2.678   0.586   4.844 -0.7539  0.2112  0.5403
  165SAPE  H12Y18552   2.806   0.706   4.895  0.4858 -0.3792  2.7141
  165SAPE  C31318553   2.762   0.538   5.036  0.3310 -0.7205  0.2402
  165SAPE  H13X18554   2.857   0.571   5.083 -0.2684  0.3658  0.7104
  165SAPE  H13Y18555   2.753   0.430   5.012 -0.4214 -0.6120  0.0170
  165SAPE  C31418556   2.645   0.590   5.121 -0.5750  0.5765 -0.1413
  165SAPE  H14X18557   2.556   0.563   5.061 -0.6103  0.9864 -0.2756
  165SAPE  H14Y18558   2.654   0.701   5.119 -1.0416  0.6764  1.6125
  165SAPE  C31518559   2.654   0.540   5.265  0.6509 -0.0812 -0.1068
  165SAPE  H15X18560   2.755   0.560   5.304  1.2660  1.9860 -2.4625
  165SAPE  H15Y18561   2.633   0.431   5.259  1.0404 -0.0808 -2.8172
  165SAPE  C31618562   2.550   0.617   5.347  0.2266 -0.0756 -1.1740
  165SAPE  H16X18563   2.450   0.585   5.312  0.3386  0.5481 -2.0810
  165SAPE  H16Y18564   2.553   0.727   5.334 -0.3522 -0.0937 -1.4697
  165SAPE  C31718565   2.567   0.598   5.503  0.0279  0.8242  0.4575
  165SAPE  H17X18566   2.671   0.630   5.523  0.0895  1.2567 -0.4942
  165SAPE  H17Y18567   2.549   0.490   5.524 -0.5279  0.9529  0.6648
  165SAPE  C31818568   2.488   0.678   5.600  1.2859 -0.3727  0.3308
  165SAPE  H18X18569   2.380   0.654   5.591  1.2756  0.0350 -0.8394
  165SAPE  H18Y18570   2.500   0.787   5.580 -0.3757 -0.5199 -1.9863
  165SAPE  H18Z18571   2.519   0.644   5.700 -0.1589 -0.5559  0.7441
  166SAPE     N18572   2.728   1.717   3.411 -0.0644 -0.6531  0.4466
  166SAPE   HN118573   2.654   1.787   3.431 -0.8328 -1.4516  0.4491
  166SAPE   HN218574   2.773   1.745   3.321 -0.1224  1.2331  0.9830
  166SAPE   HN318575   2.686   1.624   3.388  0.7345 -0.6187 -1.3828
  166SAPE   C1218576   2.830   1.718   3.518  0.1674  0.0041  0.7658
  166SAPE  H12A18577   2.897   1.631   3.501  0.7941  0.2439  1.9363
  166SAPE  H12B18578   2.791   1.721   3.622 -1.1980 -0.3770  0.2929
  166SAPE   C1118579   2.912   1.845   3.502  0.0733 -0.4688  0.5215
  166SAPE  H11A18580   2.989   1.845   3.582 -0.5209 -0.7348  1.0993
  166SAPE  H11B18581   2.854   1.939   3.509 -0.7363 -0.8198 -0.9542
  166SAPE     P18582   3.038   1.962   3.296  0.0844 -0.1608 -0.0087
  166SAPE   O1318583   3.130   1.909   3.191  0.0637 -0.5701  0.3577
  166SAPE   O1418584   2.939   2.053   3.237 -0.2504  0.4339 -0.3185
  166SAPE   O1218585   2.970   1.839   3.368 -0.2316  0.6112  0.5109
  166SAPE   O1118586   3.120   2.027   3.412 -0.0093  0.1154  0.2251
  166SAPE    C118587   3.150   2.166   3.413  1.2844 -0.4324  0.0552
  166SAPE    HA18588   3.260   2.173   3.429  1.0163  2.1104  1.2644
  166SAPE    HB18589   3.122   2.225   3.323  1.2423 -0.5847 -0.0327
  166SAPE    C218590   3.078   2.230   3.535  0.8180 -0.0712  0.1859
  166SAPE    HS18591   2.968   2.234   3.520  1.0996 -0.2663 -2.2649
  166SAPE   O2118592   3.133   2.360   3.549  0.0593 -0.2309  0.3087
  166SAPE   C2118593   3.077   2.444   3.627 -0.3631  0.3534  0.0361
  166SAPE   O2218594   2.966   2.435   3.675 -0.3786  0.8816 -0.4667
  166SAPE   C2218595   3.170   2.562   3.649 -0.3804  0.1764  1.1942
  166SAPE   H2R18596   3.193   2.617   3.555  0.4077  0.2570  1.4208
  166SAPE   H2S18597   3.124   2.632   3.722  0.4169  1.9498  0.0599
  166SAPE    C318598   3.116   2.147   3.658 -0.4418 -0.7033  0.1840
  166SAPE    HX18599   3.227   2.144   3.650 -0.4267  0.1688 -0.0384
  166SAPE    HY18600   3.075   2.046   3.640 -1.9284 -0.3095  1.1710
  166SAPE   O3118601   3.080   2.207   3.773 -0.4686 -0.7002 -0.9904
  166SAPE   C3118602   2.971   2.170   3.847  0.0201 -0.0957 -0.4421
  166SAPE   O3218603   2.905   2.070   3.822  0.1766 -0.6683 -0.4381
  166SAPE   C3218604   2.954   2.269   3.958  0.1756 -0.6985 -0.6207
  166SAPE   H2X18605   2.846   2.291   3.971  0.1619 -0.5080 -1.0608
  166SAPE   H2Y18606   3.006   2.363   3.929 -1.0706  0.2185  0.0306
  166SAPE   C2318607   3.305   2.518   3.723 -0.2670 -0.2866 -0.2008
  166SAPE   H3R18608   3.379   2.600   3.728 -0.2260 -0.3542  0.2778
  166SAPE   H3S18609   3.356   2.434   3.670 -0.3146 -0.3661 -0.1211
  166SAPE   C2418610   3.285   2.473   3.872 -0.3405  0.4986  0.0225
  166SAPE   H4R18611   3.218   2.385   3.878  0.8605 -0.6595 -2.2430
  166SAPE   H4S18612   3.238   2.552   3.934 -0.2859 -0.8422  1.8437
  166SAPE   C2518613   3.415   2.421   3.924  0.0869  0.6114 -0.9139
  166SAPE   H5R18614   3.459   2.351   3.851 -0.9868  0.0697 -1.0668
  166SAPE   C2618615   3.487   2.449   4.035 -0.0712 -0.4049 -0.2700
  166SAPE   H6R18616   3.582   2.395   4.049  1.0914  1.5642 -0.1650
  166SAPE   C2718617   3.454   2.532   4.154 -0.6921 -0.6335 -0.4146
  166SAPE   H7R18618   3.367   2.596   4.128 -1.7922 -0.8617  2.3690
  166SAPE   H7S18619   3.531   2.606   4.181 -0.5238 -1.7037  2.3239
  166SAPE   C2818620   3.404   2.452   4.273  0.4710 -0.2301 -0.2092
  166SAPE   H8R18621   3.310   2.400   4.251 -0.5950  1.2500  0.6925
  166SAPE   C2918622   3.422   2.469   4.407 -0.0229 -0.0644  0.2306
  166SAPE   H9R18623   3.372   2.405   4.481 -0.4700  1.1819  1.0410
  166SAPE  C21018624   3.526   2.545   4.471 -0.1269 -1.0258  0.6115
  166SAPE  H10R18625   3.502   2.556   4.578 -1.5991 -0.8867  0.2854
  166SAPE  H10S18626   3.545   2.649   4.434 -0.4774 -1.1568  0.0514
  166SAPE  C21118627   3.663   2.478   4.456 -0.1844  0.1967  0.3689
  166SAPE  H11R18628   3.687   2.445   4.354 -0.3166  0.9468  0.0898
  166SAPE  C21218629   3.763   2.450   4.539 -0.0708 -0.3656  0.0000
  166SAPE  H12R18630   3.855   2.411   4.493 -1.2200 -1.8604 -1.1622
  166SAPE  C21318631   3.773   2.494   4.681 -0.2836 -0.2660 -0.4595
  166SAPE  H13R18632   3.719   2.590   4.693 -0.4567 -0.2041 -1.6100
  166SAPE  H13S18633   3.882   2.511   4.694 -0.6516  2.6993 -0.7188
  166SAPE  C21418634   3.721   2.395   4.790  0.0486 -0.3976  0.1118
  166SAPE  H14R18635   3.644   2.320   4.767  0.0390 -0.3512 -0.0059
  166SAPE  C21518636   3.743   2.413   4.924 -0.2071 -0.4070 -0.5363
  166SAPE  H15R18637   3.691   2.353   5.000  1.3452 -0.1253  0.7959
  166SAPE  C21618638   3.819   2.540   4.975 -0.4201  0.5660  0.4474
  166SAPE  H16R18639   3.753   2.629   4.962 -0.5200  0.4052 -0.1544
  166SAPE  H16S18640   3.904   2.561   4.907 -0.9386  0.3595 -0.2765
  166SAPE  C21718641   3.856   2.533   5.119  0.1833 -0.0347  0.0953
  166SAPE  H17R18642   3.901   2.632   5.144 -0.9887  0.9562 -1.5403
  166SAPE  H17S18643   3.931   2.451   5.129  0.6018  0.1926 -1.0789
  166SAPE  C21818644   3.740   2.519   5.225 -0.8993 -0.0073  0.2064
  166SAPE  H18R18645   3.697   2.416   5.225  1.2832 -0.9848 -0.9104
  166SAPE  H18S18646   3.661   2.592   5.197 -0.8961 -0.6894 -1.7812
  166SAPE  C21918647   3.795   2.539   5.362 -0.5540 -0.1799  0.2178
  166SAPE  H19R18648   3.708   2.528   5.431 -1.6116  1.4077 -0.8067
  166SAPE  H19S18649   3.840   2.636   5.391  0.8543 -1.1413  1.4345
  166SAPE  C22018650   3.901   2.442   5.414  0.8086 -0.2009  0.6804
  166SAPE  H20R18651   3.868   2.338   5.393 -0.8269  0.7994 -2.3381
  166SAPE  H20S18652   3.910   2.460   5.524  2.9035  1.1939  0.3159
  166SAPE  H20T18653   3.999   2.465   5.369  0.3529 -0.9529 -0.7371
  166SAPE   C3318654   3.008   2.228   4.094 -0.4890 -0.3393  0.7020
  166SAPE   H3X18655   3.018   2.313   4.164  1.5008 -0.3932  0.5567
  166SAPE   H3Y18656   3.116   2.201   4.092  0.7224  2.7502  5.9184
  166SAPE   C3418657   2.925   2.118   4.161  0.1990 -0.5047 -0.6371
  166SAPE   H4X18658   2.903   2.037   4.088  2.3612 -1.1333 -0.6753
  166SAPE   H4Y18659   2.821   2.149   4.182 -0.6507 -4.6221  2.3768
  166SAPE   C3518660   2.983   2.069   4.291 -0.3561 -0.3345  0.3965
  166SAPE   H5X18661   3.093   2.055   4.294 -0.3035 -0.1225 -0.2498
  166SAPE   H5Y18662   2.934   1.973   4.315  0.1441 -1.5613 -2.9762
  166SAPE   C3618663   2.924   2.161   4.387 -0.1531  0.1314 -0.5018
  166SAPE   H6X18664   2.814   2.147   4.390 -0.5547  2.8926  0.5183
  166SAPE   H6Y18665   2.942   2.268   4.360 -1.5748  0.0199 -2.0232
  166SAPE   C3718666   2.980   2.148   4.537  0.1064  0.0882  0.1248
  166SAPE   H7X18667   2.979   2.248   4.586 -1.8250 -0.9510  2.3845
  166SAPE   H7Y18668   3.086   2.117   4.538  0.2061  0.4231  0.0618
  166SAPE   C3818669   2.908   2.041   4.617  0.2691  0.1195 -0.0749
  166SAPE   H8X18670   2.817   2.009   4.561  0.2046 -1.1424  0.7035
  166SAPE   H8Y18671   2.872   2.086   4.712  0.0203  0.1236 -0.1704
  166SAPE   C3918672   2.991   1.910   4.632  0.9042  0.8557 -0.6125
  166SAPE   H9X18673   3.035   1.893   4.531 -0.7564 -2.2481 -0.9385
  166SAPE   H9Y18674   2.921   1.827   4.657  2.2237  0.4852  2.2477
  166SAPE  C31018675   3.097   1.915   4.738 -0.4660 -0.1076 -0.2385
  166SAPE  H10X18676   3.147   2.012   4.718 -1.5667  0.4791 -0.2044
  166SAPE  H10Y18677   3.171   1.834   4.716  1.4149  1.3909  0.3161
  166SAPE  C31118678   3.042   1.905   4.883 -0.6827 -0.1178 -0.2600
  166SAPE  H11X18679   2.967   1.824   4.889  0.3550 -1.0004  1.4566
  166SAPE  H11Y18680   2.992   2.004   4.895  0.0951  0.2878 -0.2120
  166SAPE  C31218681   3.147   1.888   5.001 -0.0991 -0.2257 -0.0139
  166SAPE  H12X18682   3.078   1.850   5.080 -1.4627 -1.3963 -1.7039
  166SAPE  H12Y18683   3.188   1.988   5.029  1.2822 -1.0309  0.9866
  166SAPE  C31318684   3.237   1.767   4.980 -0.1829  0.8279  0.7033
  166SAPE  H13X18685   3.297   1.792   4.890  1.8957 -1.3220  1.3702
  166SAPE  H13Y18686   3.191   1.667   4.964  1.4820 -0.0254  0.9852
  166SAPE  C31418687   3.329   1.746   5.098 -0.0637  0.6962  0.3959
  166SAPE  H14X18688   3.267   1.721   5.187  1.6461  3.5518  2.5544
  166SAPE  H14Y18689   3.367   1.849   5.109  1.0855  0.5348 -1.6086
  166SAPE  C31518690   3.457   1.651   5.087 -0.1488  0.6863  0.3308
  166SAPE  H15X18691   3.514   1.689   4.999  0.2995  0.1040  0.3659
  166SAPE  H15Y18692   3.420   1.547   5.080  1.8223 -0.0318 -0.0794
  166SAPE  C31618693   3.553   1.667   5.202  0.1692 -0.0620 -0.2148
  166SAPE  H16X18694   3.514   1.633   5.301 -2.7543  1.6481 -0.6659
  166SAPE  H16Y18695   3.570   1.776   5.208  3.9069 -0.3214 -2.9445
  166SAPE  C31718696   3.692   1.592   5.183 -0.0046 -0.4908  0.0616
  166SAPE  H17X18697   3.670   1.484   5.192  0.1813 -0.4240  1.6316
  166SAPE  H17Y18698   3.755   1.625   5.269 -0.3978  1.5584 -0.3869
  166SAPE  C31818699   3.759   1.621   5.054  0.2928  0.2357 -0.4662
  166SAPE  H18X18700   3.771   1.731   5.045 -2.2275  0.5234 -1.0445
  166SAPE  H18Y18701   3.699   1.583   4.968 -0.6300  1.1823 -0.2525
  166SAPE  H18Z18702   3.857   1.569   5.057  0.2125  0.0205  3.0748
  167SAPE     N18703   3.324   5.644   2.920 -0.5049  0.2450 -0.6819
  167SAPE   HN118704   3.224   5.624   2.901 -0.9119  0.0614  1.4102
  167SAPE   HN218705   3.373   5.708   2.855  1.9159 -1.0767 -0.2908
  167SAPE   HN318706   3.378   5.555   2.915  2.0987  1.7941 -1.8246
  167SAPE   C1218707   3.349   5.699   3.058 -0.0029 -0.6348  0.2748
  167SAPE  H12A18708   3.314   5.629   3.137  2.0584  0.2824  2.1058
  167SAPE  H12B18709   3.300   5.797   3.073  1.4944 -0.3141  4.1727
  167SAPE   C1118710   3.504   5.712   3.076 -0.5576  0.3884 -1.3600
  167SAPE  H11A18711   3.544   5.799   3.018 -0.4679  0.7477 -0.7633
  167SAPE  H11B18712   3.553   5.618   3.042 -0.9978 -0.9239  1.3422
  167SAPE     P18713   3.682   5.709   3.279 -0.3027  0.1926  0.1579
  167SAPE   O1318714   3.715   5.564   3.296  0.8577  0.7954 -0.2589
  167SAPE   O1418715   3.764   5.792   3.189  0.2345  0.6769 -0.0569
  167SAPE   O1218716   3.533   5.711   3.222  0.1776 -0.5783 -0.1467
  167SAPE   O1118717   3.660   5.774   3.423 -0.5395 -0.0887  0.2065
  167SAPE    C118718   3.751   5.865   3.481 -0.4911  0.1255  0.1973
  167SAPE    HA18719   3.853   5.826   3.462  0.1685  1.7167  0.3182
  167SAPE    HB18720   3.743   5.967   3.437  0.4181 -0.7525 -2.1134
  167SAPE    C218721   3.743   5.866   3.639 -0.5542 -0.5767 -0.8340
  167SAPE    HS18722   3.736   5.757   3.660 -2.7701  0.0794  2.9104
  167SAPE   O2118723   3.620   5.924   3.691  0.1345  0.0147  0.1533
  167SAPE   C2118724   3.608   6.053   3.682  0.3050  0.7464  0.6125
  167SAPE   O2218725   3.682   6.131   3.628 -0.0956  0.1086 -0.4094
  167SAPE   C2218726   3.467   6.089   3.735 -0.8511 -0.2534 -0.5060
  167SAPE   H2R18727   3.408   6.131   3.651  0.7701 -2.0435 -2.6733
  167SAPE   H2S18728   3.417   5.996   3.769 -0.2358  0.3235  2.2134
  167SAPE    C318729   3.875   5.916   3.695  0.2259 -0.3042  0.6723
  167SAPE    HX18730   3.900   6.012   3.644  0.3225 -0.5422  0.2729
  167SAPE    HY18731   3.957   5.852   3.660 -0.9841 -0.8967 -1.2082
  167SAPE   O3118732   3.877   5.928   3.842  0.2892  0.6594 -0.1489
  167SAPE   C3118733   3.961   5.999   3.905 -0.4101 -0.0439  0.2089
  167SAPE   O3218734   4.054   6.056   3.845  0.1753 -0.3687  0.2283
  167SAPE   C3218735   3.924   6.015   4.052  0.2697  0.1206  0.0915
  167SAPE   H2X18736   3.877   5.923   4.092 -0.9015 -0.7243 -2.9488
  167SAPE   H2Y18737   3.838   6.086   4.049 -1.7054 -2.1536 -0.7978
  167SAPE   C2318738   3.464   6.194   3.850  0.0627  0.0001  0.4321
  167SAPE   H3R18739   3.358   6.201   3.882 -1.7097 -1.6985 -4.1881
  167SAPE   H3S18740   3.505   6.292   3.819 -2.8159  1.4509  0.8957
  167SAPE   C2418741   3.556   6.160   3.966  0.7389 -0.6040  0.6083
  167SAPE   H4R18742   3.562   6.253   4.028  0.7747 -0.5142  0.4698
  167SAPE   H4S18743   3.662   6.144   3.938  2.3130  1.8379  4.2941
  167SAPE   C2518744   3.508   6.035   4.036 -0.0285 -0.9954  0.2282
  167SAPE   H5R18745   3.467   5.957   3.969  0.6293  0.3965 -1.9087
  167SAPE   C2618746   3.496   6.025   4.175  0.1717  0.3594  0.1190
  167SAPE   H6R18747   3.446   5.935   4.212 -0.1521  0.5150  0.0564
  167SAPE   C2718748   3.534   6.127   4.287 -0.0666 -0.1765  0.6420
  167SAPE   H7R18749   3.475   6.107   4.379 -1.6908 -0.2869 -0.3725
  167SAPE   H7S18750   3.504   6.232   4.268 -0.7363 -0.6107 -0.9648
  167SAPE   C2818751   3.682   6.118   4.331  0.5959 -0.7593 -0.1346
  167SAPE   H8R18752   3.752   6.143   4.251  0.4601  0.0421 -0.0157
  167SAPE   C2918753   3.729   6.089   4.452 -0.2812  0.2006 -0.2867
  167SAPE   H9R18754   3.838   6.074   4.453 -0.2477 -0.5023  3.9783
  167SAPE  C21018755   3.663   6.049   4.583 -0.0104  0.1559  0.0251
  167SAPE  H10R18756   3.675   5.939   4.590  1.6226  0.0303 -2.8161
  167SAPE  H10S18757   3.553   6.061   4.587 -0.0637 -0.4141  0.3471
  167SAPE  C21118758   3.733   6.113   4.702 -0.0596 -0.6883 -0.0974
  167SAPE  H11R18759   3.825   6.172   4.685  1.0030 -1.9640  0.9728
  167SAPE  C21218760   3.700   6.097   4.832  0.3843 -0.0191  0.5525
  167SAPE  H12R18761   3.768   6.138   4.908  0.5697  1.9146 -0.5951
  167SAPE  C21318762   3.580   6.024   4.890 -0.2474 -0.8162 -0.3888
  167SAPE  H13R18763   3.493   6.051   4.826 -0.1121  2.5559  0.6561
  167SAPE  H13S18764   3.562   6.069   4.990  0.4132 -1.8107  0.1865
  167SAPE  C21418765   3.603   5.871   4.900 -0.4671 -0.2130  0.1017
  167SAPE  H14R18766   3.680   5.831   4.831  1.7194  0.7500  1.8485
  167SAPE  C21518767   3.551   5.782   4.987  0.8446  1.0379  0.0569
  167SAPE  H15R18768   3.582   5.677   4.983  1.0188  0.9267  2.6810
  167SAPE  C21618769   3.446   5.807   5.093 -0.0761 -0.3005  0.1917
  167SAPE  H16R18770   3.432   5.917   5.094 -1.4116 -0.4515 -0.4573
  167SAPE  H16S18771   3.477   5.788   5.198  1.2387  1.3667  0.1535
  167SAPE  C21718772   3.308   5.731   5.072 -0.7248 -0.1770  0.8231
  167SAPE  H17R18773   3.268   5.772   4.977  2.0681  1.9034  0.4014
  167SAPE  H17S18774   3.239   5.754   5.156 -0.4560  0.4460  0.8792
  167SAPE  C21818775   3.323   5.581   5.062  0.6254  0.1227 -1.2590
  167SAPE  H18R18776   3.373   5.555   4.967 -0.3036 -1.5296 -1.3208
  167SAPE  H18S18777   3.226   5.530   5.046  0.2088  0.5896 -0.3264
  167SAPE  C21918778   3.402   5.519   5.181 -0.1888 -0.1655 -0.2638
  167SAPE  H19R18779   3.346   5.556   5.269  0.6193 -0.2142  0.2882
  167SAPE  H19S18780   3.507   5.557   5.187 -0.5699  0.9570 -0.5481
  167SAPE  C22018781   3.401   5.364   5.189  0.4067 -0.1495  0.4742
  167SAPE  H20R18782   3.296   5.334   5.206  0.5157  0.3754  2.2685
  167SAPE  H20S18783   3.467   5.337   5.274  2.1718  0.0474 -0.7573
  167SAPE  H20T18784   3.434   5.304   5.101 -0.9887 -0.5687  0.2165
  167SAPE   C3318785   4.033   6.079   4.144  0.6840  0.3335  0.0955
  167SAPE   H3X18786   3.989   6.077   4.246 -2.6380  3.0803 -1.1165
  167SAPE   H3Y18787   4.055   6.185   4.119 -1.8125  1.4046  2.0819
  167SAPE   C3418788   4.161   5.998   4.137 -0.6716 -0.2988  0.0527
  167SAPE   H4X18789   4.248   6.044   4.188  0.5453 -1.7457 -0.6508
  167SAPE   H4Y18790   4.195   5.979   4.033 -2.2522 -2.2898 -0.1733
  167SAPE   C3518791   4.149   5.850   4.172  0.2026 -0.5614 -0.8129
  167SAPE   H5X18792   4.244   5.796   4.156 -1.0482 -2.5449 -1.9288
  167SAPE   H5Y18793   4.069   5.798   4.114  0.0253 -1.3869  0.1486
  167SAPE   C3618794   4.131   5.834   4.323 -0.2198 -0.1069  0.5146
  167SAPE   H6X18795   4.142   5.724   4.334  0.6516 -0.0061  0.7400
  167SAPE   H6Y18796   4.030   5.865   4.358 -0.6000 -0.3910 -0.3005
  167SAPE   C3718797   4.248   5.893   4.408 -1.2653  0.6923 -0.1536
  167SAPE   H7X18798   4.270   6.001   4.395 -2.0812  0.9976  0.8421
  167SAPE   H7Y18799   4.339   5.844   4.367  0.9988  3.3021  1.3154
  167SAPE   C3818800   4.224   5.899   4.561 -0.2573 -0.5482 -0.1206
  167SAPE   H8X18801   4.320   5.936   4.602 -0.6401  0.9940 -0.5614
  167SAPE   H8Y18802   4.195   5.802   4.608  0.5146 -0.4560  0.5648
  167SAPE   C3918803   4.119   6.015   4.596  0.3250  0.4891 -0.5300
  167SAPE   H9X18804   4.020   5.982   4.557  0.8926  0.5223 -2.0751
  167SAPE   H9Y18805   4.150   6.108   4.544  0.5864  1.5561  1.4331
  167SAPE  C31018806   4.122   6.044   4.739  0.3435 -0.6663  0.0421
  167SAPE  H10X18807   4.089   6.150   4.748  1.2328 -0.1869 -1.8917
  167SAPE  H10Y18808   4.228   6.051   4.773  0.5669 -2.4274 -0.2001
  167SAPE  C31118809   4.048   5.945   4.831  0.5470  0.4511 -0.0983
  167SAPE  H11X18810   4.105   5.850   4.841 -0.3038 -0.4712 -3.0777
  167SAPE  H11Y18811   3.951   5.908   4.792  0.2862 -0.4053  1.2980
  167SAPE  C31218812   4.028   5.995   4.973 -0.4081 -0.1470  0.1701
  167SAPE  H12X18813   3.978   6.095   4.973 -0.4900 -0.1806 -0.7026
  167SAPE  H12Y18814   4.133   6.008   5.005 -0.8696  1.0237  1.3348
  167SAPE  C31318815   3.951   5.894   5.055 -0.2705  0.0312 -0.0398
  167SAPE  H13X18816   4.016   5.805   5.046 -1.0545 -0.5318 -0.3107
  167SAPE  H13Y18817   3.855   5.868   5.004 -1.3736  2.2306  0.7589
  167SAPE  C31418818   3.930   5.932   5.198  0.3342  0.0011 -0.4100
  167SAPE  H14X18819   3.891   6.036   5.198 -1.7069 -0.7195 -0.7438
  167SAPE  H14Y18820   4.029   5.932   5.249 -0.2501 -0.2251  0.7758
  167SAPE  C31518821   3.833   5.836   5.279 -0.3590  0.7919  0.1862
  167SAPE  H15X18822   3.880   5.735   5.279 -0.4574  0.6587 -2.7272
  167SAPE  H15Y18823   3.738   5.826   5.220 -0.4086  1.2583  0.1893
  167SAPE  C31618824   3.781   5.884   5.414 -0.3894  0.1896 -0.0298
  167SAPE  H16X18825   3.694   5.822   5.444 -0.9946  1.9619  2.1586
  167SAPE  H16Y18826   3.730   5.983   5.412 -1.0820 -0.1022  1.5478
  167SAPE  C31718827   3.894   5.899   5.523  0.2803 -0.3539  0.4014
  167SAPE  H17X18828   3.963   5.968   5.472 -3.3707  0.4311 -4.1143
  167SAPE  H17Y18829   3.932   5.794   5.533 -1.0505 -0.9315 -0.3904
  167SAPE  C31818830   3.847   5.952   5.664  0.8660 -0.3225 -0.2865
  167SAPE  H18X18831   3.809   5.864   5.719  0.1344  1.9025  3.0615
  167SAPE  H18Y18832   3.761   6.022   5.658  0.6791 -0.6690 -2.1374
  167SAPE  H18Z18833   3.930   5.998   5.723  1.3370 -0.4971 -0.8045
  168SAPE     N18834   2.318   4.979   3.093 -0.0221 -0.1626 -0.3380
  168SAPE   HN118835   2.379   4.951   3.014 -0.6700 -0.9383 -0.5839
  168SAPE   HN218836   2.222   4.982   3.053  0.1744  2.5366 -0.7908
  168SAPE   HN318837   2.340   5.081   3.097 -1.3876  0.1713 -0.5551
  168SAPE   C1218838   2.347   4.897   3.215 -0.4040 -0.0775 -0.1207
  168SAPE  H12A18839   2.335   4.793   3.178 -0.9794  0.7007 -2.2364
  168SAPE  H12B18840   2.265   4.919   3.288  1.9256  0.3207  2.5444
  168SAPE   C1118841   2.487   4.919   3.267  0.3797 -0.1653 -0.9600
  168SAPE  H11A18842   2.496   4.865   3.364  3.2189 -0.7861 -1.4923
  168SAPE  H11B18843   2.491   5.029   3.286 -1.9284 -0.2487  0.4743
  168SAPE     P18844   2.647   4.729   3.196  0.2666  0.0046  0.3780
  168SAPE   O1318845   2.546   4.623   3.215 -0.7013 -0.3682  0.0127
  168SAPE   O1418846   2.754   4.700   3.095  0.6801 -0.3714  0.0053
  168SAPE   O1218847   2.586   4.875   3.176 -0.6371 -0.0515 -0.3124
  168SAPE   O1118848   2.720   4.768   3.331 -0.4595 -0.1675 -0.9181
  168SAPE    C118849   2.804   4.882   3.347 -0.5135 -0.2463 -0.4467
  168SAPE    HA18850   2.910   4.873   3.314 -0.3660 -1.5857  0.3369
  168SAPE    HB18851   2.767   4.972   3.293 -0.5295 -0.0006 -0.0280
  168SAPE    C218852   2.819   4.919   3.497 -0.2424 -0.0094  0.3457
  168SAPE    HS18853   2.871   5.016   3.510  0.8811 -0.6127  0.5066
  168SAPE   O2118854   2.882   4.817   3.569  0.7721  0.6690 -0.5255
  168SAPE   C2118855   3.014   4.815   3.550  0.6119  1.3767 -0.1229
  168SAPE   O2218856   3.086   4.896   3.494 -0.0870 -0.2363  0.1344
  168SAPE   C2218857   3.069   4.691   3.627  0.2349  0.2763 -0.6799
  168SAPE   H2R18858   2.980   4.640   3.669  0.4416  1.3375  1.1170
  168SAPE   H2S18859   3.107   4.633   3.540  0.6189 -0.4326 -0.0529
  168SAPE    C318860   2.676   4.938   3.557 -0.6215 -0.4111  0.6807
  168SAPE    HX18861   2.614   4.846   3.547 -1.1769  0.1183 -1.1532
  168SAPE    HY18862   2.622   5.021   3.507  1.4027  0.2704 -0.5051
  168SAPE   O3118863   2.684   4.975   3.694 -0.3547 -0.1714  0.4920
  168SAPE   C3118864   2.581   4.942   3.777 -0.4156  0.0802  0.6767
  168SAPE   O3218865   2.478   4.886   3.743 -0.0593  0.0907  1.1955
  168SAPE   C3218866   2.616   4.987   3.916 -0.3513 -0.0012  0.3247
  168SAPE   H2X18867   2.644   5.095   3.911  0.1870 -0.1509  0.0133
  168SAPE   H2Y18868   2.713   4.938   3.937 -0.6347 -0.2845  0.9902
  168SAPE   C2318869   3.180   4.705   3.726 -0.0061 -0.7505  0.5413
  168SAPE   H3R18870   3.237   4.799   3.705  0.0774 -0.6151  1.3240
  168SAPE   H3S18871   3.253   4.622   3.716  1.5041  0.3914  1.5380
  168SAPE   C2418872   3.140   4.682   3.875 -0.1734 -0.3601  0.1987
  168SAPE   H4R18873   3.233   4.705   3.930 -0.9419  0.0608  1.3482
  168SAPE   H4S18874   3.120   4.573   3.880  0.5417 -0.5127 -0.1014
  168SAPE   C2518875   3.019   4.762   3.924  0.7005 -0.7766  0.1236
  168SAPE   H5R18876   2.971   4.822   3.845  1.1895 -3.0188 -2.0172
  168SAPE   C2618877   2.981   4.787   4.052 -0.0568  0.1653 -0.4369
  168SAPE   H6R18878   2.889   4.841   4.081 -1.3397 -2.3708  0.4972
  168SAPE   C2718879   3.045   4.716   4.172  0.1835 -0.5089  0.1584
  168SAPE   H7R18880   3.120   4.787   4.212 -0.8360  1.4046 -1.1561
  168SAPE   H7S18881   3.106   4.628   4.143  1.0411 -0.3097  1.2612
  168SAPE   C2818882   2.950   4.676   4.278 -0.5024 -0.8083  0.1553
  168SAPE   H8R18883   2.884   4.590   4.258 -2.0331 -0.0208  1.5213
  168SAPE   C2918884   2.940   4.741   4.397 -0.1806  0.2231  0.1555
  168SAPE   H9R18885   2.879   4.709   4.483  1.4896  2.3792  2.2775
  168SAPE  C21018886   3.012   4.865   4.440 -0.8277 -0.2037 -0.3882
  168SAPE  H10R18887   2.937   4.924   4.496 -0.0615 -1.2509  1.8370
  168SAPE  H10S18888   3.038   4.925   4.350 -1.6255  1.2433  0.3113
  168SAPE  C21118889   3.143   4.861   4.518  1.0798 -0.1558 -0.1069
  168SAPE  H11R18890   3.236   4.894   4.468  0.4109  1.9527 -0.0527
  168SAPE  C21218891   3.155   4.815   4.650 -0.2936 -0.5602  0.8727
  168SAPE  H12R18892   3.256   4.818   4.694 -0.2476  1.1948  0.7162
  168SAPE  C21318893   3.041   4.756   4.731 -0.1402 -0.5376  0.4332
  168SAPE  H13R18894   2.960   4.828   4.706  0.4919  0.5196  1.3592
  168SAPE  H13S18895   3.062   4.762   4.840  2.2812  0.3396 -0.0275
  168SAPE  C21418896   2.990   4.619   4.697  0.2066 -0.0096  0.2491
  168SAPE  H14R18897   2.987   4.592   4.590 -2.3169 -0.6874  0.4280
  168SAPE  C21518898   2.934   4.530   4.777  0.7529  0.7348  0.0252
  168SAPE  H15R18899   2.895   4.435   4.738  0.2617  0.1651  1.8131
  168SAPE  C21618900   2.902   4.561   4.922  0.1036  0.0615 -0.2518
  168SAPE  H16R18901   2.848   4.658   4.934 -0.5016  0.2195 -3.5161
  168SAPE  H16S18902   2.998   4.572   4.977  0.0463  0.8868 -0.3031
  168SAPE  C21718903   2.832   4.443   4.992 -0.0385 -0.9398  0.3864
  168SAPE  H17R18904   2.888   4.348   4.980 -2.8917 -2.4081 -3.9380
  168SAPE  H17S18905   2.739   4.414   4.938  1.2913 -0.8813 -2.0555
  168SAPE  C21818906   2.782   4.453   5.134 -0.1048 -0.1032  0.1032
  168SAPE  H18R18907   2.726   4.545   5.158 -0.5741 -0.6682  1.2305
  168SAPE  H18S18908   2.867   4.458   5.205  1.3115 -0.0801 -1.5180
  168SAPE  C21918909   2.699   4.338   5.175  0.3546 -0.5626 -0.0319
  168SAPE  H19R18910   2.762   4.246   5.169 -0.7960 -1.3124 -1.2391
  168SAPE  H19S18911   2.613   4.321   5.107  0.6967 -3.3140  0.1192
  168SAPE  C22018912   2.640   4.340   5.316  0.5599 -0.1163 -0.4325
  168SAPE  H20R18913   2.717   4.333   5.395 -0.3623 -2.2380  0.3575
  168SAPE  H20S18914   2.567   4.258   5.333 -0.5781  0.9310 -0.0649
  168SAPE  H20T18915   2.579   4.433   5.321  1.2118  0.3747 -1.3973
  168SAPE   C3318916   2.511   4.945   4.023 -0.1912  0.1126 -0.4059
  168SAPE   H3X18917   2.482   4.838   4.010  1.6904 -0.3065 -1.5921
  168SAPE   H3Y18918   2.423   5.012   4.020 -1.2950 -1.2809 -0.7453
  168SAPE   C3418919   2.561   4.947   4.163 -0.0587  1.0983 -0.6369
  168SAPE   H4X18920   2.585   5.052   4.193 -0.6141  1.3965 -1.2244
  168SAPE   H4Y18921   2.655   4.887   4.167 -1.5554 -1.3437  0.0373
  168SAPE   C3518922   2.467   4.888   4.273  1.0873 -0.0672 -0.1249
  168SAPE   H5X18923   2.477   4.777   4.275 -0.4658 -0.2768 -1.3870
  168SAPE   H5Y18924   2.361   4.916   4.253  2.4369  5.6445 -0.7537
  168SAPE   C3618925   2.490   4.955   4.417  0.4972  0.0398  0.7103
  168SAPE   H6X18926   2.414   4.906   4.481 -0.8733  0.5054 -0.5001
  168SAPE   H6Y18927   2.472   5.063   4.394 -3.6845 -0.5381  0.4566
  168SAPE   C3718928   2.628   4.931   4.465 -0.0202  0.4354 -0.2952
  168SAPE   H7X18929   2.700   4.999   4.414 -1.7126  1.9394 -0.8008
  168SAPE   H7Y18930   2.644   4.825   4.438 -0.6116 -0.2956  1.9909
  168SAPE   C3818931   2.656   4.951   4.614  0.7161 -0.2659 -0.2506
  168SAPE   H8X18932   2.759   4.921   4.640 -0.1324 -1.7271  1.6218
  168SAPE   H8Y18933   2.587   4.886   4.671 -0.7195  2.6442  1.5768
  168SAPE   C3918934   2.628   5.097   4.650 -0.2750 -1.0184  0.2275
  168SAPE   H9X18935   2.523   5.122   4.624 -0.2680  0.1195  1.1864
  168SAPE   H9Y18936   2.703   5.164   4.603  1.3094 -0.6209  3.0961
  168SAPE  C31018937   2.643   5.130   4.798 -0.4607  0.0307 -0.0227
  168SAPE  H10X18938   2.622   5.238   4.814  0.5038  0.2418 -0.0870
  168SAPE  H10Y18939   2.751   5.116   4.821 -0.3204 -0.1059 -0.7292
  168SAPE  C31118940   2.566   5.044   4.898  0.0220  1.0666 -0.3085
  168SAPE  H11X18941   2.604   4.940   4.905  2.3871  1.8721 -0.6019
  168SAPE  H11Y18942   2.458   5.051   4.871  0.2539  0.8283 -1.3045
  168SAPE  C31218943   2.564   5.098   5.042 -0.6037 -0.1368  0.5702
  168SAPE  H12X18944   2.671   5.095   5.073 -0.9779 -0.1923  1.9452
  168SAPE  H12Y18945   2.512   5.041   5.122  1.4613 -0.9700  1.3981
  168SAPE  C31318946   2.497   5.229   5.062 -0.1324 -0.4777  0.3531
  168SAPE  H13X18947   2.394   5.229   5.020 -1.0558 -0.0990  2.5186
  168SAPE  H13Y18948   2.557   5.296   4.997 -0.8239 -1.8969 -1.8805
  168SAPE  C31418949   2.495   5.291   5.202  0.2741  0.3995 -0.1874
  168SAPE  H14X18950   2.599   5.289   5.240 -0.1103  0.8563  0.9167
  168SAPE  H14Y18951   2.438   5.220   5.265  0.7509 -0.3055 -0.5271
  168SAPE  C31518952   2.410   5.418   5.223 -0.2936  0.2272 -0.8767
  168SAPE  H15X18953   2.308   5.401   5.183 -0.4800 -0.6151 -0.0889
  168SAPE  H15Y18954   2.456   5.500   5.165  0.3651  0.9184  0.5559
  168SAPE  C31618955   2.396   5.470   5.370 -0.0050  0.1596 -0.1536
  168SAPE  H16X18956   2.340   5.393   5.427  1.4183 -1.4653 -0.8719
  168SAPE  H16Y18957   2.333   5.562   5.370 -0.8872 -0.4184  0.9827
  168SAPE  C31718958   2.525   5.503   5.450  0.9862  0.5422 -0.2140
  168SAPE  H17X18959   2.612   5.443   5.414 -1.1760 -1.0622 -3.2457
  168SAPE  H17Y18960   2.515   5.485   5.559  0.3202 -3.6334 -0.7946
  168SAPE  C31818961   2.574   5.651   5.430  0.3746 -0.3499  0.2633
  168SAPE  H18X18962   2.676   5.661   5.472  1.0630  0.1384 -1.4256
  168SAPE  H18Y18963   2.508   5.724   5.481 -0.7475 -1.3337  0.2491
  168SAPE  H18Z18964   2.576   5.670   5.320  1.3204 -0.0343  0.3293
  169SAPE     N18965   4.783   5.296   2.810 -0.1344  0.2797 -0.3865
  169SAPE   HN118966   4.701   5.345   2.851  0.1316  1.4736 -1.2171
  169SAPE   HN218967   4.838   5.374   2.768  0.4835  0.6603  1.0547
  169SAPE   HN318968   4.761   5.230   2.733 -1.0685  0.3010 -0.1437
  169SAPE   C1218969   4.871   5.230   2.920  0.0189  0.3669  0.0577
  169SAPE  H12A18970   4.961   5.181   2.876 -0.3439  0.4287 -0.7646
  169SAPE  H12B18971   4.812   5.145   2.960  0.4805 -0.5028 -1.0588
  169SAPE   C1118972   4.902   5.324   3.037  0.2597  0.3896 -0.2168
  169SAPE  H11A18973   4.966   5.403   2.992 -2.5348  2.4566 -0.8366
  169SAPE  H11B18974   4.956   5.257   3.107 -0.5528  0.8433  0.8839
  169SAPE     P18975   4.795   5.501   3.181 -0.3146 -0.1462  0.2738
  169SAPE   O1318976   4.892   5.592   3.118  0.0893 -0.4687 -0.7003
  169SAPE   O1418977   4.656   5.551   3.200 -0.5797  0.0321  0.1628
  169SAPE   O1218978   4.780   5.374   3.093 -0.5160 -0.1562  0.1784
  169SAPE   O1118979   4.865   5.441   3.311 -0.4872  0.1199  0.7381
  169SAPE    C118980   4.786   5.365   3.403  0.4636  0.0723  0.5451
  169SAPE    HA18981   4.695   5.311   3.367 -0.1980 -0.9695  3.4557
  169SAPE    HB18982   4.845   5.277   3.436 -0.6705 -1.2710 -0.8581
  169SAPE    C218983   4.744   5.439   3.530 -0.3264 -0.0875 -0.5056
  169SAPE    HS18984   4.695   5.525   3.480  0.5141 -0.3511 -1.8125
  169SAPE   O2118985   4.858   5.476   3.602  0.0365  0.1027 -0.4129
  169SAPE   C2118986   4.835   5.568   3.696 -0.9534 -0.0451 -0.6865
  169SAPE   O2218987   4.736   5.636   3.714  0.0955  0.2454  0.7117
  169SAPE   C2218988   4.969   5.578   3.779  0.4920  0.0855 -0.2345
  169SAPE   H2R18989   5.015   5.478   3.793  2.5854  0.9417 -0.6757
  169SAPE   H2S18990   5.044   5.630   3.717  0.2344  0.2342 -0.4240
  169SAPE    C318991   4.636   5.364   3.615 -0.2848 -0.0518 -0.4205
  169SAPE    HX18992   4.556   5.340   3.542 -3.8806  1.7794  2.5625
  169SAPE    HY18993   4.602   5.429   3.698 -0.3983  2.9544 -2.6615
  169SAPE   O3118994   4.690   5.240   3.672  0.4780 -0.4782 -0.6100
  169SAPE   C3118995   4.586   5.173   3.732 -0.7305  1.1596  0.3725
  169SAPE   O3218996   4.474   5.212   3.747  0.8427  0.3105 -0.8351
  169SAPE   C3218997   4.639   5.044   3.785 -0.6702  0.2413  0.4753
  169SAPE   H2X18998   4.740   5.024   3.743 -1.0342  0.4451 -0.5182
  169SAPE   H2Y18999   4.576   4.957   3.757 -1.5456  0.0961  2.7073
  169SAPE   C2319000   4.946   5.660   3.914 -0.3175 -0.9798  0.5224
  169SAPE   H3R19001   4.902   5.760   3.895  1.1881 -0.2770  0.6112
  169SAPE   H3S19002   5.050   5.684   3.945 -1.3781  2.2016  2.0261
  169SAPE   C2419003   4.874   5.595   4.042  0.0595  0.0842  0.5840
  169SAPE   H4R19004   4.766   5.591   4.017  0.4713 -0.7600 -1.2417
  169SAPE   H4S19005   4.878   5.664   4.128 -0.4908  1.8481 -0.7313
  169SAPE   C2519006   4.925   5.457   4.080 -0.3804  0.4721  0.1132
  169SAPE   H5R19007   4.954   5.393   3.995 -2.5983 -1.1438  0.4777
  169SAPE   C2619008   4.917   5.409   4.209  0.3948  0.1089  0.2271
  169SAPE   H6R19009   4.957   5.309   4.232 -1.0799 -0.0955  2.1956
  169SAPE   C2719010   4.883   5.482   4.343 -0.5797  0.0368 -0.0582
  169SAPE   H7R19011   4.959   5.562   4.354 -1.3936  0.6331  1.5630
  169SAPE   H7S19012   4.904   5.426   4.437  1.2568 -0.3912 -0.6702
  169SAPE   C2819013   4.738   5.547   4.356 -0.0328  0.3599 -0.3461
  169SAPE   H8R19014   4.689   5.570   4.260 -1.0864 -0.8917 -0.1452
  169SAPE   C2919015   4.681   5.598   4.467 -0.1538  0.6248 -0.6029
  169SAPE   H9R19016   4.572   5.605   4.463 -0.3759 -0.8417  1.2045
  169SAPE  C21019017   4.744   5.603   4.601  0.4215  0.1794 -0.3594
  169SAPE  H10R19018   4.848   5.640   4.608  0.0766  1.0178  0.7219
  169SAPE  H10S19019   4.749   5.497   4.633  1.8040 -0.1808 -1.6627
  169SAPE  C21119020   4.665   5.693   4.702 -0.0560  0.7116 -0.0455
  169SAPE  H11R19021   4.560   5.661   4.712 -0.4505  0.4050 -3.6630
  169SAPE  C21219022   4.707   5.807   4.757  0.6422 -0.2781  0.5008
  169SAPE  H12R19023   4.632   5.865   4.812 -0.1067 -1.3310  0.6164
  169SAPE  C21319024   4.845   5.874   4.754 -0.4520 -0.2424  0.6623
  169SAPE  H13R19025   4.847   5.969   4.811  3.5204 -1.0032  2.1693
  169SAPE  H13S19026   4.883   5.904   4.654  1.0647 -0.0521  1.2735
  169SAPE  C21419027   4.956   5.786   4.804  0.2880  0.1456  0.4751
  169SAPE  H14R19028   4.981   5.706   4.732  2.0111  0.6061  0.5048
  169SAPE  C21519029   5.020   5.783   4.921 -0.3701 -0.0243 -0.4943
  169SAPE  H15R19030   5.108   5.718   4.934 -0.7490 -0.5528 -0.5728
  169SAPE  C21619031   5.003   5.881   5.033 -0.3352  0.2651  0.7913
  169SAPE  H16R19032   4.962   5.979   5.000 -0.0051  0.6952  1.6209
  169SAPE  H16S19033   5.105   5.911   5.066  0.7253  0.3602 -2.1964
  169SAPE  C21719034   4.933   5.826   5.158  0.7032 -0.1430  0.0268
  169SAPE  H17R19035   4.943   5.909   5.230 -1.5774  0.3308 -0.1368
  169SAPE  H17S19036   4.981   5.734   5.198 -0.0584  0.2212  1.8510
  169SAPE  C21819037   4.782   5.805   5.147  0.3998  0.3161 -0.3595
  169SAPE  H18R19038   4.767   5.713   5.087 -1.0151  1.9320 -2.6675
  169SAPE  H18S19039   4.724   5.873   5.081 -2.2068 -1.3612  0.0753
  169SAPE  C21919040   4.716   5.788   5.284  0.4749 -0.1158 -0.1154
  169SAPE  H19R19041   4.777   5.716   5.343  0.7691  0.7088  0.6199
  169SAPE  H19S19042   4.615   5.741   5.280  1.1582 -1.5541 -1.0707
  169SAPE  C22019043   4.702   5.928   5.349  0.1229 -0.3972 -0.0131
  169SAPE  H20R19044   4.630   5.986   5.288 -0.5514 -0.1733  0.9825
  169SAPE  H20S19045   4.798   5.985   5.355  1.3469 -2.4645  1.4816
  169SAPE  H20T19046   4.674   5.928   5.456  2.4143 -0.4300  0.6532
  169SAPE   C3319047   4.646   5.028   3.942 -0.6710  0.3748 -0.1506
  169SAPE   H3X19048   4.696   5.122   3.973  1.5983 -1.3319  1.7511
  169SAPE   H3Y19049   4.726   4.956   3.972  0.2628  1.0770 -0.9010
  169SAPE   C3419050   4.511   5.016   4.002 -0.3566 -0.0777 -0.6601
  169SAPE   H4X19051   4.454   4.930   3.960  0.8453 -0.2760 -1.9530
  169SAPE   H4Y19052   4.453   5.110   3.984  1.0531  1.0509  0.4248
  169SAPE   C3519053   4.508   5.018   4.157 -0.7882 -0.1270  0.2410
  169SAPE   H5X19054   4.411   4.980   4.197 -0.8633  0.3060  0.4678
  169SAPE   H5Y19055   4.515   5.120   4.200 -2.8268 -0.3141  1.1672
  169SAPE   C3619056   4.631   4.945   4.215  0.6263 -0.1133 -0.1535
  169SAPE   H6X19057   4.714   5.019   4.218 -0.9655  1.9438 -2.5109
  169SAPE   H6Y19058   4.666   4.866   4.145 -2.7779 -0.7414 -1.3578
  169SAPE   C3719059   4.593   4.894   4.354  0.7333  0.0940 -0.7074
  169SAPE   H7X19060   4.681   4.845   4.401  1.2082  0.0312 -1.6318
  169SAPE   H7Y19061   4.518   4.818   4.326  1.2159 -0.2221 -1.1550
  169SAPE   C3819062   4.547   4.996   4.450 -0.1380  0.4516 -0.0131
  169SAPE   H8X19063   4.458   5.045   4.404 -1.3753 -0.3280  1.4420
  169SAPE   H8Y19064   4.614   5.083   4.465  1.2919  0.3992 -4.6676
  169SAPE   C3919065   4.507   4.937   4.585  0.2114  0.0283  0.2990
  169SAPE   H9X19066   4.581   4.869   4.633  0.9952  1.9875  1.9695
  169SAPE   H9Y19067   4.413   4.880   4.568 -1.4066  2.1265  1.6254
  169SAPE  C31019068   4.463   5.047   4.691 -0.6900  0.1826 -0.2176
  169SAPE  H10X19069   4.390   5.105   4.631 -2.2538 -3.1096 -1.8140
  169SAPE  H10Y19070   4.553   5.106   4.719 -1.8264  0.2816  3.8375
  169SAPE  C31119071   4.395   4.979   4.815  1.0007  0.1686 -0.7619
  169SAPE  H11X19072   4.467   4.900   4.844  0.3689 -0.0637  0.2417
  169SAPE  H11Y19073   4.304   4.923   4.785 -1.8536  3.1997  1.4224
  169SAPE  C31219074   4.370   5.076   4.933  0.5817 -0.3783  0.6616
  169SAPE  H12X19075   4.324   5.163   4.882 -1.7391 -1.3245  0.9837
  169SAPE  H12Y19076   4.461   5.117   4.981 -0.6344  1.2001  1.7010
  169SAPE  C31319077   4.280   5.010   5.041 -0.2812 -0.1946  0.2150
  169SAPE  H13X19078   4.334   4.920   5.077  0.4553  0.1748  0.0562
  169SAPE  H13Y19079   4.186   4.972   4.995 -0.3669  1.8054 -1.4337
  169SAPE  C31419080   4.243   5.091   5.166 -0.3785 -0.4322  0.5402
  169SAPE  H14X19081   4.164   5.165   5.139 -0.4427 -0.8156 -0.3516
  169SAPE  H14Y19082   4.331   5.152   5.194 -0.8922  0.2310  0.7311
  169SAPE  C31519083   4.190   5.002   5.276  0.1019  0.5223 -0.6393
  169SAPE  H15X19084   4.265   4.928   5.310  0.3559  0.3896 -1.4667
  169SAPE  H15Y19085   4.103   4.958   5.223 -0.4206  2.9985 -1.9876
  169SAPE  C31619086   4.146   5.085   5.400  0.9871  0.8522 -0.2514
  169SAPE  H16X19087   4.088   5.028   5.476  1.8839 -0.6610 -0.6688
  169SAPE  H16Y19088   4.083   5.175   5.383  1.3456  1.2509  0.4598
  169SAPE  C31719089   4.271   5.142   5.461  0.3261 -0.4168 -0.3757
  169SAPE  H17X19090   4.330   5.219   5.406  0.6039 -0.5854 -0.3190
  169SAPE  H17Y19091   4.348   5.062   5.472 -0.1682 -0.8165  0.2004
  169SAPE  C31819092   4.255   5.202   5.609  0.1388 -0.8226  0.4636
  169SAPE  H18X19093   4.188   5.291   5.613 -0.9767 -1.6696  1.4196
  169SAPE  H18Y19094   4.354   5.224   5.654 -0.5245  1.0482  1.1215
  169SAPE  H18Z19095   4.202   5.137   5.681  1.2894 -0.1450  1.9787
  170SAPE     N19096   3.768   1.573   2.859 -0.3176  0.2949 -0.3404
  170SAPE   HN119097   3.848   1.527   2.906 -1.2258  0.1109  1.0750
  170SAPE   HN219098   3.697   1.569   2.934  0.3030  0.2428  0.2486
  170SAPE   HN319099   3.724   1.521   2.780 -2.0953  0.0960  0.7363
  170SAPE   C1219100   3.791   1.718   2.823  0.1375  0.2085  0.4592
  170SAPE  H12A19101   3.693   1.761   2.795 -0.0616 -0.3321  0.3040
  170SAPE  H12B19102   3.867   1.726   2.742  0.7392 -1.0015  0.8855
  170SAPE   C1119103   3.845   1.790   2.954 -0.2966  0.0797 -0.2146
  170SAPE  H11A19104   3.800   1.766   3.053  2.9102  2.1377  1.9042
  170SAPE  H11B19105   3.822   1.897   2.938  1.0828  0.5257  0.6470
  170SAPE     P19106   4.056   1.684   3.060  0.0437  0.3637  0.3040
  170SAPE   O1319107   4.008   1.549   3.026  0.4457  0.2315  0.0969
  170SAPE   O1419108   4.198   1.707   3.040 -0.4193  0.4948 -0.7225
  170SAPE   O1219109   3.987   1.787   2.961  0.2142 -0.0164 -0.4398
  170SAPE   O1119110   4.013   1.713   3.210 -0.2301  0.0605  0.0187
  170SAPE    C119111   4.044   1.846   3.268  0.6296 -0.3674  0.7085
  170SAPE    HA19112   4.120   1.901   3.209 -0.8549  0.1930 -0.7692
  170SAPE    HB19113   3.954   1.910   3.257  1.0379  0.2453  0.8903
  170SAPE    C219114   4.097   1.836   3.421 -0.2244 -0.4400  0.4659
  170SAPE    HS19115   4.184   1.767   3.414 -0.1423 -0.3789  0.9067
  170SAPE   O2119116   3.987   1.797   3.510 -0.1409  0.8841 -0.4221
  170SAPE   C2119117   4.027   1.725   3.616  0.6501 -0.1614  0.4972
  170SAPE   O2219118   4.144   1.696   3.637 -0.3934  0.3063  0.0242
  170SAPE   C2219119   3.903   1.673   3.689 -0.1432  0.2018  0.3527
  170SAPE   H2R19120   3.830   1.757   3.680  0.6015  0.8134 -0.0929
  170SAPE   H2S19121   3.861   1.587   3.631  0.1954 -0.0177  0.4352
  170SAPE    C319122   4.159   1.975   3.467  0.5674 -0.0353 -0.2367
  170SAPE    HX19123   4.082   2.054   3.455 -1.0778 -1.5337 -0.0585
  170SAPE    HY19124   4.253   1.993   3.413  1.6807  0.1432  1.6569
  170SAPE   O3119125   4.191   1.975   3.604 -0.1188 -0.2549  0.1465
  170SAPE   C3119126   4.317   1.943   3.636  0.2508 -0.2180  0.5224
  170SAPE   O3219127   4.402   1.916   3.554 -0.5745  0.6546 -0.4514
  170SAPE   C3219128   4.339   1.946   3.787  0.6932 -0.7381 -0.4487
  170SAPE   H2X19129   4.449   1.945   3.801  0.8157  1.3895 -1.0155
  170SAPE   H2Y19130   4.295   1.858   3.839  0.4183  1.0370  2.5368
  170SAPE   C2319131   3.935   1.618   3.835 -0.3316 -0.3213  0.3047
  170SAPE   H3R19132   4.009   1.535   3.824  1.1660  0.7476  1.7617
  170SAPE   H3S19133   3.840   1.577   3.875  0.1371  0.5043  2.4223
  170SAPE   C2419134   3.982   1.727   3.940  0.8094  0.2515 -0.6393
  170SAPE   H4R19135   4.068   1.773   3.886 -0.7848  0.1902 -3.4121
  170SAPE   H4S19136   4.016   1.673   4.031 -0.9229  0.3265  0.0842
  170SAPE   C2519137   3.866   1.822   3.968 -0.5478 -0.2004 -0.5272
  170SAPE   H5R19138   3.853   1.916   3.912  2.1090  0.3073 -0.4039
  170SAPE   C2619139   3.774   1.797   4.061  0.5511 -0.3517 -0.1481
  170SAPE   H6R19140   3.686   1.862   4.071  0.7265  0.0395 -1.0894
  170SAPE   C2719141   3.762   1.681   4.156  0.2580 -0.0263  0.1149
  170SAPE   H7R19142   3.799   1.592   4.099  0.9081  0.1606  0.2362
  170SAPE   H7S19143   3.656   1.666   4.183 -0.8855  0.0567 -3.6865
  170SAPE   C2819144   3.852   1.691   4.274 -0.0696 -0.2756  0.0339
  170SAPE   H8R19145   3.952   1.730   4.248 -0.1233 -0.1002  0.0872
  170SAPE   C2919146   3.828   1.663   4.401  0.5409 -0.5804 -0.2993
  170SAPE   H9R19147   3.908   1.688   4.472  0.5991 -0.8407 -0.2712
  170SAPE  C21019148   3.699   1.606   4.449 -0.5206  0.1654  0.5069
  170SAPE  H10R19149   3.656   1.533   4.378 -0.0956  0.5416 -0.1512
  170SAPE  H10S19150   3.619   1.683   4.455 -0.7378 -0.1367  2.0511
  170SAPE  C21119151   3.718   1.562   4.592 -0.0259  0.7322  0.3852
  170SAPE  H11R19152   3.810   1.594   4.643  0.4570  0.7047 -0.4548
  170SAPE  C21219153   3.640   1.481   4.659  0.7779  0.0868 -0.0192
  170SAPE  H12R19154   3.650   1.467   4.767 -2.5132  0.4445  0.4359
  170SAPE  C21319155   3.517   1.412   4.598 -0.1346 -0.3564  0.8615
  170SAPE  H13R19156   3.466   1.489   4.536  1.2554 -0.6053 -0.6464
  170SAPE  H13S19157   3.445   1.390   4.680  0.3622 -0.1555  1.3622
  170SAPE  C21419158   3.570   1.288   4.523  0.4639 -1.0196 -0.3508
  170SAPE  H14R19159   3.645   1.317   4.448  0.2209 -0.7476 -0.4914
  170SAPE  C21519160   3.541   1.158   4.531 -1.1407  0.4562 -0.6391
  170SAPE  H15R19161   3.594   1.085   4.467 -0.6984  0.4044 -0.2210
  170SAPE  C21619162   3.460   1.098   4.641  0.0718  0.8128  0.7757
  170SAPE  H16R19163   3.429   0.995   4.612  1.0771  0.3310  1.3543
  170SAPE  H16S19164   3.371   1.157   4.673 -1.2720 -0.9109  0.3993
  170SAPE  C21719165   3.550   1.066   4.763 -0.1198 -0.4873 -0.3171
  170SAPE  H17R19166   3.597   1.156   4.809 -0.2392 -0.0866 -0.9716
  170SAPE  H17S19167   3.635   1.014   4.713 -0.9914 -0.0404 -2.3374
  170SAPE  C21819168   3.478   0.974   4.867 -0.2219 -0.5008  0.2713
  170SAPE  H18R19169   3.446   0.884   4.810 -2.2078  1.3930 -1.8177
  170SAPE  H18S19170   3.398   1.035   4.914  1.9810  3.2559 -0.4808
  170SAPE  C21919171   3.575   0.933   4.979 -0.7801 -0.6758 -0.9507
  170SAPE  H19R19172   3.608   1.029   5.023 -2.2531  0.3344 -1.9594
  170SAPE  H19S19173   3.659   0.872   4.940  1.0895  1.4671 -0.4208
  170SAPE  C22019174   3.510   0.859   5.093 -0.4571  0.4397  0.1426
  170SAPE  H20R19175   3.587   0.829   5.168 -1.9936 -1.4792  1.0440
  170SAPE  H20S19176   3.459   0.764   5.067  0.1772  0.4987 -1.4501
  170SAPE  H20T19177   3.445   0.932   5.146 -4.3312 -1.6798 -1.3712
  170SAPE   C3319178   4.280   2.080   3.856 -0.2704  0.2343  0.8177
  170SAPE   H3X19179   4.172   2.092   3.832 -0.2879  1.1610  1.3123
  170SAPE   H3Y19180   4.325   2.172   3.811  0.3410  0.1324  1.2043
  170SAPE   C3419181   4.295   2.066   3.998  0.4250 -1.0315  0.3899
  170SAPE   H4X19182   4.399   2.030   4.015  0.2045 -2.1656 -0.5082
  170SAPE   H4Y19183   4.220   1.990   4.030 -0.9889  0.7899  1.6556
  170SAPE   C3519184   4.279   2.195   4.076  0.6303 -0.2239 -0.3197
  170SAPE   H5X19185   4.185   2.247   4.050  1.4610  1.5839  0.1085
  170SAPE   H5Y19186   4.350   2.259   4.020  2.2928  0.4046  2.3260
  170SAPE   C3619187   4.305   2.189   4.228  0.4921  0.7610  0.0594
  170SAPE   H6X19188   4.408   2.152   4.246  0.9114  0.9216 -1.7546
  170SAPE   H6Y19189   4.246   2.105   4.269  0.9951 -0.6518 -1.9655
  170SAPE   C3719190   4.278   2.318   4.298 -0.4079 -0.1245 -0.4029
  170SAPE   H7X19191   4.297   2.297   4.406 -1.0962 -0.5442 -0.3585
  170SAPE   H7Y19192   4.173   2.350   4.280 -1.1234 -2.5564 -0.8747
  170SAPE   C3819193   4.381   2.424   4.259 -0.3575  0.1831 -0.0376
  170SAPE   H8X19194   4.345   2.469   4.164 -1.9373 -0.2723  0.3168
  170SAPE   H8Y19195   4.481   2.380   4.241 -0.4057  0.2047 -0.3777
  170SAPE   C3919196   4.380   2.544   4.364 -0.1324  0.8081  0.6920
  170SAPE   H9X19197   4.278   2.566   4.401 -0.5320 -0.7072  0.5484
  170SAPE   H9Y19198   4.427   2.637   4.325  1.3043 -0.8190 -1.7318
  170SAPE  C31019199   4.463   2.504   4.481  0.2585 -0.1216 -0.7540
  170SAPE  H10X19200   4.569   2.494   4.449  0.0545  1.9346 -2.3153
  170SAPE  H10Y19201   4.427   2.404   4.514 -0.2017  0.1620 -0.3776
  170SAPE  C31119202   4.462   2.603   4.596 -0.1211  0.2764  0.2474
  170SAPE  H11X19203   4.355   2.611   4.625 -0.8247 -1.8755 -1.4984
  170SAPE  H11Y19204   4.489   2.704   4.559  0.3571  0.3421  0.7539
  170SAPE  C31219205   4.557   2.565   4.711 -0.4873 -0.0473  0.4587
  170SAPE  H12X19206   4.663   2.556   4.680 -0.1802  2.3678  0.6101
  170SAPE  H12Y19207   4.535   2.462   4.746 -0.3286 -0.8546 -1.6652
  170SAPE  C31319208   4.543   2.665   4.826 -0.6233 -0.1102 -0.2210
  170SAPE  H13X19209   4.621   2.638   4.900 -0.4325  2.4065  0.5959
  170SAPE  H13Y19210   4.442   2.646   4.868 -0.6341  0.7475  0.1633
  170SAPE  C31419211   4.560   2.823   4.804 -0.1465 -0.8684 -0.0892
  170SAPE  H14X19212   4.476   2.846   4.734 -1.4801 -1.1759  1.3707
  170SAPE  H14Y19213   4.658   2.845   4.757  0.2929 -0.0675  1.1526
  170SAPE  C31519214   4.554   2.911   4.936  0.3870 -0.3027 -0.0076
  170SAPE  H15X19215   4.492   2.846   5.000  1.2730  1.5568  2.9421
  170SAPE  H15Y19216   4.499   3.005   4.912 -2.9963 -2.2358 -0.3799
  170SAPE  C31619217   4.690   2.931   4.998  0.2997  0.2994  0.5449
  170SAPE  H16X19218   4.764   2.940   4.915 -0.0860 -3.3424 -0.3606
  170SAPE  H16Y19219   4.721   2.845   5.060  3.0862  0.9368  0.2098
  170SAPE  C31719220   4.707   3.056   5.084 -0.7454 -0.3493 -0.3373
  170SAPE  H17X19221   4.675   3.148   5.030 -1.1632  0.6792  1.5702
  170SAPE  H17Y19222   4.814   3.071   5.110 -1.2213 -1.4248  2.6663
  170SAPE  C31819223   4.628   3.052   5.217 -0.3945  0.5309 -0.0799
  170SAPE  H18X19224   4.529   3.016   5.183  0.7601 -0.4989 -2.5980
  170SAPE  H18Y19225   4.632   3.149   5.270  3.3587  0.5782 -0.2003
  170SAPE  H18Z19226   4.661   2.973   5.288 -1.8349  0.2278  0.2832
  171SAPE     N19227   5.191   0.302   3.056  0.1743  0.3646 -0.0923
  171SAPE   HN119228   5.112   0.351   3.103 -0.5287 -2.0729  1.4489
  171SAPE   HN219229   5.174   0.200   3.053  0.1780  0.1307  3.6318
  171SAPE   HN319230   5.270   0.310   3.123  0.4928  0.2650 -0.4521
  171SAPE   C1219231   5.226   0.366   2.924  0.2404  0.6302  0.4683
  171SAPE  H12A19232   5.158   0.327   2.846  2.6774 -0.9598 -1.0014
  171SAPE  H12B19233   5.334   0.348   2.905  0.2607  2.8538 -2.2049
  171SAPE   C1119234   5.201   0.521   2.929 -0.0856  0.5209  0.0348
  171SAPE  H11A19235   5.235   0.568   2.834  0.3049  2.3693  1.0219
  171SAPE  H11B19236   5.265   0.563   3.011 -2.1343 -0.8278  2.4495
  171SAPE     P19237   5.035   0.711   2.997  0.3093 -0.1200 -0.4766
  171SAPE   O1319238   5.076   0.782   2.869 -0.2344 -0.0068 -0.5327
  171SAPE   O1419239   4.896   0.734   3.054 -0.5455 -1.0167 -0.1595
  171SAPE   O1219240   5.067   0.558   2.968 -0.2399 -0.3709  0.0707
  171SAPE   O1119241   5.142   0.747   3.108 -0.0786 -0.1123 -1.1171
  171SAPE    C119242   5.144   0.679   3.237 -0.0183  0.4410  0.4451
  171SAPE    HA19243   5.050   0.702   3.290 -1.8416  0.5187 -2.5762
  171SAPE    HB19244   5.141   0.569   3.222  0.3575  0.2734  1.5023
  171SAPE    C219245   5.252   0.737   3.336  0.0180  0.5893 -0.1033
  171SAPE    HS19246   5.281   0.656   3.407  0.8966  1.7015  0.8532
  171SAPE   O2119247   5.194   0.852   3.403  0.0533 -0.1247  0.5445
  171SAPE   C2119248   5.232   0.869   3.527  0.4037 -0.0341 -0.4452
  171SAPE   O2219249   5.293   0.786   3.591 -0.0419 -0.5216 -0.3472
  171SAPE   C2219250   5.185   1.011   3.572 -0.0664  0.1230  0.9616
  171SAPE   H2R19251   5.074   1.014   3.575 -0.1272  0.5648 -0.6712
  171SAPE   H2S19252   5.207   1.023   3.680  2.2030 -0.5827  0.6323
  171SAPE    C319253   5.376   0.763   3.260 -0.7588 -0.3482  1.0435
  171SAPE    HX19254   5.362   0.817   3.164 -2.0363  1.0459  1.9663
  171SAPE    HY19255   5.417   0.663   3.237 -1.2186  0.2386 -3.1849
  171SAPE   O3119256   5.457   0.855   3.335  0.8624  0.2061  0.8344
  171SAPE   C3119257   5.582   0.874   3.295  0.2596 -0.4879 -0.5474
  171SAPE   O3219258   5.633   0.814   3.204 -0.5577  0.2553  0.2955
  171SAPE   C3219259   5.649   0.966   3.384 -0.6112  0.0701 -0.4969
  171SAPE   H2X19260   5.629   0.935   3.489 -2.1572  3.0919  0.2025
  171SAPE   H2Y19261   5.606   1.067   3.376  0.0196  0.1836 -3.4313
  171SAPE   C2319262   5.243   1.124   3.488  0.2181 -0.2607  0.3737
  171SAPE   H3R19263   5.199   1.122   3.386  1.8865  1.1719 -0.4332
  171SAPE   H3S19264   5.352   1.105   3.475  0.4540  2.2943 -2.6585
  171SAPE   C2419265   5.227   1.258   3.559 -0.4346  0.1814 -0.4061
  171SAPE   H4R19266   5.266   1.258   3.663  0.9787 -0.4101 -0.9177
  171SAPE   H4S19267   5.119   1.283   3.571 -0.3112  0.5455 -0.0486
  171SAPE   C2519268   5.284   1.370   3.472 -0.5957 -0.0219  0.3154
  171SAPE   H5R19269   5.359   1.339   3.397 -0.7314  2.1839 -0.8302
  171SAPE   C2619270   5.255   1.498   3.478  0.6348 -0.4805 -1.0144
  171SAPE   H6R19271   5.308   1.569   3.413  0.8940  0.5731  0.3071
  171SAPE   C2719272   5.176   1.568   3.581  0.7461 -0.0807 -0.2315
  171SAPE   H7R19273   5.072   1.531   3.579 -0.2826  2.5747  0.4041
  171SAPE   H7S19274   5.155   1.672   3.548 -0.5185 -0.3562 -0.3390
  171SAPE   C2819275   5.233   1.590   3.722  0.8629 -0.1602  0.6408
  171SAPE   H8R19276   5.334   1.633   3.722  0.8477 -0.0769 -0.6328
  171SAPE   C2919277   5.175   1.546   3.837 -0.1415  0.7206  0.4574
  171SAPE   H9R19278   5.235   1.526   3.928 -0.3131 -0.3756  0.3433
  171SAPE  C21019279   5.037   1.487   3.849  0.5838  0.3820 -0.8000
  171SAPE  H10R19280   4.974   1.518   3.763 -0.1155  3.1681  0.5742
  171SAPE  H10S19281   4.986   1.550   3.925 -2.1431 -0.3731 -1.8958
  171SAPE  C21119282   5.040   1.334   3.864 -0.5552  0.1320 -0.0229
  171SAPE  H11R19283   5.102   1.279   3.791  1.3801 -0.1769  1.7650
  171SAPE  C21219284   4.968   1.254   3.945 -0.5725 -0.6916 -0.0500
  171SAPE  H12R19285   4.989   1.147   3.934  0.7647 -0.4030 -0.4964
  171SAPE  C21319286   4.851   1.296   4.035 -0.4308 -0.0938  0.6191
  171SAPE  H13R19287   4.767   1.230   4.003  1.1612 -1.2554 -1.4260
  171SAPE  H13S19288   4.840   1.406   4.032  0.4737  0.1622  3.4456
  171SAPE  C21419289   4.877   1.254   4.181  0.1748 -0.2653  0.7809
  171SAPE  H14R19290   4.977   1.281   4.219  0.8504 -1.7438  0.1392
  171SAPE  C21519291   4.788   1.196   4.262 -0.1415 -0.0671 -0.7499
  171SAPE  H15R19292   4.823   1.192   4.366  1.5153  0.7878 -1.2461
  171SAPE  C21619293   4.641   1.161   4.245 -0.6867 -0.3897  0.5831
  171SAPE  H16R19294   4.631   1.056   4.277  2.2465 -1.0327 -0.3128
  171SAPE  H16S19295   4.623   1.159   4.135  1.2914  1.9607  0.1300
  171SAPE  C21719296   4.554   1.257   4.323  0.1838  0.2962  0.6701
  171SAPE  H17R19297   4.454   1.251   4.275  0.0122 -0.5148  1.1090
  171SAPE  H17S19298   4.571   1.363   4.294 -2.3583 -0.1301 -3.0353
  171SAPE  C21819299   4.556   1.229   4.472  0.1193 -0.0071 -0.9431
  171SAPE  H18R19300   4.642   1.273   4.528 -0.4569  0.0445 -0.0828
  171SAPE  H18S19301   4.556   1.122   4.498  1.6559  0.3814  0.8721
  171SAPE  C21919302   4.425   1.291   4.528 -1.1760 -0.8349 -0.7978
  171SAPE  H19R19303   4.339   1.250   4.470 -1.2112 -1.5232 -0.2658
  171SAPE  H19S19304   4.427   1.399   4.500  0.2430 -0.8537 -0.8051
  171SAPE  C22019305   4.398   1.266   4.675 -0.5398  0.1237  0.7022
  171SAPE  H20R19306   4.471   1.304   4.749 -0.1525 -0.9662  0.8982
  171SAPE  H20S19307   4.379   1.156   4.683  0.2513 -0.0389  0.4282
  171SAPE  H20T19308   4.305   1.316   4.707 -0.5792 -1.0013  2.4904
  171SAPE   C3319309   5.807   0.957   3.374 -0.6228 -0.4239 -0.5719
  171SAPE   H3X19310   5.831   0.970   3.267  2.4267 -0.3081  0.0342
  171SAPE   H3Y19311   5.846   0.858   3.409 -2.3507 -0.6920  0.7675
  171SAPE   C3419312   5.883   1.075   3.452  0.3920  0.6504 -0.2028
  171SAPE   H4X19313   5.842   1.168   3.407  1.1505 -0.1962 -2.8451
  171SAPE   H4Y19314   5.990   1.073   3.421  0.7143  1.1325  0.8507
  171SAPE   C3519315   5.876   1.073   3.605 -0.3031  0.2881  0.4702
  171SAPE   H5X19316   5.768   1.055   3.624  0.1009 -1.2461  1.4906
  171SAPE   H5Y19317   5.888   1.172   3.654 -1.3552 -0.5092  2.4762
  171SAPE   C3619318   5.968   0.964   3.674 -1.3626  0.5486 -0.1645
  171SAPE   H6X19319   6.070   1.007   3.666 -1.3342  0.6971  0.9454
  171SAPE   H6Y19320   5.966   0.875   3.607  1.0275  0.8052 -0.6649
  171SAPE   C3719321   5.942   0.933   3.824  0.4033  0.3963 -0.2925
  171SAPE   H7X19322   6.019   0.862   3.862  1.1679  1.3576 -0.0138
  171SAPE   H7Y19323   5.847   0.874   3.823 -0.4389  1.6761 -2.0804
  171SAPE   C3819324   5.946   1.060   3.915  0.1041  0.3027 -0.4817
  171SAPE   H8X19325   5.887   1.148   3.881 -1.4785 -1.3715 -2.3075
  171SAPE   H8Y19326   6.051   1.095   3.919  0.3899 -0.5045 -0.7334
  171SAPE   C3919327   5.888   1.022   4.056 -0.2980 -0.1729  0.2322
  171SAPE   H9X19328   5.940   0.933   4.096  1.6735  0.4259 -0.8706
  171SAPE   H9Y19329   5.784   0.997   4.026 -0.4747  0.0464  0.6500
  171SAPE  C31019330   5.880   1.137   4.159 -0.7428  0.7186  0.9560
  171SAPE  H10X19331   5.848   1.227   4.102  0.2399  0.8549  0.5967
  171SAPE  H10Y19332   5.977   1.158   4.209  0.2875  1.4950 -1.2453
  171SAPE  C31119333   5.786   1.104   4.269  0.6638 -0.2302  0.0929
  171SAPE  H11X19334   5.691   1.063   4.228  0.8049 -1.1592  0.6752
  171SAPE  H11Y19335   5.762   1.202   4.318  0.5518  0.8413 -1.9904
  171SAPE  C31219336   5.840   1.008   4.369 -0.5156 -0.2528  0.4954
  171SAPE  H12X19337   5.943   1.043   4.390 -1.2957  2.3372  0.4537
  171SAPE  H12Y19338   5.837   0.908   4.322 -0.9669  0.6890 -1.5991
  171SAPE  C31319339   5.754   0.998   4.496  0.2670 -0.6254 -0.0481
  171SAPE  H13X19340   5.802   0.919   4.556  0.4239 -0.9175 -0.5525
  171SAPE  H13Y19341   5.655   0.958   4.464  0.9375 -0.6406 -2.2503
  171SAPE  C31419342   5.742   1.130   4.574 -0.0900  0.2199  0.1826
  171SAPE  H14X19343   5.709   1.219   4.516  1.6953 -0.2474 -1.6528
  171SAPE  H14Y19344   5.838   1.165   4.618 -0.3466  0.0560  0.8886
  171SAPE  C31519345   5.649   1.111   4.689 -0.6789 -0.1380  0.2138
  171SAPE  H15X19346   5.676   1.020   4.746 -1.6169 -1.5461 -1.5054
  171SAPE  H15Y19347   5.542   1.105   4.657 -0.7821  2.9770 -0.3720
  171SAPE  C31619348   5.670   1.233   4.787 -0.5334  0.1628 -0.9744
  171SAPE  H16X19349   5.638   1.325   4.734  0.5704  0.3595 -1.3368
  171SAPE  H16Y19350   5.780   1.237   4.804 -0.2387  0.4450 -2.7353
  171SAPE  C31719351   5.610   1.220   4.924  0.4471  0.4559  0.2478
  171SAPE  H17X19352   5.499   1.230   4.916  0.3410 -0.7641  0.0465
  171SAPE  H17Y19353   5.639   1.303   4.993  0.5731  1.3157 -0.8196
  171SAPE  C31819354   5.648   1.095   5.001 -0.5123  0.8848  0.1580
  171SAPE  H18X19355   5.615   0.998   4.958 -3.8600  0.7494  2.6455
  171SAPE  H18Y19356   5.600   1.101   5.101 -0.1663  3.3490  0.2283
  171SAPE  H18Z19357   5.757   1.086   5.021 -0.9065 -1.3798  1.7037
  172SAPE     N19358   5.965   3.749   3.310 -0.3526  0.9676 -0.0747
  172SAPE   HN119359   6.023   3.692   3.245  1.6631 -1.3071  3.3592
  172SAPE   HN219360   6.032   3.778   3.384  0.7905 -1.0590 -0.2369
  172SAPE   HN319361   5.897   3.684   3.354  0.2352  0.9698  0.8605
  172SAPE   C1219362   5.900   3.870   3.246 -0.9658  0.1836  0.0325
  172SAPE  H12A19363   5.826   3.835   3.170  0.2765  0.9424 -1.5839
  172SAPE  H12B19364   5.985   3.925   3.201 -2.0473  0.5070 -1.7226
  172SAPE   C1119365   5.852   3.972   3.354 -1.5756 -0.4890 -0.0502
  172SAPE  H11A19366   5.802   3.910   3.431  0.4649 -1.2541  0.7220
  172SAPE  H11B19367   5.784   4.054   3.321 -1.8043 -1.3771 -1.9822
  172SAPE     P19368   5.999   4.160   3.477 -0.1866  0.3584  0.0660
  172SAPE   O1319369   6.125   4.205   3.413 -0.1483  0.7858 -0.6786
  172SAPE   O1419370   5.883   4.240   3.461  0.6069 -0.7359 -0.2892
  172SAPE   O1219371   5.964   4.017   3.423  0.0714 -0.0757 -0.3059
  172SAPE   O1119372   6.028   4.131   3.630 -0.3670 -0.6679  0.2578
  172SAPE    C119373   5.999   4.005   3.685 -1.1673  0.2592 -0.5564
  172SAPE    HA19374   6.025   3.922   3.616 -3.5960 -1.9336  0.9669
  172SAPE    HB19375   6.057   3.993   3.779 -0.3100 -0.8993 -1.2175
  172SAPE    C219376   5.849   3.984   3.722 -0.5940 -0.3842 -0.0769
  172SAPE    HS19377   5.795   3.996   3.625 -2.5098 -0.5703  0.9229
  172SAPE   O2119378   5.818   4.073   3.828 -0.6746 -0.2664 -0.3698
  172SAPE   C2119379   5.684   4.091   3.826 -0.2559 -0.3180 -0.3394
  172SAPE   O2219380   5.608   4.057   3.739  0.2174  0.6230 -0.2191
  172SAPE   C2219381   5.640   4.174   3.948  0.9711 -0.6856  0.1940
  172SAPE   H2R19382   5.659   4.114   4.039 -2.1206  0.9778  2.1204
  172SAPE   H2S19383   5.692   4.272   3.946  0.9010 -0.6379  0.7929
  172SAPE    C319384   5.822   3.842   3.773  0.0059  0.6974  0.2211
  172SAPE    HX19385   5.854   3.773   3.692 -2.5111  1.1018 -1.2043
  172SAPE    HY19386   5.718   3.812   3.795 -0.2843 -0.0422 -1.9432
  172SAPE   O3119387   5.917   3.812   3.878 -0.2816 -0.1665  0.3706
  172SAPE   C3119388   5.866   3.843   3.999 -0.7748 -0.6404  0.4883
  172SAPE   O3219389   5.755   3.886   4.023 -0.2635  0.0971 -0.4522
  172SAPE   C3219390   5.969   3.800   4.100  1.0018 -1.1670  0.2253
  172SAPE   H2X19391   6.071   3.816   4.061  1.5744 -4.1624  0.2928
  172SAPE   H2Y19392   5.952   3.692   4.117 -1.4624 -0.9452 -0.4378
  172SAPE   C2319393   5.488   4.219   3.946 -0.4451 -0.0701  0.6495
  172SAPE   H3R19394   5.425   4.130   3.926 -0.0394  0.2369 -2.5113
  172SAPE   H3S19395   5.486   4.283   3.855 -1.2315 -1.7115 -0.5321
  172SAPE   C2419396   5.447   4.292   4.077 -0.8053  0.1239 -0.3685
  172SAPE   H4R19397   5.337   4.303   4.088 -0.8925 -1.0887  0.1173
  172SAPE   H4S19398   5.495   4.392   4.068  0.8576 -0.5541  0.5386
  172SAPE   C2519399   5.483   4.232   4.208  0.4458  0.4268  0.2562
  172SAPE   H5R19400   5.446   4.129   4.222  0.1361  0.5609  0.4456
  172SAPE   C2619401   5.566   4.283   4.303  0.2135 -0.3847 -0.4100
  172SAPE   H6R19402   5.598   4.219   4.387  1.2962 -0.9906 -1.2501
  172SAPE   C2719403   5.623   4.425   4.303  0.0557  0.3536  0.4384
  172SAPE   H7R19404   5.606   4.471   4.403  1.2114  0.8812  0.3991
  172SAPE   H7S19405   5.569   4.495   4.236 -1.1895 -0.3786  0.6403
  172SAPE   C2819406   5.769   4.418   4.266 -0.5206  0.6006  0.5622
  172SAPE   H8R19407   5.796   4.336   4.198 -1.6901  1.6982 -1.3332
  172SAPE   C2919408   5.868   4.507   4.310 -0.2879 -0.5132  0.7082
  172SAPE   H9R19409   5.971   4.481   4.279 -0.6933 -1.8086  0.3953
  172SAPE  C21019410   5.858   4.617   4.427 -0.2327 -0.1379 -0.7771
  172SAPE  H10R19411   5.783   4.584   4.502 -0.3051  0.0685 -0.7595
  172SAPE  H10S19412   5.806   4.704   4.381  0.4819  1.6389  1.5738
  172SAPE  C21119413   5.982   4.669   4.500 -0.0382 -0.2851  0.0882
  172SAPE  H11R19414   6.066   4.701   4.437  1.3239 -1.6282  1.1393
  172SAPE  C21219415   6.007   4.678   4.633 -0.1957  0.5462 -0.2472
  172SAPE  H12R19416   6.102   4.726   4.661  0.0532 -0.1898  0.1879
  172SAPE  C21319417   5.920   4.620   4.747 -0.3882  0.0641  0.3149
  172SAPE  H13R19418   5.827   4.681   4.754  0.0940  0.8283  0.1080
  172SAPE  H13S19419   5.969   4.636   4.846  2.8387  0.3974 -1.2222
  172SAPE  C21419420   5.879   4.472   4.736  0.0942 -0.3619 -0.0889
  172SAPE  H14R19421   5.925   4.418   4.652  0.4441 -0.6223  0.2635
  172SAPE  C21519422   5.797   4.409   4.819 -0.4081  0.1898  0.3483
  172SAPE  H15R19423   5.772   4.305   4.794  0.8417  0.0319 -0.3654
  172SAPE  C21619424   5.717   4.474   4.928  0.0586  0.0153  0.1887
  172SAPE  H16R19425   5.612   4.447   4.903 -0.1412  1.3497 -0.5245
  172SAPE  H16S19426   5.720   4.582   4.951 -3.8470  0.1257  0.9142
  172SAPE  C21719427   5.752   4.411   5.063 -0.0013  0.8859 -0.3017
  172SAPE  H17R19428   5.687   4.456   5.140  1.3701  0.8217  0.9311
  172SAPE  H17S19429   5.858   4.430   5.090 -0.3605  1.2215  0.9066
  172SAPE  C21819430   5.735   4.254   5.081  0.3777  0.1107  0.0620
  172SAPE  H18R19431   5.786   4.202   4.997  1.1706  2.0461 -0.6990
  172SAPE  H18S19432   5.625   4.235   5.082  0.8777 -3.7286 -0.0598
  172SAPE  C21919433   5.803   4.209   5.213 -0.2435  0.3588 -0.8883
  172SAPE  H19R19434   5.751   4.263   5.296 -1.0963 -2.0552  0.2414
  172SAPE  H19S19435   5.911   4.234   5.212  0.2022 -1.4376 -2.0322
  172SAPE  C22019436   5.789   4.053   5.246 -0.0071 -0.0699  0.3957
  172SAPE  H20R19437   5.805   3.992   5.154  2.9740 -0.6925  1.2245
  172SAPE  H20S19438   5.695   4.032   5.302  0.6171 -2.7423  0.5664
  172SAPE  H20T19439   5.871   4.034   5.317  0.0912  1.1524  0.6155
  172SAPE   C3319440   5.947   3.870   4.241 -0.1401 -0.4413  0.4658
  172SAPE   H3X19441   5.998   3.804   4.314 -2.8367 -1.1178  1.8498
  172SAPE   H3Y19442   5.839   3.874   4.267 -0.4219 -3.2170  0.0884
  172SAPE   C3419443   6.004   4.010   4.260 -0.2250 -0.3040  0.6569
  172SAPE   H4X19444   5.947   4.096   4.218  2.6103  3.4979  3.7401
  172SAPE   H4Y19445   6.100   4.010   4.204 -1.4739 -0.3620 -1.6037
  172SAPE   C3519446   6.021   4.047   4.408  0.5236 -0.7860 -0.5073
  172SAPE   H5X19447   6.067   4.148   4.418  0.7713 -1.0092  0.7164
  172SAPE   H5Y19448   6.106   3.993   4.454 -0.0500  0.7945  2.6431
  172SAPE   C3619449   5.894   4.034   4.495 -0.4478 -0.1267 -0.9449
  172SAPE   H6X19450   5.843   3.936   4.491 -0.1873 -0.3119 -0.0583
  172SAPE   H6Y19451   5.836   4.111   4.441  0.5456 -1.9517 -4.9419
  172SAPE   C3719452   5.916   4.067   4.648 -0.5608 -0.5259  0.8270
  172SAPE   H7X19453   5.815   4.081   4.693 -0.1684 -2.9212  2.6742
  172SAPE   H7Y19454   5.987   4.150   4.665 -0.4403 -0.3568 -0.4286
  172SAPE   C3819455   5.963   3.942   4.729 -0.1415 -0.2048  0.6324
  172SAPE   H8X19456   6.061   3.920   4.682  0.6517  0.4670  1.9156
  172SAPE   H8Y19457   5.890   3.861   4.708  0.5293 -0.4300 -0.9744
  172SAPE   C3919458   5.955   3.977   4.881 -0.4872 -0.2253  0.4752
  172SAPE   H9X19459   5.996   3.883   4.925 -0.6683 -0.6189 -0.1882
  172SAPE   H9Y19460   5.847   3.992   4.902 -1.7999  1.0386 -5.3748
  172SAPE  C31019461   6.052   4.081   4.929  0.3075 -0.0521 -0.4597
  172SAPE  H10X19462   6.069   4.057   5.036  1.8635 -0.6585 -0.8279
  172SAPE  H10Y19463   6.013   4.185   4.917  0.4276  0.5788  3.3924
  172SAPE  C31119464   6.185   4.073   4.863 -0.2986 -0.0137  0.6111
  172SAPE  H11X19465   6.170   4.096   4.755  1.8665  0.7778  0.4247
  172SAPE  H11Y19466   6.228   3.971   4.874  1.8623  0.8517  0.6795
  172SAPE  C31219467   6.296   4.158   4.933 -0.2873  0.0593  0.0953
  172SAPE  H12X19468   6.388   4.142   4.874 -0.5496  1.9096 -0.8988
  172SAPE  H12Y19469   6.307   4.135   5.041 -1.0520  1.8415  0.5958
  172SAPE  C31319470   6.255   4.304   4.937  0.3464  0.5203 -0.0411
  172SAPE  H13X19471   6.172   4.330   5.006  1.6042  1.0297  1.3272
  172SAPE  H13Y19472   6.236   4.328   4.830  2.2914 -2.6636 -1.2690
  172SAPE  C31419473   6.377   4.393   4.985  0.4757  0.0311 -0.4832
  172SAPE  H14X19474   6.464   4.370   4.920 -0.3692 -1.5841 -1.0916
  172SAPE  H14Y19475   6.402   4.367   5.090  1.5001 -0.6592 -0.8898
  172SAPE  C31519476   6.336   4.544   4.985 -0.1842 -0.2271 -0.0510
  172SAPE  H15X19477   6.306   4.579   4.884  1.5388  0.9581 -0.2036
  172SAPE  H15Y19478   6.437   4.585   5.011  0.0118 -1.5321  1.3971
  172SAPE  C31619479   6.233   4.579   5.089  0.3027 -0.0542  0.7120
  172SAPE  H16X19480   6.272   4.556   5.190  1.6954  1.3756  0.5496
  172SAPE  H16Y19481   6.143   4.516   5.075  0.9647 -0.7858 -0.3417
  172SAPE  C31719482   6.195   4.723   5.069 -0.0672 -0.0686  0.2219
  172SAPE  H17X19483   6.187   4.742   4.960  0.4640 -0.7481  0.0660
  172SAPE  H17Y19484   6.290   4.771   5.101  0.7919 -1.1182 -0.6952
  172SAPE  C31819485   6.075   4.782   5.152 -0.2161  0.9122  0.9229
  172SAPE  H18X19486   6.102   4.824   5.252 -2.2418  3.0745  0.6343
  172SAPE  H18Y19487   6.002   4.701   5.173 -0.2600  1.3448  2.6556
  172SAPE  H18Z19488   6.024   4.865   5.099 -0.3370 -0.7085 -1.6347
  173SLPC     N19489   6.276   4.444   8.209  0.6397  0.1115 -0.7820
  173SLPC   C1319490   6.419   4.469   8.234  0.2415 -0.7025 -0.2652
  173SLPC  H13A19491   6.487   4.386   8.226 -1.3262 -2.0367 -0.2944
  173SLPC  H13B19492   6.453   4.542   8.163 -1.2485 -0.3838 -0.6915
  173SLPC  H13C19493   6.441   4.516   8.329 -0.9260  0.6277 -0.6117
  173SLPC   C1419494   6.207   4.574   8.225  0.2805  0.1963  0.3029
  173SLPC  H14A19495   6.108   4.572   8.182 -0.8272 -0.7182  2.7539
  173SLPC  H14B19496   6.195   4.617   8.323 -3.3620 -1.0179  0.5227
  173SLPC  H14C19497   6.275   4.644   8.177 -0.2096  1.1242  0.9440
  173SLPC   C1519498   6.219   4.343   8.311  0.0636  0.3272 -0.2819
  173SLPC  H15A19499   6.263   4.248   8.286  0.1870  0.5437 -0.9078
  173SLPC  H15B19500   6.259   4.370   8.408  1.8423  0.8354 -1.1167
  173SLPC  H15C19501   6.112   4.339   8.321  0.0914  1.8174  1.0665
  173SLPC   C1219502   6.260   4.393   8.065 -0.0158  0.9679 -0.1072
  173SLPC  H12A19503   6.318   4.304   8.045  0.2917  1.4694 -1.6069
  173SLPC  H12B19504   6.301   4.467   7.998 -0.9762  2.3598  0.7826
  173SLPC   C1119505   6.114   4.366   8.015  0.0469  0.0289  0.1494
  173SLPC  H11A19506   6.081   4.273   8.067 -0.7909 -0.1833 -0.7313
  173SLPC  H11B19507   6.120   4.337   7.908 -1.9473 -0.7510  0.2075
  173SLPC     P19508   5.869   4.447   8.023 -0.2495 -0.0965  0.2469
  173SLPC   O1319509   5.840   4.328   8.101  0.0546 -0.4103  0.3966
  173SLPC   O1419510   5.788   4.569   8.058  0.2402 -0.2098  0.2521
  173SLPC   O1219511   6.018   4.473   8.018  0.0551  0.1416  0.6542
  173SLPC   O1119512   5.837   4.417   7.870  0.0104  0.1694 -0.4590
  173SLPC    C119513   5.886   4.485   7.757  0.7342 -1.4221 -0.0932
  173SLPC    HA19514   5.891   4.594   7.775 -1.0639 -0.8560 -2.5373
  173SLPC    HB19515   5.992   4.457   7.736  0.0677 -2.9576 -1.6244
  173SLPC    C219516   5.790   4.465   7.631 -0.6581  0.1011  0.3682
  173SLPC    HS19517   5.688   4.477   7.672 -0.5858 -0.1748  0.6319
  173SLPC   O2119518   5.808   4.329   7.579 -0.0622 -0.6217 -0.3268
  173SLPC   C2119519   5.701   4.266   7.537 -0.4867 -0.4668  0.1017
  173SLPC   O2219520   5.586   4.301   7.553  0.1673 -0.2690 -0.3656
  173SLPC   C2219521   5.741   4.148   7.448 -0.4835 -0.1734 -0.3887
  173SLPC   H2R19522   5.837   4.109   7.488 -0.7312  0.7963  1.2374
  173SLPC   H2S19523   5.663   4.069   7.452 -0.2452 -0.3650  0.9689
  173SLPC    C319524   5.813   4.568   7.520  0.3542  0.3836 -0.3321
  173SLPC    HX19525   5.916   4.556   7.479  0.3756 -0.5345 -0.0113
  173SLPC    HY19526   5.811   4.669   7.567 -1.6213 -0.0749  0.6459
  173SLPC   O3119527   5.721   4.546   7.412  0.3879 -0.1025  0.1550
  173SLPC   C3119528   5.606   4.616   7.414 -0.0953 -0.1440  0.0780
  173SLPC   O3219529   5.576   4.690   7.508  0.1799  0.8811  0.5153
  173SLPC   C3219530   5.515   4.568   7.299  0.9903  0.5710  0.6039
  173SLPC   H2X19531   5.514   4.457   7.298  2.4467  0.5231  1.4868
  173SLPC   H2Y19532   5.559   4.599   7.201 -1.4607  1.1615 -0.3833
  173SLPC   C2319533   5.752   4.211   7.304 -0.2963 -0.3539 -0.0146
  173SLPC   H3R19534   5.815   4.302   7.305  1.2721 -1.3816  1.6681
  173SLPC   H3S19535   5.647   4.240   7.281 -0.1447  1.3718  1.3415
  173SLPC   C2419536   5.803   4.114   7.202 -0.1262 -0.2914 -0.0677
  173SLPC   H4R19537   5.741   4.022   7.194  0.9796 -0.9350 -1.8557
  173SLPC   H4S19538   5.908   4.081   7.216 -0.5125 -2.5643 -1.9161
  173SLPC   C2519539   5.807   4.190   7.071  0.0490 -0.0612  0.8151
  173SLPC   H5R19540   5.867   4.283   7.087 -1.9868  1.4226  0.2836
  173SLPC   H5S19541   5.701   4.220   7.053 -0.3053 -2.9990 -3.3798
  173SLPC   C2619542   5.855   4.106   6.955  0.2780 -0.2464 -0.8263
  173SLPC   H6R19543   5.801   4.009   6.953 -0.3614  0.1119 -1.7432
  173SLPC   H6S19544   5.964   4.091   6.971  0.0595 -2.1558 -0.8955
  173SLPC   C2719545   5.836   4.184   6.820  0.1192 -0.5226  0.0185
  173SLPC   H7R19546   5.884   4.283   6.834  0.6996 -0.7925 -0.0304
  173SLPC   H7S19547   5.730   4.201   6.794  0.6457  2.2036 -0.6203
  173SLPC   C2819548   5.894   4.112   6.695  0.3992  0.8377  0.2135
  173SLPC   H8R19549   6.005   4.115   6.701  0.6026 -1.4151 -1.1890
  173SLPC   H8S19550   5.867   4.162   6.599  3.6349  1.3727 -0.5440
  173SLPC   C2919551   5.858   3.964   6.692 -0.2456  0.6433 -0.1033
  173SLPC   H9R19552   5.903   3.907   6.775 -0.1694  1.5851  0.5135
  173SLPC  C21019553   5.781   3.904   6.602 -0.5215  0.5321 -0.1177
  173SLPC  H10R19554   5.772   3.795   6.610 -1.4216  0.6657  1.0144
  173SLPC  C21119555   5.703   3.965   6.488 -0.4842 -0.6671  0.3870
  173SLPC  H11R19556   5.771   3.999   6.406  1.8471 -1.1993  1.9889
  173SLPC  H11S19557   5.660   4.063   6.519 -0.1272 -0.4706  0.2738
  173SLPC  C21219558   5.587   3.881   6.440 -0.2731  0.5378  0.1565
  173SLPC  H12R19559   5.514   3.851   6.516  0.4753 -2.2272 -0.0895
  173SLPC  C21319560   5.577   3.821   6.321  0.3570  0.1490  0.7303
  173SLPC  H13R19561   5.498   3.748   6.296 -1.1427  0.3189  4.4128
  173SLPC  C21419562   5.674   3.839   6.200 -0.0605 -0.3851  0.1748
  173SLPC  H14R19563   5.688   3.746   6.141  0.5307  0.3909 -0.9284
  173SLPC  H14S19564   5.778   3.851   6.237 -0.1825 -0.8331  0.6830
  173SLPC  C21519565   5.643   3.955   6.107 -0.3482  0.3652 -0.3681
  173SLPC  H15R19566   5.640   4.055   6.155  0.4234  0.4739 -0.5379
  173SLPC  H15S19567   5.546   3.934   6.057 -0.7275  1.6774 -0.2167
  173SLPC  C21619568   5.747   3.970   5.998 -0.1350 -0.5277  0.0857
  173SLPC  H16R19569   5.849   3.964   6.042  1.4941 -0.9845 -3.4068
  173SLPC  H16S19570   5.727   4.066   5.946 -1.3463 -1.4685 -1.2972
  173SLPC  C21719571   5.723   3.863   5.892  0.4241  0.7900  0.5151
  173SLPC  H17R19572   5.619   3.887   5.863  0.3121  1.1214  1.1683
  173SLPC  H17S19573   5.738   3.759   5.931 -0.3664  0.3969 -0.1993
  173SLPC  C21819574   5.805   3.884   5.764 -0.5521 -0.0360 -0.1530
  173SLPC  H18R19575   5.910   3.902   5.796 -0.4029 -0.6799 -0.2726
  173SLPC  H18S19576   5.764   3.974   5.714 -0.4819  0.4504  0.6517
  173SLPC  H18T19577   5.797   3.797   5.696 -0.8953  0.8155 -1.2340
  173SLPC   C3319578   5.369   4.621   7.313 -0.1040  0.2691 -0.2361
  173SLPC   H3X19579   5.369   4.725   7.274  1.8269  0.3197 -0.1631
  173SLPC   H3Y19580   5.342   4.612   7.421 -0.8187 -0.7596 -0.4802
  173SLPC   C3419581   5.272   4.540   7.225  0.1231  0.3695 -0.0798
  173SLPC   H4X19582   5.170   4.546   7.270  0.4943  0.1465  0.8284
  173SLPC   H4Y19583   5.308   4.435   7.223 -1.4907 -0.2025 -1.4408
  173SLPC   C3519584   5.277   4.605   7.085 -0.5998  0.7210 -0.4830
  173SLPC   H5X19585   5.379   4.632   7.049 -0.1862 -1.3043 -0.9714
  173SLPC   H5Y19586   5.215   4.696   7.070  1.5859  2.2884 -0.4900
  173SLPC   C3619587   5.235   4.507   6.981 -0.4651  0.4430  0.8404
  173SLPC   H6X19588   5.125   4.489   6.988 -0.7568 -1.0735 -3.8261
  173SLPC   H6Y19589   5.270   4.404   7.001  0.4477 -0.0688 -2.6471
  173SLPC   C3719590   5.264   4.544   6.834  0.0919  0.1546 -0.5698
  173SLPC   H7X19591   5.371   4.518   6.819 -0.0442 -1.7052  1.2962
  173SLPC   H7Y19592   5.254   4.654   6.819  2.2766  0.1008 -3.2991
  173SLPC   C3819593   5.180   4.461   6.732  0.0409  0.5061 -0.0249
  173SLPC   H8X19594   5.070   4.466   6.743 -0.3727  2.4496 -3.5272
  173SLPC   H8Y19595   5.220   4.357   6.728  0.4329  0.6835 -1.2927
  173SLPC   C3919596   5.211   4.512   6.583  0.4774  0.8120  0.9212
  173SLPC   H9X19597   5.314   4.489   6.548 -0.0916  0.0038 -0.2859
  173SLPC   H9Y19598   5.178   4.615   6.558 -0.7556 -0.1888 -1.9067
  173SLPC  C31019599   5.112   4.437   6.488 -0.6772 -0.2821  0.3526
  173SLPC  H10X19600   5.007   4.453   6.518 -1.5868 -2.4931 -1.3944
  173SLPC  H10Y19601   5.128   4.329   6.506 -2.3190 -0.4688  0.8351
  173SLPC  C31119602   5.137   4.482   6.346  0.3219  0.7513  0.5352
  173SLPC  H11X19603   5.234   4.446   6.303 -0.6923  0.1297 -1.3773
  173SLPC  H11Y19604   5.154   4.591   6.331  2.6399  0.2765 -0.9761
  173SLPC  C31219605   5.015   4.449   6.251  0.0492 -0.4178  0.2910
  173SLPC  H12X19606   4.917   4.484   6.288  0.5891  1.6456 -0.1138
  173SLPC  H12Y19607   5.002   4.339   6.255  1.5851 -0.6322  0.2039
  173SLPC  C31319608   5.035   4.495   6.109 -0.1271 -0.2038  0.6220
  173SLPC  H13X19609   5.124   4.442   6.068  1.4714  2.6166  0.1535
  173SLPC  H13Y19610   5.072   4.599   6.094  0.8931 -0.8739 -2.0486
  173SLPC  C31419611   4.916   4.486   6.011 -0.2319  0.1576 -0.0230
  173SLPC  H14X19612   4.830   4.531   6.064 -0.0688  0.0936  0.2963
  173SLPC  H14Y19613   4.887   4.381   5.989 -0.0844  0.5424 -2.2635
  173SLPC  C31519614   4.930   4.540   5.871 -0.8258 -0.0212 -0.3424
  173SLPC  H15X19615   4.949   4.649   5.883 -2.4244  0.1061  1.3954
  173SLPC  H15Y19616   4.829   4.548   5.824 -1.6464  0.9343  1.4903
  173SLPC  C31619617   5.039   4.476   5.784  0.5245 -0.5515  0.5464
  173SLPC  H16X19618   5.009   4.375   5.750  1.4913 -0.0017 -2.2248
  173SLPC  H16Y19619   5.122   4.468   5.857 -0.9366  0.0064  2.3493
  173SLPC  C31719620   5.080   4.565   5.664  0.4325  0.2620  0.1014
  173SLPC  H17X19621   5.163   4.521   5.605  0.1829 -1.6141  1.0666
  173SLPC  H17Y19622   5.107   4.663   5.709 -0.6459  0.7823 -0.3504
  173SLPC  C31819623   4.961   4.576   5.567  0.0488  0.1184 -1.2959
  173SLPC  H18X19624   4.928   4.480   5.522 -1.6585  0.6188 -1.2055
  173SLPC  H18Y19625   4.992   4.644   5.485  1.1720 -2.1052 -2.8294
  173SLPC  H18Z19626   4.875   4.625   5.618  1.1552 -0.0056  0.7679
  174SLPC     N19627   0.593   4.245   7.683 -0.0064  0.3768 -0.3590
  174SLPC   C1319628   0.460   4.260   7.750 -0.0929  0.0761  0.3671
  174SLPC  H13A19629   0.429   4.175   7.810 -0.8286  0.0859  0.0077
  174SLPC  H13B19630   0.468   4.350   7.809 -0.5939  0.5996 -0.3541
  174SLPC  H13C19631   0.383   4.276   7.676 -0.1467  0.4428  0.4995
  174SLPC   C1419632   0.684   4.244   7.798 -0.6303 -0.2077 -0.7245
  174SLPC  H14A19633   0.688   4.147   7.845 -0.0650 -0.2219 -0.7950
  174SLPC  H14B19634   0.786   4.270   7.772 -0.3716  2.8292  2.5389
  174SLPC  H14C19635   0.666   4.321   7.871 -1.3299 -0.2135 -0.8884
  174SLPC   C1519636   0.617   4.358   7.596 -0.0665 -0.6595  0.9848
  174SLPC  H15A19637   0.627   4.446   7.658  1.1580  0.2927 -0.4925
  174SLPC  H15B19638   0.711   4.346   7.543  0.1056 -1.4736  1.4608
  174SLPC  H15C19639   0.547   4.367   7.514  1.9570 -0.5604 -0.8344
  174SLPC   C1219640   0.591   4.116   7.602  0.4600 -0.7415  0.1506
  174SLPC  H12A19641   0.562   4.035   7.666  2.2422 -0.7227  1.0553
  174SLPC  H12B19642   0.695   4.089   7.586  0.8607  0.8297 -0.1125
  174SLPC   C1119643   0.516   4.104   7.472 -0.2811  0.3726 -0.5107
  174SLPC  H11A19644   0.551   4.016   7.414 -1.7944 -0.0606 -0.8051
  174SLPC  H11B19645   0.545   4.192   7.411  0.5201 -1.5018 -3.0018
  174SLPC     P19646   0.295   3.986   7.557  0.2837  0.1953  0.0068
  174SLPC   O1319647   0.398   3.884   7.594  0.5681  0.1409  0.7121
  174SLPC   O1419648   0.210   4.034   7.663 -0.9632  0.6049 -0.3456
  174SLPC   O1219649   0.372   4.105   7.487  0.2623  0.2249 -0.1293
  174SLPC   O1119650   0.201   3.934   7.442 -0.8145 -0.4505 -0.3545
  174SLPC    C119651   0.225   3.831   7.351 -0.6009 -0.1953  0.2959
  174SLPC    HA19652   0.282   3.754   7.408 -1.1002 -1.1352 -0.4425
  174SLPC    HB19653   0.126   3.783   7.335  0.0990 -2.3507  1.9930
  174SLPC    C219654   0.280   3.873   7.218 -0.5118 -0.7386  0.0691
  174SLPC    HS19655   0.381   3.917   7.224 -1.2123  1.0132 -0.3999
  174SLPC   O2119656   0.196   3.977   7.164  0.4787 -0.0955  0.4757
  174SLPC   C2119657   0.244   4.067   7.070 -0.1012  0.4969 -0.1622
  174SLPC   O2219658   0.363   4.076   7.042  0.3099 -0.2014 -0.3876
  174SLPC   C2219659   0.137   4.150   6.999  0.3225 -0.9188 -0.7078
  174SLPC   H2R19660   0.036   4.105   6.994 -0.4028  0.7271 -2.2755
  174SLPC   H2S19661   0.144   4.241   7.062 -0.1975  0.1053 -2.0716
  174SLPC    C319662   0.296   3.761   7.110 -1.0123  0.0622 -0.4764
  174SLPC    HX19663   0.195   3.726   7.080 -1.0470  0.7965 -1.2589
  174SLPC    HY19664   0.349   3.668   7.140 -0.6693 -0.1760 -1.7662
  174SLPC   O3119665   0.356   3.808   6.994 -0.7649  0.1744 -0.5248
  174SLPC   C3119666   0.483   3.794   6.973 -0.4595  0.3367 -0.3408
  174SLPC   O3219667   0.559   3.742   7.056 -0.0028  0.2233 -0.1739
  174SLPC   C3219668   0.524   3.865   6.841 -0.6553  0.2478  0.6670
  174SLPC   H2X19669   0.612   3.926   6.872 -1.1090  0.9658  0.5642
  174SLPC   H2Y19670   0.437   3.930   6.817 -0.4464  0.3258  0.0976
  174SLPC   C2319671   0.178   4.199   6.856 -0.0763 -0.1603  0.2949
  174SLPC   H3R19672   0.274   4.256   6.858 -0.0626 -0.1891  1.4074
  174SLPC   H3S19673   0.106   4.279   6.830  1.6160  1.0650 -0.8820
  174SLPC   C2419674   0.171   4.086   6.747 -0.1410  0.0096 -0.0447
  174SLPC   H4R19675   0.066   4.054   6.733 -1.0240  2.2087  1.0497
  174SLPC   H4S19676   0.232   4.001   6.783  1.1532  0.9282  0.0357
  174SLPC   C2519677   0.237   4.144   6.626 -0.3415  0.6693  0.1521
  174SLPC   H5R19678   0.343   4.165   6.654  0.2250 -2.4779  0.8003
  174SLPC   H5S19679   0.190   4.244   6.616  1.2990  1.6780  1.8384
  174SLPC   C2619680   0.210   4.075   6.487 -0.2464 -0.4367 -0.7778
  174SLPC   H6R19681   0.115   4.019   6.495  0.6354 -1.7283  2.7522
  174SLPC   H6S19682   0.300   4.011   6.474  0.5479  0.1064  1.4217
  174SLPC   C2719683   0.190   4.178   6.368 -0.4380 -0.1224 -0.9225
  174SLPC   H7R19684   0.275   4.250   6.373 -0.6668  0.1118 -0.3866
  174SLPC   H7S19685   0.095   4.235   6.378 -0.9298 -1.1141  0.2328
  174SLPC   C2819686   0.197   4.107   6.230 -0.8239  0.2293  0.4433
  174SLPC   H8R19687   0.134   4.167   6.161 -0.0650  0.3878 -0.1308
  174SLPC   H8S19688   0.145   4.009   6.237 -1.2861  0.0367 -3.3302
  174SLPC   C2919689   0.338   4.095   6.169 -0.1113  0.2689 -0.0229
  174SLPC   H9R19690   0.410   4.055   6.242  1.1365 -0.3442 -1.5483
  174SLPC  C21019691   0.375   4.128   6.046 -0.0243 -0.2142  0.3372
  174SLPC  H10R19692   0.485   4.130   6.037  0.2529 -0.4963  2.9195
  174SLPC  C21119693   0.282   4.184   5.941 -0.2792  0.3250  0.5167
  174SLPC  H11R19694   0.316   4.287   5.919 -3.8007  1.5359  0.1506
  174SLPC  H11S19695   0.178   4.204   5.974  0.1925 -1.6032  3.5861
  174SLPC  C21219696   0.269   4.104   5.807  0.0179  0.3680 -0.2855
  174SLPC  H12R19697   0.172   4.055   5.788  1.9025 -3.3338 -1.2199
  174SLPC  C21319698   0.362   4.111   5.712 -1.0495 -0.6743 -0.4485
  174SLPC  H13R19699   0.328   4.063   5.618 -0.8408 -1.7919  0.0246
  174SLPC  C21419700   0.495   4.179   5.713  0.6743 -0.0629  0.0835
  174SLPC  H14R19701   0.570   4.108   5.671  0.1435 -0.6450  0.1048
  174SLPC  H14S19702   0.516   4.219   5.814  1.2774 -0.6108  0.1852
  174SLPC  C21519703   0.495   4.302   5.614 -0.1576 -0.1105 -0.0402
  174SLPC  H15R19704   0.423   4.370   5.664  1.7793  0.7765  1.6564
  174SLPC  H15S19705   0.458   4.275   5.513 -0.4934  1.3313 -0.3245
  174SLPC  C21619706   0.631   4.362   5.593 -0.8776 -0.0052 -0.2551
  174SLPC  H16R19707   0.701   4.277   5.576 -2.1507 -1.3716  1.0259
  174SLPC  H16S19708   0.670   4.420   5.679  0.9894 -0.6337 -0.6186
  174SLPC  C21719709   0.639   4.454   5.474 -0.3429 -0.5623 -0.5719
  174SLPC  H17R19710   0.594   4.405   5.385  0.3754 -1.9536 -0.1908
  174SLPC  H17S19711   0.747   4.460   5.450  0.3458 -0.3323  2.2471
  174SLPC  C21819712   0.566   4.595   5.503  0.5009 -0.9167 -0.3856
  174SLPC  H18R19713   0.459   4.579   5.529  0.7604  0.9641  2.2767
  174SLPC  H18S19714   0.573   4.663   5.415  1.9276  1.2287  1.2681
  174SLPC  H18T19715   0.612   4.647   5.590 -1.7821 -1.7847  1.4549
  174SLPC   C3319716   0.559   3.783   6.718 -0.1037  0.1026 -0.7464
  174SLPC   H3X19717   0.488   3.699   6.702 -0.4418  0.5208 -1.4730
  174SLPC   H3Y19718   0.665   3.755   6.738 -0.1368  0.5156  0.0444
  174SLPC   C3419719   0.550   3.863   6.588  0.1216 -0.5303 -0.3517
  174SLPC   H4X19720   0.583   3.966   6.614 -1.2998 -0.3658  1.0098
  174SLPC   H4Y19721   0.443   3.858   6.557 -0.5442  0.8839  1.5187
  174SLPC   C3519722   0.634   3.818   6.471 -0.1219  1.1196 -0.6878
  174SLPC   H5X19723   0.630   3.708   6.461 -1.1858  1.3113 -2.9141
  174SLPC   H5Y19724   0.737   3.848   6.502 -1.5286  2.8119  3.0874
  174SLPC   C3619725   0.601   3.874   6.340 -0.5352 -0.1621  0.3872
  174SLPC   H6X19726   0.615   3.984   6.342 -0.3999 -0.0755 -1.9697
  174SLPC   H6Y19727   0.497   3.843   6.319  0.3430 -1.7599 -2.0597
  174SLPC   C3719728   0.700   3.844   6.224 -0.0131  0.3725 -0.5037
  174SLPC   H7X19729   0.702   3.737   6.195  1.9739 -0.3962  2.1015
  174SLPC   H7Y19730   0.804   3.851   6.261  0.4787 -0.7636 -1.6064
  174SLPC   C3819731   0.691   3.948   6.114 -0.3586  0.0689  0.7158
  174SLPC   H8X19732   0.724   4.043   6.162  0.6932 -1.0515  2.3100
  174SLPC   H8Y19733   0.589   3.959   6.072  0.3215  1.9501 -0.5709
  174SLPC   C3919734   0.789   3.914   5.996  0.3032 -0.3137 -0.0998
  174SLPC   H9X19735   0.790   3.803   5.989  0.5871 -0.2104 -2.1056
  174SLPC   H9Y19736   0.892   3.952   6.014  1.1633 -1.7741 -1.6758
  174SLPC  C31019737   0.746   3.975   5.855  0.0368  0.5282  0.0378
  174SLPC  H10X19738   0.736   4.086   5.862 -0.9079  0.4490  0.1189
  174SLPC  H10Y19739   0.645   3.937   5.828 -0.0783  0.1837  0.9123
  174SLPC  C31119740   0.832   3.934   5.735  0.3230 -0.6189  0.7000
  174SLPC  H11X19741   0.773   3.957   5.644  3.2491 -0.8593 -1.4083
  174SLPC  H11Y19742   0.841   3.823   5.728  0.5740 -0.5425 -0.3528
  174SLPC  C31219743   0.966   4.006   5.733 -0.0657 -0.7118  0.7402
  174SLPC  H12X19744   1.017   3.982   5.828  1.5141  2.3012  0.8092
  174SLPC  H12Y19745   0.942   4.114   5.723  0.6040 -0.7403 -2.8380
  174SLPC  C31319746   1.049   3.955   5.613  0.0317  0.4088 -0.1360
  174SLPC  H13X19747   1.056   3.847   5.635 -0.1331  0.9499  3.1063
  174SLPC  H13Y19748   1.149   4.002   5.625 -0.5838  1.8300 -0.3656
  174SLPC  C31419749   1.002   3.978   5.470  0.1491  0.3025 -0.2140
  174SLPC  H14X19750   0.916   3.912   5.448  0.1378  0.2403  0.0106
  174SLPC  H14Y19751   1.083   3.938   5.405  0.8964 -2.6858  2.2790
  174SLPC  C31519752   0.981   4.130   5.437  0.0412  0.2078  1.0674
  174SLPC  H15X19753   1.065   4.177   5.382 -2.3964  4.4337  0.4674
  174SLPC  H15Y19754   0.969   4.194   5.527  3.7611  0.6471  1.4069
  174SLPC  C31619755   0.861   4.161   5.343 -0.2031 -0.4226 -0.1508
  174SLPC  H16X19756   0.831   4.268   5.341 -0.7674 -0.5264  1.1214
  174SLPC  H16Y19757   0.770   4.104   5.373  1.3898 -3.2639 -0.4263
  174SLPC  C31719758   0.885   4.119   5.195 -0.2608 -0.4464  0.3375
  174SLPC  H17X19759   0.918   4.014   5.202  1.6013  0.1101  0.4416
  174SLPC  H17Y19760   0.968   4.184   5.161 -0.4051 -0.6483 -0.4157
  174SLPC  C31819761   0.764   4.144   5.108  0.0022  0.6183  0.3186
  174SLPC  H18X19762   0.722   4.247   5.108 -0.5892  0.3901 -0.5778
  174SLPC  H18Y19763   0.685   4.070   5.132 -1.0253  0.5062 -2.9286
  174SLPC  H18Z19764   0.793   4.127   5.002  1.6941 -4.0492  1.3070
  175SLPC     N19765   4.283   1.303   7.500 -0.3808 -0.3724  0.3108
  175SLPC   C1319766   4.327   1.280   7.634  0.6122  0.5762  0.7787
  175SLPC  H13A19767   4.355   1.365   7.695  3.4803 -0.0430  0.4574
  175SLPC  H13B19768   4.245   1.223   7.675  2.0534 -1.2427  1.2893
  175SLPC  H13C19769   4.414   1.215   7.634  0.2797  0.1083 -0.5894
  175SLPC   C1419770   4.161   1.394   7.503 -0.0406 -0.0305  0.6591
  175SLPC  H14A19771   4.075   1.350   7.551 -1.2722  0.2852 -1.1776
  175SLPC  H14B19772   4.170   1.494   7.543 -0.6430  0.6262 -0.7766
  175SLPC  H14C19773   4.135   1.413   7.400 -0.4072  1.8859  1.0652
  175SLPC   C1519774   4.237   1.182   7.438 -0.2292 -0.2986  0.6890
  175SLPC  H15A19775   4.168   1.132   7.504 -1.9496 -0.9723 -1.5202
  175SLPC  H15B19776   4.178   1.206   7.352 -1.0032 -0.6575  1.1113
  175SLPC  H15C19777   4.323   1.117   7.424  0.3300  0.4829  0.4139
  175SLPC   C1219778   4.397   1.362   7.416  0.5929  0.6189  0.0158
  175SLPC  H12A19779   4.490   1.306   7.412  0.9504  1.2299 -0.3995
  175SLPC  H12B19780   4.415   1.460   7.459 -0.8764  1.3030 -0.8549
  175SLPC   C1119781   4.369   1.404   7.275  0.4851 -0.6251  1.5226
  175SLPC  H11A19782   4.334   1.315   7.218  0.7595 -0.3417  0.8895
  175SLPC  H11B19783   4.460   1.435   7.218  0.2642  0.1056  1.5611
  175SLPC     P19784   4.341   1.660   7.293  0.3366 -0.0392 -0.2733
  175SLPC   O1319785   4.220   1.753   7.311 -0.4629 -0.2251  0.3529
  175SLPC   O1419786   4.441   1.663   7.402 -0.0796 -0.9160 -0.2126
  175SLPC   O1219787   4.286   1.517   7.272 -0.5236  0.1893 -0.2509
  175SLPC   O1119788   4.413   1.690   7.160 -0.9400  0.1206  0.2976
  175SLPC    C119789   4.335   1.681   7.032 -0.7261 -0.7912 -0.4229
  175SLPC    HA19790   4.324   1.575   6.998 -0.4764 -1.0204  0.2077
  175SLPC    HB19791   4.233   1.723   7.050  0.0231  0.7588  0.4063
  175SLPC    C219792   4.388   1.761   6.914  0.0601  0.0646  0.2359
  175SLPC    HS19793   4.301   1.770   6.845 -1.5056  0.7971  2.2026
  175SLPC   O2119794   4.496   1.700   6.840  0.0187 -0.3049  0.5900
  175SLPC   C2119795   4.513   1.730   6.716 -0.6034 -0.3884 -0.3220
  175SLPC   O2219796   4.452   1.802   6.643  0.2344  0.1498  0.3132
  175SLPC   C2219797   4.634   1.648   6.657  0.3597 -0.6427  0.4999
  175SLPC   H2R19798   4.722   1.683   6.717  0.0738  0.8376  0.0985
  175SLPC   H2S19799   4.623   1.541   6.684  0.1213 -1.0893 -1.2494
  175SLPC    C319800   4.424   1.906   6.964 -0.2624  0.1027 -0.6558
  175SLPC    HX19801   4.522   1.895   7.017 -1.7040  0.3231  2.2919
  175SLPC    HY19802   4.363   1.947   7.048 -0.9386 -2.2294  0.0431
  175SLPC   O3119803   4.442   2.001   6.858  0.3918  0.0750  0.4195
  175SLPC   C3119804   4.339   2.063   6.810  0.5017 -0.1921  0.7550
  175SLPC   O3219805   4.223   2.046   6.840  0.5479  1.1165 -0.2285
  175SLPC   C3219806   4.379   2.170   6.712 -0.1805 -0.5948 -0.2809
  175SLPC   H2X19807   4.474   2.218   6.745 -0.8738 -0.0262  0.9779
  175SLPC   H2Y19808   4.302   2.248   6.733  0.0255 -0.9139  1.8709
  175SLPC   C2319809   4.648   1.658   6.500  0.2138 -0.2965  0.1509
  175SLPC   H3R19810   4.546   1.639   6.461 -1.0960  1.9199  2.2414
  175SLPC   H3S19811   4.703   1.572   6.456 -0.6701 -0.3503 -0.8886
  175SLPC   C2419812   4.733   1.784   6.463 -0.6218  0.1007 -0.2231
  175SLPC   H4R19813   4.842   1.765   6.464 -0.1454  2.4860  1.4008
  175SLPC   H4S19814   4.704   1.860   6.539 -1.5708  2.1612 -2.5312
  175SLPC   C2519815   4.690   1.847   6.331  0.4199 -0.2478  0.1262
  175SLPC   H5R19816   4.706   1.957   6.338 -1.9971  0.1606  0.3316
  175SLPC   H5S19817   4.580   1.833   6.324 -0.3158  3.1661  2.0743
  175SLPC   C2619818   4.752   1.775   6.203  0.3348 -0.1978 -0.0540
  175SLPC   H6R19819   4.741   1.665   6.192 -4.3963  0.0655 -0.1420
  175SLPC   H6S19820   4.861   1.785   6.218  0.1485 -0.6434  1.9866
  175SLPC   C2719821   4.700   1.851   6.082  0.5654 -0.1700  0.1719
  175SLPC   H7R19822   4.677   1.955   6.116  1.3192  0.4728 -1.2174
  175SLPC   H7S19823   4.603   1.807   6.051  0.9042 -1.0634  0.3378
  175SLPC   C2819824   4.802   1.859   5.968 -0.2985 -0.9875 -0.0472
  175SLPC   H8R19825   4.895   1.908   6.005 -0.2088 -0.5966 -0.7707
  175SLPC   H8S19826   4.765   1.935   5.897  0.9952 -1.0121 -0.7774
  175SLPC   C2919827   4.848   1.734   5.900  0.2429  0.4479 -0.7264
  175SLPC   H9R19828   4.876   1.654   5.971 -2.5310 -0.3050 -0.3487
  175SLPC  C21019829   4.857   1.708   5.774  0.8195  0.0866  0.9545
  175SLPC  H10R19830   4.893   1.605   5.756  0.0645  0.0369 -0.3916
  175SLPC  C21119831   4.834   1.805   5.661 -0.2176  0.0678  0.2664
  175SLPC  H11R19832   4.813   1.912   5.684  1.0891  0.7584 -1.5161
  175SLPC  H11S19833   4.742   1.764   5.615  0.6118 -1.5006 -0.0781
  175SLPC  C21219834   4.945   1.814   5.563  0.1473 -0.6881  0.3472
  175SLPC  H12R19835   5.047   1.835   5.599  1.0591 -0.6910 -2.1013
  175SLPC  C21319836   4.932   1.796   5.429 -0.3091  0.0210 -0.4974
  175SLPC  H13R19837   5.017   1.809   5.361  0.7936 -0.0746  0.8147
  175SLPC  C21419838   4.805   1.784   5.355 -0.2604  0.0314  0.7038
  175SLPC  H14R19839   4.717   1.763   5.420 -2.5675  2.5410 -1.3102
  175SLPC  H14S19840   4.809   1.693   5.292  1.1900  0.6574 -0.1584
  175SLPC  C21519841   4.774   1.905   5.268  0.1695  0.4868 -0.4809
  175SLPC  H15R19842   4.865   1.926   5.208  0.2888 -2.2917 -1.4365
  175SLPC  H15S19843   4.759   1.987   5.341 -1.5051 -0.0074 -0.2258
  175SLPC  C21619844   4.659   1.889   5.167 -0.5143  0.4433  0.5461
  175SLPC  H16R19845   4.561   1.879   5.218 -2.0368 -0.6715 -2.3852
  175SLPC  H16S19846   4.681   1.797   5.109  0.5510 -0.9045  2.9674
  175SLPC  C21719847   4.651   2.012   5.073 -0.2714 -0.9827 -0.0954
  175SLPC  H17R19848   4.746   2.029   5.018 -1.8018  1.3122 -2.2389
  175SLPC  H17S19849   4.652   2.098   5.143 -2.8032  1.3832 -2.7312
  175SLPC  C21819850   4.531   2.013   4.992  1.1613 -0.1557  1.1909
  175SLPC  H18R19851   4.550   1.963   4.895  0.3015 -0.0360  0.9547
  175SLPC  H18S19852   4.500   2.117   4.970  0.7144 -0.2501  1.3478
  175SLPC  H18T19853   4.445   1.965   5.044 -0.4551  0.1822 -1.0069
  175SLPC   C3319854   4.379   2.121   6.568 -0.1687  0.4354  0.0868
  175SLPC   H3X19855   4.282   2.072   6.545 -0.1484  1.0458 -1.4468
  175SLPC   H3Y19856   4.459   2.045   6.553 -1.5343 -0.8230 -1.1849
  175SLPC   C3419857   4.397   2.227   6.467 -0.4438  0.0041  0.0767
  175SLPC   H4X19858   4.499   2.270   6.466 -1.3917  2.4927 -2.9341
  175SLPC   H4Y19859   4.328   2.311   6.489  1.5955  1.3568  1.7487
  175SLPC   C3519860   4.377   2.175   6.321  0.1499 -0.0942 -0.1432
  175SLPC   H5X19861   4.267   2.161   6.322  0.1519 -0.1613 -0.6630
  175SLPC   H5Y19862   4.430   2.082   6.290  0.8363  0.2936 -0.1394
  175SLPC   C3619863   4.411   2.281   6.213 -0.1117 -0.1040  0.1801
  175SLPC   H6X19864   4.521   2.294   6.209  0.1277 -0.5980  3.0541
  175SLPC   H6Y19865   4.372   2.381   6.242  1.6308  0.3437  1.1417
  175SLPC   C3719866   4.341   2.245   6.075  0.2309  0.5166 -0.0289
  175SLPC   H7X19867   4.309   2.334   6.016 -1.8590 -1.8586 -2.7193
  175SLPC   H7Y19868   4.252   2.184   6.098  0.2782  0.5123  0.1445
  175SLPC   C3819869   4.441   2.161   5.988  0.6294 -0.3557 -0.1498
  175SLPC   H8X19870   4.496   2.082   6.044  4.0201  3.1659  2.0031
  175SLPC   H8Y19871   4.520   2.232   5.956 -0.1100  0.6797  0.2701
  175SLPC   C3919872   4.370   2.094   5.871  0.1450  0.1085  0.5253
  175SLPC   H9X19873   4.347   2.174   5.797 -0.8736  0.3519  1.0830
  175SLPC   H9Y19874   4.277   2.040   5.896 -0.0713 -1.1451 -2.5586
  175SLPC  C31019875   4.468   1.992   5.804  0.0222 -0.1316  0.4795
  175SLPC  H10X19876   4.476   1.904   5.871 -0.5187  0.0427  0.7817
  175SLPC  H10Y19877   4.570   2.036   5.806  0.3395 -0.8545  2.8345
  175SLPC  C31119878   4.418   1.946   5.660  0.1569 -0.0099 -0.8889
  175SLPC  H11X19879   4.494   1.873   5.626 -0.7893 -1.1734 -0.5606
  175SLPC  H11Y19880   4.416   2.036   5.595  1.8443  0.1285 -0.7974
  175SLPC  C31219881   4.284   1.876   5.655 -0.0726 -0.8602  0.6194
  175SLPC  H12X19882   4.207   1.945   5.696  0.7319 -0.3008  1.2363
  175SLPC  H12Y19883   4.289   1.786   5.720 -1.8915 -0.4794  1.3399
  175SLPC  C31319884   4.232   1.838   5.514 -0.7566 -0.2701 -0.0610
  175SLPC  H13X19885   4.225   1.934   5.460  0.4121  0.0882  0.3917
  175SLPC  H13Y19886   4.128   1.802   5.530 -0.4314 -0.9494  0.6430
  175SLPC  C31419887   4.310   1.750   5.422  0.1773  0.8131  0.1063
  175SLPC  H14X19888   4.400   1.798   5.377 -0.6688 -0.0447 -2.6805
  175SLPC  H14Y19889   4.250   1.730   5.330 -0.2698 -2.8742  1.0566
  175SLPC  C31519890   4.350   1.619   5.482 -0.3452  0.5325  0.0049
  175SLPC  H15X19891   4.273   1.582   5.553 -0.6375  1.9386  0.4357
  175SLPC  H15Y19892   4.442   1.642   5.542 -1.8283  1.7885  1.9171
  175SLPC  C31619893   4.368   1.510   5.364 -0.5042 -0.0491 -0.4855
  175SLPC  H16X19894   4.269   1.493   5.317  0.2914  0.0034 -2.2709
  175SLPC  H16Y19895   4.398   1.415   5.413  0.1730  1.3427  1.9646
  175SLPC  C31719896   4.466   1.528   5.248 -0.8955 -0.1258 -0.4461
  175SLPC  H17X19897   4.562   1.561   5.293 -1.9993  0.4404  1.6418
  175SLPC  H17Y19898   4.430   1.606   5.177  0.6880  0.1451 -0.9861
  175SLPC  C31819899   4.488   1.392   5.174  0.3955  0.0588 -0.0826
  175SLPC  H18X19900   4.550   1.416   5.085 -1.3850  1.4096 -1.0319
  175SLPC  H18Y19901   4.397   1.345   5.132 -0.5361  1.5355  0.2267
  175SLPC  H18Z19902   4.544   1.324   5.242 -0.7033  0.5276  1.3180
  176SLPC     N19903   4.058   0.193   7.349 -0.2895 -0.5211 -0.1169
  176SLPC   C1319904   4.144   0.294   7.289 -0.2969  0.0564 -0.4707
  176SLPC  H13A19905   4.155   0.381   7.352 -0.6426 -0.7903  0.7907
  176SLPC  H13B19906   4.236   0.252   7.250  0.7987  0.8721  1.1426
  176SLPC  H13C19907   4.110   0.330   7.193  0.8643 -1.0728 -1.3436
  176SLPC   C1419908   3.928   0.255   7.356 -0.1140 -0.5231 -0.1532
  176SLPC  H14A19909   3.925   0.309   7.449 -1.3967 -1.5855  0.4572
  176SLPC  H14B19910   3.905   0.306   7.264  1.8359  1.9062  0.6156
  176SLPC  H14C19911   3.853   0.179   7.374 -1.4596  0.8312  0.1669
  176SLPC   C1519912   4.114   0.153   7.479  0.2560 -0.0436  0.1170
  176SLPC  H15A19913   4.121   0.244   7.538 -0.2872  1.6773 -2.3011
  176SLPC  H15B19914   4.048   0.083   7.527  0.6218 -0.7229 -0.3655
  176SLPC  H15C19915   4.215   0.115   7.472  0.1181 -0.4215  0.2074
  176SLPC   C1219916   4.050   0.075   7.249  0.4690  0.2714  0.2437
  176SLPC  H12A19917   4.149   0.031   7.245  0.7219  0.8074  0.3634
  176SLPC  H12B19918   4.042   0.127   7.154 -0.0573  0.4133  0.3641
  176SLPC   C1119919   3.942  -0.033   7.268 -0.3556  0.9339 -0.1100
  176SLPC  H11A19920   3.976  -0.083   7.361  0.3570  0.7520 -0.4600
  176SLPC  H11B19921   3.942  -0.118   7.196  1.0632 -0.5566  1.5328
  176SLPC     P19922   3.724   0.063   7.151  0.3498  0.1369  0.0266
  176SLPC   O1319923   3.615  -0.032   7.137  0.4619  0.5895 -0.0410
  176SLPC   O1419924   3.691   0.204   7.172  0.1356  0.4420  0.2692
  176SLPC   O1219925   3.809   0.023   7.275  0.0584  0.1785 -0.6688
  176SLPC   O1119926   3.822   0.049   7.026 -1.0006 -0.3851  0.4540
  176SLPC    C119927   3.781   0.090   6.893  0.4606  0.5598 -0.4867
  176SLPC    HA19928   3.839   0.027   6.822  2.5211  0.2118  1.4161
  176SLPC    HB19929   3.675   0.059   6.881  0.4322  0.3746  0.2236
  176SLPC    C219930   3.820   0.228   6.857  0.2602 -0.0036  0.4322
  176SLPC    HS19931   3.762   0.302   6.915  1.7473  0.9597  0.7505
  176SLPC   O2119932   3.804   0.241   6.716  0.0747 -0.1241 -0.2555
  176SLPC   C2119933   3.678   0.237   6.665  0.2191 -0.2157 -0.2861
  176SLPC   O2219934   3.576   0.259   6.728 -0.0233 -0.3628 -0.2615
  176SLPC   C2219935   3.696   0.194   6.517 -0.3539 -0.4549  1.4741
  176SLPC   H2R19936   3.800   0.221   6.488 -0.5240 -0.5137  0.7853
  176SLPC   H2S19937   3.686   0.084   6.511  0.8108 -0.5884  1.8683
  176SLPC    C319938   3.971   0.255   6.886 -0.2691 -0.3415 -0.1062
  176SLPC    HX19939   4.034   0.183   6.830  1.3006 -0.3166  1.5601
  176SLPC    HY19940   3.989   0.233   6.993  1.0697 -1.2061 -0.4840
  176SLPC   O3119941   3.994   0.395   6.865 -0.6102  0.2045 -0.3873
  176SLPC   C3119942   4.131   0.412   6.852 -0.4420 -0.1644  0.6973
  176SLPC   O3219943   4.215   0.328   6.872  0.0964  0.0084 -0.5759
  176SLPC   C3219944   4.160   0.556   6.812 -0.5000 -0.2630 -0.1326
  176SLPC   H2X19945   4.216   0.595   6.899  1.7854 -0.5284 -1.3933
  176SLPC   H2Y19946   4.067   0.613   6.792 -0.0094  0.5554 -0.1291
  176SLPC   C2319947   3.598   0.248   6.403 -0.0383 -0.3349  0.0585
  176SLPC   H3R19948   3.601   0.359   6.414 -0.7374 -0.1548 -1.2652
  176SLPC   H3S19949   3.493   0.212   6.408 -0.1354 -0.9566 -3.5829
  176SLPC   C2419950   3.651   0.238   6.262  0.0825  0.1863  0.9257
  176SLPC   H4R19951   3.660   0.130   6.237  1.5687  0.4849  0.0489
  176SLPC   H4S19952   3.751   0.287   6.255 -0.4758  1.1738 -0.5060
  176SLPC   C2519953   3.566   0.310   6.159  0.0431  0.0701 -0.3449
  176SLPC   H5R19954   3.543   0.414   6.191 -2.3272 -0.2017 -0.9395
  176SLPC   H5S19955   3.465   0.263   6.159 -0.7863  1.7721  0.5307
  176SLPC   C2619956   3.620   0.306   6.016 -0.5632 -0.0851 -0.0455
  176SLPC   H6R19957   3.628   0.199   5.984 -1.7638 -0.0461 -0.5296
  176SLPC   H6S19958   3.728   0.334   6.017 -0.7873  0.7965  0.2669
  176SLPC   C2719959   3.544   0.391   5.913  0.1230  0.0838  0.9382
  176SLPC   H7R19960   3.440   0.354   5.926 -0.6198  1.6524 -0.2385
  176SLPC   H7S19961   3.569   0.350   5.813  1.0690 -2.8639  2.2771
  176SLPC   C2819962   3.566   0.544   5.923 -0.7426 -0.7304 -0.2735
  176SLPC   H8R19963   3.674   0.566   5.914 -0.7083 -1.2854 -1.4382
  176SLPC   H8S19964   3.533   0.579   6.023 -0.2329 -0.9214 -0.0359
  176SLPC   C2919965   3.503   0.636   5.822  0.2910 -0.1365 -0.5600
  176SLPC   H9R19966   3.570   0.664   5.739  3.2266  0.6907  1.9089
  176SLPC  C21019967   3.383   0.691   5.834  0.0158  0.2029 -0.3587
  176SLPC  H10R19968   3.346   0.760   5.758  1.0539 -1.1017 -2.1159
  176SLPC  C21119969   3.293   0.654   5.951  0.1030 -0.0862  0.5821
  176SLPC  H11R19970   3.298   0.547   5.980 -2.6331 -0.0550  1.4827
  176SLPC  H11S19971   3.185   0.660   5.926  0.1335  2.0748  0.7945
  176SLPC  C21219972   3.317   0.739   6.073  0.6824 -0.7688 -0.1250
  176SLPC  H12R19973   3.382   0.826   6.055 -0.7304  0.4740  0.4448
  176SLPC  C21319974   3.254   0.726   6.191 -0.4593  0.0521  0.6574
  176SLPC  H13R19975   3.259   0.804   6.269  0.0686 -0.6912  1.3833
  176SLPC  C21419976   3.165   0.611   6.241 -0.1556 -0.7473 -0.0255
  176SLPC  H14R19977   3.158   0.529   6.165 -1.7946 -0.5975 -0.0731
  176SLPC  H14S19978   3.060   0.648   6.246 -0.0765 -0.0707 -2.1719
  176SLPC  C21519979   3.201   0.549   6.372  0.8330 -0.1734  0.8252
  176SLPC  H15R19980   3.299   0.501   6.352 -0.8707 -2.5281 -3.0215
  176SLPC  H15S19981   3.137   0.462   6.396 -0.9119  0.5846 -0.8665
  176SLPC  C21619982   3.196   0.641   6.492 -0.4989  0.0136  0.3809
  176SLPC  H16R19983   3.093   0.681   6.508 -1.1939 -0.8766 -1.5167
  176SLPC  H16S19984   3.270   0.723   6.493  1.0876 -1.3226 -1.2760
  176SLPC  C21719985   3.211   0.554   6.621 -0.7687  0.5117  0.4237
  176SLPC  H17R19986   3.316   0.516   6.623 -0.7712  0.4828  0.1271
  176SLPC  H17S19987   3.166   0.452   6.619  2.3221 -0.9588 -0.8883
  176SLPC  C21819988   3.182   0.626   6.751 -0.5042 -0.5326  0.0024
  176SLPC  H18R19989   3.171   0.550   6.831  2.2259 -2.1733 -1.0644
  176SLPC  H18S19990   3.098   0.698   6.750  0.5963  0.7875 -0.2210
  176SLPC  H18T19991   3.274   0.686   6.765 -0.7572 -0.0625 -0.3277
  176SLPC   C3319992   4.249   0.558   6.690 -0.2163 -0.2968 -0.4613
  176SLPC   H3X19993   4.343   0.502   6.710  0.4239  0.7807 -0.3527
  176SLPC   H3Y19994   4.279   0.663   6.668  2.5689 -0.7986  0.6007
  176SLPC   C3419995   4.180   0.497   6.566 -0.2264  0.1379  0.6084
  176SLPC   H4X19996   4.073   0.527   6.557  0.0838  1.1348 -0.0276
  176SLPC   H4Y19997   4.189   0.387   6.577  0.9894  0.3215  1.6916
  176SLPC   C3519998   4.239   0.550   6.437  0.4196 -0.6134 -0.5601
  176SLPC   H5X19999   4.342   0.511   6.420  0.5764 -0.9567  0.9591
  176SLPC   H5Y20000   4.272   0.656   6.437  0.1924 -0.5356 -1.7868
  176SLPC   C3620001   4.157   0.502   6.326 -0.0876  0.0904  0.5602
  176SLPC   H6X20002   4.050   0.533   6.328 -1.1450 -2.8438 -1.9402
  176SLPC   H6Y20003   4.151   0.391   6.323  1.4706 -0.0511  1.8416
  176SLPC   C3720004   4.200   0.550   6.180  0.1077  0.2023 -0.0085
  176SLPC   H7X20005   4.303   0.515   6.158  0.3367  0.4571  0.6342
  176SLPC   H7Y20006   4.203   0.661   6.172  2.6428  0.1320 -1.0884
  176SLPC   C3820007   4.106   0.504   6.074 -0.7651  0.1101  0.0977
  176SLPC   H8X20008   4.005   0.545   6.097  0.2969  1.7879  2.2150
  176SLPC   H8Y20009   4.103   0.393   6.070  0.5088  0.0765 -0.4321
  176SLPC   C3920010   4.138   0.542   5.926  0.1578 -0.1938  0.3940
  176SLPC   H9X20011   4.239   0.503   5.902 -0.2423 -2.4856  2.0543
  176SLPC   H9Y20012   4.148   0.651   5.906  0.1513 -0.5358 -1.6990
  176SLPC  C31020013   4.041   0.469   5.829 -0.3470  0.3484 -0.0361
  176SLPC  H10X20014   3.951   0.533   5.818  0.1456  1.2100  0.7629
  176SLPC  H10Y20015   4.010   0.371   5.871 -1.4824  0.2864 -0.9878
  176SLPC  C31120016   4.104   0.455   5.689 -0.5967  1.2387 -0.2587
  176SLPC  H11X20017   4.034   0.405   5.618  0.4697  0.8216 -1.0571
  176SLPC  H11Y20018   4.200   0.400   5.702 -0.8823  0.4815 -1.2120
  176SLPC  C31220019   4.134   0.593   5.620  0.1034 -0.0800 -0.5747
  176SLPC  H12X20020   4.201   0.641   5.695 -0.3738 -1.2226  0.6168
  176SLPC  H12Y20021   4.040   0.653   5.623 -0.9083 -1.5908  2.3120
  176SLPC  C31320022   4.200   0.566   5.490  0.7569 -0.9435  0.5291
  176SLPC  H13X20023   4.281   0.492   5.509 -0.3821 -2.0949  1.0023
  176SLPC  H13Y20024   4.254   0.657   5.456  0.0553 -0.7275 -0.0115
  176SLPC  C31420025   4.113   0.519   5.374 -0.3109 -0.1929 -1.0563
  176SLPC  H14X20026   4.027   0.462   5.415 -0.7949  1.2817  0.0738
  176SLPC  H14Y20027   4.174   0.459   5.303  0.1509  0.9835 -1.6869
  176SLPC  C31520028   4.064   0.640   5.288  0.0126 -0.2487 -0.7095
  176SLPC  H15X20029   4.150   0.707   5.266  0.9880 -0.6674  1.5446
  176SLPC  H15Y20030   4.013   0.711   5.357 -1.6271 -1.7394 -0.2991
  176SLPC  C31620031   3.960   0.613   5.180 -0.1541  0.4829 -0.0751
  176SLPC  H16X20032   3.924   0.712   5.145 -2.2523 -0.3964 -0.5357
  176SLPC  H16Y20033   3.871   0.550   5.204 -0.8599 -0.2770 -4.0614
  176SLPC  C31720034   4.009   0.538   5.053  0.3582  1.0680 -0.6157
  176SLPC  H17X20035   4.021   0.435   5.091  0.5907  1.6811  1.1030
  176SLPC  H17Y20036   4.106   0.582   5.022 -0.2492  2.9376 -0.0188
  176SLPC  C31820037   3.913   0.540   4.932  0.1937  0.3483 -0.2733
  176SLPC  H18X20038   3.960   0.494   4.843  0.2081 -0.2871  0.0525
  176SLPC  H18Y20039   3.877   0.644   4.920 -3.3627 -0.4930  1.4097
  176SLPC  H18Z20040   3.822   0.490   4.973  0.1487  0.5049 -0.1804
  177SLPC     N20041   3.618   0.599   7.815 -1.1490 -0.3348 -1.0751
  177SLPC   C1320042   3.581   0.597   7.959  0.1934  0.4554  0.3048
  177SLPC  H13A20043   3.663   0.550   8.009  2.2203  1.4195 -1.8866
  177SLPC  H13B20044   3.553   0.693   7.999 -1.1082  0.0048  0.5258
  177SLPC  H13C20045   3.501   0.525   7.963  0.3690  0.0131 -2.2250
  177SLPC   C1420046   3.523   0.678   7.727 -0.0193 -0.0079 -0.1864
  177SLPC  H14A20047   3.569   0.712   7.635 -2.3311  0.8280 -1.1222
  177SLPC  H14B20048   3.441   0.615   7.694 -0.1380 -0.0845  0.2478
  177SLPC  H14C20049   3.489   0.766   7.781  2.0516  0.6067  0.1814
  177SLPC   C1520050   3.641   0.471   7.764 -0.2720  0.8091  0.5302
  177SLPC  H15A20051   3.717   0.429   7.829 -0.2904 -4.4498 -2.3095
  177SLPC  H15B20052   3.558   0.406   7.785 -0.2134  0.6774  0.3552
  177SLPC  H15C20053   3.673   0.470   7.660  0.6847  0.9013  0.8117
  177SLPC   C1220054   3.754   0.667   7.808  0.4267  0.2000  0.1030
  177SLPC  H12A20055   3.830   0.609   7.858 -0.1429  0.7416  1.6536
  177SLPC  H12B20056   3.743   0.752   7.874  0.3686  1.5637 -1.5885
  177SLPC   C1120057   3.812   0.715   7.665  0.0904  0.6634  0.8876
  177SLPC  H11A20058   3.917   0.745   7.685  0.3425  0.1901  0.2933
  177SLPC  H11B20059   3.751   0.805   7.641  0.2535  0.5618  0.0526
  177SLPC     P20060   3.921   0.607   7.462 -0.0265  0.1901  0.0863
  177SLPC   O1320061   4.035   0.543   7.530 -0.6713 -0.6459  0.4712
  177SLPC   O1420062   3.869   0.539   7.340  0.1648 -0.4879  0.1387
  177SLPC   O1220063   3.797   0.610   7.564 -0.4243 -1.0260  0.3100
  177SLPC   O1120064   3.945   0.756   7.432 -0.2901  0.0175 -0.7440
  177SLPC    C120065   3.843   0.833   7.375  0.3992  0.1412  0.2145
  177SLPC    HA20066   3.743   0.785   7.371 -0.7014  2.2467  0.6975
  177SLPC    HB20067   3.830   0.931   7.426 -1.2398  0.0186  0.1043
  177SLPC    C220068   3.875   0.874   7.230  0.5646  0.0702  0.3100
  177SLPC    HS20069   3.806   0.957   7.204 -0.6956 -0.2280  2.4688
  177SLPC   O2120070   3.855   0.757   7.147  0.0105  0.6139  0.4394
  177SLPC   C2120071   3.788   0.765   7.037  0.0061 -0.0127  0.7272
  177SLPC   O2220072   3.750   0.870   6.979 -0.0343  0.0261 -0.2098
  177SLPC   C2220073   3.771   0.627   6.963  0.0876 -0.3759 -0.4111
  177SLPC   H2R20074   3.869   0.574   6.965  0.2401 -0.0886 -0.2057
  177SLPC   H2S20075   3.709   0.562   7.029 -0.1098 -1.0869 -1.2716
  177SLPC    C320076   4.022   0.929   7.219 -0.6696 -0.0549 -0.0133
  177SLPC    HX20077   4.083   0.837   7.227 -0.7565 -0.1139 -0.0219
  177SLPC    HY20078   4.044   0.996   7.304  0.6379  0.0200 -0.3987
  177SLPC   O3120079   4.047   1.003   7.094  0.8514  0.0479 -0.0936
  177SLPC   C3120080   4.086   0.927   6.994  0.1996  0.5458 -1.3334
  177SLPC   O3220081   4.105   0.806   7.001 -0.2822  0.1856  0.6210
  177SLPC   C3220082   4.100   1.007   6.866 -0.1896  0.5266  0.4182
  177SLPC   H2X20083   4.171   1.090   6.888  0.6226  0.5744 -2.0027
  177SLPC   H2Y20084   3.999   1.046   6.842  0.1103  0.8053 -0.4631
  177SLPC   C2320085   3.705   0.630   6.826  0.3188 -0.8388 -1.0948
  177SLPC   H3R20086   3.629   0.711   6.824  0.6272 -0.4939  0.1862
  177SLPC   H3S20087   3.652   0.534   6.806 -1.6310  0.7589 -4.5994
  177SLPC   C2420088   3.802   0.637   6.705  0.5935  0.1244 -0.2540
  177SLPC   H4R20089   3.844   0.535   6.701 -3.6714 -1.8126 -1.4197
  177SLPC   H4S20090   3.879   0.717   6.717  1.4899 -0.4981 -1.6388
  177SLPC   C2520091   3.714   0.663   6.575  0.3660 -0.0078 -0.5055
  177SLPC   H5R20092   3.681   0.768   6.561  1.3925  0.1771 -1.7614
  177SLPC   H5S20093   3.636   0.584   6.570 -0.0996  0.4214 -0.0537
  177SLPC   C2620094   3.801   0.634   6.451 -0.3049 -0.7261 -0.0810
  177SLPC   H6R20095   3.828   0.527   6.468 -1.4839 -0.4132  6.2119
  177SLPC   H6S20096   3.893   0.696   6.447 -1.0163  0.3178 -0.5219
  177SLPC   C2720097   3.727   0.645   6.320  0.4548  0.1364  0.0355
  177SLPC   H7R20098   3.621   0.611   6.327  0.2415  0.9538  1.0919
  177SLPC   H7S20099   3.762   0.574   6.242  3.0551  1.8345 -0.4617
  177SLPC   C2820100   3.715   0.783   6.261  0.5036 -0.0187  0.3885
  177SLPC   H8R20101   3.649   0.857   6.311  1.5676  0.5642  0.9754
  177SLPC   H8S20102   3.664   0.751   6.167  0.2995  0.5488  0.2971
  177SLPC   C2920103   3.843   0.858   6.209 -1.3582  0.6948  0.7253
  177SLPC   H9R20104   3.919   0.880   6.285 -0.2268 -1.1597  0.1814
  177SLPC  C21020105   3.871   0.907   6.082 -0.0855  0.2418 -0.0116
  177SLPC  H10R20106   3.971   0.948   6.063  0.0966  0.0014  0.4132
  177SLPC  C21120107   3.777   0.904   5.967 -0.1985  0.7890  0.2356
  177SLPC  H11R20108   3.677   0.931   6.008  1.0722  2.7058  2.2701
  177SLPC  H11S20109   3.768   0.803   5.920  0.8158 -0.3272  2.3132
  177SLPC  C21220110   3.813   1.009   5.864 -0.0645  0.4200  0.1082
  177SLPC  H12R20111   3.849   1.104   5.906  0.2094  1.0508 -1.4726
  177SLPC  C21320112   3.783   1.011   5.736 -0.4295  0.2919  0.3249
  177SLPC  H13R20113   3.827   1.098   5.685 -1.5477  0.2648 -0.7324
  177SLPC  C21420114   3.732   0.905   5.644  0.5554 -0.0895 -0.4756
  177SLPC  H14R20115   3.679   0.824   5.699  0.0539 -0.3653 -1.3555
  177SLPC  H14S20116   3.808   0.863   5.576  0.6046 -2.2073  0.7939
  177SLPC  C21520117   3.616   0.977   5.582 -0.3124  0.2527  0.0697
  177SLPC  H15R20118   3.564   0.910   5.509  0.0151 -0.6385  0.6455
  177SLPC  H15S20119   3.657   1.058   5.519  0.6632 -1.9560 -2.3106
  177SLPC  C21620120   3.499   1.024   5.677  0.1915  0.2529  0.1482
  177SLPC  H16R20121   3.507   1.134   5.690 -3.4593  0.9433 -1.9950
  177SLPC  H16S20122   3.501   0.966   5.772  0.8288  0.2048  0.1100
  177SLPC  C21720123   3.359   1.008   5.630  0.7325 -0.1890 -0.2043
  177SLPC  H17R20124   3.335   0.910   5.584  0.1615 -0.1535  0.0089
  177SLPC  H17S20125   3.335   1.083   5.552 -2.0167  0.6821  1.3376
  177SLPC  C21820126   3.256   1.043   5.746 -0.6737  0.5692  0.1593
  177SLPC  H18R20127   3.268   1.149   5.777  1.9407  0.1561  0.8465
  177SLPC  H18S20128   3.245   0.970   5.829 -1.8174 -0.0142 -0.4825
  177SLPC  H18T20129   3.153   1.030   5.707 -1.5444 -1.6796  2.8582
  177SLPC   C3320130   4.137   0.930   6.740 -0.1152  1.2072 -0.6845
  177SLPC   H3X20131   4.090   0.830   6.725 -0.5159  1.2310  0.3220
  177SLPC   H3Y20132   4.247   0.919   6.747 -0.2584  0.3421  0.6072
  177SLPC   C3420133   4.123   1.003   6.605 -0.0241  0.5622 -0.3287
  177SLPC   H4X20134   4.140   1.111   6.622  0.7351  0.1022  2.3905
  177SLPC   H4Y20135   4.015   0.993   6.581 -0.2028  2.3216 -0.3612
  177SLPC   C3520136   4.219   0.959   6.491 -0.0013  0.0204  0.2227
  177SLPC   H5X20137   4.229   0.848   6.493  2.4774  0.1935  0.8771
  177SLPC   H5Y20138   4.316   1.003   6.521  0.0108 -1.6852  3.1470
  177SLPC   C3620139   4.179   1.026   6.367  0.0774  0.2527  0.0537
  177SLPC   H6X20140   4.149   1.130   6.392  0.8946  0.0271  2.1392
  177SLPC   H6Y20141   4.073   0.999   6.346 -0.1405  1.0934  0.0311
  177SLPC   C3720142   4.260   0.997   6.242 -0.1954 -0.1045  0.3939
  177SLPC   H7X20143   4.249   0.892   6.210  1.1181  0.5895 -2.6922
  177SLPC   H7Y20144   4.370   1.009   6.256  0.0478 -0.2959 -1.2340
  177SLPC   C3820145   4.230   1.096   6.136  0.0983 -0.7044  0.4548
  177SLPC   H8X20146   4.259   1.198   6.166 -1.0482 -0.5308  1.0406
  177SLPC   H8Y20147   4.120   1.092   6.118  0.0579 -1.4456  0.8391
  177SLPC   C3920148   4.295   1.057   6.004 -0.9377  0.6393 -0.6960
  177SLPC   H9X20149   4.261   0.961   5.960 -2.2106  1.0414 -0.6375
  177SLPC   H9Y20150   4.404   1.060   6.025 -1.0641  2.4962 -0.0722
  177SLPC  C31020151   4.275   1.147   5.881 -0.0080 -0.2029  0.2786
  177SLPC  H10X20152   4.335   1.234   5.915  0.1405  0.0688 -0.6443
  177SLPC  H10Y20153   4.168   1.172   5.861 -0.3125 -2.6565 -1.8146
  177SLPC  C31120154   4.321   1.068   5.760 -0.3570 -0.1237  0.4028
  177SLPC  H11X20155   4.271   0.969   5.753  1.6869 -1.3582  1.9566
  177SLPC  H11Y20156   4.425   1.039   5.786 -0.3229  0.8890  1.5035
  177SLPC  C31220157   4.318   1.143   5.628 -0.2206 -0.3995  0.0961
  177SLPC  H12X20158   4.391   1.227   5.638 -0.3401 -0.0393 -1.6611
  177SLPC  H12Y20159   4.215   1.183   5.617 -0.2885 -0.8297 -0.9269
  177SLPC  C31320160   4.333   1.056   5.508  0.2134 -0.0528  0.0847
  177SLPC  H13X20161   4.399   0.969   5.528 -0.8879 -0.8131  0.5061
  177SLPC  H13Y20162   4.383   1.117   5.429  1.3062  0.6241  1.2658
  177SLPC  C31420163   4.199   0.998   5.450  1.4033 -0.0477 -0.9806
  177SLPC  H14X20164   4.140   0.964   5.537  1.4178 -1.1639 -1.3889
  177SLPC  H14Y20165   4.229   0.918   5.379  2.4797  1.0726 -1.8412
  177SLPC  C31520166   4.118   1.102   5.367 -0.1345 -0.0177  0.0289
  177SLPC  H15X20167   4.162   1.091   5.265 -2.5660 -1.8130 -0.9340
  177SLPC  H15Y20168   4.143   1.205   5.399  3.9487 -0.8085 -0.0825
  177SLPC  C31620169   3.963   1.072   5.373 -0.0877  0.2294 -0.1156
  177SLPC  H16X20170   3.919   1.095   5.472 -0.1366 -0.1478 -0.0474
  177SLPC  H16Y20171   3.950   0.962   5.366  0.0770 -0.0160  2.5306
  177SLPC  C31720172   3.888   1.139   5.264  0.0219  0.4241 -0.5551
  177SLPC  H17X20173   3.912   1.082   5.172  1.2802  0.2721 -0.1575
  177SLPC  H17Y20174   3.919   1.245   5.263  0.8466  0.1873 -0.4143
  177SLPC  C31820175   3.735   1.141   5.276 -0.2486 -0.2284  0.6636
  177SLPC  H18X20176   3.705   1.212   5.356 -2.3231 -0.6479  0.3051
  177SLPC  H18Y20177   3.706   1.035   5.294 -0.9133 -0.1043  0.3592
  177SLPC  H18Z20178   3.686   1.159   5.178  0.5293  0.4054  0.3819
  178SLPC     N20179   1.510   4.001   6.968  0.3919  0.5038  0.3337
  178SLPC   C1320180   1.585   4.102   6.893 -0.2108 -0.2911  0.1022
  178SLPC  H13A20181   1.568   4.191   6.952  1.9715 -1.4633  2.6992
  178SLPC  H13B20182   1.691   4.080   6.892  0.1142  1.1346  0.0361
  178SLPC  H13C20183   1.546   4.110   6.793  0.3253  2.7550  0.0389
  178SLPC   C1420184   1.363   4.029   6.944  0.0326 -0.0458 -0.2567
  178SLPC  H14A20185   1.344   4.028   6.838  2.7066  1.3367 -0.8287
  178SLPC  H14B20186   1.288   3.980   7.005 -1.9381  2.1317 -0.7626
  178SLPC  H14C20187   1.330   4.131   6.959 -1.6506 -0.6339  0.3322
  178SLPC   C1520188   1.537   4.010   7.116 -0.2955 -0.6358  0.2209
  178SLPC  H15A20189   1.474   3.946   7.176 -0.8436 -0.3645 -0.0628
  178SLPC  H15B20190   1.639   3.988   7.146  0.0856  1.3314  0.5173
  178SLPC  H15C20191   1.514   4.109   7.151 -1.9394 -1.8681  2.9215
  178SLPC   C1220192   1.544   3.861   6.926  0.2042  0.1326 -0.5823
  178SLPC  H12A20193   1.505   3.825   6.832  1.5428  2.0205 -1.9527
  178SLPC  H12B20194   1.505   3.797   7.004  1.0003  0.7178  0.3161
  178SLPC   C1120195   1.696   3.826   6.917 -0.0196 -0.5126  0.2169
  178SLPC  H11A20196   1.733   3.894   6.836  0.2731 -0.7673  0.1348
  178SLPC  H11B20197   1.691   3.722   6.878 -0.5925  0.2848 -2.0158
  178SLPC     P20198   1.811   3.728   7.130  0.2889 -0.2574 -0.2825
  178SLPC   O1320199   1.869   3.769   7.256  0.1217  0.4364 -0.0665
  178SLPC   O1420200   1.693   3.635   7.136 -0.4068 -1.0232  0.5220
  178SLPC   O1220201   1.772   3.848   7.037  0.3788  0.3888 -0.0017
  178SLPC   O1120202   1.923   3.645   7.060  0.1615  0.1743 -0.3727
  178SLPC    C120203   2.042   3.698   7.007 -0.2923  0.2314 -0.3584
  178SLPC    HA20204   2.077   3.788   7.062  0.8318  0.6027 -1.6162
  178SLPC    HB20205   2.126   3.627   7.022  1.4450  2.1267 -0.5622
  178SLPC    C220206   2.026   3.729   6.855  0.2176  0.1422 -1.0384
  178SLPC    HS20207   1.946   3.806   6.857  0.4098  0.4502  3.6075
  178SLPC   O2120208   1.993   3.605   6.797 -0.1183  0.8147  0.2680
  178SLPC   C2120209   1.918   3.624   6.695  0.1907 -0.0513  0.3104
  178SLPC   O2220210   1.858   3.724   6.665  0.6229 -0.4041 -0.4235
  178SLPC   C2220211   1.911   3.494   6.611 -1.1186  0.6227  0.4410
  178SLPC   H2R20212   2.015   3.478   6.575 -0.8704 -0.9928  1.7542
  178SLPC   H2S20213   1.877   3.419   6.686 -1.0548  1.2628  1.1187
  178SLPC    C320214   2.149   3.797   6.795 -0.4999 -0.2079 -0.1468
  178SLPC    HX20215   2.234   3.726   6.796  1.4345  1.8804  3.1982
  178SLPC    HY20216   2.170   3.881   6.864 -1.4195 -0.4420  0.4311
  178SLPC   O3120217   2.112   3.831   6.659 -0.4383  0.1443  0.1759
  178SLPC   C3120218   2.127   3.954   6.626  0.3710 -0.2893 -0.1977
  178SLPC   O3220219   2.178   4.041   6.696  0.1044  1.3955 -0.0107
  178SLPC   C3220220   2.044   3.981   6.497  0.7366  0.3649  0.7593
  178SLPC   H2X20221   2.022   4.090   6.488 -0.7376 -0.0490 -2.5912
  178SLPC   H2Y20222   1.950   3.923   6.510  0.1689  1.3957  1.4011
  178SLPC   C2320223   1.800   3.498   6.504  0.3551 -0.0842 -0.5592
  178SLPC   H3R20224   1.701   3.542   6.525 -1.9535 -4.7370 -0.3794
  178SLPC   H3S20225   1.771   3.393   6.481  1.5464 -0.2335 -1.5320
  178SLPC   C2420226   1.859   3.558   6.371  0.7770 -0.2678 -0.4740
  178SLPC   H4R20227   1.957   3.510   6.353  0.1363 -1.8685  0.1233
  178SLPC   H4S20228   1.870   3.668   6.371 -0.5969 -0.1082  0.0469
  178SLPC   C2520229   1.768   3.545   6.247 -0.5881  0.0530 -0.3459
  178SLPC   H5R20230   1.674   3.601   6.265 -2.0260 -1.8209 -1.5947
  178SLPC   H5S20231   1.737   3.440   6.229  1.2250  0.0173 -4.0371
  178SLPC   C2620232   1.850   3.580   6.122  0.3371 -0.0931 -0.2111
  178SLPC   H6R20233   1.934   3.509   6.104  1.3233 -0.1507  3.6397
  178SLPC   H6S20234   1.910   3.671   6.144  0.8919  0.4198 -3.4050
  178SLPC   C2720235   1.760   3.599   5.998  0.3668 -0.7029  0.6842
  178SLPC   H7R20236   1.697   3.688   6.019 -1.3579 -1.7301  0.0462
  178SLPC   H7S20237   1.699   3.508   5.980  0.9951 -1.3253  1.6021
  178SLPC   C2820238   1.844   3.629   5.874 -0.0765 -0.1818  0.3391
  178SLPC   H8R20239   1.910   3.717   5.893  1.5577 -1.6714  1.9241
  178SLPC   H8S20240   1.785   3.673   5.791  2.9678  1.3314 -1.1847
  178SLPC   C2920241   1.918   3.505   5.824 -0.6394  0.6980 -0.4310
  178SLPC   H9R20242   1.850   3.421   5.804 -1.5390  1.7354 -1.9738
  178SLPC  C21020243   2.044   3.478   5.800 -0.9661  0.5285  0.2759
  178SLPC  H10R20244   2.075   3.377   5.768 -1.3662  0.0375  1.3659
  178SLPC  C21120245   2.163   3.566   5.841  0.3627 -0.2600  0.6554
  178SLPC  H11R20246   2.141   3.674   5.852  4.2649  0.7601 -0.0033
  178SLPC  H11S20247   2.229   3.574   5.753 -1.8028 -0.1865 -1.0378
  178SLPC  C21220248   2.232   3.539   5.972 -0.1375  0.4523 -0.3384
  178SLPC  H12R20249   2.168   3.534   6.062  1.6742  3.6353  1.2897
  178SLPC  C21320250   2.370   3.531   5.996  0.0603  0.1694 -0.2734
  178SLPC  H13R20251   2.407   3.518   6.099  0.8369 -0.0407 -0.5735
  178SLPC  C21420252   2.473   3.544   5.884  0.0429 -0.4523 -0.2557
  178SLPC  H14R20253   2.424   3.568   5.787  1.3630  2.8410 -0.2405
  178SLPC  H14S20254   2.535   3.451   5.885  0.4178 -0.2202 -1.2328
  178SLPC  C21520255   2.566   3.663   5.916 -0.2165 -0.1517 -0.5670
  178SLPC  H15R20256   2.632   3.647   6.005 -1.0306  0.6395  0.2073
  178SLPC  H15S20257   2.516   3.761   5.933 -2.8707 -1.9155  3.1870
  178SLPC  C21620258   2.662   3.678   5.799  0.6808  0.9353 -0.1409
  178SLPC  H16R20259   2.601   3.696   5.708  0.5319 -0.3281 -0.3184
  178SLPC  H16S20260   2.700   3.574   5.790 -1.0740  0.3884 -2.3558
  178SLPC  C21720261   2.778   3.783   5.816  0.2879 -0.1702 -0.6977
  178SLPC  H17R20262   2.836   3.787   5.721 -0.8602  1.2164 -1.3557
  178SLPC  H17S20263   2.848   3.745   5.894  2.8838  3.2937 -1.0959
  178SLPC  C21820264   2.745   3.924   5.850  0.5377  0.0841 -0.0003
  178SLPC  H18R20265   2.833   3.985   5.879  0.2214 -1.0969  4.2095
  178SLPC  H18S20266   2.681   3.942   5.940  0.1210 -0.8467 -0.1030
  178SLPC  H18T20267   2.692   3.980   5.770 -2.0234 -1.2884  0.6217
  178SLPC   C3320268   2.126   3.935   6.370 -0.3420 -0.2240  0.2162
  178SLPC   H3X20269   2.128   3.824   6.372 -4.4324 -0.4284  2.1251
  178SLPC   H3Y20270   2.225   3.985   6.360 -1.1653  1.1533 -1.9038
  178SLPC   C3420271   2.050   3.976   6.241  0.3032 -0.0478  1.0355
  178SLPC   H4X20272   2.032   4.086   6.230 -3.1201 -0.5381  0.6332
  178SLPC   H4Y20273   1.949   3.930   6.249 -0.8017  1.7405 -1.2113
  178SLPC   C3520274   2.108   3.936   6.102  0.5935 -0.0675  0.1373
  178SLPC   H5X20275   2.048   3.968   6.015 -1.3335 -1.5811  0.8334
  178SLPC   H5Y20276   2.123   3.826   6.106 -0.4200 -0.2600 -0.9682
  178SLPC   C3620277   2.250   3.995   6.087  0.0127  0.1226  0.4553
  178SLPC   H6X20278   2.301   3.968   6.182 -0.0625 -1.8576 -0.0306
  178SLPC   H6Y20279   2.240   4.105   6.074 -2.4324 -0.2533 -1.7581
  178SLPC   C3720280   2.321   3.940   5.965  1.0926  0.0942  0.0378
  178SLPC   H7X20281   2.302   3.831   5.955 -0.0598  0.1822  0.9850
  178SLPC   H7Y20282   2.430   3.959   5.972  0.6997  2.4985  0.2178
  178SLPC   C3820283   2.283   4.018   5.831 -0.5044 -0.3069 -0.5216
  178SLPC   H8X20284   2.324   4.118   5.857  1.2152 -1.2733  0.6836
  178SLPC   H8Y20285   2.172   4.029   5.824 -0.4787  0.9472  0.6564
  178SLPC   C3920286   2.353   3.960   5.709  0.4013  0.6457  0.0818
  178SLPC   H9X20287   2.311   3.861   5.680  1.7514  0.6075 -1.9227
  178SLPC   H9Y20288   2.459   3.944   5.736  0.7182  2.6218  0.1670
  178SLPC  C31020289   2.359   4.057   5.592 -0.1692 -0.8731  0.4001
  178SLPC  H10X20290   2.411   4.152   5.618 -0.6828  0.1779 -2.1212
  178SLPC  H10Y20291   2.253   4.079   5.565 -0.3548 -2.0380  0.1334
  178SLPC  C31120292   2.427   4.009   5.459 -0.1230  0.8107  0.1160
  178SLPC  H11X20293   2.459   4.099   5.402  0.0541  0.0228 -1.0635
  178SLPC  H11Y20294   2.361   3.940   5.403  0.5414 -0.4638  0.8791
  178SLPC  C31220295   2.567   3.944   5.490 -0.1218 -0.3395  0.2467
  178SLPC  H12X20296   2.554   3.863   5.565  1.1036  0.7883  1.7435
  178SLPC  H12Y20297   2.609   4.027   5.551 -0.1294 -0.9924  1.1637
  178SLPC  C31320298   2.660   3.909   5.375  0.6406  0.3476 -0.3939
  178SLPC  H13X20299   2.762   3.903   5.418  0.2492  2.2229  0.9105
  178SLPC  H13Y20300   2.657   3.992   5.302 -2.0017  0.0417 -0.7353
  178SLPC  C31420301   2.630   3.771   5.309 -0.3999 -0.4411 -0.0181
  178SLPC  H14X20302   2.702   3.745   5.229  0.0481  1.3660 -0.2414
  178SLPC  H14Y20303   2.534   3.783   5.253  0.5759 -2.0311 -2.1601
  178SLPC  C31520304   2.594   3.646   5.390 -0.2954  0.1685  0.1602
  178SLPC  H15X20305   2.490   3.664   5.425 -1.3659 -0.5107 -2.3913
  178SLPC  H15Y20306   2.659   3.628   5.478 -1.1435 -1.7989  0.4217
  178SLPC  C31620307   2.592   3.513   5.314  0.7885 -0.4997  0.5819
  178SLPC  H16X20308   2.694   3.482   5.283  0.4557 -0.7593 -0.2907
  178SLPC  H16Y20309   2.536   3.542   5.222  1.5500  0.3395  0.3757
  178SLPC  C31720310   2.522   3.398   5.397  0.4803  0.1002 -0.6688
  178SLPC  H17X20311   2.534   3.310   5.330  0.8720 -0.3472 -0.0257
  178SLPC  H17Y20312   2.416   3.423   5.416 -0.4078 -4.1237  1.0182
  178SLPC  C31820313   2.582   3.372   5.533  0.1031 -0.1387  0.0913
  178SLPC  H18X20314   2.521   3.291   5.579 -1.3290  0.1111 -1.2644
  178SLPC  H18Y20315   2.582   3.461   5.599  1.6745  1.5616 -2.0158
  178SLPC  H18Z20316   2.690   3.347   5.535 -0.1437 -1.3380 -0.3379
  179SLPC     N20317   6.647   6.022   3.336 -0.3911  0.2197 -0.5805
  179SLPC   C1320318   6.507   6.039   3.281 -0.4084 -0.4315  0.5333
  179SLPC  H13A20319   6.445   6.039   3.370 -0.6110  0.4988  0.4066
  179SLPC  H13B20320   6.498   6.136   3.235 -0.6297  0.0643  1.5801
  179SLPC  H13C20321   6.474   5.960   3.216  2.2544  0.7883 -2.5916
  179SLPC   C1420322   6.748   5.979   3.239 -0.3909 -0.7836 -0.4024
  179SLPC  H14A20323   6.717   5.886   3.194 -0.3879  0.1086 -2.3629
  179SLPC  H14B20324   6.758   6.045   3.154  0.0035 -1.2549 -0.7225
  179SLPC  H14C20325   6.844   5.969   3.287 -0.2547  1.9000  0.0550
  179SLPC   C1520326   6.644   5.899   3.430  0.1377 -0.5066 -0.0012
  179SLPC  H15A20327   6.610   5.811   3.376  0.1231 -0.8524  0.5607
  179SLPC  H15B20328   6.747   5.875   3.452  0.4634  1.2948  0.5431
  179SLPC  H15C20329   6.587   5.904   3.522 -1.7003  1.8305 -1.1574
  179SLPC   C1220330   6.697   6.138   3.418  0.2557 -0.5667 -0.0643
  179SLPC  H12A20331   6.789   6.107   3.464  0.4194  0.5142  0.3802
  179SLPC  H12B20332   6.617   6.152   3.489  0.3735  1.8853 -0.3033
  179SLPC   C1120333   6.726   6.271   3.344 -0.0577 -0.6012  0.8266
  179SLPC  H11A20334   6.815   6.252   3.280 -0.3848 -1.4513  0.5993
  179SLPC  H11B20335   6.749   6.355   3.412  1.8392 -1.7506  1.6607
  179SLPC     P20336   6.503   6.407   3.273 -0.1156 -0.0840 -0.1143
  179SLPC   O1320337   6.543   6.542   3.210  0.5717  0.4839 -0.2212
  179SLPC   O1420338   6.384   6.334   3.223 -0.1001  0.5536 -0.3187
  179SLPC   O1220339   6.622   6.308   3.251  0.0323 -0.3667  0.3241
  179SLPC   O1120340   6.489   6.438   3.426  0.2557  0.3764 -0.0818
  179SLPC    C120341   6.361   6.455   3.482 -0.4839 -0.0590 -0.3582
  179SLPC    HA20342   6.335   6.563   3.484  3.1304  0.9388  0.6290
  179SLPC    HB20343   6.279   6.411   3.422 -1.6919  1.3752  0.1741
  179SLPC    C220344   6.341   6.392   3.630  1.0054  0.3958  0.0003
  179SLPC    HS20345   6.234   6.365   3.632  1.1178 -0.5882 -2.8153
  179SLPC   O2120346   6.378   6.486   3.733 -0.5919  0.1931 -0.5746
  179SLPC   C2120347   6.286   6.570   3.758 -0.0001 -0.6762 -0.5191
  179SLPC   O2220348   6.178   6.585   3.707 -0.5517  0.1961 -0.1370
  179SLPC   C2220349   6.326   6.652   3.881 -0.5163 -0.3088  0.6243
  179SLPC   H2R20350   6.436   6.650   3.893 -0.5967  1.7084  2.1102
  179SLPC   H2S20351   6.302   6.759   3.862 -1.1266 -0.4336  0.6455
  179SLPC    C320352   6.401   6.255   3.642 -0.0006  0.2277  0.1158
  179SLPC    HX20353   6.510   6.270   3.659  0.2999 -0.7801 -0.8696
  179SLPC    HY20354   6.394   6.203   3.544  3.2908 -1.5220  0.6421
  179SLPC   O3120355   6.347   6.182   3.754  0.0404 -0.0856  0.0468
  179SLPC   C3120356   6.351   6.052   3.748 -0.2433 -0.2844  0.0764
  179SLPC   O3220357   6.398   5.992   3.659  0.0985 -0.8623  0.2519
  179SLPC   C3220358   6.306   5.990   3.879 -0.5350  0.5598  0.5378
  179SLPC   H2X20359   6.389   6.018   3.947 -0.9637  0.2253  1.2152
  179SLPC   H2Y20360   6.312   5.880   3.870  1.7272  0.6035  1.0119
  179SLPC   C2320361   6.255   6.601   4.012  0.1193 -0.1304 -0.1968
  179SLPC   H3R20362   6.285   6.495   4.022  0.7173  0.1259  0.8063
  179SLPC   H3S20363   6.145   6.600   3.998  0.1788  1.7590 -1.1622
  179SLPC   C2420364   6.291   6.676   4.140 -0.0886  0.1798 -0.2075
  179SLPC   H4R20365   6.281   6.785   4.123 -0.8555 -0.1288 -1.9568
  179SLPC   H4S20366   6.398   6.652   4.156 -0.9742 -3.1270  1.8237
  179SLPC   C2520367   6.206   6.630   4.251 -0.2552  0.1642 -0.7780
  179SLPC   H5R20368   6.226   6.521   4.261 -1.5305  0.0144  0.4497
  179SLPC   H5S20369   6.097   6.647   4.242 -0.3765 -0.7349 -1.0800
  179SLPC   C2620370   6.249   6.698   4.385 -0.4172 -0.1672 -0.4607
  179SLPC   H6R20371   6.251   6.808   4.373 -0.3069 -0.3226 -2.1122
  179SLPC   H6S20372   6.353   6.658   4.387 -0.3497 -0.4614 -3.6834
  179SLPC   C2720373   6.160   6.651   4.493  0.4240 -0.6671  0.0391
  179SLPC   H7R20374   6.170   6.541   4.499  0.6627 -0.6335  0.3092
  179SLPC   H7S20375   6.052   6.672   4.477 -0.1803 -2.2608  1.5881
  179SLPC   C2820376   6.194   6.720   4.628 -0.3940 -0.4226  0.2519
  179SLPC   H8R20377   6.198   6.830   4.612 -0.5089 -0.1485  1.9192
  179SLPC   H8S20378   6.303   6.710   4.646  0.2362  2.3758 -1.3691
  179SLPC   C2920379   6.111   6.695   4.748 -0.0975  0.6032 -0.0796
  179SLPC   H9R20380   6.073   6.592   4.762  0.8549  0.2173 -0.2480
  179SLPC  C21020381   6.072   6.775   4.843 -0.7636  0.8920 -0.3099
  179SLPC  H10R20382   6.003   6.743   4.922  1.9255 -0.0793  1.8055
  179SLPC  C21120383   6.121   6.916   4.857 -0.0771  0.7177 -0.3170
  179SLPC  H11R20384   6.156   6.964   4.763  1.1239  1.6420  0.5763
  179SLPC  H11S20385   6.207   6.933   4.925  0.2528 -0.0769 -0.5219
  179SLPC  C21220386   6.013   7.005   4.901 -0.3816  0.0539 -0.2432
  179SLPC  H12R20387   5.977   7.082   4.832 -0.1104  1.4299  1.1126
  179SLPC  C21320388   5.971   7.009   5.029  1.1678 -0.2044 -1.0465
  179SLPC  H13R20389   5.889   7.074   5.062  2.5146  0.4310  1.2506
  179SLPC  C21420390   6.000   6.904   5.132 -0.2830 -0.8435  0.4247
  179SLPC  H14R20391   6.091   6.844   5.110 -1.1634 -2.5641  1.2778
  179SLPC  H14S20392   5.916   6.832   5.144 -2.4786  1.3546 -0.9221
  179SLPC  C21520393   6.030   6.970   5.264 -0.1450  0.1228 -0.4149
  179SLPC  H15R20394   5.944   7.026   5.306  0.5568  0.5481  0.5127
  179SLPC  H15S20395   6.110   7.045   5.244 -0.5462  0.4315 -0.8914
  179SLPC  C21620396   6.097   6.871   5.371 -0.5087  0.1651  0.0359
  179SLPC  H16R20397   6.149   6.942   5.440  0.6564 -0.1178 -0.5256
  179SLPC  H16S20398   6.177   6.808   5.327 -1.8900 -0.8168 -1.1456
  179SLPC  C21720399   5.994   6.785   5.449  0.5421  0.2660  0.1871
  179SLPC  H17R20400   5.930   6.745   5.368  0.6105  1.8010 -0.6510
  179SLPC  H17S20401   5.929   6.860   5.500  1.1048  1.7093 -1.1403
  179SLPC  C21820402   6.051   6.683   5.549  0.2584  0.2412  0.0591
  179SLPC  H18R20403   5.967   6.614   5.573 -1.0381  2.4307  2.3128
  179SLPC  H18S20404   6.081   6.729   5.645  1.6964 -0.6469  0.0631
  179SLPC  H18T20405   6.134   6.622   5.509 -0.8918 -1.4654  0.1752
  179SLPC   C3320406   6.175   6.040   3.942 -0.7133 -0.1911  0.3827
  179SLPC   H3X20407   6.096   5.963   3.927  0.1578 -1.9411  3.6932
  179SLPC   H3Y20408   6.163   6.144   3.906  0.7080  0.6762  2.2936
  179SLPC   C3420409   6.180   6.067   4.097 -0.1355 -0.7194  0.8841
  179SLPC   H4X20410   6.089   6.125   4.121  0.1856  0.8332 -1.3004
  179SLPC   H4Y20411   6.268   6.130   4.121  0.2782 -0.9280 -0.0302
  179SLPC   C3520412   6.192   5.929   4.176  0.9384 -0.6662 -0.1595
  179SLPC   H5X20413   6.136   5.853   4.118 -0.0722  0.2346 -0.4101
  179SLPC   H5Y20414   6.297   5.899   4.191  0.3596 -0.9160  5.1056
  179SLPC   C3620415   6.129   5.934   4.321 -0.3483 -0.4257 -0.2140
  179SLPC   H6X20416   6.040   6.000   4.328 -1.5824 -2.0048 -0.4169
  179SLPC   H6Y20417   6.207   5.978   4.386 -1.3352  0.0332  0.6855
  179SLPC   C3720418   6.096   5.794   4.378 -0.0114 -0.4591 -0.3407
  179SLPC   H7X20419   6.163   5.715   4.338 -0.8544 -1.1702 -0.3852
  179SLPC   H7Y20420   6.004   5.775   4.318 -0.0058 -2.3634  0.2035
  179SLPC   C3820421   6.067   5.776   4.523 -0.5538 -0.5304 -0.1977
  179SLPC   H8X20422   6.016   5.679   4.536  0.2590 -0.8751  0.4868
  179SLPC   H8Y20423   5.996   5.855   4.556  1.1242  0.7939  0.3896
  179SLPC   C3920424   6.196   5.777   4.613  0.3316 -0.2420  0.3948
  179SLPC   H9X20425   6.189   5.869   4.675  0.8271 -1.2644  2.0283
  179SLPC   H9Y20426   6.280   5.799   4.543 -1.4463  1.0684 -1.4385
  179SLPC  C31020427   6.218   5.648   4.700 -0.5773 -0.0320  0.6093
  179SLPC  H10X20428   6.212   5.561   4.631 -3.1141  0.3549  0.2346
  179SLPC  H10Y20429   6.132   5.637   4.769 -0.5501  1.0923  0.8551
  179SLPC  C31120430   6.353   5.648   4.769  0.3938 -0.3168  0.0924
  179SLPC  H11X20431   6.354   5.734   4.839  1.3710  0.7646 -1.1947
  179SLPC  H11Y20432   6.430   5.674   4.693 -0.2430  1.3116 -0.0163
  179SLPC  C31220433   6.382   5.519   4.835 -0.0070 -0.6010  0.2535
  179SLPC  H12X20434   6.373   5.440   4.757  0.7634  2.1236 -2.8090
  179SLPC  H12Y20435   6.310   5.491   4.916 -0.6919  1.7316  0.5097
  179SLPC  C31320436   6.527   5.509   4.889  0.5995 -0.2953 -0.3910
  179SLPC  H13X20437   6.602   5.516   4.808 -1.0081  2.8174 -1.7904
  179SLPC  H13Y20438   6.525   5.407   4.935  1.0289  0.9009  2.5245
  179SLPC  C31420439   6.571   5.593   5.014  0.3369 -0.3339 -0.1328
  179SLPC  H14X20440   6.549   5.702   5.004 -0.5988 -0.5491 -0.5646
  179SLPC  H14Y20441   6.678   5.566   5.025 -0.0368 -2.0120 -0.3807
  179SLPC  C31520442   6.502   5.552   5.141 -0.1214  0.3463  0.5725
  179SLPC  H15X20443   6.497   5.441   5.149  1.5069  0.2650  0.6830
  179SLPC  H15Y20444   6.396   5.586   5.142 -0.8152 -1.6600  1.3189
  179SLPC  C31620445   6.559   5.606   5.278  0.0644  0.9255 -0.1412
  179SLPC  H16X20446   6.488   5.585   5.361  0.2140 -0.5994 -0.3783
  179SLPC  H16Y20447   6.575   5.715   5.259 -2.9660  1.5678  0.4924
  179SLPC  C31720448   6.689   5.540   5.329 -0.3928 -0.4868  0.1444
  179SLPC  H17X20449   6.718   5.599   5.419 -0.3323 -0.3499  0.0343
  179SLPC  H17Y20450   6.765   5.544   5.249 -1.9870  2.0762 -1.3908
  179SLPC  C31820451   6.669   5.394   5.368  0.1070 -0.3024 -0.0084
  179SLPC  H18X20452   6.649   5.337   5.274 -1.4879 -1.3816  0.9316
  179SLPC  H18Y20453   6.575   5.371   5.424 -0.3795 -0.9605 -1.0384
  179SLPC  H18Z20454   6.762   5.350   5.408  0.7211  0.9135 -0.0748
  180SLPC     N20455   6.230   3.189   2.817 -0.3883 -0.1049  0.0599
  180SLPC   C1320456   6.112   3.193   2.903 -0.5923  0.3603  0.1941
  180SLPC  H13A20457   6.016   3.211   2.857 -0.0505  0.2166 -1.0265
  180SLPC  H13B20458   6.092   3.098   2.951  0.3581  0.1488  0.1782
  180SLPC  H13C20459   6.113   3.270   2.978 -1.2171 -1.2607  1.9581
  180SLPC   C1420460   6.198   3.100   2.711 -0.2488  0.8445  0.0387
  180SLPC  H14A20461   6.165   3.005   2.751  0.9128 -0.0352 -1.0210
  180SLPC  H14B20462   6.111   3.133   2.655 -1.0611 -2.4950 -0.9176
  180SLPC  H14C20463   6.276   3.070   2.643 -1.4196 -1.4701 -0.4134
  180SLPC   C1520464   6.353   3.130   2.883 -0.3765 -0.0541  0.3045
  180SLPC  H15A20465   6.393   3.202   2.952  0.3654  1.1013 -1.2870
  180SLPC  H15B20466   6.328   3.046   2.947  1.2477  0.2025  1.3191
  180SLPC  H15C20467   6.432   3.104   2.815  0.0415  0.1549  0.7076
  180SLPC   C1220468   6.255   3.329   2.761  0.0290 -0.0309  0.7597
  180SLPC  H12A20469   6.170   3.367   2.707  0.4597  1.0220  0.7965
  180SLPC  H12B20470   6.329   3.315   2.684 -1.9290 -0.8917 -1.0525
  180SLPC   C1120471   6.307   3.432   2.865  0.3533 -0.3253  0.2539
  180SLPC  H11A20472   6.363   3.509   2.807 -0.9730  1.8443  1.6972
  180SLPC  H11B20473   6.375   3.401   2.947 -4.0199 -0.8842  4.1155
  180SLPC     P20474   6.201   3.619   3.009 -0.3890 -0.3033 -0.0472
  180SLPC   O1320475   6.218   3.737   2.923 -0.0455  0.2312 -0.0823
  180SLPC   O1420476   6.085   3.634   3.100 -0.2256 -0.0224 -0.0550
  180SLPC   O1220477   6.193   3.491   2.921  0.0132  0.4269 -0.0438
  180SLPC   O1120478   6.336   3.614   3.087  0.2729  0.2736  0.0748
  180SLPC    C120479   6.360   3.503   3.177  0.0591 -0.7693 -0.0930
  180SLPC    HA20480   6.312   3.410   3.139 -1.5125 -0.1498  0.2931
  180SLPC    HB20481   6.470   3.498   3.191 -0.0228 -0.1495  0.8648
  180SLPC    C220482   6.308   3.524   3.327  0.7080  0.7930 -0.3511
  180SLPC    HS20483   6.199   3.544   3.319  0.6708  1.1256  0.8475
  180SLPC   O2120484   6.389   3.628   3.393 -0.2419 -0.3026  0.3180
  180SLPC   C2120485   6.319   3.696   3.475  0.0578 -0.6244  0.0732
  180SLPC   O2220486   6.197   3.684   3.488 -0.0192  0.4870 -0.0480
  180SLPC   C2220487   6.397   3.795   3.567 -0.3808  0.0500  0.8762
  180SLPC   H2R20488   6.484   3.735   3.602  0.8540  0.9915 -0.4500
  180SLPC   H2S20489   6.440   3.882   3.512 -2.1818  0.3118 -0.1714
  180SLPC    C320490   6.329   3.394   3.409  0.4914  0.5049 -0.0786
  180SLPC    HX20491   6.435   3.362   3.406  0.1351 -0.9214  1.0905
  180SLPC    HY20492   6.277   3.320   3.344  0.8652  0.4449 -0.3110
  180SLPC   O3120493   6.289   3.389   3.546 -0.0450 -0.4104 -0.3784
  180SLPC   C3120494   6.178   3.331   3.586 -0.1957 -0.1469 -0.5849
  180SLPC   O3220495   6.105   3.260   3.518  0.0884  0.6298 -0.3570
  180SLPC   C3220496   6.164   3.359   3.737  0.2998  0.5775 -0.5487
  180SLPC   H2X20497   6.247   3.319   3.799 -0.4366 -1.5311 -0.8358
  180SLPC   H2Y20498   6.069   3.313   3.770 -0.0070  0.4941 -1.5218
  180SLPC   C2320499   6.318   3.850   3.692  0.6971  0.4526  0.4524
  180SLPC   H3R20500   6.239   3.775   3.715  0.8746  0.0036 -0.3876
  180SLPC   H3S20501   6.260   3.926   3.635  0.8587  0.7733  0.7125
  180SLPC   C2420502   6.419   3.883   3.798 -0.8276  0.2418 -0.0790
  180SLPC   H4R20503   6.495   3.950   3.753 -0.2278  1.2309  2.2754
  180SLPC   H4S20504   6.475   3.792   3.832  3.5131  3.1700  1.4899
  180SLPC   C2520505   6.361   3.944   3.928 -0.0976  0.0110 -0.0366
  180SLPC   H5R20506   6.279   3.874   3.956 -0.4036  0.1930 -0.4628
  180SLPC   H5S20507   6.316   4.043   3.906 -1.3738 -0.4392  0.4619
  180SLPC   C2620508   6.478   3.954   4.039  0.5264 -0.1859 -0.3450
  180SLPC   H6R20509   6.520   4.053   4.013 -1.6540  0.5070 -1.4724
  180SLPC   H6S20510   6.549   3.869   4.027 -1.6873 -2.1916 -0.0223
  180SLPC   C2720511   6.425   3.967   4.181 -0.6977  0.0809 -0.7974
  180SLPC   H7R20512   6.395   3.868   4.222  1.4285 -0.3482 -0.1530
  180SLPC   H7S20513   6.331   4.026   4.186 -0.3418  0.7195 -1.5594
  180SLPC   C2820514   6.533   4.023   4.280  0.2689 -0.0064 -0.2433
  180SLPC   H8R20515   6.565   4.116   4.230 -0.0463 -0.1446 -0.7145
  180SLPC   H8S20516   6.613   3.946   4.278 -0.0167 -0.4633  2.4774
  180SLPC   C2920517   6.470   4.011   4.417 -0.2518 -0.8101 -0.1842
  180SLPC   H9R20518   6.467   3.910   4.459  3.1695 -0.7444  0.5574
  180SLPC  C21020519   6.460   4.123   4.499  0.7842  0.7023 -0.1110
  180SLPC  H10R20520   6.419   4.110   4.600 -0.2419 -0.9446 -0.7061
  180SLPC  C21120521   6.476   4.264   4.443 -0.7373 -0.1530 -0.5125
  180SLPC  H11R20522   6.481   4.251   4.333 -3.1834 -1.8978 -0.5152
  180SLPC  H11S20523   6.566   4.318   4.480 -0.5034 -0.5986 -0.4219
  180SLPC  C21220524   6.353   4.347   4.488 -0.1218 -0.0491  0.6304
  180SLPC  H12R20525   6.349   4.370   4.595 -1.2413 -1.5489  0.9328
  180SLPC  C21320526   6.254   4.391   4.415 -0.1073  0.3572  0.7945
  180SLPC  H13R20527   6.175   4.452   4.462  0.4753  2.3793 -0.6939
  180SLPC  C21420528   6.228   4.374   4.270  0.1321 -0.2226 -0.0205
  180SLPC  H14R20529   6.119   4.356   4.258  0.5484 -2.0063 -1.5452
  180SLPC  H14S20530   6.285   4.287   4.231  1.7747  0.9183 -0.2840
  180SLPC  C21520531   6.270   4.484   4.176  0.4928 -0.5728 -0.4634
  180SLPC  H15R20532   6.372   4.522   4.200 -0.3174  1.1880  0.3176
  180SLPC  H15S20533   6.198   4.568   4.187  1.8534  0.8845 -2.0226
  180SLPC  C21620534   6.256   4.441   4.034  0.1104 -0.5989 -0.1027
  180SLPC  H16R20535   6.255   4.522   3.959 -1.0273 -0.9926 -0.5385
  180SLPC  H16S20536   6.168   4.374   4.025 -0.5155  0.0679  0.8555
  180SLPC  C21720537   6.378   4.358   4.001  0.2682  0.5871 -0.2058
  180SLPC  H17R20538   6.367   4.264   4.060  1.3991 -0.0210 -0.9360
  180SLPC  H17S20539   6.469   4.402   4.045  3.3394 -2.5376 -2.8508
  180SLPC  C21820540   6.404   4.331   3.853  0.3826 -0.6127  0.3984
  180SLPC  H18R20541   6.424   4.426   3.800  0.8778  0.1034  1.8078
  180SLPC  H18S20542   6.323   4.287   3.790  0.2247  2.8973 -2.1387
  180SLPC  H18T20543   6.499   4.285   3.820  1.0812 -0.4140  2.0577
  180SLPC   C3320544   6.152   3.508   3.757 -0.2188 -0.7203  0.6792
  180SLPC   H3X20545   6.068   3.560   3.705 -0.9022  0.3504  2.7568
  180SLPC   H3Y20546   6.241   3.557   3.712  0.3000 -0.6078  1.7918
  180SLPC   C3420547   6.146   3.560   3.899  0.2502  0.5873 -0.9758
  180SLPC   H4X20548   6.040   3.560   3.930  0.1597  2.9638 -1.1303
  180SLPC   H4Y20549   6.169   3.669   3.895 -1.6800  1.0251 -0.8368
  180SLPC   C3520550   6.240   3.483   4.000  0.0016 -0.1252  0.3571
  180SLPC   H5X20551   6.342   3.500   3.958 -0.6897  0.6162 -1.0856
  180SLPC   H5Y20552   6.214   3.375   3.995  0.3672 -0.1554 -3.0459
  180SLPC   C3620553   6.223   3.527   4.147  0.2012  0.1608 -0.0002
  180SLPC   H6X20554   6.116   3.505   4.171  0.4607 -1.6359 -0.3347
  180SLPC   H6Y20555   6.241   3.636   4.153  3.9162 -0.3738  0.6284
  180SLPC   C3720556   6.316   3.457   4.239  0.4142 -0.4423  0.4756
  180SLPC   H7X20557   6.420   3.484   4.211 -0.3438  1.1397 -1.0550
  180SLPC   H7Y20558   6.303   3.348   4.222 -0.8999 -0.4819  1.5420
  180SLPC   C3820559   6.292   3.484   4.392 -0.2837  0.5651  0.5239
  180SLPC   H8X20560   6.273   3.392   4.451  0.3514 -2.4564 -3.5984
  180SLPC   H8Y20561   6.192   3.530   4.404 -0.0094  1.3819 -0.2312
  180SLPC   C3920562   6.399   3.575   4.459 -0.0670 -0.1999  0.3792
  180SLPC   H9X20563   6.381   3.677   4.420 -2.8224 -0.2721  1.2447
  180SLPC   H9Y20564   6.498   3.534   4.430 -0.1066  0.6537 -1.0317
  180SLPC  C31020565   6.377   3.585   4.612  0.4258 -0.4274 -0.5806
  180SLPC  H10X20566   6.369   3.479   4.643  3.0455 -0.4252  0.3641
  180SLPC  H10Y20567   6.283   3.640   4.636  2.9454  3.0889  2.3166
  180SLPC  C31120568   6.492   3.662   4.681 -0.1834  0.1615 -0.0911
  180SLPC  H11X20569   6.516   3.751   4.619  1.5164 -0.5085 -0.4517
  180SLPC  H11Y20570   6.587   3.604   4.686 -0.3086  0.0414  1.2510
  180SLPC  C31220571   6.465   3.706   4.818 -0.0322 -0.5280  0.0455
  180SLPC  H12X20572   6.456   3.618   4.885 -0.8429  0.3976  1.1885
  180SLPC  H12Y20573   6.372   3.767   4.826  0.6829  0.5354  0.3921
  180SLPC  C31320574   6.578   3.791   4.880  0.0010 -0.2478  0.0111
  180SLPC  H13X20575   6.614   3.867   4.807 -2.4350  1.2020  0.2000
  180SLPC  H13Y20576   6.665   3.724   4.898 -0.5835 -1.2106 -0.6895
  180SLPC  C31420577   6.548   3.871   5.009  0.1415  0.0148  0.5677
  180SLPC  H14X20578   6.516   3.817   5.101 -1.8865 -1.2804 -0.8021
  180SLPC  H14Y20579   6.460   3.939   4.997  1.2008  1.5710  1.3122
  180SLPC  C31520580   6.657   3.974   5.044 -0.1654  0.1610 -0.0447
  180SLPC  H15X20581   6.676   4.052   4.968  1.1912  0.2108  0.3286
  180SLPC  H15Y20582   6.752   3.919   5.054  1.5781  2.9191 -0.4589
  180SLPC  C31620583   6.621   4.043   5.176  0.2557 -0.4258  0.3869
  180SLPC  H16X20584   6.591   3.968   5.253  0.3489  0.3712  1.2178
  180SLPC  H16Y20585   6.529   4.103   5.156  0.6099 -0.5859 -2.0450
  180SLPC  C31720586   6.730   4.129   5.244 -0.2695  0.3140 -0.0045
  180SLPC  H17X20587   6.775   4.203   5.175  3.0370 -1.5469 -0.0150
  180SLPC  H17Y20588   6.808   4.056   5.274 -2.0177 -1.1958  1.1034
  180SLPC  C31820589   6.675   4.207   5.363  0.5570 -0.0877 -0.0720
  180SLPC  H18X20590   6.603   4.280   5.319 -1.0756 -1.5939 -0.0111
  180SLPC  H18Y20591   6.748   4.263   5.425 -1.2761  1.9476  0.4144
  180SLPC  H18Z20592   6.620   4.143   5.435 -1.0400  0.5519 -0.6611
  181SLPC     N20593   5.344   3.453   2.820  0.5578  0.4175 -0.2236
  181SLPC   C1320594   5.413   3.503   2.699 -0.0817 -0.3149  0.1985
  181SLPC  H13A20595   5.486   3.432   2.663  0.4971  0.8953 -1.1087
  181SLPC  H13B20596   5.336   3.497   2.624 -0.8755 -1.4921  1.0702
  181SLPC  H13C20597   5.458   3.601   2.709  2.4668 -1.2594 -0.9892
  181SLPC   C1420598   5.320   3.304   2.799  0.2149 -0.1147  0.4491
  181SLPC  H14A20599   5.270   3.288   2.704 -0.0706  2.8027  0.0126
  181SLPC  H14B20600   5.403   3.236   2.805 -1.4577 -2.1392  1.6721
  181SLPC  H14C20601   5.253   3.268   2.876  1.9363  1.7786  3.0209
  181SLPC   C1520602   5.206   3.511   2.827  0.3714 -0.2465  0.0108
  181SLPC  H15A20603   5.157   3.480   2.736 -0.4742  1.7698 -0.2848
  181SLPC  H15B20604   5.159   3.474   2.917 -1.3597 -0.1860 -0.8341
  181SLPC  H15C20605   5.214   3.619   2.821  0.9560 -0.3234 -0.7880
  181SLPC   C1220606   5.421   3.484   2.944  0.2887  0.0005  0.2043
  181SLPC  H12A20607   5.431   3.590   2.961 -1.9385  0.1147  1.1209
  181SLPC  H12B20608   5.525   3.457   2.930  0.2115 -0.6828  0.9101
  181SLPC   C1120609   5.383   3.406   3.076 -1.0097  0.0502  0.1141
  181SLPC  H11A20610   5.460   3.416   3.155  0.8895  1.0048 -1.7600
  181SLPC  H11B20611   5.385   3.299   3.045  1.6756  0.4698 -1.5070
  181SLPC     P20612   5.248   3.589   3.182 -0.1128 -0.4102 -0.2344
  181SLPC   O1320613   5.317   3.691   3.092  0.1140  0.1245 -0.6008
  181SLPC   O1420614   5.106   3.632   3.203 -0.1116  0.8743 -0.2871
  181SLPC   O1220615   5.257   3.440   3.129 -0.1674  0.1088 -0.0708
  181SLPC   O1120616   5.326   3.570   3.317  0.2925  0.1238  0.0247
  181SLPC    C120617   5.293   3.470   3.413 -0.8321 -0.1937  0.3674
  181SLPC    HA20618   5.186   3.489   3.434 -0.5149 -1.0029  3.1489
  181SLPC    HB20619   5.300   3.372   3.361  0.3822  0.0546  0.0188
  181SLPC    C220620   5.398   3.468   3.530  0.2818  0.1921 -0.4022
  181SLPC    HS20621   5.373   3.387   3.602  2.1688  0.2224  0.3623
  181SLPC   O2120622   5.409   3.593   3.598 -0.3019 -0.0752 -0.2034
  181SLPC   C2120623   5.296   3.629   3.661  0.2459  0.2705 -0.3533
  181SLPC   O2220624   5.196   3.564   3.673  0.0871  0.2183 -0.1255
  181SLPC   C2220625   5.309   3.776   3.713  0.1130 -0.3158  0.3852
  181SLPC   H2R20626   5.357   3.844   3.639 -1.0974 -0.1994 -0.3122
  181SLPC   H2S20627   5.214   3.830   3.734  1.2459  2.5531 -1.2675
  181SLPC    C320628   5.537   3.431   3.468  0.4161  0.5799 -0.4373
  181SLPC    HX20629   5.567   3.523   3.414  1.0114  1.2208  0.9374
  181SLPC    HY20630   5.519   3.351   3.392  1.3167 -1.8610  1.7968
  181SLPC   O3120631   5.635   3.401   3.564 -0.1420 -0.0711  0.0758
  181SLPC   C3120632   5.632   3.282   3.627  0.7207  0.2962 -0.0294
  181SLPC   O3220633   5.547   3.196   3.615  0.2802 -0.1159 -0.2350
  181SLPC   C3220634   5.745   3.278   3.725 -0.2072 -0.5322 -0.1438
  181SLPC   H2X20635   5.839   3.272   3.666 -1.1881 -1.8950 -1.6608
  181SLPC   H2Y20636   5.747   3.182   3.782  0.0080  0.3824  1.4403
  181SLPC   C2320637   5.391   3.786   3.846  1.0372 -0.0130 -0.3157
  181SLPC   H3R20638   5.418   3.893   3.856 -1.4566  0.6348  0.2192
  181SLPC   H3S20639   5.476   3.715   3.844  0.6976 -0.5430 -4.2923
  181SLPC   C2420640   5.301   3.755   3.967 -0.2943  0.1367  0.5991
  181SLPC   H4R20641   5.241   3.666   3.939 -2.2370  1.4636  0.3418
  181SLPC   H4S20642   5.221   3.831   3.957  0.4509  0.7044 -1.5155
  181SLPC   C2520643   5.384   3.751   4.090 -0.0653  0.1109 -0.5536
  181SLPC   H5R20644   5.461   3.671   4.085 -1.6052 -1.6272  1.5983
  181SLPC   H5S20645   5.315   3.703   4.162  0.6532 -0.6451 -0.3500
  181SLPC   C2620646   5.428   3.884   4.148 -0.1815  0.3942 -0.0780
  181SLPC   H6R20647   5.340   3.941   4.183  0.0207  0.7159 -0.0919
  181SLPC   H6S20648   5.485   3.932   4.065  2.5175 -2.1788  0.1069
  181SLPC   C2720649   5.525   3.873   4.266 -0.0252  0.1005  0.2431
  181SLPC   H7R20650   5.549   3.977   4.297 -2.9233  0.9020  0.0752
  181SLPC   H7S20651   5.620   3.823   4.237  0.6117  0.0973  2.1945
  181SLPC   C2820652   5.472   3.801   4.397 -0.6346  0.4843  0.3648
  181SLPC   H8R20653   5.557   3.807   4.468 -2.1040 -0.4817  2.2861
  181SLPC   H8S20654   5.467   3.693   4.372  0.4474  0.8949 -1.9077
  181SLPC   C2920655   5.352   3.859   4.467  0.3905 -0.0877 -0.1868
  181SLPC   H9R20656   5.265   3.887   4.407 -1.2207  0.4920  2.2473
  181SLPC  C21020657   5.346   3.893   4.600 -0.3429  0.2046 -0.0099
  181SLPC  H10R20658   5.257   3.946   4.635  0.6822  2.3003 -0.4531
  181SLPC  C21120659   5.451   3.869   4.710  0.1623 -0.2915  0.1321
  181SLPC  H11R20660   5.509   3.776   4.694  0.2728 -0.0067 -1.2673
  181SLPC  H11S20661   5.417   3.859   4.815  0.1291  0.2853  0.1816
  181SLPC  C21220662   5.541   3.990   4.709 -0.3611 -0.1075 -0.2707
  181SLPC  H12R20663   5.619   3.979   4.631 -1.1485  3.1240 -1.6642
  181SLPC  C21320664   5.515   4.112   4.763 -1.0255 -0.2125  0.1289
  181SLPC  H13R20665   5.588   4.194   4.769 -1.8742  0.4717  1.6807
  181SLPC  C21420666   5.403   4.166   4.841  0.3138 -0.3249  0.4111
  181SLPC  H14R20667   5.308   4.183   4.787  0.5981 -0.6179 -0.1840
  181SLPC  H14S20668   5.424   4.272   4.866 -0.0214 -0.3907  0.9911
  181SLPC  C21520669   5.370   4.096   4.973  0.1929  0.5761 -0.1031
  181SLPC  H15R20670   5.456   4.082   5.043  0.1163 -2.0338 -0.4380
  181SLPC  H15S20671   5.323   3.997   4.955 -0.1218  0.6747  0.1552
  181SLPC  C21620672   5.261   4.167   5.058 -0.2889  0.3458 -0.3576
  181SLPC  H16R20673   5.171   4.196   5.000  0.2082  0.7601 -0.9215
  181SLPC  H16S20674   5.283   4.269   5.095 -0.8267  0.0357  0.8941
  181SLPC  C21720675   5.210   4.077   5.176 -0.7826 -0.0965  0.1222
  181SLPC  H17R20676   5.295   4.071   5.248 -1.6810  0.4450  1.2628
  181SLPC  H17S20677   5.180   3.980   5.132 -1.3368  0.7005 -1.3325
  181SLPC  C21820678   5.091   4.138   5.244 -0.0888 -0.7933  0.0271
  181SLPC  H18R20679   5.063   4.069   5.326 -0.4310 -1.3858 -0.5809
  181SLPC  H18S20680   4.997   4.143   5.184  0.2877  0.5506 -0.4871
  181SLPC  H18T20681   5.108   4.242   5.279  1.5914 -0.6614 -1.0782
  181SLPC   C3320682   5.744   3.397   3.825 -0.2142  0.6609 -0.0297
  181SLPC   H3X20683   5.750   3.499   3.783  0.4445  0.4128 -0.5509
  181SLPC   H3Y20684   5.839   3.380   3.880 -0.4483  2.5423  1.0524
  181SLPC   C3420685   5.627   3.376   3.924 -0.3713 -0.5799  0.3549
  181SLPC   H4X20686   5.613   3.273   3.964 -0.8693 -0.3159  0.8784
  181SLPC   H4Y20687   5.536   3.405   3.867  2.3596  0.0373 -4.2257
  181SLPC   C3520688   5.649   3.464   4.045 -0.6402 -0.1256  0.0281
  181SLPC   H5X20689   5.548   3.475   4.089 -0.6426 -0.2036  0.0418
  181SLPC   H5Y20690   5.665   3.567   4.007 -0.6843  0.0624  0.5107
  181SLPC   C3620691   5.767   3.424   4.139  0.6457 -0.1177 -0.9279
  181SLPC   H6X20692   5.868   3.439   4.093  1.3350  1.5374  1.0128
  181SLPC   H6Y20693   5.756   3.314   4.154  0.3721  0.1239  0.8252
  181SLPC   C3720694   5.775   3.502   4.273  0.1153  0.2643  0.6953
  181SLPC   H7X20695   5.671   3.518   4.309 -0.4337 -0.1933 -0.6058
  181SLPC   H7Y20696   5.812   3.606   4.256  1.9109  0.2240  3.7740
  181SLPC   C3820697   5.846   3.427   4.388  0.3945  1.0295  0.2601
  181SLPC   H8X20698   5.941   3.391   4.343 -1.9752 -2.2807 -2.6901
  181SLPC   H8Y20699   5.778   3.341   4.406  0.2612  1.0134 -0.2768
  181SLPC   C3920700   5.866   3.509   4.512  0.0870  0.6126  0.1596
  181SLPC   H9X20701   5.767   3.548   4.541  1.0039  3.1552  0.1234
  181SLPC   H9Y20702   5.938   3.594   4.511  0.2454  0.7194  3.8402
  181SLPC  C31020703   5.904   3.429   4.638  0.4928  0.5240  0.0339
  181SLPC  H10X20704   6.012   3.403   4.628  0.4920 -2.0374  4.2879
  181SLPC  H10Y20705   5.854   3.332   4.618  3.3186 -0.8352 -0.9467
  181SLPC  C31120706   5.877   3.489   4.774 -0.4061  0.1851  0.1767
  181SLPC  H11X20707   5.932   3.585   4.761  0.1403 -0.3551 -1.9597
  181SLPC  H11Y20708   5.918   3.436   4.863  0.2060  0.7106  0.2100
  181SLPC  C31220709   5.733   3.527   4.804  0.2556 -0.5790 -0.5898
  181SLPC  H12X20710   5.672   3.440   4.834 -1.3241  0.2636 -1.2633
  181SLPC  H12Y20711   5.683   3.576   4.718  0.0304 -1.7412 -1.1284
  181SLPC  C31320712   5.725   3.627   4.920 -0.3938 -0.4339  0.2003
  181SLPC  H13X20713   5.760   3.722   4.875  2.4786 -2.1341 -1.4052
  181SLPC  H13Y20714   5.794   3.595   5.001  3.0728  1.9740 -1.5486
  181SLPC  C31420715   5.583   3.635   4.988 -0.8166 -0.5242  0.2175
  181SLPC  H14X20716   5.535   3.536   4.998  0.2016 -1.1421 -0.8363
  181SLPC  H14Y20717   5.512   3.680   4.915 -1.0828 -0.1572  0.6962
  181SLPC  C31520718   5.586   3.707   5.122 -0.2279  0.3183 -1.4239
  181SLPC  H15X20719   5.636   3.806   5.114  0.7544 -0.0395 -0.0766
  181SLPC  H15Y20720   5.657   3.647   5.182 -0.5756 -0.7337 -2.0278
  181SLPC  C31620721   5.447   3.728   5.184  0.0898  0.2685 -0.2810
  181SLPC  H16X20722   5.388   3.635   5.202  0.7194 -0.1786 -0.5023
  181SLPC  H16Y20723   5.383   3.781   5.109 -2.2362 -1.6618  0.1975
  181SLPC  C31720724   5.446   3.809   5.310  0.3883 -0.2113 -0.2572
  181SLPC  H17X20725   5.342   3.847   5.317  0.6317  0.6846 -1.2002
  181SLPC  H17Y20726   5.519   3.893   5.299  2.8623 -2.2829 -0.6724
  181SLPC  C31820727   5.494   3.751   5.441 -0.6947  0.6215 -0.4623
  181SLPC  H18X20728   5.504   3.832   5.516  0.7486 -0.8023  0.9476
  181SLPC  H18Y20729   5.593   3.703   5.421 -1.6264 -1.9463  0.6645
  181SLPC  H18Z20730   5.438   3.671   5.493  0.8163  0.3295  0.7855
  182SLPC     N20731   6.592   3.855   3.068 -0.4218 -0.2294  0.0655
  182SLPC   C1320732   6.624   3.712   3.039  0.1797  0.2681 -0.1792
  182SLPC  H13A20733   6.690   3.712   2.953 -0.1726  2.9526 -0.5310
  182SLPC  H13B20734   6.673   3.669   3.125 -1.1818 -0.9534  0.0324
  182SLPC  H13C20735   6.533   3.655   3.028 -0.3353  0.5899  2.0096
  182SLPC   C1420736   6.514   3.864   3.202 -0.7106 -0.9182  0.6854
  182SLPC  H14A20737   6.432   3.794   3.200 -1.6738  0.1911 -1.1621
  182SLPC  H14B20738   6.578   3.853   3.288 -0.8745  0.8996  1.0855
  182SLPC  H14C20739   6.479   3.965   3.217  0.1078 -0.0273 -2.5931
  182SLPC   C1520740   6.492   3.900   2.962  0.2658  0.5702  0.4536
  182SLPC  H15A20741   6.448   3.997   2.980 -1.8357 -0.3647  0.6993
  182SLPC  H15B20742   6.541   3.899   2.866 -0.2972  0.3413  0.1604
  182SLPC  H15C20743   6.404   3.837   2.968 -1.3177  2.7234  0.9624
  182SLPC   C1220744   6.714   3.945   3.070  0.6323 -0.2401 -0.1049
  182SLPC  H12A20745   6.687   4.046   3.096  2.2068 -0.2347  1.7841
  182SLPC  H12B20746   6.752   3.957   2.969  1.9618  3.5935  0.6874
  182SLPC   C1120747   6.836   3.896   3.143 -0.5886 -0.0564  0.1853
  182SLPC  H11A20748   6.818   3.871   3.250 -0.6159  0.4665  0.3095
  182SLPC  H11B20749   6.899   3.988   3.152 -1.6593  0.6785  0.3680
  182SLPC     P20750   6.987   3.801   2.947  0.3009  0.4766 -0.2606
  182SLPC   O1320751   7.012   3.671   2.892 -0.7014  0.8830  0.4245
  182SLPC   O1420752   6.906   3.898   2.869 -0.8632 -0.3667 -0.0298
  182SLPC   O1220753   6.907   3.788   3.084  0.1045  0.1663 -0.1932
  182SLPC   O1120754   7.120   3.867   2.993  0.1533 -0.7010  0.5425
  182SLPC    C120755   7.194   3.839   3.110 -0.0594 -0.0638 -0.0232
  182SLPC    HA20756   7.136   3.837   3.204 -0.5043  2.3158 -0.1878
  182SLPC    HB20757   7.240   3.740   3.090  1.5143  1.0054 -2.0946
  182SLPC    C220758   7.304   3.948   3.115  0.2647 -0.5772  0.3454
  182SLPC    HS20759   7.255   4.047   3.106 -0.7972 -1.2938 -4.2180
  182SLPC   O2120760   7.393   3.931   3.005 -0.0100  0.2582  0.5992
  182SLPC   C2120761   7.374   4.009   2.897  0.4671 -0.3733  0.9435
  182SLPC   O2220762   7.298   4.106   2.894 -0.9571 -0.5508  0.1537
  182SLPC   C2220763   7.473   3.959   2.800  0.0904 -0.1374 -0.5558
  182SLPC   H2R20764   7.573   3.999   2.830 -0.1442 -1.5540  2.5058
  182SLPC   H2S20765   7.482   3.849   2.803 -0.2025 -0.1867 -1.3165
  182SLPC    C320766   7.376   3.944   3.245  0.6623  0.8537  0.7068
  182SLPC    HX20767   7.457   4.019   3.235  1.3114  0.1464  0.5156
  182SLPC    HY20768   7.403   3.837   3.263  1.4208  1.1407  1.3607
  182SLPC   O3120769   7.288   3.982   3.347  0.2565  0.7336 -0.0594
  182SLPC   C3120770   7.294   4.110   3.386  0.1106  0.4964 -0.1931
  182SLPC   O3220771   7.377   4.190   3.357 -0.1752  0.0622 -0.1416
  182SLPC   C3220772   7.164   4.148   3.457 -0.7264 -0.1066  0.9172
  182SLPC   H2X20773   7.080   4.135   3.386 -0.1479 -0.6239  0.3238
  182SLPC   H2Y20774   7.169   4.259   3.460  0.2565 -0.0738 -0.8026
  182SLPC   C2320775   7.438   4.001   2.657  0.0541  0.0452  0.3964
  182SLPC   H3R20776   7.450   4.111   2.647  0.3290 -0.1828 -2.6562
  182SLPC   H3S20777   7.334   3.985   2.624  1.0789 -0.8007 -2.7702
  182SLPC   C2420778   7.534   3.928   2.562  0.2595  0.9469 -0.8742
  182SLPC   H4R20779   7.630   3.931   2.618  1.0716 -0.2147 -2.1287
  182SLPC   H4S20780   7.551   3.981   2.466 -0.0639  0.7704 -1.0316
  182SLPC   C2520781   7.491   3.785   2.526  0.0716  0.5283  0.3524
  182SLPC   H5R20782   7.479   3.725   2.619 -1.8099 -1.2190 -0.9440
  182SLPC   H5S20783   7.566   3.740   2.458 -1.0188 -0.5858 -0.1488
  182SLPC   C2620784   7.355   3.770   2.450 -0.0212 -0.1345  0.2078
  182SLPC   H6R20785   7.349   3.841   2.364 -1.9891 -0.5703 -0.0496
  182SLPC   H6S20786   7.270   3.796   2.517 -0.3217  0.3450 -0.3470
  182SLPC   C2720787   7.324   3.624   2.404  0.4049 -0.9534  0.0546
  182SLPC   H7R20788   7.214   3.629   2.389  0.4267 -0.2973  0.0789
  182SLPC   H7S20789   7.353   3.547   2.479 -0.3670 -1.4682 -0.1763
  182SLPC   C2820790   7.392   3.585   2.271 -0.3016 -0.2897  0.5221
  182SLPC   H8R20791   7.494   3.570   2.312 -0.4167  1.0918  1.3871
  182SLPC   H8S20792   7.397   3.673   2.203  2.0263 -1.6847 -1.2609
  182SLPC   C2920793   7.347   3.457   2.207 -0.4566 -0.4834  0.4526
  182SLPC   H9R20794   7.364   3.361   2.258  2.6582 -1.8754 -2.7867
  182SLPC  C21020795   7.279   3.448   2.095 -0.3261  0.6037 -0.0089
  182SLPC  H10R20796   7.234   3.349   2.078 -1.0835  0.4470  2.5733
  182SLPC  C21120797   7.225   3.551   2.013 -0.2055 -0.0309 -0.1219
  182SLPC  H11R20798   7.253   3.652   2.051 -2.8522 -0.1877  2.6428
  182SLPC  H11S20799   7.116   3.560   2.034  0.4421 -0.0467  3.9184
  182SLPC  C21220800   7.246   3.535   1.867 -0.7612  0.3280  0.4137
  182SLPC  H12R20801   7.164   3.482   1.817 -0.3042  0.7495 -0.8191
  182SLPC  C21320802   7.344   3.582   1.788  0.0761  0.3298  0.0532
  182SLPC  H13R20803   7.339   3.561   1.681 -1.9899 -1.5017  0.4383
  182SLPC  C21420804   7.452   3.676   1.831  0.5433 -0.2348 -0.2064
  182SLPC  H14R20805   7.524   3.610   1.884 -0.2468 -2.4134 -1.6733
  182SLPC  H14S20806   7.414   3.757   1.896 -0.6163 -0.1816 -0.9071
  182SLPC  C21520807   7.548   3.738   1.722  0.4379 -0.7031  0.8926
  182SLPC  H15R20808   7.618   3.807   1.774  1.2881 -2.3715  2.0431
  182SLPC  H15S20809   7.495   3.784   1.636 -2.6766 -1.1730  2.3834
  182SLPC  C21620810   7.650   3.636   1.660 -0.6462  0.6183  0.7356
  182SLPC  H16R20811   7.687   3.699   1.576 -0.5830  1.8081  1.6271
  182SLPC  H16S20812   7.595   3.549   1.619  0.0485 -1.7586  4.4060
  182SLPC  C21720813   7.774   3.600   1.742  0.1744  0.2692 -0.1945
  182SLPC  H17R20814   7.836   3.517   1.702  0.2919  0.3232 -0.1250
  182SLPC  H17S20815   7.740   3.561   1.841  1.2551 -0.0440  0.0603
  182SLPC  C21820816   7.884   3.710   1.756 -0.1568  0.5045  0.1863
  182SLPC  H18R20817   7.940   3.679   1.847  0.3793 -1.9157 -0.8946
  182SLPC  H18S20818   7.846   3.814   1.762 -0.4851  0.4493 -0.7933
  182SLPC  H18T20819   7.957   3.713   1.673 -0.0810  0.1471  0.2396
  182SLPC   C3320820   7.136   4.081   3.597 -0.4710 -0.0387 -0.4210
  182SLPC   H3X20821   7.136   3.971   3.580  1.0999  0.0104 -0.9420
  182SLPC   H3Y20822   7.037   4.116   3.632  0.3654 -0.5113  2.7407
  182SLPC   C3420823   7.247   4.117   3.697  0.2687 -0.3292 -0.4991
  182SLPC   H4X20824   7.273   4.225   3.691  1.7119 -0.6834 -0.9615
  182SLPC   H4Y20825   7.337   4.056   3.678 -0.0703 -0.1884 -2.8580
  182SLPC   C3520826   7.221   4.094   3.847  0.0875 -0.5881 -0.1553
  182SLPC   H5X20827   7.193   3.989   3.871  1.7490 -1.6862 -2.6318
  182SLPC   H5Y20828   7.133   4.160   3.864 -0.0659  0.0125 -2.9148
  182SLPC   C3620829   7.334   4.136   3.948  0.1053  0.3887 -0.0677
  182SLPC   H6X20830   7.320   4.239   3.986  2.2704  0.9219 -0.5326
  182SLPC   H6Y20831   7.436   4.125   3.904  0.4511  0.6885  0.6469
  182SLPC   C3720832   7.317   4.037   4.072 -0.0168 -0.9581 -0.9381
  182SLPC   H7X20833   7.359   3.937   4.049  0.4114 -1.2032  0.8109
  182SLPC   H7Y20834   7.211   4.027   4.103  0.5535 -1.5496  0.8957
  182SLPC   C3820835   7.415   4.090   4.176  0.4357 -0.0330 -0.4681
  182SLPC   H8X20836   7.425   4.199   4.160  0.3287 -0.2769 -2.4633
  182SLPC   H8Y20837   7.518   4.047   4.175  0.7087  0.6059 -0.3331
  182SLPC   C3920838   7.354   4.081   4.321 -0.1758 -0.4921  0.1818
  182SLPC   H9X20839   7.337   3.976   4.356 -0.6959  0.1094  1.8346
  182SLPC   H9Y20840   7.256   4.133   4.320  0.1169  0.1251  1.4480
  182SLPC  C31020841   7.445   4.147   4.425  0.8243 -0.4155  0.5732
  182SLPC  H10X20842   7.471   4.250   4.393  1.7165 -0.3002  1.5940
  182SLPC  H10Y20843   7.545   4.098   4.435  1.8713  1.1249 -1.4702
  182SLPC  C31120844   7.367   4.143   4.553 -0.1259 -0.2166  0.0209
  182SLPC  H11X20845   7.301   4.053   4.549  1.4228 -1.4266  0.7236
  182SLPC  H11Y20846   7.301   4.232   4.563 -0.1743 -0.2171 -0.2856
  182SLPC  C31220847   7.455   4.132   4.680  0.3074 -0.1489  0.1349
  182SLPC  H12X20848   7.522   4.220   4.694 -0.9776  0.4873  3.1299
  182SLPC  H12Y20849   7.510   4.036   4.668  0.6235 -0.1813  1.6414
  182SLPC  C31320850   7.366   4.125   4.803 -0.5073  1.0094  0.2346
  182SLPC  H13X20851   7.271   4.180   4.787  0.3791  3.6357  2.8788
  182SLPC  H13Y20852   7.418   4.174   4.889 -1.4792  0.7029  1.0134
  182SLPC  C31420853   7.329   3.980   4.841  0.1992  0.1150  0.3577
  182SLPC  H14X20854   7.417   3.914   4.859 -0.6037 -2.5809 -3.9862
  182SLPC  H14Y20855   7.285   3.931   4.751  0.5499 -0.0852  0.2944
  182SLPC  C31520856   7.221   3.966   4.944 -0.2108 -0.0177  0.2955
  182SLPC  H15X20857   7.133   3.931   4.886  0.3040  1.4757 -1.4715
  182SLPC  H15Y20858   7.190   4.066   4.980 -2.1563  0.2272 -1.8682
  182SLPC  C31620859   7.246   3.872   5.072 -0.1833 -0.6282  0.4660
  182SLPC  H16X20860   7.326   3.912   5.138 -0.0712  1.5465 -0.8918
  182SLPC  H16Y20861   7.279   3.771   5.038  2.1411 -0.1766  1.1672
  182SLPC  C31720862   7.129   3.851   5.173 -0.3986 -0.0714 -0.5012
  182SLPC  H17X20863   7.166   3.763   5.231 -1.1980 -0.9483 -1.2869
  182SLPC  H17Y20864   7.036   3.818   5.123 -1.8974  1.0452  1.4120
  182SLPC  C31820865   7.096   3.978   5.252 -0.7876 -0.5793 -0.0911
  182SLPC  H18X20866   7.020   3.959   5.330 -1.3075  1.2521 -0.1022
  182SLPC  H18Y20867   7.060   4.059   5.185  0.6462  0.8343  0.7655
  182SLPC  H18Z20868   7.184   4.022   5.304 -1.0017 -2.2760  1.8023
  183SLPC     N20869   5.013   5.998   3.147 -0.3630  0.0822  0.3065
  183SLPC   C1320870   4.958   5.875   3.211  0.5990 -0.1707 -0.0478
  183SLPC  H13A20871   4.925   5.796   3.146 -1.0469  1.2908 -1.0936
  183SLPC  H13B20872   5.034   5.840   3.279  0.4738  1.6728  1.1128
  183SLPC  H13C20873   4.876   5.906   3.274 -0.5098  0.7186 -1.8471
  183SLPC   C1420874   4.918   6.063   3.049  0.5270 -1.1121 -0.3275
  183SLPC  H14A20875   4.836   6.110   3.101 -0.0046 -2.3877  0.0352
  183SLPC  H14B20876   4.967   6.136   2.987  1.8452  0.5315  2.4529
  183SLPC  H14C20877   4.885   5.986   2.981 -0.8651  0.5688 -1.6481
  183SLPC   C1520878   5.139   5.964   3.059  0.2185  0.0199  0.2794
  183SLPC  H15A20879   5.219   5.934   3.126  1.0153  2.4443  0.5052
  183SLPC  H15B20880   5.112   5.884   2.991 -2.3916  0.1928  1.0042
  183SLPC  H15C20881   5.178   6.048   3.003 -2.7852  1.1117 -0.3489
  183SLPC   C1220882   5.055   6.097   3.250 -0.0554  0.0803  0.6579
  183SLPC  H12A20883   4.967   6.130   3.303  0.1801  0.0732  1.0534
  183SLPC  H12B20884   5.097   6.189   3.214  1.3389  0.5872  3.3425
  183SLPC   C1120885   5.151   6.064   3.365 -0.1339 -0.2403  0.3760
  183SLPC  H11A20886   5.123   5.965   3.406 -1.8029  0.2633  0.5270
  183SLPC  H11B20887   5.128   6.147   3.435  0.3951  1.2002 -1.0884
  183SLPC     P20888   5.369   6.201   3.307 -0.4434 -0.1318  0.9343
  183SLPC   O1320889   5.476   6.177   3.207  0.2849 -0.4138  0.1937
  183SLPC   O1420890   5.279   6.316   3.284 -0.3121  0.3147  0.0985
  183SLPC   O1220891   5.287   6.070   3.318 -0.3197  0.2375 -0.0380
  183SLPC   O1120892   5.435   6.218   3.452  0.4700 -0.0784 -0.2864
  183SLPC    C120893   5.513   6.116   3.520  0.0776 -0.1424 -0.0496
  183SLPC    HA20894   5.585   6.065   3.452 -0.4098 -1.8183  0.6604
  183SLPC    HB20895   5.574   6.165   3.599  5.1372 -1.5606 -2.6017
  183SLPC    C220896   5.427   6.001   3.583  0.2645 -0.1204  0.1235
  183SLPC    HS20897   5.379   5.945   3.500 -1.5957 -1.1299  1.7857
  183SLPC   O2120898   5.318   6.055   3.665 -0.2435  0.1572  0.0620
  183SLPC   C2120899   5.225   5.967   3.699  0.2135  0.4480  0.7754
  183SLPC   O2220900   5.214   5.851   3.654  0.4819  0.1473 -0.1461
  183SLPC   C2220901   5.127   6.046   3.787  0.4060  0.2297  0.3516
  183SLPC   H2R20902   5.139   6.155   3.771  0.5820  0.0405 -0.9345
  183SLPC   H2S20903   5.028   6.026   3.741 -0.2860  2.7242  0.6108
  183SLPC    C320904   5.510   5.894   3.663 -0.1401  0.1862 -0.0773
  183SLPC    HX20905   5.580   5.847   3.591  1.7868  0.2277  1.6802
  183SLPC    HY20906   5.441   5.815   3.697 -0.6300  0.2747 -0.8417
  183SLPC   O3120907   5.586   5.959   3.774 -0.0700  0.5781 -0.2709
  183SLPC   C3120908   5.678   5.880   3.829 -0.0055  0.3774 -0.7643
  183SLPC   O3220909   5.699   5.760   3.808 -0.1936  0.2287 -0.6123
  183SLPC   C3220910   5.759   5.963   3.937 -0.4203 -0.0445 -0.6866
  183SLPC   H2X20911   5.708   6.061   3.941 -1.5142 -0.6243  2.1732
  183SLPC   H2Y20912   5.861   5.990   3.900 -0.1322  1.8052  1.2758
  183SLPC   C2320913   5.142   5.990   3.927 -0.1222 -1.1753 -0.3225
  183SLPC   H3R20914   5.173   5.884   3.918  0.3038 -1.0008 -1.0171
  183SLPC   H3S20915   5.049   5.984   3.987  0.5820 -1.3527  0.7809
  183SLPC   C2420916   5.256   6.047   4.011  0.8910  0.4467  0.2950
  183SLPC   H4R20917   5.261   6.158   4.023  0.4075  0.5339 -0.3000
  183SLPC   H4S20918   5.353   6.013   3.967  0.5354  1.2527 -1.1845
  183SLPC   C2520919   5.248   5.988   4.154  0.6755  0.2945  0.5205
  183SLPC   H5R20920   5.351   5.980   4.196  0.5205 -0.1495  0.8178
  183SLPC   H5S20921   5.212   5.884   4.138 -1.5802  0.9574  1.0598
  183SLPC   C2620922   5.156   6.057   4.251  0.3018  0.2656 -0.6387
  183SLPC   H6R20923   5.051   6.063   4.216 -0.5994  0.6666  1.9039
  183SLPC   H6S20924   5.198   6.159   4.250  0.5525  0.2619  2.3657
  183SLPC   C2720925   5.158   5.996   4.393  0.3340 -0.3656  0.3606
  183SLPC   H7R20926   5.261   5.990   4.433 -0.3994  4.5403  3.8852
  183SLPC   H7S20927   5.102   5.899   4.396  0.4168 -0.5291 -1.7808
  183SLPC   C2820928   5.089   6.095   4.487 -0.1194  0.2829  0.7060
  183SLPC   H8R20929   4.982   6.071   4.473 -0.2199 -0.3553  2.2878
  183SLPC   H8S20930   5.105   6.199   4.453 -1.2618  1.2713  2.9500
  183SLPC   C2920931   5.135   6.071   4.628  0.0906  0.0062 -0.2814
  183SLPC   H9R20932   5.111   5.974   4.674  0.0316  0.2959  0.3092
  183SLPC  C21020933   5.185   6.152   4.723 -1.0644 -0.0084  0.4560
  183SLPC  H10R20934   5.207   6.105   4.820  0.3218  1.6392  0.9767
  183SLPC  C21120935   5.214   6.299   4.716  0.0837  0.1269 -0.3309
  183SLPC  H11R20936   5.221   6.328   4.609  1.5096 -2.4884 -1.0357
  183SLPC  H11S20937   5.316   6.314   4.757 -0.2816  0.0211  0.6273
  183SLPC  C21220938   5.115   6.391   4.789  0.0420  0.4812  0.0010
  183SLPC  H12R20939   5.010   6.356   4.791  0.1420  0.1045 -1.0314
  183SLPC  C21320940   5.138   6.507   4.841 -0.1477 -0.6674  0.3731
  183SLPC  H13R20941   5.053   6.559   4.888 -2.3576 -2.4281 -1.3842
  183SLPC  C21420942   5.272   6.572   4.857  0.1620  1.0257  0.3477
  183SLPC  H14R20943   5.291   6.660   4.792 -1.4655  1.6595  0.6964
  183SLPC  H14S20944   5.359   6.507   4.833  0.4422  2.0677 -1.6945
  183SLPC  C21520945   5.292   6.621   5.000 -0.7276 -0.4592 -0.1725
  183SLPC  H15R20946   5.297   6.532   5.067  2.7041 -0.6571 -0.5187
  183SLPC  H15S20947   5.201   6.677   5.028 -1.2552 -0.4695 -1.7709
  183SLPC  C21620948   5.410   6.712   5.048 -0.1255  0.0753 -0.2194
  183SLPC  H16R20949   5.404   6.743   5.154 -0.9796  2.4569 -0.8884
  183SLPC  H16S20950   5.409   6.798   4.978  0.9361 -0.7513 -1.2940
  183SLPC  C21720951   5.537   6.648   5.010  0.1261  0.3544  0.0626
  183SLPC  H17R20952   5.557   6.650   4.900  1.1019 -1.4507  0.1718
  183SLPC  H17S20953   5.532   6.538   5.020 -2.6725  0.5558  1.8537
  183SLPC  C21820954   5.658   6.704   5.075 -0.3599  0.8110 -0.6334
  183SLPC  H18R20955   5.654   6.677   5.183 -0.9861 -2.1741 -1.3142
  183SLPC  H18S20956   5.669   6.814   5.063 -2.8645  1.3305  0.9783
  183SLPC  H18T20957   5.739   6.645   5.028 -3.4579 -3.0185 -1.6545
  183SLPC   C3320958   5.770   5.907   4.084 -0.0983 -0.5890  1.1326
  183SLPC   H3X20959   5.823   5.978   4.151 -1.6903  0.5646  1.2253
  183SLPC   H3Y20960   5.822   5.809   4.086 -0.7936 -1.1145 -2.0454
  183SLPC   C3420961   5.632   5.871   4.143 -0.4176 -0.6113 -0.4022
  183SLPC   H4X20962   5.577   5.813   4.066 -3.9600  2.6691 -0.6422
  183SLPC   H4Y20963   5.593   5.974   4.162 -2.4970 -0.6831 -3.5906
  183SLPC   C3520964   5.650   5.814   4.281  0.1178  0.0337 -0.0956
  183SLPC   H5X20965   5.737   5.863   4.329  0.1068  0.2360 -0.2805
  183SLPC   H5Y20966   5.670   5.705   4.289 -0.7979 -0.0130  2.5203
  183SLPC   C3620967   5.541   5.846   4.384  0.1975  0.0683 -0.5580
  183SLPC   H6X20968   5.458   5.779   4.352 -0.1577 -0.2372  0.9294
  183SLPC   H6Y20969   5.502   5.949   4.375 -1.5295 -0.7511 -4.3428
  183SLPC   C3720970   5.580   5.807   4.530  0.1248 -0.6704 -0.0759
  183SLPC   H7X20971   5.664   5.876   4.556  0.2372 -0.0747 -1.8746
  183SLPC   H7Y20972   5.608   5.702   4.553 -1.7645 -1.0543  0.6396
  183SLPC   C3820973   5.468   5.844   4.633 -0.4530 -0.6131  0.2662
  183SLPC   H8X20974   5.376   5.788   4.604 -0.1000 -1.5867  0.9874
  183SLPC   H8Y20975   5.450   5.953   4.622 -0.9501 -0.5802  1.2354
  183SLPC   C3920976   5.512   5.815   4.778 -0.0154  0.1635 -0.1868
  183SLPC   H9X20977   5.591   5.889   4.802  0.5255 -0.3646 -0.3130
  183SLPC   H9Y20978   5.563   5.716   4.780 -0.1305  0.1068 -0.0056
  183SLPC  C31020979   5.407   5.825   4.885  0.1438 -0.1160  0.5576
  183SLPC  H10X20980   5.329   5.748   4.870 -1.0993  1.2095 -0.0428
  183SLPC  H10Y20981   5.366   5.928   4.895  0.6607  0.0570  0.9493
  183SLPC  C31120982   5.470   5.803   5.028 -0.2062  0.1849  0.6898
  183SLPC  H11X20983   5.545   5.884   5.040  1.2368 -1.0197  0.0786
  183SLPC  H11Y20984   5.525   5.707   5.028 -0.2073  0.1814  0.2307
  183SLPC  C31220985   5.363   5.808   5.135  0.3612 -0.3257 -0.2893
  183SLPC  H12X20986   5.294   5.726   5.105  1.5489 -0.5011 -2.7844
  183SLPC  H12Y20987   5.312   5.907   5.140  1.7666  0.4240 -0.4508
  183SLPC  C31320988   5.411   5.778   5.275 -0.3434  0.1025 -0.1759
  183SLPC  H13X20989   5.474   5.864   5.306 -0.1268  0.1903 -0.8546
  183SLPC  H13Y20990   5.477   5.689   5.263 -1.8036 -1.2630  1.2836
  183SLPC  C31420991   5.303   5.749   5.373 -0.2615  0.1806 -0.0828
  183SLPC  H14X20992   5.266   5.648   5.346 -0.1884  0.0655  0.2488
  183SLPC  H14Y20993   5.215   5.816   5.362 -0.7379 -0.2540  0.9439
  183SLPC  C31520994   5.345   5.755   5.523 -0.7869  0.2658  0.5401
  183SLPC  H15X20995   5.335   5.862   5.549 -0.2465  0.2810  0.7055
  183SLPC  H15Y20996   5.449   5.719   5.540 -0.3350  0.2320 -2.0024
  183SLPC  C31620997   5.244   5.682   5.612 -0.2443  0.1393  0.5385
  183SLPC  H16X20998   5.275   5.699   5.717 -0.1090  2.4928  0.1837
  183SLPC  H16Y20999   5.244   5.576   5.579 -1.9335 -0.9316  3.5484
  183SLPC  C31721000   5.100   5.733   5.607  1.0545 -0.2548  0.0290
  183SLPC  H17X21001   5.043   5.678   5.685  0.2369 -0.4225 -0.6640
  183SLPC  H17Y21002   5.058   5.706   5.508 -2.9115  1.1575  1.1579
  183SLPC  C31821003   5.078   5.881   5.651  1.0781  0.4069 -0.5202
  183SLPC  H18X21004   4.970   5.903   5.633  1.4260  2.6196 -0.1652
  183SLPC  H18Y21005   5.137   5.951   5.588 -1.2796  1.4826 -1.6588
  183SLPC  H18Z21006   5.094   5.892   5.760 -0.5272 -1.7629  0.0079
  184SLPC     N21007   5.685   6.464   3.316 -0.0438  0.1332 -0.1205
  184SLPC   C1321008   5.638   6.443   3.455 -0.1161  0.3153 -0.1988
  184SLPC  H13A21009   5.595   6.531   3.500 -0.5911  2.1586 -3.9143
  184SLPC  H13B21010   5.566   6.363   3.454 -1.1496  1.2399 -1.2971
  184SLPC  H13C21011   5.715   6.406   3.522  0.2150  2.4803  0.7141
  184SLPC   C1421012   5.740   6.334   3.252 -0.0822  0.3934 -0.4968
  184SLPC  H14A21013   5.822   6.289   3.307  0.7768  0.2770 -1.8420
  184SLPC  H14B21014   5.671   6.252   3.240 -2.5529  2.1599  0.8222
  184SLPC  H14C21015   5.783   6.358   3.156  0.2501  1.7427 -0.0300
  184SLPC   C1521016   5.784   6.572   3.309  0.2675 -0.3567 -0.9519
  184SLPC  H15A21017   5.811   6.595   3.206  0.6343  2.9718 -0.2220
  184SLPC  H15B21018   5.747   6.664   3.351  0.6183 -0.9066  0.6035
  184SLPC  H15C21019   5.873   6.538   3.361  1.5102 -1.9479 -3.8446
  184SLPC   C1221020   5.566   6.513   3.226 -0.7183 -0.3237 -0.1619
  184SLPC  H12A21021   5.530   6.608   3.261  0.7159  0.4558 -0.7557
  184SLPC  H12B21022   5.484   6.443   3.234 -0.6448 -0.4272 -0.3007
  184SLPC   C1121023   5.601   6.550   3.082 -0.0573 -0.6022 -0.5121
  184SLPC  H11A21024   5.499   6.558   3.039 -0.3658 -0.8411  0.1690
  184SLPC  H11B21025   5.654   6.468   3.029 -2.6882 -0.6541 -3.3828
  184SLPC     P21026   5.624   6.805   3.086 -0.0128  0.0645 -0.1612
  184SLPC   O1321027   5.694   6.902   3.002  0.3441  0.6492  0.6148
  184SLPC   O1421028   5.477   6.802   3.065  0.1213  0.1640 -0.0418
  184SLPC   O1221029   5.683   6.666   3.066  0.0517  0.0276 -0.5247
  184SLPC   O1121030   5.651   6.831   3.242 -0.5689 -0.2426  0.2901
  184SLPC    C121031   5.594   6.946   3.304  0.6813 -0.4102  0.7225
  184SLPC    HA21032   5.675   7.004   3.353 -1.4202  2.1383  1.4309
  184SLPC    HB21033   5.529   7.005   3.235  1.8029  1.8318  1.4589
  184SLPC    C221034   5.488   6.913   3.420 -0.1122 -0.0418 -1.0564
  184SLPC    HS21035   5.475   7.013   3.468  2.0931  0.9011 -2.2633
  184SLPC   O2121036   5.541   6.818   3.511  0.1418 -0.0761  0.0186
  184SLPC   C2121037   5.624   6.861   3.607  0.1935 -0.1534  0.3120
  184SLPC   O2221038   5.676   6.969   3.621 -0.2515 -0.4954  0.1056
  184SLPC   C2221039   5.653   6.743   3.701 -0.4554  0.3195 -0.2031
  184SLPC   H2R21040   5.601   6.659   3.651  0.1666 -0.1909  0.0028
  184SLPC   H2S21041   5.762   6.726   3.708 -0.5412 -0.3433 -0.4114
  184SLPC    C321042   5.351   6.862   3.365 -0.8077 -0.3777  0.0730
  184SLPC    HX21043   5.371   6.762   3.322 -1.3404  0.6371 -2.7381
  184SLPC    HY21044   5.313   6.926   3.283 -1.4058  1.9013  1.9960
  184SLPC   O3121045   5.253   6.843   3.468  0.0326 -0.3821  0.6513
  184SLPC   C3121046   5.180   6.944   3.498  0.5830  0.0492  0.4457
  184SLPC   O3221047   5.177   7.056   3.448  0.0261  0.0195 -0.2430
  184SLPC   C3221048   5.088   6.903   3.610  0.1429 -0.0643 -0.1422
  184SLPC   H2X21049   5.146   6.848   3.687 -2.2357 -0.4746  1.4300
  184SLPC   H2Y21050   5.010   6.837   3.567  0.1253  0.3015 -0.6842
  184SLPC   C2321051   5.594   6.776   3.837  0.2968  0.6933 -0.1865
  184SLPC   H3R21052   5.632   6.876   3.866  0.9361  0.6605 -0.8932
  184SLPC   H3S21053   5.624   6.703   3.916 -1.5325 -1.3119 -1.2412
  184SLPC   C2421054   5.434   6.777   3.838  0.0221 -0.1538  0.0882
  184SLPC   H4R21055   5.395   6.820   3.743 -0.7093  1.9200  1.2748
  184SLPC   H4S21056   5.413   6.844   3.924  1.8292 -0.9564  1.2181
  184SLPC   C2521057   5.381   6.633   3.874 -0.3716  0.1431 -0.3068
  184SLPC   H5R21058   5.421   6.609   3.974 -1.2025  2.1227  0.5570
  184SLPC   H5S21059   5.428   6.563   3.802  0.8478 -1.8166  2.2617
  184SLPC   C2621060   5.230   6.616   3.880  0.2797 -0.7839  0.2579
  184SLPC   H6R21061   5.188   6.610   3.778  1.8238  0.5303 -0.5150
  184SLPC   H6S21062   5.186   6.705   3.931 -0.9161 -0.7206 -0.8399
  184SLPC   C2721063   5.189   6.488   3.953 -0.6161 -0.4937  0.0844
  184SLPC   H7R21064   5.245   6.483   4.048 -0.7571  0.1865  0.2090
  184SLPC   H7S21065   5.231   6.408   3.888  0.3847 -0.0696  0.1994
  184SLPC   C2821066   5.040   6.485   3.966 -0.3217  0.4192 -0.1880
  184SLPC   H8R21067   4.984   6.509   3.873  0.7221 -0.9804 -1.2261
  184SLPC   H8S21068   5.020   6.563   4.042  1.5139 -0.2092  1.0004
  184SLPC   C2921069   5.002   6.341   4.016  0.6572  0.2563 -0.4428
  184SLPC   H9R21070   5.068   6.260   3.984 -0.4180  0.4080 -3.3874
  184SLPC  C21021071   4.881   6.311   4.075 -0.0827 -0.3172 -0.5227
  184SLPC  H10R21072   4.871   6.210   4.119  1.5322  0.1026  0.9296
  184SLPC  C21121073   4.773   6.412   4.114 -0.0509  0.2365  0.7478
  184SLPC  H11R21074   4.819   6.513   4.113  1.9028 -0.5879 -1.0849
  184SLPC  H11S21075   4.735   6.399   4.218 -0.4949  2.5473  0.9068
  184SLPC  C21221076   4.657   6.409   4.020 -0.0396 -0.1665  0.2037
  184SLPC  H12R21077   4.682   6.421   3.913 -1.6371  0.2496 -0.1498
  184SLPC  C21321078   4.532   6.413   4.056  0.6805 -0.2845  0.1849
  184SLPC  H13R21079   4.461   6.432   3.973 -0.2481  0.3003  1.0913
  184SLPC  C21421080   4.466   6.403   4.189 -1.0068 -0.1226 -0.6030
  184SLPC  H14R21081   4.503   6.484   4.255 -1.5072 -0.0830 -0.3670
  184SLPC  H14S21082   4.492   6.313   4.249  2.1772 -1.7423 -3.9651
  184SLPC  C21521083   4.310   6.406   4.184 -0.5446 -0.2708  0.2759
  184SLPC  H15R21084   4.272   6.316   4.131  0.0605  0.2289 -1.0524
  184SLPC  H15S21085   4.286   6.502   4.133  3.5495  2.1003  2.3103
  184SLPC  C21621086   4.256   6.436   4.329 -0.3155  0.0619  0.2672
  184SLPC  H16R21087   4.287   6.540   4.352 -1.0300  0.2267  0.4915
  184SLPC  H16S21088   4.307   6.369   4.401  0.4074  0.5059  0.1783
  184SLPC  C21721089   4.105   6.451   4.331 -0.0877  0.4184 -1.1183
  184SLPC  H17R21090   4.065   6.389   4.248  1.8504 -1.3868 -0.7719
  184SLPC  H17S21091   4.081   6.559   4.316 -0.4410  0.6696  0.9353
  184SLPC  C21821092   4.053   6.407   4.465 -0.1731 -0.5060  1.0829
  184SLPC  H18R21093   4.104   6.457   4.550  1.3005 -0.7890  0.3918
  184SLPC  H18S21094   4.066   6.299   4.486 -0.3860 -0.8501 -0.4878
  184SLPC  H18T21095   3.949   6.443   4.481  0.3060  1.6478 -0.2938
  184SLPC   C3321096   5.015   7.016   3.681  0.5936  0.0347 -0.6194
  184SLPC   H3X21097   4.947   7.076   3.618 -0.0637 -0.3710 -0.3063
  184SLPC   H3Y21098   5.077   7.096   3.726 -2.5039  1.9621  0.5483
  184SLPC   C3421099   4.936   6.946   3.801  0.5972  0.6344  0.5243
  184SLPC   H4X21100   4.999   6.867   3.846  2.0496  0.6616 -1.3483
  184SLPC   H4Y21101   4.849   6.891   3.761  0.4986  0.8408  0.4525
  184SLPC   C3521102   4.888   7.045   3.900  0.4553  0.9884 -0.6691
  184SLPC   H5X21103   4.811   7.115   3.860  1.1317  1.4546 -1.1744
  184SLPC   H5Y21104   4.967   7.112   3.941 -1.7698  1.7241  2.8632
  184SLPC   C3621105   4.827   6.974   4.025 -0.1084 -0.1798 -0.3010
  184SLPC   H6X21106   4.899   6.897   4.061 -0.5921  0.7170  2.8211
  184SLPC   H6Y21107   4.737   6.926   3.983  0.5266 -1.5359 -0.1575
  184SLPC   C3721108   4.793   7.075   4.137 -0.1935 -0.0471 -0.6203
  184SLPC   H7X21109   4.732   7.152   4.085 -1.3832 -0.7449 -0.2866
  184SLPC   H7Y21110   4.892   7.115   4.167 -1.1947  1.7099  0.4828
  184SLPC   C3821111   4.702   7.025   4.255  0.2065 -0.3021 -0.2324
  184SLPC   H8X21112   4.717   6.915   4.266  0.1725 -0.2877 -0.0401
  184SLPC   H8Y21113   4.594   7.041   4.238 -0.1263 -1.4125  0.7050
  184SLPC   C3921114   4.743   7.086   4.388  0.1419 -0.0996  0.0854
  184SLPC   H9X21115   4.739   7.196   4.375  0.9178 -0.0524  0.2096
  184SLPC   H9Y21116   4.846   7.050   4.411 -0.4257 -1.0328  1.3270
  184SLPC  C31021117   4.651   7.053   4.509 -0.7776 -0.3617 -0.6110
  184SLPC  H10X21118   4.625   6.945   4.508  0.9271 -0.8107 -0.0976
  184SLPC  H10Y21119   4.560   7.116   4.503 -1.8474 -1.8399 -0.2814
  184SLPC  C31121120   4.717   7.090   4.638  0.1659 -0.9892  0.1672
  184SLPC  H11X21121   4.777   7.184   4.636  1.7974 -1.9992  0.0150
  184SLPC  H11Y21122   4.797   7.014   4.652  2.1031  1.1464  1.5594
  184SLPC  C31221123   4.634   7.091   4.763  0.1666 -0.1054  0.0167
  184SLPC  H12X21124   4.704   7.049   4.839  1.6588 -0.7168 -1.6291
  184SLPC  H12Y21125   4.546   7.026   4.743  0.9898 -1.1734 -0.2548
  184SLPC  C31321126   4.585   7.230   4.810  0.0430  0.0094  0.2556
  184SLPC  H13X21127   4.520   7.280   4.735 -0.7619  0.6068  1.3238
  184SLPC  H13Y21128   4.670   7.302   4.815 -0.5038  0.6554  0.3892
  184SLPC  C31421129   4.508   7.214   4.937  0.0980 -0.1546  0.5134
  184SLPC  H14X21130   4.577   7.187   5.020 -1.3504 -0.8390  1.5388
  184SLPC  H14Y21131   4.429   7.136   4.936 -1.2240  1.1313 -0.9107
  184SLPC  C31521132   4.435   7.333   4.996 -0.0484 -0.1050 -0.5267
  184SLPC  H15X21133   4.367   7.294   5.074 -1.2705  1.1965 -0.9004
  184SLPC  H15Y21134   4.356   7.368   4.927 -1.7188 -2.7406 -0.0857
  184SLPC  C31621135   4.524   7.445   5.060 -0.1378 -0.2528 -0.4996
  184SLPC  H16X21136   4.571   7.509   4.983  1.6459  1.6963  2.0268
  184SLPC  H16Y21137   4.612   7.408   5.116  1.3916  2.2070 -1.1670
  184SLPC  C31721138   4.429   7.541   5.134 -0.1238  0.2614 -0.4217
  184SLPC  H17X21139   4.391   7.494   5.227 -0.5887  0.0098 -0.7340
  184SLPC  H17Y21140   4.349   7.581   5.068  0.3036  0.6778 -0.6981
  184SLPC  C31821141   4.490   7.678   5.172 -0.0640 -0.2839  0.7404
  184SLPC  H18X21142   4.404   7.739   5.208 -0.2777 -0.5109  0.6196
  184SLPC  H18Y21143   4.537   7.716   5.078 -0.4370 -3.5320 -0.9038
  184SLPC  H18Z21144   4.569   7.656   5.246 -2.4175  0.4804  3.6597
  185POPC     N21145   5.583   2.447   7.789  0.2082 -0.2222  0.6358
  185POPC   C1221146   5.599   2.502   7.648  0.0775 -0.4927  0.2498
  185POPC  H12A21147   5.706   2.499   7.629  0.4087  1.5578  1.4467
  185POPC  H12B21148   5.569   2.605   7.646  0.3246 -0.4330 -1.5280
  185POPC   C1321149   5.604   2.297   7.789 -0.4079 -0.4727 -0.3855
  185POPC  H13A21150   5.709   2.278   7.769 -0.7400 -2.3976 -0.5148
  185POPC  H13B21151   5.574   2.256   7.884 -2.7434 -0.3718 -1.0131
  185POPC  H13C21152   5.539   2.252   7.715  1.2625 -0.8471 -1.7127
  185POPC   C1421153   5.678   2.511   7.885  0.1479  0.3032  0.2457
  185POPC  H14A21154   5.655   2.498   7.989  0.4103  0.4599  0.3236
  185POPC  H14B21155   5.777   2.470   7.873 -0.3042 -0.2465 -2.2652
  185POPC  H14C21156   5.682   2.618   7.874 -2.9540  0.3050 -3.0506
  185POPC   C1521157   5.446   2.470   7.837  0.9511  0.1082  1.0096
  185POPC  H15A21158   5.424   2.574   7.822 -0.4842 -0.1439  1.1290
  185POPC  H15B21159   5.431   2.446   7.942 -0.7638  1.2376  1.0631
  185POPC  H15C21160   5.370   2.414   7.784  0.8636  0.5008  0.7215
  185POPC   C1121161   5.508   2.437   7.533 -0.6624 -0.6459 -0.5821
  185POPC  H11A21162   5.517   2.493   7.437  0.7636 -1.5720 -1.0309
  185POPC  H11B21163   5.404   2.450   7.569 -0.6793  1.6519 -1.3297
  185POPC     P21164   5.679   2.269   7.431  0.6859  0.0167 -0.1604
  185POPC   O1321165   5.690   2.123   7.427 -0.0530  0.5216 -0.3266
  185POPC   O1421166   5.790   2.350   7.481 -0.6862  0.7598 -0.4980
  185POPC   O1221167   5.542   2.298   7.515  0.0217  1.0744  0.1832
  185POPC   O1121168   5.631   2.324   7.289 -0.0712  0.0320 -0.6116
  185POPC    C121169   5.550   2.241   7.200  0.1049 -0.0488 -0.4661
  185POPC    HA21170   5.478   2.184   7.263  1.5284 -0.8135  0.5102
  185POPC    HB21171   5.618   2.175   7.142  2.4819  0.9577  1.0235
  185POPC    C221172   5.481   2.333   7.102  0.8099 -0.3203 -0.1929
  185POPC    HS21173   5.441   2.292   7.007  0.9278  1.2215 -0.9541
  185POPC   O2121174   5.569   2.433   7.054  0.1478 -0.5649 -0.0972
  185POPC   C2121175   5.665   2.389   6.975 -0.5158 -0.0476 -0.1383
  185POPC   O2221176   5.672   2.275   6.931 -0.0531 -0.3593 -0.2108
  185POPC   C2221177   5.768   2.494   6.945  0.2755 -0.4054  0.9867
  185POPC   H2R21178   5.849   2.490   7.020  1.4144  0.8271 -0.1364
  185POPC   H2S21179   5.727   2.597   6.958  1.1662  0.1126 -0.1180
  185POPC    C321180   5.369   2.416   7.180  0.1754  0.2622  0.7760
  185POPC    HX21181   5.400   2.482   7.264 -1.5510  0.7405  1.0799
  185POPC    HY21182   5.295   2.344   7.221  1.8478 -0.6597  2.3381
  185POPC   O3121183   5.313   2.517   7.096 -0.6454  0.0885  0.0271
  185POPC   C3121184   5.182   2.521   7.085 -0.5196  0.0391 -0.2723
  185POPC   O3221185   5.102   2.440   7.135  0.1534  0.0444 -0.1505
  185POPC   C3221186   5.155   2.657   7.019  0.4250  0.0550  0.2071
  185POPC   H2X21187   5.228   2.664   6.936 -0.9432  2.2667 -0.9044
  185POPC   H2Y21188   5.165   2.744   7.087  0.7933 -0.0311  0.2630
  185POPC   C2321189   5.828   2.475   6.803 -0.4627  0.4718 -0.6927
  185POPC   H3R21190   5.755   2.453   6.722  0.7963 -0.7781 -1.5413
  185POPC   H3S21191   5.890   2.383   6.815 -1.5106  0.0315  2.0664
  185POPC   C2421192   5.918   2.588   6.768  0.8701 -0.1716 -0.6626
  185POPC   H4R21193   6.009   2.606   6.831  0.0549  1.2412  0.1598
  185POPC   H4S21194   5.861   2.683   6.771 -2.3541 -1.9814  0.3290
  185POPC   C2521195   5.974   2.564   6.624 -0.1414 -0.4398  0.4221
  185POPC   H5R21196   6.028   2.467   6.615  1.1948  0.0667  2.4292
  185POPC   H5S21197   6.046   2.644   6.596 -1.4235  0.7640  0.4708
  185POPC   C2621198   5.869   2.582   6.511  0.1353  0.6106  0.0367
  185POPC   H6R21199   5.809   2.675   6.520 -0.2939  0.1664  2.2413
  185POPC   H6S21200   5.803   2.494   6.523  0.7771  0.0268 -0.5497
  185POPC   C2721201   5.925   2.559   6.364 -0.2110  0.6076 -0.0434
  185POPC   H7R21202   6.000   2.481   6.389  0.7868  1.6850  0.4837
  185POPC   H7S21203   5.991   2.647   6.347  0.8692  0.0239  0.9491
  185POPC   C2821204   5.822   2.537   6.251 -1.1558  0.0395 -0.2270
  185POPC   H8R21205   5.776   2.637   6.241 -3.7883 -0.9440  1.0899
  185POPC   H8S21206   5.733   2.484   6.291 -2.3294  0.7148 -1.8346
  185POPC   C2921207   5.873   2.479   6.117 -0.9121  0.5167  0.1049
  185POPC   H9121208   5.860   2.371   6.105 -1.4566  0.5377  0.4661
  185POPC  C21021209   5.914   2.556   6.015  0.0626 -0.2128  0.7418
  185POPC  H10121210   5.946   2.508   5.921  2.8372  2.8254 -0.0592
  185POPC  C21121211   5.942   2.704   6.014 -0.3917 -0.1876 -0.4100
  185POPC  H11R21212   6.051   2.724   6.023 -0.3456 -1.0128  1.0947
  185POPC  H11S21213   5.895   2.752   6.102 -2.2612  1.1633 -2.0553
  185POPC  C21221214   5.894   2.770   5.889  0.5898 -0.2054  0.5290
  185POPC  H12R21215   5.929   2.876   5.883  0.6910 -0.2699 -0.0666
  185POPC  H12S21216   5.787   2.741   5.879  1.7805 -4.5776 -2.9388
  185POPC  C21321217   5.960   2.712   5.758  0.1292 -0.2166 -0.1346
  185POPC  H13R21218   6.032   2.631   5.780 -2.5235 -2.2728  1.6151
  185POPC  H13S21219   6.009   2.799   5.708 -1.2715  0.7888  0.1507
  185POPC  C21421220   5.856   2.650   5.671  0.1555  0.7395 -0.6880
  185POPC  H14R21221   5.788   2.733   5.643 -0.2782  1.2410  1.6551
  185POPC  H14S21222   5.805   2.575   5.734  1.9239 -0.3674 -0.5079
  185POPC  C21521223   5.916   2.574   5.549 -0.1817 -0.5659  1.2266
  185POPC  H15R21224   5.832   2.527   5.493 -0.8831  1.3839  0.5773
  185POPC  H15S21225   5.993   2.502   5.585  1.6098  1.2836  1.3031
  185POPC  C21621226   5.984   2.659   5.443  0.0225 -0.9898 -0.9277
  185POPC  H16R21227   6.068   2.715   5.489 -1.0450 -0.8634  1.0157
  185POPC  H16S21228   5.920   2.736   5.393  2.2401  0.2504 -1.9883
  185POPC  C21721229   6.046   2.574   5.327 -0.0085  0.7977  0.5084
  185POPC  H17R21230   5.971   2.522   5.264  1.7567 -0.4673 -0.6512
  185POPC  H17S21231   6.107   2.490   5.366 -0.5121 -0.7453 -1.8171
  185POPC  C21821232   6.148   2.646   5.235  0.8890 -0.4027 -0.2415
  185POPC  H18R21233   6.115   2.724   5.163  0.9453  0.0590  0.2268
  185POPC  H18S21234   6.187   2.568   5.167  0.0697 -1.6510  0.6874
  185POPC  H18T21235   6.235   2.679   5.296  0.6275  0.0844 -0.1194
  185POPC   C3321236   5.007   2.648   6.951  0.2804 -0.4881 -0.0795
  185POPC   H3X21237   4.991   2.756   6.926  2.6738 -0.2137 -0.6762
  185POPC   H3Y21238   4.932   2.595   7.014 -0.8733 -2.1705 -2.7066
  185POPC   C3421239   4.995   2.574   6.811  0.2416  0.1131 -0.3872
  185POPC   H4X21240   4.888   2.576   6.779  0.2470  2.9182 -0.4795
  185POPC   H4Y21241   5.040   2.473   6.808 -0.4717 -0.1973 -1.5501
  185POPC   C3521242   5.067   2.652   6.701 -0.1677 -0.1704 -0.0681
  185POPC   H5X21243   5.174   2.648   6.730  0.2483 -0.5336 -1.5593
  185POPC   H5Y21244   5.038   2.759   6.703 -1.8178 -0.6008  0.9395
  185POPC   C3621245   5.035   2.589   6.565  0.6415  0.4105  0.3394
  185POPC   H6X21246   4.926   2.565   6.561  1.1305 -1.9778 -0.4294
  185POPC   H6Y21247   5.084   2.489   6.565  1.6738  0.8908 -0.8593
  185POPC   C3721248   5.070   2.676   6.452 -0.1715 -0.6233 -0.1428
  185POPC   H7X21249   5.175   2.715   6.452 -0.5241  0.4066 -0.9746
  185POPC   H7Y21250   4.993   2.756   6.450 -0.5972 -1.0359 -0.3558
  185POPC   C3821251   5.031   2.609   6.324 -0.4738  0.2506  0.5012
  185POPC   H8X21252   4.923   2.585   6.333  0.1954 -2.5812  2.6639
  185POPC   H8Y21253   5.084   2.513   6.305  0.9157  0.9408  0.7847
  185POPC   C3921254   5.056   2.695   6.192 -0.0485  0.0676 -0.1590
  185POPC   H9X21255   5.151   2.751   6.206 -0.7232  1.2457 -0.1170
  185POPC   H9Y21256   4.972   2.768   6.185  1.5026  1.9950  0.4456
  185POPC  C31021257   5.058   2.615   6.061  0.3713  0.1851 -0.0169
  185POPC  H10X21258   4.963   2.564   6.033  0.1500  1.5093 -1.8147
  185POPC  H10Y21259   5.142   2.543   6.062  1.0665  0.8383  3.2896
  185POPC  C31121260   5.074   2.713   5.944  0.3551  0.0528  1.1131
  185POPC  H11X21261   5.172   2.766   5.941 -1.6123  4.0329 -0.0374
  185POPC  H11Y21262   5.012   2.805   5.944  1.3892  0.8297 -1.3449
  185POPC  C31221263   5.053   2.651   5.813  0.6315  0.6217 -0.9453
  185POPC  H12X21264   4.949   2.613   5.813  0.8017 -0.1967  2.9875
  185POPC  H12Y21265   5.117   2.563   5.791  1.3230  0.3061  1.9288
  185POPC  C31321266   5.067   2.752   5.696  1.1044 -0.2208  0.1431
  185POPC  H13X21267   5.169   2.795   5.704  0.3035  1.6120  1.2987
  185POPC  H13Y21268   4.996   2.838   5.703  0.3332 -0.7182 -1.2314
  185POPC  C31421269   5.026   2.681   5.568  0.2101 -0.1189  0.2830
  185POPC  H14X21270   4.924   2.644   5.592 -0.5866  2.1903  0.6832
  185POPC  H14Y21271   5.099   2.599   5.549 -0.1851 -0.2831 -0.5999
  185POPC  C31521272   5.021   2.759   5.441  0.0085  0.2174  1.4911
  185POPC  H15X21273   5.123   2.787   5.409 -0.9272  1.0612 -1.0440
  185POPC  H15Y21274   4.975   2.859   5.452  1.2336  0.8120  1.3624
  185POPC  C31621275   4.947   2.683   5.330  0.4873  0.4397  0.5809
  185POPC  H16X21276   4.991   2.592   5.284 -3.3715 -0.4307 -1.8168
  185POPC  H16Y21277   4.935   2.747   5.240  2.9112 -0.2356 -0.3008
  185POPC  H16Z21278   4.845   2.647   5.354  0.9111 -0.6416  0.8307
  186POPC     N21279   1.449   2.957   7.553 -0.0087  0.6359  0.5146
  186POPC   C1221280   1.301   2.982   7.582  0.3644  0.9748 -0.1060
  186POPC  H12A21281   1.275   3.086   7.587 -0.8715  0.7240 -0.9423
  186POPC  H12B21282   1.283   2.944   7.682 -3.4569  0.6921 -0.7514
  186POPC   C1321283   1.496   2.821   7.578  0.3502  0.0282 -0.4784
  186POPC  H13A21284   1.602   2.816   7.557  0.6470  0.5538  0.7886
  186POPC  H13B21285   1.471   2.794   7.680 -0.4120  2.0784 -0.0733
  186POPC  H13C21286   1.440   2.754   7.514  1.5564 -1.1945 -0.3130
  186POPC   C1421287   1.472   3.008   7.408  0.3913  0.7127  0.1909
  186POPC  H14A21288   1.412   2.959   7.332 -1.9927  3.1208  0.3695
  186POPC  H14B21289   1.446   3.112   7.404 -1.1686  0.3217 -1.5586
  186POPC  H14C21290   1.575   2.988   7.382  0.5581  0.2823  1.1522
  186POPC   C1521291   1.531   3.052   7.638 -0.1930 -1.4397 -0.1698
  186POPC  H15A21292   1.637   3.062   7.617  0.0185 -1.0913  0.9658
  186POPC  H15B21293   1.516   3.033   7.743 -0.7454 -0.3647 -0.0391
  186POPC  H15C21294   1.492   3.152   7.625 -0.9968 -1.8910 -1.3874
  186POPC   C1121295   1.203   2.913   7.488 -0.3374 -0.2226  0.2033
  186POPC  H11A21296   1.105   2.898   7.538 -0.8217 -3.7155 -1.4576
  186POPC  H11B21297   1.224   2.809   7.454  0.1955 -0.4093  1.0731
  186POPC     P21298   1.063   3.094   7.354 -0.3083  0.1248  0.1341
  186POPC   O1321299   1.124   3.224   7.395  0.1081 -0.1098  0.2732
  186POPC   O1421300   0.937   3.051   7.421  0.3572  0.4537  0.4453
  186POPC   O1221301   1.187   2.992   7.371 -0.3943 -0.6469 -0.1303
  186POPC   O1121302   1.029   3.090   7.198 -0.1729 -0.6045  0.0395
  186POPC    C121303   1.136   3.097   7.102 -0.3187  0.0944 -0.3387
  186POPC    HA21304   1.214   3.019   7.105 -0.9745 -0.6099 -0.9690
  186POPC    HB21305   1.184   3.197   7.109 -0.0791 -0.0088 -0.4889
  186POPC    C221306   1.072   3.093   6.957  0.8094 -0.4161 -0.4327
  186POPC    HS21307   0.998   3.175   6.948 -0.4228 -1.3773  0.5366
  186POPC   O2121308   1.012   2.968   6.952  0.6875 -0.0812 -0.0571
  186POPC   C2121309   0.903   2.964   6.879  0.7677 -0.5607  0.0625
  186POPC   O2221310   0.851   3.063   6.822 -0.2017  0.1155 -0.2183
  186POPC   C2221311   0.841   2.824   6.865 -0.1436 -0.7085  0.9500
  186POPC   H2R21312   0.769   2.831   6.949 -0.9508  1.7713  0.1436
  186POPC   H2S21313   0.919   2.746   6.880  0.2212 -0.4616  0.4108
  186POPC    C321314   1.180   3.107   6.857 -0.3276 -0.2797  0.4454
  186POPC    HX21315   1.259   3.029   6.873 -1.2728 -1.4310 -0.2916
  186POPC    HY21316   1.235   3.203   6.863  1.9809 -1.3077 -1.7932
  186POPC   O3121317   1.142   3.082   6.718 -0.3276 -0.4623  0.0209
  186POPC   C3121318   1.060   3.166   6.661 -0.1983  0.0793  0.0239
  186POPC   O3221319   1.035   3.278   6.690  0.3579 -0.3573 -0.1844
  186POPC   C3221320   1.014   3.096   6.531  0.0447  0.0791  0.9064
  186POPC   H2X21321   0.995   2.996   6.577  1.2236 -0.2207  0.7687
  186POPC   H2Y21322   1.092   3.094   6.452 -0.7550 -0.0130  0.1116
  186POPC   C2321323   0.780   2.805   6.726 -0.7751  0.1865 -0.1753
  186POPC   H3R21324   0.846   2.857   6.653 -0.5430  0.2254  0.0622
  186POPC   H3S21325   0.676   2.842   6.714 -0.4962  0.4820 -1.9785
  186POPC   C2421326   0.763   2.655   6.687 -0.3077  0.2445  0.1235
  186POPC   H4R21327   0.720   2.602   6.774 -3.4572  2.6306  0.1739
  186POPC   H4S21328   0.863   2.606   6.685 -0.8580 -0.8871 -0.2375
  186POPC   C2521329   0.690   2.627   6.558  0.1897 -0.0127 -0.0302
  186POPC   H5R21330   0.599   2.687   6.579  0.9395  0.6052  1.6726
  186POPC   H5S21331   0.660   2.520   6.546 -0.2558  0.0520  0.4601
  186POPC   C2621332   0.767   2.671   6.431  0.1155  1.2765 -0.4781
  186POPC   H6R21333   0.866   2.621   6.434 -0.7179 -0.4847  3.4936
  186POPC   H6S21334   0.772   2.782   6.429  2.1239  1.2794  1.1748
  186POPC   C2721335   0.689   2.620   6.306 -1.1937 -0.3999  0.0987
  186POPC   H7R21336   0.583   2.651   6.312 -0.5843  1.5853  1.4815
  186POPC   H7S21337   0.678   2.511   6.287 -0.2402 -0.3649 -0.7419
  186POPC   C2821338   0.757   2.698   6.187  0.5407 -0.4411 -0.1209
  186POPC   H8R21339   0.867   2.685   6.193  1.0912  3.2786  0.1966
  186POPC   H8S21340   0.736   2.806   6.195  0.3367 -0.3454 -1.6833
  186POPC   C2921341   0.710   2.632   6.055  1.4293 -0.2627 -0.1461
  186POPC   H9121342   0.693   2.523   6.064  3.0995 -0.6531 -1.2625
  186POPC  C21021343   0.674   2.702   5.944 -0.3579  0.7735  0.6482
  186POPC  H10121344   0.664   2.643   5.851  1.6913  0.7919  0.3710
  186POPC  C21121345   0.673   2.849   5.936 -0.1904  0.1088  0.9121
  186POPC  H11R21346   0.677   2.903   6.033  2.2964  1.5504  0.1254
  186POPC  H11S21347   0.581   2.886   5.885  0.0127  0.7682  1.0155
  186POPC  C21221348   0.795   2.913   5.860 -0.0016 -0.1725  0.8035
  186POPC  H12R21349   0.897   2.878   5.889  1.1385  0.7569 -1.7473
  186POPC  H12S21350   0.803   3.023   5.877 -2.0150 -0.0068  0.8130
  186POPC  C21321351   0.793   2.899   5.709  0.2493  0.3568  0.7203
  186POPC  H13R21352   0.716   2.961   5.659 -0.0786 -0.3503  0.3334
  186POPC  H13S21353   0.784   2.793   5.677 -0.1090  1.0840 -1.8855
  186POPC  C21421354   0.931   2.945   5.649 -0.0320 -0.3001 -0.1888
  186POPC  H14R21355   1.013   2.899   5.710  1.8727  0.2253 -2.2237
  186POPC  H14S21356   0.944   3.054   5.666  1.5909 -0.4188 -0.5042
  186POPC  C21521357   0.958   2.904   5.500  0.6980 -0.2555 -0.2323
  186POPC  H15R21358   0.893   2.953   5.426 -1.4189  0.5291  2.0230
  186POPC  H15S21359   0.938   2.795   5.489 -0.3728 -0.3312  1.9749
  186POPC  C21621360   1.102   2.925   5.453 -0.1596 -0.0834 -0.0425
  186POPC  H16R21361   1.169   2.858   5.512 -0.0563 -0.8982 -1.0644
  186POPC  H16S21362   1.131   3.031   5.465 -1.4221  0.2144  0.6015
  186POPC  C21721363   1.120   2.894   5.301  0.7119 -0.4394  0.5383
  186POPC  H17R21364   1.055   2.968   5.250  1.5002 -0.4818 -0.5725
  186POPC  H17S21365   1.084   2.791   5.279  0.4464 -0.1300 -0.5036
  186POPC  C21821366   1.261   2.909   5.256 -0.0750  0.0499  0.1345
  186POPC  H18R21367   1.288   3.016   5.263  0.6898 -0.1907  1.1090
  186POPC  H18S21368   1.271   2.871   5.152 -1.2913 -2.5819  0.8854
  186POPC  H18T21369   1.326   2.847   5.322 -1.6811  0.4754  2.2002
  186POPC   C3321370   0.900   3.183   6.474  0.2189  0.3056  0.2261
  186POPC   H3X21371   0.816   3.206   6.542 -0.5139 -2.1653  0.2674
  186POPC   H3Y21372   0.853   3.119   6.396 -0.2137  2.5528 -1.4796
  186POPC   C3421373   0.939   3.301   6.385  0.3634 -0.7336 -0.0809
  186POPC   H4X21374   1.004   3.253   6.309  3.4235 -0.5313  2.2592
  186POPC   H4Y21375   0.991   3.390   6.425 -1.8024  1.5828 -2.0643
  186POPC   C3521376   0.808   3.368   6.333  0.0162 -0.0533  0.4768
  186POPC   H5X21377   0.779   3.438   6.413 -1.3920 -1.1605  0.9781
  186POPC   H5Y21378   0.733   3.285   6.331 -0.7951  0.5871  2.1182
  186POPC   C3621379   0.822   3.448   6.205  0.3920  0.2728  0.2226
  186POPC   H6X21380   0.882   3.539   6.225 -1.7348  1.6463  0.7076
  186POPC   H6Y21381   0.725   3.500   6.191  1.2427  1.6148 -1.0220
  186POPC   C3721382   0.871   3.379   6.079 -0.0665  0.1350  0.5334
  186POPC   H7X21383   0.813   3.286   6.063 -0.1157  0.0834  1.0029
  186POPC   H7Y21384   0.976   3.344   6.092  0.9587  3.5727  2.8861
  186POPC   C3821385   0.860   3.478   5.960 -0.0179 -0.2372 -0.1415
  186POPC   H8X21386   0.911   3.573   5.989  0.6913 -0.6323 -0.0572
  186POPC   H8Y21387   0.750   3.491   5.949  0.1271  0.4852 -0.8109
  186POPC   C3921388   0.932   3.425   5.843  0.5115 -0.6575  0.7237
  186POPC   H9X21389   0.904   3.326   5.800 -4.1201 -1.0053  3.9015
  186POPC   H9Y21390   1.039   3.429   5.873  0.1669 -0.3865  1.9391
  186POPC  C31021391   0.926   3.519   5.721  0.3937  0.2012 -0.0485
  186POPC  H10X21392   0.941   3.625   5.751  5.1675 -0.0536 -0.8041
  186POPC  H10Y21393   0.826   3.510   5.673 -1.0970  2.4953  2.3190
  186POPC  C31121394   1.030   3.486   5.617 -0.7798  0.5285  0.4819
  186POPC  H11X21395   1.001   3.385   5.580  1.3527 -0.2551  0.8145
  186POPC  H11Y21396   1.129   3.468   5.665  0.0492  0.4026 -1.2000
  186POPC  C31221397   1.039   3.585   5.508  0.2537 -0.4413  0.1826
  186POPC  H12X21398   1.147   3.597   5.484  0.7784 -0.4328  2.3425
  186POPC  H12Y21399   1.001   3.683   5.544 -0.0025  1.1425 -3.8671
  186POPC  C31321400   0.973   3.528   5.381 -0.2634 -0.5053 -0.3607
  186POPC  H13X21401   0.884   3.478   5.426  0.2257 -1.4291 -0.4093
  186POPC  H13Y21402   1.042   3.456   5.333  0.9240  2.4911 -3.5872
  186POPC  C31421403   0.942   3.643   5.287  0.3577  0.3874  0.1017
  186POPC  H14X21404   1.039   3.688   5.257  1.0420 -0.8454  0.4072
  186POPC  H14Y21405   0.880   3.715   5.345  0.5146 -1.5002  2.8407
  186POPC  C31521406   0.859   3.596   5.165 -0.0336  0.5470 -0.2765
  186POPC  H15X21407   0.764   3.554   5.201  1.6372 -0.2331  3.7177
  186POPC  H15Y21408   0.922   3.532   5.099  0.3633 -0.1188  0.7249
  186POPC  C31621409   0.823   3.717   5.068 -0.9583  0.4850 -0.5031
  186POPC  H16X21410   0.745   3.696   4.992 -2.2446 -2.0015  1.3432
  186POPC  H16Y21411   0.916   3.743   5.013 -1.7505  0.3050 -1.9731
  186POPC  H16Z21412   0.790   3.808   5.122 -2.4303  0.1011 -0.6945
  187POPC     N21413   4.939   1.632   2.563 -0.6450  0.0417  0.4663
  187POPC   C1221414   4.864   1.585   2.693  0.4938 -0.3688  0.6289
  187POPC  H12A21415   4.860   1.669   2.760  0.3196  0.3082 -0.2153
  187POPC  H12B21416   4.932   1.522   2.749  1.9495 -0.7650 -1.4301
  187POPC   C1321417   4.866   1.747   2.502  0.1670 -0.0753 -0.1121
  187POPC  H13A21418   4.887   1.838   2.558  0.4637 -0.2966  0.1429
  187POPC  H13B21419   4.888   1.757   2.397 -0.8483  1.0349 -0.2451
  187POPC  H13C21420   4.759   1.735   2.507  0.2397 -0.7417  4.2403
  187POPC   C1421421   5.080   1.674   2.595  0.4266 -0.0293 -0.7123
  187POPC  H14A21422   5.070   1.756   2.664 -0.8928  0.2145 -1.1592
  187POPC  H14B21423   5.138   1.598   2.645 -0.1495 -0.0030  0.0147
  187POPC  H14C21424   5.133   1.713   2.509  0.5996  0.0534 -0.5672
  187POPC   C1521425   4.942   1.517   2.471  0.2492 -0.1221  0.4428
  187POPC  H15A21426   4.982   1.547   2.375 -0.0541 -0.7544  0.1103
  187POPC  H15B21427   4.842   1.475   2.467  1.0641 -2.1375  0.4345
  187POPC  H15C21428   5.003   1.437   2.510  0.0390  0.1565  1.3650
  187POPC   C1121429   4.722   1.523   2.681 -0.0564 -0.4823  0.1658
  187POPC  H11A21430   4.720   1.468   2.584  0.9029  0.4508 -0.4119
  187POPC  H11B21431   4.649   1.604   2.697  2.5646  1.6429  2.2902
  187POPC     P21432   4.610   1.440   2.903 -0.1161 -0.0337  0.5690
  187POPC   O1321433   4.483   1.388   2.848 -0.3977  0.6022  0.5081
  187POPC   O1421434   4.603   1.572   2.969 -0.1872  0.1853 -0.5206
  187POPC   O1221435   4.716   1.440   2.792  0.2282  0.1189  0.2252
  187POPC   O1121436   4.665   1.329   3.000  0.0505  0.1934 -0.2184
  187POPC    C121437   4.800   1.357   3.053  0.3181 -0.6332  0.2142
  187POPC    HA21438   4.841   1.455   3.021  0.2295 -1.0980 -1.4050
  187POPC    HB21439   4.866   1.287   2.998  0.7752 -0.2186  0.2272
  187POPC    C221440   4.810   1.335   3.202 -0.7063 -0.3720  0.8923
  187POPC    HS21441   4.914   1.337   3.241 -0.7265 -0.8503  0.9816
  187POPC   O2121442   4.749   1.216   3.242 -0.1407 -1.0757 -0.2991
  187POPC   C2121443   4.810   1.110   3.197 -0.6210 -0.1682 -0.1067
  187POPC   O2221444   4.920   1.117   3.145 -0.7464  0.3380  0.5128
  187POPC   C2221445   4.728   0.988   3.228  0.2445 -0.3688  0.4987
  187POPC   H2R21446   4.777   0.897   3.188  0.0340  0.0483 -0.7599
  187POPC   H2S21447   4.639   1.001   3.162  2.1289  0.8640 -2.0230
  187POPC    C321448   4.732   1.441   3.280  0.0306 -0.2120  0.0356
  187POPC    HX21449   4.625   1.435   3.254  0.4922 -0.7190 -1.8613
  187POPC    HY21450   4.777   1.540   3.259  3.6476 -1.4696  0.9772
  187POPC   O3121451   4.754   1.416   3.416  0.2682 -0.2079 -0.0067
  187POPC   C3121452   4.659   1.348   3.490 -0.1415 -0.7296  0.4109
  187POPC   O3221453   4.549   1.311   3.448 -0.0448  0.7020  0.0302
  187POPC   C3221454   4.716   1.333   3.629 -0.4111 -0.3749  0.7402
  187POPC   H2X21455   4.760   1.430   3.660 -3.2912  1.6744 -1.1145
  187POPC   H2Y21456   4.803   1.267   3.613  0.2749  0.7864 -0.4652
  187POPC   C2321457   4.675   0.957   3.368 -0.9818  0.0334  0.0311
  187POPC   H3R21458   4.622   0.859   3.361 -1.4450  0.3036 -0.3217
  187POPC   H3S21459   4.604   1.041   3.389 -1.0016 -0.5026  2.4466
  187POPC   C2421460   4.787   0.940   3.466  0.0125  0.1025 -0.2880
  187POPC   H4R21461   4.854   1.028   3.454  0.2963 -0.1644 -0.7057
  187POPC   H4S21462   4.847   0.848   3.447  0.2631  0.5233 -1.6912
  187POPC   C2521463   4.741   0.946   3.619  0.1121  0.1516 -0.2318
  187POPC   H5R21464   4.693   1.045   3.635 -1.7289 -0.7921  0.2969
  187POPC   H5S21465   4.842   0.939   3.666  0.5308  0.0710 -1.1169
  187POPC   C2621466   4.650   0.834   3.662  0.0543  0.4636 -0.3664
  187POPC   H6R21467   4.684   0.756   3.591 -0.3656  1.7039 -1.9760
  187POPC   H6S21468   4.543   0.856   3.641 -0.2304 -0.5243  0.0138
  187POPC   C2721469   4.661   0.797   3.809 -0.4903 -0.3097 -0.3389
  187POPC   H7R21470   4.764   0.762   3.831 -0.6922 -0.0419  1.1592
  187POPC   H7S21471   4.599   0.707   3.829  1.5119 -1.4186  1.3535
  187POPC   C2821472   4.634   0.907   3.914  0.7069  0.5614  0.2532
  187POPC   H8R21473   4.705   0.992   3.906  0.6866  0.8803  2.6146
  187POPC   H8S21474   4.649   0.867   4.017 -0.1934  1.4918  0.7753
  187POPC   C2921475   4.495   0.964   3.903 -0.2455 -0.4751  0.2309
  187POPC   H9121476   4.481   1.031   3.817 -0.9323 -0.1600  0.5764
  187POPC  C21021477   4.394   0.940   3.984 -0.2192 -0.0336  0.3629
  187POPC  H10121478   4.295   0.984   3.964 -0.8953 -0.8872  1.6433
  187POPC  C21121479   4.395   0.853   4.104  0.2212 -0.2512  0.8800
  187POPC  H11R21480   4.496   0.810   4.121 -0.2144 -1.0918  1.4085
  187POPC  H11S21481   4.334   0.763   4.080 -0.8583  1.1711 -2.2267
  187POPC  C21221482   4.341   0.934   4.223  0.7288  0.4712 -0.4800
  187POPC  H12R21483   4.236   0.968   4.210 -0.2345 -2.1818 -0.2643
  187POPC  H12S21484   4.400   1.025   4.244  1.7912 -0.3566  0.1841
  187POPC  C21321485   4.330   0.837   4.346  0.1838  0.5293  0.1544
  187POPC  H13R21486   4.421   0.777   4.366 -0.5012 -0.6283 -0.0902
  187POPC  H13S21487   4.251   0.763   4.322  1.3520  0.0294 -2.4724
  187POPC  C21421488   4.285   0.888   4.488 -0.2603 -0.4794  0.0073
  187POPC  H14R21489   4.192   0.942   4.463 -0.3561 -0.9595 -0.7085
  187POPC  H14S21490   4.365   0.949   4.535 -1.0561  0.2219  0.4741
  187POPC  C21521491   4.239   0.775   4.580  0.2891 -0.0371  0.3843
  187POPC  H15R21492   4.318   0.697   4.581 -1.0320 -1.4109  0.0775
  187POPC  H15S21493   4.149   0.726   4.537  0.7754 -1.5294  1.0130
  187POPC  C21621494   4.222   0.815   4.731 -0.2806 -0.7536  0.1884
  187POPC  H16R21495   4.325   0.826   4.770 -0.5536  1.5467  0.3863
  187POPC  H16S21496   4.183   0.722   4.779  0.8177 -2.3550 -1.8415
  187POPC  C21721497   4.132   0.933   4.767 -0.7779  0.4138 -0.3237
  187POPC  H17R21498   4.029   0.918   4.727  0.5165 -0.5032 -3.7179
  187POPC  H17S21499   4.175   1.026   4.722 -0.0015 -0.0103 -0.4737
  187POPC  C21821500   4.126   0.949   4.923  0.3042 -0.6432 -0.4993
  187POPC  H18R21501   4.085   0.862   4.978  0.9378 -0.6218  0.0119
  187POPC  H18S21502   4.060   1.036   4.946 -0.6228 -1.4497 -0.0706
  187POPC  H18T21503   4.229   0.970   4.959  0.3982 -0.3602 -0.9195
  187POPC   C3321504   4.611   1.290   3.741 -0.7632  0.7764  0.3451
  187POPC   H3X21505   4.671   1.243   3.822  1.6889  2.9204 -0.0887
  187POPC   H3Y21506   4.545   1.209   3.702  1.1773 -0.9257  0.4446
  187POPC   C3421507   4.537   1.403   3.806  0.0384  0.6139 -0.0387
  187POPC   H4X21508   4.474   1.452   3.729 -1.0643 -0.6338  0.0459
  187POPC   H4Y21509   4.605   1.479   3.851  0.7204 -0.4633  0.8066
  187POPC   C3521510   4.446   1.343   3.917 -0.0822 -0.1437 -0.4969
  187POPC   H5X21511   4.499   1.316   4.011 -1.0219  0.1709  0.1381
  187POPC   H5Y21512   4.405   1.245   3.884 -0.1597 -0.3044  0.0691
  187POPC   C3621513   4.343   1.446   3.972  0.5991  0.0629  0.0721
  187POPC   H6X21514   4.277   1.471   3.886  2.0004  0.8453 -0.8123
  187POPC   H6Y21515   4.394   1.541   4.001 -0.8544  0.7457  0.5133
  187POPC   C3721516   4.245   1.395   4.076 -0.0558 -0.4242  0.4209
  187POPC   H7X21517   4.186   1.486   4.101  1.8985  1.9610 -2.7990
  187POPC   H7Y21518   4.304   1.362   4.165 -0.5421  0.4746  1.0912
  187POPC   C3821519   4.158   1.279   4.022  0.3796 -0.5849 -0.8272
  187POPC   H8X21520   4.225   1.191   4.013  0.1842 -0.6213 -2.1184
  187POPC   H8Y21521   4.138   1.302   3.915  0.8775  0.3391 -0.7347
  187POPC   C3921522   4.024   1.272   4.099 -0.1312  0.5672  0.0591
  187POPC   H9X21523   3.948   1.207   4.051  0.7582 -2.3547  2.3127
  187POPC   H9Y21524   3.975   1.371   4.108 -2.5358 -0.3559 -1.7409
  187POPC  C31021525   4.042   1.226   4.247 -0.4706 -0.0923  0.6160
  187POPC  H10X21526   4.094   1.307   4.302  0.4130 -0.7443  0.7663
  187POPC  H10Y21527   4.098   1.130   4.247  2.3858  1.4704  0.1902
  187POPC  C31121528   3.909   1.209   4.315  0.2264 -0.1792 -0.9797
  187POPC  H11X21529   3.849   1.138   4.255  0.6235 -0.5503 -0.9425
  187POPC  H11Y21530   3.861   1.310   4.312  2.4143  0.9683 -0.0400
  187POPC  C31221531   3.914   1.158   4.458 -0.3125 -0.9360  0.1790
  187POPC  H12X21532   3.961   1.059   4.471  2.2853  0.4420  2.2201
  187POPC  H12Y21533   3.804   1.146   4.472 -0.9567  0.4392 -2.9167
  187POPC  C31321534   3.977   1.256   4.561  0.6057 -0.1140 -0.3147
  187POPC  H13X21535   3.957   1.364   4.547  0.2689  0.1757  2.0134
  187POPC  H13Y21536   4.086   1.237   4.550  0.7810  0.8028 -0.1745
  187POPC  C31421537   3.937   1.212   4.703 -0.2485  0.5575  0.1766
  187POPC  H14X21538   3.952   1.103   4.712  0.3047  0.4703 -1.4769
  187POPC  H14Y21539   3.831   1.233   4.730  0.1257  0.5658  1.7497
  187POPC  C31521540   4.029   1.281   4.811  0.8822 -0.2130 -0.7441
  187POPC  H15X21541   4.134   1.247   4.798  0.4850 -1.4738 -0.7858
  187POPC  H15Y21542   4.003   1.256   4.916 -3.2584  0.2934 -1.4891
  187POPC  C31621543   4.013   1.436   4.806  0.3338 -0.3667 -0.3603
  187POPC  H16X21544   3.909   1.473   4.813  1.3309  2.9267 -1.2662
  187POPC  H16Y21545   4.064   1.469   4.713  1.1215  0.8787  0.4938
  187POPC  H16Z21546   4.069   1.480   4.891  1.0582  0.6343 -1.3339
  188POPC     N21547   3.141   1.439   3.316  0.2118 -0.8233  0.1181
  188POPC   C1221548   3.176   1.585   3.342  0.3456 -0.0667  0.2359
  188POPC  H12A21549   3.174   1.609   3.447  0.1605 -2.2319  0.7775
  188POPC  H12B21550   3.111   1.656   3.293  1.7375  1.3032  0.2832
  188POPC   C1321551   3.235   1.350   3.383  0.2497  0.3709 -0.2508
  188POPC  H13A21552   3.326   1.383   3.336  0.4422  0.5930  0.2737
  188POPC  H13B21553   3.230   1.369   3.489  1.7880  0.2591 -0.1413
  188POPC  H13C21554   3.224   1.244   3.367  2.5739  0.2788 -1.7459
  188POPC   C1421555   3.005   1.406   3.368  1.0227 -0.1445  0.4541
  188POPC  H14A21556   3.002   1.423   3.474  0.3683 -1.1906  0.6200
  188POPC  H14B21557   2.936   1.462   3.306 -0.1282 -2.1792 -0.2225
  188POPC  H14C21558   2.976   1.302   3.356  1.2980 -0.4752  2.4088
  188POPC   C1521559   3.128   1.412   3.167  0.0480  0.2992  1.1709
  188POPC  H15A21560   3.038   1.460   3.133 -0.5063 -0.5989  1.3309
  188POPC  H15B21561   3.125   1.306   3.147  1.5950  0.8546 -2.8819
  188POPC  H15C21562   3.208   1.456   3.109 -1.0417  1.1548  0.2795
  188POPC   C1121563   3.322   1.630   3.298  0.6078 -0.3641 -0.3002
  188POPC  H11A21564   3.396   1.582   3.367  2.7703  1.0743 -1.5203
  188POPC  H11B21565   3.324   1.739   3.315 -0.4811 -0.3248 -0.3553
  188POPC     P21566   3.490   1.516   3.123 -0.2134 -0.2614 -0.2694
  188POPC   O1321567   3.590   1.610   3.056  0.2488 -0.0038  0.0951
  188POPC   O1421568   3.449   1.402   3.044  0.0302  0.1361  0.2568
  188POPC   O1221569   3.357   1.601   3.165 -0.2162 -0.4177  0.1690
  188POPC   O1121570   3.550   1.466   3.255  0.2845 -0.5983 -0.3593
  188POPC    C121571   3.692   1.500   3.270 -0.0621  0.2871  0.6318
  188POPC    HA21572   3.701   1.610   3.272  0.2834  0.3102 -0.7710
  188POPC    HB21573   3.753   1.467   3.182 -2.7722 -1.1083 -0.8537
  188POPC    C221574   3.750   1.436   3.397 -0.0921  0.2813 -0.3617
  188POPC    HS21575   3.744   1.325   3.389  0.5772  0.1412  0.8646
  188POPC   O2121576   3.678   1.492   3.508 -0.9857 -1.0703 -0.4518
  188POPC   C2121577   3.570   1.426   3.550  0.1661 -0.4580  0.1361
  188POPC   O2221578   3.524   1.325   3.497  0.2145  0.7149 -0.4234
  188POPC   C2221579   3.505   1.497   3.667 -0.2415  0.3808 -0.4402
  188POPC   H2R21580   3.421   1.559   3.628 -0.5720  0.0528 -0.2486
  188POPC   H2S21581   3.580   1.567   3.711 -0.9649 -0.4497  2.2805
  188POPC    C321582   3.903   1.473   3.392 -0.0162 -0.7132  0.8598
  188POPC    HX21583   3.913   1.584   3.388  1.9995 -0.8415  1.2235
  188POPC    HY21584   3.955   1.438   3.301  0.3419  0.1883  0.7013
  188POPC   O3121585   3.976   1.418   3.506  0.3277  0.0327 -0.9007
  188POPC   C3121586   4.101   1.396   3.480  0.2867  0.3239  0.0264
  188POPC   O3221587   4.162   1.402   3.373  0.3145 -0.3002 -0.0005
  188POPC   C3221588   4.171   1.346   3.611 -1.0642  0.4592 -0.1282
  188POPC   H2X21589   4.098   1.322   3.692  0.7454 -0.0526  1.4211
  188POPC   H2Y21590   4.240   1.428   3.639 -1.1187  0.4239  0.1183
  188POPC   C2321591   3.459   1.391   3.780 -0.5137  0.6190  0.1648
  188POPC   H3R21592   3.548   1.339   3.821 -1.4314 -1.1074  0.0673
  188POPC   H3S21593   3.387   1.316   3.741  0.6749  0.0572 -1.0033
  188POPC   C2421594   3.393   1.460   3.898 -0.0938 -0.0107  0.4858
  188POPC   H4R21595   3.319   1.535   3.861 -0.2670 -1.5788 -2.7020
  188POPC   H4S21596   3.469   1.528   3.942  2.0096 -1.1710 -1.1157
  188POPC   C2521597   3.351   1.358   4.000 -0.7933 -0.3715 -0.8712
  188POPC   H5R21598   3.439   1.292   4.017 -1.5355 -1.1860 -0.0872
  188POPC   H5S21599   3.265   1.305   3.954 -0.7059 -0.1408 -1.3065
  188POPC   C2621600   3.321   1.422   4.136 -0.4974 -0.1801 -0.6323
  188POPC   H6R21601   3.283   1.525   4.121  1.2853  0.6709  0.3719
  188POPC   H6S21602   3.420   1.426   4.186 -0.7416 -2.6976  0.2096
  188POPC   C2721603   3.225   1.342   4.234 -0.0467  0.2418  0.0981
  188POPC   H7R21604   3.256   1.237   4.220 -4.5504 -1.0668 -2.0943
  188POPC   H7S21605   3.118   1.361   4.211 -0.5159 -1.1445  0.9810
  188POPC   C2821606   3.237   1.401   4.366 -0.6598  0.0867  0.2747
  188POPC   H8R21607   3.208   1.508   4.353 -2.9676 -0.7407 -2.7019
  188POPC   H8S21608   3.343   1.393   4.397 -0.5936  0.3808  0.1347
  188POPC   C2921609   3.147   1.326   4.463  0.5923  0.0466  0.3691
  188POPC   H9121610   3.134   1.219   4.439  1.4258  0.5285 -2.7069
  188POPC  C21021611   3.073   1.379   4.561 -0.0203  0.1733  0.3301
  188POPC  H10121612   3.011   1.304   4.613  0.6387 -0.3196  0.4171
  188POPC  C21121613   3.049   1.524   4.598 -0.1014  0.2968 -0.3736
  188POPC  H11R21614   2.944   1.546   4.571 -0.7505 -0.0608  1.6940
  188POPC  H11S21615   3.126   1.588   4.550 -0.1891  0.6136 -0.0864
  188POPC  C21221616   3.068   1.538   4.756  0.8734 -0.4068 -0.0777
  188POPC  H12R21617   3.071   1.647   4.780 -1.7800 -0.1720 -0.4396
  188POPC  H12S21618   3.161   1.489   4.790  1.7244  0.3567 -1.2023
  188POPC  C21321619   2.949   1.488   4.840  0.0971 -0.0452  0.2409
  188POPC  H13R21620   2.929   1.379   4.827 -3.1156  0.2834  1.5080
  188POPC  H13S21621   2.866   1.557   4.816  0.5458  1.4338  2.6032
  188POPC  C21421622   2.964   1.514   4.994 -0.4237 -0.1353 -0.1828
  188POPC  H14R21623   3.012   1.614   5.007  0.8921 -0.8839  1.0988
  188POPC  H14S21624   3.046   1.456   5.042  0.2642  0.6805 -0.3341
  188POPC  C21521625   2.839   1.481   5.072  0.2455 -0.7401  0.8026
  188POPC  H15R21626   2.799   1.384   5.037 -1.9742 -0.0779  1.3359
  188POPC  H15S21627   2.755   1.549   5.047  1.2728 -0.3465 -1.8577
  188POPC  C21621628   2.856   1.472   5.227 -0.1218  1.0317  0.3451
  188POPC  H16R21629   2.920   1.383   5.249  0.1386  1.1444  0.0442
  188POPC  H16S21630   2.758   1.452   5.276  0.1963  0.6979  0.8521
  188POPC  C21721631   2.924   1.596   5.282  0.5720 -0.1872 -0.3186
  188POPC  H17R21632   3.016   1.602   5.219 -0.8783 -1.4299 -2.6781
  188POPC  H17S21633   2.958   1.593   5.388  0.1835  1.4497 -0.1182
  188POPC  C21821634   2.833   1.720   5.241  0.8050  0.5567 -0.1640
  188POPC  H18R21635   2.881   1.808   5.289 -0.0475 -0.4911  2.8692
  188POPC  H18S21636   2.733   1.716   5.290 -0.7668  1.7565 -3.0179
  188POPC  H18T21637   2.813   1.732   5.132  1.3830  0.0176 -0.3399
  188POPC   C3321638   4.255   1.214   3.571  0.2628  0.1746  0.6930
  188POPC   H3X21639   4.312   1.188   3.663 -1.2587 -0.9536  1.3612
  188POPC   H3Y21640   4.326   1.220   3.486 -0.6623 -0.8751 -0.1813
  188POPC   C3421641   4.164   1.092   3.554 -0.1034  0.9283  0.0183
  188POPC   H4X21642   4.227   1.001   3.543 -1.8759 -0.8569  3.1561
  188POPC   H4Y21643   4.099   1.106   3.465  1.8626  1.3519 -1.3908
  188POPC   C3521644   4.084   1.073   3.679  0.3763  0.0379 -0.4218
  188POPC   H5X21645   3.996   1.141   3.687  0.0210 -0.5161  0.4492
  188POPC   H5Y21646   4.148   1.095   3.766 -2.0979  1.1426  1.2315
  188POPC   C3621647   4.046   0.934   3.716  0.1562 -0.7759 -0.1087
  188POPC   H6X21648   4.140   0.875   3.713  0.5373 -0.1261 -1.6883
  188POPC   H6Y21649   3.984   0.892   3.634 -0.6441  1.4866 -0.7334
  188POPC   C3721650   3.978   0.912   3.849  0.8596  0.3239 -0.0466
  188POPC   H7X21651   3.869   0.902   3.832  0.4878  2.4356  0.7892
  188POPC   H7Y21652   4.001   0.994   3.921  0.0753  2.8806 -2.5227
  188POPC   C3821653   4.015   0.771   3.901  0.2998 -0.3380 -0.4612
  188POPC   H8X21654   4.121   0.757   3.931  0.7650 -0.0465 -1.8823
  188POPC   H8Y21655   3.993   0.693   3.825  0.5340 -1.8372  0.9821
  188POPC   C3921656   3.942   0.735   4.033  0.6992  0.2488  0.0527
  188POPC   H9X21657   3.943   0.624   4.042 -1.1399  0.3640  4.0410
  188POPC   H9Y21658   3.837   0.770   4.030  0.6568  0.0956 -0.2371
  188POPC  C31021659   4.004   0.800   4.161 -1.0922  0.0810  0.2350
  188POPC  H10X21660   4.007   0.911   4.163 -2.7748  0.1476  0.3622
  188POPC  H10Y21661   4.109   0.765   4.168 -1.3073 -0.4611  0.9592
  188POPC  C31121662   3.930   0.760   4.294  0.6620  0.4374 -0.2908
  188POPC  H11X21663   3.986   0.814   4.374  0.4989 -3.1207  2.4862
  188POPC  H11Y21664   3.945   0.652   4.315  1.3442  0.4823 -0.5118
  188POPC  C31221665   3.777   0.796   4.310  0.7971  0.1650 -0.4429
  188POPC  H12X21666   3.714   0.744   4.234 -1.5629  1.1650  0.7102
  188POPC  H12Y21667   3.767   0.906   4.294  1.0399  0.3528  0.6536
  188POPC  C31321668   3.724   0.771   4.450 -0.5978  0.2227 -0.0749
  188POPC  H13X21669   3.616   0.797   4.446 -0.5822  0.1700 -1.5084
  188POPC  H13Y21670   3.785   0.824   4.526  0.0385 -2.4443  1.3992
  188POPC  C31421671   3.728   0.625   4.510 -0.0402  0.3558  0.0111
  188POPC  H14X21672   3.829   0.587   4.482  1.2171  2.6728  1.1144
  188POPC  H14Y21673   3.640   0.571   4.470  0.6143 -1.7031  1.1855
  188POPC  C31521674   3.701   0.614   4.661  0.3729 -0.5905 -0.2927
  188POPC  H15X21675   3.760   0.696   4.707  1.8204  0.2664 -3.4241
  188POPC  H15Y21676   3.746   0.516   4.691 -0.9910 -1.4453 -0.9639
  188POPC  C31621677   3.552   0.617   4.700  0.0099 -0.7368  0.0240
  188POPC  H16X21678   3.504   0.525   4.661 -1.0078 -0.0503 -0.3672
  188POPC  H16Y21679   3.502   0.706   4.658  0.9732 -1.4445 -2.8048
  188POPC  H16Z21680   3.548   0.614   4.811  1.5225 -1.5201  0.0883
  189SAPI   C1221681   0.456   3.334   7.115 -0.8094  0.2099  0.5005
  189SAPI    H221682   0.376   3.412   7.119 -1.3343 -0.2478 -0.6650
  189SAPI    O221683   0.396   3.207   7.080  0.1272  0.1133  0.0572
  189SAPI   HO221684   0.385   3.162   7.164 -3.0102  0.9219  0.1843
  189SAPI   C1321685   0.554   3.372   7.010  0.3632 -0.2219  0.0221
  189SAPI    H321686   0.616   3.456   7.048  0.5670  0.4125 -1.6327
  189SAPI    O321687   0.483   3.405   6.889  0.0816  0.2528 -0.3747
  189SAPI   HO321688   0.408   3.346   6.890 -0.7021  1.1560 -2.1875
  189SAPI   C1421689   0.650   3.253   7.001  0.3394  0.1983  0.5716
  189SAPI    H421690   0.590   3.167   6.963 -0.8054  0.8355  0.8909
  189SAPI    O421691   0.757   3.293   6.916  0.3158 -0.2819 -0.3954
  189SAPI   HO421692   0.798   3.214   6.880  0.7702 -1.1523  1.8836
  189SAPI   C1521693   0.711   3.202   7.135  0.2989  0.7667  0.0889
  189SAPI    H521694   0.792   3.276   7.153  1.5430 -0.6724  0.6615
  189SAPI    O521695   0.776   3.075   7.133  0.5357  0.2919 -0.1498
  189SAPI   HO521696   0.861   3.081   7.177  0.1092 -0.3304  0.7805
  189SAPI   C1621697   0.634   3.227   7.267 -0.4717  0.1733 -0.5911
  189SAPI    H621698   0.588   3.127   7.284  4.2600 -2.1576  0.0059
  189SAPI    O621699   0.710   3.245   7.386 -0.0829  0.5835 -0.8463
  189SAPI   HO621700   0.767   3.171   7.406  0.3878  1.2887  0.5528
  189SAPI   C1121701   0.522   3.330   7.249  0.7412 -0.0931 -0.4782
  189SAPI    H121702   0.570   3.428   7.265  0.9563 -0.1904 -0.5205
  189SAPI     P21703   0.370   3.423   7.452 -0.4016  0.5976  0.5683
  189SAPI   O1321704   0.471   3.532   7.471  0.1932 -0.4743 -0.2885
  189SAPI   O1421705   0.306   3.359   7.570 -0.6151  0.3671 -0.2781
  189SAPI   O1221706   0.426   3.300   7.355 -0.4980 -0.3928  0.3146
  189SAPI   O1121707   0.260   3.485   7.357 -0.1850  0.5024  0.6545
  189SAPI    C121708   0.121   3.470   7.375 -0.2989 -1.4018 -0.0014
  189SAPI    HA21709   0.094   3.458   7.482  0.1364  1.2932  0.4947
  189SAPI    HB21710   0.064   3.558   7.336  1.5937  0.1301  0.5416
  189SAPI    C221711   0.071   3.343   7.303 -0.1949 -0.0044  0.2914
  189SAPI    HS21712   0.147   3.262   7.314 -0.5211 -0.0824  2.5089
  189SAPI   O2121713   0.050   3.368   7.164 -0.0270 -0.8677  0.3340
  189SAPI   C2121714   0.058   3.268   7.079 -0.1441  0.3316 -0.0291
  189SAPI   O2221715   0.098   3.154   7.109 -0.0793 -0.7634 -0.0155
  189SAPI   C2221716   0.011   3.317   6.946  0.2450  0.1002 -0.4900
  189SAPI   H2R21717   0.029   3.240   6.868  1.5486  0.0598 -0.1755
  189SAPI   H2S21718  -0.099   3.332   6.945  0.3143  0.6595 -1.1171
  189SAPI    C321719  -0.064   3.289   7.371 -0.4460 -0.2792 -0.1869
  189SAPI    HX21720  -0.024   3.279   7.474 -0.0624  0.2945 -0.2722
  189SAPI    HY21721  -0.079   3.190   7.323  1.4668  0.1508 -1.8527
  189SAPI   O3121722  -0.172   3.380   7.349  0.1306  0.4878  0.4511
  189SAPI   C3121723  -0.273   3.353   7.424  0.6007 -0.1710  0.0017
  189SAPI   O3221724  -0.271   3.264   7.510 -0.1356 -0.4232  0.6864
  189SAPI   C3221725  -0.392   3.445   7.393  0.6263 -0.2864  0.1686
  189SAPI   H2X21726  -0.348   3.546   7.378  1.2392 -0.5882 -0.1294
  189SAPI   H2Y21727  -0.467   3.438   7.474  1.0467  1.2285  0.7108
  189SAPI   C2321728   0.072   3.456   6.910 -0.0699 -0.1325  0.1642
  189SAPI   H3R21729   0.179   3.450   6.941 -0.3524 -0.5345  1.1064
  189SAPI   H3S21730   0.014   3.525   6.974  2.2160  0.0853  2.1379
  189SAPI   C2421731   0.070   3.498   6.766  0.5357 -0.2637  0.5836
  189SAPI   H4R21732   0.114   3.600   6.767  0.4558 -0.1032 -2.4419
  189SAPI   H4S21733  -0.033   3.509   6.726  0.4416 -1.8585  0.2930
  189SAPI   C2521734   0.154   3.401   6.680 -0.4199  0.1992  0.1891
  189SAPI   H5R21735   0.247   3.371   6.732 -1.6373 -0.3633  2.1430
  189SAPI   C2621736   0.138   3.366   6.549  0.0713 -0.2377 -0.2311
  189SAPI   H6R21737   0.212   3.296   6.507  0.1958 -0.6986  0.7240
  189SAPI   C2721738   0.016   3.399   6.463  0.3956 -0.1419 -0.5646
  189SAPI   H7R21739  -0.077   3.396   6.523 -0.3365 -0.4381 -1.6706
  189SAPI   H7S21740   0.005   3.321   6.384  0.4586  0.1127 -0.8269
  189SAPI   C2821741   0.002   3.539   6.407 -0.0165 -0.2076  0.5664
  189SAPI   H8R21742  -0.074   3.602   6.454 -0.1126 -0.2950  0.5274
  189SAPI   C2921743   0.072   3.589   6.299 -0.2459  0.4267 -0.5285
  189SAPI   H9R21744   0.050   3.692   6.267 -0.2911  0.2367 -1.1249
  189SAPI  C21021745   0.183   3.522   6.224  0.8107 -1.0041 -0.8090
  189SAPI  H10R21746   0.181   3.549   6.116  0.6959 -0.2569 -0.6278
  189SAPI  H10S21747   0.167   3.412   6.228 -0.0590 -0.8855 -0.8368
  189SAPI  C21121748   0.317   3.549   6.289 -0.3761 -0.5336  0.9022
  189SAPI  H11R21749   0.325   3.576   6.395 -0.1497 -0.7714  0.9459
  189SAPI  C21221750   0.417   3.567   6.207 -0.0332 -0.6527  0.1460
  189SAPI  H12R21751   0.509   3.604   6.256 -0.5677  0.6709  0.1875
  189SAPI  C21321752   0.422   3.559   6.057  0.6460 -0.1957 -0.0198
  189SAPI  H13R21753   0.350   3.486   6.014 -0.7836  0.2716  1.4860
  189SAPI  H13S21754   0.522   3.516   6.035  1.0492  0.9973 -0.6107
  189SAPI  C21421755   0.394   3.688   5.984 -0.0727 -0.4708  0.0370
  189SAPI  H14R21756   0.454   3.771   6.023 -2.3981  1.3568 -0.0726
  189SAPI  C21521757   0.295   3.723   5.900  0.3076  0.3039 -0.1443
  189SAPI  H15R21758   0.287   3.826   5.862 -1.1115  1.9030  3.9450
  189SAPI  C21621759   0.185   3.633   5.842 -0.5490 -0.4399 -0.0865
  189SAPI  H16R21760   0.208   3.526   5.862  0.4789 -0.6539 -2.1823
  189SAPI  H16S21761   0.198   3.635   5.732  0.7028 -0.5851  0.0471
  189SAPI  C21721762   0.036   3.668   5.864 -0.3844  0.5873 -0.3769
  189SAPI  H17R21763   0.007   3.655   5.970 -0.7972  1.5059 -0.3634
  189SAPI  H17S21764  -0.010   3.593   5.797  0.3560  2.1196 -2.7304
  189SAPI  C21821765  -0.017   3.801   5.823 -0.2604  0.1407 -0.3142
  189SAPI  H18R21766   0.050   3.880   5.865  0.2800  0.0243 -0.9427
  189SAPI  H18S21767  -0.119   3.819   5.864  0.2363 -0.4692  1.2655
  189SAPI  C21921768  -0.021   3.820   5.668  0.1117  0.0596  0.1163
  189SAPI  H19R21769  -0.096   3.745   5.635  0.6581 -2.0053  3.1182
  189SAPI  H19S21770   0.081   3.798   5.629 -0.9676 -2.6444 -1.4768
  189SAPI  C22021771  -0.075   3.962   5.628  0.3125 -0.0337  0.4202
  189SAPI  H20R21772  -0.173   3.982   5.677  0.5670 -0.9812  1.3514
  189SAPI  H20S21773  -0.098   3.968   5.519  1.4417 -0.6880  0.1303
  189SAPI  H20T21774  -0.013   4.048   5.661 -1.4176  1.5785 -0.3407
  189SAPI   C3321775  -0.460   3.396   7.264  0.5673  0.1914  0.6088
  189SAPI   H3X21776  -0.555   3.452   7.255  1.1785  1.1719  0.0604
  189SAPI   H3Y21777  -0.486   3.288   7.271  1.0363  0.0872  0.8189
  189SAPI   C3421778  -0.397   3.429   7.133 -0.0602 -0.3648 -0.1428
  189SAPI   H4X21779  -0.292   3.393   7.121  1.2345  1.7392  3.3118
  189SAPI   H4Y21780  -0.378   3.539   7.129  0.9932 -0.5639 -1.7453
  189SAPI   C3521781  -0.476   3.394   7.010 -0.4291 -0.1789  0.1965
  189SAPI   H5X21782  -0.577   3.438   6.999 -1.4160 -2.9144 -4.6046
  189SAPI   H5Y21783  -0.488   3.284   6.995 -1.2838 -0.1012  0.2684
  189SAPI   C3621784  -0.407   3.450   6.882  0.1581  1.0318 -0.0103
  189SAPI   H6X21785  -0.315   3.389   6.869 -0.7130 -0.4366  0.3720
  189SAPI   H6Y21786  -0.376   3.549   6.920  3.6750  0.3591 -0.7967
  189SAPI   C3721787  -0.502   3.446   6.764  0.1717  0.1393  0.2211
  189SAPI   H7X21788  -0.586   3.517   6.778  0.3709  0.1207  1.6191
  189SAPI   H7Y21789  -0.548   3.345   6.767  1.0301 -0.2639  0.2560
  189SAPI   C3821790  -0.433   3.473   6.629 -0.0530  0.2647 -0.3987
  189SAPI   H8X21791  -0.382   3.381   6.593 -0.8873 -0.3691 -0.0180
  189SAPI   H8Y21792  -0.358   3.554   6.640  0.4941  0.1226 -2.6317
  189SAPI   C3921793  -0.525   3.519   6.518  0.3385 -0.2518 -0.3497
  189SAPI   H9X21794  -0.611   3.575   6.561 -0.1836  0.2612 -1.9728
  189SAPI   H9Y21795  -0.566   3.430   6.465  0.2142 -0.7564  0.5720
  189SAPI  C31021796  -0.459   3.602   6.408  0.1258  0.8637  0.1245
  189SAPI  H10X21797  -0.388   3.531   6.361  0.4762  2.3559 -1.7406
  189SAPI  H10Y21798  -0.396   3.684   6.447  0.0887 -0.4274  3.1901
  189SAPI  C31121799  -0.560   3.645   6.302  0.6208 -0.0065 -1.0757
  189SAPI  H11X21800  -0.633   3.722   6.336  1.8434  0.4250  0.7036
  189SAPI  H11Y21801  -0.619   3.554   6.276  2.6315 -1.0620 -2.1322
  189SAPI  C31221802  -0.507   3.679   6.169 -0.4033 -0.4910 -0.5914
  189SAPI  H12X21803  -0.416   3.743   6.177 -0.0531 -1.1345  0.7703
  189SAPI  H12Y21804  -0.588   3.741   6.125 -1.5838 -1.0692  0.6949
  189SAPI  C31321805  -0.475   3.558   6.077  0.3279 -0.3431 -0.0758
  189SAPI  H13X21806  -0.566   3.499   6.053  1.7019 -2.0716 -1.2610
  189SAPI  H13Y21807  -0.403   3.495   6.135  1.1654 -1.1808 -1.9351
  189SAPI  C31421808  -0.413   3.594   5.939 -0.3159  0.3155  0.4295
  189SAPI  H14X21809  -0.399   3.517   5.860  0.1840  1.3295 -0.5046
  189SAPI  H14Y21810  -0.304   3.612   5.945 -0.0517 -0.7945 -0.6133
  189SAPI  C31521811  -0.471   3.722   5.875  0.2735  0.7043 -0.1763
  189SAPI  H15X21812  -0.423   3.811   5.922 -0.3598  1.8334 -1.5746
  189SAPI  H15Y21813  -0.581   3.716   5.892  0.3527  0.3094  0.2035
  189SAPI  C31621814  -0.440   3.740   5.726  0.6733  0.2448 -0.2468
  189SAPI  H16X21815  -0.486   3.653   5.675  1.2160 -2.1966  3.0507
  189SAPI  H16Y21816  -0.332   3.729   5.707  0.9616  1.4415  0.5532
  189SAPI  C31721817  -0.492   3.866   5.652 -0.3066  0.9778  0.5948
  189SAPI  H17X21818  -0.484   3.965   5.703  1.1136  0.2021  1.9564
  189SAPI  H17Y21819  -0.601   3.849   5.642 -0.2771  0.6070  0.9049
  189SAPI  C31821820  -0.425   3.870   5.510 -0.1775 -0.2682 -0.1710
  189SAPI  H18X21821  -0.319   3.898   5.523 -0.2080 -0.3323  0.2333
  189SAPI  H18Y21822  -0.471   3.957   5.458 -0.9897 -2.1753 -2.8661
  189SAPI  H18Z21823  -0.441   3.771   5.463 -1.3531  0.4702 -1.4140
  190SAPI   C1221824   0.399   5.091   7.995  0.1898 -0.6658 -0.6504
  190SAPI    H221825   0.321   5.143   7.936 -0.4279 -2.3175 -1.3543
  190SAPI    O221826   0.403   5.165   8.117  0.3532  0.0905 -0.3403
  190SAPI   HO221827   0.409   5.259   8.101 -1.7646  0.6987  1.8029
  190SAPI   C1321828   0.346   4.947   8.009 -0.5721  0.0417 -0.3727
  190SAPI    H321829   0.366   4.890   7.916  2.1070 -0.3558  0.3370
  190SAPI    O321830   0.209   4.941   8.047 -0.0695 -0.4732  0.1050
  190SAPI   HO321831   0.194   5.008   8.114 -0.0250 -0.8325  0.4778
  190SAPI   C1421832   0.434   4.878   8.109  0.3428  0.7718  0.2420
  190SAPI    H421833   0.399   4.912   8.209  0.6004 -1.4619  1.1553
  190SAPI    O421834   0.408   4.735   8.117  0.0821 -0.3818  0.0185
  190SAPI   HO421835   0.457   4.700   8.043  4.2634  2.2688  1.1934
  190SAPI   C1521836   0.590   4.911   8.113  0.5714  0.5195 -0.9475
  190SAPI    H521837   0.634   4.818   8.072  3.0055  0.6414  1.1101
  190SAPI    O521838   0.643   4.908   8.248 -0.8270  0.5863 -0.1495
  190SAPI   HO521839   0.721   4.854   8.266  0.2925  2.3984  0.6921
  190SAPI   C1621840   0.635   5.031   8.024 -0.6587  0.1723  0.1975
  190SAPI    H621841   0.646   5.104   8.107 -0.0969 -1.0540  1.2500
  190SAPI    O621842   0.765   5.004   7.969  0.1856  0.0543  0.5111
  190SAPI   HO621843   0.803   5.092   7.971  0.2950  0.0004  2.4487
  190SAPI   C1121844   0.536   5.095   7.930  0.3407  0.0691 -1.0972
  190SAPI    H121845   0.534   5.026   7.843  0.6888  0.4658 -1.4211
  190SAPI     P21846   0.682   5.303   7.815  0.3780 -0.0645 -0.0598
  190SAPI   O1321847   0.806   5.257   7.879 -0.2184  0.2194 -0.0058
  190SAPI   O1421848   0.656   5.450   7.823 -0.0025 -0.3307  0.5012
  190SAPI   O1221849   0.552   5.232   7.887  0.2739  0.0448 -0.6742
  190SAPI   O1121850   0.672   5.256   7.670 -0.0625 -0.0072  0.4486
  190SAPI    C121851   0.657   5.123   7.628 -0.4028 -0.0017 -0.4923
  190SAPI    HA21852   0.730   5.055   7.678 -0.6108  0.5471  0.5832
  190SAPI    HB21853   0.550   5.095   7.632 -0.2444 -0.9208 -1.9841
  190SAPI    C221854   0.686   5.111   7.477 -0.1998 -0.1674 -0.1905
  190SAPI    HS21855   0.794   5.140   7.473  0.3546 -2.0092  0.5377
  190SAPI   O2121856   0.609   5.206   7.398  0.0079 -0.0373  0.0902
  190SAPI   C2121857   0.649   5.223   7.276  0.2166  0.1519 -0.3478
  190SAPI   O2221858   0.763   5.188   7.238  0.4549 -0.6252 -0.2710
  190SAPI   C2221859   0.530   5.268   7.188  0.0464 -0.8553  0.0010
  190SAPI   H2R21860   0.439   5.206   7.199 -0.5603  0.3014  1.9192
  190SAPI   H2S21861   0.490   5.362   7.231  0.2061 -1.0564  0.5886
  190SAPI    C321862   0.675   4.961   7.436 -0.0364  0.2300 -0.4255
  190SAPI    HX21863   0.731   4.904   7.513 -0.2164 -1.0121 -1.1882
  190SAPI    HY21864   0.720   4.937   7.337 -1.0698 -0.5231 -0.7212
  190SAPI   O3121865   0.539   4.922   7.441  0.3681 -0.1422  0.0555
  190SAPI   C3121866   0.477   4.908   7.315  0.3455  0.8486 -0.3439
  190SAPI   O3221867   0.538   4.936   7.212  0.3137  0.2370 -0.1066
  190SAPI   C3221868   0.339   4.867   7.333  0.2549  0.0057 -0.6874
  190SAPI   H2X21869   0.276   4.955   7.358 -1.1332 -1.2674  0.4662
  190SAPI   H2Y21870   0.334   4.787   7.410 -0.0450  1.2197  0.5841
  190SAPI   C2321871   0.568   5.291   7.046  0.2498 -0.4165 -0.5157
  190SAPI   H3R21872   0.597   5.193   7.003 -0.4430 -1.4480  1.2997
  190SAPI   H3S21873   0.651   5.362   7.024 -0.5755  0.8601  0.3268
  190SAPI   C2421874   0.444   5.333   6.959  0.5066 -0.3166  0.6153
  190SAPI   H4R21875   0.360   5.262   6.974 -1.7367  2.4045  1.7710
  190SAPI   H4S21876   0.476   5.343   6.853  2.3250  1.2499  1.2447
  190SAPI   C2521877   0.395   5.471   6.998 -0.4932  0.3891  1.1530
  190SAPI   H5R21878   0.437   5.504   7.094 -1.3699  1.7543  1.0924
  190SAPI   C2621879   0.299   5.537   6.929  1.0243 -0.1143 -1.2209
  190SAPI   H6R21880   0.296   5.646   6.942  0.2633 -0.3555  1.1842
  190SAPI   C2721881   0.230   5.488   6.804 -0.4243  0.1500 -0.5371
  190SAPI   H7R21882   0.190   5.385   6.813 -0.7127  0.0763 -2.3030
  190SAPI   H7S21883   0.310   5.495   6.728 -1.4117 -0.8892 -1.7185
  190SAPI   C2821884   0.116   5.580   6.762  0.4374 -0.0424 -0.3661
  190SAPI   H8R21885   0.053   5.595   6.851  2.6844  0.7438  1.1942
  190SAPI   C2921886   0.095   5.640   6.640 -0.5882 -0.0398  0.4765
  190SAPI   H9R21887   0.016   5.717   6.630 -0.4548 -0.0568 -0.9279
  190SAPI  C21021888   0.187   5.652   6.522 -0.1591  0.2042 -0.5156
  190SAPI  H10R21889   0.292   5.673   6.553 -0.3446 -0.1789  0.4136
  190SAPI  H10S21890   0.162   5.734   6.452  1.9432  0.9115 -0.5201
  190SAPI  C21121891   0.196   5.516   6.458 -0.1934  0.5227 -0.1129
  190SAPI  H11R21892   0.272   5.451   6.504 -0.3999 -0.1781 -0.7442
  190SAPI  C21221893   0.105   5.456   6.379 -0.3892  0.0548 -0.0765
  190SAPI  H12R21894   0.129   5.356   6.340  0.3083  0.1942 -0.0216
  190SAPI  C21321895  -0.017   5.531   6.326 -0.1356  0.0475  0.6580
  190SAPI  H13R21896  -0.027   5.641   6.334 -2.6769  0.1635 -2.2399
  190SAPI  H13S21897  -0.104   5.486   6.378 -0.5928 -2.2706 -1.8833
  190SAPI  C21421898  -0.023   5.495   6.178 -0.7454  0.4113  0.1374
  190SAPI  H14R21899  -0.083   5.406   6.151  1.8204 -0.5031 -3.2707
  190SAPI  C21521900   0.032   5.568   6.076 -0.3259  0.3829 -0.2437
  190SAPI  H15R21901   0.036   5.532   5.972 -0.1544  0.2689 -0.1988
  190SAPI  C21621902   0.120   5.686   6.088 -0.7426  0.5934 -0.0110
  190SAPI  H16R21903   0.207   5.686   6.019  0.6361 -1.6728  1.5899
  190SAPI  H16S21904   0.168   5.689   6.189  0.0072  0.8780 -0.3638
  190SAPI  C21721905   0.049   5.821   6.084 -0.3600  0.7201 -0.2009
  190SAPI  H17R21906   0.121   5.902   6.111 -0.8708  1.1355 -0.0731
  190SAPI  H17S21907  -0.033   5.821   6.159 -1.1120 -0.5081 -0.9888
  190SAPI  C21821908  -0.007   5.853   5.943 -0.3027 -0.1380  1.2540
  190SAPI  H18R21909  -0.077   5.939   5.938 -0.3916 -0.2671 -0.9902
  190SAPI  H18S21910  -0.056   5.766   5.893 -0.5733  0.4508  0.4624
  190SAPI  C21921911   0.112   5.906   5.859 -0.1599 -0.5691 -0.4395
  190SAPI  H19R21912   0.188   5.826   5.851  0.1303 -0.1398 -2.4562
  190SAPI  H19S21913   0.152   5.995   5.912 -0.8578 -0.8135  0.5387
  190SAPI  C22021914   0.085   5.955   5.721 -0.5917 -0.0563  0.5570
  190SAPI  H20R21915   0.031   5.878   5.662  0.6484 -0.8036  0.3874
  190SAPI  H20S21916   0.183   5.980   5.675 -0.3803  1.8520  1.9046
  190SAPI  H20T21917   0.028   6.050   5.731 -1.0457 -0.4848  2.4286
  190SAPI   C3321918   0.285   4.805   7.204  0.5682 -0.1746  0.3699
  190SAPI   H3X21919   0.345   4.718   7.170 -0.1870 -1.1208  1.4042
  190SAPI   H3Y21920   0.284   4.877   7.119  0.2087  0.3590  0.8165
  190SAPI   C3421921   0.136   4.766   7.207 -0.2479  0.7612 -0.0942
  190SAPI   H4X21922   0.067   4.846   7.173 -0.3181  0.6520 -0.2086
  190SAPI   H4Y21923   0.103   4.740   7.310  0.1551  0.5034 -0.0295
  190SAPI   C3521924   0.109   4.649   7.106 -0.5646  0.0169 -0.8079
  190SAPI   H5X21925   0.006   4.614   7.130 -0.2460  0.7660  2.0214
  190SAPI   H5Y21926   0.172   4.566   7.144 -0.9665  0.0416 -0.0778
  190SAPI   C3621927   0.144   4.685   6.967  0.7411  0.3927  0.1372
  190SAPI   H6X21928   0.248   4.722   6.963  1.0873 -0.3353  1.6080
  190SAPI   H6Y21929   0.079   4.774   6.951 -0.0441 -0.0730  0.6141
  190SAPI   C3721930   0.127   4.572   6.868  0.1226 -0.9700  0.6426
  190SAPI   H7X21931   0.024   4.533   6.882 -0.0018 -0.1117  2.3368
  190SAPI   H7Y21932   0.191   4.484   6.891  4.2687  2.1690  2.1425
  190SAPI   C3821933   0.140   4.614   6.716 -0.3892  0.0976 -0.3688
  190SAPI   H8X21934   0.132   4.725   6.714 -2.1258  0.0014  0.2404
  190SAPI   H8Y21935   0.061   4.580   6.647 -0.0025  0.3835 -0.9620
  190SAPI   C3921936   0.265   4.543   6.664  0.1571 -0.3967  0.7255
  190SAPI   H9X21937   0.248   4.434   6.674 -0.3148 -0.2318  1.7620
  190SAPI   H9Y21938   0.352   4.579   6.723 -0.3879 -0.3473  1.5038
  190SAPI  C31021939   0.301   4.574   6.514  0.2603  0.3172 -0.7524
  190SAPI  H10X21940   0.396   4.520   6.496  0.3242 -0.1879  0.8921
  190SAPI  H10Y21941   0.314   4.684   6.504  0.4123  0.2512 -1.2681
  190SAPI  C31121942   0.192   4.521   6.421 -0.2452 -0.0707  0.0816
  190SAPI  H11X21943   0.102   4.586   6.424 -1.4544 -1.7194  1.0038
  190SAPI  H11Y21944   0.150   4.427   6.463  0.4567 -0.7480 -0.6926
  190SAPI  C31221945   0.244   4.520   6.280  0.8825  0.4362 -0.1471
  190SAPI  H12X21946   0.319   4.438   6.275 -1.2986 -1.7787  1.2339
  190SAPI  H12Y21947   0.308   4.609   6.264  1.0839  0.1698 -0.8800
  190SAPI  C31321948   0.134   4.492   6.173  0.0242  0.1279  0.6064
  190SAPI  H13X21949   0.033   4.531   6.200 -1.3507 -1.1007 -2.2991
  190SAPI  H13Y21950   0.123   4.381   6.180  2.1060 -0.3673 -2.0514
  190SAPI  C31421951   0.170   4.523   6.021 -0.6908 -0.4936 -0.8553
  190SAPI  H14X21952   0.263   4.473   5.987 -1.7626 -3.1169 -0.1588
  190SAPI  H14Y21953   0.204   4.629   6.020 -1.3929 -0.2548 -1.8457
  190SAPI  C31521954   0.055   4.505   5.922  0.6716  0.4654  0.0246
  190SAPI  H15X21955  -0.029   4.573   5.949  0.2118 -1.2046  3.2938
  190SAPI  H15Y21956   0.014   4.404   5.944  0.4001  1.0196  2.3295
  190SAPI  C31621957   0.106   4.524   5.777 -0.3491  0.0676  0.0606
  190SAPI  H16X21958   0.185   4.451   5.751  0.6220  0.4157  1.8255
  190SAPI  H16Y21959   0.144   4.628   5.769 -0.9563  0.2270 -0.7890
  190SAPI  C31721960   0.002   4.498   5.671  0.0128 -0.2610 -0.3462
  190SAPI  H17X21961  -0.057   4.592   5.673 -1.6332 -1.1816 -2.2037
  190SAPI  H17Y21962  -0.057   4.411   5.707 -0.2888  0.2973  0.5366
  190SAPI  C31821963   0.066   4.479   5.532 -0.1049 -0.0491  1.1168
  190SAPI  H18X21964   0.134   4.392   5.526  0.4584  0.3979  0.9624
  190SAPI  H18Y21965   0.120   4.571   5.502 -0.3517  0.2150  1.4798
  190SAPI  H18Z21966  -0.011   4.465   5.452  0.0834 -0.9060  1.0733
  191SAPI   C1221967   2.146   5.345   3.375  0.3229  0.0648 -0.1698
  191SAPI    H221968   2.158   5.445   3.422 -0.7083  0.0660  0.1198
  191SAPI    O221969   2.267   5.308   3.307 -0.3558 -0.4734 -0.0384
  191SAPI   HO221970   2.342   5.359   3.338 -1.5382  1.4197 -0.0936
  191SAPI   C1321971   2.111   5.245   3.485  0.0792 -0.1117  0.6858
  191SAPI    H321972   2.011   5.276   3.523 -0.9635 -0.0799 -1.9139
  191SAPI    O321973   2.218   5.257   3.584 -0.0116  0.5441  0.2794
  191SAPI   HO321974   2.295   5.274   3.529 -0.8988  4.3088 -0.0304
  191SAPI   C1421975   2.107   5.110   3.421  0.4889  0.0101  0.5540
  191SAPI    H421976   2.213   5.086   3.395 -0.1331 -1.6745 -0.6141
  191SAPI    O421977   2.078   5.011   3.515 -0.0592 -0.1967  0.2456
  191SAPI   HO421978   2.156   4.978   3.560  0.5852 -0.1204 -0.7746
  191SAPI   C1521979   2.003   5.102   3.302 -0.2712  0.2774  0.3717
  191SAPI    H521980   1.905   5.104   3.353 -1.1104  3.0487 -1.1184
  191SAPI    O521981   2.022   4.989   3.221  0.6033 -0.0822 -0.4522
  191SAPI   HO521982   1.967   4.916   3.250  0.3333  0.4414  0.3590
  191SAPI   C1621983   1.984   5.228   3.214 -0.0802 -0.5285  0.0157
  191SAPI    H621984   2.048   5.214   3.125  1.1220 -0.3712  0.8257
  191SAPI    O621985   1.854   5.248   3.167  0.0279  0.4647  0.1668
  191SAPI   HO621986   1.841   5.339   3.141  1.4274  0.1873 -1.6776
  191SAPI   C1121987   2.037   5.357   3.276  0.8829 -0.4491  0.4222
  191SAPI    H121988   1.954   5.388   3.343  0.4462 -1.1594  0.2363
  191SAPI     P21989   1.945   5.571   3.133  0.6150 -0.4393 -0.3341
  191SAPI   O1321990   1.829   5.494   3.078  0.8580 -0.1461  0.0798
  191SAPI   O1421991   2.004   5.669   3.037 -0.0582 -0.0913 -0.1494
  191SAPI   O1221992   2.066   5.460   3.177  0.0220  0.5309  0.2241
  191SAPI   O1121993   1.900   5.645   3.263  0.0726  1.1509 -0.7636
  191SAPI    C121994   1.766   5.642   3.321 -0.4025 -0.1875  0.0381
  191SAPI    HA21995   1.694   5.711   3.272 -2.9071 -1.1276  2.1581
  191SAPI    HB21996   1.730   5.540   3.345  1.5608 -0.9719 -0.1261
  191SAPI    C221997   1.764   5.701   3.467  0.0150  0.5491  0.1507
  191SAPI    HS21998   1.782   5.811   3.457  2.0299  0.1790 -0.8336
  191SAPI   O2121999   1.863   5.636   3.548 -0.2245 -0.1952  0.9856
  191SAPI   C2122000   1.925   5.718   3.623 -0.8374 -0.3637 -0.5759
  191SAPI   O2222001   1.924   5.836   3.635  0.3072 -0.7138 -0.1228
  191SAPI   C2222002   2.021   5.635   3.710  0.5405  0.0059 -0.4048
  191SAPI   H2R22003   1.974   5.537   3.736  0.1001  0.4626  0.5951
  191SAPI   H2S22004   2.109   5.616   3.645  1.3774  2.3299 -0.0571
  191SAPI    C322005   1.624   5.674   3.533  0.6654  0.1483 -0.3516
  191SAPI    HX22006   1.619   5.564   3.543  1.5945  0.0431 -0.8660
  191SAPI    HY22007   1.539   5.691   3.463  0.0524 -2.1803 -0.2285
  191SAPI   O3122008   1.608   5.736   3.661 -0.2403 -0.0688 -0.1894
  191SAPI   C3122009   1.566   5.858   3.647  0.1593  0.6878  0.3694
  191SAPI   O3222010   1.529   5.914   3.545  0.4320  0.2931  0.3919
  191SAPI   C3222011   1.573   5.923   3.781  0.0435 -0.3899 -0.7731
  191SAPI   H2X22012   1.562   6.033   3.770  2.2124 -0.1205 -0.6200
  191SAPI   H2Y22013   1.672   5.903   3.827 -0.6537 -1.1284  0.4504
  191SAPI   C2322014   2.061   5.708   3.840  0.0206 -0.2340 -0.5988
  191SAPI   H3R22015   2.107   5.807   3.818  1.6255 -0.2848  2.1864
  191SAPI   H3S22016   2.136   5.655   3.902 -1.0486  1.3714  2.2707
  191SAPI   C2422017   1.938   5.738   3.933 -0.8078  0.5374  0.8956
  191SAPI   H4R22018   1.908   5.634   3.956  1.1380 -0.6849 -1.6506
  191SAPI   H4S22019   1.848   5.775   3.880  0.1605 -0.0013 -1.2464
  191SAPI   C2522020   1.970   5.829   4.044  0.5518  0.2279 -0.5561
  191SAPI   H5R22021   1.932   5.930   4.027  0.9832  0.2088 -1.6652
  191SAPI   C2622022   2.041   5.796   4.154 -0.4708 -0.1668  0.2113
  191SAPI   H6R22023   2.052   5.873   4.231 -0.5181  0.4274 -0.3719
  191SAPI   C2722024   2.093   5.662   4.192  0.3657  0.1435  0.0644
  191SAPI   H7R22025   2.189   5.635   4.143  1.5276  0.2892  2.1595
  191SAPI   H7S22026   2.019   5.585   4.162 -0.7715  1.3260 -0.2675
  191SAPI   C2822027   2.113   5.645   4.336 -0.2535  0.1642  0.2406
  191SAPI   H8R22028   2.205   5.696   4.367 -1.1358  2.4906 -0.6432
  191SAPI   C2922029   2.034   5.595   4.435 -0.5019 -0.1681  0.2917
  191SAPI   H9R22030   2.077   5.593   4.537  0.5941 -2.6446 -0.1408
  191SAPI  C21022031   1.897   5.536   4.410 -0.0755  0.7121 -0.1471
  191SAPI  H10R22032   1.872   5.464   4.491 -0.1523  0.3843 -0.4609
  191SAPI  H10S22033   1.902   5.474   4.318 -1.5688 -1.4887  1.1661
  191SAPI  C21122034   1.791   5.640   4.395  0.4061 -0.1597  1.1714
  191SAPI  H11R22035   1.837   5.727   4.345  0.5972 -1.3153 -0.7840
  191SAPI  C21222036   1.660   5.637   4.415 -0.3653  0.4556  0.1365
  191SAPI  H12R22037   1.600   5.728   4.398  0.8268  1.3009  0.2804
  191SAPI  C21322038   1.584   5.518   4.467 -1.0450  0.0304 -0.0067
  191SAPI  H13R22039   1.643   5.457   4.538  0.1753  0.2185 -0.8314
  191SAPI  H13S22040   1.551   5.461   4.377 -1.9957  1.2236 -0.4369
  191SAPI  C21422041   1.459   5.565   4.537 -0.1520  1.0682  0.4184
  191SAPI  H14R22042   1.369   5.577   4.474  0.3544  2.2093 -0.1163
  191SAPI  C21522043   1.444   5.575   4.670  0.0640  0.1443 -0.5980
  191SAPI  H15R22044   1.352   5.605   4.723 -1.4461 -2.0541 -1.8335
  191SAPI  C21622045   1.559   5.569   4.766 -0.5514 -0.3657 -0.3378
  191SAPI  H16R22046   1.660   5.594   4.728  1.0676  0.1953  3.7425
  191SAPI  H16S22047   1.561   5.461   4.795  0.9895 -0.2575  0.0673
  191SAPI  C21722048   1.533   5.645   4.900  0.8382  0.2694  0.3883
  191SAPI  H17R22049   1.440   5.618   4.953  1.5766  1.2528  2.2563
  191SAPI  H17S22050   1.521   5.754   4.879 -3.4976 -0.3010 -1.1106
  191SAPI  C21822051   1.646   5.647   5.001 -0.1611 -0.7264 -0.9089
  191SAPI  H18R22052   1.607   5.702   5.089  0.8121 -0.8487 -0.3799
  191SAPI  H18S22053   1.733   5.695   4.950  0.2259  0.4350  0.7515
  191SAPI  C21922054   1.681   5.508   5.050  0.1659  0.3444 -0.7046
  191SAPI  H19R22055   1.745   5.463   4.971 -0.4264 -1.5244 -0.1779
  191SAPI  H19S22056   1.587   5.448   5.058  1.3744 -1.4026  1.4696
  191SAPI  C22022057   1.762   5.506   5.181  0.3760 -0.5463  0.3735
  191SAPI  H20R22058   1.782   5.405   5.223 -0.3973 -0.9187 -0.1299
  191SAPI  H20S22059   1.716   5.563   5.265 -0.9665  2.6634 -2.2929
  191SAPI  H20T22060   1.859   5.556   5.163 -0.7654  2.4593  1.7623
  191SAPI   C3322061   1.470   5.853   3.871 -0.0008  0.1272  0.4359
  191SAPI   H3X22062   1.500   5.747   3.889  3.3593  0.1007 -3.6659
  191SAPI   H3Y22063   1.377   5.854   3.810  0.6089 -0.4473 -0.5231
  191SAPI   C3422064   1.439   5.926   4.008  0.2015 -0.3245  0.0994
  191SAPI   H4X22065   1.399   6.029   4.000  2.1244  0.4301 -0.1375
  191SAPI   H4Y22066   1.541   5.942   4.048  0.3280 -1.8100  0.4246
  191SAPI   C3522067   1.354   5.853   4.113  0.2287 -0.4131  0.3361
  191SAPI   H5X22068   1.396   5.755   4.142  1.2788 -0.1326 -0.1894
  191SAPI   H5Y22069   1.250   5.840   4.074 -0.3983 -0.8280  2.0551
  191SAPI   C3622070   1.333   5.939   4.247 -0.3704  0.1884  0.5644
  191SAPI   H6X22071   1.290   6.038   4.221  0.8660  1.2394  2.3303
  191SAPI   H6Y22072   1.432   5.971   4.287 -0.1333 -1.7532  1.6530
  191SAPI   C3722073   1.244   5.870   4.346  0.3513  1.1528  0.8291
  191SAPI   H7X22074   1.285   5.767   4.350 -0.0997  0.5529 -4.1562
  191SAPI   H7Y22075   1.140   5.854   4.311  1.1084 -1.8030 -0.3452
  191SAPI   C3822076   1.227   5.952   4.479 -0.1991  0.3665 -0.3551
  191SAPI   H8X22077   1.198   6.056   4.451  0.3342  0.1106 -1.9317
  191SAPI   H8Y22078   1.327   5.954   4.529 -0.8867 -0.4728  1.1144
  191SAPI   C3922079   1.123   5.879   4.574 -0.2596 -0.0140 -0.3259
  191SAPI   H9X22080   1.152   5.772   4.579 -1.6135 -0.3922 -0.2106
  191SAPI   H9Y22081   1.030   5.878   4.513 -1.2529  1.5655  1.0955
  191SAPI  C31022082   1.105   5.948   4.707  0.2729  0.2456 -0.9606
  191SAPI  H10X22083   1.053   6.046   4.711 -1.0437 -0.4701  2.4600
  191SAPI  H10Y22084   1.207   5.945   4.751  0.5944 -0.0682 -1.7065
  191SAPI  C31122085   1.018   5.870   4.809  0.1316 -0.4282  1.4775
  191SAPI  H11X22086   1.036   5.760   4.803 -0.7812 -0.5189  0.1368
  191SAPI  H11Y22087   0.911   5.880   4.781  0.6481 -0.0161 -0.4816
  191SAPI  C31222088   1.029   5.916   4.957  0.0848 -0.4621  0.1135
  191SAPI  H12X22089   1.134   5.900   4.988 -0.3149 -2.2762  0.6582
  191SAPI  H12Y22090   0.974   5.842   5.020  0.3813 -1.2718 -0.5705
  191SAPI  C31322091   0.986   6.064   4.979  0.2647 -0.4515 -0.2466
  191SAPI  H13X22092   0.884   6.084   4.939  0.8507  1.4123 -0.8871
  191SAPI  H13Y22093   1.059   6.124   4.920  1.8248 -0.9406  1.1054
  191SAPI  C31422094   0.999   6.107   5.123  0.3483  0.5137  0.1498
  191SAPI  H14X22095   1.094   6.073   5.170 -0.3711 -0.5868  0.8685
  191SAPI  H14Y22096   0.923   6.059   5.189  2.8897 -1.2843  1.9528
  191SAPI  C31522097   0.995   6.260   5.128 -0.0827 -0.9166 -1.0472
  191SAPI  H15X22098   0.919   6.309   5.063  1.1386  0.3279 -1.5853
  191SAPI  H15Y22099   1.093   6.304   5.099 -0.2987  0.5421  0.2723
  191SAPI  C31622100   0.961   6.310   5.267  0.6717 -0.1362 -0.4432
  191SAPI  H16X22101   1.031   6.261   5.338  0.3123 -2.0273 -1.3050
  191SAPI  H16Y22102   0.861   6.270   5.295  0.4683 -0.4955 -1.6229
  191SAPI  C31722103   0.959   6.464   5.287 -0.5650  0.4334 -0.4910
  191SAPI  H17X22104   0.916   6.502   5.191 -0.9381  0.8296 -0.1684
  191SAPI  H17Y22105   1.065   6.495   5.296 -1.1868  1.8735  4.0705
  191SAPI  C31822106   0.861   6.502   5.403 -0.4081  0.0946 -0.3452
  191SAPI  H18X22107   0.911   6.456   5.490  0.1008  1.0150 -0.1387
  191SAPI  H18Y22108   0.762   6.451   5.393 -0.2115 -0.2836 -0.3908
  191SAPI  H18Z22109   0.855   6.611   5.420  1.3520  0.2166 -0.3259
  192SAPI   C1222110   4.808   3.588   3.565 -0.3213  0.2287 -0.0482
  192SAPI    H222111   4.775   3.612   3.669 -0.7704 -1.2037  0.1583
  192SAPI    O222112   4.912   3.680   3.546 -0.0948 -0.3234  0.6405
  192SAPI   HO222113   4.940   3.713   3.632  1.2013 -0.4691  0.2904
  192SAPI   C1322114   4.846   3.443   3.565 -0.0964  0.3528  0.2924
  192SAPI    H322115   4.762   3.377   3.596 -0.7250 -0.2083 -2.3645
  192SAPI    O322116   4.943   3.429   3.668 -0.2151 -0.1584 -0.2916
  192SAPI   HO322117   5.027   3.464   3.636  0.2080 -1.4366 -0.6318
  192SAPI   C1422118   4.898   3.406   3.422 -0.2425  0.3983  0.5033
  192SAPI    H422119   4.990   3.467   3.411  0.6160 -1.1948 -2.3623
  192SAPI    O422120   4.917   3.269   3.410 -0.6371  0.2179  0.4192
  192SAPI   HO422121   4.830   3.239   3.382  0.2575 -2.1167 -0.1124
  192SAPI   C1522122   4.818   3.466   3.306 -0.3045  0.2784 -0.8477
  192SAPI    H522123   4.739   3.392   3.280 -0.3616 -0.2380  0.6916
  192SAPI    O522124   4.900   3.465   3.187  0.1521 -0.1776  0.4576
  192SAPI   HO522125   4.956   3.543   3.186 -0.1005  0.0020  0.3667
  192SAPI   C1622126   4.746   3.602   3.334 -0.5028  0.2312  0.3046
  192SAPI    H622127   4.819   3.683   3.314  0.4625 -0.3591  1.3359
  192SAPI    O622128   4.648   3.622   3.234  0.2965  0.0029  0.3398
  192SAPI   HO622129   4.568   3.594   3.280  1.4174 -1.2494  1.6193
  192SAPI   C1122130   4.691   3.608   3.473 -0.7778 -0.1129  0.2697
  192SAPI    H122131   4.617   3.525   3.482 -1.9584  0.9816  1.1016
  192SAPI     P22132   4.509   3.777   3.573  0.0059  0.3107 -0.1968
  192SAPI   O1322133   4.399   3.676   3.563  0.5902 -0.1607 -0.6521
  192SAPI   O1422134   4.472   3.917   3.545 -0.4149 -0.1285 -0.7594
  192SAPI   O1222135   4.632   3.739   3.481  0.0319  0.4476  0.4444
  192SAPI   O1122136   4.568   3.758   3.717 -0.9222 -0.4816 -0.4130
  192SAPI    C122137   4.661   3.856   3.760  0.5891  0.0386  0.4259
  192SAPI    HA22138   4.756   3.831   3.709 -0.2122 -1.7362 -0.2903
  192SAPI    HB22139   4.633   3.957   3.724  1.9654 -0.1357 -1.2523
  192SAPI    C222140   4.660   3.856   3.921  0.2323 -0.1143 -0.0107
  192SAPI    HS22141   4.703   3.952   3.956 -0.5035  0.6322 -1.1013
  192SAPI   O2122142   4.723   3.737   3.975  0.5504  0.6116  0.4406
  192SAPI   C2122143   4.850   3.702   3.942  0.2291  0.0286  0.3686
  192SAPI   O2222144   4.921   3.750   3.859  0.0685 -0.0864 -0.4106
  192SAPI   C2222145   4.884   3.576   4.017 -0.5884  0.1938  0.8890
  192SAPI   H2R22146   4.823   3.492   3.977  1.5546 -0.3970 -1.4307
  192SAPI   H2S22147   4.989   3.550   3.993 -1.1684 -0.8239 -0.7183
  192SAPI    C322148   4.512   3.860   3.974  0.1013 -0.0843 -0.2421
  192SAPI    HX22149   4.462   3.763   3.953 -1.2983  0.7206 -0.7019
  192SAPI    HY22150   4.458   3.942   3.923 -3.3078 -0.9723  1.6298
  192SAPI   O3122151   4.500   3.892   4.115  0.6033  0.2476  0.1785
  192SAPI   C3122152   4.525   4.023   4.153  0.8226  0.9681  0.2276
  192SAPI   O3222153   4.577   4.103   4.079  0.5651 -0.2330 -0.2614
  192SAPI   C3222154   4.468   4.044   4.293 -0.1441  0.5507 -0.2645
  192SAPI   H2X22155   4.528   3.986   4.367  0.1783 -0.2628 -1.1288
  192SAPI   H2Y22156   4.364   4.004   4.292 -0.0406  0.2647 -1.5447
  192SAPI   C2322157   4.868   3.582   4.175  0.2849 -0.8056  0.3017
  192SAPI   H3R22158   4.869   3.478   4.213  1.0751 -0.7642  0.4103
  192SAPI   H3S22159   4.764   3.616   4.199  0.7072  0.4185  0.4772
  192SAPI   C2422160   4.973   3.666   4.244 -0.3955 -0.0920 -0.4267
  192SAPI   H4R22161   4.956   3.774   4.224  0.8059  0.2134  0.0544
  192SAPI   H4S22162   5.074   3.640   4.204 -0.1446 -0.4289  0.3924
  192SAPI   C2522163   4.961   3.651   4.395  0.2097  0.4993 -0.2648
  192SAPI   H5R22164   5.047   3.604   4.446 -0.2923  1.1518  1.2319
  192SAPI   C2622165   4.861   3.684   4.484 -0.3145  0.1210 -0.2484
  192SAPI   H6R22166   4.865   3.655   4.590 -0.4130  1.7003  0.2172
  192SAPI   C2722167   4.733   3.751   4.448  0.8382  0.8226  0.0259
  192SAPI   H7R22168   4.730   3.807   4.352 -1.9190  2.6247  1.0208
  192SAPI   H7S22169   4.701   3.823   4.527  1.2440 -1.0309  1.9911
  192SAPI   C2822170   4.609   3.654   4.427  0.5288  0.4565  0.0144
  192SAPI   H8R22171   4.597   3.600   4.332 -1.2309  1.6225 -0.4795
  192SAPI   C2922172   4.509   3.633   4.520  0.9929 -0.4038  0.6233
  192SAPI   H9R22173   4.431   3.567   4.479  0.1587  0.5564  0.6488
  192SAPI  C21022174   4.499   3.698   4.657 -0.0849  0.2036  0.2427
  192SAPI  H10R22175   4.592   3.739   4.702 -0.3425 -0.0348  0.9978
  192SAPI  H10S22176   4.462   3.619   4.725  1.7378 -0.3930  0.5934
  192SAPI  C21122177   4.394   3.809   4.648 -0.8816  0.5330  0.3918
  192SAPI  H11R22178   4.417   3.884   4.571 -2.2785  0.8686  0.2702
  192SAPI  C21222179   4.277   3.828   4.703 -0.0268  1.0678 -0.2121
  192SAPI  H12R22180   4.219   3.920   4.684  0.0345  0.8459 -1.5892
  192SAPI  C21322181   4.214   3.742   4.809 -0.7432  0.0698 -0.1712
  192SAPI  H13R22182   4.288   3.721   4.889 -1.9175  0.0729  0.9520
  192SAPI  H13S22183   4.182   3.643   4.771  1.2385 -0.4450 -0.6148
  192SAPI  C21422184   4.083   3.803   4.851 -0.0620  0.9328 -0.5122
  192SAPI  H14R22185   4.060   3.908   4.828  1.2614  1.1001 -1.1764
  192SAPI  C21522186   4.006   3.758   4.960  0.1991 -0.4203  1.1110
  192SAPI  H15R22187   3.921   3.822   4.990  1.4207  1.4328  0.8074
  192SAPI  C21622188   4.017   3.624   5.033  0.0026  0.6030 -0.4853
  192SAPI  H16R22189   4.079   3.550   4.980  1.4079  0.4466  1.2950
  192SAPI  H16S22190   3.917   3.577   5.022  0.1612  0.7162 -3.1176
  192SAPI  C21722191   4.078   3.635   5.175  0.7063  0.3827  0.7641
  192SAPI  H17R22192   4.001   3.699   5.223 -1.0840 -1.7457  0.9158
  192SAPI  H17S22193   4.178   3.681   5.161  0.7848 -0.4388 -2.2041
  192SAPI  C21822194   4.065   3.499   5.249 -0.1928 -0.4313  0.7934
  192SAPI  H18R22195   4.117   3.429   5.180 -0.3710  1.1204 -1.0059
  192SAPI  H18S22196   3.959   3.468   5.258 -0.0595 -0.5398  2.2121
  192SAPI  C21922197   4.120   3.504   5.396 -0.4489 -0.1100 -1.0955
  192SAPI  H19R22198   4.044   3.556   5.459  1.6231 -0.1853  1.6887
  192SAPI  H19S22199   4.220   3.552   5.409  1.7308 -4.3829 -0.0691
  192SAPI  C22022200   4.129   3.370   5.466 -0.3243 -0.0746 -0.3985
  192SAPI  H20R22201   4.202   3.305   5.414  2.2117  1.3263  1.2102
  192SAPI  H20S22202   4.022   3.339   5.457 -0.5696  0.5477  0.2651
  192SAPI  H20T22203   4.154   3.381   5.574  1.7289 -0.9632 -0.7362
  192SAPI   C3322204   4.487   4.191   4.332 -0.2659  1.1732  0.8645
  192SAPI   H3X22205   4.443   4.261   4.257  0.5740  0.9694  0.1737
  192SAPI   H3Y22206   4.590   4.231   4.326  0.1050 -0.0104 -3.2759
  192SAPI   C3422207   4.416   4.227   4.463 -0.1067  0.6287  0.1213
  192SAPI   H4X22208   4.311   4.191   4.459  0.5137 -1.1279 -3.0200
  192SAPI   H4Y22209   4.410   4.336   4.485 -0.5745  0.6860 -0.2867
  192SAPI   C3522210   4.489   4.169   4.581  0.3452  0.0747  0.2773
  192SAPI   H5X22211   4.584   4.225   4.596 -0.7986  1.8283  1.4179
  192SAPI   H5Y22212   4.517   4.062   4.576 -2.8686 -0.8029 -1.6692
  192SAPI   C3622213   4.415   4.183   4.711  0.3106 -0.3726  0.1957
  192SAPI   H6X22214   4.309   4.151   4.697  0.1484  1.1329 -2.6298
  192SAPI   H6Y22215   4.404   4.291   4.736 -1.3894 -0.6658  0.8973
  192SAPI   C3722216   4.489   4.113   4.825  0.1201 -0.6321  0.0014
  192SAPI   H7X22217   4.597   4.133   4.806 -0.3660  1.2782 -1.1402
  192SAPI   H7Y22218   4.484   4.003   4.810 -0.7415 -0.7798  1.2364
  192SAPI   C3822219   4.446   4.141   4.969  0.0365  0.9494 -0.0404
  192SAPI   H8X22220   4.438   4.252   4.977 -0.3877  1.0635 -1.7492
  192SAPI   H8Y22221   4.528   4.119   5.041  0.0408  2.9375  0.6361
  192SAPI   C3922222   4.321   4.066   5.008 -0.4253  0.3753 -0.4164
  192SAPI   H9X22223   4.322   3.955   5.007  0.6453  0.3265  1.5427
  192SAPI   H9Y22224   4.233   4.105   4.953 -1.1957 -0.8065 -0.0660
  192SAPI  C31022225   4.271   4.099   5.156 -0.5278  0.3146 -0.8712
  192SAPI  H10X22226   4.246   4.207   5.162 -1.5246  0.0005  1.9237
  192SAPI  H10Y22227   4.348   4.083   5.235 -3.5803  0.0329  2.2768
  192SAPI  C31122228   4.150   4.015   5.209  0.0909 -0.7255  0.1131
  192SAPI  H11X22229   4.179   3.908   5.217  1.1893 -0.3640  1.3707
  192SAPI  H11Y22230   4.071   4.032   5.133  2.0630 -0.5466 -2.0179
  192SAPI  C31222231   4.103   4.059   5.343  0.7364 -0.0785 -0.8980
  192SAPI  H12X22232   4.068   4.163   5.326  2.0965  0.3936 -0.9209
  192SAPI  H12Y22233   4.178   4.062   5.426  1.8107  0.2642 -1.8513
  192SAPI  C31322234   3.977   3.974   5.393 -0.5740 -0.7806  0.6281
  192SAPI  H13X22235   4.015   3.870   5.397 -1.3485 -1.1477 -0.8234
  192SAPI  H13Y22236   3.909   3.974   5.305  0.8640 -1.4457 -0.5362
  192SAPI  C31422237   3.914   4.024   5.516  0.1436  0.7442 -0.2381
  192SAPI  H14X22238   3.881   4.131   5.515 -4.9415 -0.5543  0.7709
  192SAPI  H14Y22239   3.989   4.019   5.598 -1.3908  0.3368  1.2003
  192SAPI  C31522240   3.794   3.938   5.563  0.4793 -0.6044  0.2055
  192SAPI  H15X22241   3.769   3.956   5.670 -1.3494 -0.1078 -0.2682
  192SAPI  H15Y22242   3.818   3.832   5.541 -0.7109 -0.6604 -0.9517
  192SAPI  C31622243   3.656   3.984   5.506  0.7569 -0.9111  0.5309
  192SAPI  H16X22244   3.664   3.984   5.396 -1.2651 -0.6128  0.3399
  192SAPI  H16Y22245   3.626   4.090   5.524  0.0232 -0.7733 -1.3206
  192SAPI  C31722246   3.538   3.900   5.547  0.6424  0.2308  0.3335
  192SAPI  H17X22247   3.540   3.873   5.654  0.7119  3.1936  1.1557
  192SAPI  H17Y22248   3.524   3.820   5.471  1.3825  0.9818 -0.6153
  192SAPI  C31822249   3.404   3.972   5.543  0.5131 -0.1680 -0.2120
  192SAPI  H18X22250   3.398   4.033   5.450  1.5641 -0.0604 -0.2195
  192SAPI  H18Y22251   3.406   4.050   5.622 -0.2302 -0.9543  0.6103
  192SAPI  H18Z22252   3.313   3.915   5.573 -0.8355  1.9832 -0.0252
  193SOD    SOD22253   5.604   6.732   8.175 -0.3054 -0.0742 -0.0894
  194SOD    SOD22254   1.695   2.075   2.082  0.0243 -0.2445  0.3313
  195SOD    SOD22255   5.815   2.159   0.668 -0.4301  0.3982 -0.0351
  196SOD    SOD22256   4.640   5.660   1.897 -0.3720  0.3294 -0.3018
  197SOD    SOD22257   4.335   2.708   8.103 -0.1640  0.5531 -0.1478
  198SOD    SOD22258   3.859   1.397   8.563  0.3550 -0.2852 -0.1987
  199SOD    SOD22259   3.009   1.093   2.496  0.4269  0.0232  0.1773
  200SOD    SOD22260   4.415   2.722   1.823 -0.0507  0.0574 -0.0993
  201SOD    SOD22261   0.346   3.898   0.914  0.2444  0.2628 -0.3696
  202SOD    SOD22262   5.952   0.992   1.570 -0.0101 -0.2118  0.1421
  203SOD    SOD22263   0.046   1.831   0.500 -0.1604  0.1946 -0.1618
  204SOD    SOD22264   0.483   5.467   0.846  0.4275 -0.0504 -0.0734
  205SOD    SOD22265   0.572   6.766   2.131 -0.2628  0.3252  0.3454
  206SOD    SOD22266   4.082   5.371   3.502  0.4176  0.0253  0.0022
  207SOD    SOD22267   4.249   4.760   8.363 -0.1383 -0.5301 -0.0775
  208SOD    SOD22268   1.894   2.736   0.599  0.2485  0.2666 -0.0405
  209SOD    SOD22269   0.687   3.851   7.221  0.3799  0.2489  0.3935
  210SOD    SOD22270   1.301   4.393   2.813 -0.2336  0.3027 -0.2998
  211SOD    SOD22271   4.047   1.299   3.008  0.2333  0.2842  0.0825
  212SOD    SOD22272   3.869   0.650   2.934  0.1913 -0.2686 -0.1867
  213SOD    SOD22273   2.015   2.564   0.914  0.2730  0.0093 -0.0511
  214SOD    SOD22274   0.866   0.226   7.999 -0.1368 -0.0348 -0.0082
  215SOD    SOD22275   5.848   1.909   7.476  0.1466 -0.1746 -0.0035
  216SOD    SOD22276   3.605   2.522   7.942 -0.4249  0.2730  0.0390
  217SOD    SOD22277   4.543   2.056   7.938 -0.1202 -0.0939  0.0941
  218SOD    SOD22278   0.744   1.431   7.824 -0.4064 -0.1409  0.1641
  219SOD    SOD22279   5.492   5.677   2.757  0.1831 -0.2061  0.2605
  220SOD    SOD22280   3.018   4.994   2.865 -0.4023  0.3655 -0.0084
  221SOD    SOD22281   6.048   1.813   1.508  0.1795  0.1136  0.3717
  222SOD    SOD22282   3.185   6.429   3.004  0.4091 -0.0710 -0.3974
  223SOD    SOD22283   3.136   0.628   8.063  0.0978 -0.0346  0.2457
  224SOD    SOD22284   6.864   0.229   7.690 -0.6632  0.0910 -0.0779
  225SOD    SOD22285   4.085   1.071   1.235  0.3657  0.6093  0.3826
  226SOD    SOD22286   3.928   2.215   2.784 -0.3305  0.4343 -0.1417
  227SOD    SOD22287   0.532   3.084   7.850 -0.6543 -0.0325 -0.5027
  228SOD    SOD22288   0.933   0.793   7.506  0.1873  0.2221  0.2539
  229SOD    SOD22289   1.397   2.775   2.473 -0.2886  0.1971  0.2205
  230SOD    SOD22290   2.141   6.173   2.433  0.2271 -0.7028  0.6122
  231SOD    SOD22291   5.321   4.387   7.905  0.3183 -0.0087  0.1784
  232SOD    SOD22292   6.530   1.281   2.181 -0.4660 -0.0547 -0.3755
  233SOD    SOD22293   6.379   6.542   2.787  0.3869 -0.5233 -0.0409
  234CLA    CLA22294   2.675   4.886   2.302 -0.0601 -0.2596  0.1846
  235CLA    CLA22295   3.178   6.740   2.648  0.0942 -0.4272 -0.4075
  236CLA    CLA22296   6.652   1.947   1.298 -0.3484  0.4443 -0.3628
  237CLA    CLA22297   5.761   4.897   2.327 -0.4285 -0.0579  0.1488
  238CLA    CLA22298   2.553   2.236   1.465 -0.3013 -0.3479 -0.3444
  239CLA    CLA22299   1.732   5.853   8.359  0.0624  0.0498  0.0143
  240CLA    CLA22300   3.052   3.048   1.574 -0.0278  0.0831 -0.4905
  241CLA    CLA22301   3.718   2.203   8.346  0.2302 -0.3295 -0.3455
  242CLA    CLA22302   3.528   0.895   2.609  0.5914 -0.4154 -0.1021
  243CLA    CLA22303   2.658   0.252   1.388 -0.2192  0.1821  0.0004
  244CLA    CLA22304   4.441   1.385   1.722 -0.1695  0.0380  0.3299
  245CLA    CLA22305   1.790   2.570   0.787  0.2496 -0.0212 -0.3263
  246CLA    CLA22306   5.482   0.384   1.391  0.0035 -0.0008 -0.2055
  247CLA    CLA22307   6.331   1.862   0.365 -0.1458  0.1698  0.2573
  248CLA    CLA22308   4.979   0.999   1.098 -0.1494 -0.3188 -0.1656
  249CLA    CLA22309   6.296   1.177   1.749 -0.3426  0.5291 -0.0182
  250CLA    CLA22310   0.584   6.592   0.425  0.4001  0.0327 -0.2277
  251TIP3   OH222311   5.788   5.752   2.085  0.1295  0.2148  0.6210
  251TIP3    H122312   5.843   5.814   2.037  0.4938 -0.4091  0.2334
  251TIP3    H222313   5.817   5.666   2.056 -1.8477 -0.1276 -0.5480
  252TIP3   OH222314   1.640   0.320   0.639 -0.0956 -0.3417 -0.4078
  252TIP3    H122315   1.618   0.388   0.575  2.1489  0.3639 -0.4875
  252TIP3    H222316   1.720   0.280   0.605 -0.3103 -1.7252  0.6459
  253TIP3   OH222317   2.286   0.881   1.581  0.5001  0.2749  0.3611
  253TIP3    H122318   2.368   0.840   1.609  0.2906 -1.0343 -0.7895
  253TIP3    H222319   2.265   0.838   1.498 -1.1095  0.9153  0.3907
  254TIP3   OH222320   5.296   4.696   1.236  0.4882  0.3126  0.0602
  254TIP3    H122321   5.208   4.721   1.208  1.2496  1.6871 -1.2764
  254TIP3    H222322   5.320   4.624   1.178  1.0197  1.3560 -1.0706
  255TIP3   OH222323   5.845   6.114   2.792 -0.9439  0.0524  0.4264
  255TIP3    H122324   5.771   6.055   2.780 -1.3854  0.3959  1.3689
  255TIP3    H222325   5.919   6.069   2.751 -0.6334 -2.4473  3.3873
  256TIP3   OH222326   4.922   3.489   2.021  0.1709  0.1055 -0.1428
  256TIP3    H122327   4.868   3.470   1.944  2.0258 -0.7049 -1.2861
  256TIP3    H222328   4.962   3.573   2.002  1.4541 -0.5777 -0.5829
  257TIP3   OH222329   0.331   0.275   1.869  0.0270 -0.0530  0.4547
  257TIP3    H122330   0.330   0.347   1.806  0.1386  0.2312  0.7726
  257TIP3    H222331   0.421   0.275   1.903  0.0297 -0.3490  0.4470
  258TIP3   OH222332   6.547   4.968   1.098  0.2996 -0.7915 -0.4692
  258TIP3    H122333   6.510   5.030   1.036 -0.5736 -0.5540  0.2688
  258TIP3    H222334   6.638   4.996   1.108 -0.2350  0.8043  0.3273
  259TIP3   OH222335   4.597   1.289   2.349 -0.0983  0.0891  0.1712
  259TIP3    H122336   4.543   1.222   2.307  0.5562 -1.0352  1.0551
  259TIP3    H222337   4.535   1.350   2.386 -0.7030  0.6603 -1.6669
  260TIP3   OH222338   6.787   0.708   0.272 -0.5747  0.7852  0.7826
  260TIP3    H122339   6.846   0.652   0.221  0.9258  2.8213  0.1656
  260TIP3    H222340   6.844   0.770   0.317 -2.0976  4.9556 -2.2952
  261TIP3   OH222341   4.058   4.777   8.226 -0.0225  0.1375 -0.2734
  261TIP3    H122342   3.981   4.726   8.251  0.0455  0.6917  1.1466
  261TIP3    H222343   4.026   4.867   8.216  0.1022  0.0701 -1.5217
  262TIP3   OH222344   3.850   3.286   7.890 -0.1192 -0.5467 -0.4985
  262TIP3    H122345   3.935   3.317   7.920 -0.4194  0.0990 -0.2928
  262TIP3    H222346   3.863   3.192   7.873  1.1017 -0.1037 -2.2290
  263TIP3   OH222347   5.881   6.047   8.470 -0.0194  0.0013  0.7227
  263TIP3    H122348   5.969   6.085   8.478 -0.3213  0.9673 -0.2734
  263TIP3    H222349   5.825   6.105   8.520 -0.2978  0.2084  0.1847
  264TIP3   OH222350   2.774   2.615   3.445 -0.1768  0.2126 -0.3592
  264TIP3    H122351   2.786   2.632   3.539  2.1489  1.2074 -0.7782
  264TIP3    H222352   2.807   2.693   3.402  2.1282 -1.5733 -2.0992
  265TIP3   OH222353   1.969   1.943   8.293  0.3630 -0.1236  0.3119
  265TIP3    H122354   2.049   1.929   8.242  2.2846 -0.6988  3.2796
  265TIP3    H222355   1.972   2.035   8.318 -0.7918  0.2628 -0.8799
  266TIP3   OH222356   5.170   1.522   0.235 -0.0203 -0.3757 -0.2462
  266TIP3    H122357   5.153   1.544   0.144 -2.8165  1.2898  0.5320
  266TIP3    H222358   5.089   1.478   0.264 -0.5862  2.0119  2.1770
  267TIP3   OH222359   4.376   0.710   3.371 -0.2055 -0.1270 -0.1429
  267TIP3    H122360   4.354   0.635   3.315  1.1292 -1.3233  0.8617
  267TIP3    H222361   4.379   0.784   3.311 -0.0856 -1.1458 -1.4532
  268TIP3   OH222362   1.850   2.716   1.510  0.1731  0.1322 -0.0665
  268TIP3    H122363   1.776   2.722   1.449 -1.0968 -0.4226  1.3691
  268TIP3    H222364   1.887   2.804   1.512  0.2041  0.1806 -1.5489
  269TIP3   OH222365   1.814   4.296   7.530  0.2771 -0.2433  0.3251
  269TIP3    H122366   1.845   4.326   7.445 -0.1785 -1.0271 -0.1377
  269TIP3    H222367   1.893   4.279   7.581  0.5586 -0.0501 -0.0477
  270TIP3   OH222368   5.427   5.374   8.278 -0.5575 -0.4581  0.1633
  270TIP3    H122369   5.360   5.320   8.238 -1.1380 -0.6808  1.3991
  270TIP3    H222370   5.379   5.445   8.321 -0.1120 -1.1444  1.8846
  271TIP3   OH222371   0.481   6.143   1.133  0.5276  0.1490  0.8153
  271TIP3    H122372   0.514   6.214   1.078  0.3802  0.6491  1.3630
  271TIP3    H222373   0.391   6.170   1.155 -0.0748 -0.9244 -0.1969
  272TIP3   OH222374   2.193   6.712   3.432 -0.2240  0.5592 -0.8242
  272TIP3    H122375   2.270   6.741   3.480 -0.2751 -0.2179 -0.2500
  272TIP3    H222376   2.168   6.787   3.379  1.1559  0.6905 -1.3258
  273TIP3   OH222377   3.461   4.914   1.589  0.4117  0.3801 -0.0818
  273TIP3    H122378   3.501   4.875   1.512  0.7825 -1.4420  0.9603
  273TIP3    H222379   3.376   4.869   1.597 -0.1193  1.3649 -0.0592
  274TIP3   OH222380   1.855   5.552   0.291  0.0259 -0.3776  0.0301
  274TIP3    H122381   1.834   5.545   0.198  0.1230 -0.0347 -0.0212
  274TIP3    H222382   1.820   5.638   0.317 -0.5506 -0.7361  0.4563
  275TIP3   OH222383   2.052   3.742   2.208 -0.5056  0.3692 -0.0637
  275TIP3    H122384   1.969   3.752   2.162 -1.9696 -0.2947  2.2852
  275TIP3    H222385   2.093   3.829   2.203 -0.2371  0.2017 -3.0287
  276TIP3   OH222386   4.705   4.002   2.500  0.8576 -0.2217 -0.1341
  276TIP3    H122387   4.754   3.921   2.490  0.0995 -0.6739 -0.2904
  276TIP3    H222388   4.626   3.977   2.548 -0.7220 -0.1617 -2.4780
  277TIP3   OH222389   4.222   0.780   7.609  0.7443  0.2673 -0.0559
  277TIP3    H122390   4.180   0.853   7.654 -0.7440  0.3955 -1.5552
  277TIP3    H222391   4.150   0.722   7.584  1.5269 -0.0381 -1.7892
  278TIP3   OH222392   6.335   0.751   0.762 -0.2334 -0.1746  0.5468
  278TIP3    H122393   6.428   0.733   0.774 -0.2397 -1.1888 -0.7112
  278TIP3    H222394   6.290   0.673   0.795 -0.4375 -1.1348 -1.8177
  279TIP3   OH222395   1.098   3.464   7.297 -0.2280  0.2218 -0.3183
  279TIP3    H122396   1.055   3.463   7.212  1.2604  0.0559 -1.1024
  279TIP3    H222397   1.106   3.372   7.321 -1.6530  0.2936  0.5729
  280TIP3   OH222398   3.364   6.673   0.562  0.0161  0.3328 -0.0628
  280TIP3    H122399   3.327   6.586   0.545  1.4773 -0.2820 -0.2882
  280TIP3    H222400   3.420   6.660   0.639 -0.0315  1.1685  0.1193
  281TIP3   OH222401   4.855   2.042   2.599 -0.2223 -0.6098 -0.6765
  281TIP3    H122402   4.837   2.129   2.635  1.5419  0.4194 -2.0852
  281TIP3    H222403   4.776   2.019   2.550 -1.0529 -0.2324  0.4325
  282TIP3   OH222404   2.376   0.046   2.717 -0.3841  0.2885 -0.0228
  282TIP3    H122405   2.457   0.025   2.764  0.4286 -0.5101 -1.6799
  282TIP3    H222406   2.389   0.136   2.687  0.0793  0.0299 -0.6181
  283TIP3   OH222407   2.593   5.758   2.074  0.2083  0.0805 -0.0019
  283TIP3    H122408   2.684   5.752   2.043 -0.1217 -0.5028 -0.8996
  283TIP3    H222409   2.557   5.835   2.030  0.0963 -0.0328 -0.1091
  284TIP3   OH222410   4.987   1.848   1.541  0.2914 -0.1637 -0.2706
  284TIP3    H122411   5.019   1.825   1.628 -0.2629 -0.7226 -0.2077
  284TIP3    H222412   5.012   1.773   1.486  1.5593  0.6377 -0.8271
  285TIP3   OH222413   5.545   2.739   3.243 -0.6136  0.4511 -0.3980
  285TIP3    H122414   5.529   2.699   3.157  0.5529 -0.1520 -0.3443
  285TIP3    H222415   5.640   2.740   3.252 -0.7164  0.7482  0.7920
  286TIP3   OH222416   3.078   1.827   0.115 -0.2123  0.0059  1.0322
  286TIP3    H122417   3.078   1.734   0.093  2.0369  0.0277  0.7745
  286TIP3    H222418   3.144   1.836   0.184  2.7796  1.9286 -1.7983
  287TIP3   OH222419   1.447   0.077   8.307  0.2911 -0.1973  0.4562
  287TIP3    H122420   1.440  -0.006   8.261 -0.9177  0.2873 -0.2762
  287TIP3    H222421   1.428   0.143   8.241  1.4787  0.6881  0.9696
  288TIP3   OH222422   3.111   4.579   8.036  0.0348  0.3695 -0.4900
  288TIP3    H122423   3.140   4.515   8.101  0.4031  1.3900  0.3851
  288TIP3    H222424   3.058   4.641   8.087  1.2282  1.7963 -0.9404
  289TIP3   OH222425   5.755   1.852   2.093 -0.1750 -0.1938 -0.0156
  289TIP3    H122426   5.827   1.878   2.035  1.1621 -1.8991  0.7655
  289TIP3    H222427   5.763   1.911   2.168  0.7139 -0.6114  0.2438
  290TIP3   OH222428   6.450   2.218   2.158 -0.4874 -0.7020 -0.0172
  290TIP3    H122429   6.367   2.170   2.159 -1.6645  1.2297 -0.4670
  290TIP3    H222430   6.446   2.270   2.077 -0.3271  1.8534  1.5197
  291TIP3   OH222431   0.078   5.566   1.596 -0.1379  0.2738  0.3196
  291TIP3    H122432   0.093   5.482   1.552  0.9292  0.8908 -0.5499
  291TIP3    H222433   0.079   5.545   1.689 -0.3529 -0.7449  0.1042
  292TIP3   OH222434   0.581   4.288   0.709  0.3406 -0.3945 -0.1409
  292TIP3    H122435   0.544   4.268   0.624  0.6757 -1.1969 -0.1066
  292TIP3    H222436   0.676   4.285   0.696  0.4201  0.9622 -0.0742
  293TIP3   OH222437   1.614   4.665   1.042 -0.1921 -0.4138 -0.0937
  293TIP3    H122438   1.648   4.577   1.028  3.7109  0.7335  0.8715
  293TIP3    H222439   1.651   4.717   0.971 -1.3584  0.7236  0.0890
  294TIP3   OH222440   1.983   0.762   0.604  0.1320 -0.4661 -0.3612
  294TIP3    H122441   1.943   0.813   0.674 -0.6271 -1.1789 -0.2587
  294TIP3    H222442   1.982   0.672   0.636  2.0769 -0.5020 -0.2472
  295TIP3   OH222443   5.660   5.390   1.005 -0.0089  0.0090 -0.2484
  295TIP3    H122444   5.706   5.367   0.925 -0.1619 -0.2454 -0.2661
  295TIP3    H222445   5.569   5.363   0.989 -0.0486 -0.0092 -0.0057
  296TIP3   OH222446   5.260   5.824   2.158 -0.4524  0.1307  0.4725
  296TIP3    H122447   5.214   5.765   2.098 -0.5783 -1.0202  1.6530
  296TIP3    H222448   5.313   5.766   2.213  0.5927  1.2485  0.6992
  297TIP3   OH222449   1.909   5.701   7.673  0.2449  0.0052  0.4769
  297TIP3    H122450   1.853   5.761   7.721  0.2333  0.0271  0.4354
  297TIP3    H222451   1.854   5.665   7.604  0.5898  0.8661 -0.2661
  298TIP3   OH222452   2.522   6.396   0.731 -0.1610  0.4907 -0.2977
  298TIP3    H122453   2.556   6.450   0.659  1.0566  0.8295  0.4972
  298TIP3    H222454   2.473   6.326   0.687  0.7644  0.5522 -1.4778
  299TIP3   OH222455   5.456   1.469   1.914 -0.0013  0.4052  0.4878
  299TIP3    H122456   5.422   1.400   1.971  0.0521 -0.2862 -0.3096
  299TIP3    H222457   5.519   1.516   1.969  0.2181 -0.3884  0.9358
  300TIP3   OH222458   2.357   6.097   3.135 -0.3914  0.6315 -0.2306
  300TIP3    H122459   2.273   6.073   3.174 -0.7550  0.4265 -1.1133
  300TIP3    H222460   2.355   6.193   3.132 -0.1451  0.6755  0.6916
  301TIP3   OH222461   0.958   6.034   7.505 -0.0189  0.6195  0.5608
  301TIP3    H122462   1.030   6.021   7.566  0.7656 -0.0335 -0.4623
  301TIP3    H222463   0.987   6.105   7.448 -0.4257  0.7345  0.4939
  302TIP3   OH222464   5.805   2.211   1.513  0.0329  0.3204  0.0440
  302TIP3    H122465   5.739   2.160   1.467  0.6939 -0.4369 -0.0807
  302TIP3    H222466   5.755   2.264   1.576 -0.5405 -2.0139  1.6783
  303TIP3   OH222467   4.806   5.426   7.668 -0.0817 -0.0607 -0.3700
  303TIP3    H122468   4.821   5.332   7.657  1.2276  0.0942 -0.1453
  303TIP3    H222469   4.737   5.447   7.605  0.5381 -0.9385 -1.3856
  304TIP3   OH222470   5.447   3.589   0.547  0.1623  0.6909 -0.1577
  304TIP3    H122471   5.365   3.614   0.505  0.8922  0.5811 -1.7275
  304TIP3    H222472   5.423   3.516   0.605 -0.7187  0.0664 -1.2631
  305TIP3   OH222473   5.317   6.406   7.916 -0.1278 -0.8094  0.4618
  305TIP3    H122474   5.289   6.384   8.005  1.0668 -1.5475  0.6806
  305TIP3    H222475   5.275   6.490   7.897 -0.7332 -0.8489  1.5552
  306TIP3   OH222476   3.930   4.121   3.582  0.0823 -0.3510 -0.2496
  306TIP3    H122477   3.904   4.212   3.591 -0.2656 -0.2287 -2.0270
  306TIP3    H222478   4.002   4.109   3.644  0.7541  1.3912 -0.6378
  307TIP3   OH222479   3.744   2.815   7.660  0.3010  0.7196 -0.2558
  307TIP3    H122480   3.832   2.828   7.625 -0.1443  0.7201 -1.4236
  307TIP3    H222481   3.698   2.765   7.592 -0.6220  0.7793  0.3027
  308TIP3   OH222482   0.330   3.547   8.185  0.0549 -0.0747 -0.0157
  308TIP3    H122483   0.363   3.527   8.098 -0.1020  3.0248 -0.8857
  308TIP3    H222484   0.407   3.541   8.242  0.0961 -2.4548 -0.2040
  309TIP3   OH222485   4.583   4.144   3.075  0.0187  0.1960  0.3551
  309TIP3    H122486   4.509   4.182   3.028  0.5041  1.0149  0.2356
  309TIP3    H222487   4.543   4.098   3.149 -0.6115  0.6006  0.2762
  310TIP3   OH222488   0.116   6.452   1.900  0.2505  0.2557  0.0615
  310TIP3    H122489   0.193   6.470   1.846  0.3726 -1.4769 -0.3959
  310TIP3    H222490   0.133   6.366   1.939 -0.3399  0.9483  2.0034
  311TIP3   OH222491   1.050   0.626   7.936 -0.2023 -0.4137  0.1312
  311TIP3    H122492   1.101   0.690   7.986  1.3228 -1.2428 -0.3001
  311TIP3    H222493   1.102   0.610   7.857 -2.2597  0.4238 -1.4971
  312TIP3   OH222494   2.816   6.438   0.238 -0.5125  0.1025  0.1283
  312TIP3    H122495   2.828   6.432   0.144  0.1760  3.6048 -0.1563
  312TIP3    H222496   2.724   6.417   0.253 -0.7883  0.1157 -1.4125
  313TIP3   OH222497   3.139   1.148   7.863 -0.4259  0.0967 -0.5694
  313TIP3    H122498   3.128   1.219   7.800  1.9689  0.8901 -0.1925
  313TIP3    H222499   3.228   1.115   7.847 -0.0094 -0.1477  1.8659
  314TIP3   OH222500   2.143   3.845   1.057  0.0372 -0.6236 -0.3519
  314TIP3    H122501   2.188   3.860   1.140 -0.8500  1.2535 -0.1541
  314TIP3    H222502   2.050   3.854   1.078 -0.2254 -0.5641 -1.4462
  315TIP3   OH222503   6.131   1.050   7.698  0.3095  0.0269 -0.0988
  315TIP3    H122504   6.145   1.099   7.780 -2.1382 -1.4463  1.3347
  315TIP3    H222505   6.056   1.093   7.658 -0.0270 -0.7479 -0.3070
  316TIP3   OH222506   6.357   6.102   7.949 -0.0425  0.8339  0.1594
  316TIP3    H122507   6.322   6.182   7.911  0.8371  1.0196 -0.2681
  316TIP3    H222508   6.357   6.039   7.877  1.6515  1.1934 -0.1911
  317TIP3   OH222509   0.161   4.797   1.645 -0.1309 -0.9031 -0.1140
  317TIP3    H122510   0.128   4.756   1.564  0.6409 -0.0601 -0.8770
  317TIP3    H222511   0.255   4.779   1.644 -0.1622 -1.1287  0.7541
  318TIP3   OH222512   1.962   2.891   0.762 -0.5304 -0.0756 -0.3645
  318TIP3    H122513   1.925   2.920   0.846 -0.7862  0.4320 -0.6469
  318TIP3    H222514   1.953   2.967   0.705  1.1848  0.1676 -0.3773
  319TIP3   OH222515   4.899   1.031   0.169  0.0647  0.0509 -0.4601
  319TIP3    H122516   4.847   1.101   0.209  0.7545  0.8012 -0.8305
  319TIP3    H222517   4.956   1.001   0.240 -1.1789 -1.1066  0.0789
  320TIP3   OH222518   1.817   4.566   1.789 -0.5944  0.0468  0.1707
  320TIP3    H122519   1.889   4.615   1.829 -0.2644  1.0813 -1.5812
  320TIP3    H222520   1.858   4.512   1.722 -1.2257 -1.0104  0.6115
  321TIP3   OH222521   1.559   2.875   3.462 -0.3927 -0.0813  0.1351
  321TIP3    H122522   1.613   2.861   3.540  0.7938 -0.6750 -0.7650
  321TIP3    H222523   1.553   2.970   3.454  0.6906  0.0063  0.1560
  322TIP3   OH222524   4.056   0.838   3.328  0.7993 -0.5459  1.1138
  322TIP3    H122525   4.126   0.887   3.286 -1.2119  1.8276  0.2969
  322TIP3    H222526   4.020   0.782   3.258  0.4621 -0.0897  0.9176
  323TIP3   OH222527   2.586   0.561   2.442 -0.0281  0.5614 -0.6142
  323TIP3    H122528   2.645   0.610   2.384  0.7784  0.9230  0.4872
  323TIP3    H222529   2.519   0.526   2.383  0.5055  1.3044 -1.7027
  324TIP3   OH222530   1.803   2.800   2.415 -0.6522  0.1063  0.1711
  324TIP3    H122531   1.730   2.827   2.470  1.0555  0.0953  2.5837
  324TIP3    H222532   1.864   2.757   2.475  0.5115 -1.6092 -2.0774
  325TIP3   OH222533   5.598   2.221   2.452  0.7977 -0.2826 -0.0838
  325TIP3    H122534   5.547   2.183   2.523 -1.0822 -0.5742 -1.5215
  325TIP3    H222535   5.687   2.228   2.487 -0.0309 -0.5524  2.2139
  326TIP3   OH222536   3.822   4.475   7.553 -0.1410  0.1348  0.0351
  326TIP3    H122537   3.893   4.451   7.494 -0.2487  0.0799 -0.0744
  326TIP3    H222538   3.861   4.472   7.640  0.1097  0.5642 -0.0630
  327TIP3   OH222539   6.545   5.637   7.848 -0.1999 -0.4828  0.0802
  327TIP3    H122540   6.552   5.560   7.904 -0.9744 -1.0697 -0.6059
  327TIP3    H222541   6.497   5.606   7.771 -1.8943  1.0383  0.4565
  328TIP3   OH222542   2.519   3.898   8.418  0.0506 -0.2764  0.0089
  328TIP3    H122543   2.592   3.864   8.366 -0.8208 -1.7393 -0.3233
  328TIP3    H222544   2.547   3.986   8.444  2.4775 -1.2287  0.9728
  329TIP3   OH222545   1.999   0.705   0.314 -0.5148 -0.1357  0.1921
  329TIP3    H122546   1.991   0.800   0.327  3.0205  0.5058 -1.1596
  329TIP3    H222547   2.040   0.674   0.395  0.4792 -0.0827 -0.2836
  330TIP3   OH222548   6.164   2.568   2.009 -0.0181  0.6186 -0.1904
  330TIP3    H122549   6.179   2.584   2.102  0.4594 -1.9201  0.2210
  330TIP3    H222550   6.069   2.559   2.002 -0.1743  1.9665 -0.2094
  331TIP3   OH222551   3.297   6.226   0.689  0.2310 -0.1458 -0.3901
  331TIP3    H122552   3.229   6.161   0.709 -2.3213  2.9893  2.1576
  331TIP3    H222553   3.360   6.217   0.760  0.5743 -0.6176 -0.7444
  332TIP3   OH222554   5.340   0.283   7.138 -0.3730  0.2398  0.1817
  332TIP3    H122555   5.338   0.375   7.167 -0.0686 -0.4777  2.7075
  332TIP3    H222556   5.391   0.285   7.057 -0.5688  2.3150  0.0518
  333TIP3   OH222557   2.502   2.616   3.717  0.1916  0.1839 -0.1703
  333TIP3    H122558   2.520   2.707   3.742  1.7814  0.0822 -0.8470
  333TIP3    H222559   2.588   2.574   3.719 -0.5613 -1.3890  0.4104
  334TIP3   OH222560   3.542   6.515   2.747 -0.2766  0.1164  0.1241
  334TIP3    H122561   3.594   6.495   2.825  0.6325  2.7926  0.3066
  334TIP3    H222562   3.602   6.498   2.674 -0.4369 -0.3893  0.1035
  335TIP3   OH222563   4.903   1.870   2.824 -0.4470  0.5802  0.4421
  335TIP3    H122564   4.980   1.920   2.851  0.2665  0.3796 -1.0962
  335TIP3    H222565   4.882   1.903   2.737 -1.3903 -0.1859  0.3554
  336TIP3   OH222566   4.180   2.377   2.541  0.2273 -0.1327 -0.0937
  336TIP3    H122567   4.197   2.452   2.484 -2.4369  1.1851  0.6894
  336TIP3    H222568   4.236   2.390   2.617 -1.0215  1.7903  0.5730
  337TIP3   OH222569   2.110   1.958   1.884 -0.1403  0.1586 -0.2238
  337TIP3    H122570   2.047   1.892   1.857 -1.6469  1.8381 -1.0289
  337TIP3    H222571   2.145   1.925   1.967 -2.0759 -0.8457  0.2510
  338TIP3   OH222572   3.392   4.570   7.869  0.0256  0.4697 -0.5857
  338TIP3    H122573   3.332   4.509   7.826 -0.3605  1.0702 -0.9172
  338TIP3    H222574   3.465   4.579   7.807  0.2091  0.1378 -0.4166
  339TIP3   OH222575   2.735   3.485   0.467  0.1766  0.3953  0.4890
  339TIP3    H122576   2.780   3.483   0.552 -2.4579 -1.6625  1.9949
  339TIP3    H222577   2.804   3.504   0.404  2.9800 -1.5742  2.7170
  340TIP3   OH222578   5.963   2.361   8.047 -0.4719  0.1170  0.0945
  340TIP3    H122579   5.889   2.330   8.099 -1.4430  1.5231 -0.3742
  340TIP3    H222580   6.035   2.302   8.068 -1.2371 -0.2045  1.9267
  341TIP3   OH222581   6.781   6.677   0.616  0.0308  0.4834 -0.1060
  341TIP3    H122582   6.781   6.741   0.688 -0.4155 -0.5275  0.8064
  341TIP3    H222583   6.725   6.717   0.549  0.4455  1.4351  0.0889
  342TIP3   OH222584   2.042   5.477   1.939 -0.0050  0.1066 -0.0679
  342TIP3    H122585   2.048   5.387   1.907  0.6913  0.1508 -0.0840
  342TIP3    H222586   1.948   5.494   1.948 -0.2671  0.1434 -2.2672
  343TIP3   OH222587   2.781   4.144   1.832  0.1013 -0.2248 -0.0720
  343TIP3    H122588   2.705   4.199   1.812  0.3408  0.3637  0.5730
  343TIP3    H222589   2.809   4.109   1.748  0.0333  0.7781 -0.5253
  344TIP3   OH222590   4.343   6.106   2.166 -0.0916 -0.3240  0.8452
  344TIP3    H122591   4.420   6.094   2.222  0.7529  0.3735 -0.1279
  344TIP3    H222592   4.318   6.198   2.179 -1.0993 -0.6909  1.5643
  345TIP3   OH222593   5.057   4.180   1.724 -0.5339 -0.0400  0.4166
  345TIP3    H122594   5.092   4.184   1.635 -0.9782  2.0478  0.2894
  345TIP3    H222595   4.975   4.131   1.715 -1.7567  2.0899 -0.7938
  346TIP3   OH222596   1.748   0.402   7.857  0.5947  0.1606 -0.0036
  346TIP3    H122597   1.664   0.371   7.892 -0.1350  2.4354  0.4058
  346TIP3    H222598   1.763   0.346   7.780 -0.7489 -0.9919  0.5169
  347TIP3   OH222599   3.268   6.414   8.026  0.3513 -0.0531  0.5230
  347TIP3    H122600   3.268   6.349   8.096 -1.7580 -0.1331  0.5185
  347TIP3    H222601   3.321   6.486   8.059  0.6473 -0.7294  1.5538
  348TIP3   OH222602   1.524   4.288   7.272  0.0286  0.1651 -0.2722
  348TIP3    H122603   1.462   4.358   7.297  0.3688  0.4793 -0.2953
  348TIP3    H222604   1.579   4.328   7.205  0.9567  0.2566  0.5092
  349TIP3   OH222605   4.674   0.011   1.504 -0.4687  0.1341  0.0192
  349TIP3    H122606   4.656   0.016   1.598 -0.2900 -1.8223  0.1976
  349TIP3    H222607   4.598  -0.034   1.467 -0.7148  1.2129 -0.8757
  350TIP3   OH222608   5.649   5.608   8.030  0.0172 -0.0564  0.4702
  350TIP3    H122609   5.561   5.605   8.067 -1.1514 -0.4496 -2.1239
  350TIP3    H222610   5.645   5.551   7.953  1.9023  1.6378 -0.9999
  351TIP3   OH222611   4.680   3.276   0.852  0.2300  0.1984 -0.5652
  351TIP3    H122612   4.662   3.189   0.888 -0.4406 -0.6256 -2.7372
  351TIP3    H222613   4.665   3.336   0.925  0.5836 -1.4820  0.9496
  352TIP3   OH222614   6.154   5.478   2.054  0.1785 -0.2927 -0.2296
  352TIP3    H122615   6.121   5.397   2.014 -0.2931 -0.6618  0.8529
  352TIP3    H222616   6.248   5.463   2.065 -0.0907 -1.2126  1.0613
  353TIP3   OH222617   0.203   4.152   0.591 -0.1192  0.7400 -0.2355
  353TIP3    H122618   0.283   4.185   0.549  0.4400 -1.5821 -1.1820
  353TIP3    H222619   0.223   4.153   0.685  0.3915  1.6571 -0.3368
  354TIP3   OH222620   6.234   1.689   0.036  0.3127 -0.1390 -0.3634
  354TIP3    H122621   6.270   1.727   0.116 -0.0637  2.8765 -1.4886
  354TIP3    H222622   6.206   1.601   0.062  1.6323  0.1342  2.3816
  355TIP3   OH222623   1.352   2.718   1.909  0.5059 -0.2403  0.3619
  355TIP3    H122624   1.301   2.680   1.839  0.4121  0.0802  0.2523
  355TIP3    H222625   1.363   2.647   1.973 -0.0148 -0.3313  0.3554
  356TIP3   OH222626   1.789   2.188   1.345 -0.4050 -0.2324 -0.0433
  356TIP3    H122627   1.830   2.192   1.259 -0.3240 -1.7472 -0.1033
  356TIP3    H222628   1.728   2.114   1.340 -1.3714  0.4664  0.8027
  357TIP3   OH222629   0.558   3.128   0.688  0.2504 -0.3784  0.4179
  357TIP3    H122630   0.579   3.089   0.603  1.2584 -0.4755  0.7038
  357TIP3    H222631   0.476   3.174   0.672  0.8422  0.3110 -0.8346
  358TIP3   OH222632   1.560   1.866   2.834  0.3364  0.1960 -0.0518
  358TIP3    H122633   1.475   1.877   2.790  0.3504 -1.0206 -0.4030
  358TIP3    H222634   1.614   1.821   2.769  0.9541  0.0986  0.5294
  359TIP3   OH222635   2.881   4.643   0.827  0.0931  0.5005  0.2013
  359TIP3    H122636   2.933   4.580   0.777  0.8949  2.1452 -1.1538
  359TIP3    H222637   2.791   4.626   0.799  0.4294  0.7320 -1.0915
  360TIP3   OH222638   1.404   6.371   2.033  0.6203 -0.2901 -0.0282
  360TIP3    H122639   1.451   6.299   1.991  2.0175  0.1602  0.6896
  360TIP3    H222640   1.447   6.450   1.998  0.1448  0.1450  0.3580
  361TIP3   OH222641   0.370   3.866   0.471 -0.6988 -0.0455 -0.1622
  361TIP3    H122642   0.447   3.913   0.439 -0.3485 -1.3155 -1.2690
  361TIP3    H222643   0.319   3.932   0.519  0.3398  1.1544 -0.6762
  362TIP3   OH222644   2.541   1.739   8.454 -0.3178 -0.0437 -0.0456
  362TIP3    H122645   2.554   1.820   8.504  0.8602 -0.2552  0.0291
  362TIP3    H222646   2.608   1.679   8.488  1.0688  0.0470 -2.3495
  363TIP3   OH222647   5.131   6.892   2.049  0.0958  0.1825 -0.3169
  363TIP3    H122648   5.160   6.983   2.036  0.8937  0.6309  3.3722
  363TIP3    H222649   5.176   6.843   1.981  2.7516  2.0947 -0.1122
  364TIP3   OH222650   1.682   2.131   2.988 -0.6253  0.1642  0.1862
  364TIP3    H122651   1.634   2.214   2.994 -1.8847 -0.4253 -1.1283
  364TIP3    H222652   1.657   2.095   2.903  1.5647 -0.5772 -0.2050
  365TIP3   OH222653   5.199   3.321   1.470 -0.0342  0.1507 -0.7109
  365TIP3    H122654   5.280   3.309   1.521 -1.5179 -0.7454  1.6011
  365TIP3    H222655   5.201   3.250   1.405  1.5361  0.8332 -1.4576
  366TIP3   OH222656   1.820   5.683   8.114 -0.0700 -0.5201 -0.2080
  366TIP3    H122657   1.792   5.731   8.036  1.1059 -0.9495 -0.9111
  366TIP3    H222658   1.804   5.744   8.186  0.1624  0.4339 -0.9385
  367TIP3   OH222659   3.901   3.885   0.921 -0.9887  0.1107  0.3680
  367TIP3    H122660   3.910   3.789   0.922 -0.3758  0.1552 -0.0220
  367TIP3    H222661   3.837   3.904   0.989 -0.6084 -0.5265  0.9203
  368TIP3   OH222662   5.538   0.589   1.754 -0.4404 -0.2048  0.2931
  368TIP3    H122663   5.622   0.615   1.792 -0.7098  0.7136  0.2789
  368TIP3    H222664   5.539   0.493   1.756  0.7685 -0.2098 -0.0616
  369TIP3   OH222665   5.104   5.626   2.050  0.3396  0.2719  0.2771
  369TIP3    H122666   5.030   5.641   2.109 -0.8589  0.7509 -1.2741
  369TIP3    H222667   5.076   5.554   1.994  1.6335 -0.4737  0.5547
  370TIP3   OH222668   5.324   3.219   2.432 -0.5523 -0.2554  0.6581
  370TIP3    H122669   5.393   3.235   2.368  0.0985  0.0372  1.4083
  370TIP3    H222670   5.273   3.300   2.433  0.2290  0.2417  1.4432
  371TIP3   OH222671   4.572   4.182   1.088  0.0558  0.4410  0.7563
  371TIP3    H122672   4.532   4.252   1.036  0.8719  1.4204  1.3946
  371TIP3    H222673   4.502   4.150   1.144 -1.2418 -1.6013 -1.8127
  372TIP3   OH222674   4.081   0.591   8.046  0.3174  0.4550  0.1386
  372TIP3    H122675   4.082   0.539   7.965  1.4268 -0.0546  0.4552
  372TIP3    H222676   4.111   0.678   8.019 -0.5538  0.6534 -0.2146
  373TIP3   OH222677   5.466   1.529   1.175  0.3791  0.7009 -0.1473
  373TIP3    H122678   5.496   1.585   1.246 -0.2976 -0.1828  0.8759
  373TIP3    H222679   5.384   1.491   1.208  0.2567 -0.0284 -1.2441
  374TIP3   OH222680   4.793   6.327   0.142  0.3858 -0.3052  0.6338
  374TIP3    H122681   4.843   6.384   0.200  0.6920 -1.9998  2.1135
  374TIP3    H222682   4.858   6.264   0.109 -0.1840 -0.5991  0.0559
  375TIP3   OH222683   0.965   4.728   7.068  0.1272  0.5326 -0.1127
  375TIP3    H122684   1.001   4.807   7.108 -2.2290 -0.8071  5.5541
  375TIP3    H222685   0.875   4.751   7.046 -1.1979 -0.7331  3.3158
  376TIP3   OH222686   2.882   1.996   2.381  0.6736  0.1852 -0.2790
  376TIP3    H122687   2.957   2.036   2.425 -0.4853 -0.0172  2.0747
  376TIP3    H222688   2.817   2.066   2.375  0.5172 -0.0084 -0.9811
  377TIP3   OH222689   5.338   2.423   8.346 -0.5150  0.3256 -0.6306
  377TIP3    H122690   5.302   2.421   8.435 -0.0665  0.6753 -0.4375
  377TIP3    H222691   5.429   2.397   8.356 -0.1819  1.3559 -0.8433
  378TIP3   OH222692   2.323   6.365   3.071 -0.4617  0.5914  0.0883
  378TIP3    H122693   2.354   6.440   3.122 -1.7184  1.1048  0.1197
  378TIP3    H222694   2.228   6.375   3.068 -0.6219 -0.8413 -0.1717
  379TIP3   OH222695   5.596   4.250   0.781 -0.4390 -0.1018  0.2278
  379TIP3    H122696   5.681   4.223   0.816 -0.7512  0.8026  1.8052
  379TIP3    H222697   5.553   4.168   0.756  0.6561 -0.6090 -0.0366
  380TIP3   OH222698   6.214   4.561   3.102 -0.1592  0.2018  0.3780
  380TIP3    H122699   6.247   4.576   3.191 -1.3141  2.3374  0.5313
  380TIP3    H222700   6.285   4.589   3.045 -0.4738  1.7379  0.6879
  381TIP3   OH222701   2.750   1.066   8.154 -0.2381  0.4638  0.3749
  381TIP3    H122702   2.737   1.098   8.243 -1.3768 -0.4504  0.5664
  381TIP3    H222703   2.679   1.002   8.141  0.3370  0.0562 -0.9309
  382TIP3   OH222704   2.272   1.463   8.118  0.4258 -0.2990 -0.1169
  382TIP3    H122705   2.288   1.499   8.205  1.4833 -0.6341 -0.1615
  382TIP3    H222706   2.258   1.540   8.063  0.2407 -0.0645  0.2533
  383TIP3   OH222707   3.536   4.091   2.245 -0.4504 -0.0872  0.1981
  383TIP3    H122708   3.497   4.024   2.189 -1.8182  0.2198  0.7646
  383TIP3    H222709   3.621   4.054   2.270 -1.4421 -1.9466  1.0393
  384TIP3   OH222710   1.311   2.321   3.221  0.1410  0.3392  0.5123
  384TIP3    H122711   1.248   2.344   3.289 -0.4908  0.7595 -0.2111
  384TIP3    H222712   1.263   2.328   3.139  0.0247 -2.9641  0.1469
  385TIP3   OH222713   6.462   0.752   2.122 -0.3643 -0.2817  0.4048
  385TIP3    H122714   6.480   0.666   2.083  0.4321  0.2312 -0.4114
  385TIP3    H222715   6.405   0.795   2.058 -0.2297  0.0327  0.4954
  386TIP3   OH222716   0.595   3.346   1.449  0.2079  0.3196  0.6325
  386TIP3    H122717   0.499   3.351   1.449  0.2531  1.6663  0.5892
  386TIP3    H222718   0.615   3.261   1.488 -0.9975  0.1517  0.9223
  387TIP3   OH222719   6.870   3.950   1.083  0.5069  0.0554  0.1813
  387TIP3    H122720   6.850   3.891   1.156 -1.8008  0.4459 -0.0568
  387TIP3    H222721   6.829   4.032   1.107  1.3441  0.7626 -0.7321
  388TIP3   OH222722   0.058   6.065   0.991  0.3575 -0.1730 -0.0863
  388TIP3    H122723   0.008   6.025   0.920  1.2020 -1.7823  0.1797
  388TIP3    H222724   0.063   6.158   0.968 -0.9551 -0.3500 -1.1660
  389TIP3   OH222725   3.208   3.567   2.828  0.5960 -0.1758  0.8543
  389TIP3    H122726   3.260   3.548   2.750 -0.0293  1.2927  0.0459
  389TIP3    H222727   3.133   3.507   2.821  1.0046 -0.6936  0.8266
  390TIP3   OH222728   2.909   4.955   0.014  0.5921  0.5185 -0.4243
  390TIP3    H122729   2.909   5.048  -0.008  1.1766  0.4628 -0.6736
  390TIP3    H222730   2.913   4.910  -0.070  3.1792  0.3093 -0.2621
  391TIP3   OH222731   1.832   0.432   1.262  1.2851 -0.0739 -0.0743
  391TIP3    H122732   1.902   0.466   1.318  0.2682  0.8784  0.6612
  391TIP3    H222733   1.753   0.473   1.296  0.5114 -0.2282 -1.6320
  392TIP3   OH222734   5.017   3.750   2.059  0.0846  0.0826 -0.4761
  392TIP3    H122735   5.086   3.735   2.123 -0.5286 -0.9810 -0.0449
  392TIP3    H222736   4.942   3.781   2.110 -0.4190 -0.8095 -0.6667
  393TIP3   OH222737   4.831   0.589   1.262  0.6582  0.4906 -0.0091
  393TIP3    H122738   4.922   0.560   1.263  0.3083 -0.7173 -0.7255
  393TIP3    H222739   4.826   0.656   1.330  2.6763  2.5015 -1.6909
  394TIP3   OH222740   1.205   2.140   1.732 -0.1647  0.1453 -0.0160
  394TIP3    H122741   1.197   2.050   1.699  1.5197 -0.8178  1.9425
  394TIP3    H222742   1.271   2.181   1.676 -0.7833  0.1173 -0.7833
  395TIP3   OH222743   3.890   6.049   0.833 -0.0530  0.1251 -0.1600
  395TIP3    H122744   3.827   6.118   0.812  0.4010  0.5931 -0.0076
  395TIP3    H222745   3.966   6.067   0.778  0.0903 -0.2218 -0.0814
  396TIP3   OH222746   0.788   3.442   2.045 -0.0617 -0.0131 -0.3104
  396TIP3    H122747   0.882   3.449   2.033  0.2014 -0.7502  1.1220
  396TIP3    H222748   0.770   3.494   2.124 -1.0760  1.2962 -1.3565
  397TIP3   OH222749   2.261   3.655   2.543 -0.8351 -0.5748  0.5105
  397TIP3    H122750   2.343   3.696   2.572 -0.3824 -0.6431 -0.6273
  397TIP3    H222751   2.200   3.727   2.532 -0.2529 -0.2607 -0.7928
  398TIP3   OH222752   1.557   2.941   8.529 -0.3373  0.3931 -0.3420
  398TIP3    H122753   1.644   2.975   8.512  0.1571 -1.2206 -1.2640
  398TIP3    H222754   1.505   2.966   8.452  0.6512 -2.7982 -2.2219
  399TIP3   OH222755   0.393   5.911   2.330  0.1138 -0.3917  0.0795
  399TIP3    H122756   0.307   5.952   2.325 -0.1659 -1.0043 -0.1729
  399TIP3    H222757   0.454   5.985   2.343 -0.3652  0.1174 -0.5161
  400TIP3   OH222758   3.231   2.469   0.570 -0.8281 -0.9420 -0.2104
  400TIP3    H122759   3.250   2.495   0.480 -2.1423 -0.4629 -0.3604
  400TIP3    H222760   3.201   2.378   0.563  1.6930 -1.8937  0.0845
  401TIP3   OH222761   1.712   6.006   1.451 -0.3466  0.1568 -0.2854
  401TIP3    H122762   1.725   5.988   1.358 -0.6999  0.1514 -0.3332
  401TIP3    H222763   1.779   5.954   1.495  0.5800  1.0462 -0.5986
  402TIP3   OH222764   0.382   0.874   0.970 -0.7606 -0.0685  0.2136
  402TIP3    H122765   0.348   0.908   1.053 -0.3886  0.2173  0.2492
  402TIP3    H222766   0.388   0.951   0.913  1.0324  0.1166  0.6135
  403TIP3   OH222767   2.987   4.078   0.373  0.6429  0.3049  0.5395
  403TIP3    H122768   2.903   4.118   0.351  1.5887  1.7162 -0.6972
  403TIP3    H222769   2.978   4.052   0.465 -0.6958  1.6060  0.8103
  404TIP3   OH222770   0.321   0.528   0.422 -0.1462 -0.1342 -0.2685
  404TIP3    H122771   0.411   0.538   0.452  0.0606 -0.3104 -0.8085
  404TIP3    H222772   0.321   0.443   0.376 -0.9823 -0.9352  1.1492
  405TIP3   OH222773   1.413   5.260   1.301  0.3852  0.5314  0.7356
  405TIP3    H122774   1.419   5.184   1.357  0.0678  0.7987  1.1331
  405TIP3    H222775   1.501   5.300   1.305  0.8987 -0.4324 -0.3734
  406TIP3   OH222776   2.324   0.764   1.103 -0.0120  0.8895  0.2737
  406TIP3    H122777   2.291   0.809   1.180 -0.7549  1.2734 -0.2594
  406TIP3    H222778   2.342   0.675   1.133 -1.1529  0.7796  0.6746
  407TIP3   OH222779   1.036   2.712   8.416 -0.8665  0.7081 -0.1856
  407TIP3    H122780   1.097   2.644   8.443 -1.6910 -0.7014 -1.6696
  407TIP3    H222781   1.062   2.789   8.466  0.7697 -0.4013  0.7732
  408TIP3   OH222782   5.743   5.651   0.313 -0.2439  0.4802 -0.9525
  408TIP3    H122783   5.782   5.606   0.388 -1.0731  0.9048 -0.2515
  408TIP3    H222784   5.811   5.648   0.246 -0.5223 -2.5049 -1.2350
  409TIP3   OH222785   5.275   0.791   7.041 -0.4463 -0.1197 -0.5415
  409TIP3    H122786   5.287   0.819   7.132  0.6931  0.1463 -0.7588
  409TIP3    H222787   5.200   0.842   7.010 -1.9371 -1.4177  0.7181
  410TIP3   OH222788   3.105   1.709   7.350 -0.2934 -0.2435  0.4019
  410TIP3    H122789   3.180   1.704   7.408 -0.4857  0.2395  0.6967
  410TIP3    H222790   3.043   1.768   7.394 -0.9762 -0.8726  0.3143
  411TIP3   OH222791   0.873   5.380   7.539 -0.5948  1.0648 -0.4499
  411TIP3    H122792   0.781   5.360   7.552 -0.8176  1.5835 -1.1482
  411TIP3    H222793   0.877   5.419   7.452  0.2301  1.3791 -0.2822
  412TIP3   OH222794   1.755   5.408   0.956 -0.3184 -0.2375  0.1750
  412TIP3    H122795   1.807   5.473   0.909  0.4824 -0.8064  0.2406
  412TIP3    H222796   1.804   5.393   1.037  0.2453 -1.8828 -0.4195
  413TIP3   OH222797   4.147   2.797   8.218 -0.4977 -0.6851 -0.4476
  413TIP3    H122798   4.129   2.874   8.165 -0.6513 -1.6808 -1.9045
  413TIP3    H222799   4.064   2.777   8.261 -0.4717 -0.0904 -0.1065
  414TIP3   OH222800   6.712   3.469   0.025  0.2190 -0.1672 -0.1676
  414TIP3    H122801   6.771   3.484  -0.048 -0.2063 -1.1404 -0.7226
  414TIP3    H222802   6.672   3.384   0.007  0.2347 -0.5047  1.2798
  415TIP3   OH222803   4.098   1.303   1.601  0.4850 -0.0310 -0.5539
  415TIP3    H122804   4.121   1.231   1.660 -1.4379 -0.8315 -0.7114
  415TIP3    H222805   4.119   1.382   1.650  2.4648 -0.6362 -0.2958
  416TIP3   OH222806   3.476   4.601   8.245 -0.2755 -0.3091 -0.0268
  416TIP3    H122807   3.531   4.573   8.318  0.1886 -0.2303 -0.3454
  416TIP3    H222808   3.395   4.631   8.286  0.5017  1.0462  0.5728
  417TIP3   OH222809   5.829   3.214   2.227  0.0148 -0.6984  0.2392
  417TIP3    H122810   5.880   3.289   2.194  1.7912 -2.0651 -0.2550
  417TIP3    H222811   5.850   3.143   2.167 -1.6017 -1.6512  0.7369
  418TIP3   OH222812   0.121   1.142   2.744 -0.1658  0.1210  0.3378
  418TIP3    H122813   0.109   1.057   2.786  0.3094 -0.4364 -0.6236
  418TIP3    H222814   0.181   1.125   2.671 -0.5608  1.1595 -0.2526
  419TIP3   OH222815   6.090   0.365   1.841 -0.4375 -0.5023  0.0249
  419TIP3    H122816   6.053   0.425   1.776 -0.4836  0.9468  1.3421
  419TIP3    H222817   6.155   0.315   1.792 -0.8244  0.1972 -1.2620
  420TIP3   OH222818   4.793   3.869   0.569  1.3019 -0.2483 -0.1664
  420TIP3    H122819   4.787   3.960   0.541  1.2713 -0.1266  0.2273
  420TIP3    H222820   4.809   3.874   0.663  0.6175 -0.6539 -0.0187
  421TIP3   OH222821   3.019   4.171   8.072  0.1523 -0.0668  0.0024
  421TIP3    H122822   3.107   4.132   8.070  0.6519  0.9918  0.4690
  421TIP3    H222823   2.960   4.097   8.055  0.9629 -1.3375  2.2938
  422TIP3   OH222824   3.314   6.510   0.965  0.1992 -0.2248 -0.0188
  422TIP3    H122825   3.386   6.538   0.909  1.7261 -0.9005  1.4988
  422TIP3    H222826   3.333   6.418   0.986 -0.9891 -0.3621  0.5849
  423TIP3   OH222827   0.498   2.675   2.049  0.3168 -0.0503 -0.1727
  423TIP3    H122828   0.509   2.770   2.044 -1.4339  0.1684 -0.4778
  423TIP3    H222829   0.407   2.663   2.076  0.8427 -1.6435  1.0062
  424TIP3   OH222830   2.783   3.183   0.712 -0.1083  0.1814 -0.3499
  424TIP3    H122831   2.854   3.133   0.673  0.4992  0.5754  0.2324
  424TIP3    H222832   2.772   3.145   0.799 -0.0062  0.7025 -0.1066
  425TIP3   OH222833   0.596   4.788   0.518  0.3112  0.0346 -0.4807
  425TIP3    H122834   0.504   4.786   0.489 -0.4235  0.0834  1.6307
  425TIP3    H222835   0.646   4.811   0.440 -1.5853  1.0976 -1.4544
  426TIP3   OH222836   5.421   5.200   0.771 -0.0789  0.5038 -0.0511
  426TIP3    H122837   5.479   5.216   0.697  1.4831  1.3093  1.2933
  426TIP3    H222838   5.368   5.125   0.743  1.2252  0.0735 -1.5500
  427TIP3   OH222839   1.525   1.386   0.017  0.0760 -0.4986  0.6659
  427TIP3    H122840   1.601   1.377  -0.041  0.7971  0.5057  1.4053
  427TIP3    H222841   1.471   1.454  -0.025 -1.7120 -2.8604 -1.1374
  428TIP3   OH222842   0.353   3.981   1.717  0.1102 -0.4514 -0.2269
  428TIP3    H122843   0.351   3.962   1.811  0.1259 -0.7587 -0.2886
  428TIP3    H222844   0.434   4.031   1.704 -0.8609  1.3500  0.2496
  429TIP3   OH222845   4.596   6.119   2.331 -0.2364  0.0017 -0.3705
  429TIP3    H122846   4.680   6.165   2.319  1.5360 -1.6844  3.6670
  429TIP3    H222847   4.545   6.178   2.386 -0.9805  0.1739 -1.2223
  430TIP3   OH222848   6.626   3.971   1.660 -0.2657 -0.1449 -0.1292
  430TIP3    H122849   6.551   4.017   1.623 -0.2497  1.4008  1.6307
  430TIP3    H222850   6.690   3.970   1.590 -0.8677  1.1286 -0.7340
  431TIP3   OH222851   0.104   2.509   2.523  0.6163 -0.2496  0.5146
  431TIP3    H122852   0.039   2.571   2.491  0.5900 -0.1924  0.6805
  431TIP3    H222853   0.054   2.447   2.576  0.6855 -0.2486  0.5811
  432TIP3   OH222854   0.852   4.580   1.875  0.5547  0.4255 -0.1508
  432TIP3    H122855   0.823   4.671   1.860 -0.9078  0.3269  1.6675
  432TIP3    H222856   0.771   4.533   1.895  1.6121 -0.5651  2.1478
  433TIP3   OH222857   3.694   2.711   0.653 -0.1438 -0.5733 -0.7054
  433TIP3    H122858   3.653   2.700   0.567 -1.0651 -1.7434 -0.1583
  433TIP3    H222859   3.704   2.621   0.686  0.6363 -0.1682  0.2053
  434TIP3   OH222860   3.468   3.178   8.399 -0.2413 -0.0014 -0.6633
  434TIP3    H122861   3.539   3.220   8.447 -0.4500  0.7570 -0.9914
  434TIP3    H222862   3.436   3.246   8.339  0.1576 -0.9791 -2.0369
  435TIP3   OH222863   3.468   5.017   1.294 -0.3772 -0.6001  0.3369
  435TIP3    H122864   3.549   5.062   1.321 -0.3266 -0.2751 -0.3318
  435TIP3    H222865   3.398   5.074   1.325 -0.3109  0.3405 -1.0798
  436TIP3   OH222866   5.008   1.501   0.929  0.0945 -0.2755  0.5930
  436TIP3    H122867   5.002   1.584   0.975  1.7988 -0.6547  1.6035
  436TIP3    H222868   4.926   1.494   0.880 -0.4259  1.5978  1.1216
  437TIP3   OH222869   5.235   1.211   1.870 -0.2270  0.3366  0.2344
  437TIP3    H122870   5.161   1.261   1.837 -1.6422 -1.2326  0.8748
  437TIP3    H222871   5.213   1.120   1.850  1.6200 -0.1578  0.2954
  438TIP3   OH222872   6.735   1.052   1.024 -0.0347  0.0253 -0.2800
  438TIP3    H122873   6.814   0.999   1.035 -0.5828 -0.6415  0.5357
  438TIP3    H222874   6.673   0.995   0.979 -0.1904  0.4092 -0.5538
  439TIP3   OH222875   3.133   2.854   8.395  0.1284 -0.0881 -0.1619
  439TIP3    H122876   3.129   2.926   8.459  2.4826 -1.0677  1.1897
  439TIP3    H222877   3.107   2.895   8.312 -1.6353  1.5546  1.1151
  440TIP3   OH222878   4.656   2.025   1.250 -0.2920 -0.5893  0.5063
  440TIP3    H122879   4.564   2.019   1.223 -0.2608  0.1028  0.2167
  440TIP3    H222880   4.654   2.015   1.345 -0.5740 -1.4394  0.4170
  441TIP3   OH222881   2.106   2.466   0.196  0.1881 -0.2195 -0.5949
  441TIP3    H122882   2.082   2.377   0.173 -0.7806 -0.2483  0.4390
  441TIP3    H222883   2.201   2.470   0.184  0.0367 -0.8879 -2.2512
  442TIP3   OH222884   3.641   0.061   2.303  0.0831  0.0518 -0.2500
  442TIP3    H122885   3.676  -0.022   2.272  1.5330  0.2812  0.6494
  442TIP3    H222886   3.704   0.126   2.272 -1.0694  0.8370 -1.0083
  443TIP3   OH222887   6.574   2.399   2.296  0.6276  0.1369  0.1855
  443TIP3    H122888   6.627   2.352   2.360  0.8270  1.6281  1.1630
  443TIP3    H222889   6.522   2.331   2.254  0.2938 -0.8727  2.1188
  444TIP3   OH222890   4.606   2.568   1.807 -0.1388 -0.0684 -0.5646
  444TIP3    H122891   4.652   2.590   1.726 -1.1534 -0.5421 -1.2835
  444TIP3    H222892   4.582   2.476   1.797 -4.5239  0.9837 -1.9406
  445TIP3   OH222893   0.376   5.999   2.922  0.1789  0.0896 -0.4278
  445TIP3    H122894   0.335   5.950   2.850 -0.9327 -0.1317  0.3253
  445TIP3    H222895   0.368   6.091   2.897  0.6133 -0.0246 -0.9980
  446TIP3   OH222896   4.036   5.046   1.214 -0.3930  0.6732  0.3382
  446TIP3    H122897   3.958   5.061   1.268 -1.5806  0.2111 -1.1992
  446TIP3    H222898   4.057   4.954   1.227 -1.0907  0.3884 -0.4934
  447TIP3   OH222899   4.104   1.386   0.130 -0.2891 -0.3008  0.0216
  447TIP3    H122900   4.165   1.381   0.203  0.8888 -0.6369 -0.9626
  447TIP3    H222901   4.131   1.464   0.081 -1.4624  0.2880  0.2493
  448TIP3   OH222902   0.414   6.673   2.979 -0.4634  0.0425 -0.3654
  448TIP3    H122903   0.432   6.579   2.982 -0.2404  0.0830 -0.3738
  448TIP3    H222904   0.492   6.713   3.018 -0.7547  0.1995  0.0620
  449TIP3   OH222905   2.081   0.403   2.088 -0.2879  0.1191  0.4743
  449TIP3    H122906   2.089   0.318   2.131  0.5041 -0.9159 -1.5717
  449TIP3    H222907   1.988   0.408   2.062 -0.7368  0.6911  2.0742
  450TIP3   OH222908   0.263   2.733   0.291  0.5256 -0.2711  0.0528
  450TIP3    H122909   0.223   2.816   0.318 -0.3487 -0.8482  0.5845
  450TIP3    H222910   0.331   2.758   0.229  1.8082  1.0087  1.9032
  451TIP3   OH222911   0.326   2.136   2.142 -0.5269 -0.8259 -0.3050
  451TIP3    H122912   0.276   2.162   2.065 -0.5367  1.5286  0.4254
  451TIP3    H222913   0.262   2.130   2.212  0.0856  2.3293  0.6625
  452TIP3   OH222914   0.925   1.165   1.092  0.5589 -0.1459 -0.3139
  452TIP3    H122915   0.830   1.176   1.095  0.7084  1.2463 -0.2316
  452TIP3    H222916   0.960   1.252   1.112  1.8745 -1.0622  1.6520
  453TIP3   OH222917   0.144   6.817   7.860 -0.1516  0.2262  0.1692
  453TIP3    H122918   0.129   6.779   7.773  0.0994 -0.0528  0.2470
  453TIP3    H222919   0.096   6.761   7.920  1.2211 -0.7221  0.4299
  454TIP3   OH222920   1.337   3.074   0.969 -0.3558  0.2193 -0.2047
  454TIP3    H122921   1.420   3.031   0.948 -0.4025  0.3652 -0.7032
  454TIP3    H222922   1.309   3.035   1.052 -0.4060 -0.7293 -0.6596
  455TIP3   OH222923   5.788   4.448   1.687  0.6450 -0.2630 -0.0327
  455TIP3    H122924   5.718   4.384   1.681  0.6882 -0.6053  2.3390
  455TIP3    H222925   5.846   4.415   1.755  0.5710  2.3286  1.4276
  456TIP3   OH222926   6.811   5.181   2.381  0.2504 -0.0516 -0.2806
  456TIP3    H122927   6.788   5.093   2.409 -0.3620  0.2056  0.0347
  456TIP3    H222928   6.893   5.170   2.333 -0.3987 -0.9530 -1.2219
  457TIP3   OH222929   2.935   4.465   0.213 -0.2649 -0.2171 -0.2510
  457TIP3    H122930   2.949   4.459   0.307 -0.5371  0.6654 -0.1403
  457TIP3    H222931   2.840   4.468   0.203 -0.2340  1.8915 -0.3641
  458TIP3   OH222932   2.669   3.435   3.310  0.3305 -0.3650  0.3482
  458TIP3    H122933   2.678   3.448   3.215 -2.8328 -0.0616 -0.0159
  458TIP3    H222934   2.666   3.524   3.345  0.4149 -0.4550  0.5791
  459TIP3   OH222935   6.222   1.798   1.644 -0.4512  0.3055 -0.6503
  459TIP3    H122936   6.305   1.762   1.614 -0.6684  1.6092 -2.9795
  459TIP3    H222937   6.247   1.872   1.700 -0.0271  0.6803 -1.3229
  460TIP3   OH222938   4.133   6.365   3.606 -0.6267  0.1695 -0.3111
  460TIP3    H122939   4.156   6.273   3.590 -0.3533 -0.2977  2.3179
  460TIP3    H222940   4.174   6.413   3.534  2.6105 -1.4026  0.2861
  461TIP3   OH222941   1.393   3.616   3.190  0.1081  0.3373 -0.2628
  461TIP3    H122942   1.475   3.576   3.163  0.0070  0.7342 -1.1768
  461TIP3    H222943   1.409   3.710   3.185 -0.3921  0.4174 -0.4111
  462TIP3   OH222944   4.307   6.330   7.855 -0.1988 -0.5482 -0.2964
  462TIP3    H122945   4.228   6.356   7.807 -0.8658  1.6821  1.8042
  462TIP3    H222946   4.379   6.366   7.803 -0.9084  1.9558  0.3264
  463TIP3   OH222947   6.737   0.654   2.750  0.5832 -0.0878 -0.0743
  463TIP3    H122948   6.726   0.611   2.666 -1.4759  0.4864 -0.1568
  463TIP3    H222949   6.813   0.712   2.738 -1.0489  1.7782 -2.3863
  464TIP3   OH222950   2.095   2.382   2.417  0.2858 -0.7717 -0.1930
  464TIP3    H122951   2.131   2.342   2.337 -1.8405 -2.2276 -0.5159
  464TIP3    H222952   2.000   2.370   2.409 -0.0358 -0.4299  2.2938
  465TIP3   OH222953   0.351   3.618   2.769 -0.1396 -0.3641 -0.9892
  465TIP3    H122954   0.353   3.691   2.708 -0.7027  1.9219  1.5438
  465TIP3    H222955   0.266   3.625   2.813  0.6994 -1.1160  0.9119
  466TIP3   OH222956   4.377   3.392   2.633  0.2812 -0.0162  0.1191
  466TIP3    H122957   4.369   3.462   2.699  0.2522 -1.1416  1.3481
  466TIP3    H222958   4.291   3.351   2.631  0.5717 -0.6355  0.1188
  467TIP3   OH222959   1.894   0.247   7.654  0.5349  0.1889 -0.5905
  467TIP3    H122960   1.811   0.280   7.619  0.8060  1.5431 -0.0462
  467TIP3    H222961   1.899   0.157   7.623 -1.5469 -0.2152  0.0717
  468TIP3   OH222962   4.289   5.433   2.316  0.6832  0.2979 -0.3225
  468TIP3    H122963   4.230   5.507   2.332  1.2092  0.5749  0.4432
  468TIP3    H222964   4.328   5.415   2.402  1.3008 -0.2260 -0.7036
  469TIP3   OH222965   2.684   5.757   8.279 -0.0126  0.7860  0.2345
  469TIP3    H122966   2.664   5.789   8.191  1.0577  1.4030  0.1963
  469TIP3    H222967   2.625   5.683   8.292  0.9863 -0.4192 -1.6729
  470TIP3   OH222968   3.345   4.495   1.699 -0.3617  0.4210  0.2821
  470TIP3    H122969   3.402   4.423   1.672 -0.2648  0.6075 -0.0187
  470TIP3    H222970   3.259   4.454   1.709 -0.4262  0.3697 -0.4388
  471TIP3   OH222971   1.375   6.177   8.164 -0.2496  0.6260  0.1603
  471TIP3    H122972   1.281   6.189   8.150 -0.3230 -0.3917 -0.2780
  471TIP3    H222973   1.409   6.151   8.079  0.2100 -0.2983  0.6118
  472TIP3   OH222974   6.495   0.421   0.835  0.2662 -0.0538  0.2254
  472TIP3    H122975   6.479   0.370   0.914  1.0399 -1.5414 -0.5328
  472TIP3    H222976   6.409   0.428   0.793  0.4587 -3.1883 -1.0206
  473TIP3   OH222977   4.746   2.225   1.488  0.7093  0.8837  0.0206
  473TIP3    H122978   4.803   2.273   1.427  0.6742  1.1157  0.1674
  473TIP3    H222979   4.769   2.260   1.574 -0.5459  1.9012 -0.0298
  474TIP3   OH222980   2.194   2.432   1.670 -0.7257  0.3506 -0.0753
  474TIP3    H122981   2.235   2.352   1.639  0.9604  1.1561 -0.0227
  474TIP3    H222982   2.102   2.423   1.644 -0.4409 -1.2942 -0.6338
  475TIP3   OH222983   4.260   6.080   2.507 -0.8183  0.4596  0.8516
  475TIP3    H122984   4.267   6.040   2.593  0.5467 -1.0471  0.0928
  475TIP3    H222985   4.325   6.151   2.508  0.0326 -0.2981  0.7091
  476TIP3   OH222986   2.739   4.472   8.087 -0.2138  0.7553  0.0859
  476TIP3    H122987   2.759   4.482   8.180  0.8400 -1.3226  0.1339
  476TIP3    H222988   2.817   4.431   8.049 -1.3033 -0.1143 -1.3331
  477TIP3   OH222989   1.552   0.343   8.266 -0.2250 -0.2006 -0.5236
  477TIP3    H122990   1.530   0.347   8.173  0.7937 -1.2179 -0.8282
  477TIP3    H222991   1.524   0.427   8.301 -1.5730 -0.1990 -1.5350
  478TIP3   OH222992   6.091   6.122   0.594 -0.3266 -0.4702 -0.3007
  478TIP3    H122993   5.999   6.138   0.614 -0.2866 -0.0314 -0.4564
  478TIP3    H222994   6.139   6.162   0.667 -0.1851  1.0336 -1.1749
  479TIP3   OH222995   3.586   0.642   0.044 -0.3038 -0.0142 -0.0061
  479TIP3    H122996   3.503   0.613   0.006 -0.4472 -2.5483  1.9953
  479TIP3    H222997   3.562   0.713   0.104 -0.8280  0.1478 -0.4006
  480TIP3   OH222998   4.843   0.740   2.677  0.1211 -0.7672  0.0409
  480TIP3    H122999   4.755   0.771   2.698  0.4335  0.1873 -0.0114
  480TIP3    H223000   4.894   0.755   2.757  0.3659 -0.8048 -0.1050
  481TIP3   OH223001   2.291   3.036   0.167  1.0007  0.0074  0.1987
  481TIP3    H123002   2.296   3.070   0.256 -0.3608 -2.4466  1.3019
  481TIP3    H223003   2.198   3.031   0.148  0.7816 -5.1345  1.1381
  482TIP3   OH223004   2.369   0.326   1.966  0.1280  0.7503  0.2078
  482TIP3    H123005   2.317   0.406   1.957  0.5996  0.9472 -0.9182
  482TIP3    H223006   2.322   0.260   1.914  0.4787  0.6763 -0.0261
  483TIP3   OH223007   4.182   0.130   8.500 -0.0824  0.4940  0.0119
  483TIP3    H123008   4.224   0.138   8.585 -0.5805 -0.6933  0.3931
  483TIP3    H223009   4.164   0.036   8.491 -2.7688  0.9349 -0.0669
  484TIP3   OH223010   0.319   3.344   1.476  0.6401 -0.3977  0.2823
  484TIP3    H123011   0.238   3.310   1.438  1.5243  0.2226 -2.4027
  484TIP3    H223012   0.301   3.437   1.493  0.6916 -0.3233 -0.0618
  485TIP3   OH223013   2.729   6.339   0.887  0.1113  0.3497 -0.1638
  485TIP3    H123014   2.807   6.391   0.867 -0.0216  0.3815 -0.6167
  485TIP3    H223015   2.671   6.355   0.813  0.0543 -0.4170 -0.2866
  486TIP3   OH223016   0.101   2.474   7.545  0.2539 -0.3595 -0.9020
  486TIP3    H123017   0.142   2.544   7.596 -1.3240 -0.6941  0.9200
  486TIP3    H223018   0.174   2.430   7.502  1.5372  0.7045  0.0899
  487TIP3   OH223019   4.772   5.069   0.176 -0.4911  0.4720  1.0762
  487TIP3    H123020   4.848   5.051   0.230 -0.1671  0.2184  0.5408
  487TIP3    H223021   4.725   5.139   0.222  1.9926  3.3216 -0.3867
  488TIP3   OH223022   5.513   2.606   3.001 -0.4508 -0.5405 -0.6620
  488TIP3    H123023   5.586   2.644   2.953 -1.0109 -0.6651 -1.6317
  488TIP3    H223024   5.435   2.642   2.958 -0.9676 -0.2711  0.4656
  489TIP3   OH223025   3.057   6.772   7.995  1.1476  0.0825  0.4388
  489TIP3    H123026   3.108   6.716   7.936 -0.1027 -1.3967  0.6876
  489TIP3    H223027   3.054   6.723   8.077 -2.9213 -1.3402 -0.3362
  490TIP3   OH223028   1.921   1.632   0.491  0.1338  0.0703  0.6721
  490TIP3    H123029   1.923   1.666   0.402 -1.6292  1.5756  1.1338
  490TIP3    H223030   1.886   1.544   0.483 -0.8489  0.5089 -0.0749
  491TIP3   OH223031   4.503   0.556   2.422 -0.4841  0.2960  0.4250
  491TIP3    H123032   4.411   0.531   2.426  0.0964 -2.1161  0.1902
  491TIP3    H223033   4.545   0.488   2.370  1.6982  0.4472  1.8314
  492TIP3   OH223034   3.369   0.045   3.444 -0.0116 -0.2390  0.2012
  492TIP3    H123035   3.294   0.100   3.422 -0.7920 -1.4062 -0.1580
  492TIP3    H223036   3.423   0.046   3.364 -0.6909 -1.0299 -0.2874
  493TIP3   OH223037   2.465   2.327   0.426 -0.2756 -0.0551 -0.0664
  493TIP3    H123038   2.440   2.254   0.483  1.4655 -0.3524  0.3890
  493TIP3    H223039   2.559   2.315   0.412  0.4642  2.9738  1.3737
  494TIP3   OH223040   6.724   5.381   1.271  0.4637  0.4614 -0.0956
  494TIP3    H123041   6.782   5.457   1.278  1.3139 -0.3361  2.3963
  494TIP3    H223042   6.640   5.418   1.242  0.7444  2.4284  1.4047
  495TIP3   OH223043   6.136   3.101   0.649  0.6163  0.4369  0.1975
  495TIP3    H123044   6.187   3.057   0.717 -0.8263  0.1210  1.1397
  495TIP3    H223045   6.064   3.142   0.697  1.2098  2.8126 -0.7927
  496TIP3   OH223046   6.803   5.642   1.397  0.2349 -0.2923 -0.4267
  496TIP3    H123047   6.737   5.699   1.438  0.5539  0.8349 -1.4087
  496TIP3    H223048   6.855   5.610   1.470  0.1875  0.8889  0.1589
  497TIP3   OH223049   6.808   1.889   0.651 -0.1522  0.5807 -0.1663
  497TIP3    H123050   6.725   1.841   0.657 -0.1315  0.4143 -1.1085
  497TIP3    H223051   6.795   1.966   0.706 -0.3208 -0.2919  1.0647
  498TIP3   OH223052   6.726   3.993   1.919  0.5478 -0.3506 -0.4709
  498TIP3    H123053   6.676   3.936   1.978  1.7047 -1.1637 -0.2227
  498TIP3    H223054   6.694   3.972   1.831 -1.7343  1.4236 -0.1415
  499TIP3   OH223055   5.960   2.030   0.539  0.2798 -0.0889 -0.3701
  499TIP3    H123056   6.052   2.057   0.531  0.6242 -0.7625  1.0384
  499TIP3    H223057   5.964   1.934   0.535 -0.6490 -0.1045 -2.7299
  500TIP3   OH223058   3.611   3.431   7.847  0.4203 -0.2852 -0.8008
  500TIP3    H123059   3.680   3.378   7.887  0.7488  0.6584 -0.0633
  500TIP3    H223060   3.655   3.478   7.777  0.3716 -0.2044 -0.7776
  501TIP3   OH223061   1.265   5.662   2.014  0.2947  0.0665 -0.0390
  501TIP3    H123062   1.293   5.589   2.068 -2.0070 -0.4000  0.6477
  501TIP3    H223063   1.196   5.704   2.065 -0.0594  1.2815 -1.4499
  502TIP3   OH223064   1.237   5.347   1.862  0.6037 -0.2182  0.0060
  502TIP3    H123065   1.145   5.360   1.838  0.0419  0.0522  2.1118
  502TIP3    H223066   1.239   5.360   1.957  2.7394 -0.7325  0.0776
  503TIP3   OH223067   5.205   1.862   7.510  0.0962  0.1595 -0.5495
  503TIP3    H123068   5.133   1.823   7.459  0.4764 -0.2790 -0.7560
  503TIP3    H223069   5.237   1.933   7.456  0.1756  0.0079 -0.7030
  504TIP3   OH223070   5.156   3.088   2.059 -0.0473  0.1732  0.5059
  504TIP3    H123071   5.136   3.081   2.152 -0.0199  0.1096  0.5065
  504TIP3    H223072   5.081   3.048   2.015  1.8104 -3.7763  0.5752
  505TIP3   OH223073   5.675   5.251   8.229 -0.4039 -0.3171 -0.3776
  505TIP3    H123074   5.627   5.284   8.305  0.5880 -0.4515  0.3190
  505TIP3    H223075   5.646   5.160   8.221 -1.4242  0.0359 -0.9174
  506TIP3   OH223076   6.146   4.664   7.864  0.1247  0.0764 -0.3732
  506TIP3    H123077   6.238   4.638   7.861 -0.3008 -1.6298 -0.0553
  506TIP3    H223078   6.103   4.593   7.913 -1.7879 -0.5684 -2.7556
  507TIP3   OH223079   1.804   0.444   2.027  0.0295 -0.6595  0.4630
  507TIP3    H123080   1.742   0.465   2.096 -0.5309  0.6434 -0.3941
  507TIP3    H223081   1.764   0.371   1.980 -0.8127  0.0680  0.0115
  508TIP3   OH223082   0.352   0.484   2.494  0.2602 -0.6996 -0.1833
  508TIP3    H123083   0.301   0.430   2.555  0.5678 -1.3619 -0.5047
  508TIP3    H223084   0.354   0.433   2.413  0.0173  0.0840 -0.7028
  509TIP3   OH223085   6.421   3.210   0.978 -0.2029  0.2823 -0.4445
  509TIP3    H123086   6.441   3.303   0.989 -1.6380  0.6935 -1.0065
  509TIP3    H223087   6.408   3.178   1.067  1.7367  0.2289 -0.1317
  510TIP3   OH223088   4.578   3.008   2.159 -0.1180  0.3565  0.2959
  510TIP3    H123089   4.554   3.005   2.251 -0.1424  0.4524  0.2928
  510TIP3    H223090   4.598   3.100   2.142 -0.8522  0.4726  0.0181
  511TIP3   OH223091   1.005   5.723   0.177 -0.3168  0.2551  0.2141
  511TIP3    H123092   0.998   5.739   0.271  1.5174 -0.2784  0.4673
  511TIP3    H223093   0.915   5.703   0.150 -0.8394  0.1751  1.8826
  512TIP3   OH223094   5.372   6.253   1.523 -0.0035  0.3353 -0.5900
  512TIP3    H123095   5.282   6.256   1.491 -0.8191  0.0109  1.4792
  512TIP3    H223096   5.387   6.161   1.543 -0.2286  0.7161  1.5956
  513TIP3   OH223097   1.312   6.789   0.253  0.4779  0.4130 -0.0465
  513TIP3    H123098   1.376   6.760   0.188 -1.2273  0.7796 -1.9882
  513TIP3    H223099   1.365   6.835   0.320  2.2814  0.2090 -1.2569
  514TIP3   OH223100   6.148   4.580   0.536 -0.1210 -0.0211 -0.0484
  514TIP3    H123101   6.134   4.613   0.625  0.9274 -0.5480  0.3308
  514TIP3    H223102   6.109   4.493   0.535  0.2692 -0.2024  0.0490
  515TIP3   OH223103   3.853   5.600   1.305 -0.1348  0.2585 -0.1890
  515TIP3    H123104   3.906   5.610   1.384  0.8125  1.9120 -0.9768
  515TIP3    H223105   3.915   5.572   1.238 -0.9321 -1.1185 -0.3900
  516TIP3   OH223106   5.654   4.678   3.045  0.1239 -0.2511  0.3420
  516TIP3    H123107   5.736   4.653   3.086 -0.1410 -0.6325  0.6430
  516TIP3    H223108   5.586   4.639   3.100 -0.2700  0.3689  0.3101
  517TIP3   OH223109   1.016   1.431   1.095 -0.2585 -0.2863  0.1411
  517TIP3    H123110   1.111   1.442   1.091 -0.0568 -1.5568  0.8847
  517TIP3    H223111   0.984   1.512   1.133  0.3316  0.8720 -1.6845
  518TIP3   OH223112   0.930   0.998   2.810 -0.7654  0.1171 -0.5955
  518TIP3    H123113   1.008   1.031   2.855 -1.7801  1.5545  0.2267
  518TIP3    H223114   0.963   0.959   2.729  0.9157 -0.5847  0.3795
  519TIP3   OH223115   4.195   2.752   2.950  0.5773 -1.0290  0.1055
  519TIP3    H123116   4.144   2.783   3.025 -0.6448 -1.3005 -0.6045
  519TIP3    H223117   4.285   2.746   2.984 -0.0127 -1.5340  1.6554
  520TIP3   OH223118   2.163   0.706   8.538  0.0322 -0.2563 -0.0019
  520TIP3    H123119   2.241   0.739   8.493 -0.1196 -1.1015 -0.9097
  520TIP3    H223120   2.117   0.785   8.566  1.5166  0.2534  1.1065
  521TIP3   OH223121   6.290   3.073   3.227  0.1578  0.0160  0.6941
  521TIP3    H123122   6.258   3.039   3.310  0.0464 -0.1458  0.5842
  521TIP3    H223123   6.300   2.996   3.171  0.8082  0.0545  0.7514
  522TIP3   OH223124   3.678   3.393   2.135 -0.2942 -0.5271 -0.5728
  522TIP3    H123125   3.617   3.325   2.162 -1.2161  0.1260 -0.9631
  522TIP3    H223126   3.747   3.392   2.201 -0.0279 -2.1720 -0.8408
  523TIP3   OH223127   4.399   1.505   3.311  0.0615  0.8496 -0.2092
  523TIP3    H123128   4.309   1.480   3.329  0.7846 -0.6642  1.6758
  523TIP3    H223129   4.433   1.536   3.395  1.4574  0.8245 -0.7255
  524TIP3   OH223130   3.389   2.210   1.819  0.5844 -0.4284  0.0812
  524TIP3    H123131   3.341   2.151   1.877  0.2175  1.1029  1.4297
  524TIP3    H223132   3.466   2.236   1.869  0.2734  0.9154 -0.0781
  525TIP3   OH223133   5.449   2.143   1.723  0.2540 -0.4286 -0.2312
  525TIP3    H123134   5.532   2.107   1.689  0.7018 -1.3966  1.7175
  525TIP3    H223135   5.406   2.068   1.764 -1.1144  0.2895 -0.3110
  526TIP3   OH223136   4.977   3.871   2.488  0.4896  0.0919 -0.0764
  526TIP3    H123137   5.053   3.813   2.485 -1.2081 -2.3358  0.7146
  526TIP3    H223138   4.982   3.914   2.573  1.8840  1.3687 -0.7629
  527TIP3   OH223139   3.902   6.324   8.098 -0.0761  0.2918  0.4267
  527TIP3    H123140   3.963   6.250   8.089 -1.3493 -0.6403 -1.1434
  527TIP3    H223141   3.867   6.316   8.186  1.6512  0.5314  1.1710
  528TIP3   OH223142   6.563   2.689   7.390  0.4129 -0.0187 -0.0579
  528TIP3    H123143   6.592   2.777   7.411  0.9277  0.2803 -1.8888
  528TIP3    H223144   6.469   2.689   7.409  0.7319  0.3278  1.7071
  529TIP3   OH223145   3.587   3.454   8.491 -0.1894  0.2900 -0.2317
  529TIP3    H123146   3.600   3.404   8.571 -0.2497 -1.8528 -1.4696
  529TIP3    H223147   3.676   3.463   8.454 -0.1469  1.3558  0.0923
  530TIP3   OH223148   3.967   6.128   1.284 -0.5449 -0.4086 -0.1721
  530TIP3    H123149   4.039   6.191   1.292  1.2822 -2.2779 -1.1172
  530TIP3    H223150   3.994   6.068   1.215 -2.9383 -1.3300 -0.4030
  531TIP3   OH223151   5.332   0.018   0.346  0.1963  0.2179 -0.3848
  531TIP3    H123152   5.341   0.093   0.288  1.9508 -0.4676 -1.0419
  531TIP3    H223153   5.416  -0.028   0.341 -1.2375 -2.5580 -1.0486
  532TIP3   OH223154   2.326   2.886   0.573  0.2615  0.0104 -0.4932
  532TIP3    H123155   2.328   2.799   0.534 -0.0218 -0.1607 -0.1402
  532TIP3    H223156   2.304   2.870   0.665 -2.6070  0.6001 -0.9744
  533TIP3   OH223157   5.523   4.141   2.412 -0.2334 -0.2524 -0.5009
  533TIP3    H123158   5.613   4.140   2.445 -0.2176  4.2153  0.3365
  533TIP3    H223159   5.469   4.125   2.490 -0.2430 -1.9588 -0.8216
  534TIP3   OH223160   1.439   1.994   1.876 -0.6716  0.1988  0.2483
  534TIP3    H123161   1.400   2.078   1.851 -0.1679  0.7900  1.4115
  534TIP3    H223162   1.467   1.955   1.793 -0.8680  1.1959 -0.2999
  535TIP3   OH223163   6.060   5.088   2.680  0.3843 -0.1429 -0.1231
  535TIP3    H123164   5.997   5.064   2.611  0.6713  2.8285 -1.6109
  535TIP3    H223165   6.113   5.157   2.640  1.5858  0.6611  2.6209
  536TIP3   OH223166   5.517   5.331   0.205 -0.5537  0.5738  0.7270
  536TIP3    H123167   5.459   5.309   0.131 -0.5526  2.4850  0.1047
  536TIP3    H223168   5.567   5.407   0.175 -2.1545  2.9133  3.4358
  537TIP3   OH223169   3.856   4.300   1.427 -0.5402 -0.1472  0.1556
  537TIP3    H123170   3.825   4.219   1.387  0.5515  0.2367 -1.6184
  537TIP3    H223171   3.932   4.274   1.479 -1.9290 -0.6422  2.0476
  538TIP3   OH223172   0.227   6.164   7.190 -0.6233  0.6391  0.1731
  538TIP3    H123173   0.258   6.084   7.148  1.2161  1.1685  0.4284
  538TIP3    H223174   0.153   6.137   7.244  1.4405 -1.3995  2.2128
  539TIP3   OH223175   5.973   4.657   3.029  0.2151 -0.0850  0.4132
  539TIP3    H123176   6.046   4.607   3.065 -0.3600 -1.9999 -0.9123
  539TIP3    H223177   5.979   4.644   2.935 -1.9157 -0.4627  0.2774
  540TIP3   OH223178   5.290   5.506   7.785  0.1335 -0.0573  0.2223
  540TIP3    H123179   5.233   5.433   7.812  0.4761  0.2263  1.7722
  540TIP3    H223180   5.283   5.506   7.689 -1.5159 -0.7998  0.2942
  541TIP3   OH223181   2.312   0.674   2.597 -0.2877 -0.2341  0.0839
  541TIP3    H123182   2.339   0.599   2.651 -1.7639 -2.7972 -2.4643
  541TIP3    H223183   2.272   0.735   2.659 -0.8613 -2.4753  2.0693
  542TIP3   OH223184   1.067   1.089   7.989 -0.7823  0.4792 -0.0982
  542TIP3    H123185   1.111   1.169   7.961  0.4965 -0.6894 -1.5962
  542TIP3    H223186   0.993   1.080   7.929 -1.4907  0.9942  0.6699
  543TIP3   OH223187   2.089   4.451   1.681 -0.5382  0.3129 -0.3865
  543TIP3    H123188   2.044   4.414   1.605 -1.0822 -0.0732  0.1150
  543TIP3    H223189   2.174   4.479   1.647 -0.2665 -1.0147 -0.8806
  544TIP3   OH223190   0.139   3.768   2.252 -0.3577 -0.1747 -0.9071
  544TIP3    H123191   0.231   3.744   2.262 -0.2112  0.9845  0.8329
  544TIP3    H223192   0.141   3.858   2.219 -0.8321  0.3779  0.5035
  545TIP3   OH223193   3.212   5.666   2.017 -0.3971  0.0695  0.1339
  545TIP3    H123194   3.283   5.610   1.985 -0.7571  0.0727 -0.7119
  545TIP3    H223195   3.134   5.633   1.971 -0.5705  1.4372 -0.5838
  546TIP3   OH223196   2.668   2.341   3.032  0.7091  0.5132 -0.0782
  546TIP3    H123197   2.691   2.293   3.111  0.7316  1.5187  0.5390
  546TIP3    H223198   2.584   2.304   3.004 -1.1252  2.5146  2.4277
  547TIP3   OH223199   5.408   2.950   0.983  0.5252 -0.3795  0.0405
  547TIP3    H123200   5.466   2.903   0.923 -1.2372  0.4435 -2.4575
  547TIP3    H223201   5.348   2.883   1.016  0.2592 -0.5095 -0.6930
  548TIP3   OH223202   4.360   6.856   0.731  0.6352  0.6515 -0.0194
  548TIP3    H123203   4.318   6.901   0.805  0.6833 -0.0722  0.4576
  548TIP3    H223204   4.335   6.764   0.742  3.3435 -0.0340  1.0064
  549TIP3   OH223205   3.882   3.182   1.481 -0.8116 -0.2712 -0.0261
  549TIP3    H123206   3.971   3.193   1.447 -0.1509  0.8914  1.9100
  549TIP3    H223207   3.869   3.087   1.482  0.5659 -0.4856 -0.0062
  550TIP3   OH223208   3.912   3.729   0.577 -0.5003 -0.5723  0.2911
  550TIP3    H123209   3.880   3.673   0.648  0.0411 -1.1550  0.0811
  550TIP3    H223210   4.007   3.723   0.583 -0.4148 -2.0620 -1.5585
  551TIP3   OH223211   1.466   5.101   8.072 -0.3217 -0.3133  0.1519
  551TIP3    H123212   1.391   5.153   8.101  0.6443  1.6987 -0.7701
  551TIP3    H223213   1.518   5.090   8.151 -0.1193  0.9207  0.2187
  552TIP3   OH223214   1.815   0.643   7.463 -0.1242  1.0458  0.0129
  552TIP3    H123215   1.797   0.553   7.435  0.5070  1.4727 -1.8365
  552TIP3    H223216   1.888   0.635   7.524  0.8884  0.4152 -1.2432
  553TIP3   OH223217   1.521   5.565   0.997 -0.0201  0.0220 -0.5343
  553TIP3    H123218   1.597   5.517   0.963 -1.4975 -0.5890 -3.2429
  553TIP3    H223219   1.547   5.657   0.993  0.4597 -0.1442 -1.8678
  554TIP3   OH223220   6.435   4.132   8.029  0.4367 -0.6109 -0.3742
  554TIP3    H123221   6.468   4.140   7.939  1.4253 -0.7075 -0.0309
  554TIP3    H223222   6.457   4.042   8.055 -0.7752 -0.9298 -0.3855
  555TIP3   OH223223   5.960   5.649   0.123  0.9078  0.2659  0.0285
  555TIP3    H123224   5.945   5.731   0.077 -0.5902 -0.8493 -1.5814
  555TIP3    H223225   6.024   5.602   0.069  0.3287 -0.4002 -0.0965
  556TIP3   OH223226   4.830   6.646   7.163  0.0634  0.8371 -0.2586
  556TIP3    H123227   4.913   6.680   7.128  0.0681  0.9438 -0.1462
  556TIP3    H223228   4.789   6.723   7.203 -0.4025  0.9369 -0.9152
  557TIP3   OH223229   5.252   4.912   1.854 -0.1207  0.4557 -0.3517
  557TIP3    H123230   5.290   4.919   1.767  3.0180 -1.7612  0.6626
  557TIP3    H223231   5.302   4.974   1.908 -1.1147  0.8271  0.1800
  558TIP3   OH223232   3.725   4.434   2.997  0.1012 -0.1689 -0.8098
  558TIP3    H123233   3.714   4.345   3.029  0.4658  0.1475  0.2267
  558TIP3    H223234   3.731   4.488   3.076 -0.5513  0.8344 -1.4154
  559TIP3   OH223235   0.308   0.558   1.266  0.1965 -0.0962 -0.5015
  559TIP3    H123236   0.393   0.567   1.309 -0.1398 -0.8906  0.3653
  559TIP3    H223237   0.290   0.464   1.266 -0.1857 -0.0403 -1.6772
  560TIP3   OH223238   5.631   0.625   8.024  0.6547 -0.1539  0.0681
  560TIP3    H123239   5.679   0.691   8.073  1.0911 -0.1612 -0.3427
  560TIP3    H223240   5.690   0.601   7.952 -0.4780  0.7768 -1.2204
  561TIP3   OH223241   0.269   2.480   2.178 -0.0916  0.0687  0.1561
  561TIP3    H123242   0.179   2.457   2.198 -0.2284 -0.6849 -1.1891
  561TIP3    H223243   0.321   2.437   2.246 -0.5829 -1.7046 -0.5278
  562TIP3   OH223244   5.296   0.940   8.240  0.0048  0.5658  0.3917
  562TIP3    H123245   5.384   0.971   8.221 -0.0204 -0.8179 -2.6232
  562TIP3    H223246   5.307   0.848   8.264 -0.6290  0.0545 -1.1450
  563TIP3   OH223247   1.024   0.980   7.664  0.2085  0.4759 -0.0349
  563TIP3    H123248   1.072   1.053   7.625  0.1766  0.2602 -0.4860
  563TIP3    H223249   0.962   1.022   7.724  0.7806  0.7663  0.3574
  564TIP3   OH223250   6.317   4.253   7.746 -0.2205 -0.2448  0.1039
  564TIP3    H123251   6.410   4.233   7.744  0.1593  1.3490  0.4936
  564TIP3    H223252   6.311   4.337   7.791 -1.6695  0.5177 -1.3911
  565TIP3   OH223253   3.207   2.421   1.872 -0.4244  0.0101 -0.4211
  565TIP3    H123254   3.243   2.498   1.829 -0.8351  0.2442 -0.3420
  565TIP3    H223255   3.272   2.352   1.855  0.5179  0.6410  0.4894
  566TIP3   OH223256   3.449   2.146   0.608  0.7992  0.1690 -0.2083
  566TIP3    H123257   3.453   2.241   0.601  1.3412  0.1669  0.0483
  566TIP3    H223258   3.486   2.115   0.525  2.9867  0.1767  0.7072
  567TIP3   OH223259   5.421   0.263   0.250 -0.0146  0.2040 -0.2414
  567TIP3    H123260   5.447   0.265   0.158  1.1092  0.8917  0.0796
  567TIP3    H223261   5.436   0.352   0.281  0.6281 -0.2830  0.8746
  568TIP3   OH223262   4.536   5.419   1.398 -0.4572 -0.0136 -0.4877
  568TIP3    H123263   4.458   5.381   1.439 -0.0464 -2.1405 -1.5991
  568TIP3    H223264   4.551   5.367   1.319  1.9961  0.4499 -0.4104
  569TIP3   OH223265   4.213   6.843   0.996 -0.1450  0.4532 -0.1059
  569TIP3    H123266   4.199   6.782   0.923  0.3209  0.8256 -0.5179
  569TIP3    H223267   4.237   6.787   1.070 -0.5311  0.0784 -0.2616
  570TIP3   OH223268   0.285   5.077   7.635 -0.5392 -0.3435  0.1313
  570TIP3    H123269   0.342   5.153   7.650  0.9828 -1.1520 -1.2335
  570TIP3    H223270   0.235   5.100   7.556 -0.8629 -0.3286  0.3395
  571TIP3   OH223271   3.542   1.759   0.948 -0.8875 -0.3404  0.1708
  571TIP3    H123272   3.472   1.823   0.936 -0.3154  0.6554  1.7774
  571TIP3    H223273   3.535   1.732   1.040 -0.0051 -1.2369 -0.0052
  572TIP3   OH223274   1.088   5.077   1.884 -0.1064 -0.4111 -0.3151
  572TIP3    H123275   1.128   5.111   1.963 -0.2577  0.0281 -0.4201
  572TIP3    H223276   1.069   5.155   1.831 -0.9546 -0.6148 -0.3308
  573TIP3   OH223277   3.185   6.531   1.243  0.1535  0.2096  0.2013
  573TIP3    H123278   3.218   6.557   1.157 -0.9926  1.0881 -0.0085
  573TIP3    H223279   3.154   6.441   1.231  2.3639 -0.6288  0.4048
  574TIP3   OH223280   5.940   2.856   8.274 -0.6163  0.1431  0.4550
  574TIP3    H123281   5.878   2.817   8.213  1.1073 -1.8532 -0.1371
  574TIP3    H223282   6.020   2.870   8.223  0.3550 -0.0464  1.8339
  575TIP3   OH223283   2.202   6.866   1.055 -0.3471 -0.5355  0.2149
  575TIP3    H123284   2.114   6.850   1.087 -0.6245  1.4849  0.6284
  575TIP3    H223285   2.193   6.944   1.000  1.0475 -0.7998 -0.4289
  576TIP3   OH223286   0.466   5.695   0.221  0.6816 -0.2283  0.3706
  576TIP3    H123287   0.452   5.778   0.267 -1.3642 -0.3209 -0.0071
  576TIP3    H223288   0.381   5.674   0.183  1.0915 -2.6442  0.6552
  577TIP3   OH223289   5.199   3.836   2.906 -0.6555  0.6111  0.5814
  577TIP3    H123290   5.260   3.800   2.970 -0.6080 -2.6459 -1.0887
  577TIP3    H223291   5.113   3.814   2.940 -0.6882  0.3784  0.3519
  578TIP3   OH223292   1.431   4.862   2.392  0.3422  0.6522 -0.4090
  578TIP3    H123293   1.363   4.801   2.362  0.5865  0.9801 -1.7315
  578TIP3    H223294   1.386   4.945   2.401  0.2142  0.4977  0.4335
  579TIP3   OH223295   2.468   3.803   2.865 -0.2843 -0.0510 -0.1541
  579TIP3    H123296   2.379   3.823   2.893 -0.6770  1.3201 -2.1742
  579TIP3    H223297   2.523   3.861   2.916 -0.5315 -0.6985  0.8943
  580TIP3   OH223298   4.200   0.546   1.765  0.2451  0.0946 -1.0612
  580TIP3    H123299   4.234   0.538   1.854 -1.3384  2.8204 -0.0706
  580TIP3    H223300   4.235   0.629   1.734 -0.6763  0.0633 -2.2485
  581TIP3   OH223301   1.911   0.191   1.948  0.1299 -0.4719 -0.6964
  581TIP3    H123302   1.958   0.154   2.023  0.4023  0.4187 -0.4143
  581TIP3    H223303   1.979   0.203   1.882 -0.2975 -2.3365 -1.5445
  582TIP3   OH223304   4.556   3.003   7.864 -0.1878 -0.4827 -0.0187
  582TIP3    H123305   4.506   2.935   7.908 -1.2728  1.5358  2.1006
  582TIP3    H223306   4.498   3.037   7.797  0.3771 -1.6257 -1.1191
  583TIP3   OH223307   0.407   4.319   2.481 -0.1616  0.3849 -0.8043
  583TIP3    H123308   0.395   4.405   2.521  0.5767  0.3885 -0.5685
  583TIP3    H223309   0.330   4.269   2.508  0.8795 -0.0176  1.7601
  584TIP3   OH223310   1.134   1.567   8.062 -0.3421  0.3268  0.0012
  584TIP3    H123311   1.158   1.495   8.121 -2.0543 -2.2043 -2.1906
  584TIP3    H223312   1.218   1.604   8.035  0.8463 -2.8091 -1.0429
  585TIP3   OH223313   0.178   0.711   2.270 -0.0715 -0.1437  0.2217
  585TIP3    H123314   0.166   0.623   2.233  1.4695 -0.3545  0.1750
  585TIP3    H223315   0.090   0.737   2.297 -0.7486 -1.2206 -0.8292
  586TIP3   OH223316   0.700   2.373   1.000  0.0096 -0.3141  0.5746
  586TIP3    H123317   0.792   2.387   1.022 -0.0541 -0.4964  0.9595
  586TIP3    H223318   0.700   2.362   0.904  0.3398  0.0514  0.5284
  587TIP3   OH223319   0.619   3.000   1.960  0.2242  0.1232  0.8976
  587TIP3    H123320   0.682   3.061   1.919 -0.8091  2.1246  2.1303
  587TIP3    H223321   0.623   3.020   2.053 -2.0763  0.1913  1.0455
  588TIP3   OH223322   2.466   3.756   2.082 -0.1982 -1.1442 -0.1365
  588TIP3    H123323   2.464   3.844   2.118 -1.4194 -0.0042 -2.7538
  588TIP3    H223324   2.413   3.704   2.141  1.1594 -0.3693  1.8732
  589TIP3   OH223325   1.687   4.906   2.445 -0.4248 -0.3426 -0.3339
  589TIP3    H123326   1.681   4.991   2.489  0.1564  0.0293 -0.9477
  589TIP3    H223327   1.609   4.902   2.390 -0.2902 -0.0494 -0.5523
  590TIP3   OH223328   0.508   3.999   0.227  0.4381 -0.7879  0.3772
  590TIP3    H123329   0.511   3.923   0.169  1.4351 -0.9476  0.6312
  590TIP3    H223330   0.432   4.049   0.196  1.6406 -0.2226 -1.8977
  591TIP3   OH223331   4.989   5.845   0.921  0.0528  0.4612 -0.0235
  591TIP3    H123332   4.969   5.794   0.841  0.0745 -0.1618  0.3585
  591TIP3    H223333   4.959   5.789   0.992 -0.0521  1.0605  0.4039
  592TIP3   OH223334   0.837   4.394   1.226 -0.2617  0.0012  0.1989
  592TIP3    H123335   0.822   4.434   1.311 -0.2213 -0.1701  0.2871
  592TIP3    H223336   0.889   4.315   1.245  0.2348  0.2673 -0.0407
  593TIP3   OH223337   1.890   4.669   3.131  0.5608  0.7268 -0.3999
  593TIP3    H123338   1.976   4.693   3.164  0.3455  2.4432 -0.9658
  593TIP3    H223339   1.855   4.750   3.093 -1.0868 -0.0491 -0.6568
  594TIP3   OH223340   5.772   0.992   2.643  0.3056  0.5387 -0.3893
  594TIP3    H123341   5.695   0.973   2.589 -0.4612  0.1641  0.7788
  594TIP3    H223342   5.838   0.931   2.613 -1.1839 -2.1268  1.2886
  595TIP3   OH223343   5.163   3.452   2.463  0.4217  0.3636 -0.0893
  595TIP3    H123344   5.131   3.436   2.374  0.9458  1.1577 -0.4231
  595TIP3    H223345   5.092   3.420   2.519 -0.0307  0.1085 -0.7877
  596TIP3   OH223346   2.153   0.087   2.565  0.0043 -0.2338  0.6103
  596TIP3    H123347   2.220   0.074   2.631 -0.1238  0.0463  0.7972
  596TIP3    H223348   2.078   0.124   2.612  0.3530  1.1858  0.1254
  597TIP3   OH223349   1.781   3.538   0.957  0.1266 -0.3390 -0.4373
  597TIP3    H123350   1.754   3.476   0.890  2.7552 -1.6130 -0.4398
  597TIP3    H223351   1.844   3.595   0.913  1.5095 -0.8772  0.7638
  598TIP3   OH223352   3.677   4.718   0.105  0.0439 -0.4137 -0.0628
  598TIP3    H123353   3.602   4.778   0.105 -0.0729 -0.5578  0.4558
  598TIP3    H223354   3.709   4.719   0.196 -0.0865 -1.3018 -0.0018
  599TIP3   OH223355   2.040   6.604   2.839 -0.5403  0.2606 -0.1312
  599TIP3    H123356   2.059   6.514   2.814 -2.4062 -0.2515  0.1104
  599TIP3    H223357   2.123   6.639   2.871  0.1412 -1.4577  0.0594
  600TIP3   OH223358   6.775   5.680   0.644  0.3221 -0.1358  0.2762
  600TIP3    H123359   6.713   5.609   0.660  0.3433 -0.1731  0.1918
  600TIP3    H223360   6.781   5.686   0.549 -0.2936  0.5218  0.2714
  601TIP3   OH223361   4.721   1.659   0.883 -0.1287  0.3084  0.2390
  601TIP3    H123362   4.699   1.723   0.815  0.2418 -1.6173 -1.8143
  601TIP3    H223363   4.778   1.707   0.943 -1.6165  2.4869  0.0312
  602TIP3   OH223364   2.640   3.608   0.093  0.7330 -0.4260  0.5975
  602TIP3    H123365   2.626   3.584   0.002 -1.7729 -0.6011  0.9536
  602TIP3    H223366   2.616   3.530   0.143  2.6067 -0.5273  1.4487
  603TIP3   OH223367   2.292   6.132   1.254 -0.0530 -0.0931 -0.3010
  603TIP3    H123368   2.383   6.106   1.240 -0.4292 -0.4935 -2.2782
  603TIP3    H223369   2.295   6.187   1.332  1.5387 -1.9048  1.0244
  604TIP3   OH223370   0.385   2.527   1.588  0.3043 -0.5775 -0.1129
  604TIP3    H123371   0.468   2.502   1.630 -0.4030 -1.5683  0.7280
  604TIP3    H223372   0.386   2.481   1.504  0.1534 -1.4010  0.3316
  605TIP3   OH223373   3.327   2.691   1.808  0.0635  0.6084 -0.1405
  605TIP3    H123374   3.306   2.710   1.716  2.1193  0.9697 -0.5791
  605TIP3    H223375   3.291   2.765   1.856  1.3553  1.8299 -0.9896
  606TIP3   OH223376   6.365   6.335   8.484 -0.4228  0.1074 -0.4233
  606TIP3    H123377   6.316   6.329   8.566 -0.5902 -1.6227 -0.6029
  606TIP3    H223378   6.454   6.358   8.511 -0.1744 -1.6558  0.4096
  607TIP3   OH223379   3.511   3.042   3.263  0.1998  0.4126 -0.3685
  607TIP3    H123380   3.466   3.049   3.179  1.3805  1.2042 -0.9546
  607TIP3    H223381   3.589   2.989   3.244 -0.1418 -0.4502  0.5076
  608TIP3   OH223382   2.959   1.238   7.386 -0.0983  0.2661 -0.0818
  608TIP3    H123383   2.947   1.220   7.479 -2.6496 -0.5066 -0.4842
  608TIP3    H223384   2.922   1.325   7.374 -1.9731 -0.5590 -0.7006
  609TIP3   OH223385   6.061   0.818   7.532 -0.2319  0.0288 -0.2764
  609TIP3    H123386   6.055   0.747   7.469 -1.2080  1.2077 -1.5822
  609TIP3    H223387   5.971   0.851   7.539  0.4605  2.2949 -1.1540
  610TIP3   OH223388   1.362   2.267   0.566  0.0817 -0.4493  0.1358
  610TIP3    H123389   1.439   2.322   0.578 -0.4724  0.2204  0.7029
  610TIP3    H223390   1.396   2.186   0.527  1.3553 -0.8956  2.0211
  611TIP3   OH223391   1.954   3.978   7.376  0.0176 -0.3885  1.0189
  611TIP3    H123392   2.004   3.944   7.449  0.3329 -1.3957  0.3503
  611TIP3    H223393   1.906   3.903   7.341  1.7992 -0.5536 -1.3516
  612TIP3   OH223394   2.683   2.134   2.484 -0.3792 -0.2000 -0.0178
  612TIP3    H123395   2.708   2.172   2.568  2.5769 -1.6920 -0.0910
  612TIP3    H223396   2.609   2.186   2.455 -0.1921  1.6682  2.5469
  613TIP3   OH223397   5.006   1.206   0.448  0.1913  0.2171  0.3488
  613TIP3    H123398   4.940   1.151   0.490 -0.3660 -0.5073 -1.3732
  613TIP3    H223399   5.089   1.168   0.475 -0.1805 -1.6509 -0.9360
  614TIP3   OH223400   5.875   1.818   1.350  0.4580  0.0525  0.5284
  614TIP3    H123401   5.814   1.888   1.325 -0.3137  0.0591  2.2604
  614TIP3    H223402   5.937   1.813   1.278  0.9066  2.9448  0.5704
  615TIP3   OH223403   4.320   1.404   2.167  0.8572  0.2066  0.1903
  615TIP3    H123404   4.345   1.317   2.137  1.8789  0.6442 -0.2958
  615TIP3    H223405   4.374   1.464   2.115  0.1159  1.1343  0.4557
  616TIP3   OH223406   6.360   5.431   8.251 -0.0130 -0.5805 -0.2488
  616TIP3    H123407   6.336   5.380   8.174  1.3265  0.6301 -1.5473
  616TIP3    H223408   6.440   5.389   8.284  0.1348 -0.3411 -0.2972
  617TIP3   OH223409   3.612   6.089   1.614  0.4092  0.2145  0.5937
  617TIP3    H123410   3.677   6.020   1.606 -0.4937 -0.5011 -1.0817
  617TIP3    H223411   3.635   6.152   1.545  0.2253  0.7302  0.9971
  618TIP3   OH223412   1.373   5.349   1.633 -0.0390  0.2252 -0.4682
  618TIP3    H123413   1.332   5.353   1.720  2.4453  2.0125  0.7588
  618TIP3    H223414   1.306   5.312   1.576 -2.3279  0.4573  1.8909
  619TIP3   OH223415   5.005   1.083   2.376 -0.1145  0.0661 -0.0304
  619TIP3    H123416   4.932   1.119   2.325 -0.4717  0.3230  0.6537
  619TIP3    H223417   4.988   0.989   2.377  0.5241 -0.0902 -1.3557
  620TIP3   OH223418   3.264   0.971   2.803  0.0045  0.6181  0.0013
  620TIP3    H123419   3.268   1.066   2.815  0.1222  0.3493  2.7887
  620TIP3    H223420   3.345   0.948   2.757 -0.1407  1.8503 -0.9201
  621TIP3   OH223421   2.352   3.251   0.754  0.1394 -0.4525 -0.0404
  621TIP3    H123422   2.399   3.265   0.672  2.1457 -0.0852  1.1060
  621TIP3    H223423   2.364   3.332   0.803  0.9736 -1.4696  1.5274
  622TIP3   OH223424   6.196   6.818   1.443  0.0910  0.0086  1.0174
  622TIP3    H123425   6.259   6.871   1.490  0.2397  0.1870  0.6238
  622TIP3    H223426   6.119   6.874   1.435 -0.1541 -0.2383  1.5714
  623TIP3   OH223427   2.231   2.833   3.407 -0.1267  0.7549  0.2697
  623TIP3    H123428   2.255   2.914   3.453  2.2827  0.2359  0.0377
  623TIP3    H223429   2.136   2.840   3.395 -0.3732  2.3649  2.4806
  624TIP3   OH223430   3.800   1.487   2.259  0.0249 -0.3717 -0.4983
  624TIP3    H123431   3.893   1.505   2.253  0.5319 -1.5891  2.2202
  624TIP3    H223432   3.792   1.393   2.242 -0.6735 -0.3355 -0.4314
  625TIP3   OH223433   5.354   4.492   1.088  0.4776  0.2807 -0.0697
  625TIP3    H123434   5.325   4.405   1.059 -0.0040  0.6848 -0.8515
  625TIP3    H223435   5.448   4.485   1.097  0.3918 -0.4450  0.2837
  626TIP3   OH223436   5.832   3.072   8.009  0.6555 -0.2325  0.2333
  626TIP3    H123437   5.886   2.994   8.021 -2.5033 -2.8019 -0.5833
  626TIP3    H223438   5.860   3.108   7.925  1.7170 -0.9302  0.2732
  627TIP3   OH223439   6.312   3.976   2.437 -0.1737 -0.3460 -0.4957
  627TIP3    H123440   6.273   3.903   2.388  0.2236  0.2183 -1.6926
  627TIP3    H223441   6.319   4.047   2.373 -0.2045  0.6276  0.5530
  628TIP3   OH223442   3.489   6.114   2.931  0.5331 -0.5614 -0.3978
  628TIP3    H123443   3.559   6.080   2.987  0.7731 -0.4854 -0.6478
  628TIP3    H223444   3.436   6.169   2.990  0.7902 -0.4724 -0.2466
  629TIP3   OH223445   4.234   0.570   2.087  0.1334  0.5796  0.4833
  629TIP3    H123446   4.139   0.586   2.093  0.2151  0.8747  1.0722
  629TIP3    H223447   4.272   0.632   2.150  0.7002  0.2941  0.4221
  630TIP3   OH223448   5.006   0.277   2.132 -0.1242  0.0686 -0.2843
  630TIP3    H123449   4.995   0.268   2.037  2.6403  1.6805 -0.8672
  630TIP3    H223450   5.065   0.352   2.143 -1.8603  1.1809  2.8420
  631TIP3   OH223451   5.011   2.343   1.404 -0.0197 -0.0970 -0.4798
  631TIP3    H123452   5.063   2.263   1.413 -0.8215 -0.6385 -0.5400
  631TIP3    H223453   5.066   2.412   1.441  0.8704 -0.5957 -0.8439
  632TIP3   OH223454   5.793   0.336   1.363 -0.2699  0.2095 -0.2158
  632TIP3    H123455   5.784   0.248   1.327  0.8828  0.6880 -1.7715
  632TIP3    H223456   5.704   0.371   1.365 -0.4341  0.0031 -2.2664
  633TIP3   OH223457   1.492   4.044   1.403  0.1869  0.0858  0.3293
  633TIP3    H123458   1.424   4.057   1.337 -0.8369 -0.5975  1.2102
  633TIP3    H223459   1.508   3.950   1.403  0.8485  0.1987  0.4053
  634TIP3   OH223460   1.359   5.711   2.491  0.2027  0.2130  0.5427
  634TIP3    H123461   1.337   5.690   2.582  1.3726  0.7356  0.9703
  634TIP3    H223462   1.385   5.803   2.493  0.8822  0.0518 -0.1898
  635TIP3   OH223463   3.842   1.154   8.523 -0.0473 -0.2997 -0.1979
  635TIP3    H123464   3.924   1.129   8.483 -0.3967 -1.6401 -0.1059
  635TIP3    H223465   3.780   1.086   8.496 -1.1761  0.7817 -0.4238
  636TIP3   OH223466   0.063   5.957   3.430  0.0228 -0.5696 -0.0478
  636TIP3    H123467   0.097   6.037   3.472  0.1410 -0.4115 -0.4435
  636TIP3    H223468   0.056   5.894   3.502  1.9563 -0.8843 -0.0829
  637TIP3   OH223469   2.415   0.046   1.429 -0.4036  0.0989  0.3613
  637TIP3    H123470   2.501   0.087   1.430 -0.5714  0.5242 -1.1130
  637TIP3    H223471   2.430  -0.044   1.459  0.8694 -0.3851 -1.6047
  638TIP3   OH223472   3.429   2.477   7.233 -0.2833  0.7433 -0.2742
  638TIP3    H123473   3.361   2.422   7.194 -1.1516  0.2788  1.7681
  638TIP3    H223474   3.382   2.557   7.260 -0.0001  0.5208  0.9328
  639TIP3   OH223475   2.564   0.650   7.126 -0.8952  0.1941 -0.8249
  639TIP3    H123476   2.538   0.585   7.192  0.4111  1.1621  0.7356
  639TIP3    H223477   2.658   0.640   7.119 -0.5488  2.2767 -0.0587
  640TIP3   OH223478   1.094   3.161   0.830 -0.2243 -0.3932 -0.1561
  640TIP3    H123479   1.146   3.106   0.890  0.1385 -1.0882 -1.0840
  640TIP3    H223480   1.146   3.241   0.820  0.3176 -0.7798 -0.4936
  641TIP3   OH223481   4.083   1.073   8.473  0.7853 -0.2269 -0.1694
  641TIP3    H123482   4.114   1.072   8.382  0.0093  0.6050 -0.4540
  641TIP3    H223483   4.152   1.119   8.521  1.2628 -0.7921 -0.3125
  642TIP3   OH223484   6.499   2.288   2.672  0.1778 -0.3799 -0.1583
  642TIP3    H123485   6.446   2.225   2.624  0.7000 -1.3423  0.5106
  642TIP3    H223486   6.571   2.237   2.709  0.2196  0.4755  0.9890
  643TIP3   OH223487   6.306   0.107   1.923  0.1033  0.0647  0.0599
  643TIP3    H123488   6.304   0.149   1.837 -0.3643  0.8421  0.4434
  643TIP3    H223489   6.319   0.014   1.904 -0.4850  0.1664 -0.8710
  644TIP3   OH223490   2.927   0.986   7.927  0.1614  0.7770  0.7629
  644TIP3    H123491   2.853   1.032   7.888 -0.1123 -1.1956 -1.2366
  644TIP3    H223492   3.004   1.033   7.896 -0.0684 -0.5079 -2.0801
  645TIP3   OH223493   1.121   2.907   8.239 -0.2026 -0.0985  0.3705
  645TIP3    H123494   1.076   2.880   8.318 -0.1647 -0.9146  0.1218
  645TIP3    H223495   1.125   2.828   8.185  0.3439  0.2853 -0.1699
  646TIP3   OH223496   6.647   5.730   2.076  0.6798  0.3116 -0.2068
  646TIP3    H123497   6.704   5.693   2.009  0.3918  0.6420 -0.6391
  646TIP3    H223498   6.559   5.706   2.049  0.6920 -1.7040  1.3944
  647TIP3   OH223499   2.130   5.977   7.507  0.0096  0.3214  0.2447
  647TIP3    H123500   2.172   6.060   7.531  0.2180  0.4047 -0.3996
  647TIP3    H223501   2.036   5.993   7.521  0.1149  0.4049  0.8823
  648TIP3   OH223502   4.788   4.829   1.927  0.2070  0.0923 -0.0492
  648TIP3    H123503   4.772   4.920   1.903 -1.1912 -0.8786 -3.4487
  648TIP3    H223504   4.879   4.828   1.957  0.6649  2.4057 -1.1242
  649TIP3   OH223505   1.034   0.050   8.015  0.2725 -0.0421  0.0370
  649TIP3    H123506   1.080  -0.029   7.987 -0.5954 -0.3859 -0.4663
  649TIP3    H223507   1.042   0.050   8.110  0.4752 -0.6167  0.0239
  650TIP3   OH223508   4.536   5.949   0.383  0.0774 -0.4928 -0.4192
  650TIP3    H123509   4.626   5.982   0.387  0.0952 -0.4392 -1.1672
  650TIP3    H223510   4.541   5.874   0.324 -0.7969  1.0110 -2.5306
  651TIP3   OH223511   2.610   1.601   8.074 -0.3589  0.2148 -0.7165
  651TIP3    H123512   2.621   1.606   8.169 -0.2147 -2.6313 -0.4941
  651TIP3    H223513   2.566   1.518   8.059  0.3754  0.1919 -3.2039
  652TIP3   OH223514   3.860   3.930   1.629 -0.0476  0.5036 -0.0444
  652TIP3    H123515   3.936   3.986   1.643  0.3439  0.0664 -0.3806
  652TIP3    H223516   3.785   3.988   1.641  0.3502  1.0890 -0.3503
  653TIP3   OH223517   6.029   0.282   0.772 -0.1354  0.2948 -0.2795
  653TIP3    H123518   6.119   0.249   0.775 -0.3131 -0.1515  0.5456
  653TIP3    H223519   6.001   0.267   0.682  0.3771 -0.2253 -0.3611
  654TIP3   OH223520   6.612   3.631   2.731 -0.4321 -0.0639 -0.8176
  654TIP3    H123521   6.541   3.695   2.728 -1.8942 -1.6017 -0.9026
  654TIP3    H223522   6.569   3.547   2.712  0.9904 -1.3923  1.3503
  655TIP3   OH223523   5.807   2.773   7.948 -0.0169 -0.2900 -0.0594
  655TIP3    H123524   5.798   2.810   7.860 -1.8008 -0.6688 -0.0716
  655TIP3    H223525   5.902   2.773   7.964  0.2771  0.8112 -1.5231
  656TIP3   OH223526   5.017   4.747   2.978 -0.4409  0.3511  0.1440
  656TIP3    H123527   5.089   4.767   3.039  0.2504 -1.4667  0.0153
  656TIP3    H223528   4.939   4.746   3.033  0.5512 -4.7631  2.0320
  657TIP3   OH223529   3.634   5.649   2.127  0.1877 -0.2364  0.1645
  657TIP3    H123530   3.696   5.577   2.131  0.3755 -0.0377  0.8461
  657TIP3    H223531   3.611   5.667   2.218  0.1743  0.5815  0.0076
  658TIP3   OH223532   0.615   2.164   1.867 -0.2174 -0.2116 -0.0684
  658TIP3    H123533   0.559   2.235   1.900 -0.2830 -0.4692  0.3773
  658TIP3    H223534   0.704   2.199   1.874 -0.1386 -0.6285  1.3491
  659TIP3   OH223535   5.194   3.728   2.525  0.5650 -0.0619  0.4402
  659TIP3    H123536   5.257   3.777   2.577 -0.9708  1.2586  1.1189
  659TIP3    H223537   5.171   3.653   2.580 -0.3838  0.8507  1.3165
  660TIP3   OH223538   2.382   3.674   3.457 -0.3208 -0.1421  0.3666
  660TIP3    H123539   2.310   3.737   3.457  0.8134  1.2244  1.5062
  660TIP3    H223540   2.343   3.592   3.486 -1.5777  0.3400  0.0772
  661TIP3   OH223541   0.770   4.084   0.850 -0.1557  0.1024  0.0594
  661TIP3    H123542   0.843   4.023   0.861  0.1395  0.3382 -0.5461
  661TIP3    H223543   0.775   4.142   0.926  0.9143  0.7467 -0.4730
  662TIP3   OH223544   2.865   6.264   2.234  0.1491 -0.5032 -0.4757
  662TIP3    H123545   2.851   6.327   2.304 -0.2961  0.7710 -1.6635
  662TIP3    H223546   2.816   6.300   2.160  0.9400 -1.5879 -1.5545
  663TIP3   OH223547   4.086   5.963   1.117 -0.0761  0.6551  0.5175
  663TIP3    H123548   4.056   5.891   1.061  0.7820 -0.2675  1.2076
  663TIP3    H223549   4.149   6.010   1.063  0.1284  0.2704  0.4177
  664TIP3   OH223550   5.426   3.459   2.096 -0.0152  0.1742 -0.1014
  664TIP3    H123551   5.410   3.532   2.035 -0.6738  0.6533  0.6191
  664TIP3    H223552   5.375   3.482   2.174  1.1194 -0.2248  0.7883
  665TIP3   OH223553   2.593   5.768   0.483  0.0189 -0.0502 -0.6732
  665TIP3    H123554   2.658   5.814   0.429  0.6930  1.2809  1.1841
  665TIP3    H223555   2.550   5.837   0.533 -1.3572 -1.1383 -0.2790
  666TIP3   OH223556   2.406   4.846   0.873  0.6810  0.3822  0.6653
  666TIP3    H123557   2.317   4.860   0.904  0.2008  0.0682 -0.5296
  666TIP3    H223558   2.449   4.931   0.885 -0.3872  1.1433 -0.6551
  667TIP3   OH223559   1.025   3.708   7.407 -0.0758 -0.6159  0.6222
  667TIP3    H123560   1.029   3.770   7.334 -0.3274  0.3848  1.4359
  667TIP3    H223561   1.054   3.625   7.370  0.3799  0.0158 -0.4675
  668TIP3   OH223562   6.383   2.847   0.051  0.1481  0.3903 -0.6746
  668TIP3    H123563   6.408   2.800  -0.028  0.1143 -1.8369  0.5533
  668TIP3    H223564   6.293   2.821   0.067  0.7057 -0.6859  1.0268
  669TIP3   OH223565   1.775   1.740   2.473 -0.2687  0.1490  0.1181
  669TIP3    H123566   1.816   1.727   2.558  1.3024  2.0598 -0.2755
  669TIP3    H223567   1.848   1.747   2.412 -1.3149  0.1268 -1.1850
  670TIP3   OH223568   3.924   1.115   1.074 -0.1757  0.3312  0.1683
  670TIP3    H123569   3.934   1.180   1.005 -3.3282  0.6356 -0.1577
  670TIP3    H223570   3.859   1.053   1.039 -0.8995 -0.2249  2.3325
  671TIP3   OH223571   0.905   0.363   0.259 -0.5854  0.1522 -0.0475
  671TIP3    H123572   0.921   0.333   0.349 -1.5675 -1.1653 -0.2805
  671TIP3    H223573   0.978   0.326   0.208 -0.1900  0.6522  0.1474
  672TIP3   OH223574   3.789   2.774   1.092 -0.1332  0.1582 -0.2678
  672TIP3    H123575   3.849   2.700   1.096  0.7261  0.8354 -0.4101
  672TIP3    H223576   3.702   2.734   1.097  0.2368 -1.0071 -2.2299
  673TIP3   OH223577   3.762   0.095   0.690  0.4609  0.4972  0.0742
  673TIP3    H123578   3.726   0.180   0.662  0.3328 -0.2471 -2.1446
  673TIP3    H223579   3.685   0.047   0.723  0.3967  0.9212  0.5619
  674TIP3   OH223580   2.539   5.286   1.370  0.1210  0.9057 -0.2832
  674TIP3    H123581   2.520   5.199   1.335  0.3303  0.2701  1.1383
  674TIP3    H223582   2.585   5.270   1.452  1.2026  2.3766 -0.5657
  675TIP3   OH223583   5.124   0.614   0.199 -0.5079  0.2329  0.1499
  675TIP3    H123584   5.053   0.618   0.263 -1.5025 -1.6868 -0.7281
  675TIP3    H223585   5.175   0.538   0.226  0.9900  1.3387  0.5083
  676TIP3   OH223586   1.607   0.804   2.057  0.1394  0.6546 -0.6895
  676TIP3    H123587   1.548   0.879   2.054  0.6221  1.0359 -0.8274
  676TIP3    H223588   1.657   0.815   2.138  2.0986  1.9719 -1.9925
  677TIP3   OH223589   4.111   5.860   1.830 -0.4000  0.1120 -0.0083
  677TIP3    H123590   4.205   5.880   1.832 -0.6623  1.4092  0.0597
  677TIP3    H223591   4.076   5.918   1.763 -1.2255 -0.0583  0.2721
  678TIP3   OH223592   3.276   0.562   1.268  0.7198 -0.5281 -0.2909
  678TIP3    H123593   3.270   0.657   1.259  0.4401 -0.4846  0.3212
  678TIP3    H223594   3.250   0.544   1.358  2.1519 -1.0642  0.0469
  679TIP3   OH223595   5.440   1.291   7.602 -0.1033  0.4015 -0.2250
  679TIP3    H123596   5.381   1.276   7.676 -0.2846 -0.1323 -0.4722
  679TIP3    H223597   5.509   1.226   7.614 -0.8419 -0.6086 -1.2590
  680TIP3   OH223598   3.143   6.839   2.340 -0.3272  0.4378 -0.1885
  680TIP3    H123599   3.170   6.768   2.283 -1.7035 -0.2793  0.0054
  680TIP3    H223600   3.150   6.803   2.428  0.8781  1.2227  0.0530
  681TIP3   OH223601   2.268   5.408   2.277 -0.1266 -0.0700 -0.3216
  681TIP3    H123602   2.280   5.469   2.204  1.8210  0.8738  0.7076
  681TIP3    H223603   2.287   5.459   2.355 -1.3385 -1.2805  0.8265
  682TIP3   OH223604   5.591   2.301   8.427 -0.2559 -0.1932  0.9227
  682TIP3    H123605   5.546   2.217   8.429 -2.8849  1.0646 -0.7057
  682TIP3    H223606   5.588   2.332   8.517 -1.9837 -0.5378  1.0212
  683TIP3   OH223607   0.564   0.575   3.540  0.2458  0.2314 -0.0066
  683TIP3    H123608   0.500   0.646   3.541  0.3717  0.3487 -0.2081
  683TIP3    H223609   0.639   0.609   3.588  0.3561  0.2831 -0.2131
  684TIP3   OH223610   2.216   3.864   3.027  0.6143  0.1822  0.0116
  684TIP3    H123611   2.282   3.848   3.094  0.4791 -0.5757 -0.0274
  684TIP3    H223612   2.182   3.951   3.048 -0.7107 -0.7412  2.0694
  685TIP3   OH223613   3.035   3.835   2.868  0.4490  0.4235  0.8055
  685TIP3    H123614   3.042   3.900   2.938  0.9993  0.9774  0.2523
  685TIP3    H223615   3.092   3.763   2.897 -1.1110 -0.3936  2.0013
  686TIP3   OH223616   1.295   3.811   1.016  0.2089 -0.2050 -0.0496
  686TIP3    H123617   1.260   3.767   0.939  0.6116 -1.7633  0.6150
  686TIP3    H223618   1.388   3.791   1.015  0.3066  0.1720  0.5872
  687TIP3   OH223619   3.554   0.405   2.476 -0.2369  0.0149 -0.1029
  687TIP3    H123620   3.495   0.346   2.428 -0.0080  0.0234 -0.3964
  687TIP3    H223621   3.495   0.470   2.514 -0.6834 -1.3131  1.6034
  688TIP3   OH223622   5.195   0.096   7.938  0.6701  0.1990 -0.1022
  688TIP3    H123623   5.246   0.172   7.968  1.3297  0.3399 -1.5087
  688TIP3    H223624   5.219   0.086   7.846  1.8034 -2.6885  0.4137
  689TIP3   OH223625   2.338   0.866   8.375 -0.1634 -0.3545 -0.5007
  689TIP3    H123626   2.324   0.952   8.336 -2.7159 -1.5260 -2.5371
  689TIP3    H223627   2.431   0.849   8.365 -0.0298  1.1527 -2.4110
  690TIP3   OH223628   0.948   1.493   0.483 -0.0985 -0.7738  0.8042
  690TIP3    H123629   0.960   1.563   0.548  2.0149 -1.1022  0.8319
  690TIP3    H223630   0.853   1.489   0.470 -0.6212 -0.6498  3.8345
  691TIP3   OH223631   1.032   4.492   0.034  0.2790  0.3905 -0.4966
  691TIP3    H123632   1.077   4.422  -0.014 -0.0960  0.5554 -1.0917
  691TIP3    H223633   1.067   4.572  -0.003  2.4215  0.6113  1.7053
  692TIP3   OH223634   5.026   3.683   0.242 -0.8134  0.0091  0.2316
  692TIP3    H123635   4.940   3.674   0.283 -0.3868 -1.6083  0.8367
  692TIP3    H223636   5.057   3.593   0.229  0.5757  0.5419 -0.4549
  693TIP3   OH223637   2.096   6.009   0.338  0.1828 -0.4608  0.3896
  693TIP3    H123638   2.008   5.992   0.303  0.1150 -2.7279  1.5255
  693TIP3    H223639   2.153   5.951   0.288  1.0526  0.8636 -0.2078
  694TIP3   OH223640   4.668   2.120   1.806 -0.0342 -1.0689  0.0007
  694TIP3    H123641   4.591   2.092   1.756  0.2874 -2.3656  0.1931
  694TIP3    H223642   4.634   2.134   1.895 -0.1175 -1.2925  0.0056
  695TIP3   OH223643   0.607   1.239   0.789 -0.9523 -0.5862 -0.0658
  695TIP3    H123644   0.646   1.271   0.871  0.6955 -0.9019 -0.6864
  695TIP3    H223645   0.672   1.178   0.754 -1.0198  0.4887 -2.2461
  696TIP3   OH223646   3.759   4.990   0.061  0.3827  0.4314  0.1621
  696TIP3    H123647   3.664   4.973   0.060  0.4016  0.2610  0.7443
  696TIP3    H223648   3.772   5.045   0.138  0.8883 -0.4132  0.7005
  697TIP3   OH223649   4.431   1.155   2.699 -0.0084 -0.3702 -0.3367
  697TIP3    H123650   4.504   1.157   2.637  0.2193 -0.9415 -0.0954
  697TIP3    H223651   4.421   1.246   2.727  0.6489 -0.2936 -0.3285
  698TIP3   OH223652   1.410   2.699   8.470 -0.6971  1.0047  0.6472
  698TIP3    H123653   1.475   2.768   8.473  0.2787  0.0893  1.2463
  698TIP3    H223654   1.418   2.660   8.383  0.8624 -0.2771  1.3056
  699TIP3   OH223655   6.743   3.027   1.519 -0.2685 -0.2191 -0.5582
  699TIP3    H123656   6.656   3.004   1.484 -0.2046  0.6873 -1.3562
  699TIP3    H223657   6.788   2.943   1.527 -0.8887 -0.6138 -1.0600
  700TIP3   OH223658   5.321   2.417   1.501 -0.1495  0.0062 -0.4301
  700TIP3    H123659   5.307   2.475   1.576 -0.9941  0.0054 -0.5708
  700TIP3    H223660   5.343   2.332   1.539  1.3446  0.4555 -0.2244
  701TIP3   OH223661   0.237   4.013   1.069  0.1315  0.9436  0.1946
  701TIP3    H123662   0.143   3.996   1.066  0.5003 -1.3642 -0.2854
  701TIP3    H223663   0.252   4.050   1.156 -1.1174  0.6163  0.5692
  702TIP3   OH223664   0.395   2.435   0.340 -0.3519 -0.2386  0.3252
  702TIP3    H123665   0.310   2.405   0.308 -0.5853 -1.1227  1.6820
  702TIP3    H223666   0.378   2.524   0.373 -0.4841  0.0257 -0.4506
  703TIP3   OH223667   5.294   4.983   2.120  0.3402  0.0342 -0.4774
  703TIP3    H123668   5.318   5.007   2.209  2.3637 -0.1338 -0.9202
  703TIP3    H223669   5.370   4.935   2.087 -0.2132  0.3853 -2.4043
  704TIP3   OH223670   4.519   3.817   0.648  0.0932  0.5661  0.1540
  704TIP3    H123671   4.614   3.819   0.639  0.0510  1.8027 -0.1338
  704TIP3    H223672   4.502   3.852   0.735 -0.0615 -0.5774  0.5946
  705TIP3   OH223673   1.230   5.221   8.148  0.3320  0.2877 -0.2234
  705TIP3    H123674   1.135   5.212   8.149  0.4785 -1.8120 -0.3090
  705TIP3    H223675   1.252   5.251   8.236 -0.2964 -1.3483  0.5464
  706TIP3   OH223676   5.055   4.660   8.129  0.2829 -0.0533 -0.2221
  706TIP3    H123677   4.967   4.687   8.155  0.5340  0.9622 -0.3829
  706TIP3    H223678   5.101   4.644   8.212  0.2510  0.4165 -0.1134
  707TIP3   OH223679   6.016   1.753   0.538  0.1166  0.0769 -0.4563
  707TIP3    H123680   6.093   1.698   0.547  0.4819  0.6979  0.3515
  707TIP3    H223681   5.955   1.721   0.605  0.6683  1.1735  0.6112
  708TIP3   OH223682   1.498   4.650   0.675 -0.6894  0.6371 -0.4743
  708TIP3    H123683   1.457   4.735   0.657  1.0452  1.7506  0.4937
  708TIP3    H223684   1.586   4.672   0.705  1.0672 -1.6450 -3.3928
  709TIP3   OH223685   0.013   5.875   0.041  0.2840  0.2675 -0.4785
  709TIP3    H123686   0.096   5.826   0.042  1.0332  1.4457 -1.2263
  709TIP3    H223687   0.010   5.919   0.126 -1.2313 -2.3020  0.9162
  710TIP3   OH223688   3.917   4.237   0.277 -0.0310  0.4002 -0.2433
  710TIP3    H123689   3.986   4.304   0.279  0.1122  0.2543 -0.2519
  710TIP3    H223690   3.842   4.281   0.237 -0.2325  0.8339  0.5987
  711TIP3   OH223691   1.406   5.140   2.382 -0.2092 -0.5548 -0.4680
  711TIP3    H123692   1.430   5.232   2.366  1.8389 -0.9770 -0.0932
  711TIP3    H223693   1.370   5.110   2.298  0.0868  0.2974 -0.9145
  712TIP3   OH223694   6.201   0.077   1.046 -0.6327 -0.3541 -0.3072
  712TIP3    H123695   6.281   0.110   1.007  1.3727 -0.0356  3.5590
  712TIP3    H223696   6.167   0.013   0.983  2.2873 -0.0206 -2.3921
  713TIP3   OH223697   0.159   4.327   7.692 -0.5864  0.6018  0.3294
  713TIP3    H123698   0.117   4.324   7.777  1.5831  0.8083  1.4888
  713TIP3    H223699   0.170   4.235   7.668 -2.7999  0.5271 -0.6496
  714TIP3   OH223700   5.728   6.615   7.368 -0.4119 -0.0116 -0.5128
  714TIP3    H123701   5.696   6.601   7.279 -1.5167 -1.7095  0.0991
  714TIP3    H223702   5.652   6.597   7.424  0.4580  0.2765  0.8081
  715TIP3   OH223703   3.189   3.598   1.291 -0.2277 -0.1610  0.0492
  715TIP3    H123704   3.123   3.571   1.355  0.1769 -0.8660  0.1828
  715TIP3    H223705   3.230   3.516   1.263  0.6035  0.2663 -0.0168
  716TIP3   OH223706   0.947   4.508   7.208 -0.0898  0.0540 -0.6717
  716TIP3    H123707   0.952   4.594   7.167  1.1000  0.1612 -0.3223
  716TIP3    H223708   0.892   4.456   7.149 -0.3796  0.8944 -1.1481
  717TIP3   OH223709   5.870   6.874   0.463 -0.3438  0.5266 -0.1050
  717TIP3    H123710   5.825   6.958   0.461 -0.5967  0.3815 -1.3274
  717TIP3    H223711   5.892   6.856   0.372  2.2806  0.6213  0.4368
  718TIP3   OH223712   1.850   0.903   2.941  0.5768 -0.1378 -0.0940
  718TIP3    H123713   1.906   0.976   2.916  1.5217 -0.2631  1.5091
  718TIP3    H223714   1.791   0.940   3.007  0.6707 -0.6783  0.2971
  719TIP3   OH223715   1.576   6.802   0.772  0.5095 -0.4677  0.0248
  719TIP3    H123716   1.616   6.857   0.839  1.8778 -1.9276  0.4869
  719TIP3    H223717   1.649   6.778   0.714 -0.5271  0.2452 -1.6569
  720TIP3   OH223718   3.849   6.510   0.258 -0.4610 -0.1949  0.3171
  720TIP3    H123719   3.754   6.517   0.261 -0.7514  2.3922 -4.4907
  720TIP3    H223720   3.881   6.596   0.285  0.7979 -1.3864  3.0888
  721TIP3   OH223721   2.002   1.704   1.865  0.1493  0.6315  0.1567
  721TIP3    H123722   1.927   1.677   1.812 -0.7291  2.4833  0.4069
  721TIP3    H223723   1.975   1.686   1.955  0.8343 -0.5822  0.1438
  722TIP3   OH223724   0.811   5.485   2.727 -0.0982 -0.4446  0.3518
  722TIP3    H123725   0.801   5.404   2.777  0.2895  0.0976  1.3379
  722TIP3    H223726   0.748   5.545   2.766  1.2537  0.4574  1.2456
  723TIP3   OH223727   4.386   0.005   2.770 -0.2264 -0.3326  0.5083
  723TIP3    H123728   4.327   0.078   2.751  0.2365 -0.5168 -2.0082
  723TIP3    H223729   4.413   0.019   2.860 -0.9917  2.0101  0.4469
  724TIP3   OH223730   3.449   6.898   3.181  0.1883 -0.0586  0.0506
  724TIP3    H123731   3.426   6.813   3.218 -0.3677 -0.0392 -0.2396
  724TIP3    H223732   3.385   6.912   3.111  0.8793  0.1532 -0.5577
  725TIP3   OH223733   4.092   6.374   0.634  0.1318 -0.3659  0.6682
  725TIP3    H123734   4.006   6.415   0.628 -0.7330 -1.8000  2.3942
  725TIP3    H223735   4.154   6.446   0.618 -1.3338  1.4125  2.4234
  726TIP3   OH223736   3.076   1.276   8.320  0.5098 -0.8508  0.0884
  726TIP3    H123737   3.019   1.199   8.318  0.0797 -0.5802  1.3517
  726TIP3    H223738   3.130   1.263   8.397 -1.8366  1.6725  2.3466
  727TIP3   OH223739   2.940   5.295   0.478  0.3322 -0.0819  0.3498
  727TIP3    H123740   2.915   5.368   0.535  0.9711  0.5343 -0.1438
  727TIP3    H223741   2.937   5.331   0.390  1.2930 -0.4709  0.1505
  728TIP3   OH223742   0.403   0.829   2.395  0.5692  0.0856 -0.3661
  728TIP3    H123743   0.471   0.833   2.328  0.2916 -1.6831 -0.8113
  728TIP3    H223744   0.326   0.797   2.348 -0.0021  0.0956  0.5456
  729TIP3   OH223745   0.015   4.543   0.870  0.0657  0.3922 -0.2937
  729TIP3    H123746   0.094   4.566   0.822  0.2287  1.0742  0.2794
  729TIP3    H223747  -0.053   4.601   0.835 -0.3342 -0.6041 -1.2040
  730TIP3   OH223748   2.713   6.537   8.226  0.1321 -0.7287 -0.5703
  730TIP3    H123749   2.632   6.509   8.183 -0.8993  0.6346  0.3951
  730TIP3    H223750   2.683   6.589   8.300  1.8562 -2.6500  1.5865
  731TIP3   OH223751   6.394   4.222   0.651 -0.6415 -0.3917 -0.3724
  731TIP3    H123752   6.463   4.249   0.590 -1.5784  0.8747 -0.9211
  731TIP3    H223753   6.390   4.292   0.715  0.4028 -1.7629  1.2535
  732TIP3   OH223754   3.847   3.605   0.831  0.0841 -0.8348  0.4579
  732TIP3    H123755   3.793   3.576   0.905 -0.0208 -0.6672  0.4480
  732TIP3    H223756   3.843   3.532   0.769 -1.5280 -0.1500 -0.2872
  733TIP3   OH223757   5.895   6.048   3.054 -0.1108  0.3556 -0.8498
  733TIP3    H123758   5.882   6.097   2.973 -0.1302 -1.0623 -1.7317
  733TIP3    H223759   5.807   6.016   3.077  0.2546 -1.4506 -1.7527
  734TIP3   OH223760   5.908   5.376   0.237 -0.0990  0.1457 -0.2537
  734TIP3    H123761   6.000   5.401   0.229  0.2526 -1.1385 -0.5476
  734TIP3    H223762   5.866   5.414   0.160 -0.3678  2.8646  1.1284
  735TIP3   OH223763   1.165   2.257   7.362 -0.0904  0.0237  0.9486
  735TIP3    H123764   1.219   2.180   7.378 -0.1854  0.1639  1.9814
  735TIP3    H223765   1.150   2.256   7.267  2.3611  0.4438  0.4938
  736TIP3   OH223766   4.410   2.717   2.691 -0.4625  0.4597 -0.1614
  736TIP3    H123767   4.435   2.699   2.782 -1.1936  0.6200  0.0807
  736TIP3    H223768   4.428   2.810   2.679  3.2985 -0.2644 -1.4070
  737TIP3   OH223769   1.005   2.209   2.436 -0.3311  0.1567 -0.1558
  737TIP3    H123770   0.946   2.134   2.428  0.6722 -0.8335  1.2311
  737TIP3    H223771   0.949   2.286   2.422 -1.7194 -0.7814  0.0893
  738TIP3   OH223772   2.716   6.158   0.491  0.3677 -0.3895  0.2725
  738TIP3    H123773   2.673   6.079   0.456 -0.3854 -0.7326  1.9018
  738TIP3    H223774   2.644   6.218   0.509  0.8963  0.4581 -0.3703
  739TIP3   OH223775   5.249   1.043   7.917 -0.0931  0.3752 -0.3773
  739TIP3    H123776   5.204   0.976   7.866  1.2507 -0.9016  0.0261
  739TIP3    H223777   5.226   1.022   8.008 -0.0985  0.8024 -0.2797
  740TIP3   OH223778   1.772   6.428   1.219  0.0498 -0.2388 -0.2790
  740TIP3    H123779   1.725   6.354   1.181  0.2879 -0.9777  0.8155
  740TIP3    H223780   1.779   6.492   1.148 -3.8960  0.5569 -0.1441
  741TIP3   OH223781   6.017   5.945   3.653 -0.2229  1.1612  0.4627
  741TIP3    H123782   6.001   5.866   3.705  0.7270  0.0966 -0.7963
  741TIP3    H223783   5.936   5.958   3.604 -0.6681  1.4470  1.2539
  742TIP3   OH223784   4.812   5.679   8.119  0.2528 -0.2478  0.0752
  742TIP3    H123785   4.779   5.606   8.067  1.5403  0.1292 -1.3657
  742TIP3    H223786   4.811   5.648   8.209  0.5759 -1.9566 -0.4851
  743TIP3   OH223787   5.661   4.766   0.959  0.4780  0.2078  0.4386
  743TIP3    H123788   5.637   4.681   0.921  0.7484  0.5432 -0.5005
  743TIP3    H223789   5.667   4.749   1.053  2.9050 -1.4292  0.0905
  744TIP3   OH223790   1.572   6.302   0.348 -0.1604 -0.8514 -0.6775
  744TIP3    H123791   1.539   6.389   0.372  0.9461 -0.8591  1.0056
  744TIP3    H223792   1.521   6.279   0.270 -0.7896  1.1113 -0.9251
  745TIP3   OH223793   4.081   2.675   2.699 -0.0367  0.6590 -0.3791
  745TIP3    H123794   4.106   2.707   2.786 -1.7144  2.1560 -0.3913
  745TIP3    H223795   4.153   2.617   2.674 -0.0547 -0.7705  2.4786
  746TIP3   OH223796   6.032   6.634   1.598  0.2002  0.0914  0.0723
  746TIP3    H123797   5.990   6.556   1.561  0.2053 -0.6974  1.6271
  746TIP3    H223798   6.069   6.680   1.523 -2.3199  0.1545 -1.2254
  747TIP3   OH223799   1.370   3.190   0.543 -0.3334 -0.3007  0.0730
  747TIP3    H123800   1.275   3.188   0.555 -0.8823  0.8466 -3.2085
  747TIP3    H223801   1.400   3.260   0.602 -1.7970  0.6184 -0.2391
  748TIP3   OH223802   2.969   3.251   2.223 -0.4571 -0.4449 -0.0912
  748TIP3    H123803   2.982   3.280   2.133  3.4776 -1.8592 -0.1594
  748TIP3    H223804   2.989   3.157   2.222 -1.4548 -0.7458  2.0716
  749TIP3   OH223805   1.283   6.113   1.753 -0.4473  0.1428  0.0274
  749TIP3    H123806   1.288   6.029   1.798  5.5343  0.8701  1.6293
  749TIP3    H223807   1.341   6.103   1.677  0.1763  2.6084  0.0784
  750TIP3   OH223808   3.547   5.108   2.799 -0.1607 -0.7369 -0.2267
  750TIP3    H123809   3.473   5.133   2.743 -0.2650  1.5289  0.7890
  750TIP3    H223810   3.607   5.063   2.740 -0.5584  0.9727 -2.0553
  751TIP3   OH223811   3.738   6.615   8.048 -0.2271 -0.3017 -0.0776
  751TIP3    H123812   3.774   6.639   8.134 -0.4472  0.8887 -0.3115
  751TIP3    H223813   3.725   6.520   8.054 -1.5943 -0.0564  1.7436
  752TIP3   OH223814   5.381   4.728   0.651 -0.0920  0.3140  0.1026
  752TIP3    H123815   5.465   4.684   0.637 -0.6541 -0.2637 -1.7267
  752TIP3    H223816   5.322   4.657   0.676 -0.0816  0.7095  1.3226
  753TIP3   OH223817   4.801   6.709   3.417 -0.5750  0.0002  0.0220
  753TIP3    H123818   4.838   6.685   3.502  1.5019  1.4485 -0.3843
  753TIP3    H223819   4.753   6.790   3.434 -0.2458  0.2350 -0.1504
  754TIP3   OH223820   5.979   4.998   1.997 -0.0673 -0.3602  0.4585
  754TIP3    H123821   5.987   4.905   2.019  1.3278 -1.0065 -2.3479
  754TIP3    H223822   5.913   5.001   1.928  1.0452  0.4750 -0.6196
  755TIP3   OH223823   3.796   4.650   2.211 -0.6870  0.7126 -0.1163
  755TIP3    H123824   3.749   4.593   2.150 -1.0735 -0.5274  1.2791
  755TIP3    H223825   3.888   4.632   2.194 -0.8060 -0.4108  0.3553
  756TIP3   OH223826   0.815   5.661   7.974  0.0790  0.3113 -0.3278
  756TIP3    H123827   0.809   5.755   7.957  1.0872  0.1593 -1.7491
  756TIP3    H223828   0.741   5.624   7.925  0.0101  0.3048 -0.2205
  757TIP3   OH223829   2.509   0.338   0.838 -0.2538 -0.4164  0.0366
  757TIP3    H123830   2.502   0.286   0.918  0.8301  1.0066  1.0984
  757TIP3    H223831   2.474   0.424   0.861 -0.0608 -0.0158 -1.0734
  758TIP3   OH223832   6.079   2.815   7.829  0.1331 -0.1937  0.4792
  758TIP3    H123833   6.157   2.765   7.853  0.7893  0.1772 -0.7792
  758TIP3    H223834   6.078   2.813   7.733 -0.5994  1.0289  0.4447
  759TIP3   OH223835   5.318   2.998   0.362  0.5670  0.2452  0.3503
  759TIP3    H123836   5.270   2.954   0.432 -0.6542  2.8645  1.3056
  759TIP3    H223837   5.410   2.990   0.387  0.3627 -1.3548  0.6787
  760TIP3   OH223838   3.320   5.317   0.223  0.3925  0.4711 -0.1965
  760TIP3    H123839   3.393   5.324   0.162  0.9992  2.9756  0.6928
  760TIP3    H223840   3.243   5.336   0.170  0.5515 -0.3833 -0.7641
  761TIP3   OH223841   2.040   2.088   2.487  0.2553 -0.4483  0.0170
  761TIP3    H123842   2.130   2.111   2.508  0.4082 -1.6288  0.7456
  761TIP3    H223843   1.987   2.138   2.550  0.3262  0.9132 -0.9702
  762TIP3   OH223844   5.814   5.479   2.054 -0.3201  0.5187  0.1946
  762TIP3    H123845   5.815   5.441   2.142 -2.3269 -0.8588 -0.3056
  762TIP3    H223846   5.819   5.404   1.995 -1.2201  1.2483 -0.8464
  763TIP3   OH223847   3.287   0.852   1.548  0.5120 -0.1639  0.0959
  763TIP3    H123848   3.237   0.926   1.582 -0.6078 -0.8103 -0.0623
  763TIP3    H223849   3.358   0.839   1.610  1.2741  1.5890 -0.3463
  764TIP3   OH223850   3.773   2.069   2.694  1.3413 -0.5630  0.0167
  764TIP3    H123851   3.705   2.058   2.760  0.2603  0.7102 -0.8187
  764TIP3    H223852   3.751   2.006   2.626 -0.6636  1.5660 -1.4813
  765TIP3   OH223853   2.277   5.786   0.936 -0.0052 -0.4525  0.2438
  765TIP3    H123854   2.259   5.765   1.027 -0.1518  0.7827  0.5178
  765TIP3    H223855   2.252   5.878   0.927 -0.7223 -0.7558 -1.2340
  766TIP3   OH223856   0.489   2.310   8.277  0.4075  0.1238  0.0633
  766TIP3    H123857   0.473   2.404   8.286 -0.2810  0.2374 -1.8166
  766TIP3    H223858   0.525   2.283   8.361 -0.4948  1.8468  1.0497
  767TIP3   OH223859   2.279   3.791   1.340  0.2531 -0.5430  0.1925
  767TIP3    H123860   2.212   3.793   1.408 -1.0386 -0.4059 -1.0439
  767TIP3    H223861   2.359   3.822   1.384 -1.0978  2.0368  1.0467
  768TIP3   OH223862   2.027   0.061   0.243  0.3287  0.0236 -0.3480
  768TIP3    H123863   1.944   0.068   0.195  0.3892 -0.5717 -0.5475
  768TIP3    H223864   2.091   0.041   0.175  0.3556 -1.2118  0.0164
  769TIP3   OH223865   3.562   5.183   1.568 -0.1807  0.7483 -0.3673
  769TIP3    H123866   3.474   5.147   1.557  0.2378  0.2829 -2.6181
  769TIP3    H223867   3.616   5.108   1.592 -0.2908  0.9754  0.6726
  770TIP3   OH223868   0.644   4.393   0.280 -0.0512 -0.6368  0.5554
  770TIP3    H123869   0.713   4.459   0.282 -1.0451  0.4278  2.2264
  770TIP3    H223870   0.655   4.345   0.362 -1.0880 -0.6531  0.6943
  771TIP3   OH223871   5.764   4.500   2.022 -0.3084 -0.3372 -0.0702
  771TIP3    H123872   5.697   4.523   1.957 -1.0210 -1.9968  0.0238
  771TIP3    H223873   5.718   4.504   2.105 -0.4537 -1.9595 -0.0464
  772TIP3   OH223874   1.905   1.341   0.498 -0.1199 -0.2626 -0.6267
  772TIP3    H123875   1.953   1.333   0.580  1.3304  0.5512 -1.3597
  772TIP3    H223876   1.813   1.335   0.523  0.1418  2.4751  1.4039
  773TIP3   OH223877   3.048   5.864   3.025 -0.1320 -0.6443 -0.0158
  773TIP3    H123878   3.021   5.795   2.966 -1.0423  0.6617 -1.1957
  773TIP3    H223879   2.974   5.924   3.028  0.0454 -0.4297  2.1358
  774TIP3   OH223880   3.183   3.022   3.288  0.2972  0.1003 -0.1645
  774TIP3    H123881   3.227   2.942   3.260  1.6307  1.3684 -1.9311
  774TIP3    H223882   3.096   3.016   3.249  0.2364 -0.6700  0.0766
  775TIP3   OH223883   3.182   5.802   0.271 -0.1497 -0.1871  0.2563
  775TIP3    H123884   3.270   5.779   0.243 -0.4326 -2.2719  0.8662
  775TIP3    H223885   3.141   5.718   0.292 -1.5588  0.8858  2.1288
  776TIP3   OH223886   0.897   0.395   1.422  0.8468  0.1327 -0.3883
  776TIP3    H123887   0.920   0.392   1.329  0.1866  0.3904 -0.5637
  776TIP3    H223888   0.945   0.471   1.456  1.5712 -0.3182 -0.3754
  777TIP3   OH223889   5.415   1.475   6.954 -0.2376 -0.0877  0.0419
  777TIP3    H123890   5.491   1.418   6.943 -0.5157 -0.3637 -0.5309
  777TIP3    H223891   5.452   1.563   6.959  0.1574 -0.2674  0.3427
  778TIP3   OH223892   5.378   3.963   1.396  0.0493  0.3265  0.6622
  778TIP3    H123893   5.332   3.948   1.313 -0.2150 -1.2075  1.0510
  778TIP3    H223894   5.370   3.880   1.443  1.6864  0.5944  1.5031
  779TIP3   OH223895   3.172   1.068   8.147 -0.2896 -0.0554  0.2474
  779TIP3    H123896   3.177   1.153   8.190  1.5336 -0.7829  1.6181
  779TIP3    H223897   3.154   1.088   8.055 -1.0005  1.7186  0.7284
  780TIP3   OH223898   1.221   1.017   1.337  0.0675  0.1558  0.0803
  780TIP3    H123899   1.136   0.998   1.297 -0.5172  0.7598  0.9962
  780TIP3    H223900   1.275   1.046   1.265 -0.3224 -0.7786 -0.6170
  781TIP3   OH223901   0.974   5.000   0.400 -0.3580 -0.1356 -0.4202
  781TIP3    H123902   0.969   4.904   0.395 -1.1435 -0.1062 -0.4076
  781TIP3    H223903   1.066   5.018   0.416 -0.3097 -0.9269  0.2807
  782TIP3   OH223904   6.761   6.195   7.749 -0.1615  0.0339 -0.2629
  782TIP3    H123905   6.757   6.127   7.816  1.2796 -1.2645 -1.4500
  782TIP3    H223906   6.669   6.210   7.725 -0.5119 -1.3740  0.1254
  783TIP3   OH223907   4.552   2.224   8.099  0.2321 -0.4500  0.1865
  783TIP3    H123908   4.581   2.269   8.178  2.8070 -0.1507 -0.8248
  783TIP3    H223909   4.549   2.293   8.032  0.9019 -1.1674 -0.6074
  784TIP3   OH223910   2.999   0.020   8.243  0.7061 -0.0507 -0.1140
  784TIP3    H123911   2.972  -0.067   8.272  1.0977  0.1990  1.0668
  784TIP3    H223912   2.996   0.016   8.148 -1.7027 -0.5898 -0.0848
  785TIP3   OH223913   2.153   6.606   0.449  0.5957 -0.1222  0.1079
  785TIP3    H123914   2.156   6.699   0.472 -0.8221 -0.3522  1.4017
  785TIP3    H223915   2.153   6.560   0.533 -0.8949 -1.1784 -0.4077
  786TIP3   OH223916   4.396   1.653   3.559  0.4725  0.4114  0.9801
  786TIP3    H123917   4.435   1.739   3.549 -0.5859  0.6555 -1.7768
  786TIP3    H223918   4.312   1.670   3.603 -0.1576  0.9684 -0.3714
  787TIP3   OH223919   1.633   1.413   0.492 -0.5046  0.0966 -0.6747
  787TIP3    H123920   1.577   1.343   0.461  0.7902 -0.5132 -1.7578
  787TIP3    H223921   1.669   1.452   0.412  0.9042  0.1997 -0.0272
  788TIP3   OH223922   6.414   2.135   7.481 -0.7835  0.0565  0.1701
  788TIP3    H123923   6.431   2.041   7.479 -0.3394  0.1329 -1.2079
  788TIP3    H223924   6.424   2.163   7.389 -0.6232  1.4922  0.5920
  789TIP3   OH223925   2.022   5.823   0.643 -0.4254 -0.1581 -0.2518
  789TIP3    H123926   2.023   5.909   0.685 -0.9090  0.1226 -0.7977
  789TIP3    H223927   2.103   5.781   0.673  0.6420  1.0996 -1.2378
  790TIP3   OH223928   1.222   5.978   1.309 -0.8142 -0.0781 -0.4039
  790TIP3    H123929   1.260   5.890   1.308  2.6409  1.1722 -3.1729
  790TIP3    H223930   1.283   6.029   1.362 -1.2576  1.1321 -1.0210
  791TIP3   OH223931   0.687   1.626   0.938 -0.5391 -0.0990 -0.4675
  791TIP3    H123932   0.767   1.654   0.983 -1.9420  0.5630  1.7363
  791TIP3    H223933   0.664   1.701   0.883 -0.5019  0.3595  0.1255
  792TIP3   OH223934   4.018   2.394   8.326  0.7433  0.4868 -0.3265
  792TIP3    H123935   3.932   2.355   8.345  0.9939 -0.6452 -1.4623
  792TIP3    H223936   4.052   2.417   8.413 -0.6884  0.9520  0.1550
  793TIP3   OH223937   3.845   1.776   8.003 -0.2865 -0.0931  0.2979
  793TIP3    H123938   3.930   1.776   7.958 -0.9085  0.8007 -0.9723
  793TIP3    H223939   3.788   1.827   7.945 -2.0918 -1.9014  0.3596
  794TIP3   OH223940   0.948   4.357   0.543 -0.1725  0.4541 -0.0070
  794TIP3    H123941   0.865   4.384   0.503 -0.9579  0.2492  1.3814
  794TIP3    H223942   0.945   4.261   0.540 -0.5683  0.4131  1.0950
  795TIP3   OH223943   4.800   0.593   2.175  0.6624 -0.3876 -0.0125
  795TIP3    H123944   4.844   0.583   2.259 -0.7990 -0.1439  0.8088
  795TIP3    H223945   4.800   0.505   2.137  0.6290 -0.6537  0.5974
  796TIP3   OH223946   0.545   2.048   0.123 -0.2181  0.0875  0.0714
  796TIP3    H123947   0.470   2.015   0.172  0.5294 -1.3430  0.2877
  796TIP3    H223948   0.537   2.007   0.036 -1.5194  2.5706 -1.0852
  797TIP3   OH223949   5.596   5.297   3.051  0.0019  0.5941  0.5848
  797TIP3    H123950   5.596   5.201   3.044  0.7637  0.6524 -0.5031
  797TIP3    H223951   5.688   5.320   3.063  0.0146  1.2676 -0.6325
  798TIP3   OH223952   4.503   4.924   7.820 -0.1333  0.0709  0.1863
  798TIP3    H123953   4.416   4.938   7.784 -0.0844 -0.9561 -0.3716
  798TIP3    H223954   4.497   4.841   7.868  0.2875  0.4860  0.9903
  799TIP3   OH223955   1.619   1.654   7.152  0.1888 -0.1009  0.0775
  799TIP3    H123956   1.698   1.651   7.206  1.1418 -0.0124 -1.2707
  799TIP3    H223957   1.651   1.658   7.062 -1.3593 -0.1612 -0.5094
  800TIP3   OH223958   0.100   3.325   7.735  0.2986 -0.0975  0.1583
  800TIP3    H123959   0.174   3.342   7.677  0.9671  0.2616  1.0951
  800TIP3    H223960   0.074   3.235   7.716 -0.4107  0.4501 -1.6850
  801TIP3   OH223961   0.172   6.447   2.688  0.0433 -0.0065 -0.2883
  801TIP3    H123962   0.207   6.533   2.711 -0.6729  0.0307  0.7535
  801TIP3    H223963   0.078   6.462   2.678  0.0242 -0.5099 -0.9510
  802TIP3   OH223964   6.515   0.319   1.365 -0.2288 -0.3069  0.5228
  802TIP3    H123965   6.600   0.361   1.380 -1.3375  1.7222  1.4659
  802TIP3    H223966   6.529   0.228   1.391  1.9629 -0.3548 -0.5346
  803TIP3   OH223967   3.857   5.640   0.688 -0.2279 -0.0157  0.5543
  803TIP3    H123968   3.908   5.578   0.740  0.7490  0.0324 -0.3252
  803TIP3    H223969   3.767   5.606   0.691  0.0899 -0.8426  1.0105
  804TIP3   OH223970   1.564   6.856   1.795  0.0862  0.5589 -0.1076
  804TIP3    H123971   1.652   6.893   1.788  0.3477 -0.2746 -1.7491
  804TIP3    H223972   1.578   6.766   1.825 -0.2093  0.5107 -0.1106
  805TIP3   OH223973   6.136   2.594   3.613 -0.2515 -0.3663 -0.5007
  805TIP3    H123974   6.191   2.640   3.548 -0.2847 -0.0514 -0.3074
  805TIP3    H223975   6.048   2.597   3.576 -0.2849 -0.1140 -0.4062
  806TIP3   OH223976   6.440   4.628   2.981  0.4332 -0.7275  0.4272
  806TIP3    H123977   6.479   4.572   2.913  0.2396 -0.4389  0.0748
  806TIP3    H223978   6.507   4.696   2.996 -0.2806  0.3312 -0.8665
  807TIP3   OH223979   4.489   4.388   0.592  0.2070 -0.0028  0.3162
  807TIP3    H123980   4.562   4.416   0.538 -0.2543 -0.5183 -0.5941
  807TIP3    H223981   4.500   4.293   0.601  0.0147  0.0099  0.7242
  808TIP3   OH223982   2.678   6.397   2.813  0.1164 -0.4776 -0.5291
  808TIP3    H123983   2.627   6.370   2.737 -0.0922  0.9772 -0.9452
  808TIP3    H223984   2.672   6.493   2.812  1.7274 -0.3478  0.2059
  809TIP3   OH223985   4.064   5.453   2.783 -0.2058 -0.0279 -0.7441
  809TIP3    H123986   4.140   5.506   2.805 -0.1112 -0.3563 -0.2531
  809TIP3    H223987   4.066   5.381   2.846 -1.5199  0.5249 -0.0063
  810TIP3   OH223988   1.762   2.157   8.232  0.3903 -0.2417  0.4735
  810TIP3    H123989   1.823   2.218   8.189  1.4304 -1.4307  0.2192
  810TIP3    H223990   1.755   2.083   8.171 -0.9959 -0.3221  0.6990
  811TIP3   OH223991   1.895   0.860   1.937  0.1881  0.2288  0.2155
  811TIP3    H123992   1.824   0.889   1.994  0.1377 -1.7880  1.2691
  811TIP3    H223993   1.854   0.798   1.877  0.9042 -0.4092  0.3621
  812TIP3   OH223994   2.531   4.645   1.446  0.4523 -0.2112  0.1239
  812TIP3    H123995   2.577   4.688   1.374 -1.3866  0.1750 -0.8880
  812TIP3    H223996   2.556   4.695   1.524  1.1701  0.4247 -0.5012
  813TIP3   OH223997   5.137   3.230   7.097  0.0577 -0.2145  0.1202
  813TIP3    H123998   5.147   3.313   7.144  0.7780  1.3714 -2.6000
  813TIP3    H223999   5.043   3.221   7.084 -0.2320 -1.1366  2.5050
  814TIP3   OH224000   6.125   0.761   2.280  0.9434  0.1624 -0.0925
  814TIP3    H124001   6.158   0.839   2.235  3.0400 -0.8914 -0.5016
  814TIP3    H224002   6.155   0.771   2.371  0.0469  0.4340  0.1924
  815TIP3   OH224003   4.133   0.373   8.382  0.1800 -0.1881 -0.5104
  815TIP3    H124004   4.139   0.444   8.446  0.4372  0.3129 -1.0817
  815TIP3    H224005   4.124   0.294   8.435  1.7220  0.0653  0.2098
  816TIP3   OH224006   0.483   1.905   2.118 -0.7440 -0.1099 -0.1357
  816TIP3    H124007   0.462   1.998   2.120  0.2193  0.1063  1.8703
  816TIP3    H224008   0.567   1.901   2.071 -0.5462  0.0866  0.2005
  817TIP3   OH224009   0.030   0.028   7.591 -0.0450  0.4128 -0.1049
  817TIP3    H124010   0.104   0.065   7.543 -1.0338 -0.9715 -2.9379
  817TIP3    H224011   0.006  -0.050   7.541 -2.2767 -0.2060  1.7542
  818TIP3   OH224012   2.289   1.007   2.498 -0.7247 -0.2203  0.3717
  818TIP3    H124013   2.271   0.930   2.445 -1.0140  1.2052 -1.6924
  818TIP3    H224014   2.244   1.079   2.454  0.0804  1.2798  1.8554
  819TIP3   OH224015   6.237   6.519   0.455  0.3331 -0.5055 -0.2839
  819TIP3    H124016   6.220   6.565   0.537  0.9606  0.0929 -0.4883
  819TIP3    H224017   6.238   6.427   0.480  0.8166 -0.3166  0.4395
  820TIP3   OH224018   2.621   2.992   3.326 -0.4714  0.1220  0.0105
  820TIP3    H124019   2.631   3.028   3.414 -1.3476 -0.7439  0.4792
  820TIP3    H224020   2.602   2.899   3.339 -0.7477  0.0028 -1.0817
  821TIP3   OH224021   5.415   2.088   1.163 -0.8934  0.1274 -0.0776
  821TIP3    H124022   5.336   2.139   1.145 -0.8518  0.3640  0.4057
  821TIP3    H224023   5.382   2.001   1.188 -0.9602 -0.1334 -1.0215
  822TIP3   OH224024   2.117   5.406   1.574 -0.5737  0.3797 -0.5621
  822TIP3    H124025   2.212   5.407   1.580 -0.4408 -1.5981 -1.7179
  822TIP3    H224026   2.090   5.339   1.637 -1.3825  2.1088  1.0416
  823TIP3   OH224027   6.848   4.873   0.037  0.1988 -0.1893 -0.3711
  823TIP3    H124028   6.821   4.816  -0.035 -0.5887 -1.5230  0.9161
  823TIP3    H224029   6.778   4.863   0.102 -0.0398  2.3957 -0.1522
  824TIP3   OH224030   4.048   6.351   2.476  0.5985  0.0795 -0.5570
  824TIP3    H124031   4.056   6.425   2.535  0.6560 -0.0753 -0.3710
  824TIP3    H224032   3.986   6.292   2.519  0.7921 -0.1253 -0.5535
  825TIP3   OH224033   4.204   5.283   1.178 -0.4996 -0.1765 -0.2359
  825TIP3    H124034   4.170   5.195   1.193 -2.6735  0.7385  0.5374
  825TIP3    H224035   4.234   5.313   1.264 -1.5199  0.5140 -0.1056
  826TIP3   OH224036   3.991   0.086   3.499 -0.0236 -0.0445 -0.5701
  826TIP3    H124037   4.069   0.061   3.548 -1.2976 -4.0455 -0.2897
  826TIP3    H224038   3.933   0.126   3.564  1.0259  1.4063 -0.4580
  827TIP3   OH224039   1.904   1.337   0.105 -0.0857 -0.5405 -0.0118
  827TIP3    H124040   1.994   1.304   0.098 -0.9375 -3.7368  1.7937
  827TIP3    H224041   1.907   1.424   0.065  3.3983 -1.1809 -1.5654
  828TIP3   OH224042   1.245   4.095   1.972  0.3398  0.0400 -0.0915
  828TIP3    H124043   1.211   4.027   1.914  0.8937  0.1268 -0.5297
  828TIP3    H224044   1.209   4.073   2.058 -0.0961 -0.3712 -0.3752
  829TIP3   OH224045   4.499   1.979   2.879 -0.0044 -0.3989 -0.7638
  829TIP3    H124046   4.545   2.052   2.839 -0.2566  0.4309  0.4085
  829TIP3    H224047   4.412   2.013   2.899 -0.8579 -1.6548 -2.0762
  830TIP3   OH224048   1.939   6.364   1.443 -0.2444  0.5582  0.2224
  830TIP3    H124049   1.996   6.439   1.458 -0.2842  0.5225  0.5546
  830TIP3    H224050   1.917   6.369   1.350  0.1679  0.6654  0.1267
  831TIP3   OH224051   2.299   2.051   7.839 -0.2309 -0.4668  0.3451
  831TIP3    H124052   2.324   2.121   7.778  1.2819 -1.8704 -0.7247
  831TIP3    H224053   2.281   1.976   7.783  0.8958 -1.7148  1.5838
  832TIP3   OH224054   6.031   4.986   0.230  0.0150  0.1657 -0.7751
  832TIP3    H124055   5.984   4.991   0.146 -0.9950  1.0683 -0.1782
  832TIP3    H224056   6.107   5.042   0.218 -0.5440  0.9304 -0.8473
  833TIP3   OH224057   5.324   4.423   0.725 -0.3306  0.6286 -0.1242
  833TIP3    H124058   5.400   4.366   0.728  1.0236  2.2696 -1.5150
  833TIP3    H224059   5.257   4.372   0.679  0.9039  0.2298 -1.5167
  834TIP3   OH224060   4.171   3.222   2.698  0.1680 -0.8278  0.2614
  834TIP3    H124061   4.124   3.225   2.782  2.2467 -1.0038  1.5048
  834TIP3    H224062   4.192   3.129   2.686 -0.4746 -0.8633 -0.6968
  835TIP3   OH224063   4.959   2.228   8.247  0.4433  0.8194 -0.0751
  835TIP3    H124064   4.918   2.151   8.207  0.4981  0.2283  0.9748
  835TIP3    H224065   5.025   2.192   8.306  0.4751  1.6720  0.4270
  836TIP3   OH224066   3.108   6.033   3.871  0.2310 -0.2803 -0.4690
  836TIP3    H124067   3.090   5.939   3.873 -0.5671 -0.1204  0.1302
  836TIP3    H224068   3.139   6.049   3.782 -0.3541 -0.9818 -0.8106
  837TIP3   OH224069   1.540   0.706   8.072 -0.3175  0.2334 -0.4364
  837TIP3    H124070   1.526   0.686   7.979 -0.5391  1.0551 -0.5812
  837TIP3    H224071   1.629   0.675   8.089 -0.3147 -0.0289 -0.8885
  838TIP3   OH224072   4.463   4.997   1.181  0.6396 -0.0438  0.7439
  838TIP3    H124073   4.411   4.973   1.104 -0.6482  0.3585  1.4424
  838TIP3    H224074   4.444   4.929   1.245  0.6840  0.3016  1.1319
  839TIP3   OH224075   3.492   5.731   1.275  0.2820 -0.8201 -0.0060
  839TIP3    H124076   3.447   5.691   1.200 -0.6583 -0.7768  0.5128
  839TIP3    H224077   3.546   5.800   1.237 -1.6297  0.4929 -0.5227
  840TIP3   OH224078   5.895   4.267   3.067 -0.5823  0.3168 -0.8445
  840TIP3    H124079   5.973   4.243   3.118 -1.7731 -2.3686 -0.0517
  840TIP3    H224080   5.847   4.328   3.123 -0.8654 -1.0144  0.4392
  841TIP3   OH224081   1.430   6.328   7.543  0.9253  0.0835 -0.0543
  841TIP3    H124082   1.420   6.245   7.496  1.9260  0.5354 -1.1030
  841TIP3    H224083   1.467   6.388   7.478  0.7133  1.2111  0.8374
  842TIP3   OH224084   2.335   4.808   8.080 -0.5805  0.2671 -0.2408
  842TIP3    H124085   2.348   4.713   8.086  0.2547  0.2582 -1.8071
  842TIP3    H224086   2.253   4.818   8.032  0.7513  0.2626 -2.7099
  843TIP3   OH224087   0.722   4.683   2.823 -0.2813 -0.0122  0.4033
  843TIP3    H124088   0.755   4.772   2.813  0.1749 -0.1774  0.4555
  843TIP3    H224089   0.769   4.647   2.898  0.3698 -0.6855 -0.3164
  844TIP3   OH224090   5.187   5.389   8.133 -0.1716  0.7987 -0.0379
  844TIP3    H124091   5.175   5.310   8.186 -0.7000  1.0534  0.2238
  844TIP3    H224092   5.158   5.363   8.045  0.0093  0.5957 -0.0416
  845TIP3   OH224093   5.073   1.850   8.188 -0.4030 -0.0217 -0.2258
  845TIP3    H124094   5.022   1.862   8.268  1.8402 -1.0666  1.4845
  845TIP3    H224095   5.050   1.762   8.158  1.7926 -1.4120  1.7838
  846TIP3   OH224096   3.608   6.371   1.877  0.2977 -0.6729  0.4354
  846TIP3    H124097   3.687   6.317   1.871 -0.1088 -1.5781  2.3612
  846TIP3    H224098   3.543   6.325   1.824  0.5967 -0.8313  0.2046
  847TIP3   OH224099   1.036   4.551   1.102  0.2379 -0.0566 -0.5300
  847TIP3    H124100   1.045   4.536   1.008  0.6408 -2.0859 -0.2106
  847TIP3    H224101   0.962   4.497   1.128  0.2820  0.2933  0.3593
  848TIP3   OH224102   2.603   3.299   0.207  0.2593 -0.2232 -0.3279
  848TIP3    H124103   2.678   3.296   0.266 -0.5822 -1.0151  0.7452
  848TIP3    H224104   2.532   3.337   0.259 -0.1279  0.4326 -1.2943
  849TIP3   OH224105   0.309   3.003   0.054 -0.8896  0.1488  0.0810
  849TIP3    H124106   0.327   2.991  -0.039 -0.3063  1.5466 -0.0215
  849TIP3    H224107   0.263   3.087   0.059  0.5264  0.9335  1.1622
  850TIP3   OH224108   2.612   5.016   0.730  0.3716  0.6440 -0.2272
  850TIP3    H124109   2.523   5.046   0.748  0.0458 -0.1767 -0.3808
  850TIP3    H224110   2.615   5.008   0.634  1.5013  3.2406 -0.4882
  851TIP3   OH224111   1.986   4.125   2.564  0.3607 -0.0963 -0.1923
  851TIP3    H124112   1.904   4.163   2.531  0.3316 -0.5418 -0.6485
  851TIP3    H224113   1.987   4.148   2.657 -0.2139  0.0374 -0.2131
  852TIP3   OH224114   6.574   2.297   0.737  0.2992  0.1376  0.1926
  852TIP3    H124115   6.615   2.284   0.651  0.3284 -1.0372  0.3688
  852TIP3    H224116   6.612   2.379   0.770  0.9102  0.1646 -0.5517
  853TIP3   OH224117   2.670   0.605   0.259 -0.0443  0.1041  0.9427
  853TIP3    H124118   2.736   0.596   0.328 -1.0772  1.6898  2.2075
  853TIP3    H224119   2.601   0.544   0.284  0.9830 -1.7922 -0.5509
  854TIP3   OH224120   0.118   4.515   2.182 -0.5640  0.5321 -0.1634
  854TIP3    H124121   0.060   4.564   2.239 -0.3446  0.7920 -0.1646
  854TIP3    H224122   0.150   4.579   2.118 -1.1390  0.1588 -0.8407
  855TIP3   OH224123   3.556   6.738   1.253  0.3843  0.2659  0.0417
  855TIP3    H124124   3.560   6.808   1.319  0.3698  0.2634  0.0454
  855TIP3    H224125   3.506   6.668   1.296  1.2740 -0.1572  0.4147
  856TIP3   OH224126   1.769   4.265   2.448  0.2162  0.1519 -0.0266
  856TIP3    H124127   1.752   4.354   2.416 -0.5589 -0.0851 -0.2909
  856TIP3    H224128   1.726   4.208   2.384  0.8694 -0.4234  0.0395
  857TIP3   OH224129   0.879   6.798   7.666 -0.4989 -0.1701  0.0571
  857TIP3    H124130   0.944   6.867   7.667 -0.3598 -0.2556  2.3841
  857TIP3    H224131   0.928   6.718   7.650 -0.2614 -0.0325  0.0982
  858TIP3   OH224132   3.953   4.112   3.313 -0.2424 -0.1540  0.0867
  858TIP3    H124133   3.963   4.128   3.407  0.1919 -1.7103  0.3338
  858TIP3    H224134   3.861   4.133   3.295 -0.0932  1.0625  0.6521
  859TIP3   OH224135   0.642   4.801   1.980 -0.1171  0.0150 -0.2809
  859TIP3    H124136   0.615   4.850   2.058  1.8937 -0.5883  0.8737
  859TIP3    H224137   0.616   4.856   1.906  1.7849  2.7401  0.9215
  860TIP3   OH224138   3.855   6.728   3.027  0.0455 -0.0276 -0.4860
  860TIP3    H124139   3.841   6.792   3.097 -0.6638  0.9448 -1.4690
  860TIP3    H224140   3.939   6.688   3.047  0.1478  0.6741  0.5821
  861TIP3   OH224141   1.202   4.078   7.783 -0.1327 -0.6490  0.2920
  861TIP3    H124142   1.228   4.169   7.795  0.9474 -0.9463  0.3872
  861TIP3    H224143   1.190   4.044   7.872  1.1212 -1.0207  0.3524
  862TIP3   OH224144   0.116   4.012   2.136  0.2996  0.2556 -0.6326
  862TIP3    H124145   0.057   4.085   2.155 -2.5568 -1.9845 -0.1363
  862TIP3    H224146   0.088   3.982   2.049  2.2895  0.4319 -1.3912
  863TIP3   OH224147   2.496   1.043   3.094  0.1515  0.2628 -0.5423
  863TIP3    H124148   2.425   1.085   3.143 -0.8626 -1.4729 -0.4461
  863TIP3    H224149   2.453   0.974   3.044  1.7359 -0.6342 -0.7316
  864TIP3   OH224150   3.633   1.418   7.042  0.1821  0.1327  0.0125
  864TIP3    H124151   3.552   1.453   7.079  0.0475  3.0600 -2.6667
  864TIP3    H224152   3.700   1.483   7.064  0.4808  0.9545 -2.8948
  865TIP3   OH224153   2.104   4.194   7.224 -0.9221 -0.0633 -0.2155
  865TIP3    H124154   2.055   4.167   7.146 -1.0229  0.0422 -0.1885
  865TIP3    H224155   2.060   4.150   7.296 -0.8642 -0.1147 -0.2108
  866TIP3   OH224156   3.268   1.152   0.633  0.2612 -0.3447  0.1989
  866TIP3    H124157   3.355   1.117   0.615  0.5680 -0.0337  1.0147
  866TIP3    H224158   3.242   1.110   0.716  0.1328  0.4458  0.5646
  867TIP3   OH224159   2.500   3.393   7.653  0.0544 -0.5311  0.3288
  867TIP3    H124160   2.562   3.326   7.624  0.8584  0.1208  0.4807
  867TIP3    H224161   2.489   3.451   7.578  0.5260 -0.0118  0.6445
  868TIP3   OH224162   4.982   6.349   3.673 -0.2549  0.0792 -0.4236
  868TIP3    H124163   5.073   6.355   3.644 -0.9746  0.5285 -2.8173
  868TIP3    H224164   4.987   6.312   3.761  2.2310  0.1990 -0.4468
  869TIP3   OH224165   2.611   3.101   2.240  0.3419  0.0055 -0.0246
  869TIP3    H124166   2.663   3.024   2.218  1.3794  0.7473 -0.2129
  869TIP3    H224167   2.611   3.104   2.335 -0.4479 -0.7031  0.0184
  870TIP3   OH224168   5.844   3.000   2.053 -0.1072  0.2083  0.1904
  870TIP3    H124169   5.878   3.025   1.966  1.9941  1.1220  1.2017
  870TIP3    H224170   5.907   2.935   2.085 -1.1023 -0.4326  0.8813
  871TIP3   OH224171   3.732   6.673   6.961  0.2453  0.5932 -0.0148
  871TIP3    H124172   3.710   6.744   7.022 -0.4281 -0.2458  0.7437
  871TIP3    H224173   3.648   6.631   6.943  0.9108 -1.5536  1.5031
  872TIP3   OH224174   3.257   2.334   0.109 -0.3388  0.0113 -0.3482
  872TIP3    H124175   3.229   2.333   0.017 -0.7668  0.0823 -0.2191
  872TIP3    H224176   3.314   2.258   0.117  1.0519  0.9446 -1.0878
  873TIP3   OH224177   5.617   4.176   2.037  0.8730 -0.2736 -0.0455
  873TIP3    H124178   5.536   4.172   1.985  1.5889  1.0466 -1.3241
  873TIP3    H224179   5.604   4.252   2.095  2.0596  1.4252 -1.8839
  874TIP3   OH224180   4.053   2.803   2.013  0.4312 -0.0691  0.6029
  874TIP3    H124181   4.040   2.729   1.953 -1.8982 -0.1318  1.0849
  874TIP3    H224182   3.979   2.861   1.996  2.1715  2.2248  0.2525
  875TIP3   OH224183   1.791   1.061   0.101  0.1255 -0.1771 -0.1937
  875TIP3    H124184   1.852   1.005   0.148  0.1031  0.0620  0.1304
  875TIP3    H224185   1.826   1.150   0.114  0.2000 -0.1253 -0.7568
  876TIP3   OH224186   2.291   5.989   7.817 -0.2268 -0.3282 -0.7961
  876TIP3    H124187   2.198   5.989   7.841 -0.5282  1.0012 -1.8214
  876TIP3    H224188   2.295   6.040   7.736  1.3333 -0.8505 -1.0895
  877TIP3   OH224189   3.935   1.652   0.276  0.3893  0.2585 -0.0112
  877TIP3    H124190   3.970   1.565   0.294 -0.4559 -0.1649 -0.3879
  877TIP3    H224191   3.939   1.661   0.181 -0.8623  0.0415 -0.1034
  878TIP3   OH224192   5.031   4.219   2.803 -0.3476 -0.4313 -0.0672
  878TIP3    H124193   4.994   4.306   2.819  1.3627  0.2200  0.5004
  878TIP3    H224194   5.113   4.236   2.757  0.3303 -1.6908  0.6273
  879TIP3   OH224195   4.611   4.008   2.809  0.1285 -0.4361  0.7944
  879TIP3    H124196   4.604   4.040   2.899  0.4754  0.8632  0.3802
  879TIP3    H224197   4.675   4.066   2.767 -0.2563 -0.8141 -0.3722
  880TIP3   OH224198   3.144   1.729   2.448 -0.1604 -0.4245  0.2862
  880TIP3    H124199   3.203   1.748   2.374 -1.1605  0.0131 -0.4167
  880TIP3    H224200   3.097   1.650   2.422 -0.3751 -0.3834  0.5455
  881TIP3   OH224201   6.637   1.462   8.462  0.4557 -0.2235  0.0669
  881TIP3    H124202   6.688   1.385   8.488 -0.4779 -0.7603  0.3434
  881TIP3    H224203   6.588   1.433   8.385 -2.1396 -0.8965  1.8304
  882TIP3   OH224204   1.170   2.640   8.153 -0.7241 -0.7640  0.3827
  882TIP3    H124205   1.250   2.602   8.117 -1.2255 -1.8176  0.3556
  882TIP3    H224206   1.127   2.568   8.198 -1.7793 -0.2669  0.2020
  883TIP3   OH224207   2.973   2.369   7.540  0.3638  0.0371 -0.2909
  883TIP3    H124208   2.928   2.364   7.625 -0.1427 -1.4079 -0.6142
  883TIP3    H224209   2.959   2.282   7.501 -0.1282  0.9357 -2.2166
  884TIP3   OH224210   1.833   6.355   0.317 -0.2705 -0.4759 -0.4427
  884TIP3    H124211   1.865   6.337   0.228 -1.1163  0.1394 -0.8859
  884TIP3    H224212   1.743   6.325   0.316 -0.1670 -0.8236  0.3424
  885TIP3   OH224213   6.399   3.029   2.054  0.1986  0.0972  0.2517
  885TIP3    H124214   6.476   3.070   2.093  1.3265 -0.0914 -1.6370
  885TIP3    H224215   6.408   2.936   2.074  0.6797  0.0257 -0.2587
  886TIP3   OH224216   5.829   1.997   8.557 -0.2928 -0.1742 -0.3390
  886TIP3    H124217   5.789   2.012   8.472  0.3465  0.7528 -0.4919
  886TIP3    H224218   5.923   2.005   8.541 -0.1934  0.8065  0.5872
  887TIP3   OH224219   1.311   3.778   7.515  0.2164  0.2189  0.3515
  887TIP3    H124220   1.268   3.824   7.442 -0.3333 -1.2883 -0.3117
  887TIP3    H224221   1.368   3.844   7.554 -1.4184  1.8275  0.1905
  888TIP3   OH224222   4.153   4.261   2.228  0.1484 -0.1484 -0.6421
  888TIP3    H124223   4.073   4.209   2.228 -0.0931  0.1697  1.0702
  888TIP3    H224224   4.132   4.337   2.281  1.7139 -0.2700  0.2104
  889TIP3   OH224225   1.315   0.490   8.158  0.3976  0.3406 -0.3543
  889TIP3    H124226   1.373   0.566   8.162  0.5556  0.2995 -1.4184
  889TIP3    H224227   1.341   0.444   8.078  1.5643 -1.8667  1.1791
  890TIP3   OH224228   4.714   2.605   7.243 -0.2011 -0.1580  1.2002
  890TIP3    H124229   4.758   2.578   7.324 -0.1713 -0.1963  1.1717
  890TIP3    H224230   4.740   2.538   7.180  0.1158  0.1046  1.0500
  891TIP3   OH224231   4.261   0.439   2.432  0.7136 -0.5424 -0.0471
  891TIP3    H124232   4.170   0.460   2.412 -0.0325 -1.8661  1.6795
  891TIP3    H224233   4.278   0.358   2.384 -0.0676 -1.9846  1.9750
  892TIP3   OH224234   6.105   5.914   7.300  0.2950 -0.6122 -0.2666
  892TIP3    H124235   6.020   5.943   7.333  0.5597 -0.4737  0.3240
  892TIP3    H224236   6.087   5.833   7.253 -0.2334 -0.3140 -0.5858
  893TIP3   OH224237   0.068   3.605   1.087 -0.2309 -0.3155  0.4549
  893TIP3    H124238   0.049   3.577   0.997 -0.8084  0.2309  0.4028
  893TIP3    H224239  -0.009   3.579   1.137 -0.8515  1.2933  0.3769
  894TIP3   OH224240   4.965   5.750   1.423  0.0267  0.5501  0.2122
  894TIP3    H124241   4.878   5.722   1.397  0.0012  0.5174  0.3324
  894TIP3    H224242   5.024   5.688   1.378  0.0543  1.3636 -0.9244
  895TIP3   OH224243   3.212   2.214   1.516  0.0652  0.3235  0.4440
  895TIP3    H124244   3.257   2.144   1.564 -1.2071 -0.3499  0.7034
  895TIP3    H224245   3.134   2.172   1.481 -1.1961  1.8058  1.3349
  896TIP3   OH224246   0.727   5.644   0.188 -0.0803 -0.3655  0.0682
  896TIP3    H124247   0.750   5.552   0.197  0.1304 -0.7813 -3.3366
  896TIP3    H224248   0.632   5.646   0.197 -0.2601 -1.2127 -1.3908
  897TIP3   OH224249   2.970   4.328   8.537  0.1012  0.0041 -0.1595
  897TIP3    H124250   3.032   4.256   8.533 -0.4085 -0.4133 -0.7060
  897TIP3    H224251   2.980   4.364   8.626  0.9203 -0.2251 -0.1585
  898TIP3   OH224252   5.176   0.004   0.662 -0.3991  0.1631 -0.3426
  898TIP3    H124253   5.246   0.048   0.613  0.2277 -0.8736 -0.4328
  898TIP3    H224254   5.218  -0.076   0.694 -0.5023  1.2579  2.7826
  899TIP3   OH224255   4.991   2.947   0.524  0.1450  0.6096 -0.2320
  899TIP3    H124256   4.924   2.943   0.455  1.0183 -0.0922 -1.0707
  899TIP3    H224257   4.976   2.869   0.577 -0.0015  0.7037 -0.1355
  900TIP3   OH224258   3.918   2.392   0.271  0.1745  0.6646 -0.3112
  900TIP3    H124259   3.874   2.423   0.192  1.1983  1.4159 -0.6189
  900TIP3    H224260   3.941   2.472   0.319  0.5696  0.2697  0.1777
  901TIP3   OH224261   5.492   0.394   0.879  0.4799  0.4140  0.0277
  901TIP3    H124262   5.446   0.452   0.940  1.7219  0.6355  0.7810
  901TIP3    H224263   5.439   0.314   0.878  0.1290  0.6213  0.9510
  902TIP3   OH224264   6.161   0.860   2.534 -0.6373 -0.3055  0.2954
  902TIP3    H124265   6.125   0.899   2.614  0.5897 -0.8052  1.1164
  902TIP3    H224266   6.249   0.834   2.558 -1.3360 -3.5075 -0.2176
  903TIP3   OH224267   6.563   4.862   8.403 -0.3852 -0.5269  0.0219
  903TIP3    H124268   6.592   4.807   8.475 -0.5322 -1.9511 -0.9726
  903TIP3    H224269   6.488   4.910   8.438  0.8032  0.3904  1.4432
  904TIP3   OH224270   0.945   6.133   2.671 -0.5263 -0.4471 -0.9825
  904TIP3    H124271   1.017   6.129   2.608  0.0222  0.6854 -0.4571
  904TIP3    H224272   0.981   6.095   2.751 -0.1634  0.9725 -0.4338
  905TIP3   OH224273   4.437   6.088   1.246  0.1019  0.0415  0.6242
  905TIP3    H124274   4.469   6.176   1.223 -0.6149  0.3423  0.7323
  905TIP3    H224275   4.412   6.049   1.163  0.6229 -0.1445  0.5536
  906TIP3   OH224276   3.749   1.641   1.469  0.3716 -0.5349 -0.6317
  906TIP3    H124277   3.689   1.700   1.515 -0.8638 -0.7693 -1.8588
  906TIP3    H224278   3.835   1.683   1.477 -0.3426  1.0463 -0.8037
  907TIP3   OH224279   5.085   0.271   2.622 -0.0466  0.4082  0.3294
  907TIP3    H124280   5.153   0.217   2.662 -2.0922 -1.4000  1.6310
  907TIP3    H224281   5.007   0.215   2.622 -1.8122  2.7075 -0.1574
  908TIP3   OH224282   2.924   0.109   7.644  0.3856  0.3189  0.5876
  908TIP3    H124283   2.886   0.023   7.628 -0.4642  0.4117  1.8725
  908TIP3    H224284   2.969   0.132   7.563 -1.1287 -0.4395 -0.5121
  909TIP3   OH224285   4.307   3.170   1.906 -0.1774  0.0407 -0.4208
  909TIP3    H124286   4.375   3.228   1.940 -0.7614  1.3720 -1.4375
  909TIP3    H224287   4.225   3.210   1.934 -0.6019 -1.9705  1.4760
  910TIP3   OH224288   1.005   6.649   2.098  0.1786  0.3106  0.3606
  910TIP3    H124289   1.099   6.627   2.100  0.4254  1.3411  1.5082
  910TIP3    H224290   0.976   6.634   2.188 -0.2720  1.9630  0.5238
  911TIP3   OH224291   4.880   2.832   0.832 -0.3492 -0.2314  0.2607
  911TIP3    H124292   4.811   2.765   0.827  1.5517 -2.4033  1.4699
  911TIP3    H224293   4.877   2.862   0.923  0.7482 -0.8743  0.5185
  912TIP3   OH224294   2.314   5.072   1.614  0.4136  0.5544 -0.7392
  912TIP3    H124295   2.244   5.102   1.556 -0.7813 -0.1626  0.2918
  912TIP3    H224296   2.310   5.132   1.689  0.8948  0.4854 -0.6525
  913TIP3   OH224297   4.123   3.072   0.120  0.5384  0.1057  0.6120
  913TIP3    H124298   4.171   3.023   0.054  1.7454  0.8067  0.9299
  913TIP3    H224299   4.143   3.164   0.101  0.0650  0.3617  1.3089
  914TIP3   OH224300   6.877   5.504   8.371  0.0245 -0.0471  0.6121
  914TIP3    H124301   6.924   5.583   8.342  0.1927  0.1040  1.2649
  914TIP3    H224302   6.940   5.433   8.359 -0.7799 -0.4554 -1.8859
  915TIP3   OH224303   2.815   4.038   1.433 -0.3502  0.3317 -0.2528
  915TIP3    H124304   2.762   4.109   1.469  0.7100  1.2570 -0.4638
  915TIP3    H224305   2.826   3.978   1.506 -2.7226 -0.5550 -0.5282
  916TIP3   OH224306   3.982   1.754   7.234  0.3384  0.2304 -0.1525
  916TIP3    H124307   4.073   1.754   7.264  0.4715 -1.2065 -0.4583
  916TIP3    H224308   3.978   1.824   7.169  1.3828 -0.0400 -0.5293
  917TIP3   OH224309   1.754   5.164   2.520 -0.1436  0.1472  0.1271
  917TIP3    H124310   1.768   5.198   2.431  1.3240  0.5898  0.4970
  917TIP3    H224311   1.722   5.239   2.570  2.0142  0.7762  0.6739
  918TIP3   OH224312   1.532   3.219   3.170  0.5423 -0.3586 -0.2981
  918TIP3    H124313   1.501   3.140   3.125  0.4798 -1.3913  1.4299
  918TIP3    H224314   1.617   3.238   3.131  0.1687 -0.7767 -1.3320
  919TIP3   OH224315   0.477   3.385   2.710  0.4724 -0.0823  0.0842
  919TIP3    H124316   0.485   3.342   2.796 -1.0412 -0.3571  0.1189
  919TIP3    H224317   0.421   3.461   2.727 -0.8137 -0.7861 -0.8580
  920TIP3   OH224318   2.264   6.204   2.242 -0.3978 -0.3926  0.0912
  920TIP3    H124319   2.328   6.157   2.188  1.2193  0.8768  0.8175
  920TIP3    H224320   2.206   6.248   2.179 -1.1170 -2.2015 -0.5810
  921TIP3   OH224321   3.640   6.331   0.067 -0.1020 -0.6746 -0.2009
  921TIP3    H124322   3.614   6.357  -0.021 -1.0531  2.1013  0.7810
  921TIP3    H224323   3.683   6.408   0.104 -0.3155 -1.5089  1.9737
  922TIP3   OH224324   4.888   0.777   1.473  0.1122  0.1407  0.0622
  922TIP3    H124325   4.802   0.794   1.512  0.7052  1.2762  0.9298
  922TIP3    H224326   4.935   0.727   1.540 -1.0490 -3.8918 -1.8222
  923TIP3   OH224327   6.864   1.348   8.513 -0.7137 -0.4736 -0.1869
  923TIP3    H124328   6.937   1.319   8.459 -0.8575 -0.1986 -0.5294
  923TIP3    H224329   6.864   1.287   8.587  0.5484  0.2237  0.4015
  924TIP3   OH224330   6.517   3.434   1.076  0.4189  0.1680 -0.5835
  924TIP3    H124331   6.544   3.385   1.154  0.0578  0.4756 -0.2633
  924TIP3    H224332   6.499   3.522   1.108 -0.1767  0.1759 -0.9374
  925TIP3   OH224333   2.718   2.313   3.727 -0.2588 -0.8056  0.4506
  925TIP3    H124334   2.726   2.252   3.654 -1.3042  2.3405 -2.5270
  925TIP3    H224335   2.799   2.363   3.726  0.1221 -1.3115  2.1556
  926TIP3   OH224336   1.743   5.221   1.836  0.0616  0.4311 -0.5291
  926TIP3    H124337   1.694   5.163   1.778  0.0296 -0.7971  0.6952
  926TIP3    H224338   1.751   5.173   1.918 -0.0906  2.2196  0.5850
  927TIP3   OH224339   0.837   6.280   2.208 -0.2172 -0.4114  0.2166
  927TIP3    H124340   0.861   6.334   2.133 -0.1017 -1.3243 -0.4298
  927TIP3    H224341   0.744   6.296   2.222 -0.0811  0.2979  0.3377
  928TIP3   OH224342   2.877   5.970   2.219 -0.5577  0.5141 -0.1898
  928TIP3    H124343   2.909   6.060   2.229 -0.3532  0.2174  2.3816
  928TIP3    H224344   2.942   5.928   2.162  0.7585  1.3429  0.6520
  929TIP3   OH224345   5.710   2.592   1.000 -0.1333 -0.0748 -0.1817
  929TIP3    H124346   5.784   2.615   0.944 -1.1906 -0.6999 -1.9144
  929TIP3    H224347   5.718   2.498   1.015  0.3734  0.1555  1.1094
  930TIP3   OH224348   4.526   3.350   1.944  0.6518  0.0688  1.0312
  930TIP3    H124349   4.550   3.352   1.851 -0.4938 -1.0405  0.6922
  930TIP3    H224350   4.597   3.303   1.986  0.2916 -1.0393  0.4235
  931TIP3   OH224351   5.991   1.552   0.973 -0.2475  0.0029 -0.4000
  931TIP3    H124352   6.072   1.512   0.941  0.2467  0.1660  0.5950
  931TIP3    H224353   5.936   1.479   1.000 -0.0742 -0.0779 -0.2658
  932TIP3   OH224354   0.375   3.345   0.980  0.1889  0.8261 -0.3661
  932TIP3    H124355   0.376   3.319   0.888  0.1149  0.4984 -0.2734
  932TIP3    H224356   0.437   3.418   0.985  0.8911  0.2505 -0.4988
  933TIP3   OH224357   2.289   4.818   8.345 -0.0221  0.1396  0.3716
  933TIP3    H124358   2.253   4.792   8.261 -0.3200 -0.2157  0.6029
  933TIP3    H224359   2.336   4.900   8.328  0.5774 -0.3373 -0.2856
  934TIP3   OH224360   0.744   6.683   2.002 -0.0958  0.0948 -0.0372
  934TIP3    H124361   0.815   6.734   1.964  0.2202 -0.1889  0.1715
  934TIP3    H224362   0.692   6.655   1.927 -0.4661  1.0068 -0.1290
  935TIP3   OH224363   5.246   1.912   0.599 -0.3016 -0.4779 -0.1730
  935TIP3    H124364   5.241   1.821   0.569  0.3996 -0.8351  0.7423
  935TIP3    H224365   5.210   1.911   0.687  1.3145 -0.2219  0.5304
  936TIP3   OH224366   4.449   4.268   1.599 -0.1134 -0.4986 -0.6175
  936TIP3    H124367   4.516   4.299   1.660  1.2655 -1.7401 -1.4466
  936TIP3    H224368   4.437   4.340   1.537 -0.7974  0.3788  0.4867
  937TIP3   OH224369   2.145   0.352   7.666 -0.4826 -0.2929 -0.3211
  937TIP3    H124370   2.051   0.339   7.655 -0.3803 -0.5464 -0.9099
  937TIP3    H224371   2.157   0.361   7.761 -0.9734 -1.2422 -0.1580
  938TIP3   OH224372   2.207   1.265   1.667 -0.2425 -0.5207  0.0940
  938TIP3    H124373   2.171   1.179   1.690  0.6408 -0.6966  0.9051
  938TIP3    H224374   2.209   1.313   1.750  1.9137 -0.7439  0.2245
  939TIP3   OH224375   0.244   1.862   0.649  0.2578  0.5091  0.0815
  939TIP3    H124376   0.283   1.925   0.588 -2.6097  0.3107 -2.2237
  939TIP3    H224377   0.300   1.785   0.643  1.3490  1.3093 -0.4834
  940TIP3   OH224378   2.725   1.682   0.516  0.4570 -0.2597  0.1279
  940TIP3    H124379   2.799   1.731   0.480  0.4558 -1.2424 -1.2706
  940TIP3    H224380   2.712   1.609   0.455 -1.7609 -0.0334  0.2490
  941TIP3   OH224381   6.103   5.467   7.346  0.2472 -0.4629  0.3215
  941TIP3    H124382   6.154   5.532   7.395  1.2976 -0.3356 -0.8964
  941TIP3    H224383   6.076   5.403   7.411  0.3975  0.4523  1.3033
  942TIP3   OH224384   4.604   2.803   1.339  0.3419 -0.1359  0.1216
  942TIP3    H124385   4.625   2.818   1.431  1.6349  0.5292 -0.2644
  942TIP3    H224386   4.536   2.867   1.319 -2.4485 -2.4353  1.4320
  943TIP3   OH224387   6.429   5.660   2.760 -0.1414 -0.1398 -0.2867
  943TIP3    H124388   6.433   5.673   2.665 -0.2957 -0.2017 -0.3029
  943TIP3    H224389   6.425   5.748   2.797  2.4711  0.0208 -0.1943
  944TIP3   OH224390   6.389   0.447   1.870  0.2953  0.8472  0.4127
  944TIP3    H124391   6.296   0.454   1.893  0.2129 -1.3237  0.9609
  944TIP3    H224392   6.401   0.511   1.799 -1.7905  0.6684 -0.1699
  945TIP3   OH224393   3.256   0.620   1.956 -0.1584 -0.1180 -0.4372
  945TIP3    H124394   3.346   0.609   1.925  0.1706  0.1584  0.3933
  945TIP3    H224395   3.243   0.547   2.017 -0.0387  0.5870  0.4499
  946TIP3   OH224396   6.488   6.019   2.259 -0.6479 -0.0310  0.4829
  946TIP3    H124397   6.568   5.970   2.277 -0.5573 -0.0113  0.1480
  946TIP3    H224398   6.511   6.111   2.274  0.1523  0.2668 -2.0294
  947TIP3   OH224399   2.876   0.099   0.896  0.2220  0.0799 -0.9830
  947TIP3    H124400   2.809   0.031   0.885 -1.3483  0.6541  3.1688
  947TIP3    H224401   2.959   0.054   0.879 -0.9566 -1.8742 -1.9255
  948TIP3   OH224402   2.671   2.589   1.578  0.2178  0.6189 -0.7874
  948TIP3    H124403   2.727   2.513   1.558  0.4534  0.3705  0.6365
  948TIP3    H224404   2.600   2.585   1.515  1.1983  0.2601 -1.8950
  949TIP3   OH224405   1.532   0.444   1.371  0.4693  0.1605  0.4965
  949TIP3    H124406   1.472   0.396   1.314  3.0545 -1.0398 -1.4788
  949TIP3    H224407   1.560   0.380   1.437 -0.6710  0.8323  1.6669
  950TIP3   OH224408   2.659   4.478   0.777 -0.3629 -0.1436 -0.0500
  950TIP3    H124409   2.582   4.473   0.721 -0.5580 -0.5825  0.2509
  950TIP3    H224410   2.634   4.538   0.847 -0.2358  0.1460 -0.2523
  951TIP3   OH224411   5.138   6.255   1.326  0.7522  0.2544  0.4519
  951TIP3    H124412   5.205   6.278   1.262 -0.3262  0.5347 -0.6158
  951TIP3    H224413   5.139   6.159   1.328 -0.1048  0.1799 -1.0334
  952TIP3   OH224414   0.735   4.100   1.128 -0.5910 -0.0369 -0.3100
  952TIP3    H124415   0.719   4.122   1.219 -0.0204  1.7499 -0.6017
  952TIP3    H224416   0.674   4.155   1.079  0.9147  1.0387 -1.0797
  953TIP3   OH224417   3.717   2.281   1.222 -0.1611 -0.3635  0.4269
  953TIP3    H124418   3.628   2.247   1.223  0.7152 -2.8350  0.3777
  953TIP3    H224419   3.758   2.240   1.145  0.4640  2.4444 -0.8963
  954TIP3   OH224420   4.997   1.282   1.150  0.7696 -0.1413  0.2965
  954TIP3    H124421   4.989   1.187   1.143 -2.0599  0.0203  0.0068
  954TIP3    H224422   4.972   1.314   1.063  1.1263  0.8843  0.5624
  955TIP3   OH224423   5.153   1.003   3.112  0.3682  0.3119 -0.4419
  955TIP3    H124424   5.162   0.913   3.145  2.6371 -0.1374 -2.0655
  955TIP3    H224425   5.058   1.019   3.114 -0.1000 -2.0917 -0.0335
  956TIP3   OH224426   0.165   0.314   7.599  0.4109 -0.0025 -0.3800
  956TIP3    H124427   0.219   0.273   7.531  0.6377  1.3555 -1.0615
  956TIP3    H224428   0.168   0.408   7.578 -0.6212  0.2992  0.7253
  957TIP3   OH224429   5.784   6.769   1.191 -0.5265  0.0271 -0.1592
  957TIP3    H124430   5.746   6.831   1.253  1.9303  1.1540  0.3431
  957TIP3    H224431   5.794   6.819   1.110  1.2283  0.2640  0.1715
  958TIP3   OH224432   6.724   5.988   2.037 -0.0176 -0.3727  0.0323
  958TIP3    H124433   6.704   5.896   2.054 -0.9122  0.1079  1.8828
  958TIP3    H224434   6.797   5.986   1.976 -1.5467 -2.2847 -1.8913
  959TIP3   OH224435   3.573   4.720   8.029 -0.3321 -0.0338 -0.2550
  959TIP3    H124436   3.539   4.687   8.112  1.6695 -1.4010  0.1009
  959TIP3    H224437   3.529   4.667   7.963 -0.8576  0.0564  0.0135
  960TIP3   OH224438   2.660   2.312   1.180 -0.3657 -0.2790  0.0498
  960TIP3    H124439   2.595   2.274   1.240 -2.0405 -0.2703 -1.6555
  960TIP3    H224440   2.698   2.385   1.228 -1.0602 -0.7703  1.3890
  961TIP3   OH224441   2.484   4.400   3.305 -0.3923 -0.5592 -0.2531
  961TIP3    H124442   2.433   4.352   3.240 -2.4067  0.8408  0.2183
  961TIP3    H224443   2.512   4.479   3.260  1.9657 -1.5540 -0.6833
  962TIP3   OH224444   4.958   1.552   1.599 -0.1216 -0.1453  0.3199
  962TIP3    H124445   4.899   1.613   1.644  1.0472  1.2148  0.0903
  962TIP3    H224446   4.945   1.570   1.506  1.2181  0.7602  0.2836
  963TIP3   OH224447   3.350   1.033   1.211 -0.2326  0.0627  0.0547
  963TIP3    H124448   3.327   1.082   1.132 -2.5236  0.7050  1.0563
  963TIP3    H224449   3.278   0.972   1.223 -0.0797  0.1991  1.8419
  964TIP3   OH224450   6.149   6.137   8.485 -0.1095 -0.5113  0.4794
  964TIP3    H124451   6.178   6.054   8.446 -0.2699 -0.5224  0.3838
  964TIP3    H224452   6.208   6.203   8.446 -0.5799 -0.4573 -0.1588
  965TIP3   OH224453   4.023   3.474   1.749 -0.1552  0.1308 -0.0637
  965TIP3    H124454   3.962   3.544   1.726 -2.1056 -1.4179  0.0184
  965TIP3    H224455   4.081   3.467   1.673 -0.5287  1.2000 -0.4705
  966TIP3   OH224456   3.774   0.720   8.285 -0.1427  0.5909  0.0617
  966TIP3    H124457   3.863   0.686   8.280  0.1180  1.0233  1.3322
  966TIP3    H224458   3.719   0.642   8.292  0.2957  0.3542  1.0492
  967TIP3   OH224459   4.957   0.774   2.416 -0.1030 -0.3546  0.0273
  967TIP3    H124460   4.883   0.797   2.473  0.3712  0.0707  0.4844
  967TIP3    H224461   4.992   0.694   2.454  0.5289  0.2060  0.6534
  968TIP3   OH224462   3.793   5.867   1.738 -0.2540 -0.2487 -0.2129
  968TIP3    H124463   3.844   5.868   1.819  1.3574 -0.8220 -1.1946
  968TIP3    H224464   3.713   5.819   1.762  0.3303 -0.6869  0.9466
  969TIP3   OH224465   3.843   5.369   2.139  0.7966  0.2069  0.4859
  969TIP3    H124466   3.800   5.318   2.070 -1.0779  2.1261  0.1437
  969TIP3    H224467   3.914   5.312   2.169  0.1603 -1.6948 -1.3255
  970TIP3   OH224468   5.433   0.661   0.085 -0.2279  0.6311  0.3232
  970TIP3    H124469   5.445   0.720   0.010 -0.9284  0.1487 -0.1820
  970TIP3    H224470   5.383   0.587   0.050 -1.2587  0.7613  1.4412
  971TIP3   OH224471   2.655   5.524   1.254 -0.1584 -0.0504 -0.2872
  971TIP3    H124472   2.604   5.447   1.277 -1.3499 -0.1070 -2.7989
  971TIP3    H224473   2.746   5.498   1.270 -0.6786 -1.0464  1.2867
  972TIP3   OH224474   6.047   3.477   2.560  0.2883  0.0634 -0.0546
  972TIP3    H124475   5.977   3.531   2.524  0.5954  1.5454  1.4251
  972TIP3    H224476   6.090   3.438   2.484 -1.8660 -0.5823 -1.0225
  973TIP3   OH224477   5.706   1.507   1.522  0.5235 -0.5274 -0.5049
  973TIP3    H124478   5.775   1.567   1.550 -0.5367  0.1316  0.8626
  973TIP3    H224479   5.636   1.520   1.587 -0.3525 -2.1232 -1.0800
  974TIP3   OH224480   0.348   6.466   1.784 -0.2980  0.3050 -0.3471
  974TIP3    H124481   0.431   6.514   1.777 -0.4493  0.3368 -2.4540
  974TIP3    H224482   0.373   6.374   1.781 -0.1556  0.2080  1.9410
  975TIP3   OH224483   2.261   1.633   2.617  0.2622 -0.2916 -0.0326
  975TIP3    H124484   2.227   1.560   2.564 -2.1225 -0.5437  1.6843
  975TIP3    H224485   2.281   1.594   2.702 -0.1210  0.8820  0.6185
  976TIP3   OH224486   0.711   1.049   3.708  0.3139 -0.1275  0.1204
  976TIP3    H124487   0.736   0.997   3.632 -1.2819  0.4487 -0.8522
  976TIP3    H224488   0.736   1.138   3.686 -1.1617  0.2267 -0.2576
  977TIP3   OH224489   3.605   5.795   0.646  0.1461  0.2279  0.1613
  977TIP3    H124490   3.562   5.721   0.689 -0.2187  0.0474 -0.4944
  977TIP3    H224491   3.647   5.844   0.717 -1.5114  0.6616  0.8933
  978TIP3   OH224492   4.840   2.325   1.736  0.0823 -0.3733  0.0304
  978TIP3    H124493   4.793   2.249   1.771  0.2103  0.1696  1.4704
  978TIP3    H224494   4.933   2.301   1.745  0.1657  0.4308  1.7479
  979TIP3   OH224495   6.429   4.948   0.742 -0.1879  0.0945 -0.4059
  979TIP3    H124496   6.425   4.935   0.837  2.1458 -3.2686 -0.6105
  979TIP3    H224497   6.388   4.870   0.705  0.9572  0.2731 -2.1397
  980TIP3   OH224498   4.766   5.190   2.551  0.1065 -0.2206  0.6154
  980TIP3    H124499   4.804   5.235   2.475  1.2410  0.7635  1.7219
  980TIP3    H224500   4.673   5.180   2.529  0.1700  1.1309 -0.3915
  981TIP3   OH224501   1.614   6.494   0.644  0.4135 -0.4016 -0.3077
  981TIP3    H124502   1.669   6.571   0.655 -2.1142  1.4735  0.2434
  981TIP3    H224503   1.584   6.500   0.553 -1.7866  0.8264  0.4173
  982TIP3   OH224504   1.208   0.016   3.111 -0.3447  0.1459  0.8017
  982TIP3    H124505   1.285  -0.032   3.081 -0.3529  0.4711  0.2405
  982TIP3    H224506   1.200   0.090   3.050 -2.3248 -1.0583 -0.5394
  983TIP3   OH224507   2.724   6.593   1.320  0.2396 -0.3971 -0.1317
  983TIP3    H124508   2.666   6.622   1.250  0.0196  1.1268  0.6484
  983TIP3    H224509   2.811   6.624   1.293  0.4024 -1.0800 -0.4146
  984TIP3   OH224510   3.728   3.196   8.520  0.0157 -0.2296  0.3257
  984TIP3    H124511   3.757   3.112   8.484 -0.2075  0.4101 -1.4783
  984TIP3    H224512   3.794   3.259   8.489 -0.3061  0.3903  0.8858
  985TIP3   OH224513   6.841   2.601   1.785 -0.0323 -0.1281 -0.2606
  985TIP3    H124514   6.894   2.578   1.861  0.1075  0.5663 -0.1415
  985TIP3    H224515   6.904   2.632   1.720 -0.3247  1.3964  0.1383
  986TIP3   OH224516   2.219   0.190   7.920  0.2474 -0.0992 -0.2992
  986TIP3    H124517   2.219   0.129   7.846  2.2032 -1.2395  0.5495
  986TIP3    H224518   2.271   0.146   7.987  0.8732  2.0583  0.7370
  987TIP3   OH224519   1.074   0.163   1.864  0.8225 -0.2785 -0.5093
  987TIP3    H124520   1.099   0.255   1.859 -0.0208 -0.0728 -1.0295
  987TIP3    H224521   1.097   0.137   1.953 -0.7613  0.9733  0.3106
  988TIP3   OH224522   2.847   0.643   0.747 -0.0275 -0.2221 -0.8652
  988TIP3    H124523   2.908   0.673   0.814 -1.9243  0.3447  0.6520
  988TIP3    H224524   2.863   0.549   0.742  0.3963 -0.2167  0.1042
  989TIP3   OH224525   0.379   0.953   1.918 -0.2316 -0.8073  0.7173
  989TIP3    H124526   0.472   0.973   1.917 -0.5009  0.7262 -1.5024
  989TIP3    H224527   0.372   0.867   1.877  0.1418 -0.2177 -0.6594
  990TIP3   OH224528   5.191   4.264   1.962  0.0393 -0.4149 -0.1115
  990TIP3    H124529   5.146   4.257   1.877  0.1567  2.4512 -0.5124
  990TIP3    H224530   5.275   4.221   1.948 -0.0942 -0.3211 -1.3389
  991TIP3   OH224531   1.114   4.622   7.831  0.4092 -0.5715  0.0909
  991TIP3    H124532   1.145   4.681   7.763  1.3222 -2.2016 -0.9798
  991TIP3    H224533   1.031   4.660   7.860 -0.0853  0.1122 -2.0350
  992TIP3   OH224534   3.768   2.569   8.097  0.2978 -0.8062 -0.3759
  992TIP3    H124535   3.754   2.552   8.190  1.0995 -0.1064 -0.1127
  992TIP3    H224536   3.843   2.628   8.095 -0.8673  0.7000 -1.3883
  993TIP3   OH224537   5.951   6.299   2.234  0.6226 -0.8224 -0.1961
  993TIP3    H124538   5.972   6.389   2.258  0.3036 -0.4429 -1.3048
  993TIP3    H224539   5.954   6.298   2.138  0.5116 -1.9634 -0.2007
  994TIP3   OH224540   5.721   6.486   0.119  0.3480 -0.0916 -0.6671
  994TIP3    H124541   5.706   6.433   0.040  0.0997 -0.6779 -0.2306
  994TIP3    H224542   5.776   6.558   0.088  0.1287 -0.2301 -1.4102
  995TIP3   OH224543   2.191   1.557   0.166  0.0511  0.4347 -0.1795
  995TIP3    H124544   2.208   1.648   0.142  1.8534  0.0485 -0.5108
  995TIP3    H224545   2.230   1.548   0.254 -0.4799  0.0881  0.0220
  996TIP3   OH224546   5.326   6.641   0.638 -0.1295 -0.3971  0.2074
  996TIP3    H124547   5.385   6.717   0.640  0.2669 -0.7178  1.1870
  996TIP3    H224548   5.323   6.616   0.545 -0.7972  1.2075 -0.2526
  997TIP3   OH224549   2.327   4.651   2.719  0.3434 -0.3944  0.1503
  997TIP3    H124550   2.361   4.630   2.632  0.0175 -0.7104  0.0976
  997TIP3    H224551   2.261   4.584   2.736 -0.1745  0.1471  0.3010
  998TIP3   OH224552   5.738   3.033   0.671 -0.4898 -0.1990 -0.4618
  998TIP3    H124553   5.740   3.085   0.751  2.7149  1.6624 -1.5458
  998TIP3    H224554   5.741   2.942   0.701 -2.0900  0.3276  1.4775
  999TIP3   OH224555   5.946   4.687   2.535 -0.5498  0.3155 -0.1367
  999TIP3    H124556   6.026   4.679   2.483 -0.2395 -2.4861  0.5828
  999TIP3    H224557   5.878   4.710   2.473  0.2436 -0.5339 -1.3606
 1000TIP3   OH224558   1.382   5.488   8.150 -0.1942  0.1664  0.5282
 1000TIP3    H124559   1.470   5.459   8.175  0.3148  1.4265  0.2925
 1000TIP3    H224560   1.324   5.442   8.210  0.5444 -1.3023  0.1779
 1001TIP3   OH224561   6.690   4.193   2.263 -0.2413  0.2868  0.5359
 1001TIP3    H124562   6.701   4.110   2.309  1.4226  0.8036  1.1681
 1001TIP3    H224563   6.627   4.175   2.193  2.5891 -2.4907 -1.5659
 1002TIP3   OH224564   5.414   2.208   0.833 -0.8750 -0.0070  0.1716
 1002TIP3    H124565   5.397   2.257   0.752 -1.2601  1.4137  1.0780
 1002TIP3    H224566   5.362   2.128   0.824 -2.4469  1.0012 -0.1906
 1003TIP3   OH224567   0.232   0.524   3.414 -0.7117 -0.7449 -0.0750
 1003TIP3    H124568   0.262   0.610   3.443 -0.7140 -0.8234  0.1592
 1003TIP3    H224569   0.227   0.471   3.494 -0.6068 -0.9940 -0.2305
 1004TIP3   OH224570   0.883   5.088   0.880 -0.9526  0.1471 -0.0051
 1004TIP3    H124571   0.876   5.172   0.925  0.4771  0.1034  0.3695
 1004TIP3    H224572   0.821   5.031   0.926 -0.6105  0.5185  0.9552
 1005TIP3   OH224573   4.426   3.950   1.863 -0.0187 -0.3956 -0.3547
 1005TIP3    H124574   4.396   3.869   1.903  0.6268 -0.4787 -0.0143
 1005TIP3    H224575   4.397   4.019   1.923  0.7742 -0.5051  0.1740
 1006TIP3   OH224576   0.222   2.200   1.032 -0.6416  0.4996 -0.3235
 1006TIP3    H124577   0.228   2.114   0.990  1.7231 -0.5485  1.8710
 1006TIP3    H224578   0.278   2.257   0.980 -0.6949  0.2171 -0.6926
 1007TIP3   OH224579   0.542   6.874   7.517  0.3001  0.3490 -0.0302
 1007TIP3    H124580   0.504   6.807   7.574  0.3061 -0.5436 -1.0464
 1007TIP3    H224581   0.622   6.901   7.562 -0.8488  1.3505  1.5153
 1008TIP3   OH224582   3.928   1.714   8.251  0.5269  0.6419 -0.1095
 1008TIP3    H124583   4.017   1.689   8.227  0.8916  1.0693  0.7377
 1008TIP3    H224584   3.880   1.717   8.168  1.1083 -0.3102 -0.4948
 1009TIP3   OH224585   2.634   2.288   1.772  0.4670  0.3435  0.1271
 1009TIP3    H124586   2.561   2.232   1.796  0.4854  0.7263  1.1143
 1009TIP3    H224587   2.629   2.295   1.677  0.0417 -0.7379  0.0644
 1010TIP3   OH224588   0.928   5.890   2.820  0.0017 -0.4880 -0.0509
 1010TIP3    H124589   0.839   5.920   2.802  0.1710  0.5995  0.8110
 1010TIP3    H224590   0.932   5.882   2.915  1.3670  1.3485  0.1051
 1011TIP3   OH224591   1.862   2.623   0.413  0.4148  0.0575  0.6159
 1011TIP3    H124592   1.927   2.634   0.343 -0.9885  2.1638 -0.4535
 1011TIP3    H224593   1.801   2.558   0.380  0.3101  0.3102  0.3125
 1012TIP3   OH224594   0.832   5.268   1.225  0.1261  0.5910 -0.2187
 1012TIP3    H124595   0.781   5.319   1.288  0.6040  3.5646 -2.0689
 1012TIP3    H224596   0.915   5.315   1.218  2.4229 -2.8595  1.0168
 1013TIP3   OH224597   4.792   1.219   2.562 -0.0597  0.1146 -0.2044
 1013TIP3    H124598   4.730   1.272   2.511 -1.6957 -0.0770  1.4594
 1013TIP3    H224599   4.793   1.134   2.518 -0.3397  0.3708 -0.7191
 1014TIP3   OH224600   2.196   2.673   3.118 -0.7374 -0.3871  0.1830
 1014TIP3    H124601   2.189   2.726   3.198  0.7337  1.5477 -0.8781
 1014TIP3    H224602   2.127   2.706   3.061  0.7653  1.2044 -0.8423
 1015TIP3   OH224603   5.017   4.600   2.616 -0.0123  0.0711 -0.4154
 1015TIP3    H124604   5.047   4.520   2.571  1.8497  0.1280  0.6068
 1015TIP3    H224605   4.997   4.570   2.705  0.2046  0.6536 -0.1707
 1016TIP3   OH224606   0.516   3.759   8.193  0.1224  0.2375  0.4392
 1016TIP3    H124607   0.605   3.724   8.185  1.0381  2.1454  1.4446
 1016TIP3    H224608   0.493   3.786   8.104  1.8328  2.4700  0.5666
 1017TIP3   OH224609   6.079   3.823   8.297  0.1361 -0.5278  0.9962
 1017TIP3    H124610   6.116   3.751   8.246  0.2888  0.1097  0.1785
 1017TIP3    H224611   6.114   3.902   8.256 -2.1620  0.1139  0.1000
 1018TIP3   OH224612   1.746   5.665   2.350 -0.2479  0.1314  0.9001
 1018TIP3    H124613   1.775   5.746   2.393  1.2063 -1.0142  2.1969
 1018TIP3    H224614   1.801   5.597   2.388  0.4509 -1.1365 -2.0968
 1019TIP3   OH224615   0.986   5.827   0.457 -0.1768 -0.1786 -0.6019
 1019TIP3    H124616   0.906   5.873   0.431  0.7697  0.1311 -3.2344
 1019TIP3    H224617   1.055   5.892   0.451  0.2878 -0.3435  2.0251
 1020TIP3   OH224618   5.044   3.096   2.796  0.3377 -0.1992  0.3486
 1020TIP3    H124619   4.948   3.097   2.798  0.3110 -1.2162  0.2453
 1020TIP3    H224620   5.069   3.065   2.883  0.6263  1.1603  0.7796
 1021TIP3   OH224621   3.469   3.709   2.491 -0.3125  0.4760  0.3722
 1021TIP3    H124622   3.383   3.742   2.465 -1.2658 -0.8029  1.7518
 1021TIP3    H224623   3.530   3.753   2.432 -1.7951  2.2033  0.0292
 1022TIP3   OH224624   1.766   4.076   8.401 -0.1310 -0.0131 -0.0997
 1022TIP3    H124625   1.694   4.020   8.372 -1.8564  1.5584  0.9003
 1022TIP3    H224626   1.808   4.028   8.472 -0.3803 -0.8144 -0.4804
 1023TIP3   OH224627   5.270   4.979   0.725 -0.0753  0.2077 -0.0589
 1023TIP3    H124628   5.318   4.905   0.687  1.4358 -0.3039  2.5833
 1023TIP3    H224629   5.178   4.955   0.715  0.2584 -0.3784 -2.2936
 1024TIP3   OH224630   2.965   5.945   0.162  0.9796 -0.3072  0.1531
 1024TIP3    H124631   2.987   5.900   0.080  0.0682 -0.2910 -0.1049
 1024TIP3    H224632   3.009   5.894   0.230  0.2792 -1.3634 -0.1691
 1025TIP3   OH224633   4.686   4.332   1.764  0.2685  0.3309  0.2709
 1025TIP3    H124634   4.714   4.419   1.793  2.3096  0.4602 -1.8111
 1025TIP3    H224635   4.731   4.271   1.823 -0.5773  0.6257  1.2573
 1026TIP3   OH224636   0.144   2.782   0.993 -0.2382 -0.5605 -0.2799
 1026TIP3    H124637   0.121   2.866   1.032 -0.1382 -0.3755 -0.6157
 1026TIP3    H224638   0.111   2.717   1.054  0.1831 -0.2723  0.2672
 1027TIP3   OH224639   2.241   5.514   8.411 -0.1647 -0.2950  0.4498
 1027TIP3    H124640   2.205   5.564   8.485 -3.2029 -1.2146 -0.2638
 1027TIP3    H224641   2.246   5.577   8.339 -0.7805 -0.2284  0.4588
 1028TIP3   OH224642   6.850   0.852   0.501  0.1438  0.6047 -0.0074
 1028TIP3    H124643   6.782   0.915   0.526  1.0087  1.4370  0.2728
 1028TIP3    H224644   6.932   0.892   0.530  0.7694 -0.3386 -0.4457
 1029TIP3   OH224645   6.534   2.952   7.470 -0.2016  0.4027 -0.0783
 1029TIP3    H124646   6.559   2.969   7.561 -1.1580 -0.2821  0.3294
 1029TIP3    H224647   6.439   2.942   7.473 -0.2068  0.0297 -1.1083
 1030TIP3   OH224648   2.747   2.339   8.439 -0.0412  0.0556  0.3553
 1030TIP3    H124649   2.815   2.371   8.380 -0.7667  0.0476 -0.5152
 1030TIP3    H224650   2.742   2.406   8.508  1.1355 -0.1686  0.6747
 1031TIP3   OH224651   4.284   0.522   0.801  0.2914  0.2635 -0.2125
 1031TIP3    H124652   4.292   0.430   0.825  1.4667  0.3112 -0.3547
 1031TIP3    H224653   4.246   0.564   0.878  2.3655  0.1196  0.9514
 1032TIP3   OH224654   2.974   6.649   8.228 -0.1778  0.1444 -0.2333
 1032TIP3    H124655   2.897   6.595   8.210 -0.6668  0.9053 -0.4710
 1032TIP3    H224656   3.031   6.593   8.280 -0.1080 -1.0367 -1.5513
 1033TIP3   OH224657   6.329   3.331   7.900  0.5008  0.0812  0.0871
 1033TIP3    H124658   6.413   3.285   7.890 -1.1295 -3.1692  0.2239
 1033TIP3    H224659   6.320   3.382   7.819  2.9761  1.2634  0.4698
 1034TIP3   OH224660   4.245   0.848   8.025 -0.3098  0.0521 -0.0599
 1034TIP3    H124661   4.259   0.887   8.112 -0.9106 -0.9619  0.5182
 1034TIP3    H224662   4.263   0.919   7.964 -0.4136  0.9511  0.9161
 1035TIP3   OH224663   5.072   1.687   7.698 -0.3034  0.2758  0.4740
 1035TIP3    H124664   5.157   1.661   7.663  0.7883  0.6551  2.6782
 1035TIP3    H224665   5.065   1.780   7.677 -0.7848 -0.0145 -0.7822
 1036TIP3   OH224666   1.822   3.831   8.188 -0.2127  0.2877  0.1330
 1036TIP3    H124667   1.815   3.752   8.135 -0.5136  0.2306  0.2570
 1036TIP3    H224668   1.913   3.859   8.177 -0.0052 -0.2751  0.3639
 1037TIP3   OH224669   2.799   4.138   8.277  0.1475  0.4411 -0.0798
 1037TIP3    H124670   2.880   4.090   8.258  0.6034  1.2612 -0.2648
 1037TIP3    H224671   2.739   4.109   8.208  0.2848 -0.1521  0.0378
 1038TIP3   OH224672   3.584   2.504   1.760 -0.4523  0.1612  0.0597
 1038TIP3    H124673   3.501   2.513   1.713  0.3243  0.6280 -1.2817
 1038TIP3    H224674   3.581   2.570   1.829 -1.4877 -0.3156  0.4863
 1039TIP3   OH224675   2.815   3.783   0.210 -0.0826 -0.0470  0.1362
 1039TIP3    H124676   2.787   3.856   0.266  0.9132 -0.3107  1.0109
 1039TIP3    H224677   2.735   3.757   0.164 -0.2721  2.2095 -0.9638
 1040TIP3   OH224678   1.736   0.662   1.831 -0.9016 -0.3472 -0.2429
 1040TIP3    H124679   1.669   0.708   1.882  1.4796  1.6454  1.3096
 1040TIP3    H224680   1.766   0.593   1.889  2.0747  2.1528  1.4726
 1041TIP3   OH224681   0.972   3.410   0.415  0.0990 -0.4887  0.0998
 1041TIP3    H124682   1.004   3.337   0.468  1.7909 -0.0561 -0.2920
 1041TIP3    H224683   1.002   3.489   0.460  1.5678 -0.1150 -1.4511
 1042TIP3   OH224684   2.185   2.620   2.111 -0.8370 -0.0428 -0.1573
 1042TIP3    H124685   2.110   2.670   2.079 -0.8148 -0.4761 -0.9181
 1042TIP3    H224686   2.163   2.598   2.201  0.0520  3.1012  0.9523
 1043TIP3   OH224687   3.782   6.006   0.296  0.3007 -0.6444 -0.8722
 1043TIP3    H124688   3.794   5.998   0.201  2.3187  0.0846 -0.7233
 1043TIP3    H224689   3.827   6.087   0.319 -0.7924 -0.4269  0.6278
 1044TIP3   OH224690   6.525   3.889   8.207 -0.5068 -0.9849  0.2321
 1044TIP3    H124691   6.505   3.955   8.273  1.7667 -1.9115  1.9773
 1044TIP3    H224692   6.546   3.810   8.257 -2.6723 -2.9682 -1.7715
 1045TIP3   OH224693   4.611   6.557   0.721 -0.2432 -0.5607 -0.0160
 1045TIP3    H124694   4.561   6.618   0.666  0.3285 -0.0542  0.0090
 1045TIP3    H224695   4.702   6.573   0.696 -0.0891 -1.4563 -0.0521
 1046TIP3   OH224696   5.945   0.768   1.508  0.1123  0.2572  0.5173
 1046TIP3    H124697   5.990   0.709   1.447 -0.9800 -1.7487  1.5493
 1046TIP3    H224698   5.856   0.734   1.512 -0.9328  2.7755  0.2349
 1047TIP3   OH224699   5.220   4.204   8.477 -0.1952  0.1359 -0.7745
 1047TIP3    H124700   5.263   4.119   8.487  2.2031  1.5055  2.5356
 1047TIP3    H224701   5.283   4.256   8.427 -0.1954  0.7952 -0.1028
 1048TIP3   OH224702   0.785   3.530   8.246 -0.1096  0.3580 -0.5604
 1048TIP3    H124703   0.793   3.565   8.334  0.6155  1.7509 -1.1404
 1048TIP3    H224704   0.844   3.585   8.193 -2.6903  1.5320 -2.4452
 1049TIP3   OH224705   4.014   5.811   2.502 -0.3498 -0.1731  0.1301
 1049TIP3    H124706   3.923   5.839   2.485 -0.4649 -0.6756 -0.0771
 1049TIP3    H224707   4.066   5.861   2.439 -0.6222 -0.8961 -0.6820
 1050TIP3   OH224708   3.344   3.500   2.590  0.0080 -0.3462  0.1359
 1050TIP3    H124709   3.279   3.480   2.523 -0.2074  0.2897  0.1411
 1050TIP3    H224710   3.388   3.579   2.557 -0.3475  0.1823  0.9093
 1051TIP3   OH224711   2.292   2.027   0.502  0.2619 -0.0354  0.3039
 1051TIP3    H124712   2.280   2.018   0.597 -0.3085 -1.7827  0.1113
 1051TIP3    H224713   2.377   1.986   0.486 -0.4664 -1.4446 -0.1275
 1052TIP3   OH224714   3.190   5.776   3.304  0.1402  0.7847 -0.6211
 1052TIP3    H124715   3.155   5.809   3.221  2.7518  1.8036 -1.4439
 1052TIP3    H224716   3.243   5.849   3.337  1.8916 -0.7917  0.1869
 1053TIP3   OH224717   5.485   0.908   0.852  0.1004 -0.0801 -0.9148
 1053TIP3    H124718   5.403   0.887   0.807  0.0394 -1.1272 -0.3611
 1053TIP3    H224719   5.512   0.825   0.892  1.0086  0.4413 -0.4040
 1054TIP3   OH224720   4.087   4.998   0.681  0.4819  0.0954  0.4358
 1054TIP3    H124721   4.106   4.992   0.775  0.1801 -0.0816  0.4847
 1054TIP3    H224722   4.012   4.941   0.667  0.7470 -0.1656  0.0224
 1055TIP3   OH224723   5.311   5.054   0.209  0.0045  1.0050 -0.4268
 1055TIP3    H124724   5.255   5.127   0.180  1.4684  1.6066 -1.8844
 1055TIP3    H224725   5.355   5.025   0.129  1.1115 -0.0333  0.5347
 1056TIP3   OH224726   3.322   4.232   2.459  0.0976 -0.5622 -0.1874
 1056TIP3    H124727   3.338   4.156   2.402 -1.2043 -0.5739 -0.5740
 1056TIP3    H224728   3.270   4.292   2.405 -0.9211 -0.4444  0.8701
 1057TIP3   OH224729   1.689   0.177   1.487 -0.0393 -0.1699 -0.7574
 1057TIP3    H124730   1.735   0.249   1.528  0.5414  1.0448 -3.3622
 1057TIP3    H224731   1.608   0.167   1.538  0.0744  2.0407 -0.0800
 1058TIP3   OH224732   4.593   0.797   2.834 -0.0331  0.2955  0.0692
 1058TIP3    H124733   4.601   0.890   2.853 -1.2863  0.2710  0.8377
 1058TIP3    H224734   4.577   0.756   2.919  1.0969 -0.7167 -0.1689
 1059TIP3   OH224735   5.544   6.392   2.068 -0.5247  0.0379 -0.2525
 1059TIP3    H124736   5.604   6.466   2.064  2.0279 -1.8279  0.7254
 1059TIP3    H224737   5.529   6.367   1.977  0.2642  0.4926 -0.5152
 1060TIP3   OH224738   3.908   3.351   2.316  0.0462 -0.3869  0.4017
 1060TIP3    H124739   3.987   3.309   2.349 -0.4186  0.2124  2.4302
 1060TIP3    H224740   3.938   3.403   2.242  1.1683 -1.7564 -0.1569
 1061TIP3   OH224741   4.618   5.479   2.270  0.1922 -0.2483  0.3177
 1061TIP3    H124742   4.630   5.396   2.316  0.1245  0.1247  1.0137
 1061TIP3    H224743   4.586   5.540   2.337 -1.2487 -0.0482 -0.5100
 1062TIP3   OH224744   2.136   5.751   1.966  0.3636 -0.5082 -0.5643
 1062TIP3    H124745   2.090   5.667   1.955  2.2025 -1.6818  0.2353
 1062TIP3    H224746   2.154   5.780   1.877 -0.1650 -1.0343 -0.8536
 1063TIP3   OH224747   3.359   5.060   0.768  0.1105  0.1098  0.0827
 1063TIP3    H124748   3.345   5.047   0.862 -0.0210 -0.8413 -0.0646
 1063TIP3    H224749   3.271   5.072   0.732  0.1497  0.3284  0.0600
 1064TIP3   OH224750   5.967   5.078   0.677  0.3307  0.7369 -0.0488
 1064TIP3    H124751   5.958   5.010   0.744 -0.5915  1.1824  0.2998
 1064TIP3    H224752   5.985   5.030   0.596  0.5296  0.1327  0.3475
 1065TIP3   OH224753   6.887   1.158   3.028 -0.3027  0.1225 -0.2060
 1065TIP3    H124754   6.836   1.091   2.983 -0.1208 -0.0323 -0.1851
 1065TIP3    H224755   6.853   1.159   3.117 -0.8664  0.6380 -0.4208
 1066TIP3   OH224756   0.675   2.498   0.485 -0.0884  0.3729 -0.8561
 1066TIP3    H124757   0.704   2.428   0.544  1.2512  2.8076  1.5826
 1066TIP3    H224758   0.602   2.539   0.532 -0.7980  0.6911 -2.2132
 1067TIP3   OH224759   4.754   6.311   1.992 -0.2833  0.1824 -0.1052
 1067TIP3    H124760   4.741   6.285   1.901  2.4708 -0.1854 -0.4832
 1067TIP3    H224761   4.841   6.352   1.993 -0.8885  1.6206  2.0848
 1068TIP3   OH224762   2.514   0.859   0.519 -0.0836 -0.8575 -0.1912
 1068TIP3    H124763   2.428   0.901   0.518 -0.2812 -1.2613 -1.5086
 1068TIP3    H224764   2.497   0.771   0.553 -0.0077 -0.6145  0.5107
 1069TIP3   OH224765   2.386   4.156   1.916  0.8691 -0.0942 -0.8583
 1069TIP3    H124766   2.297   4.156   1.951  0.9172 -2.0806 -0.6253
 1069TIP3    H224767   2.435   4.213   1.975  0.1312 -0.3918  0.0619
 1070TIP3   OH224768   0.640   0.486   1.048 -0.1902  0.3337 -0.3238
 1070TIP3    H124769   0.560   0.454   1.006 -1.7550  1.8408  1.3865
 1070TIP3    H224770   0.639   0.580   1.034  0.4930  0.5604  1.0157
 1071TIP3   OH224771   4.637   0.734   8.241 -0.0037 -0.3965  0.0473
 1071TIP3    H124772   4.644   0.800   8.172  0.9158  0.2496  0.7447
 1071TIP3    H224773   4.713   0.678   8.228  1.8771  1.4424  2.2516
 1072TIP3   OH224774   5.406   5.857   3.234 -0.0019 -0.2720 -0.0449
 1072TIP3    H124775   5.371   5.778   3.275  0.9158 -0.7277 -0.1105
 1072TIP3    H224776   5.348   5.927   3.263 -0.6644 -0.9280  0.2382
 1073TIP3   OH224777   3.059   3.168   1.292 -0.0867  0.1374 -0.0174
 1073TIP3    H124778   3.063   3.116   1.372 -0.5630 -1.0682 -0.7288
 1073TIP3    H224779   3.079   3.105   1.222  0.1464  1.1136 -0.8522
 1074TIP3   OH224780   6.128   3.864   1.385 -0.0869  0.3934  0.7115
 1074TIP3    H124781   6.117   3.840   1.294 -1.6319  0.8694  0.7481
 1074TIP3    H224782   6.126   3.960   1.385 -1.4146  0.3832  1.3698
 1075TIP3   OH224783   6.526   1.058   2.266 -0.0312  0.5041  0.0873
 1075TIP3    H124784   6.533   0.979   2.212  1.0644  0.3451  0.4413
 1075TIP3    H224785   6.562   1.033   2.351  1.6088  1.7173 -0.1850
 1076TIP3   OH224786   2.334   5.138   2.719  0.5714  0.5191 -0.3051
 1076TIP3    H124787   2.382   5.185   2.650  0.1062 -0.3094 -1.2203
 1076TIP3    H224788   2.351   5.045   2.700 -0.0222  0.2673  0.3732
 1077TIP3   OH224789   5.418   5.631   2.542 -0.4005  0.1609 -0.4058
 1077TIP3    H124790   5.383   5.542   2.549 -2.0216  0.8001  0.1293
 1077TIP3    H224791   5.436   5.643   2.449 -1.4928 -0.2708 -0.6900
 1078TIP3   OH224792   6.160   3.990   3.025  0.4696 -0.0358 -0.8906
 1078TIP3    H124793   6.185   3.904   2.992 -1.4077 -0.6101 -0.9650
 1078TIP3    H224794   6.132   4.038   2.947 -1.3673 -0.4448 -0.5217
 1079TIP3   OH224795   4.266   2.476   0.218  0.0856 -0.5130  0.3230
 1079TIP3    H124796   4.344   2.421   0.228 -0.0184 -1.0867 -1.5204
 1079TIP3    H224797   4.291   2.561   0.255  1.7408 -0.5866 -0.5173
 1080TIP3   OH224798   0.175   3.537   0.735 -0.2023  0.7696 -0.0601
 1080TIP3    H124799   0.176   3.565   0.644 -0.2017  2.0946  0.3217
 1080TIP3    H224800   0.267   3.532   0.760 -0.1977  0.2051 -0.1911
 1081TIP3   OH224801   2.602   4.800   8.530 -0.3379 -0.6898  0.3264
 1081TIP3    H124802   2.684   4.771   8.491 -0.1895  0.3078 -0.1199
 1081TIP3    H224803   2.592   4.891   8.502 -1.5819 -0.7824  0.3887
 1082TIP3   OH224804   1.377   1.938   8.324 -0.2749  0.9210  0.1278
 1082TIP3    H124805   1.286   1.945   8.352 -0.4511  0.7293 -0.3689
 1082TIP3    H224806   1.383   1.850   8.286 -0.1576  1.2959 -0.7603
 1083TIP3   OH224807   1.768   4.871   3.281 -0.1167  0.5741 -0.0363
 1083TIP3    H124808   1.673   4.858   3.269  0.2293 -1.0031 -1.4796
 1083TIP3    H224809   1.777   4.894   3.373 -1.9254  1.0298  0.0820
 1084TIP3   OH224810   1.782   1.005   2.155  0.2672  0.2453  0.1470
 1084TIP3    H124811   1.824   0.953   2.224  1.4519  1.5054  0.4159
 1084TIP3    H224812   1.690   1.009   2.182  0.7265  0.8555  1.7718
 1085TIP3   OH224813   6.069   2.067   8.429  0.2153 -0.5806 -0.0089
 1085TIP3    H124814   6.135   1.999   8.442  0.9420  0.5589  3.3552
 1085TIP3    H224815   6.116   2.138   8.385  0.6331 -0.6101  0.3850
 1086TIP3   OH224816   3.221   2.916   0.507  0.6383 -0.0228 -0.3185
 1086TIP3    H124817   3.148   2.939   0.565 -0.4696 -0.9615 -1.2792
 1086TIP3    H224818   3.278   2.862   0.561  1.0014  1.2676  0.6441
 1087TIP3   OH224819   1.252   1.022   0.978  0.0698 -0.2451  0.0111
 1087TIP3    H124820   1.277   1.086   1.044 -0.8428  1.2258 -0.9915
 1087TIP3    H224821   1.332   0.973   0.960  0.6682  0.2678  1.1910
 1088TIP3   OH224822   1.180   1.737   8.260 -0.2049  0.0792 -0.1131
 1088TIP3    H124823   1.134   1.664   8.219  1.5956 -1.0969 -0.1556
 1088TIP3    H224824   1.195   1.799   8.188  0.1844 -0.5410 -0.5798
 1089TIP3   OH224825   5.860   3.451   1.387  0.1001  0.5201  0.2089
 1089TIP3    H124826   5.846   3.432   1.294  0.0127  0.9229  0.1384
 1089TIP3    H224827   5.942   3.500   1.389  0.4261 -0.0224  0.4107
 1090TIP3   OH224828   0.506   6.640   2.661  0.2733  0.3842  0.1034
 1090TIP3    H124829   0.517   6.592   2.744 -0.1426  0.8007  0.4029
 1090TIP3    H224830   0.415   6.669   2.662  0.3172  0.5455 -0.4222
 1091TIP3   OH224831   0.642   4.999   1.776  0.1190 -0.1282  0.0368
 1091TIP3    H124832   0.658   5.086   1.740 -2.8405  0.4926 -0.0427
 1091TIP3    H224833   0.715   4.946   1.746  0.9970  1.8714 -1.5518
 1092TIP3   OH224834   1.520   5.406   0.006 -0.0507  0.4482  0.2512
 1092TIP3    H124835   1.494   5.497  -0.011 -0.4957  0.2599 -0.0964
 1092TIP3    H224836   1.591   5.389  -0.056  0.5603  0.8021  0.8482
 1093TIP3   OH224837   3.400   3.380   1.012 -0.0391 -0.0375 -0.4695
 1093TIP3    H124838   3.384   3.364   1.105 -2.0572 -0.3689 -0.8204
 1093TIP3    H224839   3.326   3.435   0.984  1.2390  1.1660 -1.6042
 1094TIP3   OH224840   2.690   1.103   0.046  0.4999 -0.7613 -0.1301
 1094TIP3    H124841   2.707   1.023   0.096  0.3518  0.9838  3.0237
 1094TIP3    H224842   2.603   1.089   0.008  0.9141 -2.4578 -0.5371
 1095TIP3   OH224843   0.486   6.692   0.823 -0.1879 -0.1881 -0.1732
 1095TIP3    H124844   0.562   6.741   0.791  0.3220 -0.9336 -0.1352
 1095TIP3    H224845   0.429   6.683   0.747 -0.9159  1.5782  0.1200
 1096TIP3   OH224846   0.385   2.170   0.747 -0.0371 -0.1816  0.2055
 1096TIP3    H124847   0.446   2.191   0.677 -0.1395 -1.1504 -0.1876
 1096TIP3    H224848   0.344   2.254   0.770  1.0187  0.3810  0.0879
 1097TIP3   OH224849   1.015   4.869   8.412  0.6780  0.1387 -0.7600
 1097TIP3    H124850   0.961   4.856   8.334 -0.3543  0.8383 -0.1790
 1097TIP3    H224851   1.051   4.957   8.402  2.0272 -0.4418 -1.3055
 1098TIP3   OH224852   5.730   3.157   1.354 -0.1499  0.1843 -0.0564
 1098TIP3    H124853   5.658   3.212   1.385 -0.0311 -0.0171  0.6012
 1098TIP3    H224854   5.759   3.199   1.273  0.9773  2.0288  1.2410
 1099TIP3   OH224855   4.119   4.290   3.131  0.1672  0.4800 -0.2930
 1099TIP3    H124856   4.063   4.239   3.190  0.6719  0.9258  0.5960
 1099TIP3    H224857   4.104   4.381   3.156  2.1174  0.5669  0.7851
 1100TIP3   OH224858   1.797   6.276   2.991  0.0506 -0.0672  0.6189
 1100TIP3    H124859   1.730   6.327   3.037 -2.2654  0.2131 -2.6845
 1100TIP3    H224860   1.752   6.195   2.967  0.5863  0.3674 -2.2004
 1101TIP3   OH224861   4.818   5.919   1.589 -0.0342  0.0282 -0.2551
 1101TIP3    H124862   4.865   5.865   1.525 -2.4825 -2.0031 -0.4993
 1101TIP3    H224863   4.850   5.889   1.674  0.6629  0.2427 -0.4329
 1102TIP3   OH224864   0.419   4.410   0.122 -0.5070 -0.7740 -0.2416
 1102TIP3    H124865   0.487   4.384   0.184 -0.7571  0.9486  0.7970
 1102TIP3    H224866   0.453   4.384   0.037  1.1136 -0.6055  0.3343
 1103TIP3   OH224867   5.031   5.881   8.015 -0.1978  0.5841 -0.0008
 1103TIP3    H124868   5.086   5.810   8.048  0.1453  0.7728 -0.1709
 1103TIP3    H224869   4.963   5.836   7.964  1.1804  0.4723 -1.8310
 1104TIP3   OH224870   0.669   2.690   2.274 -0.5129 -0.3390  0.6480
 1104TIP3    H124871   0.604   2.676   2.206  1.3554 -1.2462 -1.0583
 1104TIP3    H224872   0.636   2.766   2.323 -3.3769 -1.4528  0.6493
 1105TIP3   OH224873   0.926   0.794   3.506 -0.4404 -0.0737  0.3532
 1105TIP3    H124874   1.014   0.760   3.492 -1.1858 -2.0057 -0.0619
 1105TIP3    H224875   0.938   0.887   3.524  1.6185 -0.1623 -0.3137
 1106TIP3   OH224876   6.552   3.623   0.867  0.0723  0.4294  0.2595
 1106TIP3    H124877   6.544   3.663   0.953  0.9685  2.1467 -0.4004
 1106TIP3    H224878   6.629   3.567   0.873 -0.3560 -0.1164  0.7933
 1107TIP3   OH224879   1.019   3.056   0.237  0.0287 -0.0629 -0.0713
 1107TIP3    H124880   0.936   3.016   0.209 -0.0971  0.5028 -0.5238
 1107TIP3    H224881   1.024   3.138   0.188  1.0036 -0.2309 -0.2792
 1108TIP3   OH224882   3.382   0.881   3.644 -0.4008  0.1241  0.3210
 1108TIP3    H124883   3.465   0.835   3.639  0.6176  1.8672  0.4364
 1108TIP3    H224884   3.317   0.812   3.656  1.2385 -1.1438  2.7213
 1109TIP3   OH224885   6.331   5.971   7.417  0.3760  0.0515 -0.3126
 1109TIP3    H124886   6.360   6.054   7.377  0.4461 -0.2461 -0.8926
 1109TIP3    H224887   6.243   5.958   7.381 -0.9889  1.4762  2.2165
 1110TIP3   OH224888   3.996   3.570   0.154 -0.1252  0.1408 -0.3656
 1110TIP3    H124889   3.944   3.520   0.216  0.0957  1.8694  1.2924
 1110TIP3    H224890   3.945   3.568   0.073 -0.4669 -2.0840 -0.1625
 1111TIP3   OH224891   2.298   2.187   1.618  0.0052  0.1115  0.3345
 1111TIP3    H124892   2.383   2.194   1.575 -1.5091  1.3369 -2.7428
 1111TIP3    H224893   2.296   2.098   1.654  1.7165 -0.7396 -1.5177
 1112TIP3   OH224894   6.904   2.570   0.637  0.4610 -0.7981 -0.1284
 1112TIP3    H124895   6.837   2.566   0.569 -0.0520 -0.7306  0.3671
 1112TIP3    H224896   6.884   2.650   0.686  0.7488 -0.9120  0.1804
 1113TIP3   OH224897   5.087   6.149   8.169  0.2770 -0.0004  0.1332
 1113TIP3    H124898   5.019   6.201   8.127  2.0119  0.2602 -2.6413
 1113TIP3    H224899   5.084   6.064   8.124  2.5738  0.4721 -1.0936
 1114TIP3   OH224900   4.227   4.267   3.555 -0.1343  0.0748 -0.3106
 1114TIP3    H124901   4.187   4.354   3.551 -1.1700 -0.3630  0.0719
 1114TIP3    H224902   4.257   4.250   3.466  2.2835  1.7851  0.0604
 1115TIP3   OH224903   5.717   5.580   1.183  0.0471  0.1809  0.3186
 1115TIP3    H124904   5.805   5.555   1.210 -0.2611 -0.7179  0.5155
 1115TIP3    H224905   5.697   5.523   1.109 -0.8528 -0.5234  1.0782
 1116TIP3   OH224906   1.400   2.958   8.292  0.3629  0.4574 -0.3972
 1116TIP3    H124907   1.384   3.050   8.273 -0.1898  0.0586 -2.0392
 1116TIP3    H224908   1.319   2.913   8.267  0.2237 -0.3777  1.3910
 1117TIP3   OH224909   2.954   0.804   0.542  0.4474 -0.4684  0.6881
 1117TIP3    H124910   2.875   0.787   0.592 -0.1412 -0.2269 -0.1374
 1117TIP3    H224911   2.949   0.897   0.519  1.3268 -0.2761  1.2296
 1118TIP3   OH224912   4.037   3.561   1.437  0.0754 -0.0730 -0.1475
 1118TIP3    H124913   4.106   3.625   1.455  1.0042 -0.7504 -1.1303
 1118TIP3    H224914   4.012   3.577   1.346 -0.6337 -0.2433  0.0089
 1119TIP3   OH224915   3.696   2.447   0.691  0.0312  0.1515  0.4306
 1119TIP3    H124916   3.636   2.430   0.618 -1.9026  2.9758  1.1930
 1119TIP3    H224917   3.768   2.387   0.676 -0.9701 -0.4641 -2.9772
 1120TIP3   OH224918   6.258   5.934   7.677 -0.2353 -0.2407 -0.5391
 1120TIP3    H124919   6.206   6.012   7.694  1.6027  0.6415  1.6350
 1120TIP3    H224920   6.294   5.947   7.590 -1.8019  0.1940 -1.1402
 1121TIP3   OH224921   0.881   3.260   8.340  0.0325 -0.4352 -0.6236
 1121TIP3    H124922   0.830   3.310   8.276  0.4657  0.7897 -0.0380
 1121TIP3    H224923   0.818   3.236   8.408  0.1675  0.8988 -0.0047
 1122TIP3   OH224924   2.121   0.250   1.783  0.1068 -0.9858  0.0534
 1122TIP3    H124925   2.116   0.290   1.696  0.0008  0.5679  0.7353
 1122TIP3    H224926   2.162   0.165   1.768  1.0109 -0.3345 -1.4012
 1123TIP3   OH224927   6.004   3.813   2.441 -0.7570  0.4608  0.3435
 1123TIP3    H124928   5.914   3.786   2.423 -1.0872  0.8191  1.3529
 1123TIP3    H224929   6.016   3.795   2.535  0.3556  0.0487  0.1294
 1124TIP3   OH224930   2.603   1.978   1.271  0.4057  0.5482  0.3816
 1124TIP3    H124931   2.598   2.049   1.336 -0.1270 -0.7092  1.7810
 1124TIP3    H224932   2.552   1.907   1.310  0.1661 -0.3043 -1.3919
 1125TIP3   OH224933   4.485   2.459   2.105  0.2120 -0.1578  0.0764
 1125TIP3    H124934   4.493   2.554   2.115  1.3577 -0.2627  0.3119
 1125TIP3    H224935   4.568   2.431   2.067  0.4082 -1.2137  1.1922
 1126TIP3   OH224936   6.429   5.129   2.152  0.0671  0.8601 -0.2528
 1126TIP3    H124937   6.406   5.130   2.245  2.2346  1.1951  0.3501
 1126TIP3    H224938   6.384   5.053   2.116 -2.4148  1.8466  0.5874
 1127TIP3   OH224939   4.108   2.990   8.035  0.0262  0.0996 -0.0694
 1127TIP3    H124940   4.038   3.005   7.972 -0.1811  0.1692  0.1733
 1127TIP3    H224941   4.096   3.058   8.102 -1.9407 -2.0403  1.9306
 1128TIP3   OH224942   1.003   0.322   7.494 -0.4084  0.7802  0.3536
 1128TIP3    H124943   1.057   0.306   7.572  1.0960 -2.1013 -1.1158
 1128TIP3    H224944   1.066   0.352   7.428 -1.2971  1.1493 -0.3411
 1129TIP3   OH224945   2.641   1.674   2.842 -0.0714 -0.1673 -0.2554
 1129TIP3    H124946   2.693   1.751   2.821  1.0637 -0.7946  0.1768
 1129TIP3    H224947   2.705   1.605   2.858 -0.8614 -0.3485  2.8714
 1130TIP3   OH224948   2.712   0.374   2.211  0.2464 -0.0442  0.0942
 1130TIP3    H124949   2.689   0.357   2.120 -0.5301 -0.0913  0.2907
 1130TIP3    H224950   2.651   0.320   2.262  0.6038  0.0568  0.6428
 1131TIP3   OH224951   6.461   3.818   0.635  0.2970  0.0789 -0.3017
 1131TIP3    H124952   6.472   3.893   0.693 -1.8687 -0.2478  0.6543
 1131TIP3    H224953   6.513   3.749   0.675  0.7850  0.5395 -0.1275
 1132TIP3   OH224954   2.863   6.882   1.690  0.2593  0.4370 -0.0491
 1132TIP3    H124955   2.958   6.896   1.683  0.1524  1.3927  0.1984
 1132TIP3    H224956   2.847   6.874   1.784  0.3204 -1.5851 -0.1884
 1133TIP3   OH224957   1.016   6.551   8.179  0.1308  0.6802 -0.6809
 1133TIP3    H124958   1.057   6.485   8.236 -1.8570 -0.7920 -0.8578
 1133TIP3    H224959   1.069   6.629   8.193  1.5737 -0.4690  0.8422
 1134TIP3   OH224960   0.203   6.228   3.626 -0.2072 -0.3942 -0.5771
 1134TIP3    H124961   0.272   6.216   3.561 -0.6457  1.8376 -1.5781
 1134TIP3    H224962   0.226   6.310   3.671 -0.0133 -1.7764  2.0516
 1135TIP3   OH224963   5.676   1.123   0.869  0.5390  0.0039  0.0092
 1135TIP3    H124964   5.623   1.189   0.914 -0.6691 -0.8263 -0.1304
 1135TIP3    H224965   5.613   1.055   0.844  1.5389 -0.5944 -0.9847
 1136TIP3   OH224966   1.637   2.529   2.949 -0.4637 -0.2806 -0.2604
 1136TIP3    H124967   1.613   2.465   3.016 -1.0546  0.9852  0.7841
 1136TIP3    H224968   1.570   2.597   2.955 -2.2766 -1.4294 -4.1366
 1137TIP3   OH224969   4.752   1.740   1.300  0.1773 -0.2400 -0.3206
 1137TIP3    H124970   4.731   1.657   1.256  0.0547 -0.4321  0.0987
 1137TIP3    H224971   4.725   1.808   1.237 -0.1291 -0.5101 -0.4819
 1138TIP3   OH224972   1.545   3.162   3.435 -0.1390  0.4867 -0.1165
 1138TIP3    H124973   1.538   3.194   3.345 -0.6421  1.0580  0.1213
 1138TIP3    H224974   1.606   3.223   3.477  0.8205 -0.3128 -0.2966
 1139TIP3   OH224975   4.276   1.144   7.949  0.8703  0.2760  0.4690
 1139TIP3    H124976   4.318   1.228   7.931  0.8391 -0.4219 -3.8279
 1139TIP3    H224977   4.336   1.078   7.914 -1.3602 -1.0807 -1.1175
 1140TIP3   OH224978   3.229   4.222   0.596  0.1800  0.2231 -0.1928
 1140TIP3    H124979   3.321   4.207   0.616 -0.2312 -0.4746  1.2863
 1140TIP3    H224980   3.191   4.134   0.594 -0.6279  0.5627  0.0858
 1141TIP3   OH224981   6.819   3.608   8.352  0.0866  0.2435  0.2236
 1141TIP3    H124982   6.866   3.627   8.270  1.3167  0.7699  1.0267
 1141TIP3    H224983   6.728   3.630   8.332  0.4211  0.7270 -0.8949
 1142TIP3   OH224984   2.145   4.187   6.912  0.4118  0.1079  0.1332
 1142TIP3    H124985   2.186   4.178   6.826  0.8644 -0.7342  0.4317
 1142TIP3    H224986   2.187   4.121   6.966  0.0160  0.5222  0.9684
 1143TIP3   OH224987   3.166   3.485   8.327  0.7045  0.6145 -0.7237
 1143TIP3    H124988   3.230   3.430   8.282  1.0466  0.1643  0.2732
 1143TIP3    H224989   3.129   3.428   8.395 -2.1098  0.2556 -2.3879
 1144TIP3   OH224990   3.154   0.664   7.597 -0.4795 -0.0693  0.0441
 1144TIP3    H124991   3.122   0.599   7.534  0.1971  0.5797 -1.0105
 1144TIP3    H224992   3.222   0.711   7.549  1.1715 -0.5762  1.7923
 1145TIP3   OH224993   2.435   0.791   3.353 -0.0091  0.4254  0.4781
 1145TIP3    H124994   2.520   0.829   3.333 -0.5346  0.1411 -2.9816
 1145TIP3    H224995   2.379   0.866   3.371  0.2748  0.8974 -0.5134
 1146TIP3   OH224996   3.857   4.337   0.848 -0.3206  0.3157 -0.0916
 1146TIP3    H124997   3.841   4.337   0.753  0.6761  0.3359 -0.2792
 1146TIP3    H224998   3.772   4.318   0.887 -1.1682  2.1199 -0.9184
 1147TIP3   OH224999   1.057   2.718   1.136  0.0457  0.6512 -0.7201
 1147TIP3    H125000   0.982   2.711   1.077 -0.8628  1.5943  0.2796
 1147TIP3    H225001   1.056   2.637   1.187 -0.2918  0.6543 -0.7200
 1148TIP3   OH225002   3.590   1.933   1.251  0.0696  0.4914 -0.3762
 1148TIP3    H125003   3.537   2.013   1.249 -0.7118  0.0364  0.9026
 1148TIP3    H225004   3.647   1.941   1.175 -2.1583  0.7883 -2.1285
 1149TIP3   OH225005   4.761   0.758   0.563  0.2435  0.4036 -0.2965
 1149TIP3    H125006   4.700   0.699   0.606 -0.7711  0.1320 -2.0019
 1149TIP3    H225007   4.712   0.793   0.488  1.1089  2.7298  0.1362
 1150TIP3   OH225008   2.489   5.664   0.049 -0.6875 -0.0430  0.1167
 1150TIP3    H125009   2.516   5.654   0.140  3.8025  1.2330 -0.8183
 1150TIP3    H225010   2.493   5.575   0.013 -1.9425 -0.4703  0.9821
 1151TIP3   OH225011   5.476   5.045   2.768  0.2906  0.2078 -0.4649
 1151TIP3    H125012   5.400   4.992   2.790 -0.0826  1.0898  0.4700
 1151TIP3    H225013   5.534   5.037   2.843  0.3829  0.8361 -0.4630
 1152TIP3   OH225014   5.026   6.620   8.272 -0.2871 -0.2998 -0.6392
 1152TIP3    H125015   4.963   6.653   8.336  1.0230  0.3397  0.3824
 1152TIP3    H225016   5.051   6.697   8.221  2.0053  0.1946  1.0710
 1153TIP3   OH225017   1.449   1.722   0.133 -0.6129  0.1724  0.6635
 1153TIP3    H125018   1.361   1.699   0.103 -0.2343 -3.1210  1.6830
 1153TIP3    H225019   1.505   1.709   0.056 -0.3215 -3.4685  1.3341
 1154TIP3   OH225020   0.009   5.982   7.924  0.1250 -0.1225  0.4887
 1154TIP3    H125021  -0.063   6.024   7.970 -0.5658 -1.0666  0.2876
 1154TIP3    H225022  -0.019   5.891   7.912  0.4689 -0.0259 -1.3968
 1155TIP3   OH225023   2.482   5.887   8.442 -0.1768  0.0325  0.5923
 1155TIP3    H125024   2.474   5.800   8.481 -0.3306  0.6105  1.8969
 1155TIP3    H225025   2.534   5.873   8.362 -2.5100 -1.6807 -0.7552
 1156TIP3   OH225026   5.307   4.792   2.827 -0.0597  0.2760 -0.4036
 1156TIP3    H125027   5.254   4.760   2.900 -0.5106 -1.0084 -1.2617
 1156TIP3    H225028   5.245   4.806   2.756  0.7485 -2.2783 -1.7817
 1157TIP3   OH225029   1.845   4.464   2.665  0.5640 -0.0695  0.0036
 1157TIP3    H125030   1.787   4.431   2.734  1.1688 -0.0742  0.5207
 1157TIP3    H225031   1.800   4.442   2.584  0.5438 -1.4378  0.3514
 1158TIP3   OH225032   0.279   5.298   1.694 -0.1517 -0.1734 -0.2555
 1158TIP3    H125033   0.308   5.224   1.748 -0.0462 -0.3449 -0.5397
 1158TIP3    H225034   0.214   5.344   1.747 -0.1015 -0.3812 -0.0143
 1159TIP3   OH225035   4.269   2.998   7.645 -0.2376  0.3181 -0.1331
 1159TIP3    H125036   4.353   2.979   7.603  0.9564 -0.4105  2.3961
 1159TIP3    H225037   4.285   3.079   7.694 -0.8526 -0.0372  0.6785
 1160TIP3   OH225038   1.925   1.829   1.551  0.3689 -0.2172  0.0754
 1160TIP3    H125039   1.923   1.770   1.475 -0.2870 -0.6767  0.4462
 1160TIP3    H225040   1.911   1.772   1.626 -1.3495  0.5282  0.3661
 1161TIP3   OH225041   5.661   5.486   7.792  0.1184 -0.3693 -0.0384
 1161TIP3    H125042   5.749   5.500   7.755  0.0348 -1.4157 -0.6543
 1161TIP3    H225043   5.606   5.550   7.746  0.3592 -0.4230 -0.4074
 1162TIP3   OH225044   4.711   6.786   8.264 -0.4838  0.1267  0.3864
 1162TIP3    H125045   4.734   6.783   8.171  2.2120  0.9031  0.9381
 1162TIP3    H225046   4.632   6.840   8.268 -1.8252 -1.4941 -1.5643
 1163TIP3   OH225047   1.996   4.413   0.409  0.0254 -0.9025 -0.2510
 1163TIP3    H125048   2.070   4.462   0.444 -1.0085  0.6601 -0.1733
 1163TIP3    H225049   2.017   4.401   0.317 -0.1710  0.6602 -0.5288
 1164TIP3   OH225050   5.365   0.578   7.210 -0.0775  0.1295  0.1265
 1164TIP3    H125051   5.426   0.614   7.146  0.1028  0.7352  0.6353
 1164TIP3    H225052   5.304   0.649   7.228 -1.0384 -0.5173 -0.4902
 1165TIP3   OH225053   2.286   2.089   1.333  0.1026  0.2798  0.5004
 1165TIP3    H125054   2.354   2.139   1.377  1.9283 -1.1417 -0.5557
 1165TIP3    H225055   2.310   2.092   1.240 -0.3158 -1.5942  0.2873
 1166TIP3   OH225056   2.551   0.959   0.786 -0.5977  0.2188 -0.8296
 1166TIP3    H125057   2.546   0.892   0.717 -1.0093 -1.0638  0.4052
 1166TIP3    H225058   2.462   0.964   0.821 -0.1396 -0.0418  0.4154
 1167TIP3   OH225059   2.161   3.265   0.341 -0.2077  0.7429 -0.0168
 1167TIP3    H125060   2.202   3.201   0.400 -0.8579  1.0986  0.8433
 1167TIP3    H225061   2.234   3.301   0.291  0.4252  0.6973  0.8404
 1168TIP3   OH225062   1.192   1.302   7.878  0.6377 -0.0452 -0.2215
 1168TIP3    H125063   1.277   1.273   7.845  0.6930 -2.2789  1.6030
 1168TIP3    H225064   1.142   1.325   7.800  2.9994  1.7306 -1.3173
 1169TIP3   OH225065   3.364   0.876   0.796 -0.1435 -0.4875 -0.3186
 1169TIP3    H125066   3.365   0.809   0.864  0.9329  0.2846  0.4634
 1169TIP3    H225067   3.393   0.831   0.717  0.5790 -0.9476  0.1974
 1170TIP3   OH225068   0.403   1.522   1.527 -0.1070  0.5959 -0.1397
 1170TIP3    H125069   0.466   1.560   1.467 -0.0604  0.6732 -0.0431
 1170TIP3    H225070   0.395   1.587   1.597 -1.5904  1.3960 -1.0026
 1171TIP3   OH225071   4.699   3.230   0.430  0.3767  0.6766 -0.2978
 1171TIP3    H125072   4.615   3.227   0.385  0.5290 -0.8956 -0.5320
 1171TIP3    H225073   4.756   3.173   0.378  1.1649  0.5417  0.6842
 1172TIP3   OH225074   5.651   0.171   0.824 -1.3220  0.1250 -0.6012
 1172TIP3    H125075   5.600   0.105   0.872  1.7246 -0.4526  2.2108
 1172TIP3    H225076   5.617   0.254   0.857 -0.9096 -0.2344  0.8235
 1173TIP3   OH225077   0.660   2.437   7.509  0.0441 -0.0423  1.0429
 1173TIP3    H125078   0.738   2.453   7.456  0.7842  0.1905  2.1613
 1173TIP3    H225079   0.590   2.484   7.464  0.9215  1.2289  0.9571
 1174TIP3   OH225080   5.194   6.212   0.090  0.3056 -0.4310  0.2657
 1174TIP3    H125081   5.110   6.183   0.054  0.3641  0.8852 -1.0498
 1174TIP3    H225082   5.175   6.299   0.126  1.1156 -0.0799 -0.1447
 1175TIP3   OH225083   6.589   2.621   7.947 -0.3349 -0.1984  0.2901
 1175TIP3    H125084   6.532   2.669   8.007 -2.3266 -0.8994 -0.9412
 1175TIP3    H225085   6.566   2.653   7.860  1.6650 -0.0463 -0.2286
 1176TIP3   OH225086   6.298   2.333   1.174  0.3233 -0.1268 -0.1835
 1176TIP3    H125087   6.237   2.350   1.246  0.2651  0.9621 -0.4739
 1176TIP3    H225088   6.306   2.238   1.172 -2.1212 -0.3936 -0.7284
 1177TIP3   OH225089   0.365   4.417   1.176 -0.4433 -0.6453 -0.3797
 1177TIP3    H125090   0.433   4.380   1.119 -0.9353 -1.7154 -0.2954
 1177TIP3    H225091   0.305   4.461   1.115  0.8065  1.1893 -0.3787
 1178TIP3   OH225092   1.079   1.398   1.999 -0.2457  0.3700 -0.3026
 1178TIP3    H125093   0.999   1.376   2.047 -1.0602  1.8846 -0.9049
 1178TIP3    H225094   1.063   1.367   1.910  0.1148  0.0853 -0.2702
 1179TIP3   OH225095   3.104   1.155   1.930 -0.1264  0.1533 -0.3956
 1179TIP3    H125096   3.017   1.115   1.943 -0.4804  0.5697 -1.4008
 1179TIP3    H225097   3.165   1.089   1.961 -0.7326 -0.8853 -1.3212
 1180TIP3   OH225098   0.519   6.543   0.139 -0.0991  0.1702  0.4872
 1180TIP3    H125099   0.529   6.560   0.233  0.7432 -0.0233  0.4371
 1180TIP3    H225100   0.608   6.545   0.104 -0.1664 -1.7898  0.0477
 1181TIP3   OH225101   6.522   5.293   2.519 -0.1955  0.4903 -0.7362
 1181TIP3    H125102   6.557   5.362   2.575  0.0245  1.2660 -1.7879
 1181TIP3    H225103   6.542   5.322   2.430 -0.3714 -0.7875 -1.2200
 1182TIP3   OH225104   2.737   2.607   0.570 -0.1808 -0.5762  0.3742
 1182TIP3    H125105   2.692   2.675   0.519 -0.2880 -1.2547 -0.4624
 1182TIP3    H225106   2.827   2.637   0.576 -0.5217  0.3062  1.1929
 1183TIP3   OH225107   0.147   1.918   0.032 -0.1248 -0.3010  0.6595
 1183TIP3    H125108   0.092   1.884  -0.038  0.3127 -1.5460  0.8908
 1183TIP3    H225109   0.088   1.971   0.086 -0.3674  1.0810 -0.8809
 1184TIP3   OH225110   4.596   6.299   8.535 -0.2108 -0.4445  0.0634
 1184TIP3    H125111   4.646   6.358   8.478  0.9045 -1.5948 -0.2033
 1184TIP3    H225112   4.644   6.299   8.618  0.4025 -1.7275 -0.2643
 1185TIP3   OH225113   6.533   0.163   2.239  0.5377  0.4705 -0.0368
 1185TIP3    H125114   6.481   0.230   2.283 -0.5388  0.4644 -1.2305
 1185TIP3    H225115   6.518   0.179   2.146  0.1762 -1.4729 -0.3498
 1186TIP3   OH225116   5.006   4.283   8.263  0.5983 -0.6516 -0.4493
 1186TIP3    H125117   5.068   4.230   8.313  0.9575  0.1153 -0.0714
 1186TIP3    H225118   4.996   4.363   8.314  0.7840  0.0409 -1.4742
 1187TIP3   OH225119   5.193   4.555   0.106  0.6284  0.0786  0.2582
 1187TIP3    H125120   5.134   4.624   0.135 -0.3362 -0.5098 -0.2759
 1187TIP3    H225121   5.166   4.477   0.155  0.6455 -0.3046 -0.3248
 1188TIP3   OH225122   1.090   2.828   2.789  0.5291  0.0014 -0.4519
 1188TIP3    H125123   1.119   2.912   2.824  0.8221  0.7476 -2.3900
 1188TIP3    H225124   1.059   2.848   2.701 -0.5836 -1.7290 -0.5039
 1189TIP3   OH225125   5.576   6.393   7.853 -0.0208  0.4912 -0.4637
 1189TIP3    H125126   5.480   6.397   7.854 -0.0162  0.6109  0.3551
 1189TIP3    H225127   5.596   6.312   7.901  0.2893  0.5429 -0.5080
 1190TIP3   OH225128   5.255   3.883   1.150  0.8637  0.7746 -0.4986
 1190TIP3    H125129   5.322   3.857   1.087 -0.9780 -0.2403 -2.1378
 1190TIP3    H225130   5.179   3.904   1.096 -0.6412  0.3376  1.3721
 1191TIP3   OH225131   0.384   6.589   1.083 -0.2604 -0.2797 -0.1012
 1191TIP3    H125132   0.415   6.583   0.993  0.0465  0.0177 -0.0147
 1191TIP3    H225133   0.461   6.567   1.136 -0.2395  0.3049  0.1095
 1192TIP3   OH225134   0.884   0.485   8.530 -0.2677 -0.1411  0.2200
 1192TIP3    H125135   0.929   0.441   8.457 -1.0181  0.4276 -0.6043
 1192TIP3    H225136   0.953   0.534   8.574  0.0656  0.1535 -0.6036
 1193TIP3   OH225137   3.580   6.671   2.384  0.1234 -0.5253 -0.6299
 1193TIP3    H125138   3.633   6.676   2.463 -0.8542  0.0195  0.0093
 1193TIP3    H225139   3.602   6.586   2.346  1.8847 -0.0772 -0.7130
 1194TIP3   OH225140   2.881   1.016   1.979  0.4473  0.1048  0.4166
 1194TIP3    H125141   2.806   1.002   1.921 -0.7307  1.1556  1.6093
 1194TIP3    H225142   2.928   0.933   1.978  0.2185 -0.0459 -1.6610
 1195TIP3   OH225143   1.924   1.268   2.922 -0.2588  0.0568  0.4193
 1195TIP3    H125144   2.003   1.303   2.880 -1.7027  3.1531  0.0188
 1195TIP3    H225145   1.927   1.304   3.011 -0.9620 -0.2198  0.5616
 1196TIP3   OH225146   1.880   3.005   1.000 -0.2632  0.2504  0.4783
 1196TIP3    H125147   1.924   3.090   1.008 -0.8022  0.6954 -1.0387
 1196TIP3    H225148   1.823   3.000   1.077 -0.3483  1.3324  0.4919
 1197TIP3   OH225149   6.208   0.650   1.418  0.0198 -0.4748 -0.1423
 1197TIP3    H125150   6.270   0.578   1.411 -0.4815 -0.9818  0.5549
 1197TIP3    H225151   6.261   0.724   1.448 -0.0732 -1.5351  3.0879
 1198TIP3   OH225152   5.688   2.261   0.841  0.1829 -0.3379  0.7254
 1198TIP3    H125153   5.692   2.277   0.936 -0.8202 -2.1612  1.1303
 1198TIP3    H225154   5.595   2.256   0.821  0.3894 -0.3113 -0.2998
 1199TIP3   OH225155   2.353   3.180   2.229  0.3531  0.2418 -0.3490
 1199TIP3    H125156   2.308   3.106   2.187  0.9072  0.2849 -1.0326
 1199TIP3    H225157   2.445   3.155   2.230  0.4617  0.6348  0.0465
 1200TIP3   OH225158   5.583   0.969   1.940 -0.6293 -0.1281 -0.5682
 1200TIP3    H125159   5.536   1.043   1.977  0.0782 -0.5396  1.3229
 1200TIP3    H225160   5.518   0.899   1.934 -0.7174 -0.1251  0.2084
 1201TIP3   OH225161   3.723   2.521   8.384  0.5496 -0.0587  0.5970
 1201TIP3    H125162   3.631   2.546   8.381  0.1794 -1.1768  1.5669
 1201TIP3    H225163   3.721   2.425   8.392  1.7368  0.0267  2.4560
 1202TIP3   OH225164   4.871   3.514   1.684  0.3268 -0.1975 -0.4641
 1202TIP3    H125165   4.794   3.531   1.631  0.2872  0.4248 -0.2209
 1202TIP3    H225166   4.938   3.574   1.649  1.1419 -1.7022 -1.5867
 1203TIP3   OH225167   5.151   5.958   1.325  0.9240 -0.1928  0.3568
 1203TIP3    H125168   5.182   5.913   1.246 -1.6287  1.1067 -1.5371
 1203TIP3    H225169   5.071   5.911   1.350  1.3196 -0.1541  1.8023
 1204TIP3   OH225170   4.973   1.038   1.409 -0.6332 -0.3362 -0.2622
 1204TIP3    H125171   4.990   1.037   1.315 -0.8102  0.0834 -0.3013
 1204TIP3    H225172   4.941   0.950   1.428  1.7701 -1.2478 -0.1374
 1205TIP3   OH225173   1.862   2.238   7.850 -0.2956 -0.6226 -0.1169
 1205TIP3    H125174   1.823   2.164   7.803  1.5320 -2.2457  0.7975
 1205TIP3    H225175   1.926   2.198   7.909 -0.9121  1.5153  2.1672
 1206TIP3   OH225176   2.063   6.744   2.505 -0.6829  0.6173  0.1141
 1206TIP3    H125177   2.136   6.682   2.511 -0.5993  0.5854 -0.9664
 1206TIP3    H225178   2.098   6.826   2.539 -0.4796  0.3338  0.5979
 1207TIP3   OH225179   1.723   1.978   8.023  0.2415 -0.1534 -0.2017
 1207TIP3    H125180   1.729   2.001   7.930 -1.0712  0.7885 -0.0835
 1207TIP3    H225181   1.665   1.902   8.025 -0.1280  0.1256 -0.1285
 1208TIP3   OH225182   3.657   0.391   8.530  0.0355  0.6069  0.6590
 1208TIP3    H125183   3.649   0.480   8.564  0.5625  0.9830 -0.1647
 1208TIP3    H225184   3.640   0.400   8.436  1.8558  0.1516  0.2518
 1209TIP3   OH225185   2.164   1.636   1.545 -0.3327 -0.3493 -0.3189
 1209TIP3    H125186   2.152   1.729   1.524 -2.2419 -0.4789 -0.0514
 1209TIP3    H225187   2.181   1.636   1.639 -0.1010 -0.2474 -0.3612
 1210TIP3   OH225188   3.490   2.977   8.204 -0.3731  0.2798 -0.0939
 1210TIP3    H125189   3.494   3.014   8.116  0.3019 -0.4068 -0.3635
 1210TIP3    H225190   3.524   3.045   8.261  0.4036  0.2683 -0.5260
 1211TIP3   OH225191   1.645   2.420   8.206  0.1183 -0.2030 -0.2669
 1211TIP3    H125192   1.699   2.499   8.193  0.8255 -0.6454 -0.0874
 1211TIP3    H225193   1.707   2.354   8.237 -0.2848 -1.1123 -1.3402
 1212TIP3   OH225194   6.326   4.124   2.185  0.3792 -0.1857 -0.2318
 1212TIP3    H125195   6.395   4.172   2.139  0.5450  0.3776  0.5817
 1212TIP3    H225196   6.272   4.087   2.115  1.1729 -0.1485 -0.8759
 1213TIP3   OH225197   5.576   4.292   0.461  0.0081 -0.5878  0.2069
 1213TIP3    H125198   5.610   4.306   0.549 -0.3340 -1.7408  0.5469
 1213TIP3    H225199   5.580   4.378   0.419  0.1550 -0.0204  1.3535
 1214TIP3   OH225200   1.198   2.732   1.672  0.1897  0.2404  0.4107
 1214TIP3    H125201   1.254   2.759   1.599 -0.2807 -0.6961 -0.3135
 1214TIP3    H225202   1.112   2.769   1.650  0.0517 -0.0288  0.5036
 1215TIP3   OH225203   1.531   3.220   2.530 -0.0020  0.2342 -0.0995
 1215TIP3    H125204   1.621   3.215   2.564  0.1671 -1.3652 -0.6912
 1215TIP3    H225205   1.539   3.262   2.445 -0.0744  1.6998  0.5769
 1216TIP3   OH225206   6.097   2.113   0.108 -0.2633 -0.6525  0.2857
 1216TIP3    H125207   6.061   2.117   0.020 -1.2443 -0.3336  0.6919
 1216TIP3    H225208   6.091   2.020   0.132  1.8361 -1.0947 -0.7039
 1217TIP3   OH225209   5.429   5.521   3.193 -0.0809 -0.1889  0.6112
 1217TIP3    H125210   5.456   5.435   3.159  0.5390  0.2359  0.0097
 1217TIP3    H225211   5.336   5.527   3.172 -0.8080 -1.7792  2.9297
 1218TIP3   OH225212   0.582   1.246   0.333  0.9128 -0.1318  0.5509
 1218TIP3    H125213   0.597   1.263   0.240  0.5243 -1.0906  0.2948
 1218TIP3    H225214   0.659   1.197   0.361 -0.0439 -2.0055  0.0954
 1219TIP3   OH225215   2.041   2.118   0.517 -0.0265  0.3444  0.0094
 1219TIP3    H125216   2.133   2.139   0.506  0.0147 -0.7926 -2.3777
 1219TIP3    H225217   2.002   2.198   0.553  1.6371  1.2827 -0.2031
 1220TIP3   OH225218   0.956   4.084   0.512  0.1003  0.2227  0.6581
 1220TIP3    H125219   1.035   4.073   0.459 -0.3837  1.0888 -0.2739
 1220TIP3    H225220   0.923   3.995   0.526 -0.2292  0.0096 -1.2384
 1221TIP3   OH225221   0.844   3.243   0.750 -0.4097  0.1845 -0.3857
 1221TIP3    H125222   0.790   3.230   0.828  0.4409  0.0681  0.2048
 1221TIP3    H225223   0.931   3.212   0.776 -0.1110  0.1466 -1.3839
 1222TIP3   OH225224   4.345   1.382   1.031  0.2833  0.2086 -0.5259
 1222TIP3    H125225   4.397   1.335   1.097  0.1709  1.3571  0.4261
 1222TIP3    H225226   4.264   1.333   1.024  1.0571 -1.0213 -1.2613
 1223TIP3   OH225227   6.464   3.854   0.086 -0.4874 -0.4423 -0.3476
 1223TIP3    H125228   6.498   3.942   0.104  2.9864 -1.4061 -1.3684
 1223TIP3    H225229   6.492   3.802   0.161  0.4749 -1.3154 -1.2873
 1224TIP3   OH225230   6.560   3.205   3.238 -0.2618  0.2389 -0.3484
 1224TIP3    H125231   6.476   3.163   3.221 -0.9237  1.0195  0.8435
 1224TIP3    H225232   6.617   3.133   3.265 -0.2882 -0.4094 -1.9098
 1225TIP3   OH225233   2.183   3.572   0.443  0.0410  0.1877 -0.1767
 1225TIP3    H125234   2.228   3.611   0.518  0.0101  0.9671 -0.5576
 1225TIP3    H225235   2.154   3.486   0.475  0.1199  0.4623  0.6705
 1226TIP3   OH225236   6.762   6.247   2.131  0.4384 -0.3676 -0.1311
 1226TIP3    H125237   6.674   6.286   2.133 -0.1412 -1.5388 -1.2558
 1226TIP3    H225238   6.748   6.159   2.095  1.9571 -0.9232  0.5814
 1227TIP3   OH225239   4.726   5.612   1.338 -0.4587  0.1580 -0.1963
 1227TIP3    H125240   4.762   5.560   1.266  1.7626 -0.5783  1.3470
 1227TIP3    H225241   4.656   5.558   1.374 -1.4823  0.4587 -1.6384
 1228TIP3   OH225242   5.588   0.254   2.600 -0.4894 -0.5360  0.0283
 1228TIP3    H125243   5.565   0.340   2.634 -0.1070 -0.2886 -0.3247
 1228TIP3    H225244   5.550   0.192   2.662  0.0585 -0.1026  0.8090
 1229TIP3   OH225245   1.534   3.260   1.039 -0.4990  0.7342  0.0503
 1229TIP3    H125246   1.466   3.197   1.062  0.4698 -0.1713  0.5000
 1229TIP3    H225247   1.512   3.338   1.090  0.3077 -0.4652  2.3609
 1230TIP3   OH225248   5.633   5.658   0.890  0.1357 -0.2796  0.4182
 1230TIP3    H125249   5.578   5.622   0.820  0.7894 -0.9578  0.2438
 1230TIP3    H225250   5.574   5.666   0.965 -0.6986  0.9447 -0.3459
 1231TIP3   OH225251   0.093   0.885   0.886 -0.3765 -0.5853  0.2667
 1231TIP3    H125252   0.080   0.799   0.925  0.8423 -1.5861 -1.4030
 1231TIP3    H225253   0.116   0.867   0.795 -0.4034  1.5324 -0.2159
 1232TIP3   OH225254   3.601   3.579   0.979 -0.7028  0.5774 -0.1038
 1232TIP3    H125255   3.519   3.530   0.968 -0.5461  0.5827 -1.3748
 1232TIP3    H225256   3.610   3.629   0.898  0.2815  1.0017  0.2600
 1233TIP3   OH225257   5.259   3.494   8.361 -0.3334 -0.4553  0.0832
 1233TIP3    H125258   5.304   3.496   8.277  0.9818  0.4050  0.7723
 1233TIP3    H225259   5.264   3.402   8.389 -0.6409 -0.7126 -0.6904
 1234TIP3   OH225260   0.894   1.270   2.150 -0.1131  0.3826  0.9261
 1234TIP3    H125261   0.877   1.205   2.218 -0.4488 -0.2329  0.2724
 1234TIP3    H225262   0.819   1.262   2.091 -0.0750  1.2611  0.7549
 1235TIP3   OH225263   6.673   3.108   0.473  0.5510 -0.7744 -0.4730
 1235TIP3    H125264   6.664   3.200   0.498  3.8747 -0.4730  0.0378
 1235TIP3    H225265   6.716   3.110   0.388  1.2995 -1.8272 -0.1440
 1236TIP3   OH225266   4.512   4.837   3.186 -0.0347  0.0303  0.0107
 1236TIP3    H125267   4.561   4.763   3.150  0.8815  0.8345 -0.4559
 1236TIP3    H225268   4.570   4.875   3.251  0.3857  1.5309 -1.1687
 1237TIP3   OH225269   3.326   0.622   8.215 -0.5704  0.3093  0.1711
 1237TIP3    H125270   3.333   0.609   8.310 -1.0560  0.4362  0.2269
 1237TIP3    H225271   3.390   0.691   8.196 -1.2745  1.0889  0.5832
 1238TIP3   OH225272   1.176   4.255   7.144 -0.3051 -0.4148  0.2202
 1238TIP3    H125273   1.163   4.333   7.198  2.8758  0.8040 -0.5539
 1238TIP3    H225274   1.195   4.289   7.057  1.5091 -1.9619 -0.0692
 1239TIP3   OH225275   1.537   1.654   1.540  0.0126 -0.4379 -0.2837
 1239TIP3    H125276   1.466   1.634   1.480 -0.0482  1.9755 -1.0910
 1239TIP3    H225277   1.615   1.616   1.499 -0.5723 -2.0848  0.0440
 1240TIP3   OH225278   2.396   2.895   2.314 -0.0136  0.1256  0.2135
 1240TIP3    H125279   2.474   2.946   2.337  0.2330  0.1059 -0.5401
 1240TIP3    H225280   2.414   2.807   2.349  0.2314  0.1636  0.1875
 1241TIP3   OH225281   6.800   6.788   0.099  0.1416  0.2976  0.3016
 1241TIP3    H125282   6.808   6.883   0.089  1.4210  0.3039  1.1760
 1241TIP3    H225283   6.840   6.752   0.019  1.4787  0.4783  0.8756
 1242TIP3   OH225284   2.649   0.542   1.289  0.0302 -0.7824 -0.0528
 1242TIP3    H125285   2.648   0.447   1.294  1.4402 -0.8310 -0.3811
 1242TIP3    H225286   2.719   0.568   1.348 -1.4576  0.1781  1.3903
 1243TIP3   OH225287   4.828   4.565   2.328 -0.1927  0.0234  0.0482
 1243TIP3    H125288   4.824   4.565   2.424  2.3952 -1.4848  0.2622
 1243TIP3    H225289   4.875   4.645   2.306 -0.4740  0.1930  0.0643
 1244TIP3   OH225290   6.002   3.355   1.884  0.3083 -0.0017 -0.3628
 1244TIP3    H125291   6.057   3.280   1.862  0.8300  0.2327  0.1234
 1244TIP3    H225292   5.997   3.406   1.803  0.4743 -0.2335 -0.5196
 1245TIP3   OH225293   4.471   5.312   8.475  0.2164 -0.5851 -0.5084
 1245TIP3    H125294   4.547   5.262   8.505 -1.1500 -2.0341  0.7469
 1245TIP3    H225295   4.465   5.295   8.381 -0.5128 -3.3433 -0.0418
 1246TIP3   OH225296   0.504   1.971   1.347 -0.1463 -0.2613  0.4028
 1246TIP3    H125297   0.437   2.029   1.314 -1.3825 -1.5872  0.4787
 1246TIP3    H225298   0.515   1.995   1.439  0.3989  0.7655  0.0859
 1247TIP3   OH225299   5.092   3.631   1.592  0.0130 -0.4849 -0.2395
 1247TIP3    H125300   5.103   3.582   1.511 -0.3624 -1.0911  0.0700
 1247TIP3    H225301   5.101   3.723   1.566  0.0146 -0.6815 -0.9453
 1248TIP3   OH225302   1.344   5.486   7.863  0.5150 -0.5500 -0.0382
 1248TIP3    H125303   1.372   5.484   7.955  3.4519  0.8924 -0.7730
 1248TIP3    H225304   1.336   5.579   7.843 -2.2320 -0.8648 -0.7543
 1249TIP3   OH225305   3.032   0.452   7.528  0.6929 -0.0891  0.1803
 1249TIP3    H125306   3.058   0.370   7.486  0.5400 -0.3682  0.6204
 1249TIP3    H225307   2.937   0.445   7.536  0.3074  1.2657 -2.1571
 1250TIP3   OH225308   5.693   4.034   0.415 -0.2267  0.9750 -0.3184
 1250TIP3    H125309   5.653   4.120   0.427 -0.5126  0.7052  0.7717
 1250TIP3    H225310   5.657   3.981   0.486  0.8529  0.2883 -0.2569
 1251TIP3   OH225311   4.274   4.146   2.002  0.3274  0.0678  0.1327
 1251TIP3    H125312   4.237   4.190   2.078  0.7805  2.0472 -0.7273
 1251TIP3    H225313   4.219   4.068   1.991 -2.7202  2.0722 -0.1926
 1252TIP3   OH225314   0.413   6.114   0.753 -0.2059 -0.0479 -0.2252
 1252TIP3    H125315   0.438   6.130   0.662 -0.5206  0.5460 -0.2077
 1252TIP3    H225316   0.407   6.201   0.792  0.1156 -0.3072  0.4179
 1253TIP3   OH225317   3.999   3.570   2.688  0.2834 -0.5298  0.4656
 1253TIP3    H125318   4.087   3.548   2.658 -0.2938  0.1163 -1.9910
 1253TIP3    H225319   3.998   3.547   2.781  3.5350  0.9986  0.9952
 1254TIP3   OH225320   4.876   1.905   7.961 -0.0439 -0.3207  0.3857
 1254TIP3    H125321   4.915   1.849   8.028 -0.4484 -1.7431 -0.5251
 1254TIP3    H225322   4.945   1.919   7.898  0.2211  0.7021  0.8774
 1255TIP3   OH225323   6.269   1.214   2.033 -0.0438  0.0756 -0.2642
 1255TIP3    H125324   6.286   1.196   1.940  0.4862  0.7295 -0.3018
 1255TIP3    H225325   6.207   1.287   2.032  0.6686  0.6937 -0.1086
 1256TIP3   OH225326   2.864   1.678   3.142  0.0295  0.2971 -0.1706
 1256TIP3    H125327   2.792   1.692   3.080  1.5718  0.3722 -2.0115
 1256TIP3    H225328   2.943   1.675   3.088  1.3696 -0.4933  1.7118
 1257TIP3   OH225329   5.492   1.798   1.970 -0.3971 -0.1440 -0.1240
 1257TIP3    H125330   5.587   1.803   1.982 -0.4542  1.2852 -0.0576
 1257TIP3    H225331   5.456   1.832   2.051 -0.9568 -0.1851 -0.3515
 1258TIP3   OH225332   2.030   1.831   7.309 -0.7625 -0.0057  0.4736
 1258TIP3    H125333   2.075   1.892   7.251  0.7903  0.6397  2.2529
 1258TIP3    H225334   1.984   1.771   7.250 -0.9033  1.7813 -1.3663
 1259TIP3   OH225335   4.528   0.759   0.380  0.4167 -0.4651  0.0235
 1259TIP3    H125336   4.548   0.702   0.306 -1.0168 -0.8414 -0.0989
 1259TIP3    H225337   4.495   0.700   0.448  1.4162 -0.0823  0.8572
 1260TIP3   OH225338   0.740   5.280   2.096 -0.0439 -0.0572  0.2905
 1260TIP3    H125339   0.819   5.309   2.142 -0.3981  0.3168  0.6616
 1260TIP3    H225340   0.669   5.329   2.136 -0.3136  0.5875 -0.9295
 1261TIP3   OH225341   0.391   0.528   0.033  0.7826 -1.0084  0.4690
 1261TIP3    H125342   0.350   0.597   0.084  2.0888 -0.4393  0.8061
 1261TIP3    H225343   0.484   0.551   0.032  0.7273 -0.4139 -3.0749
 1262TIP3   OH225344   3.898   6.313   2.244 -0.2434  0.3625 -0.2306
 1262TIP3    H125345   3.972   6.310   2.304 -0.1757 -0.8540 -0.3455
 1262TIP3    H225346   3.851   6.231   2.260 -1.7851  1.2707  0.1049
 1263TIP3   OH225347   0.146   1.512   0.217  0.1634 -0.0802 -0.2472
 1263TIP3    H125348   0.174   1.485   0.129 -3.3177  0.2667 -1.6390
 1263TIP3    H225349   0.074   1.574   0.201  0.9479  1.8702  2.8865
 1264TIP3   OH225350   1.431   2.288   1.938 -0.1811 -0.0725  0.2415
 1264TIP3    H125351   1.393   2.336   1.864  1.9531  0.8136 -0.3690
 1264TIP3    H225352   1.524   2.284   1.918  0.3466 -0.5097  2.5202
 1265TIP3   OH225353   2.734   5.916   0.292 -0.0231 -0.3839  0.3143
 1265TIP3    H125354   2.809   5.946   0.241  0.1477  2.4956  2.0822
 1265TIP3    H225355   2.659   5.931   0.234  0.3952  0.5753 -0.0016
 1266TIP3   OH225356   5.155   2.883   2.647  0.1042 -0.0394  0.1570
 1266TIP3    H125357   5.164   2.947   2.577  3.1832  1.0230  1.3791
 1266TIP3    H225358   5.141   2.935   2.726 -2.3973 -1.1795  0.5664
 1267TIP3   OH225359   1.191   3.673   2.636 -0.0510  0.0810  0.5201
 1267TIP3    H125360   1.227   3.660   2.723  1.2813  1.6609  0.2651
 1267TIP3    H225361   1.102   3.704   2.651  0.0249 -0.0759  1.3108
 1268TIP3   OH225362   6.131   3.956   8.555  0.4756  0.2744  0.4109
 1268TIP3    H125363   6.126   3.905   8.474 -3.7595 -0.4104  0.8929
 1268TIP3    H225364   6.127   3.891   8.625 -0.7412  1.0379  1.0796
 1269TIP3   OH225365   0.681   4.574   2.196 -0.0504  0.5752  0.5824
 1269TIP3    H125366   0.657   4.648   2.140 -0.6416 -0.0820 -0.0735
 1269TIP3    H225367   0.628   4.501   2.162  1.3776 -0.4352  0.4319
 1270TIP3   OH225368   2.733   3.212   1.851 -0.0854  0.0457 -0.2563
 1270TIP3    H125369   2.706   3.236   1.940  0.4599  1.1948 -0.3711
 1270TIP3    H225370   2.678   3.138   1.828  0.9953 -1.4843  1.7340
 1271TIP3   OH225371   5.969   6.121   1.814 -0.0874 -0.0012 -0.0003
 1271TIP3    H125372   6.011   6.060   1.875 -0.4051 -1.1812 -0.9349
 1271TIP3    H225373   5.883   6.083   1.797  0.2526 -0.0602 -1.7188
 1272TIP3   OH225374   3.188   6.263   2.626  0.3268  0.0344  0.2560
 1272TIP3    H125375   3.099   6.251   2.659 -0.0460 -0.1554 -0.7717
 1272TIP3    H225376   3.217   6.346   2.665 -0.4719  0.3300  0.2490
 1273TIP3   OH225377   2.650   0.382   7.778 -0.7763  0.1386 -0.3042
 1273TIP3    H125378   2.615   0.398   7.866 -0.7516  0.3392 -0.3304
 1273TIP3    H225379   2.573   0.376   7.722 -0.7527  3.1186 -0.8045
 1274TIP3   OH225380   5.312   2.608   2.458 -0.5101  0.0318  0.5062
 1274TIP3    H125381   5.234   2.654   2.426 -0.0270 -0.6571 -1.9172
 1274TIP3    H225382   5.374   2.678   2.480 -0.4530  0.6505 -1.3709
 1275TIP3   OH225383   1.518   1.217   8.011 -0.0118 -0.0795  0.1253
 1275TIP3    H125384   1.529   1.251   8.100  2.8673 -1.1157  0.2614
 1275TIP3    H225385   1.511   1.123   8.022  1.3107 -0.3071 -0.7598
 1276TIP3   OH225386   0.019   5.909   8.328 -0.0550  0.0045 -0.5697
 1276TIP3    H125387   0.020   5.903   8.424 -0.2439  2.3996 -0.3571
 1276TIP3    H225388   0.012   6.003   8.310  1.2257 -0.2819 -2.9540
 1277TIP3   OH225389   1.582   2.359   3.421  0.7737  0.3583 -0.3369
 1277TIP3    H125390   1.511   2.357   3.485 -0.1461  1.2380 -1.2811
 1277TIP3    H225391   1.651   2.306   3.460 -0.3223 -0.3660  0.6985
 1278TIP3   OH225392   6.107   2.896   3.507 -0.2751 -0.5802  0.1208
 1278TIP3    H125393   6.042   2.954   3.547 -0.6477 -0.9152  0.0067
 1278TIP3    H225394   6.191   2.929   3.539 -0.6057 -1.4243  1.9625
 1279TIP3   OH225395   5.852   3.101   3.430 -0.2086 -0.3468  0.5485
 1279TIP3    H125396   5.824   3.101   3.339 -0.1137 -1.7099  0.4980
 1279TIP3    H225397   5.929   3.158   3.432 -0.5434  0.1370 -0.1033
 1280TIP3   OH225398   4.632   6.776   2.542 -0.7849  0.3303 -0.4093
 1280TIP3    H125399   4.559   6.721   2.570 -0.8794  0.4870 -0.3449
 1280TIP3    H225400   4.707   6.743   2.592 -0.1788 -1.6428 -2.4689
 1281TIP3   OH225401   5.380   4.333   8.300 -0.3961 -0.1515 -0.1650
 1281TIP3    H125402   5.355   4.423   8.277 -0.9803 -0.2914 -0.1028
 1281TIP3    H225403   5.370   4.284   8.218  0.4631 -0.0595 -0.3377
 1282TIP3   OH225404   5.350   6.561   2.217  0.7743  0.1142 -0.9493
 1282TIP3    H125405   5.370   6.530   2.128  1.7701  0.9471 -1.0318
 1282TIP3    H225406   5.261   6.595   2.211  0.5040 -0.6519 -1.4052
 1283TIP3   OH225407   6.768   1.511   1.029  0.0180  0.3594 -0.4966
 1283TIP3    H125408   6.808   1.594   1.054 -0.4969  0.3059  0.5343
 1283TIP3    H225409   6.826   1.445   1.067  1.1155  0.1668 -2.3228
 1284TIP3   OH225410   3.719   1.173   7.167  0.5061  0.0952  0.3410
 1284TIP3    H125411   3.694   1.100   7.112  0.5883  1.1542 -1.1485
 1284TIP3    H225412   3.703   1.251   7.114  1.0354  1.1402  1.6370
 1285TIP3   OH225413   2.034   0.578   8.286  0.2309 -0.7755  0.3977
 1285TIP3    H125414   2.043   0.620   8.372 -1.4377  0.1796  0.1431
 1285TIP3    H225415   2.105   0.615   8.234 -0.3176  0.6391  0.6167
 1286TIP3   OH225416   2.131   5.115   1.422 -0.4772 -0.3190  0.1274
 1286TIP3    H125417   2.165   5.169   1.350 -2.7462  1.2431  0.1153
 1286TIP3    H225418   2.079   5.048   1.378 -1.2575  0.1837  0.2757
 1287TIP3   OH225419   0.022   5.930   1.567 -0.6548 -0.0499 -0.1188
 1287TIP3    H125420   0.084   5.870   1.609  0.2505  0.4886 -0.6504
 1287TIP3    H225421   0.075   6.005   1.542 -1.5498  0.4582 -0.5283
 1288TIP3   OH225422   2.938   6.078   2.464  0.0813  0.2434 -0.4278
 1288TIP3    H125423   2.926   6.125   2.546  2.2784  0.0823  0.0377
 1288TIP3    H225424   2.865   6.107   2.409 -0.9478  1.0034  1.2566
 1289TIP3   OH225425   5.525   3.365   1.325  0.2603  0.6954  0.2443
 1289TIP3    H125426   5.521   3.375   1.420  1.5526 -0.4015  0.4402
 1289TIP3    H225427   5.561   3.448   1.293  1.6844  0.3662  0.9120
 1290TIP3   OH225428   6.681   6.060   8.015 -0.0334 -0.6782  0.1592
 1290TIP3    H125429   6.660   6.153   8.024  2.6321  0.1691 -1.3144
 1290TIP3    H225430   6.635   6.018   8.088 -1.2018  1.7836  0.9492
 1291TIP3   OH225431   0.110   6.215   2.015  0.1390 -0.3316 -0.5293
 1291TIP3    H125432   0.033   6.238   2.068 -0.8021 -0.1925 -1.9072
 1291TIP3    H225433   0.084   6.135   1.969  0.0510  0.7894 -2.5024
 1292TIP3   OH225434   5.664   6.375   0.376  0.5588 -0.1664  0.6306
 1292TIP3    H125435   5.580   6.381   0.330  1.1078 -0.2838 -0.4058
 1292TIP3    H225436   5.725   6.422   0.320  1.3318 -0.6679  1.0452
 1293TIP3   OH225437   6.110   0.018   2.817 -0.1919  0.0920  0.0326
 1293TIP3    H125438   6.099  -0.067   2.774 -0.7021  0.0314  0.2754
 1293TIP3    H225439   6.024   0.038   2.853  0.1120  0.3596  0.6271
 1294TIP3   OH225440   3.154   4.675   2.222  0.2112  0.3851 -0.2930
 1294TIP3    H125441   3.115   4.693   2.136  0.6835  2.2784 -0.1450
 1294TIP3    H225442   3.089   4.707   2.285 -0.4385 -1.6102  0.1224
 1295TIP3   OH225443   3.106   5.586   1.245 -0.5205 -0.4617  0.7506
 1295TIP3    H125444   3.081   5.678   1.241 -2.7534 -0.9753  1.4377
 1295TIP3    H225445   3.184   5.584   1.302 -0.0802  1.0346  0.2300
 1296TIP3   OH225446   6.400   4.503   3.389 -0.6861  0.1527  0.3993
 1296TIP3    H125447   6.350   4.449   3.450  0.3017 -0.6937  0.4882
 1296TIP3    H225448   6.460   4.442   3.347  0.0271  1.0803  0.0336
 1297TIP3   OH225449   1.331   0.189   2.037  0.0506 -0.0195 -0.1993
 1297TIP3    H125450   1.426   0.177   2.035  0.0177 -0.5292  0.5541
 1297TIP3    H225451   1.298   0.107   2.076 -0.7017  0.1053 -0.5605
 1298TIP3   OH225452   2.682   3.051   3.052 -0.3558  0.3146  0.0814
 1298TIP3    H125453   2.615   3.108   3.014 -0.6911 -0.5645 -0.6760
 1298TIP3    H225454   2.642   3.019   3.132 -0.7241  0.0347 -0.2112
 1299TIP3   OH225455   1.157   0.397   2.556 -0.2759  0.2277 -0.0429
 1299TIP3    H125456   1.130   0.459   2.623  0.8461 -1.1708  1.7927
 1299TIP3    H225457   1.091   0.328   2.559  0.6831 -0.6772  0.8592
 1300TIP3   OH225458   2.799   4.741   1.851 -0.2360  0.0082  0.1664
 1300TIP3    H125459   2.719   4.696   1.824 -1.3828  1.2339  1.3174
 1300TIP3    H225460   2.806   4.723   1.945  1.1576 -0.5199 -0.0226
 1301TIP3   OH225461   2.061   5.246   7.804 -0.0022 -0.1860 -0.1440
 1301TIP3    H125462   2.125   5.186   7.766 -0.8010 -0.5734 -0.8990
 1301TIP3    H225463   1.991   5.189   7.837 -0.5260  0.2996 -0.4029
 1302TIP3   OH225464   6.207   2.117   0.493  0.1507 -0.3268  0.4128
 1302TIP3    H125465   6.262   2.178   0.443  0.7408 -2.3762 -1.5816
 1302TIP3    H225466   6.228   2.031   0.458 -1.2528 -1.6433  2.5784
 1303TIP3   OH225467   0.053   3.053   7.630  0.2956 -0.7580 -0.0846
 1303TIP3    H125468  -0.004   3.012   7.564 -1.0900  0.0292  0.5839
 1303TIP3    H225469   0.134   3.073   7.582 -0.2473 -1.2502 -1.2517
 1304TIP3   OH225470   5.342   3.037   7.681  0.4188 -0.3544 -0.0015
 1304TIP3    H125471   5.383   2.952   7.667 -0.5031 -0.7348 -0.4849
 1304TIP3    H225472   5.399   3.099   7.636 -0.9996 -1.2107 -3.3207
 1305TIP3   OH225473   1.875   1.136   0.930 -0.4893 -0.0216  0.3810
 1305TIP3    H125474   1.812   1.120   0.859  0.8101 -0.7091 -0.6826
 1305TIP3    H225475   1.825   1.182   0.997 -1.9036  0.2018 -0.7714
 1306TIP3   OH225476   3.997   5.541   2.519 -0.0705  0.4757  1.0636
 1306TIP3    H125477   3.984   5.634   2.502  1.1845  0.5471  0.3660
 1306TIP3    H225478   4.059   5.539   2.592 -1.8936  0.1571  2.6945
 1307TIP3   OH225479   1.588   0.591   0.155 -0.0116 -0.4861 -0.1038
 1307TIP3    H125480   1.599   0.623   0.065  1.2646 -2.5492 -0.7619
 1307TIP3    H225481   1.504   0.545   0.154 -1.8035  2.4822  0.8195
 1308TIP3   OH225482   6.149   5.546   3.576  0.6685 -0.1360  0.1144
 1308TIP3    H125483   6.094   5.486   3.627  0.9138 -0.0876  0.4398
 1308TIP3    H225484   6.239   5.521   3.599  0.7810  1.1156  1.1679
 1309TIP3   OH225485   5.368   5.884   2.798  0.3430 -0.4119  0.1831
 1309TIP3    H125486   5.375   5.964   2.851 -0.1652 -0.1390 -0.1553
 1309TIP3    H225487   5.326   5.912   2.717  1.0166 -0.8497 -0.3341
 1310TIP3   OH225488   5.125   2.180   2.298 -0.2206 -0.5292 -0.6322
 1310TIP3    H125489   5.114   2.116   2.368  1.4614 -0.6261 -0.4102
 1310TIP3    H225490   5.214   2.215   2.311 -1.6578  3.2667  0.4319
 1311TIP3   OH225491   2.669   0.849   1.862  0.4024  0.1196  0.1796
 1311TIP3    H125492   2.701   0.761   1.844  0.6020  0.2414 -0.0743
 1311TIP3    H225493   2.716   0.905   1.799  0.0844  0.3700  0.1620
 1312TIP3   OH225494   0.434   1.838   2.820 -0.0473  0.0984  0.3380
 1312TIP3    H125495   0.366   1.774   2.843 -0.0652 -0.3620 -0.9407
 1312TIP3    H225496   0.514   1.801   2.857  0.0417 -0.9728 -0.8491
 1313TIP3   OH225497   5.004   4.754   1.642 -0.0065 -0.7431 -0.1350
 1313TIP3    H125498   4.981   4.840   1.678  3.7323 -0.4368  2.0050
 1313TIP3    H225499   4.989   4.692   1.713 -1.5697 -1.7990 -1.2971
 1314TIP3   OH225500   1.601   2.345   3.140  0.0396  0.1259  0.2125
 1314TIP3    H125501   1.527   2.378   3.191 -1.3574 -0.0241 -1.6131
 1314TIP3    H225502   1.677   2.361   3.196 -1.2289  1.2178  1.7376
 1315TIP3   OH225503   0.176   5.752   8.174 -0.1218 -0.2853  1.0086
 1315TIP3    H125504   0.112   5.811   8.215 -1.1075 -1.3174  1.0258
 1315TIP3    H225505   0.122   5.684   8.133  0.8688  0.1239 -1.1026
 1316TIP3   OH225506   3.373   4.592   1.380 -0.4612 -0.1017 -0.5306
 1316TIP3    H125507   3.342   4.506   1.410 -0.5386 -0.6447 -2.0621
 1316TIP3    H225508   3.339   4.654   1.444 -1.5928 -1.0740 -0.1609
 1317TIP3   OH225509   2.817   5.662   0.170  0.3685  0.4661 -0.0365
 1317TIP3    H125510   2.811   5.687   0.078  0.4700  2.7555  0.5318
 1317TIP3    H225511   2.765   5.728   0.216 -0.8108 -1.4114  1.4570
 1318TIP3   OH225512   0.943   4.026   2.838 -0.4790 -0.0673  0.4822
 1318TIP3    H125513   0.928   4.094   2.903  2.7897  0.7085  0.6235
 1318TIP3    H225514   0.889   4.051   2.763 -0.9300  1.5016  1.2985
 1319TIP3   OH225515   2.366   3.107   0.438 -0.3119 -0.7364 -0.1633
 1319TIP3    H125516   2.364   3.023   0.484  0.6298 -1.3767 -1.2554
 1319TIP3    H225517   2.455   3.140   0.454 -0.6195 -0.0147  0.1082
 1320TIP3   OH225518   0.329   5.440   1.449  0.4596  0.3658  0.1085
 1320TIP3    H125519   0.348   5.398   1.533 -0.0730 -1.4672 -0.6498
 1320TIP3    H225520   0.236   5.426   1.435  0.3532  1.4452 -0.3944
 1321TIP3   OH225521   4.472   3.215   8.188 -0.1728  0.0974 -0.0799
 1321TIP3    H125522   4.419   3.260   8.122  1.1424 -0.7135 -1.7721
 1321TIP3    H225523   4.558   3.256   8.181  1.1869 -2.7822 -1.9588
 1322TIP3   OH225524   1.860   5.164   2.773  0.4102 -0.2099  0.0782
 1322TIP3    H125525   1.821   5.126   2.694  0.8312 -2.9725  1.1175
 1322TIP3    H225526   1.787   5.175   2.833  0.5476 -1.1462  0.4268
 1323TIP3   OH225527   0.392   4.805   1.461 -0.1884  0.2566  0.2534
 1323TIP3    H125528   0.376   4.887   1.508 -2.4053  0.2570 -0.3979
 1323TIP3    H225529   0.456   4.759   1.515 -0.2177  1.6489  1.5511
 1324TIP3   OH225530   2.003   1.516   8.178  0.2134 -0.6146  0.8760
 1324TIP3    H125531   2.062   1.530   8.252 -0.4347 -2.9354  1.9164
 1324TIP3    H225532   2.013   1.595   8.125  3.9140 -0.6637  1.1921
 1325TIP3   OH225533   3.332   6.357   0.298 -1.0152  0.7562 -0.1480
 1325TIP3    H125534   3.396   6.306   0.348 -2.2309 -1.5395 -0.7736
 1325TIP3    H225535   3.259   6.296   0.284 -1.4061  1.7876 -3.3654
 1326TIP3   OH225536   4.508   6.439   7.706 -0.0823  0.1390  0.2261
 1326TIP3    H125537   4.593   6.473   7.737 -0.4201  0.5172  0.7623
 1326TIP3    H225538   4.530   6.385   7.631  0.5918  0.6205  0.0631
 1327TIP3   OH225539   5.391   2.326   3.082 -0.4421 -0.1569 -0.4147
 1327TIP3    H125540   5.413   2.414   3.053  2.1042 -0.2625  0.9154
 1327TIP3    H225541   5.413   2.325   3.175  1.6290 -2.7035 -0.7866
 1328TIP3   OH225542   4.786   1.230   1.321  0.2977  0.2003  0.1138
 1328TIP3    H125543   4.842   1.265   1.252  0.9955 -2.1088 -0.5822
 1328TIP3    H225544   4.839   1.161   1.361 -0.4359  0.8597  2.3971
 1329TIP3   OH225545   2.137   4.010   2.222 -0.4402  0.2102 -0.4402
 1329TIP3    H125546   2.115   4.069   2.150  0.8846 -0.2455 -1.2485
 1329TIP3    H225547   2.111   4.058   2.301  1.5642  2.3687 -1.0006
 1330TIP3   OH225548   0.842   1.485   2.491 -0.0445  0.0092 -0.0542
 1330TIP3    H125549   0.788   1.542   2.545 -1.3294 -0.7254 -0.4883
 1330TIP3    H225550   0.904   1.446   2.552 -1.1304 -0.4191  0.8260
 1331TIP3   OH225551   5.621   5.287   1.655  0.2681 -0.0519 -0.4595
 1331TIP3    H125552   5.665   5.271   1.572  0.6243 -0.3683 -0.2184
 1331TIP3    H225553   5.683   5.342   1.704  0.1271  0.0095 -0.3490
 1332TIP3   OH225554   4.280   2.265   1.976  0.2149 -0.0792 -0.4614
 1332TIP3    H125555   4.335   2.290   2.050 -0.2247 -1.1442  0.2523
 1332TIP3    H225556   4.192   2.257   2.013  0.0331 -0.8867 -1.0330
 1333TIP3   OH225557   1.950   1.401   1.817 -0.0638  0.2189 -0.0752
 1333TIP3    H125558   1.875   1.396   1.876  0.5211  1.6701  0.8530
 1333TIP3    H225559   2.026   1.400   1.875  0.5966 -0.0163 -0.9244
 1334TIP3   OH225560   2.348   0.066   8.122  0.6360 -0.4314  0.3561
 1334TIP3    H125561   2.336   0.098   8.212 -0.6801  1.4346 -0.4199
 1334TIP3    H225562   2.356  -0.029   8.131  2.0653 -0.1768  2.5665
 1335TIP3   OH225563   4.115   6.860   2.446 -0.4210  0.1912  0.1663
 1335TIP3    H125564   4.102   6.950   2.416  0.8545  0.0695 -0.8364
 1335TIP3    H225565   4.208   6.843   2.431 -0.5719 -1.1851  0.6527
 1336TIP3   OH225566   2.071   0.440   1.041  0.0218 -0.1995 -0.1941
 1336TIP3    H125567   1.978   0.423   1.059  0.2252  0.0528  1.1895
 1336TIP3    H225568   2.070   0.514   0.980 -0.6730  0.5474  0.6959
 1337TIP3   OH225569   3.692   5.532   0.218 -0.3192 -0.4524  0.4018
 1337TIP3    H125570   3.759   5.518   0.152 -1.6205  1.0638 -1.3198
 1337TIP3    H225571   3.725   5.604   0.271  0.8505 -1.8459  1.6784
 1338TIP3   OH225572   4.774   4.119   0.057  0.1972 -0.4365  0.6971
 1338TIP3    H125573   4.858   4.157   0.083 -0.0289 -0.3055  1.2574
 1338TIP3    H225574   4.780   4.027   0.080  0.7862 -0.7883 -0.7631
 1339TIP3   OH225575   0.323   0.509   1.719 -0.2596  0.4069 -0.2436
 1339TIP3    H125576   0.378   0.569   1.768 -2.1600  1.7540  0.3613
 1339TIP3    H225577   0.370   0.495   1.637  1.0765  1.2961  0.3354
 1340TIP3   OH225578   3.213   4.107   8.291 -0.0325 -0.8541 -0.3369
 1340TIP3    H125579   3.257   4.150   8.364 -0.7788  0.9937 -0.9270
 1340TIP3    H225580   3.137   4.065   8.330 -0.3561  0.0130 -0.0119
 1341TIP3   OH225581   2.443   2.648   2.448  0.0478  0.2777 -0.4626
 1341TIP3    H125582   2.520   2.617   2.495  0.7692 -0.2167 -1.9287
 1341TIP3    H225583   2.371   2.595   2.482  0.3885  0.5221  0.6835
 1342TIP3   OH225584   3.936   1.278   7.280 -0.3545  0.0270 -0.0357
 1342TIP3    H125585   3.934   1.363   7.236  0.3177 -0.5229 -1.1777
 1342TIP3    H225586   3.867   1.227   7.238 -0.1626 -0.2802  0.0153
 1343TIP3   OH225587   2.471   0.355   8.000 -0.2180 -0.1426  0.8755
 1343TIP3    H125588   2.397   0.297   7.980 -0.5330  0.4971  0.1137
 1343TIP3    H225589   2.431   0.434   8.036 -0.1921  1.2523 -1.8549
 1344TIP3   OH225590   3.775   4.023   1.363 -0.3105 -0.8549 -0.3505
 1344TIP3    H125591   3.844   4.005   1.300  2.7110  0.2378  2.3175
 1344TIP3    H225592   3.769   3.944   1.416  0.5961 -0.1891  0.7988
 1345TIP3   OH225593   6.009   3.981   0.597  0.2813 -0.3767 -0.1525
 1345TIP3    H125594   6.067   3.908   0.577 -1.4390 -1.8234 -0.1487
 1345TIP3    H225595   5.955   3.991   0.518  0.5399  0.9542 -0.1791
 1346TIP3   OH225596   6.388   5.045   1.329  0.1337 -0.1787  0.3613
 1346TIP3    H125597   6.408   5.137   1.346 -0.3720  0.5087 -2.2177
 1346TIP3    H225598   6.460   5.015   1.273 -0.6572 -0.7501 -0.3903
 1347TIP3   OH225599   5.352   3.234   8.445  0.7818 -0.2275  0.0703
 1347TIP3    H125600   5.421   3.269   8.501  2.1782 -1.1041 -1.0255
 1347TIP3    H225601   5.398   3.187   8.376 -0.9393 -1.6271 -0.2135
 1348TIP3   OH225602   1.244   3.916   8.180 -0.2251 -0.1823 -0.0521
 1348TIP3    H125603   1.333   3.882   8.173 -1.2520 -3.0997 -0.2427
 1348TIP3    H225604   1.192   3.841   8.209 -2.3537  1.9078  1.9312
 1349TIP3   OH225605   0.557   5.596   0.499 -0.7442 -0.1414 -0.0706
 1349TIP3    H125606   0.508   5.537   0.557 -0.2071 -0.4412  0.0815
 1349TIP3    H225607   0.521   5.578   0.412  1.6718 -3.2224 -0.6201
 1350TIP3   OH225608   0.631   1.874   2.575  0.1343 -0.4733  0.2830
 1350TIP3    H125609   0.661   1.835   2.657  1.6236  0.2895  0.1421
 1350TIP3    H225610   0.638   1.804   2.511  1.5038 -0.3857  0.2998
 1351TIP3   OH225611   3.680   2.363   2.438 -0.0748 -0.5760 -0.9107
 1351TIP3    H125612   3.714   2.355   2.349  0.6830  0.6710 -0.7458
 1351TIP3    H225613   3.594   2.319   2.435 -1.0277  1.2436 -2.7960
 1352TIP3   OH225614   4.467   4.006   3.272 -0.6750  0.4211 -0.8107
 1352TIP3    H125615   4.492   3.982   3.362 -0.7975  0.7590 -0.6824
 1352TIP3    H225616   4.390   4.062   3.284  1.0192  2.9434 -0.9298
 1353TIP3   OH225617   2.471   5.388   8.560 -0.2582  0.1185 -0.0527
 1353TIP3    H125618   2.453   5.331   8.635  0.1803  0.8691  0.6283
 1353TIP3    H225619   2.385   5.402   8.520 -0.6457  0.5589  0.9187
 1354TIP3   OH225620   2.917   1.031   2.715 -0.6145  0.5382  0.0185
 1354TIP3    H125621   2.850   0.963   2.720 -1.0082  0.8410 -0.7646
 1354TIP3    H225622   2.956   1.034   2.802 -0.4338 -0.8302  0.0018
 1355TIP3   OH225623   2.005   2.108   1.141  0.5650  0.2653  0.3882
 1355TIP3    H125624   1.981   2.016   1.132  3.4878 -0.4457 -1.1242
 1355TIP3    H225625   2.094   2.107   1.176 -0.0050  2.6164  2.2071
 1356TIP3   OH225626   2.992   1.115   1.348  0.0025  0.5114 -0.1025
 1356TIP3    H125627   2.950   1.029   1.354 -1.8975  1.4265  0.3110
 1356TIP3    H225628   2.957   1.152   1.267  0.9009  0.8759 -0.3338
 1357TIP3   OH225629   2.155   6.324   0.407 -0.1540 -0.2978  0.1238
 1357TIP3    H125630   2.176   6.409   0.445  0.4292 -0.0316 -0.7673
 1357TIP3    H225631   2.084   6.290   0.462  0.2018  0.3695  1.0133
 1358TIP3   OH225632   5.678   3.741   0.871 -0.3736  0.2398 -0.0039
 1358TIP3    H125633   5.646   3.654   0.847 -0.3251  0.2243 -0.0117
 1358TIP3    H225634   5.772   3.731   0.880 -0.4193  0.1830  0.4509
 1359TIP3   OH225635   3.824   3.108   8.234 -0.4098  0.4860 -0.0314
 1359TIP3    H125636   3.857   3.137   8.149  0.0536  0.5890  0.1800
 1359TIP3    H225637   3.866   3.166   8.298  1.7291 -1.4929  0.5549
 1360TIP3   OH225638   3.576   2.025   2.908 -0.1929 -0.0490 -0.3235
 1360TIP3    H125639   3.518   1.949   2.897  1.2931 -1.3964  0.6969
 1360TIP3    H225640   3.528   2.084   2.966 -0.6808 -1.0206  0.2835
 1361TIP3   OH225641   0.031   5.116   0.096 -0.6061 -0.0842 -0.0979
 1361TIP3    H125642   0.112   5.113   0.146 -1.2087 -1.0528  0.8540
 1361TIP3    H225643   0.014   5.025   0.071 -3.0933 -0.5105  2.5990
 1362TIP3   OH225644   2.308   4.336   0.228  0.0104 -0.0753 -0.0247
 1362TIP3    H125645   2.267   4.310   0.311 -1.0196 -1.1602 -0.8358
 1362TIP3    H225646   2.353   4.257   0.198 -1.6826 -0.4817 -1.6612
 1363TIP3   OH225647   3.721   0.723   2.779  0.1296  0.3384  0.7235
 1363TIP3    H125648   3.759   0.695   2.696 -2.2509  0.0262 -0.3395
 1363TIP3    H225649   3.655   0.788   2.755 -1.3020 -0.4812  2.2613
 1364TIP3   OH225650   1.623   4.123   0.418  0.3508 -0.7650  0.4241
 1364TIP3    H125651   1.673   4.186   0.468 -0.4636  1.7004 -1.6396
 1364TIP3    H225652   1.680   4.046   0.411  1.3820 -0.3030  3.0031
 1365TIP3   OH225653   3.150   0.276   8.428 -0.1488 -0.1458 -0.2646
 1365TIP3    H125654   3.187   0.197   8.469 -0.6392 -1.2048 -1.7687
 1365TIP3    H225655   3.144   0.254   8.335 -2.2244  0.8993 -0.4333
 1366TIP3   OH225656   1.047   5.384   2.109 -0.1611 -0.0956  0.5286
 1366TIP3    H125657   1.032   5.341   2.193  0.4742 -1.2333  0.0810
 1366TIP3    H225658   1.134   5.423   2.118 -1.2001  2.1843  1.3509
 1367TIP3   OH225659   1.908   2.371   1.567 -0.5398  0.4140  0.4424
 1367TIP3    H125660   1.895   2.302   1.502 -3.1780  0.5044  0.7676
 1367TIP3    H225661   1.930   2.324   1.648  0.2456  0.1444  0.0789
 1368TIP3   OH225662   6.139   2.616   1.077 -0.7079  0.1790 -0.2833
 1368TIP3    H125663   6.135   2.626   0.982 -1.0728 -1.1139 -0.4285
 1368TIP3    H225664   6.223   2.574   1.093 -1.7329 -2.0255 -0.3237
 1369TIP3   OH225665   0.089   3.274   2.150 -0.2952 -0.7953  0.3848
 1369TIP3    H125666   0.099   3.217   2.073  0.8086 -1.0589  0.7067
 1369TIP3    H225667   0.139   3.230   2.218 -1.7928 -0.9113  1.4692
 1370TIP3   OH225668   6.848   6.284   1.153 -0.0024 -0.0490 -0.1328
 1370TIP3    H125669   6.835   6.219   1.222  0.8003  1.3021  1.3451
 1370TIP3    H225670   6.798   6.250   1.079 -2.2948 -0.7259  1.6098
 1371TIP3   OH225671   4.606   0.116   1.111 -0.0506 -0.1520 -0.1172
 1371TIP3    H125672   4.515   0.144   1.116 -0.4414 -1.2361 -0.7493
 1371TIP3    H225673   4.655   0.185   1.156 -1.1795  0.4264  0.2698
 1372TIP3   OH225674   2.860   3.994   7.981 -0.4915 -0.1921 -0.2180
 1372TIP3    H125675   2.791   4.032   7.927  0.6763  0.4782 -1.2885
 1372TIP3    H225676   2.887   3.915   7.934 -0.4425 -0.3851  0.1308
 1373TIP3   OH225677   4.927   1.732   1.048  0.0415  0.1895 -0.3828
 1373TIP3    H125678   4.940   1.821   1.017 -0.4456  0.4869  0.2498
 1373TIP3    H225679   4.940   1.738   1.143 -1.7618 -0.0506 -0.0880
 1374TIP3   OH225680   1.046   6.423   2.656 -0.3783  0.2716 -0.1254
 1374TIP3    H125681   0.976   6.374   2.698  0.6343  1.1418  2.8582
 1374TIP3    H225682   1.117   6.424   2.720  1.3342  1.7829 -1.8853
 1375TIP3   OH225683   2.640   3.554   3.037 -0.4768  0.1292 -0.1785
 1375TIP3    H125684   2.646   3.504   2.955  1.5336 -0.1317  0.0833
 1375TIP3    H225685   2.661   3.644   3.011 -1.5627  0.3915 -0.2106
 1376TIP3   OH225686   3.384   6.079   7.869 -0.1536  0.0901  0.3925
 1376TIP3    H125687   3.318   6.040   7.813  1.2799 -0.3924 -1.0390
 1376TIP3    H225688   3.409   6.160   7.824  1.1714 -0.4054  0.2140
 1377TIP3   OH225689   1.378   4.268   0.289 -0.2615 -0.1019  0.7498
 1377TIP3    H125690   1.448   4.212   0.322  0.5073 -0.0949 -0.7710
 1377TIP3    H225691   1.406   4.357   0.311  0.5511 -0.0536 -0.4076
 1378TIP3   OH225692   3.245   1.682   0.931 -0.5734  0.5065 -0.2358
 1378TIP3    H125693   3.319   1.621   0.922 -3.3781 -3.3842  0.3179
 1378TIP3    H225694   3.186   1.658   0.860 -2.6498  1.2985  1.1330
 1379TIP3   OH225695   4.898   2.245   2.121 -0.1043 -0.4358 -0.5589
 1379TIP3    H125696   4.970   2.261   2.183  0.7415 -1.5330 -1.2278
 1379TIP3    H225697   4.825   2.296   2.156  0.8790  0.3957  0.3573
 1380TIP3   OH225698   6.262   2.800   0.641  0.2313 -1.0751 -0.0912
 1380TIP3    H125699   6.338   2.858   0.637 -1.9091  2.2398  2.0522
 1380TIP3    H225700   6.274   2.752   0.724  0.0390 -0.6171  0.2041
 1381TIP3   OH225701   4.058   6.389   8.409 -0.9064 -0.0707  0.0346
 1381TIP3    H125702   4.047   6.449   8.483 -1.1833 -0.5550  0.3903
 1381TIP3    H225703   3.972   6.386   8.368 -0.6683  0.4626 -0.5169
 1382TIP3   OH225704   0.049   2.782   0.007 -0.1133  0.3848  0.0322
 1382TIP3    H125705   0.119   2.717  -0.004 -0.4584  0.1644 -0.9992
 1382TIP3    H225706   0.012   2.764   0.093  0.5265 -0.0645  0.2173
 1383TIP3   OH225707   1.072   2.772   7.951 -0.1414  0.0730  0.2701
 1383TIP3    H125708   1.111   2.723   7.878  0.0863 -1.6235  1.4638
 1383TIP3    H225709   1.123   2.746   8.027 -0.5142  1.6451  1.1005
 1384TIP3   OH225710   0.791   5.268   3.337  0.5405  0.4692 -0.2909
 1384TIP3    H125711   0.764   5.176   3.342 -2.7472  1.2689 -0.9925
 1384TIP3    H225712   0.712   5.315   3.311  2.2380  3.4734 -0.4912
 1385TIP3   OH225713   0.502   0.098   0.144  0.2081 -0.0589  0.9687
 1385TIP3    H125714   0.433   0.094   0.079  0.3183  0.4086  0.8142
 1385TIP3    H225715   0.579   0.128   0.095  0.1572  0.8232  1.4063
 1386TIP3   OH225716   4.367   6.585   0.335  0.3784  0.4041  0.2126
 1386TIP3    H125717   4.463   6.582   0.335  0.4098  0.8716 -0.8390
 1386TIP3    H225718   4.347   6.678   0.328 -0.1071  0.1776 -2.0721
 1387TIP3   OH225719   2.996   0.530   1.080  0.4689 -0.0009  0.0152
 1387TIP3    H125720   3.007   0.438   1.056 -1.3904 -0.0771 -0.7571
 1387TIP3    H225721   3.003   0.532   1.176 -1.9875 -1.4330  0.3097
 1388TIP3   OH225722   3.093   0.281   2.813  0.0747 -0.2910 -0.1800
 1388TIP3    H125723   3.170   0.313   2.765  1.0173  0.0467  1.4709
 1388TIP3    H225724   3.079   0.192   2.782  1.1536 -0.3517 -0.5029
 1389TIP3   OH225725   6.811   6.724   2.586 -0.3128  0.5358  0.0889
 1389TIP3    H125726   6.732   6.779   2.585 -2.1008 -1.8739 -0.1035
 1389TIP3    H225727   6.830   6.709   2.493 -0.3166  0.2061  0.1409
 1390TIP3   OH225728   2.207   4.238   7.699 -0.3475 -0.1085  0.2123
 1390TIP3    H125729   2.120   4.258   7.733 -0.2346  1.4673 -0.2925
 1390TIP3    H225730   2.204   4.270   7.608  0.4390 -0.9708 -0.1279
 1391TIP3   OH225731   2.972   4.855   2.422  0.6886  0.1986 -0.2971
 1391TIP3    H125732   2.895   4.883   2.372 -0.1395 -0.1144  0.7711
 1391TIP3    H225733   2.937   4.795   2.488  1.9948 -0.7858 -0.4646
 1392TIP3   OH225734   6.678   1.132   1.297  0.6065  0.1806 -0.2384
 1392TIP3    H125735   6.722   1.134   1.212  0.4635 -1.1001 -0.3604
 1392TIP3    H225736   6.750   1.125   1.360  0.7354  1.5832 -0.2159
 1393TIP3   OH225737   0.616   3.055   7.650  0.0469 -0.1232 -0.5142
 1393TIP3    H125738   0.662   3.136   7.629 -0.8846  0.0280 -2.2597
 1393TIP3    H225739   0.647   2.992   7.584  0.7021 -1.1864  0.7666
 1394TIP3   OH225740   0.227   2.642   0.777  0.6421 -0.2794 -0.1632
 1394TIP3    H125741   0.208   2.677   0.865  2.0599 -0.1780  0.1229
 1394TIP3    H225742   0.142   2.613   0.745  0.0203  0.0658  1.0768
 1395TIP3   OH225743   1.326   5.914   1.958  0.1051 -0.4751  0.4660
 1395TIP3    H125744   1.316   5.822   1.984  0.4036 -0.3679  0.9829
 1395TIP3    H225745   1.414   5.937   1.989 -0.5842  0.4564  1.8301
 1396TIP3   OH225746   5.069   3.265   3.097  0.2354  0.0897 -0.4968
 1396TIP3    H125747   5.147   3.310   3.129  1.3435 -1.5911 -0.6976
 1396TIP3    H225748   4.996   3.323   3.121  1.3498  0.7693  1.5095
 1397TIP3   OH225749   1.103   5.417   0.855 -0.5327  0.0623 -0.6130
 1397TIP3    H125750   1.180   5.412   0.911 -1.1339  0.1529  0.2286
 1397TIP3    H225751   1.132   5.468   0.779  0.3572 -0.2970 -0.5233
 1398TIP3   OH225752   4.796   1.391   6.906 -0.6452 -0.3193  0.1333
 1398TIP3    H125753   4.733   1.431   6.966 -0.7708  0.1267 -0.2973
 1398TIP3    H225754   4.851   1.463   6.877 -2.4874  0.1069 -2.7096
 1399TIP3   OH225755   6.725   3.354   0.618  0.3390  0.0529 -0.5088
 1399TIP3    H125756   6.764   3.423   0.673 -0.4197  0.8269 -0.9095
 1399TIP3    H225757   6.721   3.278   0.675  1.5503  0.2232 -0.1685
 1400TIP3   OH225758   4.757   4.943   7.753 -0.0746 -0.3791 -1.1355
 1400TIP3    H125759   4.789   4.858   7.781 -0.6506 -0.1317  0.3570
 1400TIP3    H225760   4.661   4.937   7.762 -0.2208  0.0201 -2.2341
 1401TIP3   OH225761   5.357   0.622   8.039  0.2102  0.2121  0.2378
 1401TIP3    H125762   5.449   0.614   8.013  0.4447  0.6612  0.9175
 1401TIP3    H225763   5.356   0.689   8.107 -0.7879  1.1053 -0.6115
 1402TIP3   OH225764   4.013   0.047   1.314 -0.0234 -0.5833 -0.5542
 1402TIP3    H125765   4.095   0.096   1.309 -0.3205  0.7459  3.6858
 1402TIP3    H225766   3.970   0.063   1.230  0.6858  5.1628 -0.1917
 1403TIP3   OH225767   3.314   5.573   3.461 -0.0320  0.2595 -0.4105
 1403TIP3    H125768   3.248   5.507   3.481 -0.6527 -0.7198 -4.7790
 1403TIP3    H225769   3.267   5.638   3.409  1.5921  1.7875 -0.0566
 1404TIP3   OH225770   3.964   1.946   1.744  0.8279  0.1359  0.2819
 1404TIP3    H125771   4.023   2.012   1.707  1.1947 -0.3119  0.0707
 1404TIP3    H225772   3.994   1.935   1.834  2.3967 -1.5998 -0.4114
 1405TIP3   OH225773   3.796   0.271   2.208  0.0588 -0.3791 -0.4735
 1405TIP3    H125774   3.791   0.331   2.134 -0.2459  1.8423  1.2442
 1405TIP3    H225775   3.890   0.256   2.220  0.1151 -0.6421 -1.2011
 1406TIP3   OH225776   2.464   5.925   0.651 -0.1479 -0.8099  0.8502
 1406TIP3    H125777   2.504   5.985   0.715 -0.1193  0.5861 -0.4217
 1406TIP3    H225778   2.372   5.950   0.649  0.0087 -0.2800 -0.2325
 1407TIP3   OH225779   5.724   3.686   8.279  0.2982 -0.1221  0.2498
 1407TIP3    H125780   5.744   3.772   8.316 -0.5919  0.3793 -0.3764
 1407TIP3    H225781   5.808   3.641   8.274  1.0600  1.3519 -1.0076
 1408TIP3   OH225782   6.385   6.314   2.940  0.3701  0.3248  0.5046
 1408TIP3    H125783   6.468   6.268   2.955 -0.5236 -1.5457 -0.0172
 1408TIP3    H225784   6.365   6.355   3.024  1.4665  0.2128  0.8362
 1409TIP3   OH225785   2.672   6.746   1.547 -0.2379  0.2873 -0.2517
 1409TIP3    H125786   2.722   6.680   1.499  0.9963  0.1795  1.1190
 1409TIP3    H225787   2.737   6.788   1.604 -1.6444  0.3930  1.3314
 1410TIP3   OH225788   2.080   5.084   2.537  0.4666 -0.1775 -0.3385
 1410TIP3    H125789   2.090   5.156   2.600 -1.3646 -0.5141  0.4110
 1410TIP3    H225790   2.147   5.099   2.472  2.1655  0.4533  1.4566
 1411TIP3   OH225791   5.876   6.407   1.517  0.0700 -0.3454 -1.2253
 1411TIP3    H125792   5.938   6.408   1.443  0.7771 -0.0788 -0.6421
 1411TIP3    H225793   5.881   6.317   1.550  0.1373 -0.3273 -1.1861
 1412TIP3   OH225794   6.829   0.702   7.746  0.9860 -0.4872  0.2236
 1412TIP3    H125795   6.894   0.657   7.799 -1.4198 -0.9413  3.0975
 1412TIP3    H225796   6.860   0.792   7.741  2.2246 -0.8678  0.7946
 1413TIP3   OH225797   1.502   2.771   1.129 -0.2542  0.1255  0.0587
 1413TIP3    H125798   1.468   2.736   1.046  1.2697  1.6737 -1.3090
 1413TIP3    H225799   1.429   2.823   1.163 -1.2379 -1.3028  0.2341
 1414TIP3   OH225800   6.025   3.741   2.715 -0.6156 -0.0614  0.3814
 1414TIP3    H125801   6.019   3.646   2.704 -0.7239 -0.0265  0.1211
 1414TIP3    H225802   6.098   3.754   2.776 -1.1439 -0.3431  1.0816
 1415TIP3   OH225803   6.725   2.506   2.625  0.7485  0.6602 -0.7808
 1415TIP3    H125804   6.699   2.435   2.566  0.6460  1.1439 -1.3223
 1415TIP3    H225805   6.786   2.464   2.686  1.6506  0.3515 -1.8417
 1416TIP3   OH225806   4.717   6.884   0.614  0.1510  0.2995  0.7735
 1416TIP3    H125807   4.718   6.939   0.692  1.2607  2.7846 -0.8613
 1416TIP3    H225808   4.627   6.891   0.581  0.6836  2.7361 -0.3707
 1417TIP3   OH225809   6.594   5.395   8.016  0.1209  0.8892 -0.1332
 1417TIP3    H125810   6.567   5.355   8.098  3.3654 -0.7520  0.3124
 1417TIP3    H225811   6.551   5.342   7.948 -1.5715  1.4694  0.4319
 1418TIP3   OH225812   2.030   0.549   2.682  0.5713 -0.0582 -0.0232
 1418TIP3    H125813   2.008   0.612   2.613 -0.0278 -1.3119 -1.0153
 1418TIP3    H225814   1.953   0.493   2.689  1.1747 -0.8250  0.6842
 1419TIP3   OH225815   1.397   1.170   1.211 -0.6877  0.8179 -0.2431
 1419TIP3    H125816   1.450   1.159   1.289 -0.8775 -0.0052 -0.2189
 1419TIP3    H225817   1.444   1.234   1.158 -0.1639  0.8008  0.2009
 1420TIP3   OH225818   1.059   6.183   2.428  0.0506 -0.1454  0.0812
 1420TIP3    H125819   0.985   6.159   2.372 -0.0070 -0.5976  0.3422
 1420TIP3    H225820   1.064   6.279   2.422 -0.5666 -0.1083  0.0672
 1421TIP3   OH225821   6.159   0.408   0.334  0.0283  0.4355  0.2882
 1421TIP3    H125822   6.137   0.456   0.254 -0.1621  1.4234  0.9069
 1421TIP3    H225823   6.229   0.460   0.374 -0.4425  0.4183  1.1657
 1422TIP3   OH225824   3.307   6.047   0.985  0.9713 -0.0036 -0.2931
 1422TIP3    H125825   3.284   6.000   1.066  2.2000 -2.0596 -1.0517
 1422TIP3    H225826   3.226   6.048   0.935  0.8342 -1.1102 -0.1268
 1423TIP3   OH225827   1.005   2.841   2.528  0.4902  0.3899  0.3900
 1423TIP3    H125828   0.996   2.764   2.472  0.9554  1.4231 -1.1552
 1423TIP3    H225829   0.915   2.871   2.543  0.4009  0.9430 -1.0595
 1424TIP3   OH225830   4.434   0.621   0.582 -0.2117 -0.2874  0.1956
 1424TIP3    H125831   4.363   0.575   0.626  1.1316 -1.1794  1.5103
 1424TIP3    H225832   4.514   0.582   0.617  0.9472  0.4535 -1.4790
 1425TIP3   OH225833   4.760   4.195   1.990 -0.0740  0.4415 -0.4212
 1425TIP3    H125834   4.679   4.180   2.039  0.4123 -0.4465  0.1329
 1425TIP3    H225835   4.822   4.230   2.054  0.9791 -1.9697  0.0013
 1426TIP3   OH225836   6.691   2.789   2.617  0.4811  0.2731  0.2227
 1426TIP3    H125837   6.607   2.800   2.573  1.3019  1.7945 -1.0776
 1426TIP3    H225838   6.708   2.695   2.614 -0.4924  0.1161 -0.8253
 1427TIP3   OH225839   5.745   2.873   3.585 -0.9090 -0.6542 -0.0752
 1427TIP3    H125840   5.809   2.837   3.646 -1.7661 -1.3475  0.4475
 1427TIP3    H225841   5.784   2.954   3.553  0.0178 -0.8316  0.5818
 1428TIP3   OH225842   0.437   0.280   3.519 -0.3896  0.2367 -0.1083
 1428TIP3    H125843   0.499   0.227   3.468 -0.7608 -0.4589  0.1490
 1428TIP3    H225844   0.461   0.370   3.499  2.1095  0.0671  1.5811
 1429TIP3   OH225845   6.437   0.182   0.037  0.4670  0.0557 -0.0168
 1429TIP3    H125846   6.444   0.272   0.069  0.3185  0.2155 -0.4238
 1429TIP3    H225847   6.345   0.159   0.049  0.7870 -0.5738  1.4618
 1430TIP3   OH225848   2.097   4.527   2.569  0.0510 -0.5455 -0.3326
 1430TIP3    H125849   2.089   4.594   2.501  0.5589  0.2608  0.3730
 1430TIP3    H225850   2.009   4.518   2.604  0.4528  1.9983  1.5970
 1431TIP3   OH225851   0.712   5.936   7.410  0.1104  0.4096 -0.3864
 1431TIP3    H125852   0.788   5.965   7.461  0.1490  1.4699 -1.0127
 1431TIP3    H225853   0.711   5.841   7.421  0.0972  0.5964  1.6029
 1432TIP3   OH225854   3.058   3.005   0.710 -0.2876 -0.1519 -0.3576
 1432TIP3    H125855   3.133   3.027   0.766  0.3018 -2.7435  0.0077
 1432TIP3    H225856   3.000   2.954   0.766 -1.0101 -0.5205 -1.4044
 1433TIP3   OH225857   1.791   1.667   7.344 -0.2015 -0.5084  0.2602
 1433TIP3    H125858   1.788   1.762   7.349  2.9313 -0.3479  0.9231
 1433TIP3    H225859   1.722   1.638   7.405 -0.2739  1.3248  1.1250
 1434TIP3   OH225860   4.295   5.134   2.503  0.1984 -0.0166  0.1573
 1434TIP3    H125861   4.371   5.089   2.539 -0.2075 -0.1890  0.8085
 1434TIP3    H225862   4.269   5.195   2.571 -1.1173 -0.9785  0.5560
 1435TIP3   OH225863   2.187   1.910   1.535 -0.6693  0.1468  0.5540
 1435TIP3    H125864   2.094   1.926   1.551 -0.8095 -0.1317  0.0520
 1435TIP3    H225865   2.220   1.992   1.499 -0.9309 -0.0331 -0.1200
 1436TIP3   OH225866   2.344   3.579   1.163  0.3612  0.0538  0.4178
 1436TIP3    H125867   2.372   3.508   1.221  0.1978  0.2762  0.7762
 1436TIP3    H225868   2.359   3.658   1.215  2.6293  0.4919 -0.7664
 1437TIP3   OH225869   0.562   0.981   2.206 -0.2829 -0.1604 -0.3333
 1437TIP3    H125870   0.537   0.957   2.117 -0.9973  1.3116 -0.5667
 1437TIP3    H225871   0.514   1.062   2.223  0.4635  0.0141  1.1049
 1438TIP3   OH225872   5.303   4.105   2.588  0.1463  0.5829 -0.6550
 1438TIP3    H125873   5.223   4.152   2.565  0.0526  0.5887 -0.3124
 1438TIP3    H225874   5.334   4.147   2.668  0.4565  0.5374 -0.7482
 1439TIP3   OH225875   6.861   2.070   1.560  0.2614  0.4973  0.1484
 1439TIP3    H125876   6.854   2.087   1.466  1.1061 -0.1331 -0.0450
 1439TIP3    H225877   6.949   2.099   1.584 -0.2894  1.5801  0.9684
 1440TIP3   OH225878   3.149   0.179   2.242  0.2651 -0.5026 -0.0473
 1440TIP3    H125879   3.076   0.227   2.280  1.5005 -0.1555  2.0206
 1440TIP3    H225880   3.144   0.092   2.281  2.8340  0.4933  2.9436
 1441TIP3   OH225881   4.775   3.939   3.356  0.7512  0.5934 -0.0902
 1441TIP3    H125882   4.725   3.862   3.383  2.7494 -0.2105  1.5427
 1441TIP3    H225883   4.723   4.013   3.386 -0.6551 -0.1044 -0.6853
 1442TIP3   OH225884   6.760   5.129   1.197  0.1192 -0.0214 -0.1899
 1442TIP3    H125885   6.717   5.203   1.241  0.7391 -0.0564  0.4892
 1442TIP3    H225886   6.768   5.063   1.266 -0.3231 -0.6815 -0.7622
 1443TIP3   OH225887   3.998   4.140   7.947  0.3263  0.1778  0.1557
 1443TIP3    H125888   3.927   4.141   7.883  0.0149  0.0777  0.4958
 1443TIP3    H225889   4.075   4.111   7.898  0.3184  1.0668 -0.4071
 1444TIP3   OH225890   2.998   2.318   2.644 -0.1201 -0.1054 -0.0977
 1444TIP3    H125891   3.060   2.250   2.617  0.6906  0.7762 -0.5071
 1444TIP3    H225892   3.053   2.390   2.674 -0.9717  0.3285  0.4594
 1445TIP3   OH225893   2.913   3.552   2.474  0.0884  0.0000 -0.2596
 1445TIP3    H125894   2.877   3.465   2.491  2.8743 -1.4970 -1.4249
 1445TIP3    H225895   2.912   3.594   2.560 -0.5771 -1.4471  0.4922
 1446TIP3   OH225896   4.469   5.667   2.058 -0.6373 -0.7484  0.1223
 1446TIP3    H125897   4.451   5.735   2.123 -1.6527 -0.4591 -0.4382
 1446TIP3    H225898   4.467   5.585   2.108 -0.5512 -0.4650  0.5999
 1447TIP3   OH225899   1.876   3.981   0.671  0.3122 -0.0446 -0.2902
 1447TIP3    H125900   1.791   3.949   0.700 -0.2212  0.2617 -1.4648
 1447TIP3    H225901   1.914   3.908   0.623  1.0201 -0.4153  0.8052
 1448TIP3   OH225902   1.417   6.258   2.685 -0.9159 -0.1929  0.0905
 1448TIP3    H125903   1.348   6.287   2.745 -0.1391 -0.0999  0.9653
 1448TIP3    H225904   1.460   6.186   2.731  0.5141  0.7206  0.2139
 1449TIP3   OH225905   5.321   2.702   8.293  0.3141  0.3319 -0.3006
 1449TIP3    H125906   5.317   2.610   8.322  2.6662  0.2742 -0.0010
 1449TIP3    H225907   5.312   2.753   8.373  1.0506  0.2991 -0.1900
 1450TIP3   OH225908   3.501   2.900   2.555 -0.0595 -0.4249 -0.6061
 1450TIP3    H125909   3.594   2.911   2.571 -0.0962 -1.1321  0.2092
 1450TIP3    H225910   3.490   2.807   2.535 -0.6454 -0.4537 -0.1917
 1451TIP3   OH225911   6.895   3.875   0.613  0.1158 -0.0910  0.4389
 1451TIP3    H125912   6.876   3.803   0.553 -0.9919 -0.7761  1.5553
 1451TIP3    H225913   6.878   3.954   0.561 -1.3072 -0.6652 -0.0283
 1452TIP3   OH225914   1.822   6.540   0.077  0.1813  0.9368 -0.3279
 1452TIP3    H125915   1.845   6.559   0.168 -1.0786  0.2232  0.1553
 1452TIP3    H225916   1.900   6.566   0.027  1.3152  0.3072  1.0494
 1453TIP3   OH225917   5.466   4.615   3.501 -0.0672  0.0949  0.4711
 1453TIP3    H125918   5.400   4.655   3.443 -0.0364 -0.1749  0.2503
 1453TIP3    H225919   5.417   4.552   3.553 -0.1248  0.4539  0.8553
 1454TIP3   OH225920   3.264   6.876   2.947 -0.1818 -0.2092 -0.4080
 1454TIP3    H125921   3.179   6.912   2.971  0.1253 -0.1133  0.5703
 1454TIP3    H225922   3.249   6.831   2.864 -1.2013 -0.2687 -0.1952
 1455TIP3   OH225923   0.016   4.578   0.086 -0.3103 -0.0724 -0.5799
 1455TIP3    H125924  -0.059   4.636   0.088  0.5117  1.0250 -0.5637
 1455TIP3    H225925   0.040   4.565   0.178 -0.2377 -0.1039 -0.6027
 1456TIP3   OH225926   4.932   3.693   2.721 -0.1442 -0.1313  0.2078
 1456TIP3    H125927   4.868   3.665   2.787 -0.1379  1.3070  0.8698
 1456TIP3    H225928   4.937   3.788   2.732  0.4285  0.0493 -1.3764
 1457TIP3   OH225929   5.308   2.194   2.682 -0.4020  0.3218 -0.0187
 1457TIP3    H125930   5.368   2.173   2.754 -0.3015  0.7200  0.0212
 1457TIP3    H225931   5.306   2.290   2.681 -0.6738  0.3140 -0.3246
 1458TIP3   OH225932   3.681   4.178   3.142  0.4125 -0.3838  0.4046
 1458TIP3    H125933   3.600   4.131   3.163  0.7858 -0.8817  0.7255
 1458TIP3    H225934   3.737   4.113   3.101  0.2857  0.2013 -0.7342
 1459TIP3   OH225935   5.421   3.590   8.120  0.0202  0.3140  0.0120
 1459TIP3    H125936   5.415   3.674   8.167 -0.2533  0.2686  0.0572
 1459TIP3    H225937   5.394   3.611   8.030  0.9160  0.4833 -0.2290
 1460TIP3   OH225938   5.004   1.367   8.242 -0.1546  0.2247 -0.4767
 1460TIP3    H125939   5.025   1.274   8.237 -2.9589 -0.6416  1.3822
 1460TIP3    H225940   5.066   1.402   8.306  1.1069 -0.2221 -1.3970
 1461TIP3   OH225941   5.797   0.744   0.746 -0.5004 -0.0677 -0.0283
 1461TIP3    H125942   5.809   0.823   0.693 -1.6262  0.4398  0.4498
 1461TIP3    H225943   5.862   0.753   0.817  0.8175 -0.6141 -1.1123
 1462TIP3   OH225944   1.689   2.038   1.598 -0.3988 -0.1183  0.2557
 1462TIP3    H125945   1.782   2.021   1.612  0.1002  0.1867 -2.2355
 1462TIP3    H225946   1.679   2.039   1.503 -2.6747  1.3772  0.4342
 1463TIP3   OH225947   4.991   3.276   2.599  0.0996 -0.0930  0.7365
 1463TIP3    H125948   4.964   3.201   2.546  1.4228  0.7382 -1.2515
 1463TIP3    H225949   5.018   3.239   2.683  0.8258 -1.8846 -0.2365
 1464TIP3   OH225950   2.361   2.864   8.347  0.2149  0.7572 -0.0991
 1464TIP3    H125951   2.384   2.923   8.275 -0.2401  1.6071  0.4369
 1464TIP3    H225952   2.407   2.898   8.423  1.4629 -0.6923 -0.1494
 1465TIP3   OH225953   3.058   3.543   2.007 -0.2046 -0.0646  0.4811
 1465TIP3    H125954   3.038   3.453   1.983  0.9235 -0.0340 -0.6873
 1465TIP3    H225955   3.011   3.557   2.089 -1.7334 -1.1791 -0.1570
 1466TIP3   OH225956   2.625   0.219   8.191  0.3655  0.0368 -0.5023
 1466TIP3    H125957   2.558   0.251   8.132  1.0924  1.2759 -0.6805
 1466TIP3    H225958   2.704   0.268   8.168  1.2161 -1.0254  0.0354
 1467TIP3   OH225959   5.883   3.991   1.259  0.7357 -0.3185 -0.1158
 1467TIP3    H125960   5.878   3.896   1.247  1.4082 -0.4847  0.8230
 1467TIP3    H225961   5.794   4.022   1.243  0.1039 -1.3114  1.2626
 1468TIP3   OH225962   1.404   3.209   0.275  0.3470  0.0029  0.1179
 1468TIP3    H125963   1.375   3.205   0.366 -0.8465  0.9760 -0.1937
 1468TIP3    H225964   1.470   3.279   0.274 -1.6349  2.0028 -0.2069
 1469TIP3   OH225965   5.791   0.384   1.789  0.6588  0.9101  0.5331
 1469TIP3    H125966   5.826   0.429   1.712  0.1580  1.1784  0.4594
 1469TIP3    H225967   5.716   0.335   1.756  0.9338  0.3632  0.6995
 1470TIP3   OH225968   6.497   6.203   7.656 -0.2190 -0.2847  0.4082
 1470TIP3    H125969   6.469   6.242   7.574 -1.2319 -0.9067  0.4395
 1470TIP3    H225970   6.424   6.218   7.716  0.2578 -0.3670  1.0158
 1471TIP3   OH225971   1.948   5.925   2.166  0.6613  0.0076  0.5261
 1471TIP3    H125972   1.883   5.867   2.125 -0.0437  1.4529 -0.5198
 1471TIP3    H225973   2.013   5.940   2.097  0.0275  1.6254  0.2285
 1472TIP3   OH225974   5.185   3.479   7.903 -0.3533 -0.9161 -0.6217
 1472TIP3    H125975   5.220   3.568   7.904 -0.9896 -0.6436  1.0973
 1472TIP3    H225976   5.141   3.471   7.818  1.6951 -0.4452 -1.7959
 1473TIP3   OH225977   5.426   4.119   3.140 -0.1639  0.0177  0.4780
 1473TIP3    H125978   5.426   4.199   3.192 -1.9051 -1.0483  2.2503
 1473TIP3    H225979   5.511   4.079   3.158  1.8315  2.4836 -2.3446
 1474TIP3   OH225980   4.615   4.549   2.169  0.4592  0.0508 -0.0531
 1474TIP3    H125981   4.599   4.643   2.155  0.5521  0.2440  1.0499
 1474TIP3    H225982   4.700   4.545   2.212 -0.4202 -0.3659  1.7597
 1475TIP3   OH225983   2.376   3.593   0.651  0.4471 -0.4826  0.2040
 1475TIP3    H125984   2.356   3.685   0.665  1.9853 -0.0102 -0.5677
 1475TIP3    H225985   2.384   3.556   0.739  2.0699  0.6351  0.5533
 1476TIP3   OH225986   2.779   2.566   1.004  0.4568  0.1018 -0.5076
 1476TIP3    H125987   2.793   2.658   1.027  2.0455  0.0452 -1.1425
 1476TIP3    H225988   2.684   2.558   0.992  0.4129  1.9974 -1.8328
 1477TIP3   OH225989   4.488   1.188   1.183  0.7553 -0.2580 -0.1560
 1477TIP3    H125990   4.579   1.190   1.152  0.6048 -1.0707 -0.6522
 1477TIP3    H225991   4.496   1.194   1.279  1.3778 -1.1045 -0.1442
 1478TIP3   OH225992   2.401   5.186   0.766 -0.3583  0.0201  0.3588
 1478TIP3    H125993   2.314   5.177   0.806 -0.5121 -0.7639 -0.1320
 1478TIP3    H225994   2.425   5.278   0.780 -1.7991  0.5706 -0.5893
 1479TIP3   OH225995   3.964   1.335   7.811  0.4152 -0.0833  0.1137
 1479TIP3    H125996   3.939   1.427   7.815 -1.3943 -0.5442  0.4461
 1479TIP3    H225997   3.914   1.300   7.737  0.7242 -0.8852  0.2738
 1480TIP3   OH225998   0.211   6.495   1.535  0.1513 -0.1838 -0.0289
 1480TIP3    H125999   0.228   6.519   1.626  0.8961  2.7833 -0.8393
 1480TIP3    H226000   0.298   6.484   1.496 -0.1483 -0.7988 -0.5439
 1481TIP3   OH226001   5.053   2.622   2.664  0.1326  0.8169  1.1222
 1481TIP3    H126002   4.975   2.617   2.721  0.3537  0.8235  1.4261
 1481TIP3    H226003   5.068   2.715   2.652 -1.5368  0.8652 -1.1885
 1482TIP3   OH226004   4.083   0.740   0.208 -0.5355  0.2541 -0.2742
 1482TIP3    H126005   4.014   0.765   0.147 -0.9611 -1.1702 -0.4184
 1482TIP3    H226006   4.117   0.657   0.173  0.4502  0.3401  0.4373
 1483TIP3   OH226007   1.794   4.393   2.059  0.2057  0.1114 -0.1865
 1483TIP3    H126008   1.780   4.311   2.107  1.7415  0.5560  1.1179
 1483TIP3    H226009   1.823   4.366   1.972  0.8045 -0.7370  0.2688
 1484TIP3   OH226010   4.375   1.167   0.756  0.2588  0.2926 -0.0876
 1484TIP3    H126011   4.286   1.202   0.759  0.7260  1.4751  1.1630
 1484TIP3    H226012   4.363   1.072   0.756 -1.0193  0.3851  1.8377
 1485TIP3   OH226013   6.516   1.295   0.335  0.1573 -0.1100  0.2524
 1485TIP3    H126014   6.476   1.219   0.293  0.0479 -0.1610  0.4462
 1485TIP3    H226015   6.504   1.366   0.273 -0.8116  0.0252  0.5787
 1486TIP3   OH226016   3.737   6.876   7.930 -0.6540  0.1410 -0.0533
 1486TIP3    H126017   3.734   6.800   7.989 -0.8035  0.8430  0.8752
 1486TIP3    H226018   3.674   6.937   7.967  0.1079  1.0837 -0.2635
 1487TIP3   OH226019   0.182   3.811   0.769 -0.4644 -0.6276 -0.3311
 1487TIP3    H126020   0.114   3.789   0.834 -0.0649 -0.8776  0.0055
 1487TIP3    H226021   0.134   3.821   0.687 -1.4088  2.2678  0.4476
 1488TIP3   OH226022   4.396   0.954   7.297  0.1989  0.3630  0.4449
 1488TIP3    H126023   4.445   0.873   7.311  1.0004  0.7706  0.0349
 1488TIP3    H226024   4.415   0.979   7.207  2.0243  2.3365  1.2880
 1489TIP3   OH226025   1.424   0.386   2.908  0.0251  0.3322 -0.2750
 1489TIP3    H126026   1.412   0.372   2.814 -0.7411 -0.7639 -0.0309
 1489TIP3    H226027   1.337   0.408   2.940  0.1681  0.1112  0.2706
 1490TIP3   OH226028   3.317   3.319   3.235  0.3629  0.2165 -0.2459
 1490TIP3    H126029   3.296   3.249   3.297 -0.2338 -0.4957 -1.2289
 1490TIP3    H226030   3.390   3.366   3.277 -1.5227  1.2872  2.1183
 1491TIP3   OH226031   3.866   2.897   2.931  0.2687  0.1438 -0.6986
 1491TIP3    H126032   3.938   2.930   2.984  0.6624  0.6552 -1.5390
 1491TIP3    H226033   3.841   2.971   2.875  0.8257 -0.8121 -2.2521
 1492TIP3   OH226034   6.253   1.599   0.540 -0.4782  0.7845 -0.3293
 1492TIP3    H126035   6.270   1.637   0.453 -0.6157 -0.4030 -0.8982
 1492TIP3    H226036   6.339   1.594   0.581 -0.3031  0.6072 -0.7158
 1493TIP3   OH226037   3.093   4.675   0.040 -0.0223  0.3508 -0.0193
 1493TIP3    H126038   3.064   4.714   0.122  2.2460 -0.0293  1.0491
 1493TIP3    H226039   3.100   4.581   0.060  1.3015  0.3616 -0.3750
 1494TIP3   OH226040   2.402   0.546   8.176 -0.5060 -0.9735  0.3962
 1494TIP3    H126041   2.350   0.510   8.248 -0.8605 -1.6469 -0.1909
 1494TIP3    H226042   2.349   0.618   8.142 -0.8558 -1.3730  0.0874
 1495TIP3   OH226043   1.256   0.778   2.777  0.0814 -0.2070 -0.0499
 1495TIP3    H126044   1.239   0.812   2.865 -0.8293 -1.0692  0.1231
 1495TIP3    H226045   1.185   0.715   2.761  1.7595 -2.1273 -0.3046
 1496TIP3   OH226046   1.349   6.679   2.008 -0.7670  0.0690 -0.3036
 1496TIP3    H126047   1.418   6.662   1.944 -2.3601 -0.0174 -2.0652
 1496TIP3    H226048   1.314   6.592   2.029 -1.5125  0.2438 -0.7934
 1497TIP3   OH226049   0.827   2.157   0.620 -0.1195 -0.5852 -0.0478
 1497TIP3    H126050   0.811   2.126   0.530 -1.1785 -0.5620  0.1250
 1497TIP3    H226051   0.922   2.169   0.624 -0.0947 -0.2426 -1.2792
 1498TIP3   OH226052   3.941   6.481   1.160 -0.2182  0.3968 -0.0259
 1498TIP3    H126053   3.959   6.553   1.220 -1.3288  1.3710 -0.8371
 1498TIP3    H226054   4.024   6.432   1.157  0.4751  1.4719  0.7373
 1499TIP3   OH226055   0.116   0.345   8.266  0.7389 -0.0110 -0.4487
 1499TIP3    H126056   0.051   0.387   8.210 -2.4084  1.1868  3.5850
 1499TIP3    H226057   0.091   0.253   8.266  0.6767  0.0050 -0.9128
 1500TIP3   OH226058   5.619   3.017   3.204 -0.3540  0.0054  0.1470
 1500TIP3    H126059   5.593   2.925   3.202 -1.3209  0.2720 -0.1003
 1500TIP3    H226060   5.578   3.052   3.282 -0.6358  0.4045 -0.1755
 1501TIP3   OH226061   2.054   6.851   0.704 -0.8281 -0.4934  0.3736
 1501TIP3    H126062   2.121   6.865   0.637  0.8990  1.1775  2.2777
 1501TIP3    H226063   1.986   6.915   0.683 -0.5525 -0.3419 -0.0813
 1502TIP3   OH226064   5.624   1.689   1.327  0.0744  0.1757  0.0111
 1502TIP3    H126065   5.635   1.631   1.402 -1.6124 -0.6374 -0.3275
 1502TIP3    H226066   5.713   1.714   1.302  0.7879 -1.5075  0.7593
 1503TIP3   OH226067   3.345   5.066   0.371  0.0218  0.3055  0.5243
 1503TIP3    H126068   3.253   5.043   0.381  0.1069 -0.7502 -0.8833
 1503TIP3    H226069   3.347   5.131   0.301  0.3352  0.3854  0.6029
 1504TIP3   OH226070   1.213   6.863   1.744  0.5367 -0.2453  0.3467
 1504TIP3    H126071   1.178   6.945   1.780  1.3666  1.0939 -1.7005
 1504TIP3    H226072   1.278   6.835   1.809  0.1591  0.6725  1.1461
 1505TIP3   OH226073   2.783   5.546   0.491  0.8129 -0.2932 -1.4266
 1505TIP3    H126074   2.761   5.502   0.409 -0.0478 -0.1729 -1.2679
 1505TIP3    H226075   2.730   5.625   0.491  0.2939 -0.6252 -0.4552
 1506TIP3   OH226076   5.071   3.920   1.578 -0.1810  0.2396  0.3085
 1506TIP3    H126077   5.133   3.991   1.564  2.1055 -1.4067  1.4045
 1506TIP3    H226078   4.987   3.964   1.594  1.2143  2.7113  1.4389
 1507TIP3   OH226079   1.756   4.567   0.442  0.4170  0.4310  0.0790
 1507TIP3    H126080   1.773   4.611   0.526  1.0951  0.5743 -0.1235
 1507TIP3    H226081   1.827   4.503   0.435 -0.0246 -0.0480 -0.0747
 1508TIP3   OH226082   1.224   6.038   0.295  0.5418  0.6345  0.1011
 1508TIP3    H126083   1.134   6.070   0.287  0.6365  0.8979  0.0534
 1508TIP3    H226084   1.239   6.031   0.389 -0.1836 -1.3316  0.1111
 1509TIP3   OH226085   3.789   6.181   1.856 -0.0893 -0.6325  0.8631
 1509TIP3    H126086   3.757   6.118   1.792  0.8722 -1.1889  0.9110
 1509TIP3    H226087   3.802   6.130   1.936 -1.0506  0.0055  1.4505
 1510TIP3   OH226088   3.153   1.687   3.040 -0.2962 -0.5402 -0.6731
 1510TIP3    H126089   3.144   1.775   3.076  1.5403 -0.2995 -0.6746
 1510TIP3    H226090   3.207   1.641   3.104 -0.4567 -1.3636 -1.1259
 1511TIP3   OH226091   2.234   5.529   0.453  0.5244  0.0486 -0.5764
 1511TIP3    H126092   2.151   5.481   0.456 -0.3712  1.4351 -1.9403
 1511TIP3    H226093   2.261   5.535   0.544 -0.6042 -0.8795 -0.1507
 1512TIP3   OH226094   2.320   1.182   0.629 -0.6385 -1.2573 -0.5900
 1512TIP3    H126095   2.250   1.241   0.659 -0.9155 -1.3082 -1.1261
 1512TIP3    H226096   2.381   1.178   0.703  0.3054  1.1111 -1.1465
 1513TIP3   OH226097   4.951   6.103   0.058  0.3619 -0.2595  0.5561
 1513TIP3    H126098   4.929   6.114  -0.034  2.0320  1.0095  0.2626
 1513TIP3    H226099   4.934   6.010   0.075 -1.7724 -0.1314 -0.4742
 1514TIP3   OH226100   2.270   2.588   1.216 -0.2123 -0.1012 -0.5842
 1514TIP3    H126101   2.339   2.609   1.279 -0.3750  0.2539 -0.5231
 1514TIP3    H226102   2.190   2.584   1.268 -0.2448 -0.4822 -0.6611
 1515TIP3   OH226103   4.378   6.531   3.080 -0.4166  0.2076  0.1878
 1515TIP3    H126104   4.371   6.437   3.064 -1.0769  0.2001  0.4766
 1515TIP3    H226105   4.462   6.542   3.124  0.0084 -0.1477 -0.5173
 1516TIP3   OH226106   4.748   2.819   7.448  0.4739  0.4178 -0.2344
 1516TIP3    H126107   4.721   2.729   7.465 -0.3979  0.5233 -0.9550
 1516TIP3    H226108   4.672   2.859   7.404  0.8984  1.4571 -0.0625
 1517TIP3   OH226109   2.391   3.210   2.604 -0.0597  1.0856  0.2161
 1517TIP3    H126110   2.435   3.248   2.528 -2.0470  2.0463 -0.5148
 1517TIP3    H226111   2.337   3.280   2.640 -2.3642 -0.4266 -0.0192
 1518TIP3   OH226112   5.627   5.687   3.312  0.2182 -0.2480 -0.3337
 1518TIP3    H126113   5.664   5.638   3.386 -0.5982  1.3591  1.2299
 1518TIP3    H226114   5.550   5.636   3.287  1.0867 -1.3742 -0.8238
 1519TIP3   OH226115   4.045   3.840   3.209  0.7149 -0.7399 -0.1895
 1519TIP3    H126116   4.132   3.803   3.226  1.7525  1.6156  0.1039
 1519TIP3    H226117   4.043   3.921   3.260 -0.3279  1.0074 -2.7475
 1520TIP3   OH226118   2.116   6.147   8.083 -0.0164  0.4184  0.4327
 1520TIP3    H126119   2.124   6.071   8.025  2.1021  0.6749  0.3212
 1520TIP3    H226120   2.045   6.124   8.143  0.5743 -1.6682  0.4058
 1521TIP3   OH226121   2.799   5.809   2.790  0.1061  0.1655  0.1782
 1521TIP3    H126122   2.746   5.736   2.820  0.3868 -0.6100 -1.1430
 1521TIP3    H226123   2.737   5.881   2.780 -0.6814 -0.6375 -1.0197
 1522TIP3   OH226124   5.951   1.621   8.499  0.0312 -0.7037  0.1179
 1522TIP3    H126125   5.975   1.538   8.541  0.5773 -0.4237  0.3645
 1522TIP3    H226126   6.022   1.637   8.437  1.0666  0.6640  1.5895
 1523TIP3   OH226127   2.233   5.144   2.326  0.5020 -0.0334 -0.5507
 1523TIP3    H126128   2.296   5.100   2.268  0.3851  0.5891 -1.1559
 1523TIP3    H226129   2.237   5.236   2.301 -0.2563  0.0969 -0.2177
 1524TIP3   OH226130   5.509   6.064   1.034 -0.0685 -0.5296 -0.1989
 1524TIP3    H126131   5.492   6.009   0.958  2.1666 -1.8590  0.1813
 1524TIP3    H226132   5.579   6.019   1.081 -1.0650  0.4928  2.4242
 1525TIP3   OH226133   5.544   0.032   2.762 -0.4854 -0.1093 -0.8940
 1525TIP3    H126134   5.533  -0.058   2.731  1.0109 -0.1244 -1.4665
 1525TIP3    H226135   5.547   0.024   2.857  0.7446 -0.8271 -0.9705
 1526TIP3   OH226136   2.396   6.708   1.170 -0.1008  0.5011 -0.4976
 1526TIP3    H126137   2.456   6.709   1.096 -1.3483  0.1687 -1.5562
 1526TIP3    H226138   2.320   6.758   1.140 -1.6287 -1.6153 -0.3565
 1527TIP3   OH226139   1.263   3.420   1.686 -0.0316 -0.0340  0.2362
 1527TIP3    H126140   1.260   3.373   1.769  1.3693  0.9312  0.8797
 1527TIP3    H226141   1.312   3.362   1.628 -1.9452 -1.1939 -0.2882
 1528TIP3   OH226142   1.028   5.124   1.528 -0.1990 -0.5073 -0.5739
 1528TIP3    H126143   0.944   5.121   1.482 -0.5422 -0.6431  0.0415
 1528TIP3    H226144   1.010   5.083   1.613  0.5378 -0.7069 -0.5045
 1529TIP3   OH226145   3.382   5.673   1.029  0.1834  0.0669  0.0906
 1529TIP3    H126146   3.441   5.599   1.038  1.0067  0.7889  0.8377
 1529TIP3    H226147   3.369   5.682   0.935  0.7770 -0.4764 -0.0500
 1530TIP3   OH226148   6.889   2.086   3.290 -0.4291 -0.2253  0.4383
 1530TIP3    H126149   6.885   2.049   3.202 -0.5076  0.3312  0.2095
 1530TIP3    H226150   6.919   2.013   3.344  0.9679 -0.2122 -0.2660
 1531TIP3   OH226151   5.891   5.381   8.142  0.9240  0.2523 -0.1654
 1531TIP3    H126152   5.800   5.361   8.160  0.7868  0.2336 -0.8320
 1531TIP3    H226153   5.936   5.296   8.149  0.8440  0.2158 -0.0995
 1532TIP3   OH226154   6.203   0.552   0.906  0.3289 -0.1787 -0.1925
 1532TIP3    H126155   6.148   0.488   0.861 -0.2013  0.8345 -1.0251
 1532TIP3    H226156   6.155   0.570   0.988 -0.4392  0.4475 -0.7600
 1533TIP3   OH226157   4.227   6.374   2.297 -0.3505  0.2882 -0.2120
 1533TIP3    H126158   4.293   6.428   2.341  0.0052 -0.1364 -0.2183
 1533TIP3    H226159   4.157   6.365   2.361  0.1292 -0.2596  0.2445
 1534TIP3   OH226160   3.858   1.628   8.561  0.3358  0.6025  0.5350
 1534TIP3    H126161   3.918   1.657   8.493 -1.0193  0.7889 -0.6271
 1534TIP3    H226162   3.803   1.704   8.579 -1.1990 -0.2486 -0.2913
 1535TIP3   OH226163   5.656   6.218   7.386  0.8756 -0.0990  0.2502
 1535TIP3    H126164   5.717   6.183   7.451  0.4358 -1.3669  0.0056
 1535TIP3    H226165   5.707   6.281   7.336  1.7620 -0.5558  0.5654
 1536TIP3   OH226166   3.474   0.211   8.288 -0.2214 -0.9150  0.4069
 1536TIP3    H126167   3.419   0.166   8.352  0.9046 -1.0643  1.3033
 1536TIP3    H226168   3.563   0.186   8.312  0.1942 -1.6381 -1.7508
 1537TIP3   OH226169   2.941   6.729   1.200  0.5176  0.5295 -0.1668
 1537TIP3    H126170   2.999   6.672   1.251 -0.2487 -0.9279 -0.8508
 1537TIP3    H226171   2.964   6.711   1.108 -1.5982 -0.8492 -0.5126
 1538TIP3   OH226172   2.805   5.454   7.690  0.0762  0.2769 -0.0130
 1538TIP3    H126173   2.802   5.508   7.611  1.1756  2.0997  1.1101
 1538TIP3    H226174   2.767   5.510   7.758  1.3681 -0.3000  1.2244
 1539TIP3   OH226175   6.538   4.733   0.365 -0.0188 -0.3608  0.3216
 1539TIP3    H126176   6.475   4.755   0.433 -0.1708  0.2047  0.0046
 1539TIP3    H226177   6.488   4.682   0.301 -0.1849  0.1737  0.0204
 1540TIP3   OH226178   6.755   0.149   0.983 -0.3988 -0.1943 -0.4888
 1540TIP3    H126179   6.756   0.138   0.888 -0.6140 -1.5251 -0.3591
 1540TIP3    H226180   6.846   0.140   1.010 -0.4269 -0.5196 -0.5018
 1541TIP3   OH226181   0.111   2.556   1.990  0.5724 -0.7387 -1.0335
 1541TIP3    H126182   0.182   2.505   2.028  0.0038 -1.9021 -1.5115
 1541TIP3    H226183   0.109   2.636   2.043  1.4842 -1.1872 -0.2908
 1542TIP3   OH226184   3.001   6.614   1.592 -0.7805 -0.1393 -0.3231
 1542TIP3    H126185   2.949   6.558   1.534  0.5625  0.3236 -2.0701
 1542TIP3    H226186   3.076   6.560   1.618 -0.5198  0.1836 -0.3869
 1543TIP3   OH226187   3.457   6.402   3.088 -0.0059 -0.5305 -0.1931
 1543TIP3    H126188   3.529   6.461   3.065 -2.0687  2.4031  0.2522
 1543TIP3    H226189   3.459   6.400   3.184  0.4017 -1.7026 -0.2198
 1544TIP3   OH226190   0.165   6.182   1.495 -0.0103  0.5801  0.0046
 1544TIP3    H126191   0.117   6.258   1.462  0.9960  1.7892  1.1686
 1544TIP3    H226192   0.208   6.214   1.575 -1.3057 -1.8078  1.8108
 1545TIP3   OH226193   5.021   4.769   0.147  0.3261 -0.5231  0.6255
 1545TIP3    H126194   5.057   4.834   0.208  1.5630 -0.1413 -0.4891
 1545TIP3    H226195   4.935   4.804   0.124 -0.1268 -0.6140  2.0263
 1546TIP3   OH226196   0.728   2.435   2.358  0.0428 -0.6646  0.2017
 1546TIP3    H126197   0.679   2.358   2.331  1.1424 -0.3828 -3.1073
 1546TIP3    H226198   0.687   2.508   2.311  0.8504  0.2693  0.8976
 1547TIP3   OH226199   0.248   5.398   8.343 -0.0357  0.2441 -0.0542
 1547TIP3    H126200   0.293   5.483   8.345  1.5141 -0.5412 -0.0249
 1547TIP3    H226201   0.295   5.345   8.407 -1.5193 -0.4046  0.5373
 1548TIP3   OH226202   4.838   6.365   1.713  0.4038  0.1822 -0.2943
 1548TIP3    H126203   4.854   6.457   1.735  0.2891  0.8299 -2.5724
 1548TIP3    H226204   4.790   6.369   1.630 -0.3836 -1.9410 -0.0071
 1549TIP3   OH226205   4.257   4.448   2.796  0.0780 -0.3151 -0.1928
 1549TIP3    H126206   4.181   4.439   2.738 -0.0686 -0.7408  0.0613
 1549TIP3    H226207   4.223   4.498   2.871  0.2866  0.3052 -0.5020
 1550TIP3   OH226208   0.933   2.430   2.683  0.3631  0.7270  0.3654
 1550TIP3    H126209   0.860   2.490   2.697 -1.1431 -1.3800  2.1452
 1550TIP3    H226210   0.894   2.355   2.638  0.7733 -1.5347  3.5079
 1551TIP3   OH226211   5.915   1.343   2.237  0.3315 -0.6968 -0.0832
 1551TIP3    H126212   5.863   1.268   2.207  1.3895 -1.2787 -0.4949
 1551TIP3    H226213   5.883   1.360   2.326 -0.0213 -1.5435 -0.0372
 1552TIP3   OH226214   3.836   1.248   1.751 -0.0011 -0.2232  0.0967
 1552TIP3    H126215   3.752   1.203   1.759  0.4676 -1.0243  0.6778
 1552TIP3    H226216   3.874   1.216   1.669  0.2431 -0.7584  0.4107
 1553TIP3   OH226217   2.477   1.257   0.377  0.0177 -0.6534 -0.1269
 1553TIP3    H126218   2.403   1.236   0.434 -0.2313 -0.5620 -0.4122
 1553TIP3    H226219   2.552   1.263   0.436 -0.3768  0.1955  0.3013
 1554TIP3   OH226220   5.428   3.707   1.588  0.9357 -0.0935  0.7447
 1554TIP3    H126221   5.372   3.646   1.636  1.7721 -0.2405  1.5681
 1554TIP3    H226222   5.485   3.651   1.535  0.2002  0.0617 -0.2512
 1555TIP3   OH226223   6.237   3.801   0.884 -0.6983  0.1715  0.0629
 1555TIP3    H126224   6.251   3.773   0.794 -1.8447  1.1352 -0.4375
 1555TIP3    H226225   6.286   3.882   0.893 -0.8975  0.2808  0.1891
 1556TIP3   OH226226   3.407   4.526   0.732 -0.3289  0.1338  0.0089
 1556TIP3    H126227   3.465   4.601   0.716 -0.1638 -0.1911 -1.0319
 1556TIP3    H226228   3.343   4.530   0.661  1.1645 -2.1030 -1.5820
 1557TIP3   OH226229   5.695   3.742   1.333 -0.0658  0.4574 -0.7190
 1557TIP3    H126230   5.676   3.691   1.255  1.6295 -0.0929 -0.8075
 1557TIP3    H226231   5.711   3.677   1.401 -0.2768  0.9190 -0.2195
 1558TIP3   OH226232   6.735   2.426   0.015 -0.6158 -0.2354  0.5336
 1558TIP3    H126233   6.827   2.441   0.036 -0.6311  2.3143 -0.7797
 1558TIP3    H226234   6.736   2.371  -0.063 -0.2525 -0.9950  1.0692
 1559TIP3   OH226235   4.695   4.005   0.830  0.0882  0.0919 -0.0133
 1559TIP3    H126236   4.762   3.942   0.857  0.7845 -0.0418 -1.8774
 1559TIP3    H226237   4.629   4.001   0.899  0.8415 -1.5679  0.6746
 1560TIP3   OH226238   4.457   4.503   8.490  0.4430  0.0239 -0.2377
 1560TIP3    H126239   4.490   4.525   8.577 -1.1500 -0.9798  0.6642
 1560TIP3    H226240   4.528   4.530   8.431  2.0551 -0.3117  1.4263
 1561TIP3   OH226241   0.817   3.441   1.321  0.4063 -0.1926  0.0006
 1561TIP3    H126242   0.741   3.415   1.374 -0.3632 -1.0663 -1.4735
 1561TIP3    H226243   0.887   3.382   1.350 -0.6493 -2.3339 -1.5228
 1562TIP3   OH226244   3.970   6.663   2.327  0.0747 -0.2524  0.2897
 1562TIP3    H126245   4.013   6.716   2.394  1.0278 -0.9072  0.2165
 1562TIP3    H226246   3.951   6.580   2.370 -0.5608 -0.1965  0.1340
 1563TIP3   OH226247   4.889   3.822   0.877 -0.0640 -0.1874 -0.0434
 1563TIP3    H126248   4.955   3.774   0.827 -0.9039  0.6856 -2.0868
 1563TIP3    H226249   4.827   3.754   0.904  3.6712 -1.9476  5.9629
 1564TIP3   OH226250   6.512   1.901   2.423 -0.3732  0.2365 -0.3033
 1564TIP3    H126251   6.581   1.965   2.405  0.6832 -1.3766 -2.5241
 1564TIP3    H226252   6.558   1.826   2.460 -1.5065  0.4206  1.6329
 1565TIP3   OH226253   1.155   1.220   1.795  0.2864  0.1098  0.3608
 1565TIP3    H126254   1.226   1.212   1.732  1.1397 -0.7350  1.3934
 1565TIP3    H226255   1.199   1.224   1.880 -0.8148  1.4769  0.9082
 1566TIP3   OH226256   2.773   5.276   8.275  0.6723 -0.3901 -0.0999
 1566TIP3    H126257   2.821   5.202   8.314  0.1803 -1.4769 -1.4503
 1566TIP3    H226258   2.806   5.280   8.185  1.3937  1.6979  0.1919
 1567TIP3   OH226259   6.855   3.270   1.487 -0.1339  0.2894 -1.1449
 1567TIP3    H126260   6.802   3.317   1.551  0.4257  0.4363 -0.7766
 1567TIP3    H226261   6.814   3.184   1.479  0.1720  0.0256 -0.0745
 1568TIP3   OH226262   3.961   4.214   2.906  0.1081  0.2733  0.3153
 1568TIP3    H126263   4.000   4.245   2.988  1.5990 -0.3627 -0.1335
 1568TIP3    H226264   4.031   4.166   2.862 -1.3401 -1.3859 -0.2747
 1569TIP3   OH226265   6.573   5.631   7.465 -0.3040 -0.1885  0.1297
 1569TIP3    H126266   6.552   5.601   7.376  0.0376  0.8327 -0.3157
 1569TIP3    H226267   6.610   5.554   7.508 -0.7143 -0.7683 -0.5298
 1570TIP3   OH226268   2.296   4.436   0.980  0.2008  0.2008 -0.6750
 1570TIP3    H126269   2.324   4.495   1.050  0.2642 -0.0706 -0.4696
 1570TIP3    H226270   2.256   4.493   0.915 -2.9658  0.1859  1.0595
 1571TIP3   OH226271   5.512   1.594   1.693  0.6802 -0.9131 -0.2368
 1571TIP3    H126272   5.471   1.536   1.758 -0.3450 -1.3944 -1.2696
 1571TIP3    H226273   5.569   1.651   1.744  1.0724 -2.2838  0.9074
 1572TIP3   OH226274   6.374   2.136   1.755 -0.2723  0.3026 -0.0121
 1572TIP3    H126275   6.329   2.193   1.692 -1.9316 -0.7105  0.2062
 1572TIP3    H226276   6.448   2.100   1.705 -0.2378  1.2327 -0.6786
 1573TIP3   OH226277   5.407   4.676   1.475 -0.3261  0.1816  0.5905
 1573TIP3    H126278   5.406   4.672   1.380 -2.2421 -0.8211  0.6079
 1573TIP3    H226279   5.314   4.682   1.500  0.1229  0.2814  2.3951
 1574TIP3   OH226280   2.837   5.747   1.943 -0.0699 -0.8245 -0.0140
 1574TIP3    H126281   2.861   5.742   1.851 -2.4263  1.8459 -0.9280
 1574TIP3    H226282   2.894   5.815   1.980  0.6132 -1.6271  0.4566
 1575TIP3   OH226283   4.636   2.682   0.832 -0.0918 -0.4296  0.3932
 1575TIP3    H126284   4.557   2.727   0.802  0.5351 -0.1803 -0.9634
 1575TIP3    H226285   4.605   2.622   0.900 -1.1917  0.8538  1.0958
 1576TIP3   OH226286   6.437   0.756   2.593 -0.2461  0.8862  0.1129
 1576TIP3    H126287   6.528   0.776   2.571 -0.3085  2.1816  0.9357
 1576TIP3    H226288   6.418   0.676   2.545  0.5155  1.9969 -2.1559
 1577TIP3   OH226289   0.627   6.055   0.496 -0.0371 -0.3192  0.3871
 1577TIP3    H126290   0.618   6.125   0.562  1.6804  0.7443 -0.4423
 1577TIP3    H226291   0.610   5.974   0.545 -0.2974  0.5454  1.7948
 1578TIP3   OH226292   0.826   1.918   0.391 -0.0867  1.0128 -0.7835
 1578TIP3    H126293   0.863   1.878   0.312 -0.3159  0.0084 -0.4076
 1578TIP3    H226294   0.790   2.002   0.362 -0.6658  0.4161 -1.8737
 1579TIP3   OH226295   2.225   2.262   1.940  0.2687 -0.2148  0.1422
 1579TIP3    H126296   2.259   2.349   1.956  0.4082  0.0771 -1.5763
 1579TIP3    H226297   2.298   2.214   1.901  0.0510 -0.9661  0.6294
 1580TIP3   OH226298   3.775   6.299   8.343 -0.4438  0.6468 -0.0297
 1580TIP3    H126299   3.688   6.336   8.330 -1.5119 -1.6605  0.0767
 1580TIP3    H226300   3.759   6.208   8.369  1.9969  0.3113  0.5268
 1581TIP3   OH226301   3.631   5.280   7.825  0.2504  0.1844  0.2529
 1581TIP3    H126302   3.682   5.352   7.789  1.1485  0.1613  1.4228
 1581TIP3    H226303   3.541   5.314   7.830  0.9000  1.8125  2.2105
 1582TIP3   OH226304   3.149   3.451   2.351 -0.0994  0.7230 -0.1470
 1582TIP3    H126305   3.101   3.375   2.318  0.6660 -0.4150  1.2185
 1582TIP3    H226306   3.083   3.504   2.395 -0.3307 -0.2667  0.7559
 1583TIP3   OH226307   0.878   4.370   1.530  0.0883  0.4312 -0.3452
 1583TIP3    H126308   0.914   4.305   1.591 -0.7674  0.1385 -0.1425
 1583TIP3    H226309   0.955   4.415   1.495  0.8219 -1.7057 -1.6633
 1584TIP3   OH226310   3.839   1.493   0.593 -0.0621  0.3839  1.1329
 1584TIP3    H126311   3.902   1.422   0.607  0.1906 -0.6335 -3.6969
 1584TIP3    H226312   3.893   1.570   0.575 -0.3308  0.8701  2.3013
 1585TIP3   OH226313   4.750   2.953   0.343  0.8112 -0.1207 -0.2030
 1585TIP3    H126314   4.704   2.931   0.261  0.9608  0.7438 -0.5250
 1585TIP3    H226315   4.684   2.940   0.411  0.6790 -0.8380 -0.4498
 1586TIP3   OH226316   1.748   3.143   0.060  0.2000  0.0481  0.1432
 1586TIP3    H126317   1.756   3.205   0.133 -0.6390 -0.3170  0.5553
 1586TIP3    H226318   1.779   3.060   0.096 -0.0886 -0.1028  0.0416
 1587TIP3   OH226319   6.189   6.707   8.567 -0.2381 -0.3554  0.1414
 1587TIP3    H126320   6.217   6.797   8.582 -2.0298  0.2326  0.1129
 1587TIP3    H226321   6.129   6.688   8.638  0.6317 -1.7953  0.5371
 1588TIP3   OH226322   0.370   0.386   0.950  0.4474 -0.0491  0.2867
 1588TIP3    H126323   0.305   0.355   1.013 -1.0567  0.6696 -0.8718
 1588TIP3    H226324   0.343   0.475   0.929  0.8360 -0.3120 -1.4655
 1589TIP3   OH226325   4.012   3.558   1.141 -0.0661  0.2523  0.0303
 1589TIP3    H126326   4.095   3.527   1.106  0.3022  1.8416 -0.6106
 1589TIP3    H226327   3.945   3.515   1.087  0.3733 -0.1886 -0.1675
 1590TIP3   OH226328   6.884   0.126   1.275 -0.9873  0.4299  0.0778
 1590TIP3    H126329   6.917   0.036   1.276 -1.9033  0.0647 -0.7577
 1590TIP3    H226330   6.810   0.125   1.336  0.3960  1.2153  1.8623
 1591TIP3   OH226331   3.237   3.552   0.897 -0.0924  0.4148  0.0529
 1591TIP3    H126332   3.309   3.588   0.845 -0.9958 -0.6233 -1.9942
 1591TIP3    H226333   3.197   3.629   0.938 -0.2671  1.4635 -1.9782
 1592TIP3   OH226334   4.294   0.489   7.476 -0.0856  0.0856  0.2839
 1592TIP3    H126335   4.333   0.573   7.450  1.6275 -0.2606  1.5756
 1592TIP3    H226336   4.201   0.508   7.486  0.3766  2.0622  1.3330
 1593TIP3   OH226337   1.172   3.825   2.390 -0.1842  0.1670 -0.0048
 1593TIP3    H126338   1.081   3.851   2.400 -0.5732 -1.2807  0.4977
 1593TIP3    H226339   1.188   3.765   2.463  2.2845  3.1327  2.1718
 1594TIP3   OH226340   0.908   2.255   8.246  0.1187 -0.4032 -0.1055
 1594TIP3    H126341   1.003   2.244   8.236  0.0973  0.0795 -1.0118
 1594TIP3    H226342   0.871   2.174   8.210  0.1695 -0.2546 -0.5028
 1595TIP3   OH226343   2.235   2.973   3.655 -0.1476 -0.0606  0.5004
 1595TIP3    H126344   2.323   2.977   3.694 -0.0305 -0.9089  0.3449
 1595TIP3    H226345   2.203   2.886   3.679 -1.4335  0.6689  1.5723
 1596TIP3   OH226346   1.391   2.240   1.567  0.2698  0.6747 -0.5495
 1596TIP3    H126347   1.430   2.156   1.542  1.5217  0.9909  0.2404
 1596TIP3    H226348   1.465   2.301   1.570 -0.5239  1.6605 -0.4679
 1597TIP3   OH226349   0.021   4.263   2.154  0.9962 -0.2898  0.5426
 1597TIP3    H126350   0.046   4.355   2.156  0.4094 -0.0768 -0.9767
 1597TIP3    H226351  -0.072   4.264   2.179  0.4086 -0.2148 -1.5152
 1598TIP3   OH226352   6.111   4.168   7.554 -0.3089 -0.1289  0.2238
 1598TIP3    H126353   6.189   4.184   7.607  0.5634 -0.7778 -0.8242
 1598TIP3    H226354   6.093   4.075   7.567  0.1219 -0.3744 -0.8795
 1599TIP3   OH226355   5.741   0.158   2.380  0.2681 -0.7867 -0.1668
 1599TIP3    H126356   5.687   0.203   2.445  1.5457  1.0908 -0.3320
 1599TIP3    H226357   5.718   0.066   2.390 -0.7828 -0.3685  1.7856
 1600TIP3   OH226358   4.404   2.663   1.128 -0.4696 -0.3198 -0.4296
 1600TIP3    H126359   4.490   2.624   1.109 -0.2946  0.6336 -1.8044
 1600TIP3    H226360   4.365   2.605   1.193  0.6544 -1.5452 -0.7956
 1601TIP3   OH226361   0.253   6.686   2.761  0.3051 -0.1821  0.4909
 1601TIP3    H126362   0.180   6.748   2.767  0.8397  0.4576  0.5872
 1601TIP3    H226363   0.290   6.685   2.850  0.3788 -0.5361  0.4559
 1602TIP3   OH226364   6.304   1.828   1.952  0.4520 -0.2499  1.2006
 1602TIP3    H126365   6.262   1.742   1.946  1.1572 -0.5046 -0.8445
 1602TIP3    H226366   6.394   1.813   1.923  0.1169  1.4438 -0.9664
 1603TIP3   OH226367   6.175   5.414   7.761 -0.3974  0.1129  0.1261
 1603TIP3    H126368   6.263   5.416   7.725  0.0961  1.9116  1.2881
 1603TIP3    H226369   6.131   5.344   7.714  0.7578  1.0806 -2.6133
 1604TIP3   OH226370   4.029   2.418   3.151 -0.3329 -0.6034 -0.0828
 1604TIP3    H126371   4.075   2.481   3.207 -0.6452  0.1003 -0.6111
 1604TIP3    H226372   4.076   2.335   3.165  2.4773  0.4907 -2.2066
 1605TIP3   OH226373   4.482   0.295   1.868  0.1150 -0.0564  0.0350
 1605TIP3    H126374   4.486   0.221   1.929  1.1105  0.5099  0.6756
 1605TIP3    H226375   4.393   0.292   1.834  0.0473 -1.3778  0.2702
 1606TIP3   OH226376   5.300   1.139   2.299 -0.4389  0.2288  0.2910
 1606TIP3    H126377   5.224   1.196   2.316  0.8411  1.6145  1.7721
 1606TIP3    H226378   5.285   1.062   2.354 -1.0030  0.2636  0.1903
 1607TIP3   OH226379   3.631   5.353   1.379 -0.6924  0.1541  0.5312
 1607TIP3    H126380   3.601   5.292   1.447  0.2851  0.2389  1.0533
 1607TIP3    H226381   3.656   5.432   1.427  1.0634 -0.1695  0.2356
 1608TIP3   OH226382   0.106   3.351   0.938  0.2756  0.3685 -0.3171
 1608TIP3    H126383   0.154   3.387   0.863  0.4061 -0.5928 -0.7110
 1608TIP3    H226384   0.174   3.313   0.994  0.0965  0.3239 -0.1257
 1609TIP3   OH226385   2.078   3.420   8.035 -0.4779 -0.4305 -0.4763
 1609TIP3    H126386   1.989   3.430   8.069 -0.6820  2.5238 -1.5460
 1609TIP3    H226387   2.126   3.496   8.070  1.1032 -0.9281 -1.4296
 1610TIP3   OH226388   6.111   6.073   0.193  0.4641  0.8711 -0.0162
 1610TIP3    H126389   6.165   5.996   0.209 -0.2998  0.1722 -0.6738
 1610TIP3    H226390   6.151   6.117   0.118  0.7263  0.9412  0.1663
 1611TIP3   OH226391   2.588   4.666   0.946 -0.3962  0.5441 -0.0748
 1611TIP3    H126392   2.589   4.649   1.041  0.6163  0.1010 -0.1519
 1611TIP3    H226393   2.525   4.737   0.936  0.3706  1.4308  1.0859
 1612TIP3   OH226394   2.199   2.893   1.667 -0.5498  0.2497  0.1560
 1612TIP3    H126395   2.197   2.820   1.729 -1.1295  0.6986  0.6804
 1612TIP3    H226396   2.230   2.967   1.719  1.1323  0.1568 -0.6313
 1613TIP3   OH226397   4.241   0.634   2.619  0.8391  0.2567  0.2662
 1613TIP3    H126398   4.257   0.545   2.587  1.5330  0.3969  0.2111
 1613TIP3    H226399   4.239   0.688   2.540  0.7754  0.3465  0.3287
 1614TIP3   OH226400   4.591   0.988   0.104 -0.2725  0.4566  0.6360
 1614TIP3    H126401   4.524   0.919   0.107  1.5571 -1.5498 -1.0864
 1614TIP3    H226402   4.662   0.955   0.158  0.8816  0.6324 -0.7028
 1615TIP3   OH226403   0.178   2.684   1.725  0.2794  0.0554 -0.0411
 1615TIP3    H126404   0.178   2.668   1.820  0.2581  1.6881  0.2612
 1615TIP3    H226405   0.253   2.633   1.693  0.2053 -0.6302  0.8144
 1616TIP3   OH226406   1.743   4.068   1.063  0.4634 -0.2120 -0.8549
 1616TIP3    H126407   1.744   4.101   0.973  0.2348  1.8381 -0.1595
 1616TIP3    H226408   1.723   4.144   1.117 -0.8317 -1.6649  0.8482
 1617TIP3   OH226409   6.630   6.806   1.001  0.1978  0.2436 -0.3129
 1617TIP3    H126410   6.676   6.877   1.046  0.5026 -1.3702  2.0952
 1617TIP3    H226411   6.683   6.728   1.019 -1.1378 -0.9247 -1.2627
 1618TIP3   OH226412   2.771   0.315   2.613  0.1971 -0.1910  0.4619
 1618TIP3    H126413   2.705   0.248   2.598  0.8212 -0.7295  0.0933
 1618TIP3    H226414   2.787   0.313   2.707 -0.3993  0.0357  0.5737
 1619TIP3   OH226415   5.430   6.692   2.663 -0.5916  0.1262 -0.1757
 1619TIP3    H126416   5.489   6.617   2.668  0.3467  0.4674 -3.6691
 1619TIP3    H226417   5.349   6.657   2.625 -1.3237  0.3719  1.0920
 1620TIP3   OH226418   2.115   4.386   1.240 -1.3862 -0.1408 -0.6216
 1620TIP3    H126419   2.208   4.378   1.260 -1.4683  1.8348  0.7788
 1620TIP3    H226420   2.092   4.303   1.197  0.7172 -1.1568  0.1138
 1621TIP3   OH226421   2.411   0.516   1.179 -0.1518 -0.1457 -0.0522
 1621TIP3    H126422   2.433   0.425   1.165  2.3281  0.5119 -0.8874
 1621TIP3    H226423   2.474   0.547   1.244 -1.8934  0.6462  1.3454
 1622TIP3   OH226424   1.318   0.739   1.758  0.0388 -0.3758  0.7352
 1622TIP3    H126425   1.315   0.794   1.679  1.3026 -1.1847  0.0894
 1622TIP3    H226426   1.227   0.717   1.775 -0.3481  0.6364  0.0814
 1623TIP3   OH226427   3.078   3.280   0.559  0.2153 -0.8080 -0.8401
 1623TIP3    H126428   3.101   3.211   0.622  1.4872 -1.2047 -1.6885
 1623TIP3    H226429   3.078   3.360   0.611 -0.8263 -1.3689  0.0700
 1624TIP3   OH226430   6.407   4.385   1.635  0.3827  0.1603  0.3997
 1624TIP3    H126431   6.313   4.390   1.651  0.5581 -0.6119  1.8118
 1624TIP3    H226432   6.447   4.389   1.722  1.5757 -1.1024 -0.0540
 1625TIP3   OH226433   1.985   1.537   2.699  0.2991  0.2687 -0.5157
 1625TIP3    H126434   2.038   1.492   2.765 -0.6638  0.2883  0.2841
 1625TIP3    H226435   2.021   1.625   2.696 -0.0888  0.4760  0.5038
 1626TIP3   OH226436   3.571   3.258   1.858 -0.0440  0.0217 -0.3319
 1626TIP3    H126437   3.567   3.330   1.795 -1.9307  0.7778  0.5862
 1626TIP3    H226438   3.618   3.295   1.933 -1.7470  0.6316  0.4814
 1627TIP3   OH226439   4.760   2.541   1.543 -0.1941 -0.2318 -0.0529
 1627TIP3    H126440   4.820   2.495   1.603  0.9164  0.0894 -0.8852
 1627TIP3    H226441   4.704   2.472   1.508  2.1814 -1.2769 -2.1608
 1628TIP3   OH226442   4.695   5.447   7.953  0.5555 -0.2166  0.1519
 1628TIP3    H126443   4.612   5.482   7.986  0.7052  0.2342  0.0462
 1628TIP3    H226444   4.684   5.446   7.858  0.5777 -0.4040  0.1493
 1629TIP3   OH226445   2.264   1.202   2.272  0.3498 -0.5422 -0.0325
 1629TIP3    H126446   2.169   1.210   2.262 -0.1799 -0.7449  3.6289
 1629TIP3    H226447   2.295   1.292   2.280  0.2746 -0.5223  0.0407
 1630TIP3   OH226448   0.210   4.155   2.566  0.2740  0.1726 -0.0133
 1630TIP3    H126449   0.227   4.068   2.532 -0.1400  0.1381 -0.1335
 1630TIP3    H226450   0.130   4.146   2.617  0.4178  0.4099  0.2606
 1631TIP3   OH226451   1.741   2.544   2.672  0.2955 -0.2639  0.0956
 1631TIP3    H126452   1.835   2.550   2.691  0.5095 -0.1491 -0.9168
 1631TIP3    H226453   1.701   2.523   2.756  1.1821  0.1139  0.6349
 1632TIP3   OH226454   0.309   5.073   1.539 -0.3399 -0.0990  0.0436
 1632TIP3    H126455   0.290   5.162   1.570 -0.3741 -0.2162  0.3592
 1632TIP3    H226456   0.224   5.040   1.509 -0.1346  0.3813 -1.1404
 1633TIP3   OH226457   4.208   3.408   0.488 -0.0490  0.0736  0.0642
 1633TIP3    H126458   4.304   3.407   0.490  0.0133  0.8434 -1.5250
 1633TIP3    H226459   4.184   3.323   0.453  0.0708  0.0490  0.0412
 1634TIP3   OH226460   0.695   2.592   2.575 -0.0484 -0.0931 -0.4243
 1634TIP3    H126461   0.723   2.533   2.504  1.1730 -1.3193  0.9920
 1634TIP3    H226462   0.701   2.679   2.538  0.0810 -0.7386 -1.9875
 1635TIP3   OH226463   5.116   5.069   3.229 -0.0551 -0.1321  0.2093
 1635TIP3    H126464   5.172   5.133   3.273 -0.9503  1.4562 -0.8824
 1635TIP3    H226465   5.163   5.048   3.148 -1.4375  2.0205 -1.2357
 1636TIP3   OH226466   2.100   0.995   2.056 -0.0240  0.1755  0.3310
 1636TIP3    H126467   2.142   1.022   1.974  1.5932 -1.1422  0.6728
 1636TIP3    H226468   2.031   0.934   2.028 -0.2779  0.6659 -0.1211
 1637TIP3   OH226469   1.550   0.059   2.545 -0.0895  0.7195 -0.6200
 1637TIP3    H126470   1.532  -0.027   2.506 -0.4891  0.9412 -0.9240
 1637TIP3    H226471   1.603   0.039   2.622  1.4154  0.3208 -1.6867
 1638TIP3   OH226472   1.676   3.715   2.360 -0.2618  0.0959  0.4904
 1638TIP3    H126473   1.734   3.773   2.409 -0.1744 -0.3457  0.9192
 1638TIP3    H226474   1.735   3.652   2.319 -0.2533  1.0106 -0.9555
 1639TIP3   OH226475   2.031   4.138   1.149  0.5156 -0.3443  0.4573
 1639TIP3    H126476   1.959   4.130   1.211 -0.0353  0.0797 -0.1108
 1639TIP3    H226477   2.026   4.059   1.095  0.1873 -0.1068  0.1312
 1640TIP3   OH226478   2.542   5.424   0.722 -0.4004  0.1542 -0.0192
 1640TIP3    H126479   2.467   5.482   0.708 -0.5388  0.7583  2.6975
 1640TIP3    H226480   2.602   5.475   0.778  0.7947 -1.3031  0.0941
 1641TIP3   OH226481   4.254   2.551   1.341  0.3531 -0.1896  0.5589
 1641TIP3    H126482   4.165   2.584   1.355  0.1632 -0.1257 -0.6338
 1641TIP3    H226483   4.242   2.458   1.321  0.4879 -0.0666 -0.1317
 1642TIP3   OH226484   0.529   5.190   2.669  0.4538 -0.5267 -0.6395
 1642TIP3    H126485   0.623   5.209   2.666  0.0799  1.5202 -1.5444
 1642TIP3    H226486   0.490   5.259   2.615 -1.6398 -0.8843  0.3456
 1643TIP3   OH226487   2.988   2.518   8.408 -0.0721  0.7901 -0.2369
 1643TIP3    H126488   2.992   2.575   8.331  0.6108 -0.3844 -1.1124
 1643TIP3    H226489   3.056   2.452   8.392 -1.6951 -1.0532  0.0860
 1644TIP3   OH226490   6.452   5.926   0.584 -0.0753  0.2553  0.0535
 1644TIP3    H126491   6.437   5.865   0.512 -0.5351  1.0108 -0.5084
 1644TIP3    H226492   6.440   5.874   0.663  1.9758 -0.9672 -0.3858
 1645TIP3   OH226493   6.092   4.705   1.572 -0.2278 -0.0479  0.4161
 1645TIP3    H126494   6.160   4.770   1.556  1.3172 -1.7716 -0.3681
 1645TIP3    H226495   6.042   4.741   1.646  1.3184  1.4181  0.8272
 1646TIP3   OH226496   3.858   6.274   2.670 -0.1507 -0.2497  0.0697
 1646TIP3    H126497   3.770   6.237   2.662 -0.0699 -0.5027  0.3472
 1646TIP3    H226498   3.890   6.243   2.755  0.6386 -1.0615 -0.5069
 1647TIP3   OH226499   1.411   5.406   2.669 -0.0414  0.2167 -0.2566
 1647TIP3    H126500   1.378   5.483   2.715 -0.1613  0.3720 -0.5984
 1647TIP3    H226501   1.493   5.435   2.630 -0.5682  0.4856 -1.2278
 1648TIP3   OH226502   4.255   3.552   1.058  0.0713 -0.3346  0.8696
 1648TIP3    H126503   4.239   3.530   0.966  1.0883  2.0166  0.0713
 1648TIP3    H226504   4.328   3.496   1.083  1.6806  0.9649 -0.6751
 1649TIP3   OH226505   4.179   2.934   2.742 -0.6633  0.1893 -0.2880
 1649TIP3    H126506   4.113   2.888   2.690 -0.7306 -0.0864  0.0370
 1649TIP3    H226507   4.189   2.880   2.821  1.0315 -0.5821 -0.9813
 1650TIP3   OH226508   4.246   4.266   0.055  0.1686  0.4052  0.1483
 1650TIP3    H126509   4.331   4.245   0.093  0.9472  2.0122 -0.6213
 1650TIP3    H226510   4.261   4.263  -0.040 -0.1838  2.2517 -0.0070
 1651TIP3   OH226511   2.787   0.869   0.234  0.3327 -0.2213 -0.0787
 1651TIP3    H126512   2.811   0.845   0.144 -0.7607  1.2788 -0.8096
 1651TIP3    H226513   2.736   0.794   0.265  1.2746 -1.0484 -0.4284
 1652TIP3   OH226514   0.696   6.069   8.197 -0.4718  0.3962  0.2586
 1652TIP3    H126515   0.605   6.094   8.209 -0.1588  0.8076  2.1587
 1652TIP3    H226516   0.746   6.140   8.238  0.7732  0.8546 -1.9232
 1653TIP3   OH226517   6.458   0.410   0.266  0.2889 -0.1037  0.3081
 1653TIP3    H126518   6.460   0.319   0.297 -0.7022 -0.1758  0.1990
 1653TIP3    H226519   6.526   0.454   0.316  1.8943 -1.2493 -0.7546
 1654TIP3   OH226520   5.797   2.184   1.888  0.1652 -0.5385  0.2960
 1654TIP3    H126521   5.773   2.147   1.803  2.3346  0.2280 -0.7085
 1654TIP3    H226522   5.822   2.109   1.941 -0.1950 -0.9255 -0.0717
 1655TIP3   OH226523   3.388   1.551   0.348 -0.8025 -0.7443 -0.1250
 1655TIP3    H126524   3.369   1.543   0.441 -2.3119 -0.2430 -0.3602
 1655TIP3    H226525   3.484   1.551   0.343 -0.6433  0.7872  1.5836
 1656TIP3   OH226526   2.984   0.065   2.981 -0.1103  0.0639  0.1618
 1656TIP3    H126527   2.986   0.021   3.065 -0.8102 -1.0273 -0.3688
 1656TIP3    H226528   2.951   0.153   3.000 -0.6999 -0.3203  0.9521
 1657TIP3   OH226529   3.859   2.029   8.532  0.1595 -0.1234 -0.1096
 1657TIP3    H126530   3.808   2.091   8.480 -0.9274 -1.3329 -0.5317
 1657TIP3    H226531   3.917   2.085   8.585 -2.6639  1.4577  1.5933
 1658TIP3   OH226532   5.195   1.302   6.993  0.0406 -0.3159  0.3926
 1658TIP3    H126533   5.251   1.374   6.963 -1.4068  0.6779 -0.0261
 1658TIP3    H226534   5.120   1.345   7.034 -0.3234 -1.6162  1.1425
 1659TIP3   OH226535   5.483   2.817   2.593  0.0764 -0.0771 -0.3815
 1659TIP3    H126536   5.408   2.804   2.652 -0.2312 -1.0657 -0.9595
 1659TIP3    H226537   5.559   2.814   2.650 -0.1917 -1.4392 -0.0638
 1660TIP3   OH226538   5.318   1.252   8.187  0.4585  0.5882  0.5930
 1660TIP3    H126539   5.242   1.205   8.154  1.7124 -0.6263 -0.7207
 1660TIP3    H226540   5.307   1.252   8.282 -0.3516 -1.0527  0.5378
 1661TIP3   OH226541   1.591   5.180   0.136 -0.2121  0.1470  0.3839
 1661TIP3    H126542   1.518   5.160   0.196 -0.7604  0.0740 -0.2910
 1661TIP3    H226543   1.563   5.261   0.092 -1.3700 -1.5144 -2.1520
 1662TIP3   OH226544   5.087   0.830   7.824  0.3140  0.1886 -0.4079
 1662TIP3    H126545   5.040   0.872   7.752 -0.6258  0.6099  0.4338
 1662TIP3    H226546   5.063   0.737   7.818 -1.0950  0.4756  0.3285
 1663TIP3   OH226547   5.726   4.065   8.087  0.3268 -0.0621 -0.1839
 1663TIP3    H126548   5.760   4.136   8.032  1.6956 -0.9828 -0.5726
 1663TIP3    H226549   5.753   4.090   8.176 -1.8845  1.4238  0.1619
 1664TIP3   OH226550   6.248   6.459   8.260  0.4824 -0.1500 -0.1828
 1664TIP3    H126551   6.300   6.468   8.340  0.2262 -0.9087  0.0782
 1664TIP3    H226552   6.293   6.391   8.210 -0.2450 -0.8125  0.0442
 1665TIP3   OH226553   3.618   3.758   1.488 -0.2559  0.1881  0.5272
 1665TIP3    H126554   3.631   3.707   1.567 -0.6643 -1.6504 -0.5442
 1665TIP3    H226555   3.670   3.714   1.421 -0.8817  0.9749 -0.5193
 1666TIP3   OH226556   1.761   2.056   0.170 -0.0606  0.3948 -0.4257
 1666TIP3    H126557   1.667   2.051   0.156  0.1449 -0.6941 -1.4750
 1666TIP3    H226558   1.775   2.018   0.257 -0.7056  1.7582  0.3006
 1667TIP3   OH226559   1.765   4.348   7.092  0.0488 -0.3034  0.0644
 1667TIP3    H126560   1.794   4.261   7.120  0.5324 -0.7275 -1.6289
 1667TIP3    H226561   1.832   4.376   7.031 -0.6016  0.8637 -0.1286
 1668TIP3   OH226562   4.894   6.705   0.452  0.3282 -0.0960  0.1792
 1668TIP3    H126563   4.986   6.723   0.432  0.1910  0.0618 -0.3509
 1668TIP3    H226564   4.868   6.774   0.512  0.6111 -0.2549  0.4836
 1669TIP3   OH226565   6.504   1.420   8.226  0.5145  0.3810  0.1948
 1669TIP3    H126566   6.433   1.451   8.170 -0.1894 -0.6850  0.4690
 1669TIP3    H226567   6.529   1.336   8.189 -0.7766 -0.9390  2.1159
 1670TIP3   OH226568   5.650   6.537   7.107  0.4029  0.1908  0.2378
 1670TIP3    H126569   5.640   6.485   7.027  1.2113  0.7445 -0.2520
 1670TIP3    H226570   5.567   6.583   7.117  0.3422  0.2313 -0.3886
 1671TIP3   OH226571   2.907   5.577   3.159  0.2425 -0.2213 -0.0701
 1671TIP3    H126572   2.894   5.505   3.096 -1.5843 -0.6675  0.7305
 1671TIP3    H226573   2.999   5.599   3.152  0.5906 -1.8447 -1.2191
 1672TIP3   OH226574   0.841   1.324   1.596 -0.1495  0.0008 -0.0379
 1672TIP3    H126575   0.902   1.366   1.535 -0.2136 -0.1218 -0.1855
 1672TIP3    H226576   0.821   1.393   1.660  0.5719 -0.1178  0.3307
 1673TIP3   OH226577   4.462   2.341   1.775  0.5206  0.6017  0.5215
 1673TIP3    H126578   4.479   2.249   1.757  0.0462  0.3697  1.2213
 1673TIP3    H226579   4.382   2.341   1.828 -0.4742  1.5313 -0.8977
 1674TIP3   OH226580   4.560   6.612   1.694 -0.1570 -0.3386  0.7834
 1674TIP3    H126581   4.652   6.615   1.719 -0.6111  2.5852  2.6541
 1674TIP3    H226582   4.526   6.533   1.735  1.4578 -1.4301  0.1065
 1675TIP3   OH226583   3.512   0.031   1.048 -0.3637  0.2423  0.1470
 1675TIP3    H126584   3.428   0.075   1.035 -0.1282  0.6502 -0.0271
 1675TIP3    H226585   3.494  -0.037   1.113 -0.8155  0.3646  0.1517
 1676TIP3   OH226586   4.540   5.676   0.743 -0.0038 -0.4990 -0.3164
 1676TIP3    H126587   4.561   5.766   0.770 -1.0567 -0.1826 -0.5096
 1676TIP3    H226588   4.611   5.623   0.780  0.3360  0.3410  0.2725
 1677TIP3   OH226589   5.238   1.184   1.423 -0.0950 -0.2644  0.6792
 1677TIP3    H126590   5.289   1.111   1.389 -1.3716 -0.8079 -0.1357
 1677TIP3    H226591   5.150   1.149   1.434 -0.3942  0.7412  1.7413
 1678TIP3   OH226592   5.326   4.849   8.142  0.1963 -0.0739  0.0434
 1678TIP3    H126593   5.327   4.753   8.142  0.1406 -0.0957  1.7008
 1678TIP3    H226594   5.317   4.872   8.049  0.9562 -1.6491 -0.4695
 1679TIP3   OH226595   0.159   1.412   2.675 -0.6705 -0.2337  0.1844
 1679TIP3    H126596   0.134   1.319   2.674  0.1839 -0.4857  1.0365
 1679TIP3    H226597   0.083   1.457   2.638 -1.2844 -1.2314  0.1821
 1680TIP3   OH226598   6.029   2.595   1.327  0.4690 -0.8059 -0.5511
 1680TIP3    H126599   6.101   2.602   1.390  1.0708 -0.6835 -1.2477
 1680TIP3    H226600   6.071   2.599   1.241 -0.1829 -2.6181 -0.9884
 1681TIP3   OH226601   5.500   6.338   1.770 -0.3822  0.3224 -0.4275
 1681TIP3    H126602   5.583   6.379   1.743  0.6140 -1.7724 -0.7628
 1681TIP3    H226603   5.459   6.311   1.688 -0.1283 -0.9233 -0.1692
 1682TIP3   OH226604   3.766   1.973   1.461  1.1190 -0.2833 -0.2270
 1682TIP3    H126605   3.730   1.963   1.373  1.1000  2.4082 -0.6174
 1682TIP3    H226606   3.695   1.948   1.519  1.2188 -2.3663 -0.9193
 1683TIP3   OH226607   4.709   1.373   8.540 -0.1089 -1.1014  0.4885
 1683TIP3    H126608   4.739   1.464   8.530  0.6578 -1.4298 -0.3107
 1683TIP3    H226609   4.779   1.332   8.591 -0.6742 -1.1416  1.2423
 1684TIP3   OH226610   4.337   0.136   1.098  0.8221 -0.4157 -0.3237
 1684TIP3    H126611   4.374   0.182   1.022  0.8752 -1.3337 -0.8700
 1684TIP3    H226612   4.284   0.066   1.060  1.1140 -1.0920  0.4865
 1685TIP3   OH226613   3.285   2.039   0.968 -0.1519 -0.2850  0.0232
 1685TIP3    H126614   3.240   2.122   0.952  0.8571  0.2156 -0.2928
 1685TIP3    H226615   3.262   1.985   0.892  0.0929  0.1138 -0.3459
 1686TIP3   OH226616   5.527   3.320   0.068  0.8351 -0.4521  1.2328
 1686TIP3    H126617   5.615   3.317   0.032  1.7464 -3.8353  3.2348
 1686TIP3    H226618   5.525   3.398   0.123  2.0430  0.4498  0.0478
 1687TIP3   OH226619   4.553   5.995   1.518 -0.1498  0.7205 -0.6519
 1687TIP3    H126620   4.644   5.970   1.500 -0.3442  0.9686 -2.0908
 1687TIP3    H226621   4.515   6.012   1.432 -1.3103  1.5300 -0.0079
 1688TIP3   OH226622   6.107   5.963   2.415  0.6313 -0.0435  0.2270
 1688TIP3    H126623   6.162   5.973   2.338 -0.7315  0.5219 -0.7029
 1688TIP3    H226624   6.166   5.978   2.489  1.4740  1.8504 -0.7694
 1689TIP3   OH226625   2.937   6.243   2.721 -0.1504 -0.2105 -0.0265
 1689TIP3    H126626   2.983   6.241   2.804 -0.9700  0.8877  0.4691
 1689TIP3    H226627   2.891   6.326   2.720 -0.9023 -0.6087 -1.1717
 1690TIP3   OH226628   4.942   6.501   7.618 -0.3974  0.2662 -0.4340
 1690TIP3    H126629   4.942   6.405   7.617 -0.4575  0.2697 -1.0971
 1690TIP3    H226630   4.949   6.526   7.526 -1.2242  0.8937 -0.3364
 1691TIP3   OH226631   4.387   3.613   3.297  0.4256  0.5043  0.2279
 1691TIP3    H126632   4.366   3.649   3.384  1.4974  1.1454  0.2453
 1691TIP3    H226633   4.350   3.677   3.236 -0.9511 -0.3045  0.1736
 1692TIP3   OH226634   3.834   0.181   1.498 -0.5190 -0.4291  0.0740
 1692TIP3    H126635   3.911   0.178   1.442  0.3488 -0.7308  1.2433
 1692TIP3    H226636   3.795   0.267   1.483 -1.4075 -1.1713 -2.3765
 1693TIP3   OH226637   0.070   5.968   1.904  0.4642  0.4385  0.4804
 1693TIP3    H126638   0.103   5.893   1.953  1.8828  0.7545  0.0724
 1693TIP3    H226639   0.111   5.960   1.817 -0.7686  0.7279 -0.1519
 1694TIP3   OH226640   5.892   3.456   0.183  0.4031 -0.0468  0.4471
 1694TIP3    H126641   5.848   3.394   0.242  3.4069 -2.0515  0.8425
 1694TIP3    H226642   5.918   3.402   0.108 -0.3236  1.7004 -1.1214
 1695TIP3   OH226643   1.614   5.560   0.601 -0.0919  0.7001  0.0409
 1695TIP3    H126644   1.633   5.654   0.602 -0.6245  0.8735 -1.8776
 1695TIP3    H226645   1.520   5.555   0.621  0.1073  0.5000  0.9544
 1696TIP3   OH226646   4.129   0.082   3.064 -0.4274  0.0791 -0.2559
 1696TIP3    H126647   4.212   0.035   3.073 -0.4706 -0.1856 -1.1365
 1696TIP3    H226648   4.155   0.173   3.049 -0.2689 -0.0742 -0.9724
 1697TIP3   OH226649   0.211   0.697   2.642 -0.3938  0.1246 -0.5105
 1697TIP3    H126650   0.178   0.607   2.633 -0.9078  0.2145  0.3481
 1697TIP3    H226651   0.280   0.704   2.576  0.3840 -1.2434  0.1006
 1698TIP3   OH226652   4.522   4.810   2.545 -0.2596 -0.3144  0.0518
 1698TIP3    H126653   4.574   4.732   2.561  0.0309 -0.3701 -1.0659
 1698TIP3    H226654   4.461   4.815   2.619 -0.0244 -1.3729  0.3238
 1699TIP3   OH226655   0.559   4.334   8.441 -0.2246 -0.1087 -0.1832
 1699TIP3    H126656   0.635   4.286   8.408 -0.5054 -0.1399 -0.7892
 1699TIP3    H226657   0.499   4.338   8.367 -1.5148 -1.4858  0.7180
 1700TIP3   OH226658   5.627   4.050   2.746 -0.0299  0.1160 -0.1279
 1700TIP3    H126659   5.538   4.071   2.772  0.2072  0.8790  0.0716
 1700TIP3    H226660   5.659   4.128   2.701  1.1750  0.5600  1.4254
 1701TIP3   OH226661   3.086   4.120   0.979  0.0039 -0.2095  0.1047
 1701TIP3    H126662   3.058   4.035   0.944  0.0649 -1.5401  3.0308
 1701TIP3    H226663   3.024   4.139   1.050 -0.2462  2.4485 -0.7163
 1702TIP3   OH226664   4.213   6.814   1.811  0.2042 -0.5229  0.2493
 1702TIP3    H126665   4.155   6.768   1.749 -2.0208  0.7638  1.2391
 1702TIP3    H226666   4.282   6.851   1.756  0.9351 -3.2374 -0.8249
 1703TIP3   OH226667   1.237   5.010   1.278  0.6749 -0.0437 -0.0442
 1703TIP3    H126668   1.217   5.097   1.311 -0.4070 -0.5738  0.7526
 1703TIP3    H226669   1.190   5.004   1.195  1.5611  0.4636 -0.6112
 1704TIP3   OH226670   3.299   3.378   0.097 -0.0845 -0.2885 -0.3410
 1704TIP3    H126671   3.297   3.427   0.179 -0.1084  0.0729 -0.5551
 1704TIP3    H226672   3.310   3.445   0.029  2.3518 -0.7286 -0.4779
 1705TIP3   OH226673   6.164   3.571   7.853 -0.6827 -0.0603 -0.5396
 1705TIP3    H126674   6.247   3.566   7.806 -1.6331  1.2399 -2.4653
 1705TIP3    H226675   6.116   3.493   7.825 -0.0910 -0.8901  0.6880
 1706TIP3   OH226676   5.743   6.310   1.014 -0.8053 -0.2833 -0.4656
 1706TIP3    H126677   5.783   6.327   0.929 -0.5531 -2.6565 -0.8998
 1706TIP3    H226678   5.648   6.314   0.996 -0.7641  0.8510 -0.4680
 1707TIP3   OH226679   5.923   1.630   2.145 -0.1941 -0.1773 -0.0396
 1707TIP3    H126680   5.839   1.631   2.099 -1.1030 -0.6058  1.5196
 1707TIP3    H226681   5.937   1.538   2.167 -0.2923  0.1264  1.3700
 1708TIP3   OH226682   2.787   2.501   7.958  0.0892 -0.0836  0.4804
 1708TIP3    H126683   2.703   2.544   7.971  0.0004 -0.1502  0.1357
 1708TIP3    H226684   2.850   2.557   8.003  0.0063  0.5294 -0.1489
 1709TIP3   OH226685   4.441   4.430   3.317 -0.1501 -0.3714 -0.0256
 1709TIP3    H126686   4.424   4.469   3.403  0.6164 -2.0406  0.9305
 1709TIP3    H226687   4.514   4.481   3.281 -0.5126  0.3708  0.2716
 1710TIP3   OH226688   4.849   3.221   2.225  0.2981  0.3673  0.0024
 1710TIP3    H126689   4.829   3.301   2.274 -0.4213 -0.0519  0.4156
 1710TIP3    H226690   4.888   3.163   2.290  0.2526  0.1629 -0.1550
 1711TIP3   OH226691   2.407   4.497   2.111 -0.0903  0.7289  0.1394
 1711TIP3    H126692   2.479   4.440   2.084  0.3170  0.7293  1.1839
 1711TIP3    H226693   2.445   4.585   2.111 -0.3857  0.8604 -0.3095
 1712TIP3   OH226694   3.780   5.261   1.163 -0.2058  0.0631  0.2904
 1712TIP3    H126695   3.736   5.278   1.247  0.8390 -1.9326  1.3068
 1712TIP3    H226696   3.857   5.318   1.165  0.4065 -0.7590  1.2261
 1713TIP3   OH226697   6.719   4.418   1.724 -0.1128 -0.3089 -0.4460
 1713TIP3    H126698   6.804   4.446   1.759 -0.8439  0.3107  0.9563
 1713TIP3    H226699   6.705   4.474   1.648  0.5092 -0.0399 -0.3736
 1714TIP3   OH226700   5.161   6.235   2.491  0.2069  0.1830  0.1147
 1714TIP3    H126701   5.246   6.198   2.470 -0.6846 -2.8514  1.2648
 1714TIP3    H226702   5.098   6.175   2.451 -1.3711  1.0927  1.1283
 1715TIP3   OH226703   2.227   5.865   1.725 -0.0426  0.3176  0.2570
 1715TIP3    H126704   2.308   5.816   1.736  0.2170  0.8225  0.6608
 1715TIP3    H226705   2.254   5.957   1.732 -0.6415  0.4889  0.3478
 1716TIP3   OH226706   5.137   2.717   3.251 -0.7656 -0.6417 -0.3223
 1716TIP3    H126707   5.193   2.658   3.302  2.2061 -1.2175 -3.8087
 1716TIP3    H226708   5.177   2.803   3.261  0.6430 -0.9665 -2.4111
 1717TIP3   OH226709   1.326   6.591   1.053 -0.8801  0.9128  0.1876
 1717TIP3    H126710   1.409   6.638   1.066  2.7233 -4.1129 -1.6594
 1717TIP3    H226711   1.291   6.628   0.972  2.5644 -0.1562 -2.0113
 1718TIP3   OH226712   5.615   5.001   8.269  0.0158 -0.0881  0.1549
 1718TIP3    H126713   5.538   4.955   8.238 -0.0165 -0.0047  0.1101
 1718TIP3    H226714   5.689   4.949   8.237  0.0044  0.4901 -0.8558
 1719TIP3   OH226715   6.750   2.608   0.404 -0.2744 -0.1916  0.0113
 1719TIP3    H126716   6.657   2.631   0.400 -0.8438 -2.4008 -0.7192
 1719TIP3    H226717   6.780   2.614   0.313  0.4133  0.8853  0.2989
 1720TIP3   OH226718   1.965   3.770   0.510 -0.6231  0.2389  0.4332
 1720TIP3    H126719   1.919   3.818   0.442  0.0938  1.9814  1.1149
 1720TIP3    H226720   2.009   3.699   0.463 -1.3034  0.5284 -0.6912
 1721TIP3   OH226721   0.358   6.392   0.839 -0.1270 -0.5069 -0.6465
 1721TIP3    H126722   0.264   6.393   0.858 -0.0650  0.4870 -0.3787
 1721TIP3    H226723   0.366   6.437   0.755  0.0996 -0.7538 -0.7608
 1722TIP3   OH226724   0.019   0.555   0.085  0.2739 -0.1029  0.2211
 1722TIP3    H126725  -0.011   0.549  -0.006  0.8723  0.6720 -0.0483
 1722TIP3    H226726   0.049   0.467   0.107 -0.1975 -0.3783 -0.2119
 1723TIP3   OH226727   2.143   3.955   7.606  0.2547  0.3185 -0.1877
 1723TIP3    H126728   2.193   4.036   7.598  0.2130  0.3121 -0.5242
 1723TIP3    H226729   2.207   3.890   7.634  0.3874  0.3608 -0.3922
 1724TIP3   OH226730   6.771   2.015   2.367  0.3791 -0.2348  0.0221
 1724TIP3    H126731   6.737   2.008   2.278  0.8944  2.1647 -0.4253
 1724TIP3    H226732   6.855   2.058   2.358  0.4081  0.1227  1.6895
 1725TIP3   OH226733   3.055   2.958   7.883 -0.4009  0.1231  0.2893
 1725TIP3    H126734   2.998   3.021   7.839 -1.7096 -0.5316  0.9874
 1725TIP3    H226735   3.110   2.923   7.813  0.1972  1.8424 -0.1517
 1726TIP3   OH226736   1.170   5.315   7.190  0.1483  0.0570  0.0240
 1726TIP3    H126737   1.092   5.350   7.234  0.6957  0.5829  0.5966
 1726TIP3    H226738   1.214   5.392   7.154 -1.0004 -0.4494 -2.7334
 1727TIP3   OH226739   0.523   5.342   3.233  0.2692 -0.2339  0.0143
 1727TIP3    H126740   0.496   5.387   3.312  1.6556 -1.4596  1.2509
 1727TIP3    H226741   0.565   5.409   3.179  1.3660  0.1884  1.3487
 1728TIP3   OH226742   0.750   0.834   0.188 -0.5801  0.1688 -0.1171
 1728TIP3    H126743   0.804   0.770   0.234 -1.0634 -0.8230 -0.8635
 1728TIP3    H226744   0.791   0.844   0.103 -0.3471  1.0942  0.0937
 1729TIP3   OH226745   1.084   2.520   0.236  0.1237 -0.4811 -0.0834
 1729TIP3    H126746   1.168   2.484   0.264  1.1565  1.3127 -0.7156
 1729TIP3    H226747   1.101   2.613   0.223 -2.1464  0.0672  0.4283
 1730TIP3   OH226748   5.904   5.672   3.501 -0.1329  0.1179 -0.1938
 1730TIP3    H126749   5.891   5.577   3.497  0.0795 -0.0706  1.9715
 1730TIP3    H226750   5.990   5.683   3.542 -0.0907  1.2419 -0.5451
 1731TIP3   OH226751   4.543   2.641   8.007  0.2043  0.2913  0.1411
 1731TIP3    H126752   4.626   2.650   8.054 -0.1044  0.8195  0.6002
 1731TIP3    H226753   4.544   2.551   7.975  0.7473  0.1428  0.5415
 1732TIP3   OH226754   1.905   4.988   8.296 -0.2233 -0.1634  0.3953
 1732TIP3    H126755   1.937   5.073   8.267 -0.8263 -0.2852 -0.6748
 1732TIP3    H226756   1.831   5.007   8.353 -0.4864  0.0356 -0.0072
 1733TIP3   OH226757   3.325   6.684   2.056  0.1380 -0.2747  0.8445
 1733TIP3    H126758   3.348   6.618   2.122 -1.1123 -0.4499  1.1201
 1733TIP3    H226759   3.393   6.674   1.989 -0.0677 -1.9085  0.8344
 1734TIP3   OH226760   4.013   3.909   8.371  0.5901  0.2289  0.6129
 1734TIP3    H126761   3.936   3.902   8.315  1.0385 -0.3481  0.0394
 1734TIP3    H226762   4.007   3.996   8.410 -0.8852 -0.2074  1.4044
 1735TIP3   OH226763   5.189   5.027   2.953  0.1324  0.0588 -0.3108
 1735TIP3    H126764   5.160   4.985   2.872  0.5039  0.4803 -0.6707
 1735TIP3    H226765   5.232   4.958   3.002 -0.7936 -0.3868 -0.1198
 1736TIP3   OH226766   6.607   1.796   0.829 -0.5986 -0.9408  0.0582
 1736TIP3    H126767   6.572   1.800   0.918 -1.2088  0.7577 -0.2170
 1736TIP3    H226768   6.531   1.815   0.773 -0.1207 -1.5078 -0.8065
 1737TIP3   OH226769   4.377   6.515   0.041 -0.1120  0.2850  0.0921
 1737TIP3    H126770   4.452   6.499  -0.017  0.1063 -0.9733  0.6864
 1737TIP3    H226771   4.416   6.539   0.124 -0.3432 -0.4293  0.4205
 1738TIP3   OH226772   0.794   0.410   2.123  0.2386 -0.0783  0.4571
 1738TIP3    H126773   0.729   0.401   2.192 -0.0457 -3.0136 -0.0741
 1738TIP3    H226774   0.743   0.414   2.042  0.6612  0.1923  0.1964
 1739TIP3   OH226775   6.693   5.933   8.509  0.8306 -0.2061 -0.1328
 1739TIP3    H126776   6.646   5.863   8.554  1.0073  0.1226  0.5732
 1739TIP3    H226777   6.783   5.925   8.540  0.8658  0.2856 -0.1049
 1740TIP3   OH226778   4.849   2.623   1.290  0.7096  0.1849 -0.2841
 1740TIP3    H126779   4.767   2.646   1.334 -0.1175 -2.1149 -0.4898
 1740TIP3    H226780   4.902   2.581   1.357  1.8079  1.7226 -0.1347
 1741TIP3   OH226781   4.482   2.541   8.462 -0.2753 -0.2517  0.4286
 1741TIP3    H126782   4.558   2.590   8.430 -0.0257 -0.5690  0.5295
 1741TIP3    H226783   4.452   2.590   8.538 -0.3770  0.0595  0.1924
 1742TIP3   OH226784   6.372   2.494   0.954  0.1442  0.5315  0.1979
 1742TIP3    H126785   6.370   2.441   1.033 -0.0266  1.0451  0.5472
 1742TIP3    H226786   6.454   2.470   0.911 -0.3718 -0.6941 -0.1364
 1743TIP3   OH226787   4.408   1.830   1.548 -0.3345  0.7486 -0.2254
 1743TIP3    H126788   4.499   1.856   1.541  0.3974 -1.6268 -0.5190
 1743TIP3    H226789   4.386   1.797   1.460 -0.8768 -0.3709  0.3070
 1744TIP3   OH226790   0.793   3.567   2.783 -0.6717  0.6270 -0.3874
 1744TIP3    H126791   0.727   3.595   2.847  0.6381 -2.1963  2.4768
 1744TIP3    H226792   0.799   3.472   2.794  1.8596  0.4067 -2.5457
 1745TIP3   OH226793   0.352   0.649   0.848  0.0822 -0.2875  0.1802
 1745TIP3    H126794   0.294   0.689   0.783 -0.4807 -0.9103  0.2833
 1745TIP3    H226795   0.395   0.723   0.891  0.3332  0.1381 -0.7831
 1746TIP3   OH226796   1.032   3.905   0.146  0.0318  0.4579 -0.5441
 1746TIP3    H126797   0.976   3.971   0.105  0.6152  0.4415 -1.3961
 1746TIP3    H226798   0.976   3.864   0.212 -0.5149  1.4060 -0.3913
 1747TIP3   OH226799   2.805   0.937   0.938  0.3934 -0.0920  0.2725
 1747TIP3    H126800   2.717   0.913   0.910  0.3816 -1.0720  1.0657
 1747TIP3    H226801   2.848   0.853   0.955  2.0015  0.2992 -1.5627
 1748TIP3   OH226802   5.569   6.291   1.296  0.8763  0.4542 -0.6761
 1748TIP3    H126803   5.622   6.290   1.217 -0.1352 -1.0886 -1.3830
 1748TIP3    H226804   5.482   6.317   1.266  1.1061  2.8760  0.4455
 1749TIP3   OH226805   6.414   5.059   2.447  0.3100  0.5019 -0.0533
 1749TIP3    H126806   6.465   5.133   2.480  1.7739 -0.8632  0.8965
 1749TIP3    H226807   6.374   5.021   2.525  2.9789 -2.1616  0.1752
 1750TIP3   OH226808   2.047   1.037   2.711 -0.0666 -0.6479 -0.3774
 1750TIP3    H126809   2.113   1.077   2.655 -0.4644  0.4668 -0.0888
 1750TIP3    H226810   2.095   0.975   2.766  1.3260  2.0920  1.7840
 1751TIP3   OH226811   1.653   0.761   8.529 -0.1404  0.1678 -0.2216
 1751TIP3    H126812   1.610   0.844   8.548 -1.3201 -0.6429  0.8362
 1751TIP3    H226813   1.715   0.781   8.459  0.5633  2.2193  0.9118
 1752TIP3   OH226814   3.321   5.008   1.045 -0.3440 -0.1293 -0.7189
 1752TIP3    H126815   3.396   5.029   1.100 -0.7437  0.1751 -0.2875
 1752TIP3    H226816   3.332   4.915   1.024 -0.5041 -0.3996  0.3637
 1753TIP3   OH226817   5.020   0.332   1.831 -0.3190  0.4132  0.1666
 1753TIP3    H126818   5.035   0.321   1.737 -0.7534  0.0627  0.1354
 1753TIP3    H226819   4.928   0.355   1.838  0.1333  2.2995  0.3827
 1754TIP3   OH226820   3.915   5.466   0.043  0.2473  0.1857 -1.1778
 1754TIP3    H126821   3.967   5.468   0.123 -0.6492 -0.8299 -0.5352
 1754TIP3    H226822   3.962   5.404  -0.014  1.4594  1.6960 -1.8922
 1755TIP3   OH226823   2.584   0.797   2.267  0.0285  0.1771  0.0221
 1755TIP3    H126824   2.574   0.817   2.360  0.0448  0.6187 -0.0708
 1755TIP3    H226825   2.495   0.775   2.239  0.0152  0.0894  0.1297
 1756TIP3   OH226826   4.807   1.331   0.802  0.1543  0.3146  0.5017
 1756TIP3    H126827   4.770   1.339   0.714  0.4641  0.1418  0.3539
 1756TIP3    H226828   4.877   1.267   0.792 -0.4437 -0.4444  1.0705
 1757TIP3   OH226829   2.835   0.889   8.507  0.0200  0.0940  0.0816
 1757TIP3    H126830   2.753   0.863   8.464 -0.3348  0.5488  0.4784
 1757TIP3    H226831   2.892   0.915   8.435 -0.0856 -0.4949 -0.2194
 1758TIP3   OH226832   0.591   0.445   2.302 -0.2150  0.3182  0.1317
 1758TIP3    H126833   0.510   0.496   2.295 -0.4007  0.3156  1.7585
 1758TIP3    H226834   0.641   0.490   2.370  0.6430 -0.3460 -0.0564
 1759TIP3   OH226835   0.832   1.069   7.839  0.0099 -0.0124  0.1382
 1759TIP3    H126836   0.804   1.003   7.902 -1.3093  0.2395 -0.1509
 1759TIP3    H226837   0.773   1.143   7.854  0.5719  0.5702 -0.4734
 1760TIP3   OH226838   0.650   1.167   1.488  0.1918  0.3470 -0.3500
 1760TIP3    H126839   0.576   1.197   1.540  0.0268  0.4315 -0.6264
 1760TIP3    H226840   0.726   1.213   1.524  0.5419 -1.5627  1.5385
 1761TIP3   OH226841   3.014   5.785   2.609 -0.7837 -0.2678 -0.1300
 1761TIP3    H126842   3.035   5.877   2.625  0.3460 -0.3744 -0.8711
 1761TIP3    H226843   2.938   5.768   2.665  0.0559  0.6492  1.3866
 1762TIP3   OH226844   4.213   5.469   1.594  0.1465  0.1040 -0.3960
 1762TIP3    H126845   4.222   5.565   1.592  0.0395  0.1024 -1.3418
 1762TIP3    H226846   4.205   5.448   1.687 -2.0712  1.2159 -0.2710
 1763TIP3   OH226847   6.173   1.781   2.616 -0.4834 -0.2141 -0.1754
 1763TIP3    H126848   6.254   1.818   2.582 -1.2298  1.0373 -0.6887
 1763TIP3    H226849   6.109   1.852   2.608 -1.9961 -1.6006 -1.1569
 1764TIP3   OH226850   4.689   0.874   2.096  0.6765 -0.5338 -0.3590
 1764TIP3    H126851   4.745   0.948   2.118 -0.0525 -0.4581  1.3367
 1764TIP3    H226852   4.716   0.805   2.156  0.8894 -1.4621 -1.4808
 1765TIP3   OH226853   4.176   4.393   1.661  0.4880 -0.2705 -0.3809
 1765TIP3    H126854   4.256   4.342   1.665  0.9133  0.4724  1.4088
 1765TIP3    H226855   4.193   4.470   1.714 -1.4524 -0.1623  0.1848
 1766TIP3   OH226856   5.073   1.843   1.835 -0.6920 -0.2689 -0.2946
 1766TIP3    H126857   5.066   1.761   1.884 -0.3567  0.7633  1.5938
 1766TIP3    H226858   5.021   1.905   1.886 -3.4053  0.1091 -3.2301
 1767TIP3   OH226859   5.525   2.179   2.884  0.4654 -0.1024 -0.1117
 1767TIP3    H126860   5.508   2.098   2.933 -0.7082  1.0073  1.4221
 1767TIP3    H226861   5.478   2.247   2.933  3.2158  1.9274 -0.0317
 1768TIP3   OH226862   5.413   1.243   1.629  0.2200  0.2497  0.3503
 1768TIP3    H126863   5.399   1.238   1.723  0.9747 -0.5365  0.4337
 1768TIP3    H226864   5.326   1.262   1.593 -0.1624  0.0963  1.1612
 1769TIP3   OH226865   1.250   6.209   3.320  0.3704 -0.4510 -0.0259
 1769TIP3    H126866   1.219   6.268   3.388  1.8137 -3.1051  3.2564
 1769TIP3    H226867   1.344   6.200   3.337  0.3827 -2.8665 -0.9290
 1770TIP3   OH226868   5.106   4.299   0.589  0.0017  0.1548  0.5356
 1770TIP3    H126869   5.145   4.273   0.506 -1.5048 -0.6596  0.0509
 1770TIP3    H226870   5.102   4.395   0.584 -2.2655  0.0605 -1.4322
 1771TIP3   OH226871   2.014   3.007   7.160  0.3159 -0.4562  0.6638
 1771TIP3    H126872   1.972   2.922   7.143 -0.0014  0.0241 -1.0756
 1771TIP3    H226873   2.095   2.984   7.207  1.0119 -1.8776 -1.1092
 1772TIP3   OH226874   5.039   3.594   1.048 -0.2194 -0.0557  0.3706
 1772TIP3    H126875   4.981   3.547   0.988  1.1860  0.1167 -1.2295
 1772TIP3    H226876   5.093   3.526   1.087 -0.0287 -0.0313  0.1548
 1773TIP3   OH226877   6.405   3.500   8.141  0.0801  0.1089  0.7798
 1773TIP3    H126878   6.374   3.452   8.064 -0.3081 -0.4387  1.2763
 1773TIP3    H226879   6.438   3.583   8.105 -0.2018 -0.0920  0.0351
 1774TIP3   OH226880   4.452   1.332   0.548 -0.3571 -0.3205 -0.8307
 1774TIP3    H126881   4.467   1.398   0.616 -0.8080  0.0277 -1.0643
 1774TIP3    H226882   4.393   1.269   0.590 -2.0902  0.8245 -1.4474
 1775TIP3   OH226883   6.884   4.165   1.683 -0.8823 -0.1095 -0.1707
 1775TIP3    H126884   6.963   4.208   1.651 -1.6006  0.4727 -1.2023
 1775TIP3    H226885   6.827   4.237   1.712 -0.4684 -0.5795  2.0020
 1776TIP3   OH226886   2.711   1.606   2.152  0.1779 -0.1273  0.2649
 1776TIP3    H126887   2.667   1.524   2.175  0.3669 -0.3389 -0.1083
 1776TIP3    H226888   2.742   1.591   2.062  0.0694  0.4146  0.1371
 1777TIP3   OH226889   2.128   4.641   7.760 -0.1989 -0.9088  0.1422
 1777TIP3    H126890   2.214   4.608   7.787  0.3064 -1.0614 -1.5048
 1777TIP3    H226891   2.115   4.604   7.672 -1.1434  0.5366 -0.3695
 1778TIP3   OH226892   2.415   3.225   1.532  0.7895  0.0254  0.2243
 1778TIP3    H126893   2.338   3.237   1.588  0.6828  0.9282 -0.1089
 1778TIP3    H226894   2.455   3.144   1.565  0.8693  0.6456  1.7693
 1779TIP3   OH226895   5.663   4.780   1.848 -0.1447 -0.3012  0.5758
 1779TIP3    H126896   5.612   4.709   1.809  0.6710 -1.1946  1.0861
 1779TIP3    H226897   5.642   4.856   1.795 -3.1497 -0.2427  1.6522
 1780TIP3   OH226898   2.093   3.215   1.211  0.0967  0.0869  0.1790
 1780TIP3    H126899   2.104   3.296   1.260  1.6676  0.3721 -0.5952
 1780TIP3    H226900   2.047   3.241   1.131 -1.8386 -0.2664  1.1202
 1781TIP3   OH226901   3.054   5.084   1.271 -0.8981 -0.5475 -0.0375
 1781TIP3    H126902   3.102   5.002   1.277 -0.7225 -0.6758 -2.4941
 1781TIP3    H226903   2.971   5.061   1.229 -0.5576  0.5905 -1.4236
 1782TIP3   OH226904   1.758   1.234   1.159  0.3165 -0.5570 -0.3386
 1782TIP3    H126905   1.687   1.299   1.162  1.0070  0.2433 -0.9307
 1782TIP3    H226906   1.763   1.199   1.248  0.9813  1.3463  0.4140
 1783TIP3   OH226907   1.367   4.247   0.957  0.2343  0.4391  0.0411
 1783TIP3    H126908   1.392   4.332   0.920  1.1639  0.3474  0.4345
 1783TIP3    H226909   1.325   4.270   1.041 -0.6402  0.5681 -0.4215
 1784TIP3   OH226910   1.913   5.432   8.402 -0.6890 -0.9972 -0.3390
 1784TIP3    H126911   1.965   5.383   8.466 -0.5198 -1.4172 -0.7906
 1784TIP3    H226912   1.961   5.421   8.319  0.0439  0.9608 -0.2293
 1785TIP3   OH226913   5.550   3.076   2.938 -0.0646  0.1472  0.3467
 1785TIP3    H126914   5.599   3.124   2.872 -1.5165  0.7287 -0.3545
 1785TIP3    H226915   5.595   3.094   3.020  0.0331  1.8913 -0.0536
 1786TIP3   OH226916   4.429   3.009   1.603 -0.3196  0.4635  0.4432
 1786TIP3    H126917   4.356   2.999   1.664 -0.4428 -0.3409  0.1687
 1786TIP3    H226918   4.494   2.945   1.633  1.3976  2.8438  2.2710
 1787TIP3   OH226919   4.400   0.266   3.343  0.1159  0.3603 -0.0270
 1787TIP3    H126920   4.305   0.271   3.329 -0.2103 -1.6834  1.0311
 1787TIP3    H226921   4.426   0.356   3.360 -2.1105  0.6982  2.2177
 1788TIP3   OH226922   2.150   2.942   1.213 -0.3047 -0.1114 -0.3529
 1788TIP3    H126923   2.132   3.034   1.194 -1.1689 -0.0202  0.7720
 1788TIP3    H226924   2.237   2.926   1.176  0.2633  1.4088  0.2386
 1789TIP3   OH226925   3.738   1.383   1.414 -0.1894 -0.4296  0.8693
 1789TIP3    H126926   3.660   1.362   1.465  0.2677 -0.0245  1.7545
 1789TIP3    H226927   3.748   1.478   1.423  1.2634 -0.6671  2.0408
 1790TIP3   OH226928   5.211   6.381   1.811 -0.4103 -0.3578 -0.3729
 1790TIP3    H126929   5.192   6.290   1.831  0.8205 -0.2239  1.6016
 1790TIP3    H226930   5.291   6.378   1.757 -0.8097 -0.4594 -0.9723
 1791TIP3   OH226931   1.521   0.987   2.620 -0.5515 -0.0160 -0.4133
 1791TIP3    H126932   1.615   0.972   2.629 -0.7165 -1.3195 -0.7275
 1791TIP3    H226933   1.510   1.080   2.641  0.7296  0.0321  0.1670
 1792TIP3   OH226934   6.152   1.428   1.634 -0.0458 -1.1656 -0.1622
 1792TIP3    H126935   6.216   1.484   1.591 -0.5742 -1.8997 -2.0050
 1792TIP3    H226936   6.202   1.353   1.665  0.4101 -0.4261  0.9396
 1793TIP3   OH226937   2.782   4.088   0.809 -0.3656 -0.1127 -0.7134
 1793TIP3    H126938   2.710   4.029   0.785 -0.3620 -0.6771  0.5910
 1793TIP3    H226939   2.854   4.030   0.834 -0.1750  0.4269  0.0346
 1794TIP3   OH226940   2.526   3.541   8.404 -0.1857  0.0301 -0.2361
 1794TIP3    H126941   2.523   3.446   8.401  1.0591 -0.0071 -0.5340
 1794TIP3    H226942   2.441   3.566   8.442  0.7026 -1.3000  2.9206
 1795TIP3   OH226943   2.846   0.358   8.085 -0.2817  0.2343  0.7551
 1795TIP3    H126944   2.873   0.413   8.159  0.2072  0.1289  0.6572
 1795TIP3    H226945   2.904   0.382   8.014 -0.0635 -0.3996  0.7081
 1796TIP3   OH226946   2.204   4.736   2.092  0.4923  0.7630 -0.0140
 1796TIP3    H126947   2.159   4.820   2.089  1.0751  1.1215  1.0320
 1796TIP3    H226948   2.295   4.757   2.074  0.2632  0.0035 -2.4401
 1797TIP3   OH226949   2.321   1.128   1.203  0.2552  0.9243 -0.3729
 1797TIP3    H126950   2.229   1.110   1.220  0.5728 -0.3460  0.0801
 1797TIP3    H226951   2.349   1.181   1.277  0.0452  0.7929 -0.1978
 1798TIP3   OH226952   4.421   2.023   0.670  0.4428  0.0882  0.4626
 1798TIP3    H126953   4.336   1.986   0.646 -0.5229  0.7885  2.5357
 1798TIP3    H226954   4.434   2.095   0.609  0.4180 -1.0952 -0.9939
 1799TIP3   OH226955   0.347   0.504   2.169 -0.2182 -0.5886  0.0771
 1799TIP3    H126956   0.333   0.595   2.195 -0.2290 -0.6313  0.2176
 1799TIP3    H226957   0.289   0.491   2.093 -0.8156 -0.7177  0.5494
 1800TIP3   OH226958   2.314   2.019   2.317 -0.2983  0.4051 -0.0622
 1800TIP3    H126959   2.319   2.055   2.405  1.1785 -1.8046  0.8737
 1800TIP3    H226960   2.382   2.066   2.268 -0.8390  1.3493  0.0807
 1801TIP3   OH226961   2.805   1.800   1.260  0.3855 -0.2376  0.8440
 1801TIP3    H126962   2.815   1.753   1.177 -0.9269  0.2980  0.3636
 1801TIP3    H226963   2.735   1.863   1.244  0.1746 -0.0517  2.3393
 1802TIP3   OH226964   6.744   2.246   2.499  0.1602  0.2439 -0.2206
 1802TIP3    H126965   6.739   2.153   2.477  0.8499  0.5787 -1.9537
 1802TIP3    H226966   6.788   2.249   2.584 -0.4378 -1.0224  0.1517
 1803TIP3   OH226967   1.255   5.462   2.444 -0.4312 -0.2713  0.3240
 1803TIP3    H126968   1.315   5.421   2.507  1.5007 -0.1953 -1.3393
 1803TIP3    H226969   1.282   5.554   2.443  1.0861 -0.6565 -2.0901
 1804TIP3   OH226970   3.036   2.193   0.528  0.4323 -0.3522 -0.3079
 1804TIP3    H126971   2.972   2.183   0.599  0.2055  3.1493  0.1699
 1804TIP3    H226972   2.987   2.237   0.458  1.7500  0.3729 -0.8053
 1805TIP3   OH226973   3.336   0.604   8.492 -0.4362  0.0260 -0.4602
 1805TIP3    H126974   3.283   0.541   8.541  0.0851  0.9244  1.3655
 1805TIP3    H226975   3.290   0.687   8.503  0.2600  0.4340 -0.5917
 1806TIP3   OH226976   0.230   6.079   0.128 -0.1754  0.3092 -0.1149
 1806TIP3    H126977   0.265   6.154   0.175  1.1205  0.3614 -1.1164
 1806TIP3    H226978   0.135   6.083   0.143  0.0467  1.1948  1.1762
 1807TIP3   OH226979   3.479   3.717   0.280 -0.2573 -0.0501  0.3765
 1807TIP3    H126980   3.426   3.794   0.299  0.6628  0.8791 -0.6839
 1807TIP3    H226981   3.462   3.697   0.188  1.1738  0.2629  0.0161
 1808TIP3   OH226982   5.143   0.303   8.262 -0.3586 -0.2718  0.3848
 1808TIP3    H126983   5.079   0.295   8.191  0.2111 -0.7596 -0.0838
 1808TIP3    H226984   5.227   0.281   8.221  0.1731  0.7413  0.9021
 1809TIP3   OH226985   3.786   3.122   2.779  0.4031  0.1840 -0.0882
 1809TIP3    H126986   3.789   3.197   2.839  0.7459  0.5088 -0.5113
 1809TIP3    H226987   3.694   3.095   2.780  0.5664 -0.4609  1.3690
 1810TIP3   OH226988   6.799   0.743   1.241  0.4132 -0.2043  0.1959
 1810TIP3    H126989   6.858   0.804   1.283 -0.2625 -0.2234  1.1943
 1810TIP3    H226990   6.857   0.680   1.197  1.1336  1.6800 -1.7488
 1811TIP3   OH226991   4.722   3.335   2.688 -0.5250 -0.1643  0.2945
 1811TIP3    H126992   4.783   3.351   2.615  1.5758  0.7940  2.1336
 1811TIP3    H226993   4.747   3.249   2.721 -0.2031  0.1889  0.9946
 1812TIP3   OH226994   3.185   4.030   2.241  0.3773 -0.1500  0.2766
 1812TIP3    H126995   3.150   4.110   2.202  0.1517 -1.0256 -1.4059
 1812TIP3    H226996   3.235   3.988   2.171 -1.4231 -2.6331  0.3355
 1813TIP3   OH226997   4.999   2.808   7.308 -0.4404 -0.3642  0.8188
 1813TIP3    H126998   4.962   2.883   7.261  1.5325  1.5710  2.1420
 1813TIP3    H226999   4.935   2.788   7.376 -0.4025  1.0798  1.3168
 1814TIP3   OH227000   6.402   4.421   0.868  0.2815  0.2385  0.2803
 1814TIP3    H127001   6.483   4.457   0.905  1.0990 -0.9866 -0.2427
 1814TIP3    H227002   6.333   4.478   0.901  1.0567 -0.2308  2.9507
 1815TIP3   OH227003   5.904   6.357   0.789  0.0295 -0.6431 -0.0140
 1815TIP3    H127004   5.887   6.442   0.750  0.6969 -0.2184  0.5954
 1815TIP3    H227005   5.902   6.296   0.716  0.6578  0.0550 -0.6185
 1816TIP3   OH227006   0.945   3.781   2.683  0.3648 -0.7374 -1.0345
 1816TIP3    H127007   0.949   3.839   2.759  0.6361 -0.9164 -0.9111
 1816TIP3    H227008   0.894   3.706   2.713  0.8091 -0.9881 -0.9095
 1817TIP3   OH227009   3.777   3.739   0.338 -0.7562 -0.0282  0.7932
 1817TIP3    H127010   3.839   3.795   0.293 -0.3889 -1.5423 -0.6928
 1817TIP3    H227011   3.822   3.713   0.419 -0.7655  1.3886  1.2887
 1818TIP3   OH227012   1.206   5.678   1.102  0.0434 -0.3553 -0.1497
 1818TIP3    H127013   1.127   5.666   1.154  0.8438 -0.8517  0.9768
 1818TIP3    H227014   1.242   5.590   1.092 -0.4272 -0.3658 -2.1279
 1819TIP3   OH227015   0.773   6.675   8.132 -0.0549  0.1415 -0.4195
 1819TIP3    H127016   0.858   6.631   8.141  0.4993  1.4959  1.7034
 1819TIP3    H227017   0.787   6.761   8.171 -2.5800  0.1727  0.5819
 1820TIP3   OH227018   1.668   4.291   2.894 -0.3957  0.6715 -0.2275
 1820TIP3    H127019   1.733   4.333   2.950  1.9177  0.0083 -2.2342
 1820TIP3    H227020   1.674   4.198   2.915 -2.9858  0.8502  1.7178
 1821TIP3   OH227021   1.766   0.604   8.211  0.1446 -0.2589  0.2923
 1821TIP3    H127022   1.736   0.523   8.253 -1.1979 -0.4928 -1.0656
 1821TIP3    H227023   1.860   0.590   8.199  0.4760 -0.4294  2.5969
 1822TIP3   OH227024   0.669   6.819   3.124 -0.5805  0.2101 -0.4539
 1822TIP3    H127025   0.690   6.907   3.154 -2.1097  0.8133 -1.0850
 1822TIP3    H227026   0.754   6.774   3.120  0.1328  1.4170  0.5633
 1823TIP3   OH227027   4.147   1.472   0.434  0.5375 -0.1921 -0.3785
 1823TIP3    H127028   4.140   1.376   0.436  1.0070 -0.2174  0.6419
 1823TIP3    H227029   4.178   1.495   0.522 -0.8241  1.0000 -0.1698
 1824TIP3   OH227030   6.202   0.121   0.499  0.0004  0.1983 -0.3108
 1824TIP3    H127031   6.111   0.151   0.496  0.4819  1.9186  0.9238
 1824TIP3    H227032   6.203   0.041   0.446 -2.4533 -0.4912  0.5724
 1825TIP3   OH227033   2.868   3.634   1.279 -0.4691  0.0860  0.6118
 1825TIP3    H127034   2.862   3.559   1.220 -1.1904  0.8478 -0.2990
 1825TIP3    H227035   2.800   3.694   1.250 -0.8852  0.4609  2.2693
 1826TIP3   OH227036   0.568   4.798   0.995 -0.6546 -0.1289  0.0884
 1826TIP3    H127037   0.590   4.811   1.087  1.4175  1.6557 -0.5860
 1826TIP3    H227038   0.572   4.885   0.957 -0.0353 -1.0037 -1.9908
 1827TIP3   OH227039   0.978   1.501   2.898  0.0425 -0.1845  0.8371
 1827TIP3    H127040   0.988   1.563   2.971  1.4734  0.3819  0.1880
 1827TIP3    H227041   0.884   1.488   2.891 -0.5954  3.6776 -0.4186
 1828TIP3   OH227042   0.885   0.654   8.181  0.8464 -0.2030 -0.5270
 1828TIP3    H127043   0.954   0.602   8.140  0.7296 -0.2487 -0.6674
 1828TIP3    H227044   0.820   0.589   8.209  1.0465 -0.1946 -0.0324
 1829TIP3   OH227045   6.056   4.836   7.135  0.1279 -0.9394 -0.0988
 1829TIP3    H127046   5.991   4.848   7.205  0.4614  1.6851 -0.1486
 1829TIP3    H227047   6.123   4.781   7.175 -0.3875 -0.6941  1.1718
 1830TIP3   OH227048   3.778   2.386   2.729  0.2406  0.0494  0.0971
 1830TIP3    H127049   3.747   2.470   2.763 -0.2551 -0.3583  0.6789
 1830TIP3    H227050   3.760   2.389   2.636  1.5397  1.1564 -0.1517
 1831TIP3   OH227051   5.871   0.990   0.258 -0.0826 -0.0787  0.5366
 1831TIP3    H127052   5.931   1.009   0.331 -0.3233 -1.5409  1.1509
 1831TIP3    H227053   5.786   0.979   0.300 -0.4135  0.0353 -0.0996
 1832TIP3   OH227054   2.547   4.381   8.516 -0.5080 -0.0068 -0.1347
 1832TIP3    H127055   2.534   4.299   8.468 -2.3644 -0.6883  1.4105
 1832TIP3    H227056   2.485   4.441   8.476 -0.4795  0.0895 -0.0318
 1833TIP3   OH227057   0.011   0.380   1.537  0.0292  0.4828 -0.0043
 1833TIP3    H127058   0.072   0.318   1.497 -0.5240  0.0334 -0.1499
 1833TIP3    H227059   0.001   0.349   1.627 -0.4037  0.2459 -0.1348
 1834TIP3   OH227060   6.264   0.667   1.740  0.2006 -0.4185 -0.1140
 1834TIP3    H127061   6.272   0.747   1.791  0.5647 -1.8470  2.2271
 1834TIP3    H227062   6.343   0.663   1.687  1.0252 -0.0391  1.0448
 1835TIP3   OH227063   6.411   4.019   0.810  0.1398 -0.2319 -0.0016
 1835TIP3    H127064   6.453   4.070   0.879 -0.9656 -0.3970  0.8253
 1835TIP3    H227065   6.393   4.082   0.741  0.8662  0.0271  0.0358
 1836TIP3   OH227066   3.684   6.040   3.111 -0.3141  0.0652  0.2833
 1836TIP3    H127067   3.645   6.081   3.189  1.3973  1.6024  0.3936
 1836TIP3    H227068   3.712   5.954   3.141  1.2081  0.9894  1.7208
 1837TIP3   OH227069   1.374   4.554   7.967 -0.2736  0.0231  0.8702
 1837TIP3    H127070   1.290   4.594   7.947  0.1699  0.1160 -0.9667
 1837TIP3    H227071   1.432   4.628   7.984  0.4513  0.2760 -2.1492
 1838TIP3   OH227072   0.121   0.560   7.858 -0.0458  0.1738 -0.0484
 1838TIP3    H127073   0.181   0.625   7.895 -0.2407  0.0273  0.5197
 1838TIP3    H227074   0.167   0.528   7.779  0.7603 -0.1523  0.5389
 1839TIP3   OH227075   1.845   4.524   7.275  0.1101  0.2023 -0.6178
 1839TIP3    H127076   1.928   4.535   7.227 -0.4171  0.2478 -1.5407
 1839TIP3    H227077   1.784   4.489   7.209 -0.3637 -0.7088  0.2750
 1840TIP3   OH227078   2.534   2.100   2.171  0.3830  0.4470  0.9334
 1840TIP3    H127079   2.597   2.030   2.190  0.4300  1.0460  3.3421
 1840TIP3    H227080   2.585   2.180   2.175  0.0449  0.7548 -0.3848
 1841TIP3   OH227081   1.689   1.530   7.940 -0.2140  0.0344 -0.3518
 1841TIP3    H127082   1.768   1.512   7.889 -0.9084 -0.4514 -1.2923
 1841TIP3    H227083   1.692   1.466   8.012 -0.4407 -0.9209 -1.1712
 1842TIP3   OH227084   3.667   1.900   8.231  0.2824  0.2836 -0.1837
 1842TIP3    H127085   3.627   1.893   8.144  1.9812  1.3351 -1.1185
 1842TIP3    H227086   3.697   1.991   8.236  0.1552  0.2539  1.5505
 1843TIP3   OH227087   1.344   3.037   1.613 -0.2959 -0.2507 -0.2063
 1843TIP3    H127088   1.347   2.946   1.585 -0.9234 -0.1661 -0.5626
 1843TIP3    H227089   1.296   3.036   1.696  0.2602 -0.3156  0.1240
 1844TIP3   OH227090   2.347   6.602   3.237 -0.7931 -0.4953 -0.0975
 1844TIP3    H127091   2.288   6.641   3.301  0.0899  0.4002  0.1868
 1844TIP3    H227092   2.366   6.673   3.175 -1.2994 -1.2280 -1.1268
 1845TIP3   OH227093   3.774   0.471   1.482 -0.1736 -0.1880  0.1993
 1845TIP3    H127094   3.687   0.496   1.515  0.1971  0.6738  0.5679
 1845TIP3    H227095   3.808   0.552   1.443  0.7486 -0.3217  0.7034
 1846TIP3   OH227096   2.002   0.991   0.408  0.4287 -0.3185  0.3689
 1846TIP3    H127097   2.016   0.959   0.497 -0.7855 -0.5086  0.5181
 1846TIP3    H227098   1.933   1.057   0.417  0.0546 -0.5774 -0.4608
 1847TIP3   OH227099   3.985   2.978   1.023 -0.2867  0.3153 -0.2218
 1847TIP3    H127100   3.913   2.938   1.070  0.4443  1.4192  1.9592
 1847TIP3    H227101   3.982   3.070   1.047 -0.2869  1.1275 -2.9597
 1848TIP3   OH227102   6.148   3.023   0.382 -0.3799 -0.1272 -0.2795
 1848TIP3    H127103   6.234   2.983   0.372 -0.6029 -0.3485 -1.4526
 1848TIP3    H227104   6.148   3.059   0.471  0.5528 -0.9858  0.0880
 1849TIP3   OH227105   1.234   4.427   3.370 -0.1748 -0.0862 -0.0613
 1849TIP3    H127106   1.316   4.415   3.418 -0.1603  0.3560  0.0291
 1849TIP3    H227107   1.246   4.510   3.323  0.8416 -1.6897 -2.9192
 1850TIP3   OH227108   2.988   1.784   0.473 -0.4070  0.2962 -0.2744
 1850TIP3    H127109   3.033   1.867   0.465  1.9148 -0.7497  1.0112
 1850TIP3    H227110   3.030   1.727   0.409 -0.2742 -0.5487  0.5388
 1851TIP3   OH227111   0.782   4.965   2.844  0.3100 -0.1890  0.0650
 1851TIP3    H127112   0.692   4.994   2.860  0.2846 -0.7679  1.1014
 1851TIP3    H227113   0.831   5.001   2.918  0.9727  0.3050 -0.6142
 1852TIP3   OH227114   3.855   2.447   1.918 -0.8392 -0.2492  0.4546
 1852TIP3    H127115   3.790   2.502   1.874 -0.0879  0.2000 -0.1037
 1852TIP3    H227116   3.927   2.440   1.856 -1.0683 -2.1940  0.3410
 1853TIP3   OH227117   2.139   4.791   2.986  0.4204  0.1642  0.3881
 1853TIP3    H127118   2.152   4.713   3.040 -0.5870 -0.8332 -0.7331
 1853TIP3    H227119   2.073   4.764   2.922  0.2362  1.8766 -0.1814
 1854TIP3   OH227120   3.584   4.661   2.629 -0.4689 -0.2020  0.0783
 1854TIP3    H127121   3.523   4.716   2.580 -2.1045 -1.0486  1.0698
 1854TIP3    H227122   3.546   4.573   2.624  0.6507 -0.7523  0.7721
 1855TIP3   OH227123   4.475   0.653   3.047  0.4616 -0.1544  1.1110
 1855TIP3    H127124   4.443   0.611   3.127  0.1168  1.5846  1.9310
 1855TIP3    H227125   4.396   0.687   3.005  0.6064 -1.2710 -0.1462
 1856TIP3   OH227126   4.282   1.205   1.925  0.2467  0.2812 -0.2101
 1856TIP3    H127127   4.194   1.242   1.937  1.1235  1.6298  3.4099
 1856TIP3    H227128   4.314   1.244   1.845 -1.0352  2.9866  0.4883
 1857TIP3   OH227129   4.522   3.588   2.130 -0.4435  0.2579  0.7891
 1857TIP3    H127130   4.516   3.503   2.088 -2.5013 -0.4953  2.4466
 1857TIP3    H227131   4.475   3.648   2.071  3.5336  1.0794 -1.9383
 1858TIP3   OH227132   4.114   3.337   0.882  0.2610  0.0287  0.0382
 1858TIP3    H127133   4.199   3.310   0.918 -0.0557  1.1009  1.6750
 1858TIP3    H227134   4.050   3.295   0.940 -0.2495  3.0988  1.9237
 1859TIP3   OH227135   1.112   5.134   8.463  0.3275  0.1622 -0.0299
 1859TIP3    H127136   1.094   5.130   8.557  1.6984  1.5217  0.3343
 1859TIP3    H227137   1.027   5.150   8.423 -0.1003  0.8371  1.0968
 1860TIP3   OH227138   2.505   1.632   1.132 -0.4699 -0.4392  0.1812
 1860TIP3    H127139   2.509   1.659   1.223 -0.1546 -2.6905  0.9026
 1860TIP3    H227140   2.597   1.630   1.104 -0.6535  2.2112 -0.8909
 1861TIP3   OH227141   5.208   2.922   1.690 -0.4726 -0.0889  0.1105
 1861TIP3    H127142   5.267   2.946   1.762  0.3692 -1.4115 -0.0953
 1861TIP3    H227143   5.244   2.968   1.614  0.0327 -0.5382  0.0753
 1862TIP3   OH227144   6.220   3.449   8.362  0.1973  0.9711 -0.1886
 1862TIP3    H127145   6.303   3.452   8.314  0.1477 -2.5354 -0.8020
 1862TIP3    H227146   6.233   3.506   8.437  3.1688  0.6166 -0.3147
 1863TIP3   OH227147   1.075   4.150   0.877  0.3171  0.1573 -0.0153
 1863TIP3    H127148   1.001   4.198   0.839 -0.9056 -0.6649  1.2002
 1863TIP3    H227149   1.132   4.131   0.802 -2.3239 -2.0418 -1.6885
 1864TIP3   OH227150   2.463   4.829   2.889 -0.0589 -0.4477  0.2012
 1864TIP3    H127151   2.525   4.819   2.817 -0.8845 -0.2011 -0.5521
 1864TIP3    H227152   2.379   4.802   2.853 -0.2566 -1.6209  1.4696
 1865TIP3   OH227153   3.762   3.627   8.034 -0.4534  0.2457  0.0869
 1865TIP3    H127154   3.772   3.562   7.964 -2.0163  0.8317 -0.7243
 1865TIP3    H227155   3.780   3.711   7.992  0.7372  0.4370  0.9350
 1866TIP3   OH227156   2.568   3.910   7.675  0.1511 -0.7213 -0.0900
 1866TIP3    H127157   2.662   3.922   7.688 -0.1911 -0.0784  2.2565
 1866TIP3    H227158   2.535   3.997   7.654 -0.1974 -0.4668  1.3969
 1867TIP3   OH227159   3.838   3.042   2.005  0.3325 -0.1247  0.7103
 1867TIP3    H127160   3.775   3.046   2.076 -1.7445  1.8905 -1.0580
 1867TIP3    H227161   3.923   3.058   2.047 -0.5152 -1.0674  2.9285
 1868TIP3   OH227162   6.547   1.865   8.052 -0.1871 -0.3181  0.1855
 1868TIP3    H127163   6.482   1.907   7.997  0.8954  0.1008 -0.8169
 1868TIP3    H227164   6.595   1.807   7.993  0.8058 -0.0858  0.7447
 1869TIP3   OH227165   3.284   3.588   2.135 -0.2146  0.1900  0.4515
 1869TIP3    H127166   3.223   3.572   2.063  0.0755  0.7643  0.0738
 1869TIP3    H227167   3.242   3.547   2.211 -1.3004  0.9467  0.2972
 1870TIP3   OH227168   2.412   3.838   3.215  0.3032 -0.6001 -0.4723
 1870TIP3    H127169   2.488   3.876   3.170  1.4786 -0.1402  1.6958
 1870TIP3    H227170   2.450   3.774   3.275 -0.8788  0.3441  1.3854
 1871TIP3   OH227171   6.412   2.787   2.544  0.6787  0.1356  0.4502
 1871TIP3    H127172   6.350   2.747   2.605 -2.1762  0.7210 -1.8482
 1871TIP3    H227173   6.419   2.878   2.574  1.6591 -0.2819  1.5724
 1872TIP3   OH227174   5.287   2.379   0.036 -0.2613  0.4848 -0.4867
 1872TIP3    H127175   5.378   2.374   0.065 -0.4275 -0.5476 -0.1074
 1872TIP3    H227176   5.236   2.380   0.117 -0.7171 -2.1623 -0.6673
 1873TIP3   OH227177   3.274   5.140   7.897 -0.4034  0.3826  0.0783
 1873TIP3    H127178   3.327   5.164   7.973 -2.1964  2.5003  0.7784
 1873TIP3    H227179   3.302   5.200   7.828 -0.1566 -0.2106 -0.3498
 1874TIP3   OH227180   1.947   2.770   2.185  0.3708  0.4910  0.2214
 1874TIP3    H127181   1.870   2.779   2.241 -1.1463 -1.7279 -1.3008
 1874TIP3    H227182   1.916   2.794   2.098  0.8827 -1.8724 -0.7021
 1875TIP3   OH227183   4.175   5.065   0.420  0.0624 -0.4220 -0.1155
 1875TIP3    H127184   4.140   5.060   0.509 -0.6733 -0.9525 -0.4248
 1875TIP3    H227185   4.125   5.136   0.380  1.0539  0.4659  0.1657
 1876TIP3   OH227186   3.370   0.983   8.546  0.0794 -0.0557 -0.0871
 1876TIP3    H127187   3.290   1.014   8.504  0.5982 -0.8836 -1.7684
 1876TIP3    H227188   3.419   1.063   8.567 -0.6001  0.4020 -0.2259
 1877TIP3   OH227189   5.914   0.753   2.082  0.6936  0.0336 -0.8458
 1877TIP3    H127190   5.935   0.661   2.098  0.3191  0.2708  1.2211
 1877TIP3    H227191   5.988   0.802   2.120  0.8642  0.6214 -1.8750
 1878TIP3   OH227192   0.202   2.252   1.879 -0.5259 -0.7583 -0.4370
 1878TIP3    H127193   0.172   2.220   1.794  0.3899 -1.7313 -0.4167
 1878TIP3    H227194   0.260   2.325   1.857 -1.0138 -0.4062 -0.5874
 1879TIP3   OH227195   2.034   3.580   0.816  0.1086  0.5908  0.0716
 1879TIP3    H127196   2.122   3.612   0.836  0.2064  1.7351 -1.9022
 1879TIP3    H227197   1.992   3.653   0.771 -1.7266 -0.0826  0.6062
 1880TIP3   OH227198   4.397   1.328   0.294 -0.6330 -0.1614 -0.3410
 1880TIP3    H127199   4.437   1.243   0.279  0.8856  0.5593 -0.5204
 1880TIP3    H227200   4.400   1.340   0.389 -1.3509 -0.5195 -0.2619
 1881TIP3   OH227201   6.086   4.316   0.596  0.0597 -0.2944 -0.0490
 1881TIP3    H127202   6.109   4.263   0.672  1.3230  0.4578  0.1279
 1881TIP3    H227203   6.089   4.256   0.522 -2.5900 -1.3888  0.5845
 1882TIP3   OH227204   2.972   5.839   1.201  0.2626  0.1498 -0.1146
 1882TIP3    H127205   2.883   5.872   1.186 -0.0058 -0.7448 -0.6031
 1882TIP3    H227206   2.987   5.850   1.294 -0.0643  1.0117 -0.1515
 1883TIP3   OH227207   6.156   5.858   0.523 -0.0394  0.1814 -0.2798
 1883TIP3    H127208   6.128   5.941   0.562  0.0326  0.2527 -0.3758
 1883TIP3    H227209   6.126   5.791   0.584  1.4018  0.3693  0.6925
 1884TIP3   OH227210   2.985   2.285   1.237  0.0042 -0.2223  0.3028
 1884TIP3    H127211   3.021   2.204   1.272 -0.2924 -1.3730 -1.8649
 1884TIP3    H227212   3.022   2.354   1.293  0.9045 -1.7720  1.7065
 1885TIP3   OH227213   1.590   2.745   3.241 -0.0927 -0.0591  0.7586
 1885TIP3    H127214   1.577   2.784   3.327 -4.0717 -0.0575  0.3473
 1885TIP3    H227215   1.502   2.739   3.204  1.3391 -0.9378 -2.9530
 1886TIP3   OH227216   6.389   0.687   8.146 -0.4249  0.9686 -0.6297
 1886TIP3    H127217   6.408   0.671   8.238 -0.7559 -0.8020 -0.8199
 1886TIP3    H227218   6.475   0.682   8.103 -0.4952 -0.5493 -0.6724
 1887TIP3   OH227219   6.146   1.267   2.611 -0.3034  0.2485 -0.4086
 1887TIP3    H127220   6.158   1.221   2.527 -1.1490  1.0472 -0.9873
 1887TIP3    H227221   6.195   1.348   2.601  1.5256 -0.6396  0.7656
 1888TIP3   OH227222   6.441   6.478   2.576  0.1834  0.1058  0.1543
 1888TIP3    H127223   6.463   6.396   2.531  1.2414  0.0867  0.6780
 1888TIP3    H227224   6.453   6.546   2.510 -0.9507 -0.1648 -0.3600
 1889TIP3   OH227225   2.930   5.280   1.072 -0.3192  0.3685  0.1097
 1889TIP3    H127226   3.019   5.249   1.054  0.1270  1.5271  0.2334
 1889TIP3    H227227   2.923   5.361   1.022 -0.6236  1.3135  1.6441
 1890TIP3   OH227228   6.209   2.355   3.532 -0.3504  0.5432 -0.0723
 1890TIP3    H127229   6.271   2.378   3.462  0.2607  0.3160  0.3781
 1890TIP3    H227230   6.192   2.438   3.577  0.1135  0.5103  0.1769
 1891TIP3   OH227231   5.268   5.450   0.612 -0.4192 -0.2313  0.0547
 1891TIP3    H127232   5.282   5.495   0.528  1.8594  0.5680  0.7950
 1891TIP3    H227233   5.268   5.357   0.589  0.4894 -0.0365 -0.8274
 1892TIP3   OH227234   2.361   0.572   1.556  0.0577  0.0045 -0.0568
 1892TIP3    H127235   2.305   0.498   1.532  1.2101 -1.5527  1.7458
 1892TIP3    H227236   2.427   0.534   1.614  1.2045  2.3181  0.2661
 1893TIP3   OH227237   4.039   0.688   3.094 -0.2545 -0.1993  0.1154
 1893TIP3    H127238   4.111   0.638   3.132  0.7432  1.2581  0.2450
 1893TIP3    H227239   4.082   0.761   3.049 -1.5342 -0.6262 -1.9149
 1894TIP3   OH227240   0.258   6.408   3.053  0.0845  0.5250 -0.0973
 1894TIP3    H127241   0.232   6.480   2.996 -1.6755 -0.4354 -0.6062
 1894TIP3    H227242   0.202   6.419   3.131  0.2127  0.0490  0.0635
 1895TIP3   OH227243   4.345   6.269   3.065 -0.5305 -0.0447  0.2336
 1895TIP3    H127244   4.373   6.244   2.977 -1.5791  0.8386 -0.3702
 1895TIP3    H227245   4.265   6.219   3.079 -0.0868 -0.5838  0.9147
 1896TIP3   OH227246   4.044   5.271   2.287 -0.1146  0.0763  0.4537
 1896TIP3    H127247   3.994   5.222   2.353 -0.7645  0.4111  0.2150
 1896TIP3    H227248   4.133   5.274   2.323 -0.6426  1.0771  1.7923
 1897TIP3   OH227249   0.169   1.729   2.913 -0.0753  0.6478 -0.6062
 1897TIP3    H127250   0.193   1.642   2.944  0.3691  0.8434 -0.3943
 1897TIP3    H227251   0.079   1.720   2.882 -0.6433  0.4969  0.9661
 1898TIP3   OH227252   3.176   2.376   7.985  0.2835 -0.1469 -0.0805
 1898TIP3    H127253   3.099   2.399   8.038 -0.1568 -0.4331 -0.5858
 1898TIP3    H227254   3.190   2.283   8.002  0.5461 -0.0873  0.0390
 1899TIP3   OH227255   3.715   0.344   0.595 -0.5398 -0.3450  0.1377
 1899TIP3    H127256   3.805   0.343   0.561 -0.0842 -1.1396  1.3187
 1899TIP3    H227257   3.712   0.421   0.652 -0.5129 -0.4985  0.3464
 1900TIP3   OH227258   3.375   6.017   2.086 -0.2799 -0.0459  0.1737
 1900TIP3    H127259   3.471   6.017   2.086 -0.2724 -0.0403  1.0538
 1900TIP3    H227260   3.351   6.053   2.001  0.4942 -1.0296 -0.4859
 1901TIP3   OH227261   5.208   3.651   2.231  0.5690 -0.0070  0.0368
 1901TIP3    H127262   5.239   3.637   2.321  1.1757 -0.0520 -0.1763
 1901TIP3    H227263   5.175   3.565   2.204  0.2082  0.0531  0.2827
 1902TIP3   OH227264   3.009   2.706   2.595 -0.0831  0.0599 -0.5139
 1902TIP3    H127265   3.057   2.784   2.567  0.0443 -0.2664 -1.2382
 1902TIP3    H227266   3.055   2.634   2.553 -1.0957 -0.2770 -1.0772
 1903TIP3   OH227267   2.735   2.248   0.444  0.5646 -0.0341 -0.0971
 1903TIP3    H127268   2.744   2.155   0.426 -1.0906  0.2112 -2.5964
 1903TIP3    H227269   2.769   2.291   0.366 -1.3283  1.3375 -0.2390
 1904TIP3   OH227270   2.202   1.829   2.135 -0.5754 -0.1990  0.1926
 1904TIP3    H127271   2.257   1.751   2.127  0.3142  0.5440 -1.1591
 1904TIP3    H227272   2.239   1.876   2.210  0.4382  0.1161 -0.4840
 1905TIP3   OH227273   3.724   4.318   2.725 -0.1947 -0.2035 -0.4202
 1905TIP3    H127274   3.752   4.307   2.816  0.9556 -1.1120 -0.8644
 1905TIP3    H227275   3.804   4.311   2.674 -0.8816 -0.0902 -1.5369
 1906TIP3   OH227276   4.984   4.105   0.721 -0.1374  0.3687  0.0900
 1906TIP3    H127277   4.890   4.125   0.719  0.0751  1.3743 -0.2686
 1906TIP3    H227278   5.027   4.188   0.703  0.8715  0.2188  1.5786
 1907TIP3   OH227279   5.480   5.172   8.525  0.5113 -0.0697 -0.1711
 1907TIP3    H127280   5.421   5.248   8.532  0.9195  0.3968 -1.5331
 1907TIP3    H227281   5.424   5.101   8.493  0.1106 -0.3981  1.1823
 1908TIP3   OH227282   1.508   0.294   8.006  0.5211  0.1338  0.0082
 1908TIP3    H127283   1.420   0.295   7.968  0.4877 -1.4523 -0.0437
 1908TIP3    H227284   1.544   0.210   7.978  1.4493  0.0529  1.3709
 1909TIP3   OH227285   3.655   3.398   8.183 -0.1557 -0.0713 -0.1856
 1909TIP3    H127286   3.722   3.409   8.250 -0.6560 -1.0467  0.5022
 1909TIP3    H227287   3.666   3.474   8.126 -0.1315  1.1370  1.3510
 1910TIP3   OH227288   0.927   4.293   8.023  0.5542 -0.3163 -0.2924
 1910TIP3    H127289   0.991   4.231   8.057  1.4845  0.1162 -1.2107
 1910TIP3    H227290   0.963   4.322   7.940 -0.6255  0.2805 -0.6201
 1911TIP3   OH227291   4.511   5.121   8.270 -0.1314  0.1319 -0.2439
 1911TIP3    H127292   4.565   5.077   8.204  0.3575  0.6597 -0.2029
 1911TIP3    H227293   4.551   5.096   8.353 -0.6675 -0.4251 -0.1414
 1912TIP3   OH227294   4.753   3.055   8.147 -0.5361 -0.2617  0.2073
 1912TIP3    H127295   4.725   2.966   8.126  1.0113 -0.5288 -0.9111
 1912TIP3    H227296   4.840   3.044   8.187  0.5453  0.8133 -1.7270
 1913TIP3   OH227297   5.789   1.728   0.098  0.0417 -0.1068  0.2304
 1913TIP3    H127298   5.846   1.802   0.120  0.4549 -0.5592  0.6934
 1913TIP3    H227299   5.844   1.670   0.046 -0.5389  0.3155 -0.8965
 1914TIP3   OH227300   0.197   3.323   3.325  0.5681 -0.0086 -0.6298
 1914TIP3    H127301   0.270   3.362   3.372 -0.8745  0.5490  1.2678
 1914TIP3    H227302   0.172   3.388   3.260 -0.0746  1.1150  0.6870
 1915TIP3   OH227303   5.626   4.606   0.576 -0.0678 -0.1490 -0.0579
 1915TIP3    H127304   5.594   4.584   0.488 -0.0938 -2.6127  0.4940
 1915TIP3    H227305   5.710   4.560   0.583 -0.2849 -0.3830  1.3665
 1916TIP3   OH227306   1.209   3.949   2.873  0.0523  0.0582 -0.7241
 1916TIP3    H127307   1.243   4.004   2.943 -1.8875  0.6716 -0.1870
 1916TIP3    H227308   1.120   3.981   2.859 -0.6944 -2.0864 -1.3147
 1917TIP3   OH227309   4.822   1.809   0.198 -0.2751 -0.4951  0.5465
 1917TIP3    H127310   4.807   1.885   0.255 -1.5013 -0.3836  0.1170
 1917TIP3    H227311   4.877   1.843   0.127  1.4327 -0.6848  1.7153
 1918TIP3   OH227312   2.851   2.294   7.799  0.1500  0.4761 -0.6110
 1918TIP3    H127313   2.845   2.208   7.838 -0.6263  0.6677 -0.2850
 1918TIP3    H227314   2.825   2.355   7.868 -1.0948  0.8266 -1.3505
 1919TIP3   OH227315   4.384   6.519   7.339 -0.0164  0.3947 -0.5433
 1919TIP3    H127316   4.407   6.610   7.357 -0.6210  0.2392  1.2109
 1919TIP3    H227317   4.317   6.524   7.271 -0.3751  1.2922 -0.1404
 1920TIP3   OH227318   0.135   2.477   8.332 -0.2660 -0.2505 -0.1734
 1920TIP3    H127319   0.180   2.422   8.396 -1.4347 -1.0190  0.0128
 1920TIP3    H227320   0.174   2.452   8.248  0.2978 -0.2375  0.0799
 1921TIP3   OH227321   4.292   3.985   2.570 -1.1008  0.6385 -0.3443
 1921TIP3    H127322   4.361   4.025   2.517  0.4548 -0.8795  0.4301
 1921TIP3    H227323   4.290   3.894   2.542 -0.8096 -0.0069  1.5810
 1922TIP3   OH227324   4.039   6.664   1.352  0.5489  0.6038 -0.2027
 1922TIP3    H127325   4.039   6.755   1.323  0.3435  0.4901 -0.5712
 1922TIP3    H227326   4.021   6.669   1.446  2.0350  1.0175  0.0825
 1923TIP3   OH227327   0.391   1.519   2.344 -0.1029 -0.2320 -0.2677
 1923TIP3    H127328   0.462   1.567   2.300  0.6713  0.2050  1.3886
 1923TIP3    H227329   0.311   1.549   2.300  0.6119  0.2654 -1.2768
 1924TIP3   OH227330   4.875   4.353   0.285 -0.6865  0.2413  0.1175
 1924TIP3    H127331   4.906   4.347   0.194 -0.2118  0.5087  0.2587
 1924TIP3    H227332   4.955   4.356   0.337 -0.9293 -2.4372  0.7405
 1925TIP3   OH227333   6.490   1.490   0.138 -0.2243 -0.0770 -0.3486
 1925TIP3    H127334   6.530   1.479   0.051 -0.1962  2.2200 -0.6980
 1925TIP3    H227335   6.400   1.462   0.126  0.2790 -1.7578 -0.5300
 1926TIP3   OH227336   6.679   5.899   1.506  0.1425  0.0528 -0.0178
 1926TIP3    H127337   6.648   5.911   1.595  1.3175  0.8775  0.2959
 1926TIP3    H227338   6.773   5.882   1.515  0.3531  0.5558 -1.1155
 1927TIP3   OH227339   6.687   2.928   0.119 -0.3443  0.4746 -0.2511
 1927TIP3    H127340   6.657   2.956   0.033 -0.7041 -0.1369 -0.3301
 1927TIP3    H227341   6.679   2.833   0.118  1.6133  0.2597 -0.2831
 1928TIP3   OH227342   0.780   4.218   2.676 -0.6765 -0.0670 -0.1111
 1928TIP3    H127343   0.736   4.278   2.737  0.7163  2.3469 -1.3491
 1928TIP3    H227344   0.772   4.261   2.591  2.8281 -0.1306 -0.5985
 1929TIP3   OH227345   5.861   3.552   0.578 -0.2316  0.4884  0.0150
 1929TIP3    H127346   5.817   3.632   0.548 -1.1075 -0.0565 -0.1858
 1929TIP3    H227347   5.890   3.573   0.667 -1.1807  0.7647  0.2787
 1930TIP3   OH227348   5.298   1.745   1.552 -0.0223 -0.2679  0.4592
 1930TIP3    H127349   5.365   1.681   1.576  0.8500  0.9992  1.5385
 1930TIP3    H227350   5.293   1.804   1.627 -0.2312  1.3905 -0.7863
 1931TIP3   OH227351   5.614   0.103   7.914  0.3113 -0.1723 -0.4300
 1931TIP3    H127352   5.593   0.192   7.943 -2.7859 -1.1722  0.8848
 1931TIP3    H227353   5.612   0.108   7.819 -0.0921  1.1228 -0.3727
 1932TIP3   OH227354   5.400   1.029   2.719  0.1827  0.4644  0.1104
 1932TIP3    H127355   5.358   0.944   2.732  1.4245 -0.0202  1.2445
 1932TIP3    H227356   5.427   1.029   2.627  0.2999 -0.4497  0.1339
 1933TIP3   OH227357   2.824   2.938   8.446  0.0763 -0.5206 -0.2799
 1933TIP3    H127358   2.865   2.974   8.524  0.1716 -2.6656  0.7523
 1933TIP3    H227359   2.865   2.984   8.373  1.9150 -0.2769  0.8548
 1934TIP3   OH227360   5.432   5.803   0.594 -0.6605  0.2298  0.1737
 1934TIP3    H127361   5.449   5.749   0.517 -0.9357  0.5657 -0.1255
 1934TIP3    H227362   5.461   5.891   0.568 -2.5803  0.7730 -0.2580
 1935TIP3   OH227363   3.125   6.478   8.369  0.0995  0.3365 -0.2097
 1935TIP3    H127364   3.170   6.424   8.305  1.3804  1.5748 -0.4087
 1935TIP3    H227365   3.150   6.441   8.454 -0.7950 -0.6894 -0.3712
 1936TIP3   OH227366   0.352   6.441   7.207 -0.4118  0.0223  0.2836
 1936TIP3    H127367   0.318   6.352   7.217  0.4417 -0.4563 -0.8573
 1936TIP3    H227368   0.438   6.439   7.248 -0.6571  0.5082  0.8329
 1937TIP3   OH227369   1.486   1.153   3.417 -0.2449 -0.2842 -0.9016
 1937TIP3    H127370   1.552   1.210   3.377 -2.0017  2.1945 -0.5168
 1937TIP3    H227371   1.477   1.187   3.506  0.4393 -2.8916  0.2598
 1938TIP3   OH227372   3.450   0.427   0.527  0.0946  0.2808 -0.0146
 1938TIP3    H127373   3.371   0.374   0.538  0.4058 -0.1806  0.0277
 1938TIP3    H227374   3.521   0.370   0.557  0.2880  1.2438  1.4912
 1939TIP3   OH227375   1.515   4.844   2.026 -0.5840  0.1743 -0.9222
 1939TIP3    H127376   1.449   4.779   2.051  1.0953 -0.8132  1.4441
 1939TIP3    H227377   1.466   4.925   2.013 -2.2797 -0.5210  0.6658
 1940TIP3   OH227378   3.877   4.802   0.634  0.4108  0.9685 -0.3385
 1940TIP3    H127379   3.885   4.708   0.654  1.8767  1.3439  1.0697
 1940TIP3    H227380   3.842   4.805   0.545 -0.8615 -0.8988  0.0409
 1941TIP3   OH227381   6.205   6.717   0.632  0.0640  0.2131  0.1197
 1941TIP3    H127382   6.281   6.766   0.665  0.2743  0.2374 -0.3843
 1941TIP3    H227383   6.145   6.785   0.601 -0.4307  0.2192  1.0647
 1942TIP3   OH227384   2.004   6.371   8.291  0.3348 -0.0523 -0.5206
 1942TIP3    H127385   1.930   6.322   8.257  0.6530  1.0434 -2.9787
 1942TIP3    H227386   1.973   6.461   8.296  1.2177  0.2734 -0.7204
 1943TIP3   OH227387   3.774   6.320   0.812 -0.2143  0.2522  0.4230
 1943TIP3    H127388   3.793   6.366   0.730  0.6308 -0.3095  0.2872
 1943TIP3    H227389   3.771   6.388   0.878  1.1652  0.5033  0.2516
 1944TIP3   OH227390   1.292   6.800   2.690  0.7334 -0.6112 -0.2965
 1944TIP3    H127391   1.339   6.745   2.752  1.3412 -0.9630 -1.0471
 1944TIP3    H227392   1.272   6.880   2.739  0.3409 -1.2612  0.6293
 1945TIP3   OH227393   2.959   6.281   0.533 -0.2476 -0.4720 -0.0462
 1945TIP3    H127394   2.891   6.214   0.520 -0.4063 -0.5454  1.0632
 1945TIP3    H227395   2.965   6.325   0.449 -1.8899 -0.2848 -0.1001
 1946TIP3   OH227396   4.513   0.496   1.579 -0.7861 -0.9373 -0.7155
 1946TIP3    H127397   4.453   0.447   1.523  0.5599 -0.2070 -2.9080
 1946TIP3    H227398   4.596   0.451   1.572 -0.1063  0.2936 -0.8785
 1947TIP3   OH227399   0.137   1.125   0.995  0.3258  0.0601 -0.2098
 1947TIP3    H127400   0.107   1.049   0.946  0.8240  0.4863 -1.1941
 1947TIP3    H227401   0.208   1.162   0.943 -0.0681  1.3454  0.1161
 1948TIP3   OH227402   4.453   6.182   2.831 -0.2837 -0.0617  0.4692
 1948TIP3    H127403   4.485   6.102   2.873 -0.5617  0.3817  1.5541
 1948TIP3    H227404   4.529   6.241   2.831  0.5554 -0.9927 -2.2125
 1949TIP3   OH227405   0.065   3.646   8.144 -0.1246 -0.1866  0.2449
 1949TIP3    H127406   0.063   3.567   8.090  1.1186 -1.6250  2.1830
 1949TIP3    H227407   0.157   3.655   8.170 -0.3559  1.5667  0.5673
 1950TIP3   OH227408   4.438   5.404   0.709  0.5199 -0.4474  0.3370
 1950TIP3    H127409   4.408   5.429   0.796 -0.6902  0.8180 -0.4033
 1950TIP3    H227410   4.513   5.346   0.725 -0.4831 -1.3182  2.2257
 1951TIP3   OH227411   6.721   4.624   1.542 -0.1487 -0.0658 -0.4366
 1951TIP3    H127412   6.658   4.663   1.482 -0.8036  0.8431  0.7874
 1951TIP3    H227413   6.795   4.685   1.542 -0.3398  0.1730 -0.0036
 1952TIP3   OH227414   5.171   6.083   2.102 -0.1797 -0.0797 -0.0560
 1952TIP3    H127415   5.225   6.012   2.136  1.9794  1.8031  0.7405
 1952TIP3    H227416   5.181   6.076   2.007 -2.3480 -2.4839 -0.1945
 1953TIP3   OH227417   1.721   4.293   0.134 -0.0308  0.4300 -0.3267
 1953TIP3    H127418   1.728   4.385   0.158  0.1956  0.1013  0.9346
 1953TIP3    H227419   1.810   4.259   0.145 -0.6414 -0.5758  2.0648
 1954TIP3   OH227420   4.303   3.558   0.740  0.5026  0.0842 -0.6187
 1954TIP3    H127421   4.279   3.609   0.663  1.4189  1.0248 -0.3017
 1954TIP3    H227422   4.388   3.520   0.719  0.1430 -0.7629 -0.5828
 1955TIP3   OH227423   2.006   1.527   3.543  0.2778 -0.1119 -0.2130
 1955TIP3    H127424   2.077   1.502   3.602  0.5795 -0.5163 -0.7458
 1955TIP3    H227425   1.971   1.445   3.510 -3.0519 -0.2469  2.9688
 1956TIP3   OH227426   2.696   3.830   2.273 -0.7220  0.0816  0.5286
 1956TIP3    H127427   2.614   3.874   2.252 -2.1387 -2.7781 -0.5143
 1956TIP3    H227428   2.719   3.783   2.193  0.7621 -0.9022  1.4902
 1957TIP3   OH227429   6.590   5.145   0.359  0.1702 -0.0195 -0.2782
 1957TIP3    H127430   6.501   5.138   0.325 -0.2994  0.2829  0.8310
 1957TIP3    H227431   6.635   5.202   0.297 -1.2369  2.2473  0.6432
 1958TIP3   OH227432   6.836   1.414   2.950  0.0439 -0.8549  0.1946
 1958TIP3    H127433   6.819   1.354   2.877 -0.3222 -2.3726  1.4838
 1958TIP3    H227434   6.854   1.357   3.024  1.3508  0.6734  1.0980
 1959TIP3   OH227435   1.228   2.388   0.803 -0.2048  0.4448  0.6105
 1959TIP3    H127436   1.323   2.391   0.807 -0.1416  0.0104 -0.3556
 1959TIP3    H227437   1.208   2.299   0.774 -0.7001  1.7233 -3.5270
 1960TIP3   OH227438   0.797   6.721   0.236  0.3428 -0.7363  0.0093
 1960TIP3    H127439   0.733   6.702   0.305  1.6318 -0.7768  1.2365
 1960TIP3    H227440   0.871   6.664   0.256  1.2756  0.2248 -0.6246
 1961TIP3   OH227441   1.080   2.042   2.096  0.2776 -0.1981 -0.1345
 1961TIP3    H127442   1.148   2.068   2.158  0.4200 -0.5962 -0.1171
 1961TIP3    H227443   1.018   2.114   2.097  0.2085 -0.2587  0.5767
 1962TIP3   OH227444   5.525   4.558   7.969 -0.1493  0.5278  0.5365
 1962TIP3    H127445   5.614   4.563   8.005  0.2036  0.1915 -0.2713
 1962TIP3    H227446   5.510   4.644   7.930  0.3587  0.1416 -0.5418
 1963TIP3   OH227447   5.884   4.896   3.127 -0.6047 -0.4233  0.4149
 1963TIP3    H127448   5.898   4.812   3.082  1.1696  0.4127 -0.7104
 1963TIP3    H227449   5.964   4.909   3.178 -1.2112  0.2345  1.2227
 1964TIP3   OH227450   3.338   1.395   1.751 -0.0951 -0.2269  0.1975
 1964TIP3    H127451   3.244   1.404   1.739  0.1588  0.8129 -1.2399
 1964TIP3    H227452   3.368   1.349   1.672  1.0599  2.7896 -1.2671
 1965TIP3   OH227453   5.633   2.585   2.429 -0.5389 -0.1945 -0.1951
 1965TIP3    H127454   5.684   2.585   2.510 -2.2567 -1.2173  0.9572
 1965TIP3    H227455   5.572   2.658   2.440  0.3566  0.7503 -1.3626
 1966TIP3   OH227456   2.029   3.373   8.539  0.3179  1.2233  0.0111
 1966TIP3    H127457   2.099   3.383   8.475  1.1219 -0.4133  0.5896
 1966TIP3    H227458   1.966   3.441   8.516  0.3025  0.3648 -2.8402
 1967TIP3   OH227459   6.646   6.192   3.027 -0.2008 -0.0559  0.1175
 1967TIP3    H127460   6.726   6.221   2.983 -0.5671 -0.3068 -0.7242
 1967TIP3    H227461   6.659   6.218   3.118  2.1457 -2.7579  0.6693
 1968TIP3   OH227462   5.237   2.972   3.343 -0.1084  0.0352  0.2457
 1968TIP3    H127463   5.328   2.991   3.364  0.1040 -0.0530 -0.5552
 1968TIP3    H227464   5.192   2.972   3.428  0.7027 -0.3095  0.6904
 1969TIP3   OH227465   3.513   4.403   8.060  0.3075  0.3928 -0.2247
 1969TIP3    H127466   3.489   4.461   8.131  0.3782 -0.5397  0.5775
 1969TIP3    H227467   3.479   4.446   7.981  0.0001  1.3000  0.3873
 1970TIP3   OH227468   4.613   5.086   8.528  0.2522  0.0293  0.4056
 1970TIP3    H127469   4.541   5.103   8.588  0.5079  0.9549  0.4653
 1970TIP3    H227470   4.690   5.078   8.584  0.6217  1.6564  0.1719
 1971TIP3   OH227471   2.382   1.720   2.352 -0.1964 -0.2276  0.1141
 1971TIP3    H127472   2.451   1.778   2.383 -1.2361  0.7974  0.5707
 1971TIP3    H227473   2.315   1.723   2.420 -2.6297  2.2080 -2.1413
 1972TIP3   OH227474   6.303   1.958   8.470 -0.1134 -0.0266  0.1590
 1972TIP3    H127475   6.369   2.014   8.510 -1.0095  0.5501  0.8812
 1972TIP3    H227476   6.313   1.873   8.514  1.7692 -0.7363 -1.4836
 1973TIP3   OH227477   4.118   1.716   2.303  0.1475  0.2851 -0.3266
 1973TIP3    H127478   4.144   1.729   2.212 -0.2810  0.5473 -0.4164
 1973TIP3    H227479   4.142   1.798   2.347 -0.0496  0.3298 -0.3009
 1974TIP3   OH227480   3.654   0.338   0.980  0.1555  0.2655  0.0550
 1974TIP3    H127481   3.581   0.400   0.986  1.0981  1.6452 -1.5239
 1974TIP3    H227482   3.614   0.256   0.951 -0.9852  0.4326  1.0919
 1975TIP3   OH227483   3.376   0.355   0.798 -0.1823 -0.1059 -0.0831
 1975TIP3    H127484   3.329   0.317   0.872  0.8036 -1.1560  0.0213
 1975TIP3    H227485   3.312   0.353   0.726 -0.0289 -2.4805 -0.2310
 1976TIP3   OH227486   4.520   6.045   8.380  0.0017 -0.1150  0.5780
 1976TIP3    H127487   4.535   6.138   8.359  2.2711 -0.8760 -1.6111
 1976TIP3    H227488   4.426   6.033   8.367  0.0057  1.4252 -1.3824
 1977TIP3   OH227489   1.863   4.083   7.129  0.1183  0.3237  0.1906
 1977TIP3    H127490   1.850   4.000   7.084  0.0942 -0.4227  1.5130
 1977TIP3    H227491   1.877   4.059   7.220 -1.9413  1.8701  1.0149
 1978TIP3   OH227492   3.485   0.997   2.129  0.2818  0.1213  0.7917
 1978TIP3    H127493   3.392   0.979   2.113  0.4291  0.3411 -0.4133
 1978TIP3    H227494   3.524   0.910   2.143  0.2846 -0.1980 -0.9938
 1979TIP3   OH227495   1.962   4.002   1.610  0.4736 -0.0985  0.1188
 1979TIP3    H127496   1.897   3.953   1.660 -0.6508 -0.0854 -1.2571
 1979TIP3    H227497   2.042   3.997   1.663 -0.2196 -1.4512  1.1029
 1980TIP3   OH227498   5.204   3.671   1.329  0.3186  0.1819  0.0244
 1980TIP3    H127499   5.205   3.738   1.260 -0.5924  1.0103  0.7856
 1980TIP3    H227500   5.260   3.602   1.296  0.1266  0.6899 -1.4282
 1981TIP3   OH227501   3.730   5.282   0.887  0.1209  0.0068  0.2975
 1981TIP3    H127502   3.746   5.267   0.980  2.0451  1.1448  0.1913
 1981TIP3    H227503   3.737   5.195   0.847 -1.7574 -0.6635  1.2907
 1982TIP3   OH227504   2.060   6.155   1.087 -0.6380  0.3170  0.5621
 1982TIP3    H127505   2.074   6.249   1.077  0.8071  0.0536 -0.2206
 1982TIP3    H227506   2.130   6.126   1.145 -0.2421 -0.4662 -0.2764
 1983TIP3   OH227507   1.168   2.121   0.887 -0.2747 -0.2428 -0.5980
 1983TIP3    H127508   1.167   2.025   0.883  0.4102 -0.3313  0.8176
 1983TIP3    H227509   1.246   2.142   0.938  0.2518  1.1306 -1.8903
 1984TIP3   OH227510   6.424   2.272   7.245  0.3099 -0.1533  0.3168
 1984TIP3    H127511   6.390   2.240   7.162  1.0995 -0.5426  0.1358
 1984TIP3    H227512   6.418   2.367   7.240  1.4720 -0.1150 -0.6776
 1985TIP3   OH227513   3.821   0.166   8.423 -0.4110  0.1525 -0.3206
 1985TIP3    H127514   3.776   0.235   8.470  1.1397  0.7953  0.3082
 1985TIP3    H227515   3.849   0.104   8.490  0.8540  0.5101 -0.4761
 1986TIP3   OH227516   2.653   1.502   0.333  0.0835  0.9377  0.6311
 1986TIP3    H127517   2.660   1.407   0.335  0.7130  0.9256 -0.8010
 1986TIP3    H227518   2.560   1.519   0.348 -0.2683  0.0125 -0.3384
 1987TIP3   OH227519   0.107   3.859   2.543 -0.1332  0.3218  0.1338
 1987TIP3    H127520   0.093   3.805   2.465 -0.1811  1.7849 -0.8889
 1987TIP3    H227521   0.023   3.901   2.559  0.2880  1.1993  0.0690
 1988TIP3   OH227522   0.739   6.483   2.522  0.0843  0.2149 -0.2813
 1988TIP3    H127523   0.662   6.480   2.464  0.7698  0.4339 -1.2343
 1988TIP3    H227524   0.709   6.445   2.604 -0.0069 -3.4064 -1.8256
 1989TIP3   OH227525   0.061   2.527   0.218 -0.2907  0.8067  0.7653
 1989TIP3    H127526   0.044   2.487   0.303 -0.2943 -0.0201  0.3777
 1989TIP3    H227527   0.113   2.605   0.239 -0.0249  0.4429  1.5033
 1990TIP3   OH227528   6.524   6.522   0.075  0.0520  0.1168 -0.8129
 1990TIP3    H127529   6.560   6.605   0.044  1.3872  0.5008  1.5464
 1990TIP3    H227530   6.438   6.545   0.111 -0.1782  0.1964 -1.3941
 1991TIP3   OH227531   2.344   5.985   2.054  0.1540  0.8338  0.2277
 1991TIP3    H127532   2.253   5.970   2.027  0.5707 -1.1234 -0.2710
 1991TIP3    H227533   2.390   6.000   1.972  0.3991  1.2420  0.4365
 1992TIP3   OH227534   5.574   2.710   0.214  0.1527  0.2374 -0.4479
 1992TIP3    H127535   5.557   2.768   0.289  0.9982 -0.2913  0.1759
 1992TIP3    H227536   5.608   2.769   0.146 -1.8972  0.9399 -0.9284
 1993TIP3   OH227537   2.252   0.395   8.352  0.5021  0.0672  0.4403
 1993TIP3    H127538   2.240   0.387   8.447 -1.6712 -0.7538  0.1513
 1993TIP3    H227539   2.166   0.423   8.320  0.8481 -0.8976 -1.4125
 1994TIP3   OH227540   6.287   0.617   0.458 -0.4143 -0.4988 -0.2893
 1994TIP3    H127541   6.367   0.652   0.497 -0.3008 -1.9279  0.8291
 1994TIP3    H227542   6.217   0.668   0.499 -0.1659 -0.4354  0.0619
 1995TIP3   OH227543   1.037   2.215   1.418 -0.1334  0.0576 -0.5340
 1995TIP3    H127544   0.998   2.161   1.486 -3.3671 -0.6438 -2.7425
 1995TIP3    H227545   0.966   2.271   1.388  1.9582  2.4563 -1.3993
 1996TIP3   OH227546   6.161   6.571   2.782 -0.0913  0.0136  0.3372
 1996TIP3    H127547   6.118   6.627   2.718  0.4218  0.1744  0.1264
 1996TIP3    H227548   6.090   6.519   2.820 -0.1910 -1.8138 -2.0667
 1997TIP3   OH227549   4.531   5.747   1.712 -0.3169  0.4997  0.4169
 1997TIP3    H127550   4.455   5.708   1.669  0.5629  1.3196 -2.0110
 1997TIP3    H227551   4.556   5.820   1.656  1.9971  0.5258  1.3781
 1998TIP3   OH227552   3.233   4.193   0.287  0.1282 -0.0705  0.0116
 1998TIP3    H127553   3.217   4.286   0.305  1.7756  0.5606 -1.5118
 1998TIP3    H227554   3.150   4.150   0.310 -0.5745  1.7071  1.0478
 1999TIP3   OH227555   3.041   5.900   2.009 -0.4845 -0.1186 -0.6864
 1999TIP3    H127556   3.072   5.990   2.015 -1.7312  0.2439  0.5985
 1999TIP3    H227557   3.117   5.847   2.033  0.3859  0.5413 -1.8767
 2000TIP3   OH227558   6.238   1.554   1.949  0.7193  0.2002  0.3728
 2000TIP3    H127559   6.287   1.510   1.880 -1.1644  0.1109 -0.9696
 2000TIP3    H227560   6.181   1.486   1.985  0.2691  0.7175  0.6534
 2001TIP3   OH227561   4.490   4.673   0.773  0.4326  0.0370  0.1056
 2001TIP3    H127562   4.452   4.717   0.697 -0.8712  0.6409  1.0552
 2001TIP3    H227563   4.445   4.589   0.777  0.6918 -0.1040  0.0519
 2002TIP3   OH227564   4.957   5.452   2.658  0.5117 -0.2093 -0.0542
 2002TIP3    H127565   5.052   5.458   2.663  0.6847 -0.8507 -1.8131
 2002TIP3    H227566   4.935   5.487   2.571 -1.2172  3.1924  1.5361
 2003TIP3   OH227567   1.442   1.822   7.537  0.4523 -0.6013 -0.1274
 2003TIP3    H127568   1.483   1.773   7.608  1.7451  3.7614  2.5394
 2003TIP3    H227569   1.516   1.857   7.487 -0.2036  1.0130 -0.0302
 2004TIP3   OH227570   4.481   4.838   7.385  0.2124 -0.2832 -1.2676
 2004TIP3    H127571   4.423   4.882   7.448  1.1962  2.6784 -2.2719
 2004TIP3    H227572   4.493   4.750   7.422  0.9782  1.3065  2.9017
 2005TIP3   OH227573   0.421   6.389   1.351 -0.2289  0.2344  0.3415
 2005TIP3    H127574   0.373   6.343   1.282  1.5687 -0.0271 -0.8122
 2005TIP3    H227575   0.459   6.319   1.404  1.6550  0.3108 -0.8047
 2006TIP3   OH227576   5.742   4.980   1.159 -0.4112 -0.0994 -0.3096
 2006TIP3    H127577   5.769   4.888   1.162  0.7112  0.1516 -1.5327
 2006TIP3    H227578   5.647   4.978   1.160 -0.3992 -1.2872 -0.5444
 2007TIP3   OH227579   4.271   6.804   7.366 -0.4533 -0.7301  0.4018
 2007TIP3    H127580   4.232   6.768   7.446 -1.7337 -0.3955 -0.0507
 2007TIP3    H227581   4.363   6.818   7.389 -0.4598 -2.0267  1.3409
 2008TIP3   OH227582   1.425   1.248   2.695 -0.0069  0.7139  0.7418
 2008TIP3    H127583   1.347   1.266   2.642  1.9583 -1.1744 -3.2444
 2008TIP3    H227584   1.490   1.310   2.663  1.1714 -0.2678  1.1539
 2009TIP3   OH227585   1.934   1.307   3.386  0.1830 -0.0477  0.2793
 2009TIP3    H127586   1.974   1.233   3.341 -0.7166  0.1296 -0.8326
 2009TIP3    H227587   1.898   1.363   3.317 -2.4366 -0.4463  1.1874
 2010TIP3   OH227588   5.212   0.305   7.636 -0.2377 -0.5540 -0.2560
 2010TIP3    H127589   5.142   0.359   7.675  1.8575  1.4589  0.9386
 2010TIP3    H227590   5.186   0.215   7.657 -0.6804  0.2765  3.5715
 2011TIP3   OH227591   6.425   2.389   1.925  0.1830 -0.4267 -0.0570
 2011TIP3    H127592   6.479   2.442   1.865  0.0084 -0.9947 -0.7271
 2011TIP3    H227593   6.408   2.309   1.877 -0.6935 -0.5362  0.4249
 2012TIP3   OH227594   0.735   6.805   0.587 -0.7340 -0.3356  0.9268
 2012TIP3    H127595   0.708   6.876   0.529  1.1090  0.9296  1.5235
 2012TIP3    H227596   0.699   6.726   0.547 -2.0625  0.8333 -0.2606
 2013TIP3   OH227597   6.158   4.299   3.158 -0.3559 -0.2345  0.1430
 2013TIP3    H127598   6.148   4.322   3.251  0.0995 -0.3619  0.2251
 2013TIP3    H227599   6.186   4.381   3.117 -0.2185 -0.2640  0.1770
 2014TIP3   OH227600   1.476   4.248   2.116  0.5258 -0.3016 -0.0631
 2014TIP3    H127601   1.498   4.326   2.065  3.7059 -1.9933 -1.5336
 2014TIP3    H227602   1.399   4.212   2.072  0.5549  0.6412 -0.9394
 2015TIP3   OH227603   0.026   6.299   2.374 -0.0110  0.4635  0.0027
 2015TIP3    H127604  -0.033   6.285   2.300 -0.6998 -0.0976  0.6259
 2015TIP3    H227605   0.040   6.211   2.410  0.0805  0.7508  0.6958
 2016TIP3   OH227606   0.443   2.340   7.648 -0.1281  0.0148 -0.3257
 2016TIP3    H127607   0.530   2.342   7.608 -0.2829 -0.9355 -0.7502
 2016TIP3    H227608   0.388   2.394   7.592 -0.0829 -0.3778 -0.7526
 2017TIP3   OH227609   2.469   2.083   1.903 -0.2845 -0.0351  0.6768
 2017TIP3    H127610   2.486   2.087   1.997 -1.0014  0.2819  0.7970
 2017TIP3    H227611   2.474   1.989   1.882 -0.6961 -0.1682  1.1470
 2018TIP3   OH227612   1.012   2.532   2.262  0.0134 -0.2056 -0.5756
 2018TIP3    H127613   0.933   2.519   2.314  1.1353 -0.2089  1.2107
 2018TIP3    H227614   1.027   2.448   2.219 -1.9329  0.3227 -2.4666
 2019TIP3   OH227615   3.419   3.256   0.674 -0.3144 -0.1652  0.2732
 2019TIP3    H127616   3.442   3.286   0.762  0.8090  1.5925 -0.5754
 2019TIP3    H227617   3.487   3.291   0.618 -0.9316 -1.3727 -1.3122
 2020TIP3   OH227618   2.257   2.485   2.867 -0.4397 -0.0298  0.3439
 2020TIP3    H127619   2.274   2.475   2.774 -2.3763  1.7755 -0.2830
 2020TIP3    H227620   2.326   2.542   2.899 -1.3290  1.6958 -0.6669
 2021TIP3   OH227621   5.364   5.220   0.480 -0.1581  0.0171  0.8243
 2021TIP3    H127622   5.456   5.245   0.482 -0.3032  0.5606  3.6214
 2021TIP3    H227623   5.354   5.174   0.396  2.8582 -0.9023  0.8487
 2022TIP3   OH227624   4.402   5.111   2.181  0.1071 -0.2151 -0.6063
 2022TIP3    H127625   4.365   5.057   2.111 -1.7688 -0.3955  0.4341
 2022TIP3    H227626   4.358   5.080   2.260  1.2556  0.8069  0.4736
 2023TIP3   OH227627   3.617   1.320   2.862 -0.1847  0.3449  0.4296
 2023TIP3    H127628   3.538   1.346   2.908  0.1546  0.4011  0.9917
 2023TIP3    H227629   3.587   1.288   2.778 -0.9574 -1.2493  1.2825
 2024TIP3   OH227630   3.444   0.862   8.172 -0.1122 -0.0540 -0.3832
 2024TIP3    H127631   3.485   0.918   8.106  1.9078  2.5337  2.7738
 2024TIP3    H227632   3.368   0.913   8.202 -0.1082 -0.4746  0.3477
 2025TIP3   OH227633   3.952   4.644   0.115 -0.0370  0.1086  0.2106
 2025TIP3    H127634   3.958   4.549   0.102  1.2065  0.2276 -0.2043
 2025TIP3    H227635   3.862   4.666   0.093 -0.4163 -1.0116  0.5774
 2026TIP3   OH227636   4.869   6.643   3.679  0.1169 -0.0097  0.5740
 2026TIP3    H127637   4.790   6.589   3.685  1.0074 -1.3028  1.2401
 2026TIP3    H227638   4.935   6.594   3.728  1.7482  0.2665 -1.2167
 2027TIP3   OH227639   4.077   6.581   3.771 -0.1672 -0.5432 -0.1849
 2027TIP3    H127640   4.000   6.524   3.781 -0.3331 -0.2924 -0.0044
 2027TIP3    H227641   4.144   6.524   3.735 -0.1330 -1.0222  0.6062
 2028TIP3   OH227642   4.479   4.120   0.667  0.5971 -0.3212 -0.2256
 2028TIP3    H127643   4.474   4.065   0.589  1.4280  0.3299 -0.7599
 2028TIP3    H227644   4.555   4.088   0.715  1.4910  0.7245 -0.8712
 2029TIP3   OH227645   4.960   0.756   0.773  0.4332 -0.8378 -0.5244
 2029TIP3    H127646   4.890   0.737   0.711 -0.3541  1.0080 -0.2894
 2029TIP3    H227647   4.933   0.714   0.855  0.2721 -1.2484 -0.7872
 2030TIP3   OH227648   4.093   1.692   7.609  0.1758 -0.3837  0.2007
 2030TIP3    H127649   4.031   1.664   7.676  0.4244 -0.4982  0.3876
 2030TIP3    H227650   4.039   1.730   7.540  0.0205  1.5940  1.3241
 2031TIP3   OH227651   5.925   4.242   8.421  0.6144  0.1344  0.0684
 2031TIP3    H127652   5.856   4.275   8.364  1.8633 -1.5745 -2.5967
 2031TIP3    H227653   5.914   4.147   8.421  2.0044 -0.0662  0.8977
 2032TIP3   OH227654   3.485   2.287   2.685 -0.3229  0.0949  0.3228
 2032TIP3    H127655   3.452   2.326   2.766 -0.2385 -0.0532  0.4305
 2032TIP3    H227656   3.579   2.274   2.702 -0.0365  1.2757 -0.2783
 2033TIP3   OH227657   2.558   4.866   7.916  0.2688  0.1097  0.8991
 2033TIP3    H127658   2.474   4.851   7.960 -0.1219 -1.0810 -0.1826
 2033TIP3    H227659   2.552   4.954   7.881 -0.4221  0.1464  1.0942
 2034TIP3   OH227660   6.527   1.013   8.512  0.9559 -0.2280  0.3357
 2034TIP3    H127661   6.465   1.037   8.581 -0.3626 -1.2052 -0.4734
 2034TIP3    H227662   6.576   0.939   8.547  0.0223 -0.9693  0.0944
 2035TIP3   OH227663   6.744   3.833   8.517  0.8243 -0.0613  0.3862
 2035TIP3    H127664   6.658   3.819   8.556 -0.0441 -0.1097 -1.4450
 2035TIP3    H227665   6.766   3.749   8.476  1.9132 -0.1533  1.1041
 2036TIP3   OH227666   5.126   5.486   3.427 -0.2227 -0.1191  0.2072
 2036TIP3    H127667   5.031   5.476   3.432 -0.5280  1.4717 -1.5380
 2036TIP3    H227668   5.157   5.400   3.397 -1.2889 -0.2282 -0.6658
 2037TIP3   OH227669   3.817   2.951   1.724  0.9185  0.2140 -0.5575
 2037TIP3    H127670   3.771   2.906   1.653  1.4690  1.3181 -1.6560
 2037TIP3    H227671   3.747   2.987   1.779  0.4838 -1.0165 -0.2760
 2038TIP3   OH227672   4.601   4.288   3.860  0.5030 -0.6384 -0.1844
 2038TIP3    H127673   4.584   4.231   3.935 -0.2281 -0.9433 -0.5718
 2038TIP3    H227674   4.541   4.258   3.792 -0.5931  1.1884 -0.1037
 2039TIP3   OH227675   5.914   1.861   3.259 -0.1784 -0.0030  0.4625
 2039TIP3    H127676   5.987   1.822   3.210 -1.1981  0.5130 -1.5431
 2039TIP3    H227677   5.956   1.900   3.336  1.6520  0.0936 -0.5222
 2040TIP3   OH227678   5.924   2.083   8.136 -0.1886 -0.6133 -0.0921
 2040TIP3    H127679   6.014   2.069   8.164 -0.1080  0.3314  0.1806
 2040TIP3    H227680   5.884   2.131   8.208 -0.7263 -0.4668 -0.4835
 2041TIP3   OH227681   3.568   4.472   0.361 -0.3506 -0.2565  0.1653
 2041TIP3    H127682   3.567   4.558   0.403 -2.0144  0.5519 -1.3883
 2041TIP3    H227683   3.478   4.460   0.330  0.1659 -1.9804 -0.7966
 2042TIP3   OH227684   3.910   3.064   3.300  0.0352  0.2604  0.4456
 2042TIP3    H127685   3.880   2.983   3.259 -0.8389  1.4368 -1.3937
 2042TIP3    H227686   3.831   3.101   3.340  0.7949 -0.6780  3.0486
 2043TIP3   OH227687   2.546   0.711   3.031  0.1160 -0.6232  0.7654
 2043TIP3    H127688   2.551   0.624   2.993  0.7274 -1.0964  1.8773
 2043TIP3    H227689   2.474   0.754   2.985  1.0561 -1.0097 -1.1755
 2044TIP3   OH227690   1.565   2.112   8.449  0.4173 -0.3781 -0.3815
 2044TIP3    H127691   1.496   2.066   8.401 -0.2340 -0.7545  0.8767
 2044TIP3    H227692   1.619   2.151   8.380 -1.4937  0.6071 -1.4162
 2045TIP3   OH227693   5.258   0.074   2.701  0.3448 -0.1627 -0.4801
 2045TIP3    H127694   5.344   0.050   2.734 -0.5442  0.4244  2.6128
 2045TIP3    H227695   5.217  -0.010   2.679  0.1907 -0.9531  2.3567
 2046TIP3   OH227696   0.637   4.592   3.434 -0.1218 -0.6292  0.3040
 2046TIP3    H127697   0.573   4.651   3.472 -1.8320 -0.2111 -2.9059
 2046TIP3    H227698   0.700   4.649   3.391  1.5283 -1.0998  1.9398
 2047TIP3   OH227699   5.876   1.446   0.611 -0.0229  0.2336 -0.5280
 2047TIP3    H127700   5.875   1.464   0.517 -2.3302 -1.7610 -0.9917
 2047TIP3    H227701   5.831   1.520   0.651  0.6246  0.8959 -0.9935
 2048TIP3   OH227702   4.354   4.859   0.619  0.0267  0.0380 -0.5686
 2048TIP3    H127703   4.381   4.934   0.566  1.8269 -0.2733 -0.1703
 2048TIP3    H227704   4.262   4.875   0.639 -0.8391  0.0136 -4.0134
 2049TIP3   OH227705   6.520   4.447   1.906  0.1828  0.2551 -0.2205
 2049TIP3    H127706   6.593   4.442   1.845  0.3823 -0.3825  0.0569
 2049TIP3    H227707   6.523   4.363   1.953 -0.6253  0.2918 -0.0954
 2050TIP3   OH227708   1.792   0.317   8.550 -0.4691  0.1412  0.0868
 2050TIP3    H127709   1.774   0.376   8.623  1.8765 -1.0807  1.7928
 2050TIP3    H227710   1.742   0.238   8.570 -1.6065  0.5983 -0.8627
 2051TIP3   OH227711   2.945   6.100   1.507  0.0554  0.0301 -0.1749
 2051TIP3    H127712   3.038   6.093   1.530  0.5814  1.1853 -1.7686
 2051TIP3    H227713   2.937   6.186   1.466 -1.7082 -0.0989 -0.1774
 2052TIP3   OH227714   4.708   6.059   7.631 -0.1371  0.5248 -0.4431
 2052TIP3    H127715   4.680   6.139   7.586 -0.4012  0.6924  0.0165
 2052TIP3    H227716   4.799   6.046   7.602 -0.2404  0.7411 -0.8684
 2053TIP3   OH227717   1.160   6.321   3.080  1.2575  0.3460  0.2534
 2053TIP3    H127718   1.066   6.322   3.100  1.1735  0.0591 -0.1080
 2053TIP3    H227719   1.198   6.265   3.148  0.8025 -1.6376 -1.0548
 2054TIP3   OH227720   2.541   4.886   0.438 -0.3182  0.2646 -0.0899
 2054TIP3    H127721   2.516   4.899   0.347  1.9964  0.6367 -0.7501
 2054TIP3    H227722   2.616   4.945   0.450  1.2987 -1.9016  1.1467
 2055TIP3   OH227723   1.674   2.305   2.166 -0.1600  0.0635 -1.0107
 2055TIP3    H127724   1.700   2.351   2.245 -0.1274 -0.4585 -0.7166
 2055TIP3    H227725   1.730   2.341   2.097 -1.3821  1.7936 -1.1623
 2056TIP3   OH227726   6.762   3.285   1.006  0.0177 -0.0660 -0.0218
 2056TIP3    H127727   6.852   3.288   0.972 -0.3484  0.7342 -0.9436
 2056TIP3    H227728   6.753   3.365   1.057 -0.3789  0.1831 -0.4770
 2057TIP3   OH227729   6.072   5.552   0.611 -0.0048  0.1141 -0.5835
 2057TIP3    H127730   5.992   5.514   0.574 -1.1758  1.7748  0.1163
 2057TIP3    H227731   6.043   5.634   0.651  1.9874  0.5291  0.1112
 2058TIP3   OH227732   6.250   1.841   2.321 -0.3376 -1.0738  0.4614
 2058TIP3    H127733   6.334   1.844   2.367 -0.6035 -1.2905  0.9681
 2058TIP3    H227734   6.241   1.928   2.282  0.4525 -1.2709 -0.2045
 2059TIP3   OH227735   3.083   5.043   8.059 -0.2441 -0.1486 -0.2585
 2059TIP3    H127736   3.128   4.961   8.079 -0.9188 -0.3948  0.3194
 2059TIP3    H227737   3.144   5.092   8.003  0.2828 -0.9180 -0.3687
 2060TIP3   OH227738   6.367   3.214   2.417 -0.0508  0.0002  0.3470
 2060TIP3    H127739   6.448   3.261   2.396 -0.6407  0.0129 -2.2655
 2060TIP3    H227740   6.303   3.283   2.434  0.3980 -0.0072  2.2148
 2061TIP3   OH227741   4.990   5.329   0.907  0.1186  0.0877  0.1413
 2061TIP3    H127742   5.026   5.335   0.819 -1.0624 -1.8720 -0.5532
 2061TIP3    H227743   5.065   5.307   0.962  0.6316 -0.1503 -0.6351
 2062TIP3   OH227744   1.203   6.541   1.337 -0.1157  0.4585 -0.6675
 2062TIP3    H127745   1.277   6.506   1.386 -0.4229  0.2765 -0.3291
 2062TIP3    H227746   1.235   6.550   1.247  0.0552 -0.3934 -0.6937
 2063TIP3   OH227747   1.391   3.279   1.495 -0.9376 -0.3509 -0.1108
 2063TIP3    H127748   1.486   3.278   1.485 -0.8249  2.5827 -0.3326
 2063TIP3    H227749   1.369   3.192   1.527  1.5586 -1.8174 -1.9660
 2064TIP3   OH227750   2.636   5.225   1.056 -0.0359  0.0486  0.0233
 2064TIP3    H127751   2.599   5.299   1.008 -0.0387  0.9752  1.3909
 2064TIP3    H227752   2.729   5.225   1.034 -0.2901 -0.5123 -1.1645
 2065TIP3   OH227753   4.671   5.249   0.719 -0.1315 -0.2009 -0.2144
 2065TIP3    H127754   4.719   5.315   0.768 -2.0221  1.5337 -0.5397
 2065TIP3    H227755   4.634   5.191   0.786  1.8133 -1.2213  0.0553
 2066TIP3   OH227756   0.696   0.081   8.040  0.2488  0.6036 -0.6392
 2066TIP3    H127757   0.671   0.018   7.973  1.0155 -0.3151 -0.0889
 2066TIP3    H227758   0.638   0.061   8.114  1.4640 -0.4676  0.0636
 2067TIP3   OH227759   3.658   0.632   1.215  0.3070  0.5122 -0.0195
 2067TIP3    H127760   3.623   0.687   1.285  0.9727  0.0434  0.7050
 2067TIP3    H227761   3.583   0.581   1.185  0.6237 -1.9172  2.8509
 2068TIP3   OH227762   5.263   5.555   2.832 -0.5286  0.2038 -0.3377
 2068TIP3    H127763   5.282   5.466   2.863 -1.9050 -0.2260 -0.6513
 2068TIP3    H227764   5.221   5.598   2.908  1.1116  0.9645  0.1768
 2069TIP3   OH227765   5.864   2.249   2.555  0.6967 -0.0500  0.5442
 2069TIP3    H127766   5.834   2.339   2.546  0.4721  0.0458  2.0796
 2069TIP3    H227767   5.839   2.223   2.644  1.9204 -1.1888  0.5972
 2070TIP3   OH227768   5.238   3.116   1.297  0.9173  0.0604 -0.4274
 2070TIP3    H127769   5.292   3.043   1.329  3.2096  0.9690 -1.9577
 2070TIP3    H227770   5.186   3.078   1.226  1.0073 -0.4058 -0.2507
 2071TIP3   OH227771   1.900   0.177   0.858  0.6855 -0.4775  0.3259
 2071TIP3    H127772   1.824   0.129   0.891  0.1408  0.5063  0.5203
 2071TIP3    H227773   1.910   0.146   0.768 -0.4762  0.0036  0.0104
 2072TIP3   OH227774   3.926   6.672   1.590 -0.5487  0.2280 -0.3339
 2072TIP3    H127775   3.844   6.634   1.558 -1.3816  1.4891  0.2118
 2072TIP3    H227776   3.938   6.634   1.677 -0.5503  0.0369 -0.4164
 2073TIP3   OH227777   1.843   0.811   1.630  0.1370 -0.0642  0.5569
 2073TIP3    H127778   1.776   0.873   1.657 -0.1652 -0.2598  0.2635
 2073TIP3    H227779   1.816   0.727   1.668  0.0874 -0.1934  0.2410
 2074TIP3   OH227780   1.601   4.764   1.755 -0.1284 -0.5448  0.3979
 2074TIP3    H127781   1.683   4.715   1.760 -0.0788 -0.3409  2.6701
 2074TIP3    H227782   1.566   4.760   1.843 -2.9209 -1.1378 -0.6558
 2075TIP3   OH227783   3.085   2.749   2.084  0.1727  0.9315  1.0894
 2075TIP3    H127784   3.038   2.666   2.093 -0.0301  1.0395  1.0156
 2075TIP3    H227785   3.056   2.785   2.001  1.9699 -0.0147 -0.0188
 2076TIP3   OH227786   1.186   0.138   2.749 -0.3625 -0.0101 -0.1129
 2076TIP3    H127787   1.122   0.166   2.685 -2.7633 -1.3612  1.5314
 2076TIP3    H227788   1.168   0.191   2.826 -0.6651 -1.5118  0.9066
 2077TIP3   OH227789   2.096   0.672   1.687 -0.7551  0.5564 -0.8286
 2077TIP3    H127790   2.018   0.694   1.636 -0.0801  0.4354 -1.9584
 2077TIP3    H227791   2.164   0.732   1.655  0.0985 -0.5812 -1.2323
 2078TIP3   OH227792   0.044   3.983   0.357 -0.1777  0.3561 -0.2922
 2078TIP3    H127793   0.083   4.071   0.357 -0.9872  0.7765 -2.2278
 2078TIP3    H227794   0.071   3.945   0.274 -2.2687 -0.0371 -0.8541
 2079TIP3   OH227795   3.529   4.235   1.255  0.4971  0.1652 -0.4460
 2079TIP3    H127796   3.459   4.280   1.301 -0.4706 -0.8555 -0.8667
 2079TIP3    H227797   3.545   4.156   1.306  1.6516  0.5893 -0.1249
 2080TIP3   OH227798   5.856   3.109   3.055 -0.0398 -0.3968  0.0002
 2080TIP3    H127799   5.802   3.050   3.108  1.2044 -3.0078 -1.4207
 2080TIP3    H227800   5.853   3.070   2.967  1.0769  1.5769 -0.9732
 2081TIP3   OH227801   0.559   3.426   0.636  0.0364 -0.2394 -0.3314
 2081TIP3    H127802   0.493   3.400   0.571  0.4766  1.1411 -1.3954
 2081TIP3    H227803   0.591   3.344   0.672 -0.5735 -1.0397 -1.5189
 2082TIP3   OH227804   4.237   3.300   1.668 -0.1000  0.1083 -0.2274
 2082TIP3    H127805   4.152   3.255   1.671 -0.3297  0.5578  0.1333
 2082TIP3    H227806   4.289   3.259   1.737 -0.0983 -0.0250 -0.3087
 2083TIP3   OH227807   0.848   0.628   0.347  0.6127 -0.6275  0.3343
 2083TIP3    H127808   0.868   0.546   0.301  1.7094  0.3884 -1.1064
 2083TIP3    H227809   0.756   0.619   0.372 -0.1903 -1.1721 -2.3818
 2084TIP3   OH227810   5.983   3.749   1.699  0.0981 -0.2918  0.1742
 2084TIP3    H127811   5.908   3.755   1.758 -0.3886 -0.4577 -0.4194
 2084TIP3    H227812   5.971   3.821   1.638  1.6294  1.0830  1.4240
 2085TIP3   OH227813   0.952   2.297   0.324 -0.4418  0.5085  0.5286
 2085TIP3    H127814   0.991   2.382   0.304 -0.5559  0.5406  0.4490
 2085TIP3    H227815   0.969   2.285   0.418  1.7180 -0.4605  0.0719
 2086TIP3   OH227816   6.492   0.391   7.979  0.4332 -0.5999 -0.3595
 2086TIP3    H127817   6.470   0.479   7.947  1.8838  0.0875  0.4735
 2086TIP3    H227818   6.429   0.334   7.934 -0.2647  0.7971 -1.2469
 2087TIP3   OH227819   4.303   6.413   3.350 -0.6751  0.1024 -0.6457
 2087TIP3    H127820   4.320   6.501   3.317 -1.0622 -0.3696 -2.1837
 2087TIP3    H227821   4.381   6.363   3.325 -1.4610 -0.5295 -1.9027
 2088TIP3   OH227822   5.748   6.432   1.751 -0.5517  0.5072 -0.0898
 2088TIP3    H127823   5.777   6.516   1.786  2.0541  0.2398 -1.3713
 2088TIP3    H227824   5.783   6.429   1.662  0.3941 -2.3148  0.2530
 2089TIP3   OH227825   1.449   6.217   0.130  0.3164  0.3888  0.2564
 2089TIP3    H127826   1.380   6.166   0.090  1.5493 -1.2671  0.1306
 2089TIP3    H227827   1.487   6.268   0.058 -0.2065  0.6497  0.1640
 2090TIP3   OH227828   3.821   5.996   1.460 -0.6411  0.2472  0.2035
 2090TIP3    H127829   3.875   6.035   1.390  0.3596 -1.6416 -0.1482
 2090TIP3    H227830   3.864   6.023   1.541 -0.0837  0.0385 -0.0198
 2091TIP3   OH227831   3.530   3.035   2.787 -0.3941 -0.5110 -0.0378
 2091TIP3    H127832   3.509   3.023   2.879  0.8078 -3.2277 -0.0143
 2091TIP3    H227833   3.463   2.986   2.740 -1.4106  1.4207 -0.7317
 2092TIP3   OH227834   1.993   3.647   7.466 -0.4549 -0.1050 -0.1776
 2092TIP3    H127835   2.083   3.664   7.439 -0.6009  0.6293 -0.2342
 2092TIP3    H227836   1.940   3.687   7.397 -0.8260  0.4031  0.4005
 2093TIP3   OH227837   2.691   6.763   0.196 -0.3156 -0.5074  0.7758
 2093TIP3    H127838   2.640   6.689   0.162 -1.2266  0.4249  0.0431
 2093TIP3    H227839   2.633   6.804   0.260 -1.0571  1.3351 -1.0033
 2094TIP3   OH227840   0.593   5.884   8.353  0.4564  0.1419 -0.2869
 2094TIP3    H127841   0.650   5.943   8.304 -0.8617  0.5544 -1.4180
 2094TIP3    H227842   0.544   5.942   8.411 -0.1150  0.0446 -0.6624
 2095TIP3   OH227843   6.146   6.728   7.366 -0.2566 -0.8655 -0.0906
 2095TIP3    H127844   6.178   6.706   7.278 -1.1684  0.8797 -0.9096
 2095TIP3    H227845   6.219   6.775   7.407 -0.0098 -1.2392 -0.0974
 2096TIP3   OH227846   1.513   0.072   1.272 -0.3804  0.3608  0.2558
 2096TIP3    H127847   1.529   0.047   1.363 -2.4248  0.2867  0.6458
 2096TIP3    H227848   1.441   0.134   1.276 -0.3831  0.5164 -1.3131
 2097TIP3   OH227849   5.472   2.088   8.001  0.7031  0.1515  0.0805
 2097TIP3    H127850   5.401   2.055   8.057 -0.3056  1.6181 -0.2756
 2097TIP3    H227851   5.551   2.050   8.038 -0.3250 -2.3073 -0.0605
 2098TIP3   OH227852   0.130   0.328   0.124  0.1133  0.4413 -0.3488
 2098TIP3    H127853   0.225   0.339   0.119 -0.0001  2.3136  0.6608
 2098TIP3    H227854   0.118   0.238   0.156  1.5195  0.1137 -0.6700
 2099TIP3   OH227855   5.087   6.531   0.777 -0.2061  0.4155 -0.0922
 2099TIP3    H127856   5.161   6.565   0.726 -1.0147  0.5438 -1.2280
 2099TIP3    H227857   5.021   6.508   0.711 -0.9453 -0.2712  0.8574
 2100TIP3   OH227858   2.827   6.889   0.571  0.1692  0.6642 -0.0412
 2100TIP3    H127859   2.814   6.956   0.504  2.2517 -0.2066 -1.3900
 2100TIP3    H227860   2.817   6.806   0.524  1.3378  0.0388  0.7800
 2101TIP3   OH227861   5.201   6.036   8.392  0.2483  0.5572  0.3426
 2101TIP3    H127862   5.153   5.954   8.404  0.5288  0.5036  1.2259
 2101TIP3    H227863   5.139   6.093   8.347 -0.5070  0.3572  1.0875
 2102TIP3   OH227864   3.116   6.353   3.219 -0.8135  0.6649  0.0421
 2102TIP3    H127865   3.159   6.293   3.280 -1.0957  0.4398  0.0235
 2102TIP3    H227866   3.087   6.426   3.272 -1.3468  0.3172  0.2339
 2103TIP3   OH227867   3.460   6.677   7.185  0.2568 -0.0585  0.5884
 2103TIP3    H127868   3.520   6.752   7.179  1.1288 -0.8212 -1.1942
 2103TIP3    H227869   3.465   6.637   7.098  0.4838 -2.6920  1.7487
 2104TIP3   OH227870   1.655   2.148   2.693 -0.3155 -0.0914 -0.1839
 2104TIP3    H127871   1.597   2.212   2.734 -0.7280 -0.5535 -0.0352
 2104TIP3    H227872   1.597   2.077   2.666  0.2854 -0.9822  0.7893
 2105TIP3   OH227873   2.214   6.440   1.724  0.0688  0.6200  0.0859
 2105TIP3    H127874   2.229   6.388   1.646  2.0940  1.5550 -0.2061
 2105TIP3    H227875   2.301   6.454   1.761 -0.7950  0.4923  2.3472
 2106TIP3   OH227876   2.703   0.585   1.003  0.4254  0.3102  0.1011
 2106TIP3    H127877   2.788   0.544   1.019 -0.3067 -1.2716  0.1784
 2106TIP3    H227878   2.653   0.569   1.083  0.5949  2.7989  0.7723
 2107TIP3   OH227879   4.618   1.047   0.782  0.0545 -0.2760 -0.7066
 2107TIP3    H127880   4.663   1.080   0.704 -0.3637  1.7788 -0.1352
 2107TIP3    H227881   4.548   1.110   0.797  1.0806  0.2992  2.2178
 2108TIP3   OH227882   4.242   1.781   0.699 -0.7730 -0.1714 -0.8321
 2108TIP3    H127883   4.266   1.791   0.791  3.0816 -0.7396 -1.6026
 2108TIP3    H227884   4.211   1.868   0.673  0.3563  0.6426  0.4242
 2109TIP3   OH227885   6.728   4.781   0.747 -0.3759  0.2257 -0.3051
 2109TIP3    H127886   6.658   4.832   0.708 -1.2639 -0.6059  0.1644
 2109TIP3    H227887   6.808   4.828   0.724 -1.1069  1.3614 -0.5702
 2110TIP3   OH227888   5.957   3.625   0.837  0.2196 -0.4473 -0.5780
 2110TIP3    H127889   6.043   3.660   0.860 -0.6951  1.2893  0.4446
 2110TIP3    H227890   5.930   3.574   0.913 -0.7898  1.3499  0.3384
 2111TIP3   OH227891   2.554   0.873   2.518  0.3850 -0.1597 -0.6147
 2111TIP3    H127892   2.550   0.918   2.602  2.6846  0.3351 -0.6958
 2111TIP3    H227893   2.510   0.789   2.533 -0.6942  0.5718  0.5786
 2112TIP3   OH227894   2.542   4.570   0.529  0.1924 -0.0204  0.2627
 2112TIP3    H127895   2.507   4.601   0.445  4.2932  0.0096 -1.7321
 2112TIP3    H227896   2.629   4.611   0.534  0.7850 -1.3677  3.7916
 2113TIP3   OH227897   2.564   5.894   1.824 -0.4294  0.3601 -0.1781
 2113TIP3    H127898   2.627   5.962   1.801 -0.7140  0.4443 -0.7210
 2113TIP3    H227899   2.535   5.858   1.740 -1.9823  1.1324  0.0005
 2114TIP3   OH227900   1.051   3.607   1.388  0.1845  0.3695 -0.1309
 2114TIP3    H127901   1.053   3.628   1.295  1.1225  0.0985 -0.1745
 2114TIP3    H227902   1.043   3.511   1.391  0.0325  0.3860  0.0746
 2115TIP3   OH227903   0.814   5.594   0.587 -0.8836  0.2308 -0.1554
 2115TIP3    H127904   0.725   5.602   0.552 -0.7387  1.3106 -0.3261
 2115TIP3    H227905   0.866   5.653   0.532  0.0210 -0.7029 -0.3130
 2116TIP3   OH227906   6.909   1.309   1.150 -0.5726  0.0700 -0.4047
 2116TIP3    H127907   6.938   1.264   1.070 -0.9551  1.7308 -1.5141
 2116TIP3    H227908   6.991   1.333   1.194 -0.3540 -0.1873 -0.6610
 2117TIP3   OH227909   5.463   0.316   8.535  0.5513  0.0738  0.0537
 2117TIP3    H127910   5.487   0.245   8.474  1.1264  1.2850 -1.1768
 2117TIP3    H227911   5.401   0.370   8.486  0.8630  0.9704  0.6277
 2118TIP3   OH227912   2.017   6.203   0.713  0.4731 -0.0751 -0.4289
 2118TIP3    H127913   1.965   6.268   0.759  1.0462  1.0073 -1.2613
 2118TIP3    H227914   1.953   6.148   0.669 -0.0039  0.5064 -0.4781
 2119TIP3   OH227915   4.446   2.936   1.139  0.6232 -0.0353 -0.2755
 2119TIP3    H127916   4.380   2.970   1.199  0.9570 -0.1974  0.1806
 2119TIP3    H227917   4.416   2.847   1.119 -0.0608  0.3745 -1.1949
 2120TIP3   OH227918   5.176   1.685   0.467  0.0073 -1.2171 -0.3591
 2120TIP3    H127919   5.183   1.671   0.373 -0.7111  0.2306 -0.6590
 2120TIP3    H227920   5.108   1.625   0.496 -0.5813 -0.8563 -0.9800
 2121TIP3   OH227921   5.283   1.417   2.538 -0.6984 -0.1635  0.2786
 2121TIP3    H127922   5.261   1.431   2.630 -1.5201  0.2682  0.0314
 2121TIP3    H227923   5.259   1.326   2.520 -0.6587 -0.2095  0.4615
 2122TIP3   OH227924   2.237   2.597   0.953  0.2271 -0.2534 -0.2420
 2122TIP3    H127925   2.251   2.594   1.047  1.6479 -2.5247 -0.4464
 2122TIP3    H227926   2.322   2.577   0.915 -0.4244  0.1414 -2.0109
 2123TIP3   OH227927   0.305   3.087   1.619  0.0786 -0.2398  0.5025
 2123TIP3    H127928   0.264   3.170   1.594  0.9882 -0.4312 -1.8625
 2123TIP3    H227929   0.251   3.020   1.577 -0.9129 -0.9475  2.7543
 2124TIP3   OH227930   6.494   6.054   0.180  0.1158  0.7616  0.5622
 2124TIP3    H127931   6.410   6.009   0.174  0.4270  0.3605 -1.6032
 2124TIP3    H227932   6.559   5.985   0.168  0.6522  1.4469 -0.7223
 2125TIP3   OH227933   0.938   3.906   1.042  0.1904  0.3939 -0.6462
 2125TIP3    H127934   0.872   3.946   1.098  0.1585 -0.4835 -0.0327
 2125TIP3    H227935   1.002   3.976   1.027 -0.4278  0.9941 -0.5300
 2126TIP3   OH227936   3.900   1.215   8.074  0.3529 -0.3169 -0.4256
 2126TIP3    H127937   3.919   1.260   7.992  1.2027 -0.2078 -0.1742
 2126TIP3    H227938   3.809   1.240   8.095  0.5813  0.7454 -0.6350
 2127TIP3   OH227939   2.846   4.708   0.476 -0.7109  0.1802 -0.1145
 2127TIP3    H127940   2.825   4.743   0.389 -1.8279  1.2523  0.5500
 2127TIP3    H227941   2.896   4.778   0.519 -0.3161 -0.2725  0.1669
 2128TIP3   OH227942   2.496   3.683   1.643  0.3269 -0.7194  0.4743
 2128TIP3    H127943   2.486   3.635   1.561 -0.1636  0.3386 -0.1025
 2128TIP3    H227944   2.532   3.768   1.617  0.0745 -0.3374  1.3407
 2129TIP3   OH227945   0.108   4.698   0.640  0.6362 -0.1623  0.3569
 2129TIP3    H127946   0.136   4.789   0.641 -0.2995  0.1438  1.3995
 2129TIP3    H227947   0.068   4.685   0.554  2.3071 -0.1023 -0.4537
 2130TIP3   OH227948   6.106   2.979   8.072  0.1696  0.5963 -0.4153
 2130TIP3    H127949   6.105   3.073   8.091 -1.4075  0.5922 -0.3958
 2130TIP3    H227950   6.127   2.974   7.979  1.3132  0.8910 -0.2011
 2131TIP3   OH227951   4.978   1.453   7.141 -0.2188 -0.3042  0.3322
 2131TIP3    H127952   4.911   1.498   7.193 -0.3138 -0.6271  0.4872
 2131TIP3    H227953   4.942   1.452   7.052 -1.7138 -2.9039  0.8532
 2132TIP3   OH227954   6.891   4.404   7.410  0.0935  0.2123  0.2224
 2132TIP3    H127955   6.904   4.311   7.391 -0.5291 -0.2237  1.7678
 2132TIP3    H227956   6.975   4.433   7.445  0.2851  0.2356 -0.2499
 2133TIP3   OH227957   5.850   1.060   1.933  0.0510 -0.3738  0.2157
 2133TIP3    H127958   5.781   1.013   1.979 -0.4982 -0.8266 -1.0241
 2133TIP3    H227959   5.906   0.991   1.898  1.4112 -0.0071  1.5745
 2134TIP3   OH227960   2.103   1.255   8.385  0.1110 -0.5803 -0.3144
 2134TIP3    H127961   2.093   1.341   8.345 -0.3462  0.4215  1.7894
 2134TIP3    H227962   2.144   1.273   8.470  1.3071 -2.6016 -0.4010
 2135TIP3   OH227963   1.801   2.766   7.308  0.6537  0.0871 -0.0178
 2135TIP3    H127964   1.891   2.753   7.277  0.9126  1.3768  0.1244
 2135TIP3    H227965   1.811   2.815   7.390 -0.1726  0.3922 -0.0887
 2136TIP3   OH227966   5.991   4.224   1.142  0.3926 -0.0601  0.2833
 2136TIP3    H127967   5.907   4.267   1.127 -0.8880 -2.2972  0.6477
 2136TIP3    H227968   5.970   4.150   1.199  3.0613  0.8100  2.6389
 2137TIP3   OH227969   2.770   1.926   0.089 -0.0971 -0.0064 -0.1689
 2137TIP3    H127970   2.816   1.989   0.033  0.3137  0.8915  1.1393
 2137TIP3    H227971   2.807   1.841   0.065  2.7663  0.7261  1.2398
 2138TIP3   OH227972   0.232   5.865   7.055 -0.4397  0.2560 -0.4545
 2138TIP3    H127973   0.145   5.902   7.071  0.1735  1.6793 -0.3268
 2138TIP3    H227974   0.249   5.811   7.133 -2.2654 -2.2191 -1.6237
 2139TIP3   OH227975   0.652   0.967   3.371 -0.0791 -0.2101 -0.2523
 2139TIP3    H127976   0.684   0.877   3.361 -0.0432 -0.2209 -0.0449
 2139TIP3    H227977   0.564   0.966   3.334  0.2498 -0.1243 -1.0531
 2140TIP3   OH227978   6.162   4.586   1.948 -0.0035 -0.4530  0.7865
 2140TIP3    H127979   6.194   4.664   1.902 -1.1431 -1.2670 -1.5676
 2140TIP3    H227980   6.084   4.615   1.993 -1.9221 -0.6141 -2.1461
 2141TIP3   OH227981   5.779   1.877   2.997 -0.1059  0.5360 -0.3118
 2141TIP3    H127982   5.688   1.862   3.024  0.6545  0.6843  2.6237
 2141TIP3    H227983   5.823   1.906   3.077  2.8823 -0.9977 -1.2846
 2142TIP3   OH227984   1.842   2.266   0.661  0.5720  0.0465 -0.5843
 2142TIP3    H127985   1.816   2.353   0.693 -0.3444 -1.0099  1.7917
 2142TIP3    H227986   1.769   2.239   0.605 -0.3056 -0.1008  0.5788
 2143TIP3   OH227987   5.590   0.073   1.766 -0.2766 -0.0341  0.3983
 2143TIP3    H127988   5.665   0.075   1.826 -0.3270 -0.0762  0.4636
 2143TIP3    H227989   5.532   0.005   1.802 -0.8671  0.7543  0.9827
 2144TIP3   OH227990   0.630   6.334   0.644 -0.6896  0.0590  0.6520
 2144TIP3    H127991   0.625   6.382   0.727 -2.3284  0.7347  0.1926
 2144TIP3    H227992   0.614   6.400   0.577  1.2913 -0.3430 -0.3039
 2145TIP3   OH227993   6.683   3.385   3.091  0.1227 -0.5744 -0.5549
 2145TIP3    H127994   6.634   3.334   3.155  0.8265 -1.1531 -0.4686
 2145TIP3    H227995   6.746   3.434   3.143  1.2189 -1.6315 -0.8513
 2146TIP3   OH227996   4.952   6.070   2.414  0.0152  0.3431  0.4860
 2146TIP3    H127997   4.886   6.075   2.483 -0.9226 -0.0548 -0.3448
 2146TIP3    H227998   4.926   6.139   2.352 -2.0360 -2.2519 -1.8155
 2147TIP3   OH227999   2.029   3.098   7.645 -0.1183 -0.0235 -0.0293
 2147TIP3    H128000   2.092   3.165   7.619  0.0737  0.2938  1.1823
 2147TIP3    H228001   1.981   3.138   7.717 -0.5051 -0.9263  0.2195
 2148TIP3   OH228002   4.195   1.661   8.186  0.1268 -0.4919 -0.5488
 2148TIP3    H128003   4.217   1.653   8.094  0.8725 -1.1938 -0.3272
 2148TIP3    H228004   4.271   1.704   8.225 -0.7609  1.0743 -0.4766
 2149TIP3   OH228005   3.859   2.886   1.356 -0.2793 -1.0916  0.0682
 2149TIP3    H128006   3.781   2.883   1.411 -1.7816 -0.6017 -1.8996
 2149TIP3    H228007   3.825   2.892   1.266  2.0301 -1.2601 -0.9008
 2150TIP3   OH228008   3.219   2.997   3.786 -0.4040  0.2710 -0.0829
 2150TIP3    H128009   3.267   3.074   3.754 -1.0803  1.1029  0.8175
 2150TIP3    H228010   3.203   2.944   3.709  1.1978  0.4057 -0.5348
 2151TIP3   OH228011   2.945   6.570   2.708  0.8718  0.3664 -0.8545
 2151TIP3    H128012   3.029   6.609   2.685  1.5940  1.6444  3.0587
 2151TIP3    H228013   2.898   6.640   2.755 -1.8764 -0.7147 -1.7838
 2152TIP3   OH228014   5.774   4.545   2.727  0.0657  0.2616  0.9419
 2152TIP3    H128015   5.710   4.611   2.754  1.3641  1.6565  0.7757
 2152TIP3    H228016   5.852   4.596   2.703 -0.1724 -0.9684 -3.1990
 2153TIP3   OH228017   1.199   2.281   2.249  0.0042 -0.2358 -0.3224
 2153TIP3    H128018   1.275   2.239   2.290 -1.0493 -0.3400  1.6303
 2153TIP3    H228019   1.127   2.265   2.310 -1.5789 -0.0119 -2.0475
 2154TIP3   OH228020   6.117   5.728   2.193 -0.0217  0.1243  0.2305
 2154TIP3    H128021   6.062   5.686   2.259  0.4250 -2.7720 -1.0597
 2154TIP3    H228022   6.194   5.671   2.186  1.7717  2.4299 -0.1397
 2155TIP3   OH228023   2.824   1.976   1.905 -0.4649 -0.0983  0.6622
 2155TIP3    H128024   2.739   1.960   1.863 -0.3442  0.6277  0.1096
 2155TIP3    H228025   2.811   1.952   1.996 -1.0059 -0.8360  0.3982
 2156TIP3   OH228026   6.504   2.818   2.847  0.5631 -0.2458  0.2767
 2156TIP3    H128027   6.556   2.777   2.916  0.8576  0.2907  0.3845
 2156TIP3    H228028   6.568   2.854   2.787  0.3018 -0.8556 -0.3735
 2157TIP3   OH228029   6.225   4.935   1.551 -0.2475  0.3692  0.0862
 2157TIP3    H128030   6.177   4.997   1.496 -0.4026  1.2915  1.2212
 2157TIP3    H228031   6.296   4.987   1.589  0.1985 -0.3930  0.3217
 2158TIP3   OH228032   3.270   4.827   8.044 -0.0415  0.4159  0.2700
 2158TIP3    H128033   3.305   4.835   7.956 -0.2194 -0.4632  0.1057
 2158TIP3    H228034   3.256   4.733   8.056 -0.5034  0.5684  1.0418
 2159TIP3   OH228035   5.202   6.541   3.348 -0.2940  0.1006  0.0448
 2159TIP3    H128036   5.241   6.469   3.299  0.5095  1.8886 -2.1598
 2159TIP3    H228037   5.118   6.508   3.378  0.4109 -1.9941 -0.1578
 2160TIP3   OH228038   2.225   2.849   0.828  0.2698 -0.6469  0.2690
 2160TIP3    H128039   2.230   2.763   0.869  1.9075 -1.2528 -1.0958
 2160TIP3    H228040   2.135   2.855   0.795 -0.0604 -1.5376  0.9814
 2161TIP3   OH228041   2.742   3.535   7.365  0.0009  0.2781 -0.0039
 2161TIP3    H128042   2.659   3.549   7.320 -0.5467  0.7281  1.1166
 2161TIP3    H228043   2.735   3.586   7.445  1.5055  0.5957 -0.0534
 2162TIP3   OH228044   5.158   1.910   1.160  0.0414  0.0430  0.4092
 2162TIP3    H128045   5.089   1.976   1.151 -0.4103 -0.1178  2.2560
 2162TIP3    H228046   5.139   1.866   1.243  0.8406 -1.8306 -0.3373
 2163TIP3   OH228047   1.000   0.869   1.236  0.3830  0.0693 -0.1592
 2163TIP3    H128048   0.928   0.812   1.263  0.2838  1.2411  2.2854
 2163TIP3    H228049   0.960   0.931   1.175 -0.2325 -0.4255 -0.2724
 2164TIP3   OH228050   1.455   4.552   1.998 -0.1559 -0.0170 -0.1704
 2164TIP3    H128051   1.387   4.619   1.994 -0.8656 -0.6638  0.6493
 2164TIP3    H228052   1.424   4.482   1.941  0.6939  0.4218 -1.2108
 2165TIP3   OH228053   5.625   3.554   1.821 -0.3199  0.4115 -0.7261
 2165TIP3    H128054   5.549   3.580   1.872 -1.3653  1.1108 -2.5433
 2165TIP3    H228055   5.687   3.626   1.832 -0.3703  0.3776 -0.1689
 2166TIP3   OH228056   1.501   0.588   8.366 -0.3620 -0.1718  0.0741
 2166TIP3    H128057   1.524   0.639   8.444  1.6104 -0.9682  0.0604
 2166TIP3    H228058   1.478   0.654   8.300  3.4189  0.9502 -0.3844
 2167TIP3   OH228059   1.223   1.921   7.656 -0.2290 -0.1388  0.2186
 2167TIP3    H128060   1.306   1.882   7.626 -1.2332 -1.6904 -0.6651
 2167TIP3    H228061   1.249   2.006   7.692  1.7358 -0.5289 -0.1342
 2168TIP3   OH228062   6.778   2.793   0.756 -0.2929 -0.2517 -0.2769
 2168TIP3    H128063   6.689   2.800   0.719 -0.0939 -0.0488 -0.7300
 2168TIP3    H228064   6.798   2.883   0.784 -0.0434 -0.2023 -0.6173
 2169TIP3   OH228065   4.393   0.886   8.288  0.1913 -0.0202 -0.0400
 2169TIP3    H128066   4.483   0.863   8.266  0.1695 -0.3680  0.2336
 2169TIP3    H228067   4.396   0.981   8.303  1.0524 -0.3717  2.4777
 2170TIP3   OH228068   6.139   2.031   1.830 -0.2791 -0.3744  0.1211
 2170TIP3    H128069   6.143   2.125   1.846 -0.4274  0.1426 -2.3825
 2170TIP3    H228070   6.221   1.996   1.865  0.3100  0.8906  0.0436
 2171TIP3   OH228071   0.066   1.255   2.126  0.7510 -0.0321 -0.0057
 2171TIP3    H128072   0.044   1.339   2.085  0.7960 -0.4182 -0.8252
 2171TIP3    H228073   0.010   1.192   2.082  1.0174 -0.5013  0.3270
 2172TIP3   OH228074   5.369   4.370   3.263  0.4856 -0.3900 -0.1414
 2172TIP3    H128075   5.369   4.463   3.242  0.8395 -0.6162 -1.2096
 2172TIP3    H228076   5.357   4.367   3.358 -0.7689  0.6922 -0.2438
 2173TIP3   OH228077   4.089   5.513   3.120  0.2812 -0.0509 -0.4184
 2173TIP3    H128078   4.064   5.464   3.042 -0.7389 -0.2924  0.0463
 2173TIP3    H228079   4.089   5.449   3.190 -0.6227  0.5044  0.1130
 2174TIP3   OH228080   6.171   1.161   7.981 -0.1050 -0.1883 -0.1610
 2174TIP3    H128081   6.199   1.241   7.937  0.5694 -1.4128 -2.0907
 2174TIP3    H228082   6.252   1.119   8.010 -0.3642 -0.7637 -0.2522
 2175TIP3   OH228083   1.506   0.563   2.107 -0.3685 -0.2721 -0.4291
 2175TIP3    H128084   1.433   0.590   2.162 -0.7498  0.5869 -1.3142
 2175TIP3    H228085   1.543   0.645   2.074  0.9657 -0.6933 -0.0497
 2176TIP3   OH228086   5.624   5.962   2.229 -0.2804  0.7533 -0.1265
 2176TIP3    H128087   5.703   6.004   2.264  0.9753 -2.4210  1.2659
 2176TIP3    H228088   5.658   5.893   2.172 -2.1680  0.8982 -1.4759
 2177TIP3   OH228089   4.786   0.299   7.242  0.1398 -0.8091 -0.2902
 2177TIP3    H128090   4.691   0.289   7.246  0.1791 -0.7743  2.2799
 2177TIP3    H228091   4.808   0.281   7.150 -2.3536 -0.4628 -1.0399
 2178TIP3   OH228092   6.602   5.639   8.209  0.1905  0.6514 -0.4888
 2178TIP3    H128093   6.603   5.548   8.181  1.4436  0.5974 -0.3282
 2178TIP3    H228094   6.517   5.672   8.181  1.2569  0.5850 -4.3226
 2179TIP3   OH228095   6.783   6.456   2.662  0.3705  0.4183  0.6376
 2179TIP3    H128096   6.783   6.551   2.650  2.8788  0.2715 -1.3634
 2179TIP3    H228097   6.786   6.420   2.573 -1.0523 -1.5998  1.3160
 2180TIP3   OH228098   6.694   4.646   2.171  0.3034 -0.2291  0.1705
 2180TIP3    H128099   6.658   4.558   2.176  0.9243 -0.4804  0.3992
 2180TIP3    H228100   6.637   4.699   2.227 -1.2666 -0.0466 -1.5221
 2181TIP3   OH228101   2.629   3.235   1.125 -0.2739 -0.2030 -0.0791
 2181TIP3    H128102   2.544   3.246   1.169  0.2072  1.7229  0.4400
 2181TIP3    H228103   2.626   3.294   1.050  0.4382 -0.4960 -0.3477
 2182TIP3   OH228104   3.849   1.037   0.452  0.2570  0.3986  0.2001
 2182TIP3    H128105   3.886   1.057   0.367  0.5157 -0.0190  0.2106
 2182TIP3    H228106   3.771   0.984   0.432  1.3715 -1.3475  0.2668
 2183TIP3   OH228107   5.666   4.276   8.299  0.7014  0.5035  0.2488
 2183TIP3    H128108   5.580   4.315   8.287  1.1177  1.3054 -0.2215
 2183TIP3    H228109   5.715   4.301   8.221  1.0327 -0.8876 -0.0229
 2184TIP3   OH228110   1.657   5.310   1.519  0.7649 -0.7583  0.1985
 2184TIP3    H128111   1.581   5.338   1.570  0.2303 -0.6811 -0.6284
 2184TIP3    H228112   1.639   5.218   1.499  1.0799 -0.8514  0.3464
 2185TIP3   OH228113   5.669   3.440   0.855  0.6654  0.4616  0.5218
 2185TIP3    H128114   5.577   3.420   0.842  0.6437 -1.2400  2.6500
 2185TIP3    H228115   5.713   3.355   0.849  1.3845  0.3969  4.3629
 2186TIP3   OH228116   5.154   2.229   7.968 -0.5466  0.4579 -0.6373
 2186TIP3    H128117   5.085   2.276   7.921 -1.5557  1.4970  1.7039
 2186TIP3    H228118   5.221   2.295   7.984 -0.3395  0.1929 -0.3983
 2187TIP3   OH228119   0.971   0.840   0.015 -0.4472  0.8334  0.1234
 2187TIP3    H128120   1.025   0.916   0.039  0.2136  0.4338 -0.0751
 2187TIP3    H228121   1.025   0.764   0.038  0.2563  0.4092 -2.5440
 2188TIP3   OH228122   3.865   5.693   8.386 -0.3182  0.0715 -0.0003
 2188TIP3    H128123   3.855   5.598   8.393 -1.5767  0.0650 -1.5511
 2188TIP3    H228124   3.948   5.711   8.430 -0.5416 -1.6111  1.2044
 2189TIP3   OH228125   6.672   0.298   2.736  0.6275  0.0431 -0.7043
 2189TIP3    H128126   6.668   0.368   2.670  0.0900 -0.1901 -0.9322
 2189TIP3    H228127   6.745   0.322   2.792 -0.4139  1.5711  0.0902
 2190TIP3   OH228128   3.490   5.580   1.902  0.4407 -0.6512 -0.3498
 2190TIP3    H128129   3.503   5.486   1.919  0.2707 -0.5203  0.5402
 2190TIP3    H228130   3.523   5.623   1.980 -0.5732 -0.0345 -0.2510
 2191TIP3   OH228131   2.962   1.666   2.860 -0.3273  0.1172 -0.4873
 2191TIP3    H128132   3.051   1.667   2.896  0.2945  0.8990 -1.9204
 2191TIP3    H228133   2.965   1.732   2.790 -1.9807 -0.0069 -0.7008
 2192TIP3   OH228134   4.640   4.099   8.385  0.2254  0.9978 -0.2215
 2192TIP3    H128135   4.571   4.036   8.404  0.5382  0.2801 -1.4146
 2192TIP3    H228136   4.692   4.102   8.465  2.6536 -3.3982 -1.3046
 2193TIP3   OH228137   0.629   2.588   7.784 -0.2473  0.0737 -0.2006
 2193TIP3    H128138   0.713   2.622   7.815 -0.4455 -0.1570  0.5956
 2193TIP3    H228139   0.602   2.651   7.716  0.4336  0.2971 -0.2722
 2194TIP3   OH228140   3.595   1.363   1.110  0.0933  0.0134 -0.6984
 2194TIP3    H128141   3.616   1.403   1.194 -1.1885 -1.5193  0.4093
 2194TIP3    H228142   3.668   1.386   1.053  1.5429  0.1688  1.1501
 2195TIP3   OH228143   6.253   5.728   8.136  0.1140 -0.0465 -0.0269
 2195TIP3    H128144   6.267   5.746   8.043 -1.6800 -0.3461 -0.3905
 2195TIP3    H228145   6.200   5.648   8.137 -1.8049  1.1653  1.1386
 2196TIP3   OH228146   4.527   3.617   8.013  0.4242  0.1238  0.1700
 2196TIP3    H128147   4.555   3.680   7.947  0.8173  0.6033  0.7839
 2196TIP3    H228148   4.448   3.656   8.051  1.6166  1.1400  1.7519
 2197TIP3   OH228149   2.863   1.151   0.754  0.1626  0.4658  0.1253
 2197TIP3    H128150   2.814   1.175   0.676  0.2267 -0.3665 -0.1689
 2197TIP3    H228151   2.799   1.109   0.811  0.7905 -2.0702 -0.8971
 2198TIP3   OH228152   4.554   6.757   1.157 -0.1934  0.4250 -0.2476
 2198TIP3    H128153   4.463   6.767   1.186 -0.0280  1.3642 -0.0290
 2198TIP3    H228154   4.591   6.845   1.165  0.8575 -0.0367  0.0647
 2199TIP3   OH228155   1.178   4.582   6.915  0.1565  0.6946  0.2172
 2199TIP3    H128156   1.239   4.652   6.936  0.1553  0.5815  0.6127
 2199TIP3    H228157   1.101   4.600   6.969  0.8593 -0.6145  1.7510
 2200TIP3   OH228158   6.193   3.416   2.328 -0.4041  0.9852  0.4942
 2200TIP3    H128159   6.256   3.485   2.305  1.5889 -1.5733 -2.4540
 2200TIP3    H228160   6.115   3.437   2.277 -0.9906  2.5939  1.9468
 2201TIP3   OH228161   3.077   6.074   8.466  0.6684 -0.2977 -0.2761
 2201TIP3    H128162   3.160   6.085   8.512  2.2805  2.2827 -3.3591
 2201TIP3    H228163   3.087   5.992   8.418  2.0419  0.5335 -1.5101
 2202TIP3   OH228164   0.774   3.216   1.030  0.3409  0.2356  0.1385
 2202TIP3    H128165   0.786   3.162   1.108 -1.5762  1.1565  1.1463
 2202TIP3    H228166   0.835   3.289   1.041  2.3766 -1.2238 -0.8491
 2203TIP3   OH228167   1.024   0.054   7.390  0.0594  0.2458 -0.0045
 2203TIP3    H128168   0.995   0.101   7.312  1.8948  0.2261 -0.7548
 2203TIP3    H228169   1.077  -0.019   7.356  0.0094 -0.3981  1.2285
 2204TIP3   OH228170   2.477   2.457   8.125  0.4267 -0.2362  0.1452
 2204TIP3    H128171   2.462   2.511   8.203  2.1488  0.9152 -0.2604
 2204TIP3    H228172   2.440   2.372   8.148  0.0323  0.3385  1.8476
 2205TIP3   OH228173   3.838   2.630   3.173 -0.5594 -0.1149 -0.8533
 2205TIP3    H128174   3.892   2.553   3.189 -0.8186  0.1512  1.6956
 2205TIP3    H228175   3.826   2.632   3.078  1.8987 -1.5147 -1.2726
 2206TIP3   OH228176   1.816   4.115   7.931  0.3189 -0.4959 -0.3096
 2206TIP3    H128177   1.824   4.054   7.858 -0.6668 -3.5053  1.8784
 2206TIP3    H228178   1.725   4.143   7.929  0.4510 -0.0738 -0.5711
 2207TIP3   OH228179   4.301   2.726   0.360  0.4326 -0.2803 -0.3578
 2207TIP3    H128180   4.300   2.818   0.387  0.3680 -0.3989  0.0537
 2207TIP3    H228181   4.228   2.687   0.408 -1.6009  0.1120 -2.8738
 2208TIP3   OH228182   5.093   2.990   3.098 -0.0018  0.1285 -0.1269
 2208TIP3    H128183   5.148   2.977   3.175 -0.3984 -1.2842 -0.0609
 2208TIP3    H228184   5.065   3.082   3.104  0.0602  0.0761  1.3516
 2209TIP3   OH228185   2.604   5.516   1.623 -0.2647 -0.0778  0.4753
 2209TIP3    H128186   2.611   5.533   1.717  1.5079  1.1620  0.1649
 2209TIP3    H228187   2.676   5.456   1.604 -0.3674 -0.0059 -0.1537
 2210TIP3   OH228188   1.302   2.403   3.664  0.4551  0.1828  0.2257
 2210TIP3    H128189   1.346   2.484   3.689 -0.0279  0.3216  0.6375
 2210TIP3    H228190   1.230   2.431   3.607  0.7688 -0.0251 -0.2754
 2211TIP3   OH228191   0.583   6.332   2.285  0.3730  0.2848  0.4106
 2211TIP3    H128192   0.503   6.283   2.303 -1.0533  2.6338  0.9122
 2211TIP3    H228193   0.558   6.395   2.217  2.0739  0.4398 -0.1350
 2212TIP3   OH228194   0.075   6.146   8.183 -0.4477  0.1116  0.1742
 2212TIP3    H128195   0.167   6.171   8.194 -1.1072  2.8695  0.3556
 2212TIP3    H228196   0.071   6.108   8.095  1.0335 -1.1554  0.6173
 2213TIP3   OH228197   3.297   2.077   2.698  0.1817  0.2545 -0.1851
 2213TIP3    H128198   3.305   2.046   2.788  2.1148 -1.8114 -0.9803
 2213TIP3    H228199   3.357   2.152   2.693 -1.4197  1.6638  0.6867
 2214TIP3   OH228200   6.636   0.026   2.716  0.0571  0.1823  0.3231
 2214TIP3    H128201   6.586   0.029   2.634  0.1884 -1.3670  0.1407
 2214TIP3    H228202   6.659   0.117   2.734 -1.0765  0.6955 -0.6750
 2215TIP3   OH228203   2.783   6.070   1.747 -0.1625 -0.1299 -0.2552
 2215TIP3    H128204   2.824   6.104   1.826  1.5364 -2.2267 -0.1465
 2215TIP3    H228205   2.809   6.131   1.678  0.0854  0.5506  0.4218
 2216TIP3   OH228206   5.238   1.834   2.139  0.0014 -0.0869  0.2478
 2216TIP3    H128207   5.258   1.883   2.219  0.0811 -0.4393  0.4463
 2216TIP3    H228208   5.250   1.743   2.163  2.4944 -0.1143 -0.8493
 2217TIP3   OH228209   1.397   4.863   1.097  0.1457 -0.1749  0.0879
 2217TIP3    H128210   1.455   4.813   1.154 -0.8200 -0.4228  0.8840
 2217TIP3    H228211   1.316   4.874   1.149 -0.3906  0.4530 -0.8525
 2218TIP3   OH228212   1.812   5.702   2.064  0.3265  0.2577 -0.3382
 2218TIP3    H128213   1.763   5.679   2.143  2.8298 -0.9586  1.0018
 2218TIP3    H228214   1.788   5.634   2.001  1.5019 -1.3992  0.8962
 2219TIP3   OH228215   0.026   0.246   1.810 -0.8232 -0.5972  0.6422
 2219TIP3    H128216   0.115   0.220   1.834  0.4170  2.3776 -0.2890
 2219TIP3    H228217  -0.028   0.224   1.886  1.4295  1.0397  2.8351
 2220TIP3   OH228218   2.167   1.287   0.080  0.2074 -0.1464  0.3469
 2220TIP3    H128219   2.154   1.371   0.123  1.3935  0.9176 -1.2875
 2220TIP3    H228220   2.244   1.250   0.123 -0.2741 -0.4085  1.0173
 2221TIP3   OH228221   4.481   6.375   1.816  0.0803  0.0823  0.3910
 2221TIP3    H128222   4.480   6.303   1.753 -0.3717  1.2287 -0.9608
 2221TIP3    H228223   4.421   6.347   1.885 -1.3945 -0.1678 -0.9310
 2222TIP3   OH228224   3.130   2.212   7.733 -0.5267 -1.0995  0.0997
 2222TIP3    H128225   3.095   2.277   7.794 -0.5401 -0.9248 -0.0915
 2222TIP3    H228226   3.054   2.183   7.683 -0.5473 -1.3793  0.2909
 2223TIP3   OH228227   5.905   0.697   0.249  0.0833 -0.0385  0.1165
 2223TIP3    H128228   5.835   0.658   0.195  0.7515 -1.0882 -0.0244
 2223TIP3    H228229   5.871   0.783   0.273 -1.1500 -0.4116 -0.1788
 2224TIP3   OH228230   6.229   3.479   1.194 -0.3757  0.1384  0.3354
 2224TIP3    H128231   6.281   3.414   1.240 -0.9010 -0.6021 -0.1010
 2224TIP3    H228232   6.276   3.493   1.112 -0.7132 -0.3318  0.0579
 2225TIP3   OH228233   5.756   3.799   2.665 -0.0011 -0.5251  0.1751
 2225TIP3    H128234   5.845   3.791   2.701 -0.4479 -2.3297  0.9990
 2225TIP3    H228235   5.747   3.722   2.608 -0.8987 -0.1406 -0.2121
 2226TIP3   OH228236   2.405   4.928   1.872 -0.3832 -0.4249 -0.5049
 2226TIP3    H128237   2.319   4.887   1.868 -0.7096  0.3126 -1.4239
 2226TIP3    H228238   2.425   4.951   1.781  0.6020 -0.2157 -0.2483
 2227TIP3   OH228239   5.093   1.936   0.074 -0.2221  0.0701 -0.5603
 2227TIP3    H128240   5.148   1.866   0.038  2.3426  2.2315 -1.1831
 2227TIP3    H228241   5.133   1.957   0.158 -2.7228 -1.0373  1.0302
 2228TIP3   OH228242   0.018   2.409   2.243  0.2488 -0.3369 -0.5457
 2228TIP3    H128243  -0.008   2.499   2.264  1.3811 -0.1658  0.2567
 2228TIP3    H228244  -0.031   2.388   2.164  0.3570  1.1755 -1.0570
 2229TIP3   OH228245   4.656   2.544   1.066 -0.1279  0.2113  0.0209
 2229TIP3    H128246   4.722   2.586   1.121  0.0229  0.2219 -0.1695
 2229TIP3    H228247   4.670   2.450   1.078  1.0494  0.1873 -1.3583
 2230TIP3   OH228248   6.856   1.910   2.733 -0.0914 -0.4154  0.4813
 2230TIP3    H128249   6.851   1.819   2.703  0.1476 -0.2021 -0.2402
 2230TIP3    H228250   6.948   1.923   2.756 -0.5951 -1.1339  3.2111
 2231TIP3   OH228251   3.389   5.927   3.440  0.2564  0.1068  0.1709
 2231TIP3    H128252   3.417   6.014   3.411  2.4309  0.0368  1.7359
 2231TIP3    H228253   3.460   5.869   3.413 -1.2812 -1.2821 -1.0735
 2232TIP3   OH228254   2.643   6.559   7.264  0.2662  0.0517 -0.0041
 2232TIP3    H128255   2.648   6.648   7.228  3.0201  0.4259  1.0911
 2232TIP3    H228256   2.650   6.572   7.359 -1.1520 -1.2692  0.3234
 2233TIP3   OH228257   4.709   6.523   7.975  0.2485  0.1760 -0.6052
 2233TIP3    H128258   4.630   6.569   8.004  0.7060  1.0471 -0.7085
 2233TIP3    H228259   4.716   6.543   7.882  0.6285  0.1632 -0.5808
 2234TIP3   OH228260   2.909   6.567   0.464  0.5426 -0.1301 -0.1892
 2234TIP3    H128261   3.003   6.581   0.456  0.5305 -1.1400 -3.1572
 2234TIP3    H228262   2.881   6.538   0.377 -2.7029  1.1322  0.2844
 2235TIP3   OH228263   4.358   0.692   8.494  0.0326  1.2497  0.3295
 2235TIP3    H128264   4.365   0.755   8.566 -0.6216  1.0340  0.5941
 2235TIP3    H228265   4.367   0.745   8.415 -0.1437  1.6216  0.5557
 2236TIP3   OH228266   0.796   3.888   1.999  0.5199  0.1173 -0.0144
 2236TIP3    H128267   0.714   3.933   2.016  0.3464  0.7891 -2.3030
 2236TIP3    H228268   0.822   3.917   1.911  3.0387 -0.3358  0.4999
 2237TIP3   OH228269   4.419   0.210   7.484 -0.6338 -0.4339 -0.0473
 2237TIP3    H128270   4.383   0.293   7.516  0.7310  0.4033 -0.5746
 2237TIP3    H228271   4.482   0.184   7.551 -1.9154 -1.7095  0.7103
 2238TIP3   OH228272   3.639   5.609   1.509  0.1395  0.4042  0.5844
 2238TIP3    H128273   3.729   5.599   1.478 -0.1978  2.3236 -1.1989
 2238TIP3    H228274   3.598   5.666   1.445 -2.0015  0.6400  2.0862
 2239TIP3   OH228275   3.253   2.743   2.297 -0.4999  0.2543 -0.4246
 2239TIP3    H128276   3.341   2.750   2.259 -0.1698  0.7382  0.3995
 2239TIP3    H228277   3.194   2.745   2.222  0.1747  0.3120 -0.9652
 2240TIP3   OH228278   2.841   3.967   7.663 -0.1772 -0.4927  0.0369
 2240TIP3    H128279   2.889   3.897   7.707  0.4290 -0.1656 -0.0988
 2240TIP3    H228280   2.840   3.941   7.571 -0.9277 -0.8795  0.1494
 2241TIP3   OH228281   0.806   0.549   2.428  0.0152  0.1081 -0.7197
 2241TIP3    H128282   0.891   0.571   2.390  0.4084 -0.7896 -0.3989
 2241TIP3    H228283   0.803   0.597   2.511  0.6796 -0.6662 -0.2263
 2242TIP3   OH228284   5.525   4.766   7.793  0.1722 -0.4577 -0.1726
 2242TIP3    H128285   5.441   4.807   7.815  0.7354  0.2589  0.7251
 2242TIP3    H228286   5.508   4.718   7.712 -0.8250  0.5578 -0.5934
 2243TIP3   OH228287   5.283   0.796   0.551 -0.0183  0.0147  0.1761
 2243TIP3    H128288   5.263   0.797   0.645  0.6281 -2.3036  0.3982
 2243TIP3    H228289   5.378   0.801   0.546 -0.0386 -0.0480 -0.3499
 2244TIP3   OH228290   3.725   0.535   2.279 -0.8527  0.0437 -0.1884
 2244TIP3    H128291   3.732   0.566   2.370 -0.1045 -2.7247  0.7967
 2244TIP3    H228292   3.687   0.447   2.286  0.7788 -0.9326 -2.3845
 2245TIP3   OH228293   2.408   1.465   8.512  0.0570  0.3609 -0.8492
 2245TIP3    H128294   2.481   1.410   8.540  0.1586  1.1837  0.6271
 2245TIP3    H228295   2.429   1.552   8.547 -1.4634  0.6839 -0.6814
 2246TIP3   OH228296   0.726   0.158   1.880 -0.0843 -0.7611 -0.5746
 2246TIP3    H128297   0.786   0.116   1.818  0.1277  0.0189 -0.9223
 2246TIP3    H228298   0.759   0.132   1.966  0.7835 -0.3271 -0.7605
 2247TIP3   OH228299   3.490   3.973   1.368  0.4467  1.0036 -0.1258
 2247TIP3    H128300   3.544   3.910   1.415  0.4355  0.3537 -0.9590
 2247TIP3    H228301   3.401   3.938   1.373  0.3523  1.2436 -0.1125
 2248TIP3   OH228302   1.932   1.471   1.531 -0.2186 -0.0611 -0.4159
 2248TIP3    H128303   2.019   1.500   1.505 -0.4112  2.2453  1.2070
 2248TIP3    H228304   1.943   1.432   1.617 -0.9679  2.0897  0.7375
 2249TIP3   OH228305   5.541   1.916   0.081 -0.9313  0.5608  0.1380
 2249TIP3    H128306   5.624   1.875   0.058 -1.8137 -1.6885  0.7319
 2249TIP3    H228307   5.545   2.003   0.041  0.8847 -0.2198 -1.5047
 2250TIP3   OH228308   0.234   0.782   0.647 -0.1448 -0.3885  0.4437
 2250TIP3    H128309   0.239   0.876   0.627  0.8747  0.2057  3.0917
 2250TIP3    H228310   0.252   0.739   0.564 -5.0945  1.5603 -2.0688
 2251TIP3   OH228311   2.987   1.338   0.900 -0.5974 -0.1515  0.0419
 2251TIP3    H128312   2.942   1.263   0.859 -0.4863  0.0690 -0.4946
 2251TIP3    H228313   3.009   1.395   0.826 -1.9324  1.1007  0.5508
 2252TIP3   OH228314   1.858   0.947   7.631 -0.1978 -0.2896 -0.1263
 2252TIP3    H128315   1.785   0.970   7.573 -0.8688  2.5533  1.6699
 2252TIP3    H228316   1.913   1.025   7.634  0.9450 -1.0874  1.4272
 2253TIP3   OH228317   3.853   6.334   3.755  0.0082 -0.0990  0.0973
 2253TIP3    H128318   3.791   6.287   3.699  1.5485 -1.8375 -0.2294
 2253TIP3    H228319   3.938   6.293   3.738  0.9739  1.0360  1.8200
 2254TIP3   OH228320   5.655   3.772   7.409  0.2634  0.1283 -0.0632
 2254TIP3    H128321   5.580   3.796   7.354 -0.1968 -1.3226 -0.1139
 2254TIP3    H228322   5.621   3.703   7.467  0.9983  0.9193  1.3794
 2255TIP3   OH228323   0.610   0.558   8.226 -0.0881 -0.1348  0.5110
 2255TIP3    H128324   0.591   0.638   8.274 -0.6564 -0.0980  0.2439
 2255TIP3    H228325   0.555   0.491   8.267  0.1854 -0.3297  0.5664
 2256TIP3   OH228326   4.856   0.404   0.522  0.7638 -0.4668  0.3584
 2256TIP3    H128327   4.817   0.320   0.498 -0.4057 -0.0690  0.8026
 2256TIP3    H228328   4.816   0.426   0.607  0.3752  0.9517 -0.1572
 2257TIP3   OH228329   0.961   1.073   3.507 -0.8699 -0.1912 -0.0716
 2257TIP3    H128330   1.041   1.122   3.486 -1.0008  0.2064  0.3322
 2257TIP3    H228331   0.891   1.138   3.502 -1.0730 -0.3784  0.2601
 2258TIP3   OH228332   5.510   4.288   7.826 -0.0931  0.5901  0.2841
 2258TIP3    H128333   5.519   4.276   7.731 -0.2641  0.3664  0.2960
 2258TIP3    H228334   5.580   4.350   7.849  0.9746 -0.5774  0.2743
 2259TIP3   OH228335   1.200   0.432   1.894  0.0562  0.3841  0.4132
 2259TIP3    H128336   1.246   0.419   1.811 -0.4644  1.5239 -0.0651
 2259TIP3    H228337   1.254   0.385   1.958  0.9714  0.2827 -0.4049
 2260TIP3   OH228338   4.234   3.707   2.288  0.4397 -0.4745 -0.7916
 2260TIP3    H128339   4.323   3.703   2.324  0.1186 -0.9474 -0.0355
 2260TIP3    H228340   4.204   3.617   2.288 -1.1467 -0.0388  1.7893
 2261TIP3   OH228341   4.468   2.980   2.431 -0.1294  0.0604  0.4465
 2261TIP3    H128342   4.471   3.074   2.445  0.6699  0.3428 -1.3392
 2261TIP3    H228343   4.533   2.944   2.491  0.8824  0.8474 -0.1628
 2262TIP3   OH228344   0.201   6.775   2.434  0.2249 -0.2763  0.1362
 2262TIP3    H128345   0.223   6.683   2.442 -0.0682 -0.6582 -2.5471
 2262TIP3    H228346   0.108   6.780   2.459 -0.1685 -1.0008 -1.1075
 2263TIP3   OH228347   5.742   6.908   8.131 -0.2448  0.0217  0.6829
 2263TIP3    H128348   5.717   6.949   8.048  0.1520 -0.2849  0.4075
 2263TIP3    H228349   5.838   6.914   8.133 -0.2624  0.1809  1.1995
 2264TIP3   OH228350   2.319   4.614   3.446 -0.5183 -0.3461  0.0080
 2264TIP3    H128351   2.319   4.542   3.509 -0.2930 -1.3208 -1.0728
 2264TIP3    H228352   2.389   4.593   3.384  0.0696  1.2094  0.1017
 2265TIP3   OH228353   1.603   0.807   7.385 -0.2978 -0.3962 -0.3658
 2265TIP3    H128354   1.685   0.761   7.369 -0.1431 -0.0223 -0.6609
 2265TIP3    H228355   1.628   0.899   7.393 -0.9449  0.0796 -2.9430
 2266TIP3   OH228356   1.208   1.050   0.695 -0.6839 -0.3786  0.0217
 2266TIP3    H128357   1.125   1.086   0.663  0.4981  1.0054 -1.7106
 2266TIP3    H228358   1.205   1.063   0.790 -2.2814 -0.0394 -0.0418
 2267TIP3   OH228359   4.459   6.904   8.306  0.5854 -0.0137 -0.7841
 2267TIP3    H128360   4.409   6.894   8.226 -1.3924  2.5137 -0.0148
 2267TIP3    H228361   4.412   6.851   8.371 -0.9339  1.8739 -0.2124
 2268TIP3   OH228362   5.145   4.529   2.046  0.5447 -0.2454  0.1286
 2268TIP3    H128363   5.161   4.442   2.010  0.5232 -0.1444 -0.1297
 2268TIP3    H228364   5.224   4.549   2.096 -0.1911 -1.1791  1.7544
 2269TIP3   OH228365   5.325   5.377   0.042  0.2004 -0.1295 -0.4557
 2269TIP3    H128366   5.345   5.470   0.045 -0.0408 -0.1089  1.3632
 2269TIP3    H228367   5.231   5.374   0.024  0.4928 -0.0834 -2.1192
 2270TIP3   OH228368   6.789   0.268   8.507 -1.0400  0.1336 -0.0215
 2270TIP3    H128369   6.881   0.273   8.534 -0.5857  3.7136 -1.5728
 2270TIP3    H228370   6.745   0.228   8.582  1.9171 -3.5488  0.0274
 2271TIP3   OH228371   4.664   1.877   0.704  0.8376 -0.4138 -0.5473
 2271TIP3    H128372   4.645   1.836   0.620 -1.0919  3.1986 -2.1128
 2271TIP3    H228373   4.584   1.924   0.727  2.0500  0.5523  2.1752
 2272TIP3   OH228374   2.968   5.658   8.298  0.0829  0.3877 -0.0665
 2272TIP3    H128375   3.026   5.729   8.325 -0.3599  0.5531  0.4735
 2272TIP3    H228376   2.887   5.701   8.272 -0.1849  0.0853  0.2518
 2273TIP3   OH228377   1.006   6.060   1.139  0.6925 -0.2862 -0.3034
 2273TIP3    H128378   1.084   6.077   1.085  1.4219  0.3477  0.9147
 2273TIP3    H228379   1.037   6.001   1.207  0.1153  0.0262  0.2356
 2274TIP3   OH228380   0.383   6.172   8.074  0.6228 -0.2698  0.0412
 2274TIP3    H128381   0.432   6.210   8.147 -0.5008  0.9759  0.1810
 2274TIP3    H228382   0.430   6.202   7.996  0.3082  0.6189  0.1837
 2275TIP3   OH228383   1.293   1.011   8.315 -0.2462  0.2923 -0.1332
 2275TIP3    H128384   1.235   0.947   8.273  0.9936  0.0449 -1.5632
 2275TIP3    H228385   1.342   1.050   8.242  0.2417  1.6578  0.8796
 2276TIP3   OH228386   1.239   3.266   7.652 -0.1314 -0.7285  0.4390
 2276TIP3    H128387   1.248   3.361   7.656  1.0808 -0.8676  1.3657
 2276TIP3    H228388   1.191   3.250   7.570  2.0311  0.5175 -1.1707
 2277TIP3   OH228389   6.655   6.140   1.349 -0.2325  1.0362  0.3539
 2277TIP3    H128390   6.560   6.154   1.348 -0.2209  1.1113 -0.3321
 2277TIP3    H228391   6.669   6.077   1.419 -0.8713  0.5077  0.0250
 2278TIP3   OH228392   2.655   6.311   1.280  0.2849 -0.6532 -0.2522
 2278TIP3    H128393   2.574   6.361   1.292  0.9243  1.1606 -2.7227
 2278TIP3    H228394   2.629   6.233   1.231 -0.1512 -0.7610  0.1447
 2279TIP3   OH228395   3.500   0.745   1.402  0.3208  0.0020 -0.3161
 2279TIP3    H128396   3.540   0.695   1.473  0.8814  0.4552 -0.3039
 2279TIP3    H228397   3.417   0.776   1.438 -0.5888 -1.8682 -0.7086
 2280TIP3   OH228398   0.150   4.799   1.338 -0.0418 -0.1729  0.5940
 2280TIP3    H128399   0.236   4.782   1.376 -0.9452 -2.8389  1.6576
 2280TIP3    H228400   0.132   4.721   1.285 -2.7905 -0.8307  2.3418
 2281TIP3   OH228401   2.307   1.801   3.131  0.2035 -0.2117  0.1527
 2281TIP3    H128402   2.221   1.779   3.094  0.5163 -0.2440 -0.5795
 2281TIP3    H228403   2.304   1.896   3.142 -0.3425 -0.3399  1.2276
 2282TIP3   OH228404   1.154   4.882   7.200  0.1086 -0.0574 -0.1939
 2282TIP3    H128405   1.227   4.932   7.236 -0.7287  1.1207 -0.0496
 2282TIP3    H228406   1.166   4.793   7.234  0.4849  0.5416  1.3288
 2283TIP3   OH228407   3.672   1.144   7.441  0.2557  0.5307 -0.5922
 2283TIP3    H128408   3.684   1.235   7.469  1.3959  0.0297  0.7007
 2283TIP3    H228409   3.685   1.146   7.346 -0.3109  1.8010 -0.6593
 2284TIP3   OH228410   1.439   1.797   0.403 -0.5148  0.0459  0.2033
 2284TIP3    H128411   1.450   1.740   0.327  0.2531  0.6639 -0.1737
 2284TIP3    H228412   1.344   1.807   0.412 -0.6479 -1.0643  0.1244
 2285TIP3   OH228413   1.694   5.775   0.125  0.1467  0.7100  0.0010
 2285TIP3    H128414   1.722   5.820   0.046 -1.0980  0.1180 -0.8182
 2285TIP3    H228415   1.602   5.801   0.136 -1.3379 -3.0930 -1.7224
 2286TIP3   OH228416   0.691   4.126   0.426 -0.1127  0.1771  0.4266
 2286TIP3    H128417   0.656   4.083   0.348 -1.8416 -0.5788  1.5441
 2286TIP3    H228418   0.786   4.120   0.416 -0.2905 -0.9107 -1.0609
 2287TIP3   OH228419   6.544   0.656   8.387  0.0128  0.0543  0.4071
 2287TIP3    H128420   6.518   0.658   8.479 -1.5618 -1.3290  0.0427
 2287TIP3    H228421   6.632   0.618   8.388 -0.0587 -0.1085  1.3337
 2288TIP3   OH228422   3.879   0.361   1.720  0.6618  0.0020  0.6299
 2288TIP3    H128423   3.874   0.276   1.676 -1.3778 -0.1363  1.0286
 2288TIP3    H228424   3.856   0.425   1.652 -0.6755 -0.0490  1.0139
 2289TIP3   OH228425   3.833   2.338   2.221  0.0410 -0.3906  0.6149
 2289TIP3    H128426   3.894   2.289   2.167  1.2444  0.9092  0.7401
 2289TIP3    H228427   3.756   2.351   2.165  0.0067 -1.7050  0.3271
 2290TIP3   OH228428   1.265   6.881   2.185 -0.0204  0.4897  0.4867
 2290TIP3    H128429   1.252   6.857   2.277  1.7902  0.1617  0.6844
 2290TIP3    H228430   1.291   6.800   2.142  0.1135  0.8458 -0.1176
 2291TIP3   OH228431   2.649   5.359   0.246  0.4332 -0.0994  0.2353
 2291TIP3    H128432   2.578   5.418   0.273  1.7304  1.5904  0.1401
 2291TIP3    H228433   2.630   5.277   0.290 -1.8327  0.1508 -0.1641
 2292TIP3   OH228434   6.558   3.643   8.330 -0.0982  0.5843  0.3292
 2292TIP3    H128435   6.517   3.591   8.260 -0.9040  0.6267  0.7567
 2292TIP3    H228436   6.501   3.630   8.406  1.7984 -1.0438  1.5812
 2293TIP3   OH228437   1.631   2.277   0.487  0.6898  0.5269 -0.3711
 2293TIP3    H128438   1.644   2.335   0.412  3.8943  0.2067 -0.2177
 2293TIP3    H228439   1.573   2.208   0.454 -1.1793  2.4335 -1.2953
 2294TIP3   OH228440   5.429   4.043   0.198 -0.3515  0.1840  0.1081
 2294TIP3    H128441   5.387   4.028   0.113  0.4715 -1.0097 -0.1187
 2294TIP3    H228442   5.455   3.956   0.227  2.1195  0.8566  0.1440
 2295TIP3   OH228443   6.619   5.374   2.997  0.3506  0.0807 -0.0037
 2295TIP3    H128444   6.552   5.431   3.035  0.9288  1.4298 -0.8937
 2295TIP3    H228445   6.701   5.405   3.034  0.4862 -2.0746  1.6959
 2296TIP3   OH228446   0.723   1.294   1.926 -0.0903  0.2884  0.1622
 2296TIP3    H128447   0.632   1.309   1.901  0.0079 -0.5175 -0.7331
 2296TIP3    H228448   0.770   1.370   1.891 -0.6782  1.8119  2.4609
 2297TIP3   OH228449   5.077   6.603   2.171  0.1213 -0.2434 -0.4600
 2297TIP3    H128450   4.986   6.632   2.156  0.4487  1.2517  0.2128
 2297TIP3    H228451   5.073   6.508   2.167 -2.2395 -0.5260  3.2701
 2298TIP3   OH228452   5.707   3.316   0.439  0.2474 -0.0799 -0.2011
 2298TIP3    H128453   5.766   3.377   0.483 -1.0265  1.3879 -0.4367
 2298TIP3    H228454   5.657   3.275   0.510  0.7522 -0.4738 -0.0709
 2299TIP3   OH228455   4.374   1.970   2.612  0.1283 -0.6590  0.2417
 2299TIP3    H128456   4.428   2.037   2.654  0.5214 -0.7161 -0.1550
 2299TIP3    H228457   4.343   1.916   2.684  1.6102 -1.3607  0.4033
 2300TIP3   OH228458   6.696   0.109   1.459 -0.1319 -0.3464 -0.7558
 2300TIP3    H128459   6.680   0.106   1.553 -0.9554  0.8958 -0.8377
 2300TIP3    H228460   6.648   0.034   1.424  1.0009 -1.4156 -0.1077
 2301TIP3   OH228461   5.299   1.533   7.573  0.1531 -0.1225  0.3141
 2301TIP3    H128462   5.374   1.474   7.578  0.6572  0.5837  1.6151
 2301TIP3    H228463   5.328   1.613   7.618 -0.9593  0.6341 -0.2460
 2302TIP3   OH228464   1.573   1.629   2.169 -0.1683 -0.0751  0.3170
 2302TIP3    H128465   1.544   1.672   2.250 -0.8155 -2.1038  1.2253
 2302TIP3    H228466   1.556   1.536   2.184  0.9994 -0.6543 -1.6350
 2303TIP3   OH228467   0.345   1.309   0.866 -0.1454  0.0328  0.4545
 2303TIP3    H128468   0.386   1.383   0.910  0.0003 -0.9312  2.0092
 2303TIP3    H228469   0.417   1.249   0.848 -0.6012 -0.9424  1.7244
 2304TIP3   OH228470   2.639   4.400   7.785 -0.4135  0.1615  0.1556
 2304TIP3    H128471   2.666   4.479   7.737 -2.1090  2.1707  2.2800
 2304TIP3    H228472   2.689   4.404   7.867 -2.0134  0.2207  1.1730
 2305TIP3   OH228473   1.079   0.584   0.131 -0.0417 -0.2919  0.1631
 2305TIP3    H128474   1.163   0.537   0.128  1.0830  1.5700  0.8220
 2305TIP3    H228475   1.049   0.575   0.221  0.2602  0.3548  0.3345
 2306TIP3   OH228476   1.735   3.592   8.087 -0.4826  0.0533 -0.2466
 2306TIP3    H128477   1.660   3.539   8.117 -2.0100  1.8638 -0.6922
 2306TIP3    H228478   1.748   3.566   7.996  0.7872 -1.7006  0.3790
 2307TIP3   OH228479   5.610   5.560   8.359 -0.4468  0.0525  0.3818
 2307TIP3    H128480   5.563   5.630   8.314  0.2574  1.1874  1.3743
 2307TIP3    H228481   5.560   5.481   8.339 -0.6813  0.6646 -1.5904
 2308TIP3   OH228482   5.843   5.353   2.310  0.1849 -0.1015  0.5258
 2308TIP3    H128483   5.880   5.265   2.307 -1.0691 -0.7948  2.5836
 2308TIP3    H228484   5.859   5.383   2.400 -2.6161  0.1972  1.0391
 2309TIP3   OH228485   6.862   5.140   0.809 -0.4147 -0.3632  0.6288
 2309TIP3    H128486   6.772   5.158   0.785 -0.1084  1.1566  0.5139
 2309TIP3    H228487   6.873   5.181   0.895 -0.0974 -1.3980  1.1068
 2310TIP3   OH228488   4.603   1.911   8.117  0.5815 -0.5386 -0.2826
 2310TIP3    H128489   4.618   1.973   8.188 -0.0895 -0.3504 -0.3006
 2310TIP3    H228490   4.669   1.843   8.130  0.0819 -0.8361  0.9012
 2311TIP3   OH228491   3.788   4.007   0.656  0.6994  1.2923  0.6335
 2311TIP3    H128492   3.843   3.930   0.647 -1.9574 -0.5925 -1.3292
 2311TIP3    H228493   3.834   4.076   0.609  1.3389 -0.2675 -1.1518
 2312TIP3   OH228494   1.179   0.743   3.037  0.5608  0.4349 -0.3362
 2312TIP3    H128495   1.162   0.795   3.115 -2.5778 -1.2654  0.2756
 2312TIP3    H228496   1.208   0.658   3.071  0.6606  0.1682 -1.0689
 2313TIP3   OH228497   2.623   2.737   8.335 -0.1032 -0.0151  0.2979
 2313TIP3    H128498   2.532   2.737   8.366 -1.3663  0.4534 -2.9910
 2313TIP3    H228499   2.660   2.818   8.371 -1.9159  1.2731 -0.5696
 2314TIP3   OH228500   0.062   0.072   8.340  0.0131 -0.1055 -0.3976
 2314TIP3    H128501  -0.009   0.017   8.306 -0.4564  0.1191  0.2138
 2314TIP3    H228502   0.142   0.024   8.318 -0.4150 -1.4241  0.8002
 2315TIP3   OH228503   4.133   4.737   1.538  0.4813 -1.3090  0.2829
 2315TIP3    H128504   4.127   4.745   1.633 -1.3755  0.1421  0.1060
 2315TIP3    H228505   4.047   4.706   1.511  1.3186 -2.7519 -0.8845
 2316TIP3   OH228506   3.803   6.200   3.391 -0.0419 -0.2683 -0.0986
 2316TIP3    H128507   3.781   6.164   3.477  1.4091 -0.9550  0.0157
 2316TIP3    H228508   3.898   6.209   3.392  0.0080 -0.3192 -1.6431
 2317TIP3   OH228509   4.694   2.585   7.738 -0.8040 -0.1559 -0.3181
 2317TIP3    H128510   4.600   2.578   7.752 -0.7178 -1.5984 -0.2794
 2317TIP3    H228511   4.731   2.516   7.794  0.3371  0.8782  0.2391
 2318TIP3   OH228512   3.662   5.686   2.739 -0.1590 -0.6720 -0.1002
 2318TIP3    H128513   3.693   5.767   2.779  0.6475 -1.4641  0.9623
 2318TIP3    H228514   3.608   5.714   2.665 -2.1212  0.8812  1.8045
 2319TIP3   OH228515   4.862   6.646   1.738  0.6479  0.0770  0.1254
 2319TIP3    H128516   4.894   6.701   1.667 -2.5267  1.1981 -0.5829
 2319TIP3    H228517   4.883   6.694   1.818  1.2284  0.4592 -0.2528
 2320TIP3   OH228518   3.547   1.033   8.000 -0.2958 -0.3234  0.0911
 2320TIP3    H128519   3.615   0.985   8.048 -0.6607 -0.5114  0.4283
 2320TIP3    H228520   3.588   1.117   7.979  0.4035 -0.8280 -0.6399
 2321TIP3   OH228521   4.460   6.886   3.323 -0.4013  0.0966 -1.2990
 2321TIP3    H128522   4.440   6.979   3.332 -0.2983  0.0156 -0.0383
 2321TIP3    H228523   4.534   6.872   3.383 -2.0107 -1.2853  0.5031
 2322TIP3   OH228524   1.303   6.721   8.201 -0.3181 -0.1887  0.1741
 2322TIP3    H128525   1.349   6.637   8.198  1.2594  0.6577 -2.0692
 2322TIP3    H228526   1.268   6.733   8.112  2.1097  2.8137 -0.5544
 2323TIP3   OH228527   6.667   2.510   0.868 -0.3657  0.0263  0.5346
 2323TIP3    H128528   6.750   2.495   0.823  0.0988  0.5714  1.2034
 2323TIP3    H228529   6.689   2.514   0.961 -1.1785 -0.1091  0.7442
 2324TIP3   OH228530   2.575   1.384   1.348  0.8624  0.1565  0.3653
 2324TIP3    H128531   2.512   1.418   1.285  2.5317  1.8637 -0.4997
 2324TIP3    H228532   2.529   1.313   1.393 -1.6143  1.2835 -0.2337
 2325TIP3   OH228533   4.948   6.487   1.332 -0.0817  0.4972  0.1223
 2325TIP3    H128534   5.015   6.419   1.344 -0.8221 -0.4821 -1.0114
 2325TIP3    H228535   4.869   6.448   1.369  0.0211  1.8096  1.8396
 2326TIP3   OH228536   1.573   6.444   8.544  0.3903  0.1711  0.2507
 2326TIP3    H128537   1.647   6.469   8.600  0.2311  0.1437  0.4760
 2326TIP3    H228538   1.613   6.397   8.471  0.5054 -0.8556  0.9460
 2327TIP3   OH228539   3.945   0.896   2.913  0.4379  0.4371 -0.4201
 2327TIP3    H128540   3.868   0.953   2.914  0.0982  0.0058  0.9814
 2327TIP3    H228541   4.016   0.951   2.945  0.3367  0.3745 -0.0823
 2328TIP3   OH228542   4.018   2.152   1.467 -0.7314 -0.0305  0.2891
 2328TIP3    H128543   3.930   2.115   1.470 -0.0238 -1.8027  0.5138
 2328TIP3    H228544   4.052   2.126   1.381 -1.7456  4.0719 -1.6283
 2329TIP3   OH228545   0.476   2.405   2.686  0.1755  0.0272  0.0357
 2329TIP3    H128546   0.550   2.466   2.685  0.1135  0.1151  0.7400
 2329TIP3    H228547   0.451   2.398   2.778  0.8866 -1.9365  0.1059
 2330TIP3   OH228548   6.172   2.545   8.555 -0.2460 -0.5201  0.0127
 2330TIP3    H128549   6.151   2.622   8.608 -0.1336 -0.4448 -0.0503
 2330TIP3    H228550   6.264   2.557   8.532 -0.2948 -0.5525 -0.1982
 2331TIP3   OH228551   1.625   6.620   8.334  0.1174  0.2022 -0.0783
 2331TIP3    H128552   1.638   6.577   8.250  0.2709 -0.1014  0.0976
 2331TIP3    H228553   1.571   6.558   8.384 -1.1404  0.9697 -0.4284
 2332TIP3   OH228554   2.316   6.118   2.579  0.4688 -0.0086 -0.2282
 2332TIP3    H128555   2.365   6.037   2.590  0.1838 -0.2620 -0.7825
 2332TIP3    H228556   2.306   6.152   2.668  1.0889 -0.2800 -0.0473
 2333TIP3   OH228557   5.660   0.343   8.086 -0.3103 -0.2835 -0.1641
 2333TIP3    H128558   5.648   0.437   8.072 -0.2921 -0.0983  0.9722
 2333TIP3    H228559   5.751   0.327   8.061  0.2859  0.3846  1.4680
 2334TIP3   OH228560   3.401   5.966   8.132  0.0512 -0.0449 -0.1301
 2334TIP3    H128561   3.385   6.021   8.055  1.1174  0.6098  0.0923
 2334TIP3    H228562   3.497   5.966   8.141 -0.0020 -1.0973  0.4952
 2335TIP3   OH228563   0.987   1.199   8.232  0.1525  0.4930 -0.7025
 2335TIP3    H128564   1.077   1.227   8.249  0.2015  0.7609 -1.4056
 2335TIP3    H228565   0.993   1.141   8.156  0.1793 -2.1447  1.1511
 2336TIP3   OH228566   4.040   0.774   2.190  0.0766 -0.1407  0.0581
 2336TIP3    H128567   4.030   0.867   2.174 -2.9738 -0.5494 -1.0266
 2336TIP3    H228568   4.007   0.731   2.111  2.4920 -2.2158  0.0150
 2337TIP3   OH228569   2.843   6.710   2.923 -0.6517  0.0951 -0.6651
 2337TIP3    H128570   2.926   6.705   2.970 -0.0857 -1.6414 -1.7770
 2337TIP3    H228571   2.777   6.721   2.992  0.2695 -1.1184  0.4567
 2338TIP3   OH228572   3.983   2.145   2.122  0.0235  0.3674 -0.0034
 2338TIP3    H128573   3.963   2.092   2.045  3.2458 -0.4503 -0.4440
 2338TIP3    H228574   3.977   2.084   2.195  0.9712  0.0760 -0.1571
 2339TIP3   OH228575   4.973   6.400   3.408  0.2547 -0.5579  0.2525
 2339TIP3    H128576   4.984   6.417   3.501 -0.3451  2.3417 -0.0858
 2339TIP3    H228577   4.895   6.344   3.403 -0.9214  0.8541  1.4877
 2340TIP3   OH228578   2.231   6.884   3.222 -0.2835 -0.6046 -0.2078
 2340TIP3    H128579   2.143   6.887   3.183 -0.8054 -1.2269  0.8722
 2340TIP3    H228580   2.287   6.853   3.151 -1.1971 -1.6730 -0.4944
 2341TIP3   OH228581   0.257   1.855   8.184  0.7612 -0.5772  0.5677
 2341TIP3    H128582   0.226   1.941   8.214  1.9516 -0.0166  0.2365
 2341TIP3    H228583   0.287   1.870   8.094  1.1794 -1.2869  0.5826
 2342TIP3   OH228584   0.946   4.744   0.372 -0.4396  0.7348 -0.4070
 2342TIP3    H128585   1.015   4.699   0.422 -1.0320  0.9817  0.6569
 2342TIP3    H228586   0.919   4.681   0.306  0.9081  0.6866 -0.9419
 2343TIP3   OH228587   0.458   0.278   7.507  0.4678 -0.3543 -0.5878
 2343TIP3    H128588   0.519   0.205   7.518  0.3674 -0.2772  0.5306
 2343TIP3    H228589   0.514   0.356   7.508  0.3199 -0.2437  1.0236
 2344TIP3   OH228590   0.835   5.093   3.088  0.1998  0.5534  0.2794
 2344TIP3    H128591   0.921   5.063   3.118  0.2201 -0.1059 -0.4039
 2344TIP3    H228592   0.781   5.094   3.167  0.3116 -0.9049  0.3981
 2345TIP3   OH228593   4.358   1.665   0.334 -0.4785 -0.6610  0.4523
 2345TIP3    H128594   4.285   1.608   0.358 -0.3552 -0.2094  2.0847
 2345TIP3    H228595   4.403   1.681   0.417  1.6122 -1.0831 -0.5380
 2346TIP3   OH228596   0.801   4.846   1.625 -0.2806  0.0525  0.3747
 2346TIP3    H128597   0.799   4.895   1.542 -1.3051  0.1652  0.4556
 2346TIP3    H228598   0.772   4.758   1.601 -1.3614  0.2920  0.7287
 2347TIP3   OH228599   6.665   6.067   2.514  0.7157  0.5506 -0.2962
 2347TIP3    H128600   6.692   5.979   2.489  3.2192  1.6899 -2.0442
 2347TIP3    H228601   6.729   6.094   2.581  0.2780  1.2245 -0.1319
 2348TIP3   OH228602   6.559   6.355   0.530 -0.5768 -0.3090  0.0814
 2348TIP3    H128603   6.568   6.356   0.434 -0.9493  0.5371  0.0466
 2348TIP3    H228604   6.520   6.270   0.549  0.5535 -0.9587 -0.4101
 2349TIP3   OH228605   6.649   1.302   0.887  0.2091 -0.0147 -0.0611
 2349TIP3    H128606   6.712   1.371   0.907  2.4882 -1.6251 -1.2364
 2349TIP3    H228607   6.674   1.230   0.945 -1.4459 -0.2645  0.3939
 2350TIP3   OH228608   4.399   4.784   2.791  0.7516  0.3891  0.2011
 2350TIP3    H128609   4.391   4.689   2.783  0.4884  0.3550  0.7612
 2350TIP3    H228610   4.337   4.807   2.861  1.9071  0.7732  1.1435
 2351TIP3   OH228611   5.559   4.708   2.787  0.2723 -0.6775  0.0024
 2351TIP3    H128612   5.485   4.769   2.786  1.1172  0.3929 -0.4178
 2351TIP3    H228613   5.598   4.719   2.874  0.0751 -1.0627  0.1391
 2352TIP3   OH228614   1.208   5.913   0.990  0.5200  0.9724  0.5968
 2352TIP3    H128615   1.155   5.898   0.911  0.4702  1.2781  0.5694
 2352TIP3    H228616   1.215   5.827   1.030  1.0579  0.6993 -0.0607
 2353TIP3   OH228617   1.502   5.080   1.524  0.4639  0.2777  0.2973
 2353TIP3    H128618   1.533   4.995   1.492  0.6872  0.4455  0.0588
 2353TIP3    H228619   1.439   5.058   1.592  1.9775 -0.0870  1.6519
 2354TIP3   OH228620   2.640   4.675   7.746 -0.3303 -0.0860  0.3143
 2354TIP3    H128621   2.663   4.752   7.694 -0.7639 -0.6280 -0.7088
 2354TIP3    H228622   2.597   4.710   7.824  2.7282  0.9163  1.7235
 2355TIP3   OH228623   2.083   5.299   0.029  0.3679  0.2610  0.8064
 2355TIP3    H128624   2.050   5.213   0.056  0.7958  0.3502  1.6539
 2355TIP3    H228625   2.178   5.290   0.029  0.4520  0.9516  1.7130
 2356TIP3   OH228626   1.679   1.330   2.171  0.1544  0.3370 -0.1478
 2356TIP3    H128627   1.747   1.312   2.236 -0.1463 -0.1933  0.0306
 2356TIP3    H228628   1.622   1.253   2.174 -0.5811  0.8669 -0.1399
 2357TIP3   OH228629   6.227   3.744   0.197 -0.8026 -0.4169  0.1785
 2357TIP3    H128630   6.250   3.653   0.219 -1.4486 -1.0473 -1.5882
 2357TIP3    H228631   6.305   3.794   0.219 -0.2944 -1.4530  0.8359
 2358TIP3   OH228632   5.126   1.698   1.344 -0.3707 -0.3272 -0.5124
 2358TIP3    H128633   5.204   1.708   1.399 -2.0682  1.3826  1.7762
 2358TIP3    H228634   5.114   1.603   1.337  0.9527 -0.6070  0.5214
 2359TIP3   OH228635   6.477   6.700   1.630 -0.2992 -0.1083 -0.2354
 2359TIP3    H128636   6.509   6.730   1.544 -0.2217  1.4998  0.3308
 2359TIP3    H228637   6.419   6.627   1.609 -1.1388  0.9386 -1.7557
 2360TIP3   OH228638   6.740   0.523   2.511 -0.1405 -0.6784  0.2827
 2360TIP3    H128639   6.665   0.548   2.456  0.4837  0.8775  0.0669
 2360TIP3    H228640   6.789   0.460   2.459  0.2392  0.4961 -0.8284
 2361TIP3   OH228641   3.782   4.845   0.382 -0.0747  0.1467 -0.6663
 2361TIP3    H128642   3.690   4.818   0.390 -0.6221  2.0865  0.2694
 2361TIP3    H228643   3.778   4.931   0.340  1.4693 -0.5038 -2.2580
 2362TIP3   OH228644   1.015   1.343   3.351 -0.2129 -0.1714 -0.3251
 2362TIP3    H128645   1.064   1.408   3.401 -1.0085 -0.4880  0.9030
 2362TIP3    H228646   0.965   1.395   3.288 -1.3671  0.5020  1.0877
 2363TIP3   OH228647   0.716   0.034   2.651  0.0397 -0.3480  0.0050
 2363TIP3    H128648   0.725   0.129   2.664 -0.4061 -0.3700  0.4970
 2363TIP3    H228649   0.624   0.016   2.671 -0.1881 -0.7082 -1.2441
 2364TIP3   OH228650   0.787   2.813   8.428  0.3792  0.3960 -0.1830
 2364TIP3    H128651   0.782   2.865   8.348  0.2382  0.4426 -0.1466
 2364TIP3    H228652   0.861   2.755   8.416  0.4996  0.5642 -0.2524
 2365TIP3   OH228653   4.509   1.916   0.272  0.7875  0.3580 -0.1357
 2365TIP3    H128654   4.451   1.847   0.304 -0.9245  2.2228  1.0198
 2365TIP3    H228655   4.591   1.871   0.252 -0.7023 -2.2458 -0.9267
 2366TIP3   OH228656   2.895   1.497   7.351 -0.0162  0.0445  0.7065
 2366TIP3    H128657   2.971   1.555   7.358  0.2131 -0.3968  2.4562
 2366TIP3    H228658   2.821   1.556   7.339  0.5181  0.5240 -0.3020
 2367TIP3   OH228659   2.647   2.851   0.732 -0.4247  0.1835  0.8318
 2367TIP3    H128660   2.623   2.856   0.639 -1.0343  1.0649  1.0206
 2367TIP3    H228661   2.589   2.915   0.774  2.0062  2.1775  1.3705
 2368TIP3   OH228662   1.306   2.415   8.037 -0.3431  0.4982  0.2499
 2368TIP3    H128663   1.214   2.403   8.013  0.2194 -1.0858 -1.2318
 2368TIP3    H228664   1.341   2.327   8.046  1.2396  1.0736  0.0579
 2369TIP3   OH228665   1.974   1.658   7.069 -0.0604  0.1123  0.3594
 2369TIP3    H128666   1.927   1.583   7.033  1.7632 -0.8834 -0.0786
 2369TIP3    H228667   2.051   1.620   7.111  0.2643  1.6599  1.2535
 2370TIP3   OH228668   6.391   2.372   0.395 -0.4503 -0.4530 -0.2813
 2370TIP3    H128669   6.436   2.456   0.400 -3.3449  1.1744  1.0818
 2370TIP3    H228670   6.382   2.355   0.301  1.6014 -0.1631 -0.5930
 2371TIP3   OH228671   5.253   3.947   2.308 -0.3608  0.8913  0.4135
 2371TIP3    H128672   5.232   3.854   2.301  2.2962  0.3295 -2.0645
 2371TIP3    H228673   5.247   3.966   2.402 -0.6794 -1.8474  1.0278
 2372TIP3   OH228674   1.674   2.656   2.047  0.0184 -0.5736 -0.0645
 2372TIP3    H128675   1.660   2.682   1.956 -1.2498  0.7250  0.4569
 2372TIP3    H228676   1.626   2.574   2.055 -0.9169 -0.0706 -0.2847
 2373TIP3   OH228677   4.664   3.419   8.170 -0.6680  0.5451  0.7174
 2373TIP3    H128678   4.629   3.497   8.127  0.3819  0.2976 -0.6479
 2373TIP3    H228679   4.727   3.453   8.234 -0.9745  0.8445  0.8641
 2374TIP3   OH228680   1.312   0.400   0.434 -0.3116  0.0509 -0.6525
 2374TIP3    H128681   1.396   0.438   0.456  0.0558  0.5364 -2.6669
 2374TIP3    H228682   1.259   0.474   0.403 -0.8362 -0.5208 -1.1644
 2375TIP3   OH228683   4.495   4.879   1.583  0.2125 -0.1290  0.6946
 2375TIP3    H128684   4.578   4.836   1.564  1.1661  1.7305  0.5109
 2375TIP3    H228685   4.503   4.909   1.673  0.4903  1.6493  0.1050
 2376TIP3   OH228686   2.143   2.486   8.001 -0.0505  0.2388  0.4363
 2376TIP3    H128687   2.227   2.457   7.965 -1.0004  0.3319 -2.1132
 2376TIP3    H228688   2.156   2.578   8.022 -0.0438  0.8785 -2.0562
 2377TIP3   OH228689   1.633   4.897   0.416 -0.0786  0.6970 -0.5350
 2377TIP3    H128690   1.688   4.819   0.422 -0.9024  0.1171 -0.3681
 2377TIP3    H228691   1.693   4.970   0.428  0.3388  0.0155  1.8828
 2378TIP3   OH228692   5.111   4.431   2.398  0.7840 -0.3195  0.2233
 2378TIP3    H128693   5.133   4.350   2.351  0.4576 -0.4119  0.2271
 2378TIP3    H228694   5.056   4.480   2.336  0.9781 -0.0990  0.2216
 2379TIP3   OH228695   3.829   4.950   1.440  0.1228 -0.0783  0.1051
 2379TIP3    H128696   3.876   4.868   1.426 -1.2708 -0.8108 -0.4647
 2379TIP3    H228697   3.737   4.927   1.431 -0.3763  1.3068  1.2017
 2380TIP3   OH228698   6.824   0.204   0.432 -0.2895 -0.2520  0.6923
 2380TIP3    H128699   6.776   0.286   0.446 -1.0165 -0.4961 -0.2643
 2380TIP3    H228700   6.914   0.226   0.454 -0.5246  0.7221  0.7580
 2381TIP3   OH228701   4.748   0.383   1.813 -0.4142 -0.2351 -0.5022
 2381TIP3    H128702   4.667   0.378   1.864 -0.1880 -0.6942 -0.1790
 2381TIP3    H228703   4.722   0.358   1.724 -1.1857  2.3482 -1.0922
 2382TIP3   OH228704   1.663   5.599   1.427 -0.5478  0.4466 -0.3085
 2382TIP3    H128705   1.697   5.510   1.426  0.7150  0.8944  0.1551
 2382TIP3    H228706   1.618   5.607   1.511  0.7724  0.7185  0.4102
 2383TIP3   OH228707   4.111   2.630   0.550 -0.2079 -0.0761 -0.3189
 2383TIP3    H128708   4.073   2.661   0.633  1.0900 -1.7308  0.9474
 2383TIP3    H228709   4.041   2.644   0.486 -1.3991  0.8877  1.1109
 2384TIP3   OH228710   0.586   1.587   0.640 -0.2431 -0.1276  0.2851
 2384TIP3    H128711   0.643   1.529   0.690 -1.0061 -1.5534 -0.4280
 2384TIP3    H228712   0.604   1.565   0.549 -0.3299  1.0024 -0.0148
 2385TIP3   OH228713   6.665   2.002   2.114 -0.1322 -0.0884  0.5977
 2385TIP3    H128714   6.743   2.039   2.073  0.3220  0.1309  1.6202
 2385TIP3    H228715   6.602   2.074   2.115 -0.3420 -0.2546 -0.1954
 2386TIP3   OH228716   3.157   2.215   0.823  0.6785 -0.8149 -0.5672
 2386TIP3    H128717   3.062   2.227   0.818  0.5629 -0.9914  0.8035
 2386TIP3    H228718   3.193   2.299   0.796  0.0888 -0.2903  0.2386
 2387TIP3   OH228719   2.182   1.390   0.448  0.5679 -0.0951  0.2197
 2387TIP3    H128720   2.169   1.470   0.499  0.0445 -0.1807  0.2266
 2387TIP3    H228721   2.093   1.361   0.427  0.7205 -1.3035  1.1833
 2388TIP3   OH228722   1.086   3.075   2.948 -0.0171 -0.1622 -0.2897
 2388TIP3    H128723   1.091   3.165   2.916  0.7334  0.1391  0.6254
 2388TIP3    H228724   0.994   3.062   2.969 -0.0723  0.5492 -0.0349
 2389TIP3   OH228725   3.649   0.405   7.357  0.1669 -0.0971  0.1562
 2389TIP3    H128726   3.661   0.341   7.286 -0.6656  0.5996 -0.6212
 2389TIP3    H228727   3.727   0.460   7.353  1.7503 -2.0238  1.9107
 2390TIP3   OH228728   3.324   0.871   3.082  0.2564 -0.1517  0.1704
 2390TIP3    H128729   3.362   0.959   3.076  2.0566 -0.8868  0.4259
 2390TIP3    H228730   3.357   0.824   3.006 -1.2369 -0.4552 -0.3344
 2391TIP3   OH228731   4.876   2.237   0.057 -0.2801 -0.5000  0.0426
 2391TIP3    H128732   4.862   2.330   0.036 -2.1206 -0.9826 -1.1157
 2391TIP3    H228733   4.946   2.209  -0.002 -0.3935 -0.0769 -0.2992
 2392TIP3   OH228734   1.432   5.126   1.942  0.0052  0.5225 -0.4363
 2392TIP3    H128735   1.509   5.181   1.952 -0.1670  0.6275  0.3595
 2392TIP3    H228736   1.366   5.166   1.998 -0.3007 -0.1637 -0.2933
 2393TIP3   OH228737   0.290   5.040   3.817  0.3474 -0.5152 -0.2623
 2393TIP3    H128738   0.303   4.990   3.737 -0.0653  0.1142 -0.7354
 2393TIP3    H228739   0.202   5.076   3.809 -0.1135 -1.3052  0.9664
 2394TIP3   OH228740   0.844   3.737   0.297  0.0389 -0.1037  0.0178
 2394TIP3    H128741   0.829   3.742   0.391 -1.7531  1.3934 -0.2906
 2394TIP3    H228742   0.778   3.675   0.265  0.0656  0.0514 -0.3498
 2395TIP3   OH228743   3.955   6.633   8.251  0.1774 -0.2311  0.1246
 2395TIP3    H128744   4.028   6.638   8.190 -1.3570  0.5279 -1.7244
 2395TIP3    H228745   3.992   6.662   8.335  2.2406 -0.9710 -0.4785
 2396TIP3   OH228746   4.434   3.165   0.629  0.0967  0.5196  0.4060
 2396TIP3    H128747   4.475   3.248   0.603  1.7435 -0.4300 -0.1207
 2396TIP3    H228748   4.345   3.190   0.653  0.4763  2.4128  0.0329
 2397TIP3   OH228749   2.520   6.460   7.976  0.3815  0.6182  0.3109
 2397TIP3    H128750   2.471   6.520   7.921 -0.1545 -0.4745 -0.4561
 2397TIP3    H228751   2.453   6.412   8.025  0.6322 -0.9036 -0.7551
 2398TIP3   OH228752   1.098   5.393   1.502  0.3418 -0.3884 -0.3159
 2398TIP3    H128753   1.013   5.434   1.484  0.7105  0.7316  0.3841
 2398TIP3    H228754   1.080   5.299   1.501 -0.8550 -0.1758 -0.4042
 2399TIP3   OH228755   4.252   1.791   2.789  0.0302 -0.1060 -0.5205
 2399TIP3    H128756   4.213   1.730   2.727 -1.1569  0.7216 -0.6201
 2399TIP3    H228757   4.240   1.749   2.875  2.8108 -1.8527 -0.8729
 2400TIP3   OH228758   4.199   1.011   2.090  0.3498 -0.6557 -0.4109
 2400TIP3    H128759   4.220   1.066   2.014  1.6237 -0.1523  0.2710
 2400TIP3    H228760   4.145   1.067   2.146 -0.7370 -1.0861 -1.0022
 2401TIP3   OH228761   6.583   3.892   2.128  0.1479  0.4592 -0.1195
 2401TIP3    H128762   6.506   3.835   2.126  1.2172 -1.0474 -1.3278
 2401TIP3    H228763   6.587   3.924   2.218 -1.3886 -0.1035  0.1866
 2402TIP3   OH228764   3.367   0.267   3.215  0.2476 -0.4171 -0.5001
 2402TIP3    H128765   3.451   0.292   3.177 -0.2051 -0.8440 -1.8623
 2402TIP3    H228766   3.362   0.315   3.298  0.7029  1.6115 -1.5965
 2403TIP3   OH228767   2.152   6.881   0.450  0.6905 -0.1383 -0.1413
 2403TIP3    H128768   2.098   6.897   0.373  0.4720  1.0847  0.2467
 2403TIP3    H228769   2.229   6.936   0.436 -0.9794  3.1287  2.1687
 2404TIP3   OH228770   5.690   2.638   8.486  0.6045  0.2038  0.2575
 2404TIP3    H128771   5.762   2.666   8.543  0.8050 -2.0647  1.2264
 2404TIP3    H228772   5.726   2.563   8.439 -0.0070  1.2189 -1.9410
 2405TIP3   OH228773   3.507   2.835   2.221  0.6862 -0.4178 -0.4951
 2405TIP3    H128774   3.514   2.851   2.315 -2.6801 -0.8888 -0.0455
 2405TIP3    H228775   3.567   2.898   2.181 -0.3054  2.1750  1.8182
 2406TIP3   OH228776   5.846   5.932   7.374 -0.1262  0.1615  0.5590
 2406TIP3    H128777   5.760   5.957   7.407 -0.6752 -0.0079 -0.7149
 2406TIP3    H228778   5.835   5.925   7.279  0.6936 -2.1580  0.5737
 2407TIP3   OH228779   2.316   0.265   0.112  0.7292  0.1148 -0.0246
 2407TIP3    H128780   2.223   0.250   0.101  0.5874  0.1307  1.0340
 2407TIP3    H228781   2.322   0.353   0.150  1.1587  0.0048  0.1732
 2408TIP3   OH228782   2.923   2.885   2.952 -0.5556 -0.2449 -0.3161
 2408TIP3    H128783   2.972   2.871   3.033 -2.7933  0.8139  1.3431
 2408TIP3    H228784   2.877   2.967   2.967 -0.0801  0.6625 -3.2350
 2409TIP3   OH228785   0.077   6.771   1.710 -0.2694  0.5017 -0.1637
 2409TIP3    H128786   0.171   6.784   1.704  0.1349 -1.0630  1.8711
 2409TIP3    H228787   0.066   6.691   1.760 -2.6730 -1.9096 -3.9993
 2410TIP3   OH228788   5.608   6.848   0.320 -0.0103  0.0392 -0.6516
 2410TIP3    H128789   5.621   6.926   0.373 -1.2900  0.4913 -0.9730
 2410TIP3    H228790   5.689   6.798   0.330  0.6927  1.2413 -0.1719
 2411TIP3   OH228791   5.859   2.848   7.213  0.3807  0.2842  0.1152
 2411TIP3    H128792   5.859   2.773   7.273  1.6489 -0.4061 -0.7057
 2411TIP3    H228793   5.948   2.884   7.219 -0.2898  1.9695  0.7412
 2412TIP3   OH228794   0.995   1.806   1.453 -0.0421 -0.2425 -0.0523
 2412TIP3    H128795   1.036   1.856   1.523 -0.1929 -1.4586  0.9318
 2412TIP3    H228796   0.997   1.865   1.377 -0.0747  1.1814  1.0162
 2413TIP3   OH228797   4.399   1.401   8.203  0.1676 -0.5835  0.1923
 2413TIP3    H128798   4.346   1.388   8.282  2.5394  2.2293  2.5083
 2413TIP3    H228799   4.410   1.496   8.197 -0.2791 -0.6170 -3.9353
 2414TIP3   OH228800   4.118   1.273   0.828  0.0838 -0.4383 -0.7956
 2414TIP3    H128801   4.152   1.362   0.834 -0.0397 -0.4436  0.2230
 2414TIP3    H228802   4.059   1.274   0.753  0.1994  0.2984 -0.8789
 2415TIP3   OH228803   3.749   0.777   3.079  0.2657  0.0772  0.1351
 2415TIP3    H128804   3.668   0.800   3.034  1.0686 -0.8814 -1.9091
 2415TIP3    H228805   3.763   0.848   3.142 -0.7246  1.7057 -1.3987
 2416TIP3   OH228806   2.334   5.315   0.228  0.1673  0.4308 -0.3574
 2416TIP3    H128807   2.356   5.399   0.269  3.0827 -0.4479  0.1005
 2416TIP3    H228808   2.289   5.267   0.298  1.0791  0.5909  0.3686
 2417TIP3   OH228809   3.164   0.383   1.521  0.5177 -0.2357 -0.4115
 2417TIP3    H128810   3.179   0.289   1.533 -0.6470 -0.2432  1.3840
 2417TIP3    H228811   3.098   0.388   1.453 -0.3232 -0.8069  0.3416
 2418TIP3   OH228812   4.380   4.935   0.923  0.0790 -0.1078 -0.3425
 2418TIP3    H128813   4.422   4.868   0.868 -0.3048 -0.0842 -0.6658
 2418TIP3    H228814   4.287   4.926   0.905 -0.0264  0.0929  0.0940
 2419TIP3   OH228815   6.820   4.332   3.007 -0.1991 -0.7391 -0.3952
 2419TIP3    H128816   6.828   4.376   3.092 -2.3875  0.3102 -0.6799
 2419TIP3    H228817   6.882   4.259   3.013  1.9212  1.0201  0.9344
 2420TIP3   OH228818   4.056   2.534   2.120 -0.0930 -0.5330  0.6868
 2420TIP3    H128819   3.995   2.594   2.163 -0.6429 -0.0210 -0.7353
 2420TIP3    H228820   4.003   2.491   2.052  1.2709  0.5183 -1.1365
 2421TIP3   OH228821   2.661   1.376   8.566  0.2374 -0.4928  0.1385
 2421TIP3    H128822   2.696   1.302   8.615  0.6752 -1.0514 -0.9700
 2421TIP3    H228823   2.701   1.368   8.479 -0.0691  0.7825 -0.1414
 2422TIP3   OH228824   3.454   0.422   6.971 -0.3519 -0.2788  0.9516
 2422TIP3    H128825   3.503   0.408   6.890 -2.2235 -0.3944 -0.2364
 2422TIP3    H228826   3.499   0.370   7.036  1.2492 -0.1430 -0.0014
 2423TIP3   OH228827   1.023   3.347   1.477  0.2631 -0.6704  0.0574
 2423TIP3    H128828   1.069   3.397   1.545  0.2046  0.8950 -0.9964
 2423TIP3    H228829   1.023   3.257   1.509  0.1755  0.0191  2.1645
 2424TIP3   OH228830   1.940   1.805   0.083  0.3555  0.4935 -0.3335
 2424TIP3    H128831   1.865   1.833   0.031  2.0362  2.4248 -1.8980
 2424TIP3    H228832   1.939   1.862   0.160 -0.1050  0.0940 -0.0384
 2425TIP3   OH228833   4.110   6.509   7.995 -0.3793  0.2085 -0.2651
 2425TIP3    H128834   4.027   6.479   8.031  0.0765 -2.1847 -1.0598
 2425TIP3    H228835   4.095   6.513   7.900 -0.0215  1.3210 -0.2972
 2426TIP3   OH228836   6.019   5.912   2.014 -0.4819 -0.2374  0.0990
 2426TIP3    H128837   6.035   5.833   2.066  1.6854 -0.3346 -0.5970
 2426TIP3    H228838   6.069   5.980   2.060 -1.1807  0.4140 -0.0944
 2427TIP3   OH228839   0.691   3.187   8.002 -0.0923  0.4712  0.2570
 2427TIP3    H128840   0.739   3.106   7.982 -0.2138  1.0205 -2.7465
 2427TIP3    H228841   0.748   3.257   7.970 -0.6312  1.5155  1.4829
 2428TIP3   OH228842   6.394   0.604   0.072  0.2521 -0.2714  0.5867
 2428TIP3    H128843   6.425   0.546   0.141 -0.8167 -1.8624 -0.2170
 2428TIP3    H228844   6.299   0.588   0.067 -0.1062  1.6099  0.3821
 2429TIP3   OH228845   5.816   6.619   8.259 -0.0709  0.5263 -0.4963
 2429TIP3    H128846   5.906   6.633   8.231 -0.2620  1.0934 -0.8459
 2429TIP3    H228847   5.808   6.525   8.271  0.9832  0.5815  0.9241
 2430TIP3   OH228848   4.634   1.574   7.060 -0.2213 -0.5573  0.3686
 2430TIP3    H128849   4.563   1.636   7.046 -0.0192 -0.4909 -0.4155
 2430TIP3    H228850   4.678   1.605   7.139 -1.7744 -1.2850  1.5666
 2431TIP3   OH228851   0.959   2.969   1.976  0.3560 -0.6048 -0.3131
 2431TIP3    H128852   0.985   2.967   2.068  1.9227 -1.2910 -0.7331
 2431TIP3    H228853   0.905   2.891   1.964 -1.0720  0.2397  0.3153
 2432TIP3   OH228854   6.429   1.287   3.039 -0.5311 -0.2979  0.0017
 2432TIP3    H128855   6.367   1.286   3.112  0.3489  2.7767  0.9845
 2432TIP3    H228856   6.476   1.204   3.045 -0.7634 -0.3132  2.7527
 2433TIP3   OH228857   5.869   0.134   1.937  0.2946 -0.3158 -0.3055
 2433TIP3    H128858   5.862   0.194   2.011 -1.6316  0.9219 -1.4232
 2433TIP3    H228859   5.940   0.170   1.883  1.0369 -0.6718  0.4052
 2434TIP3   OH228860   3.512   6.774   8.407 -0.1604 -0.1230  0.8173
 2434TIP3    H128861   3.434   6.801   8.357 -1.1069 -0.3293  2.1295
 2434TIP3    H228862   3.534   6.850   8.460  1.1609  0.2759 -0.2491
 2435TIP3   OH228863   0.563   0.188   2.369  0.0100 -0.2900 -0.1285
 2435TIP3    H128864   0.601   0.132   2.301 -1.0564  0.9395 -1.8306
 2435TIP3    H228865   0.584   0.277   2.341 -0.0192  0.2439  1.4568
 2436TIP3   OH228866   4.909   0.115   0.159  0.0963  0.2656 -0.5652
 2436TIP3    H128867   4.910   0.103   0.254 -0.1678 -1.3779 -0.7388
 2436TIP3    H228868   4.844   0.183   0.144 -0.6976 -0.2486  0.3717
 2437TIP3   OH228869   4.713   1.234   0.496 -0.3360 -0.1379  0.1556
 2437TIP3    H128870   4.621   1.212   0.513 -0.7108 -0.3591 -1.8559
 2437TIP3    H228871   4.757   1.149   0.490 -0.2106 -0.0673  0.0739
 2438TIP3   OH228872   0.594   2.233   1.210 -0.7697  1.0783  0.2334
 2438TIP3    H128873   0.647   2.260   1.135 -0.9238 -0.0493 -0.2906
 2438TIP3    H228874   0.631   2.149   1.237 -1.1900  1.1142  0.9610
 2439TIP3   OH228875   5.699   3.752   2.938  0.2915  0.2308 -0.7235
 2439TIP3    H128876   5.723   3.765   2.847 -2.0001  0.8272 -1.3067
 2439TIP3    H228877   5.689   3.840   2.974 -0.4889  0.0217 -0.3978
 2440TIP3   OH228878   3.570   0.596   3.329  0.5032  0.1805  0.3041
 2440TIP3    H128879   3.596   0.571   3.240 -1.9553  0.6931 -0.6383
 2440TIP3    H228880   3.503   0.532   3.353  0.7530  0.3783  1.5760
 2441TIP3   OH228881   6.437   2.953   0.327 -0.1363  0.4615  0.2361
 2441TIP3    H128882   6.531   2.971   0.325  0.6635 -2.6903  1.9136
 2441TIP3    H228883   6.413   2.939   0.235  1.8407 -1.8192 -0.0254
 2442TIP3   OH228884   3.642   6.276   7.957  0.2730 -0.4605  0.3824
 2442TIP3    H128885   3.628   6.204   8.018  0.7578 -0.9161 -0.0413
 2442TIP3    H228886   3.728   6.311   7.979  0.2213 -0.2869  0.3111
 2443TIP3   OH228887   6.255   0.374   1.395 -0.0480 -0.6594  0.7201
 2443TIP3    H128888   6.187   0.357   1.329 -0.2511  0.9827  0.4564
 2443TIP3    H228889   6.337   0.371   1.346 -0.1356 -0.2555  0.5401
 2444TIP3   OH228890   1.796   6.541   7.370 -0.2613  0.0681  0.1279
 2444TIP3    H128891   1.891   6.542   7.367 -0.2601  0.9956 -0.0929
 2444TIP3    H228892   1.774   6.577   7.457 -0.3812  2.8205 -0.9209
 2445TIP3   OH228893   5.989   2.011   1.595 -0.0210 -0.4160 -0.8139
 2445TIP3    H128894   6.039   2.030   1.674 -2.0824 -0.3154  0.5346
 2445TIP3    H228895   5.934   2.088   1.582  0.3073 -0.4101 -2.4070
 2446TIP3   OH228896   6.500   4.070   0.298 -0.0068 -0.5266  0.0716
 2446TIP3    H128897   6.531   4.114   0.377 -1.3245 -0.7813  0.7407
 2446TIP3    H228898   6.508   3.976   0.317 -1.8087 -0.6162  0.5398
 2447TIP3   OH228899   5.760   0.958   8.528 -0.0275  0.4193 -0.1610
 2447TIP3    H128900   5.761   1.049   8.499  1.4010  0.3512 -0.4100
 2447TIP3    H228901   5.748   0.964   8.623 -1.0264  0.8058 -0.3021
 2448TIP3   OH228902   4.072   6.865   3.719 -0.4886 -0.0467 -0.0388
 2448TIP3    H128903   4.101   6.774   3.728 -1.6002 -0.5222 -1.0547
 2448TIP3    H228904   3.983   6.866   3.754 -0.9038  0.3901 -1.0645
 2449TIP3   OH228905   0.016   4.610   1.143 -0.4649  0.3804  0.0755
 2449TIP3    H128906  -0.032   4.684   1.107  0.6835  1.0489 -0.1260
 2449TIP3    H228907   0.015   4.544   1.074 -0.9324  0.4560  0.0085
 2450TIP3   OH228908   4.727   0.660   3.219 -0.0582 -0.0940 -0.6577
 2450TIP3    H128909   4.800   0.673   3.159  0.6786 -2.2647 -0.3213
 2450TIP3    H228910   4.652   0.644   3.162  0.5048 -1.4975 -1.0404
 2451TIP3   OH228911   3.912   0.024   1.724 -0.5864 -0.4621  0.3687
 2451TIP3    H128912   3.902  -0.064   1.687 -0.4669 -0.2314 -0.2245
 2451TIP3    H228913   3.899   0.083   1.650 -0.9355  0.0328  0.8159
 2452TIP3   OH228914   2.371   2.713   7.780  0.6452 -0.1381  0.0967
 2452TIP3    H128915   2.364   2.618   7.789  0.3997 -0.0949  0.3897
 2452TIP3    H228916   2.382   2.745   7.869  0.6214  0.1174  0.0103
 2453TIP3   OH228917   2.615   2.153   7.856  0.3667  0.0465 -0.3442
 2453TIP3    H128918   2.664   2.199   7.787 -1.1175  0.9850 -0.8077
 2453TIP3    H228919   2.585   2.073   7.814  0.6136 -0.0323 -0.3740
 2454TIP3   OH228920   4.139   2.255   0.441  0.3865  0.1415 -0.3866
 2454TIP3    H128921   4.209   2.308   0.403  0.0344  1.5509  0.8230
 2454TIP3    H228922   4.063   2.274   0.386 -0.0899  2.0782  0.8305
 2455TIP3   OH228923   2.451   0.621   0.883 -0.4260 -0.4062  0.3019
 2455TIP3    H128924   2.544   0.626   0.905 -0.1011 -0.7360 -0.9361
 2455TIP3    H228925   2.409   0.679   0.947  0.8252  1.1548 -0.2090
 2456TIP3   OH228926   6.730   2.562   2.114 -0.1784 -0.9572 -0.2633
 2456TIP3    H128927   6.703   2.530   2.200  0.9703  0.5757  0.7432
 2456TIP3    H228928   6.650   2.561   2.061 -1.1066 -1.1546  1.0877
 2457TIP3   OH228929   4.081   0.656   1.393  0.2895  0.3941 -0.0349
 2457TIP3    H128930   4.168   0.686   1.367  0.3938 -0.8418 -1.1933
 2457TIP3    H228931   4.039   0.627   1.312 -1.0801  0.6026  0.5564
 2458TIP3   OH228932   0.665   1.090   1.086 -0.0752  0.1630  0.7155
 2458TIP3    H128933   0.590   1.087   1.146  0.9222  1.2824  2.0760
 2458TIP3    H228934   0.652   1.171   1.037  0.1717  0.2903  0.8609
 2459TIP3   OH228935   3.592   6.546   0.309  0.5480 -0.2011  0.0287
 2459TIP3    H128936   3.525   6.598   0.264  2.2421  0.2668 -2.0866
 2459TIP3    H228937   3.554   6.458   0.315 -0.1952 -0.0065 -1.3614
 2460TIP3   OH228938   4.385   6.195   0.367 -0.3066  0.4435 -0.2285
 2460TIP3    H128939   4.425   6.115   0.333 -0.5824 -0.0798  0.6701
 2460TIP3    H228940   4.453   6.236   0.420 -0.7179 -0.1019  0.7455
 2461TIP3   OH228941   1.086   2.469   1.250 -0.2609 -0.7375  0.5630
 2461TIP3    H128942   1.156   2.469   1.315 -0.2907 -1.2498  0.5943
 2461TIP3    H228943   1.005   2.468   1.302 -0.3013  0.0867  0.5308
 2462TIP3   OH228944   0.885   6.177   0.658 -0.4335 -0.1772  0.4146
 2462TIP3    H128945   0.830   6.255   0.652 -0.5814 -0.4286 -3.2740
 2462TIP3    H228946   0.836   6.118   0.715 -1.2223  1.6615  1.7547
 2463TIP3   OH228947   2.014   5.707   8.395 -0.2920 -0.1166 -0.1623
 2463TIP3    H128948   2.021   5.652   8.317  0.5052  2.3203 -1.9763
 2463TIP3    H228949   1.920   5.718   8.409 -0.4464 -1.2428 -0.2843
 2464TIP3   OH228950   6.382   4.529   1.402 -0.6625 -0.1259  0.1335
 2464TIP3    H128951   6.418   4.608   1.442 -1.7130  0.8947 -0.8735
 2464TIP3    H228952   6.377   4.466   1.474 -0.7916  1.0550  1.1905
 2465TIP3   OH228953   0.859   2.424   0.039 -0.2315 -0.1178  0.0433
 2465TIP3    H128954   0.932   2.458   0.091 -0.6998  2.2754 -0.7354
 2465TIP3    H228955   0.784   2.425   0.100  0.1201 -1.4965  0.5210
 2466TIP3   OH228956   1.249   4.097   6.664  0.3483 -0.0283  0.0646
 2466TIP3    H128957   1.294   4.050   6.594  1.3467 -0.8445  1.2113
 2466TIP3    H228958   1.158   4.068   6.660  0.1823  0.6381 -1.4529
 2467TIP3   OH228959   4.462   6.660   8.020 -0.3370 -0.4963  0.3174
 2467TIP3    H128960   4.411   6.614   7.952 -1.1970 -2.4248  2.1682
 2467TIP3    H228961   4.400   6.672   8.092  0.9987 -0.0360  1.4268
 2468TIP3   OH228962   5.796   2.619   0.389  0.3020 -0.0367 -0.5300
 2468TIP3    H128963   5.817   2.712   0.399  1.1780 -0.3603  0.9468
 2468TIP3    H228964   5.708   2.618   0.352  0.7843  1.3735 -1.8161
 2469TIP3   OH228965   6.900   6.427   7.710 -0.4448  0.5522 -1.0777
 2469TIP3    H128966   6.837   6.355   7.712  0.0747  0.0895  0.8705
 2469TIP3    H228967   6.957   6.410   7.785  1.0246  1.8271 -1.8695
 2470TIP3   OH228968   2.806   2.445   7.172  0.5755  0.2901  0.0768
 2470TIP3    H128969   2.723   2.467   7.215 -0.4366  1.8001 -2.4524
 2470TIP3    H228970   2.783   2.375   7.111  1.7962 -1.1568  1.1787
 2471TIP3   OH228971   0.202   4.624   2.571 -1.4652 -0.4924 -0.3293
 2471TIP3    H128972   0.296   4.607   2.568 -1.2038  1.0873 -1.8713
 2471TIP3    H228973   0.168   4.556   2.630  0.9075  0.2680  2.1157
 2472TIP3   OH228974   6.760   4.914   2.463 -0.0781 -0.2108  0.3330
 2472TIP3    H128975   6.829   4.858   2.428 -0.4472  0.2518 -1.2311
 2472TIP3    H228976   6.679   4.876   2.428 -0.4307  0.4929  0.3624
 2473TIP3   OH228977   5.689   0.629   1.476 -0.0698  0.5007 -0.3902
 2473TIP3    H128978   5.685   0.657   1.567  0.1081  0.6137 -0.4171
 2473TIP3    H228979   5.620   0.563   1.468 -0.6402  1.0796 -0.3770
 2474TIP3   OH228980   1.956   4.283   7.764 -0.5927  0.1761  0.4591
 2474TIP3    H128981   1.937   4.375   7.782 -2.2415  0.2155 -1.1675
 2474TIP3    H228982   1.928   4.237   7.843 -2.8079  0.8026  0.1029
 2475TIP3   OH228983   6.265   2.322   3.007  0.2683 -0.2452 -0.7102
 2475TIP3    H128984   6.285   2.347   3.097 -0.1584 -0.9138 -0.4127
 2475TIP3    H228985   6.207   2.246   3.017 -0.2079 -0.0008 -1.5445
 2476TIP3   OH228986   1.586   2.892   2.586 -0.2450 -0.0175 -0.1703
 2476TIP3    H128987   1.618   2.851   2.666 -1.2991 -1.0113 -0.2243
 2476TIP3    H228988   1.568   2.983   2.611  0.7376  0.0480  0.3407
 2477TIP3   OH228989   1.051   0.905   7.307 -0.4513  0.2832  0.3395
 2477TIP3    H128990   1.061   0.864   7.221 -0.4131 -0.1749  0.5538
 2477TIP3    H228991   1.108   0.982   7.305  1.1257 -0.8132  0.6319
 2478TIP3   OH228992   3.153   3.949   0.611  0.2034 -0.6356 -0.7456
 2478TIP3    H128993   3.223   3.943   0.676  0.3110  0.2103 -0.7678
 2478TIP3    H228994   3.112   3.863   0.611 -1.8893  0.1384  2.7794
 2479TIP3   OH228995   1.343   4.919   7.875  0.2651 -0.0218 -0.6927
 2479TIP3    H128996   1.425   4.870   7.882 -0.0968 -0.6243 -0.5974
 2479TIP3    H228997   1.297   4.878   7.803  0.8976  1.6048 -2.0805
 2480TIP3   OH228998   0.420   6.893   0.372 -0.0452  0.7370 -0.0392
 2480TIP3    H128999   0.441   6.922   0.284  1.0520  0.7005  0.1915
 2480TIP3    H229000   0.465   6.809   0.381 -1.7578 -0.2235 -0.1018
 2481TIP3   OH229001   3.264   2.404   7.562 -0.0549  0.1570  0.5410
 2481TIP3    H129002   3.171   2.386   7.553 -0.3659  0.5946  2.4867
 2481TIP3    H229003   3.305   2.351   7.493 -1.7819  0.7293 -1.0173
 2482TIP3   OH229004   1.029   1.854   8.494 -0.1856  0.6349 -0.2855
 2482TIP3    H129005   1.069   1.826   8.412 -1.2781  0.0391 -0.6304
 2482TIP3    H229006   0.939   1.877   8.470 -0.5503  0.3429  0.7587
 2483TIP3   OH229007   4.567   1.099   7.555 -0.3594 -0.1437  0.1132
 2483TIP3    H129008   4.532   1.010   7.554 -2.0198  0.4758  0.3939
 2483TIP3    H229009   4.585   1.119   7.463 -0.3979 -0.5987  0.0056
 2484TIP3   OH229010   2.890   5.404   1.324  0.4209 -0.2479 -0.4317
 2484TIP3    H129011   2.882   5.343   1.250 -0.1709  0.7184 -1.1900
 2484TIP3    H229012   2.978   5.440   1.315  0.7637 -0.9578  0.0050
 2485TIP3   OH229013   4.867   6.013   3.556  0.0554 -0.1949 -0.3007
 2485TIP3    H129014   4.820   6.071   3.496 -1.0204 -0.9351 -0.2168
 2485TIP3    H229015   4.833   6.035   3.643  2.5843  1.8177  0.2980
 2486TIP3   OH229016   0.064   6.088   2.555 -0.4392  0.0508 -0.0783
 2486TIP3    H129017   0.017   6.063   2.634 -1.8942  0.3284 -0.7987
 2486TIP3    H229018   0.147   6.042   2.559 -0.9788 -0.8552  1.0371
 2487TIP3   OH229019   2.934   6.406   2.925  0.3742  0.9100  0.1558
 2487TIP3    H129020   2.850   6.400   2.971  0.2599 -0.1819 -0.1755
 2487TIP3    H229021   2.918   6.471   2.856 -0.6403 -0.2674 -0.7652
 2488TIP3   OH229022   2.587   2.842   0.463 -0.2151 -0.1569 -0.9387
 2488TIP3    H129023   2.492   2.835   0.451 -0.2104 -0.0497 -1.0405
 2488TIP3    H229024   2.616   2.903   0.395 -0.1822  0.4541 -0.3886
 2489TIP3   OH229025   3.493   4.876   0.163  0.6027 -0.5260  0.0245
 2489TIP3    H129026   3.494   4.864   0.258  0.6553 -0.8538 -0.0175
 2489TIP3    H229027   3.413   4.925   0.146  0.7627 -0.1757  0.2734
 2490TIP3   OH229028   4.844   6.265   8.060 -0.2739 -0.5701 -0.1392
 2490TIP3    H129029   4.774   6.248   8.124 -0.0794  0.4723  0.3713
 2490TIP3    H229030   4.826   6.353   8.027  1.2093  0.0538  0.5796
 2491TIP3   OH229031   5.871   3.017   2.805 -0.1884 -0.5291  0.1885
 2491TIP3    H129032   5.860   3.049   2.716 -1.5320 -0.4755  0.3491
 2491TIP3    H229033   5.902   2.927   2.794  1.2742  0.0126 -0.2912
 2492TIP3   OH229034   6.758   0.439   7.769  0.2998 -0.3449 -0.3754
 2492TIP3    H129035   6.663   0.426   7.765 -0.0069  1.8691 -2.2850
 2492TIP3    H229036   6.769   0.533   7.782  2.2588 -0.6110  0.2423
 2493TIP3   OH229037   3.318   6.559   2.424  0.3812 -0.2818  0.2645
 2493TIP3    H129038   3.270   6.592   2.499  1.3667 -1.3237  1.3911
 2493TIP3    H229039   3.398   6.611   2.421  0.9611 -1.1313  0.7612
 2494TIP3   OH229040   5.275   2.887   0.640  0.0119  0.5586 -0.3405
 2494TIP3    H129041   5.239   2.976   0.641 -0.4570  0.3914  1.7689
 2494TIP3    H229042   5.251   2.850   0.724 -1.1622 -2.1635 -1.7377
 2495TIP3   OH229043   1.205   4.309   6.853 -0.4095  0.2044  0.0214
 2495TIP3    H129044   1.227   4.401   6.837 -1.9368  0.4562 -0.8014
 2495TIP3    H229045   1.229   4.265   6.772  0.2534 -0.1439  0.3904
 2496TIP3   OH229046   5.900   2.191   7.826 -1.1099 -0.5218  0.5547
 2496TIP3    H129047   5.976   2.143   7.793 -1.2221  0.9200 -2.0409
 2496TIP3    H229048   5.927   2.220   7.914  1.6278  0.4692 -0.5050
 2497TIP3   OH229049   6.322   0.489   2.602 -0.4701 -0.0260 -0.2541
 2497TIP3    H129050   6.340   0.536   2.683 -0.7085  1.4383 -1.0230
 2497TIP3    H229051   6.248   0.432   2.622 -0.5199  0.3160  0.5435
 2498TIP3   OH229052   0.517   5.855   0.620 -0.3235  0.4996 -0.0351
 2498TIP3    H129053   0.515   5.765   0.585  0.1267  0.7804 -0.8208
 2498TIP3    H229054   0.454   5.855   0.691  0.9014 -0.9229  1.1277
 2499TIP3   OH229055   3.366   0.053   0.321 -0.3074 -0.1393 -0.2562
 2499TIP3    H129056   3.426   0.128   0.317 -0.0790 -0.2344  1.1370
 2499TIP3    H229057   3.423  -0.024   0.316 -0.4198 -0.2319 -0.1022
 2500TIP3   OH229058   5.468   2.784   8.059 -0.3481 -0.6989  0.2507
 2500TIP3    H129059   5.436   2.770   8.148  0.1226  0.5867  0.6540
 2500TIP3    H229060   5.562   2.771   8.064 -0.4342 -1.6389 -0.3014
 2501TIP3   OH229061   2.287   1.171   2.912  0.4113  0.2540 -0.4007
 2501TIP3    H129062   2.363   1.125   2.876  1.0593 -0.9109  2.1555
 2501TIP3    H229063   2.255   1.113   2.982 -2.2028  1.2059 -0.6698
 2502TIP3   OH229064   1.751   5.481   1.879 -0.2661 -0.1777  0.2013
 2502TIP3    H129065   1.752   5.388   1.858  1.3599 -0.0880 -0.2721
 2502TIP3    H229066   1.697   5.522   1.812 -2.6333 -0.9679  1.5145
 2503TIP3   OH229067   1.569   4.331   0.744  0.0697  0.2556  0.6927
 2503TIP3    H129068   1.627   4.331   0.668  0.6688 -0.2110  1.1398
 2503TIP3    H229069   1.524   4.415   0.739  0.8105  0.6443  0.3586
 2504TIP3   OH229070   4.816   2.388   7.109  0.1000  0.1141  0.0878
 2504TIP3    H129071   4.909   2.409   7.102  0.6041 -1.5880  1.0923
 2504TIP3    H229072   4.807   2.302   7.069 -1.4135  0.9907 -1.5988
 2505TIP3   OH229073   6.001   2.817   2.182  0.3929 -0.6209 -0.6345
 2505TIP3    H129074   5.911   2.794   2.205 -0.0575  1.5774  0.0800
 2505TIP3    H229075   6.055   2.767   2.243 -0.4400 -0.5299  0.1980
 2506TIP3   OH229076   5.184   3.800   0.427 -0.0443 -0.6853 -0.1366
 2506TIP3    H129077   5.120   3.787   0.358 -0.5755 -0.0083  0.2138
 2506TIP3    H229078   5.269   3.799   0.382 -0.2598 -1.9951 -0.5431
 2507TIP3   OH229079   3.342   6.637   1.453 -0.3479 -0.0363 -0.5750
 2507TIP3    H129080   3.319   6.571   1.387  0.2480 -1.1612  0.2932
 2507TIP3    H229081   3.259   6.669   1.486 -0.6488 -0.3791 -0.9955
 2508TIP3   OH229082   2.041   0.117   8.292  0.0335  0.0161  0.2441
 2508TIP3    H129083   1.946   0.103   8.293  0.1691 -1.1205 -0.6751
 2508TIP3    H229084   2.053   0.195   8.238 -0.2200 -1.7127 -2.4677
 2509TIP3   OH229085   3.135   5.054   3.260 -0.4405  0.5762  0.1748
 2509TIP3    H129086   3.180   5.126   3.306 -0.8483  0.7666  0.2793
 2509TIP3    H229087   3.152   4.977   3.314 -2.0347  1.0383  1.3901
 2510TIP3   OH229088   5.363   6.590   3.563  0.3156  0.0070  0.5854
 2510TIP3    H129089   5.359   6.685   3.575  1.7421 -0.0832  2.1330
 2510TIP3    H229090   5.297   6.571   3.497 -2.2506  1.7036  2.5057
 2511TIP3   OH229091   4.722   1.416   8.244 -0.4434 -0.3323 -0.1128
 2511TIP3    H129092   4.817   1.403   8.255 -0.4785 -0.4714  0.0462
 2511TIP3    H229093   4.687   1.405   8.333 -0.4439  1.2043  0.0888
 2512TIP3   OH229094   2.353   3.493   0.125 -0.1083 -0.6210 -0.3498
 2512TIP3    H129095   2.338   3.561   0.061  0.3566 -0.9329 -0.8004
 2512TIP3    H229096   2.379   3.540   0.205 -0.0681 -0.2638 -0.5724
 2513TIP3   OH229097   2.748   3.013   3.597  0.3077  0.9090 -0.0202
 2513TIP3    H129098   2.802   2.945   3.557  0.3362  1.3213 -0.7007
 2513TIP3    H229099   2.777   3.094   3.555 -1.3929  1.0510 -0.9925
 2514TIP3   OH229100   2.600   4.324   2.013 -0.0683  0.0247 -0.2391
 2514TIP3    H129101   2.642   4.328   2.099 -1.2366  0.4909  0.3278
 2514TIP3    H229102   2.670   4.298   1.953  1.1521  1.2848  0.5932
 2515TIP3   OH229103   0.075   0.645   1.043  0.2045 -0.6732  0.3553
 2515TIP3    H129104   0.063   0.574   0.980 -0.6392 -0.5112  0.3231
 2515TIP3    H229105   0.155   0.621   1.091  1.4495 -0.3032 -1.4214
 2516TIP3   OH229106   3.854   1.612   7.770  0.5845  0.2405 -0.1318
 2516TIP3    H129107   3.802   1.574   7.699  0.0305  0.2254  0.2692
 2516TIP3    H229108   3.789   1.637   7.836  1.2197 -2.8008  1.8528
 2517TIP3   OH229109   3.298   1.400   8.231  0.3157  0.0851  0.1853
 2517TIP3    H129110   3.208   1.370   8.249 -0.2369  1.7873  0.4295
 2517TIP3    H229111   3.353   1.324   8.250 -1.1206 -1.2408 -0.6765
 2518TIP3   OH229112   3.154   2.537   2.443  0.3750 -0.2181 -0.1106
 2518TIP3    H129113   3.194   2.606   2.390  0.9480 -0.0117  0.5809
 2518TIP3    H229114   3.226   2.477   2.462  0.1422 -0.3614  0.3202
 2519TIP3   OH229115   6.490   5.326   1.448  0.2102 -0.3492 -0.0937
 2519TIP3    H129116   6.476   5.421   1.442 -1.3598 -0.5201  0.4561
 2519TIP3    H229117   6.574   5.317   1.493  0.0305  0.7854  0.5078
 2520TIP3   OH229118   2.889   2.845   0.845  0.0087 -0.3009 -0.4001
 2520TIP3    H129119   2.804   2.865   0.806 -0.6758 -0.0245  1.1417
 2520TIP3    H229120   2.870   2.833   0.938  1.4313 -1.6856 -0.2403
 2521TIP3   OH229121   5.407   3.194   1.598 -0.1230 -0.5646  0.3569
 2521TIP3    H129122   5.379   3.228   1.683 -1.0992  1.5292 -0.7365
 2521TIP3    H229123   5.499   3.172   1.611  0.0978  0.8853  1.6419
 2522TIP3   OH229124   5.686   3.387   7.702 -0.1283 -0.1814  0.0335
 2522TIP3    H129125   5.634   3.462   7.672 -0.3418  0.0293  0.8876
 2522TIP3    H229126   5.652   3.313   7.653 -0.6566  0.1059 -0.0467
 2523TIP3   OH229127   5.592   5.578   1.891  0.0817  0.0179 -0.4716
 2523TIP3    H129128   5.651   5.639   1.936 -2.0239  2.0035 -0.1835
 2523TIP3    H229129   5.565   5.516   1.960 -2.1939  2.3221  0.9059
 2524TIP3   OH229130   3.126   2.073   8.393  0.2117  0.3962 -0.3271
 2524TIP3    H129131   3.139   2.035   8.306  0.3681  1.0548 -0.5970
 2524TIP3    H229132   3.144   2.001   8.453 -0.7906 -0.3213 -0.8568
 2525TIP3   OH229133   3.252   5.005   0.079  1.0790 -0.0857 -0.7041
 2525TIP3    H129134   3.198   4.995   0.001  1.4224  0.8201 -1.0596
 2525TIP3    H229135   3.196   4.971   0.150 -0.5001  1.9593 -0.8648
 2526TIP3   OH229136   1.324   0.796   8.506  0.5045  0.3421 -0.1536
 2526TIP3    H129137   1.253   0.745   8.467  1.2977 -0.3490 -0.7234
 2526TIP3    H229138   1.341   0.865   8.442 -0.3007  1.1111  0.4360
 2527TIP3   OH229139   5.333   5.686   1.457 -0.4969 -0.1701 -0.3516
 2527TIP3    H129140   5.393   5.756   1.431  0.4454 -0.4508  0.9462
 2527TIP3    H229141   5.384   5.634   1.520 -1.2561 -1.8749 -1.0916
 2528TIP3   OH229142   4.616   5.008   8.058  0.1021  0.1369  0.3525
 2528TIP3    H129143   4.572   4.925   8.038 -1.1867  0.4903  1.5594
 2528TIP3    H229144   4.632   5.048   7.973 -2.6715  0.3395 -0.1676
 2529TIP3   OH229145   5.046   6.624   1.033 -0.1460 -0.1515 -0.1085
 2529TIP3    H129146   5.055   6.615   0.938 -0.2747 -1.5807 -0.0090
 2529TIP3    H229147   4.972   6.682   1.045 -0.6954 -0.6688 -0.8973
 2530TIP3   OH229148   5.822   2.334   0.535  0.8374  0.2968 -0.7111
 2530TIP3    H129149   5.839   2.287   0.453 -0.7167  1.2494 -1.6287
 2530TIP3    H229150   5.799   2.423   0.507 -0.7061  0.3794  0.6803
 2531TIP3   OH229151   3.943   6.881   2.149  0.1648 -0.4041  0.4680
 2531TIP3    H129152   3.873   6.845   2.094 -1.6433 -0.6706  2.7927
 2531TIP3    H229153   3.957   6.814   2.216  0.7727  0.7724  1.5606
 2532TIP3   OH229154   1.746   1.186   8.418  0.6201  0.3637  0.1914
 2532TIP3    H129155   1.797   1.164   8.340 -1.8573 -1.3309 -1.1071
 2532TIP3    H229156   1.770   1.118   8.481 -1.4401 -1.8135 -1.1797
 2533TIP3   OH229157   4.358   3.553   0.076 -0.3806  0.5215 -0.1264
 2533TIP3    H129158   4.440   3.602   0.086 -1.0040  1.3030  1.5927
 2533TIP3    H229159   4.313   3.565   0.159 -1.7267 -0.8820 -0.6086
 2534TIP3   OH229160   1.451   4.087   1.702 -0.1774 -0.0905 -0.1908
 2534TIP3    H129161   1.391   4.148   1.660  0.0909  1.9430  2.1337
 2534TIP3    H229162   1.395   4.025   1.748 -0.4490 -0.8157 -1.4557
 2535TIP3   OH229163   0.617   0.878   2.556  0.1317  0.6969  0.3508
 2535TIP3    H129164   0.536   0.846   2.517 -1.0122  1.7456  1.7624
 2535TIP3    H229165   0.616   0.973   2.540  2.3770  0.4727 -1.8279
 2536TIP3   OH229166   1.637   3.260   2.876 -0.1738  0.3843  0.4502
 2536TIP3    H129167   1.707   3.293   2.931  0.7680 -1.1301  0.2131
 2536TIP3    H229168   1.659   3.168   2.861 -1.9455  0.0017 -0.0511
 2537TIP3   OH229169   3.121   1.569   0.342  0.3966  0.3079  0.0589
 2537TIP3    H129170   3.214   1.573   0.319  0.5871  0.7607  0.8730
 2537TIP3    H229171   3.101   1.475   0.344  0.3425  0.2250 -1.9543
 2538TIP3   OH229172   3.427   4.617   2.351 -0.1044 -0.3925 -0.0013
 2538TIP3    H129173   3.466   4.630   2.264  0.4098 -0.2514  0.2444
 2538TIP3    H229174   3.382   4.533   2.345 -1.0085  0.1227 -0.7346
 2539TIP3   OH229175   2.386   1.778   1.384  0.4874 -0.4955  0.3355
 2539TIP3    H129176   2.452   1.761   1.452  2.6553  1.5720 -1.0944
 2539TIP3    H229177   2.322   1.834   1.427  0.1042 -1.7479  1.4853
 2540TIP3   OH229178   6.908   2.082   0.211  0.3445 -0.1751  0.3836
 2540TIP3    H129179   6.886   1.993   0.238 -0.4428 -0.4664 -1.1059
 2540TIP3    H229180   6.836   2.135   0.244  0.7307 -0.1043  1.1297
 2541TIP3   OH229181   4.122   4.794   1.808 -0.6736 -0.1122 -0.3982
 2541TIP3    H129182   4.038   4.778   1.851 -1.4035  0.8650 -1.4004
 2541TIP3    H229183   4.183   4.733   1.850 -2.0038 -1.2442 -0.0523
 2542TIP3   OH229184   3.748   3.407   1.088  0.2562  0.0773  0.2180
 2542TIP3    H129185   3.690   3.466   1.041  1.5947  0.8726 -0.5058
 2542TIP3    H229186   3.695   3.372   1.160 -1.0169  0.9550 -0.2734
 2543TIP3   OH229187   2.374   6.153   1.815 -0.1783 -0.1341 -1.1879
 2543TIP3    H129188   2.429   6.127   1.741 -0.0340 -1.1565 -0.7307
 2543TIP3    H229189   2.425   6.219   1.861 -0.9866  1.8723 -2.9535
 2544TIP3   OH229190   1.186   2.641   7.704 -0.0388  0.0678 -0.3259
 2544TIP3    H129191   1.259   2.638   7.766 -0.4786 -0.1136  0.1946
 2544TIP3    H229192   1.213   2.583   7.632  1.0368  1.3024 -0.9489
 2545TIP3   OH229193   6.876   2.932   1.142 -0.1838  0.0096 -0.2008
 2545TIP3    H129194   6.881   2.839   1.166 -0.1042 -0.0665 -0.5026
 2545TIP3    H229195   6.794   2.962   1.179  0.1751  0.0229  0.5894
 2546TIP3   OH229196   5.440   4.315   2.233  0.2303  0.1628 -0.2271
 2546TIP3    H129197   5.455   4.244   2.296 -1.4425  0.3387  0.4142
 2546TIP3    H229198   5.346   4.313   2.216  0.6036  0.1855 -2.6837
 2547TIP3   OH229199   5.645   4.498   3.662 -0.2463 -0.6576 -0.2615
 2547TIP3    H129200   5.730   4.495   3.620 -1.6419 -0.7208 -3.3857
 2547TIP3    H229201   5.587   4.537   3.597 -2.6971 -0.8895  1.6028
 2548TIP3   OH229202   0.930   6.474   7.712  0.1290 -0.2964 -0.7688
 2548TIP3    H129203   0.903   6.456   7.801  0.9255  0.3673 -0.3759
 2548TIP3    H229204   1.021   6.504   7.720 -0.2779  1.2955 -1.6224
 2549TIP3   OH229205   2.350   6.187   2.838 -0.5372  0.1785 -0.0463
 2549TIP3    H129206   2.328   6.205   2.929 -0.1616 -1.2140  0.3463
 2549TIP3    H229207   2.420   6.121   2.843 -0.7830 -0.2090 -1.3339
 2550TIP3   OH229208   0.446   4.638   7.866 -0.7788 -0.1861  0.4881
 2550TIP3    H129209   0.534   4.605   7.846 -0.4105 -0.1046  1.8353
 2550TIP3    H229210   0.430   4.705   7.800  0.2138 -0.1366  0.2814
 2551TIP3   OH229211   0.202   5.076   0.332  0.0520  0.1635 -0.0421
 2551TIP3    H129212   0.128   5.104   0.386 -1.2162 -1.7436 -0.7151
 2551TIP3    H229213   0.278   5.121   0.372 -1.0733  0.2255  2.2195
 2552TIP3   OH229214   3.686   5.664   8.156 -0.5452  0.8636 -0.2817
 2552TIP3    H129215   3.756   5.657   8.221 -1.6430 -0.9356  0.7956
 2552TIP3    H229216   3.727   5.708   8.081  1.4157  0.8560  0.7289
 2553TIP3   OH229217   5.393   3.416   0.869 -0.4707 -0.3566 -0.1055
 2553TIP3    H129218   5.376   3.364   0.947  1.1123  0.9761  1.2047
 2553TIP3    H229219   5.325   3.483   0.868 -0.6169 -0.5038  0.0110
 2554TIP3   OH229220   1.189   6.798   2.425 -0.0126 -0.6302  0.0913
 2554TIP3    H129221   1.172   6.704   2.415 -1.3752 -0.7206  2.4796
 2554TIP3    H229222   1.231   6.807   2.511 -0.3681  0.9725  0.1414
 2555TIP3   OH229223   1.727   0.697   2.792  0.2124  0.0849  0.5334
 2555TIP3    H129224   1.753   0.781   2.830 -0.6180  0.8283 -0.4869
 2555TIP3    H229225   1.643   0.677   2.834  0.0460  0.1390  0.2298
 2556TIP3   OH229226   1.361   0.142   0.755 -0.4044  0.2921  0.1436
 2556TIP3    H129227   1.403   0.059   0.776 -1.0582 -0.0374  0.1916
 2556TIP3    H229228   1.402   0.206   0.814  0.6401  0.1557 -0.4279
 2557TIP3   OH229229   4.261   0.446   1.398 -0.0461  0.1592 -0.3581
 2557TIP3    H129230   4.173   0.482   1.408 -0.6301 -1.0673 -0.8477
 2557TIP3    H229231   4.317   0.522   1.385 -1.0572  0.9537 -0.1729
 2558TIP3   OH229232   1.283   3.361   0.833  0.0811  0.4447  0.3475
 2558TIP3    H129233   1.341   3.300   0.878  0.5136  1.5375  1.3274
 2558TIP3    H229234   1.324   3.375   0.748  0.5359  0.1725  0.5205
 2559TIP3   OH229235   4.610   0.081   2.039  0.8812 -0.0436 -0.4154
 2559TIP3    H129236   4.559   0.004   2.015 -0.4893  0.8371 -0.4235
 2559TIP3    H229237   4.624   0.073   2.133 -0.2488  0.2385 -0.2045
 2560TIP3   OH229238   4.351   1.742   7.646 -0.0601  0.1724  0.7319
 2560TIP3    H129239   4.256   1.740   7.643 -0.1936  2.9143 -0.1363
 2560TIP3    H229240   4.379   1.708   7.561 -0.2567 -0.4546  0.9151
 2561TIP3   OH229241   6.845   3.663   0.462 -0.7034 -0.1494 -0.2819
 2561TIP3    H129242   6.813   3.666   0.372 -0.1597  0.8609 -0.4611
 2561TIP3    H229243   6.788   3.601   0.506 -2.3442  0.9116 -0.8079
 2562TIP3   OH229244   3.571   1.829   1.606 -0.1461 -0.7430 -0.3343
 2562TIP3    H129245   3.495   1.870   1.564  0.3913 -0.1647 -0.7905
 2562TIP3    H229246   3.545   1.816   1.697 -0.5247  0.1534 -0.3027
 2563TIP3   OH229247   0.435   4.499   7.405 -0.2280  0.3304 -0.3141
 2563TIP3    H129248   0.515   4.545   7.381 -0.3903 -0.3048 -2.2518
 2563TIP3    H229249   0.423   4.434   7.336 -1.6100 -0.6060  0.7486
 2564TIP3   OH229250   3.668   3.767   2.713 -0.0869 -0.2643  0.0615
 2564TIP3    H129251   3.617   3.846   2.733 -0.2128 -0.3003 -0.1125
 2564TIP3    H229252   3.647   3.748   2.622 -0.0173 -0.4703  0.0883
 2565TIP3   OH229253   3.013   2.668   0.638 -0.1412  0.1820  0.4933
 2565TIP3    H129254   3.027   2.744   0.695 -1.3362  2.1498 -1.6764
 2565TIP3    H229255   3.101   2.648   0.605  0.2145  0.5367  1.1899
 2566TIP3   OH229256   0.901   5.725   1.001  0.1237 -0.3797 -0.3144
 2566TIP3    H129257   0.947   5.737   1.084 -0.3258  0.6789 -0.2038
 2566TIP3    H229258   0.810   5.746   1.021  0.2231  1.2103 -1.3577
 2567TIP3   OH229259   2.957   3.566   3.164  0.2933 -0.0946 -0.3506
 2567TIP3    H129260   2.878   3.619   3.169  1.0796  1.1218 -0.6100
 2567TIP3    H229261   3.017   3.605   3.228  1.1620 -0.1765 -1.1005
 2568TIP3   OH229262   6.167   2.346   2.439  0.0954  0.3485 -0.3720
 2568TIP3    H129263   6.153   2.268   2.384  0.1447  0.8235 -1.0645
 2568TIP3    H229264   6.236   2.320   2.500  1.5749  0.4898 -1.9095
 2569TIP3   OH229265   1.334   3.256   0.009  0.4888 -0.1678  0.0864
 2569TIP3    H129266   1.245   3.284  -0.012  0.3655  0.1444  0.9623
 2569TIP3    H229267   1.330   3.232   0.102  1.5064  0.6984  0.3827
 2570TIP3   OH229268   0.195   6.510   2.368 -0.1446 -0.3452 -0.1560
 2570TIP3    H129269   0.207   6.527   2.275  0.0980 -1.0005 -0.2534
 2570TIP3    H229270   0.143   6.430   2.371  0.7583 -0.9368  0.2566
 2571TIP3   OH229271   6.522   2.941   0.641 -0.8037  0.5287 -0.1564
 2571TIP3    H129272   6.522   3.013   0.704 -0.6745 -0.5832  1.1558
 2571TIP3    H229273   6.563   2.978   0.563  1.3486  1.2750  1.2301
 2572TIP3   OH229274   4.829   3.915   8.047  0.7648  0.3566  0.5082
 2572TIP3    H129275   4.903   3.869   8.008  0.1140  0.1144 -0.4775
 2572TIP3    H229276   4.819   3.875   8.134  0.0045 -1.6513 -0.4417
 2573TIP3   OH229277   0.992   6.484   2.399  0.1315  0.0583 -0.3880
 2573TIP3    H129278   1.011   6.480   2.493  2.3189 -1.1169 -0.8184
 2573TIP3    H229279   0.897   6.469   2.393 -0.2126  1.0361  1.6495
 2574TIP3   OH229280   2.571   3.264   0.533 -0.0737  0.1434  0.3131
 2574TIP3    H129281   2.567   3.359   0.532 -0.5411  0.1304  0.5596
 2574TIP3    H229282   2.659   3.243   0.565  1.3060  0.4868 -2.9172
 2575TIP3   OH229283   4.657   4.122   1.448 -0.0688 -0.0271  0.2672
 2575TIP3    H129284   4.598   4.176   1.500 -0.8356  0.4763 -1.0827
 2575TIP3    H229285   4.707   4.184   1.395  0.1269 -0.5656 -0.1873
 2576TIP3   OH229286   3.686   6.047   1.066 -0.3335  0.5615 -0.1107
 2576TIP3    H129287   3.707   5.966   1.113 -0.9003 -0.0882 -0.9581
 2576TIP3    H229288   3.769   6.076   1.029 -0.0782  0.5243  0.4240
 2577TIP3   OH229289   6.825   2.661   8.307  0.2056  0.4010 -0.0425
 2577TIP3    H129290   6.873   2.580   8.324  1.9154  1.0854 -1.3783
 2577TIP3    H229291   6.893   2.725   8.287 -1.1842  1.9016 -0.1246
 2578TIP3   OH229292   5.500   6.856   0.655 -0.0063  0.1544 -0.0845
 2578TIP3    H129293   5.528   6.884   0.742 -1.2884  1.1258  0.0454
 2578TIP3    H229294   5.556   6.906   0.595  0.3597  0.0549  0.1698
 2579TIP3   OH229295   4.611   2.116   0.033  0.5096 -0.4659  0.1807
 2579TIP3    H129296   4.696   2.149   0.064  0.4987 -0.7453  0.5178
 2579TIP3    H229297   4.551   2.190   0.043  0.7360 -0.2342 -0.1590
 2580TIP3   OH229298   5.072   0.503   2.433  0.1944  0.6234 -0.7230
 2580TIP3    H129299   5.157   0.525   2.397  0.1090 -0.7140 -1.8297
 2580TIP3    H229300   5.086   0.421   2.481 -0.9232 -1.2575 -3.3232
 2581TIP3   OH229301   4.545   6.341   7.456 -0.1894 -0.3620  0.0064
 2581TIP3    H129302   4.488   6.403   7.411  1.9299  0.9530 -1.0354
 2581TIP3    H229303   4.567   6.275   7.390  0.2320 -0.3292  0.1078
 2582TIP3   OH229304   3.452   1.358   1.997 -0.2704 -0.3535  0.7477
 2582TIP3    H129305   3.397   1.344   1.920 -0.3600  3.8503 -0.1839
 2582TIP3    H229306   3.541   1.367   1.962 -0.2170  0.9165  1.1317
 2583TIP3   OH229307   2.975   1.006   8.322 -0.2240  0.0634 -0.2396
 2583TIP3    H129308   3.052   0.995   8.266  1.1220  3.0878  0.7630
 2583TIP3    H229309   2.901   1.007   8.261  1.1345  2.8299 -2.0653
 2584TIP3   OH229310   6.637   6.184   0.968  0.8129 -0.6165 -0.2070
 2584TIP3    H129311   6.648   6.262   0.913 -1.0141 -0.8040 -0.8971
 2584TIP3    H229312   6.550   6.194   1.006  0.7813 -2.0520  0.1354
 2585TIP3   OH229313   2.769   3.334   2.544  0.3397  0.0978 -0.0934
 2585TIP3    H129314   2.693   3.329   2.486 -1.9057  0.3401  2.6561
 2585TIP3    H229315   2.781   3.245   2.576 -0.9086  0.6208  1.9620
 2586TIP3   OH229316   1.800   6.520   1.724 -0.1508 -0.1374  0.1398
 2586TIP3    H129317   1.779   6.437   1.683  1.0097 -0.1352 -0.5015
 2586TIP3    H229318   1.788   6.585   1.655 -3.9386  0.7034  1.3624
 2587TIP3   OH229319   4.284   1.052   1.086 -0.3308 -0.0233 -0.5746
 2587TIP3    H129320   4.371   1.091   1.095  0.0173 -0.7395 -0.7740
 2587TIP3    H229321   4.299   0.971   1.036 -0.9056 -0.8737  0.5852
 2588TIP3   OH229322   4.815   2.544   7.497 -0.2275 -0.4596  0.1856
 2588TIP3    H129323   4.884   2.482   7.520  0.9336  0.4771 -0.6380
 2588TIP3    H229324   4.767   2.558   7.578 -0.5890 -2.4717  0.3766
 2589TIP3   OH229325   2.690   3.256   7.337 -0.0581 -0.2992 -0.6602
 2589TIP3    H129326   2.699   3.347   7.363 -1.6365 -0.5068  0.7700
 2589TIP3    H229327   2.765   3.212   7.378 -0.7680 -0.0692  0.9589
 2590TIP3   OH229328   3.004   1.835   1.750  0.4701 -0.1099  0.0748
 2590TIP3    H129329   2.965   1.815   1.665  0.0906  0.1479  0.1847
 2590TIP3    H229330   2.930   1.865   1.804  0.3899 -1.8095  1.0003
 2591TIP3   OH229331   0.077   4.457   1.757 -0.0858  0.1887 -0.2490
 2591TIP3    H129332   0.138   4.518   1.798 -1.3969  1.2557  0.2108
 2591TIP3    H229333   0.077   4.482   1.665  1.1770 -0.7195 -0.5060
 2592TIP3   OH229334   3.242   3.834   1.398  0.1797  0.2056 -0.3169
 2592TIP3    H129335   3.239   3.742   1.372  0.7294  0.3710 -1.0021
 2592TIP3    H229336   3.150   3.857   1.417 -0.1035 -0.2163 -1.1287
 2593TIP3   OH229337   4.332   2.865   7.929 -0.3925 -0.1045  0.0847
 2593TIP3    H129338   4.297   2.786   7.889 -0.3049  0.1672 -0.5379
 2593TIP3    H229339   4.257   2.924   7.936 -0.4283 -0.1866  0.4138
 2594TIP3   OH229340   4.631   6.133   1.737  0.3101  0.3568 -0.5521
 2594TIP3    H129341   4.642   6.073   1.663  0.3940 -0.0872 -0.1913
 2594TIP3    H229342   4.678   6.212   1.711  0.6684  0.0642 -0.8215
 2595TIP3   OH229343   3.523   4.053   0.176  0.3512 -0.8201 -0.5547
 2595TIP3    H129344   3.438   4.034   0.217 -0.5459  3.0348 -0.2006
 2595TIP3    H229345   3.586   4.043   0.246 -0.3690  0.0161  0.2328
 2596TIP3   OH229346   3.656   2.663   2.583  0.1894 -0.5658 -0.3952
 2596TIP3    H129347   3.630   2.633   2.670  0.6306 -0.5987 -0.2754
 2596TIP3    H229348   3.584   2.636   2.526 -0.3270 -0.1281  0.0371
 2597TIP3   OH229349   6.184   1.409   0.830 -0.0102  0.4675  0.1210
 2597TIP3    H129350   6.262   1.359   0.855 -0.3525  0.3395  0.9480
 2597TIP3    H229351   6.205   1.443   0.743  0.2317 -1.1240 -0.4895
 2598TIP3   OH229352   3.731   1.415   0.192  0.2218 -0.1224  0.0546
 2598TIP3    H129353   3.657   1.449   0.141 -0.4199 -1.8126 -0.2287
 2598TIP3    H229354   3.704   1.426   0.284  0.5839  1.2540  0.0087
 2599TIP3   OH229355   1.986   4.624   7.508  0.0401 -0.2326 -0.5499
 2599TIP3    H129356   1.973   4.586   7.422  0.9928 -0.8835 -0.4245
 2599TIP3    H229357   2.039   4.702   7.493  0.3401 -0.4319 -0.5541
 2600TIP3   OH229358   1.907   4.779   0.587 -0.1731  0.3111  0.0668
 2600TIP3    H129359   1.875   4.862   0.621  0.4739  0.1262  1.2113
 2600TIP3    H229360   1.974   4.803   0.523 -0.7866  0.6732 -0.4417
 2601TIP3   OH229361   3.594   4.003   8.465 -0.2855  0.0555  0.3706
 2601TIP3    H129362   3.538   4.010   8.543 -0.3671 -0.0291  0.3189
 2601TIP3    H229363   3.617   3.911   8.461 -0.5850 -0.0081  0.0811
 2602TIP3   OH229364   6.306   2.884   3.040  0.5056  0.4348  0.0587
 2602TIP3    H129365   6.366   2.855   2.971 -0.6469 -1.7027 -0.1491
 2602TIP3    H229366   6.296   2.807   3.096 -0.1746  1.5086  1.4705
 2603TIP3   OH229367   3.820   2.040   0.342  0.0387 -0.2452  0.0772
 2603TIP3    H129368   3.894   2.039   0.282  0.4331 -1.5851  0.5459
 2603TIP3    H229369   3.856   2.071   0.425 -0.0275 -0.4031  0.1672
 2604TIP3   OH229370   1.855   1.075   2.431 -0.4207 -0.0486  0.5186
 2604TIP3    H129371   1.870   1.142   2.497 -0.7471  0.0628  0.4815
 2604TIP3    H229372   1.815   1.002   2.479 -0.0109 -0.2396  0.5696
 2605TIP3   OH229373   1.140   6.108   7.786  0.1589  0.3016 -0.1085
 2605TIP3    H129374   1.209   6.047   7.759  1.0213  1.2460 -0.1108
 2605TIP3    H229375   1.174   6.194   7.763 -0.2726  0.9296  1.4730
 2606TIP3   OH229376   3.614   1.423   0.458  0.4093 -0.1695 -0.0690
 2606TIP3    H129377   3.581   1.350   0.511  1.5229 -1.3382 -0.9479
 2606TIP3    H229378   3.696   1.449   0.500  0.5422 -0.1127 -0.3595
 2607TIP3   OH229379   5.752   5.043   2.581  0.1271  0.7546 -0.2694
 2607TIP3    H129380   5.710   4.985   2.645 -1.5229  1.8304 -0.3172
 2607TIP3    H229381   5.762   4.990   2.503 -1.0446  0.4191 -0.2070
 2608TIP3   OH229382   5.344   2.369   2.348  0.3617  0.2511 -0.4940
 2608TIP3    H129383   5.428   2.333   2.377 -0.0185 -0.0682  0.2233
 2608TIP3    H229384   5.344   2.459   2.382 -0.4821 -0.4082  1.3691
 2609TIP3   OH229385   6.195   5.008   1.081 -0.2447 -0.3959  0.1258
 2609TIP3    H129386   6.180   5.036   1.171 -0.2096  0.2124 -0.0522
 2609TIP3    H229387   6.276   5.052   1.055  0.3032 -1.3707  0.1243
 2610TIP3   OH229388   3.783   3.977   2.406 -0.3078 -0.0701  0.5184
 2610TIP3    H129389   3.837   3.949   2.480 -0.4798  0.9151  1.0439
 2610TIP3    H229390   3.782   4.073   2.413  0.4850  0.1071 -1.3442
 2611TIP3   OH229391   3.490   4.272   1.998 -0.3241 -0.3385 -0.9449
 2611TIP3    H129392   3.394   4.274   1.998 -0.3837 -0.5246  1.2314
 2611TIP3    H229393   3.512   4.184   2.027  0.5716 -0.7575 -2.7549
 2612TIP3   OH229394   6.602   4.839   2.014  0.2582 -0.0337  0.2105
 2612TIP3    H129395   6.548   4.803   1.943  1.2603  1.5011 -1.3960
 2612TIP3    H229396   6.634   4.762   2.061 -0.5432 -1.0879 -0.9219
 2613TIP3   OH229397   2.992   3.922   8.266  0.3489 -0.7719 -0.0972
 2613TIP3    H129398   2.941   3.845   8.242 -0.4903  0.0451 -1.0338
 2613TIP3    H229399   3.007   3.912   8.360 -1.4687 -1.1188  0.1992
 2614TIP3   OH229400   0.906   4.797   1.308  0.3434 -0.3742 -0.3982
 2614TIP3    H129401   0.969   4.824   1.241  0.1821  1.4163  0.1105
 2614TIP3    H229402   0.826   4.775   1.259 -0.0104  1.6179 -0.8157
 2615TIP3   OH229403   4.356   4.390   8.171  0.4106  0.3607  0.0151
 2615TIP3    H129404   4.301   4.356   8.242 -0.3941 -0.4647 -0.9656
 2615TIP3    H229405   4.348   4.325   8.102  3.6308 -0.4337  0.2370
 2616TIP3   OH229406   5.571   0.910   0.284  0.4536  0.1729 -0.4711
 2616TIP3    H129407   5.503   0.977   0.285 -2.1540 -2.2778 -0.6561
 2616TIP3    H229408   5.572   0.875   0.374  0.3156 -0.8445 -0.8495
 2617TIP3   OH229409   1.840   1.668   2.130  0.4930  0.6846 -0.1049
 2617TIP3    H129410   1.751   1.636   2.146  1.0938 -0.8807  0.2301
 2617TIP3    H229411   1.878   1.678   2.217  1.5812 -1.4719 -0.2827
 2618TIP3   OH229412   3.001   0.774   1.929 -0.0954 -0.0131  0.6315
 2618TIP3    H129413   2.928   0.730   1.973  1.1465 -2.4173  0.4607
 2618TIP3    H229414   3.068   0.707   1.921  1.3219  1.5020 -1.2175
 2619TIP3   OH229415   0.849   2.549   8.261 -0.2584  0.2829 -0.3818
 2619TIP3    H129416   0.915   2.591   8.316  1.5972  0.4765 -2.6144
 2619TIP3    H229417   0.865   2.455   8.273 -1.0073  0.2778  0.6814
 2620TIP3   OH229418   6.214   5.391   1.693  0.5527  0.3552 -0.1667
 2620TIP3    H129419   6.185   5.473   1.733  2.5247  0.7776  0.4820
 2620TIP3    H229420   6.171   5.323   1.744  2.8727  0.8723  2.7071
 2621TIP3   OH229421   6.668   4.355   7.991 -0.5871 -0.1792 -0.1291
 2621TIP3    H129422   6.641   4.398   7.909  2.0257 -0.4174 -1.2261
 2621TIP3    H229423   6.648   4.263   7.977 -0.8448 -0.1181 -0.1731
 2622TIP3   OH229424   6.310   5.884   8.343 -0.5243  0.0085  0.4119
 2622TIP3    H129425   6.286   5.806   8.293  1.1804 -0.2439 -0.0632
 2622TIP3    H229426   6.377   5.927   8.290 -1.5074  1.8934  0.6016
 2623TIP3   OH229427   6.701   6.542   1.347 -0.5717  0.0075 -0.5613
 2623TIP3    H129428   6.791   6.570   1.365 -0.6270 -0.1016 -0.1163
 2623TIP3    H229429   6.709   6.486   1.269 -0.1272 -0.7227 -0.0046
 2624TIP3   OH229430   6.662   0.704   8.020 -0.7070 -0.3451 -0.1067
 2624TIP3    H129431   6.688   0.759   8.094  1.9709 -1.7125  0.1006
 2624TIP3    H229432   6.644   0.765   7.949 -0.3526  0.8801  0.8208
 2625TIP3   OH229433   5.102   3.466   7.281  0.0181 -0.1199 -0.2302
 2625TIP3    H129434   5.029   3.431   7.332  1.2016 -0.4394  1.3347
 2625TIP3    H229435   5.175   3.407   7.301  1.2239  1.3518 -0.1339
 2626TIP3   OH229436   6.365   3.056   8.415  0.0408 -0.4887 -0.4385
 2626TIP3    H129437   6.320   3.074   8.332 -0.9973 -0.3799  0.1350
 2626TIP3    H229438   6.296   3.032   8.476  0.7669 -0.3553  0.4693
 2627TIP3   OH229439   1.760   1.446   8.306  0.3512  0.3104 -0.4942
 2627TIP3    H129440   1.780   1.371   8.362 -2.4123 -0.1515  0.0272
 2627TIP3    H229441   1.838   1.501   8.310  0.7897 -0.3500  2.7341
 2628TIP3   OH229442   0.525   0.351   1.608 -0.2313 -0.2899 -0.1917
 2628TIP3    H129443   0.578   0.271   1.603  1.8410  0.9069  1.1320
 2628TIP3    H229444   0.536   0.392   1.522 -0.0705 -0.6901 -0.3632
 2629TIP3   OH229445   4.940   5.038   0.980  0.0768  0.5371  0.4104
 2629TIP3    H129446   4.852   5.005   1.000 -0.0847  0.3266 -0.5925
 2629TIP3    H229447   4.927   5.131   0.961 -0.1050  0.2832 -0.7715
 2630TIP3   OH229448   1.608   1.110   1.396  0.2285  0.0271  0.2946
 2630TIP3    H129449   1.630   1.020   1.375  1.9080  0.2261  1.0456
 2630TIP3    H229450   1.690   1.148   1.430 -1.1262  0.9792  2.8114
 2631TIP3   OH229451   6.077   5.110   1.326 -0.0438  0.0563 -0.0805
 2631TIP3    H129452   6.011   5.147   1.268 -0.7495 -1.4272 -0.2763
 2631TIP3    H229453   6.120   5.186   1.365 -0.1763  1.0766 -1.8260
 2632TIP3   OH229454   6.767   1.321   0.622 -0.1669 -0.2531  0.2253
 2632TIP3    H129455   6.847   1.367   0.647 -0.1274 -0.1023 -0.1730
 2632TIP3    H229456   6.718   1.313   0.704 -0.3373  0.8168  0.2432
 2633TIP3   OH229457   0.220   3.124   2.344 -0.0636 -0.5247 -0.3414
 2633TIP3    H129458   0.293   3.085   2.296  0.1582  0.2128 -0.6174
 2633TIP3    H229459   0.260   3.161   2.423 -0.2344 -0.6322 -0.2041
 2634TIP3   OH229460   3.575   1.612   7.665 -0.2920 -0.2382 -0.1013
 2634TIP3    H129461   3.603   1.701   7.689  0.5733  0.3932 -3.0256
 2634TIP3    H229462   3.480   1.616   7.668 -0.2537  0.5363  0.6094
 2635TIP3   OH229463   5.205   5.771   0.190 -0.0668 -0.4135  0.3882
 2635TIP3    H129464   5.291   5.769   0.230 -0.1790  1.5063  0.7982
 2635TIP3    H229465   5.222   5.784   0.096  0.0919  0.7533  0.5698
 2636TIP3   OH229466   4.071   3.837   7.978 -0.4146 -0.6287 -0.0674
 2636TIP3    H129467   3.979   3.853   7.957 -0.6986 -3.4108 -1.3621
 2636TIP3    H229468   4.117   3.848   7.895 -0.0974 -2.3082 -0.1500
 2637TIP3   OH229469   4.388   5.727   1.152  0.1471  0.3084 -0.5521
 2637TIP3    H129470   4.321   5.697   1.090  0.2890 -0.2344 -0.4514
 2637TIP3    H229471   4.340   5.749   1.232  0.2117 -1.4352  0.0098
 2638TIP3   OH229472   2.726   4.132   8.545  0.6092  0.3601 -0.2802
 2638TIP3    H129473   2.770   4.209   8.581 -0.4259  1.7799 -1.8987
 2638TIP3    H229474   2.726   4.147   8.450  0.3862 -1.6623 -0.6443
 2639TIP3   OH229475   1.869   5.942   1.204 -0.5534  0.6397  0.1833
 2639TIP3    H129476   1.886   5.859   1.250 -1.0623  0.6164  0.3341
 2639TIP3    H229477   1.953   5.988   1.206 -0.2271  0.0649 -0.0306
 2640TIP3   OH229478   2.245   1.980   8.246  0.0178  0.4944 -0.4932
 2640TIP3    H129479   2.315   2.042   8.269 -0.4922  0.6128  0.8127
 2640TIP3    H229480   2.283   1.894   8.262  0.0729  0.5353 -0.4045
 2641TIP3   OH229481   1.366   2.087   7.420  0.5387  0.0663  0.5106
 2641TIP3    H129482   1.448   2.135   7.434  0.1653  1.5047 -1.7249
 2641TIP3    H229483   1.361   2.027   7.494  2.8127  1.0350  1.5633
 2642TIP3   OH229484   0.642   4.647   8.554  0.1938 -0.0132 -0.5390
 2642TIP3    H129485   0.568   4.658   8.494  0.0450  1.4225 -0.1187
 2642TIP3    H229486   0.700   4.586   8.508  0.2403  1.2730 -2.3188
 2643TIP3   OH229487   1.622   6.285   2.371 -0.5575 -0.0457  0.3054
 2643TIP3    H129488   1.537   6.324   2.389 -2.2388 -3.5624  0.7411
 2643TIP3    H229489   1.608   6.230   2.294  1.5938 -0.0833 -0.1384
 2644TIP3   OH229490   0.720   0.315   2.585 -0.2893 -0.0353  0.0967
 2644TIP3    H129491   0.749   0.376   2.518 -0.2065  0.4777  0.5904
 2644TIP3    H229492   0.644   0.272   2.547 -1.6495  1.8692  0.5016
 2645TIP3   OH229493   3.995   1.241   0.573 -0.8680  0.7135 -0.2536
 2645TIP3    H129494   4.070   1.187   0.550 -1.7977  0.0085 -1.8406
 2645TIP3    H229495   3.919   1.191   0.543 -2.0722  0.9351  2.2111
 2646TIP3   OH229496   0.333   1.689   1.809 -0.1148  0.2063 -0.9947
 2646TIP3    H129497   0.308   1.781   1.799  0.5254  0.3220 -1.7287
 2646TIP3    H229498   0.257   1.640   1.779 -0.9477  0.4584  0.6164
 2647TIP3   OH229499   4.203   0.529   0.069  0.0184 -0.3349 -0.0348
 2647TIP3    H129500   4.256   0.586   0.013  0.3713  0.4111  1.0343
 2647TIP3    H229501   4.267   0.478   0.118 -0.2958 -1.8461 -1.1462
 2648TIP3   OH229502   6.597   5.444   2.731  0.3936 -0.2349  0.1884
 2648TIP3    H129503   6.560   5.532   2.741  0.6148 -0.1175 -0.0098
 2648TIP3    H229504   6.597   5.408   2.819 -3.0425 -1.4010 -0.1419
 2649TIP3   OH229505   0.861   2.264   1.829  0.0216  0.2493 -0.5944
 2649TIP3    H129506   0.939   2.273   1.883 -0.8763 -1.2149  1.0676
 2649TIP3    H229507   0.831   2.354   1.814  0.3937  0.7216  1.2755
 2650TIP3   OH229508   6.304   6.820   0.335  0.2003  0.1219 -0.2234
 2650TIP3    H129509   6.240   6.782   0.274  0.2667 -1.0785  0.4161
 2650TIP3    H229510   6.349   6.744   0.372  1.2101  0.9036  0.1920
 2651TIP3   OH229511   5.329   2.711   2.845  0.5854 -0.1438  0.0783
 2651TIP3    H129512   5.245   2.683   2.809  0.5265  0.5728 -0.3715
 2651TIP3    H229513   5.312   2.798   2.880  0.9903 -0.2605  0.5799
 2652TIP3   OH229514   0.622   4.085   7.139 -0.2365  0.2562  0.0590
 2652TIP3    H129515   0.530   4.106   7.122  0.2606  0.9449 -2.0451
 2652TIP3    H229516   0.669   4.165   7.116  0.8785  0.1638  1.8037
 2653TIP3   OH229517   3.504   5.800   2.524 -0.3702  0.0420 -0.4573
 2653TIP3    H129518   3.444   5.859   2.570 -1.1978  0.0046 -1.4758
 2653TIP3    H229519   3.480   5.807   2.432  0.3088 -0.9992 -0.7346
 2654TIP3   OH229520   1.162   2.529   2.808  0.0037  0.1797  0.1663
 2654TIP3    H129521   1.122   2.617   2.810  1.3817  0.8182  0.6002
 2654TIP3    H229522   1.103   2.478   2.752 -1.2981  1.1399  0.5955
 2655TIP3   OH229523   1.022   0.966   2.527 -0.3875  0.1979 -0.1753
 2655TIP3    H129524   1.111   1.003   2.528 -0.4310  0.2965  0.6923
 2655TIP3    H229525   1.005   0.948   2.435  1.0125 -0.9621 -0.2388
 2656TIP3   OH229526   0.047   6.079   3.006  0.2498 -0.7048 -0.3992
 2656TIP3    H129527   0.101   6.069   3.084  0.4955 -1.5662 -0.6743
 2656TIP3    H229528   0.061   6.170   2.979  0.3919 -0.4871  0.3867
 2657TIP3   OH229529   1.051   0.355   7.991  0.1852 -0.4091 -0.0864
 2657TIP3    H129530   1.113   0.323   7.925  0.7365  0.1284  0.1636
 2657TIP3    H229531   1.018   0.438   7.955  0.5531 -0.0718  0.3531
 2658TIP3   OH229532   1.244   3.573   7.960  0.5887  0.0553  0.2457
 2658TIP3    H129533   1.248   3.520   8.039  0.6201  1.1518  1.0126
 2658TIP3    H229534   1.206   3.656   7.989 -0.6515  0.0174 -1.1559
 2659TIP3   OH229535   1.507   3.383   7.828  0.0268 -0.7049  0.3327
 2659TIP3    H129536   1.511   3.414   7.918  1.3918  0.9179 -0.2464
 2659TIP3    H229537   1.418   3.404   7.799 -0.2042 -0.6454  1.0793
 2660TIP3   OH229538   4.451   6.490   1.428 -0.3145  0.2955  0.5167
 2660TIP3    H129539   4.368   6.469   1.471 -0.3187  1.1473  0.9338
 2660TIP3    H229540   4.470   6.580   1.454  0.7764  0.0896  0.4701
 2661TIP3   OH229541   0.939   3.258   2.390  0.3554 -0.3632  0.0558
 2661TIP3    H129542   0.980   3.338   2.421 -2.0081  1.7492 -1.8281
 2661TIP3    H229543   0.857   3.253   2.438 -0.5680 -0.3339 -1.4436
 2662TIP3   OH229544   1.680   6.592   1.437 -0.1366  0.2206  0.5834
 2662TIP3    H129545   1.720   6.534   1.373  0.2915 -0.0691  1.1124
 2662TIP3    H229546   1.748   6.657   1.456 -0.6575  0.9928 -0.1108
 2663TIP3   OH229547   6.677   5.076   7.905 -0.9197  0.1007 -0.1790
 2663TIP3    H129548   6.651   5.051   7.993  1.1697  1.8164  1.0324
 2663TIP3    H229549   6.617   5.147   7.882 -0.6782  0.5105  0.4244
 2664TIP3   OH229550   4.553   2.454   0.274  0.1809 -0.5358  0.1817
 2664TIP3    H129551   4.562   2.521   0.342  0.8878  1.1338 -1.4455
 2664TIP3    H229552   4.615   2.385   0.299 -0.1368 -0.3308  1.6055
 2665TIP3   OH229553   5.512   2.770   0.532 -0.0518  0.5819 -0.3106
 2665TIP3    H129554   5.568   2.846   0.518  0.1231  0.5014 -0.0606
 2665TIP3    H229555   5.440   2.802   0.586  1.0192  0.1586  1.4330
 2666TIP3   OH229556   1.669   1.466   1.915  0.4846  0.7565  0.0798
 2666TIP3    H129557   1.677   1.425   2.001  0.9048  1.0232  0.1713
 2666TIP3    H229558   1.594   1.525   1.923 -0.1299  0.0164 -0.0545
 2667TIP3   OH229559   5.277   1.092   1.005  0.1829  0.3218 -0.5946
 2667TIP3    H129560   5.195   1.044   1.017 -0.2661  0.7746 -1.6531
 2667TIP3    H229561   5.318   1.092   1.091 -0.8450 -0.0840 -0.0856
 2668TIP3   OH229562   4.944   5.831   0.210  0.1020  0.4161  0.2676
 2668TIP3    H129563   4.904   5.759   0.161 -0.9742  1.4579 -0.4286
 2668TIP3    H229564   5.038   5.822   0.193 -0.0537 -0.5679 -0.1469
 2669TIP3   OH229565   1.411   1.982   2.569 -0.6294 -0.5425 -0.6285
 2669TIP3    H129566   1.369   2.063   2.543 -1.0097 -0.1747  1.0245
 2669TIP3    H229567   1.338   1.925   2.596 -0.3733 -1.4733 -1.7914
 2670TIP3   OH229568   3.488   6.197   7.634 -0.3373 -0.2582  0.0663
 2670TIP3    H129569   3.496   6.102   7.625  0.5926 -0.3684  1.6354
 2670TIP3    H229570   3.573   6.224   7.670 -0.1993  1.3209 -1.3537
 2671TIP3   OH229571   3.122   5.734   7.529 -0.1097  0.5679  0.7446
 2671TIP3    H129572   3.205   5.732   7.482 -0.3964  0.6437  0.2320
 2671TIP3    H229573   3.087   5.645   7.521 -0.2068  0.6070  0.7361
 2672TIP3   OH229574   0.542   1.722   0.291 -0.2248  0.0952 -0.1291
 2672TIP3    H129575   0.484   1.734   0.216 -1.4018  0.3925  0.8051
 2672TIP3    H229576   0.538   1.804   0.339  1.3065  0.2718 -0.2469
 2673TIP3   OH229577   3.038   2.548   0.877 -0.1432  1.1069 -0.4428
 2673TIP3    H129578   2.976   2.545   0.950  0.1991  2.0286 -0.0938
 2673TIP3    H229579   2.988   2.588   0.806 -0.7204 -0.5066 -0.9919
 2674TIP3   OH229580   6.595   6.512   2.895 -0.4553 -0.5094 -0.0057
 2674TIP3    H129581   6.637   6.568   2.960  1.3849 -1.2213 -0.5256
 2674TIP3    H229582   6.662   6.447   2.872 -0.6613  0.2753 -3.3285
 2675TIP3   OH229583   3.988   1.242   1.355  0.1507 -0.5474  0.0053
 2675TIP3    H129584   4.046   1.260   1.429  1.1127  0.1663 -0.8770
 2675TIP3    H229585   3.921   1.310   1.359  0.5028 -0.1917 -0.0687
 2676TIP3   OH229586   4.796   5.598   1.710  0.0265 -0.1128  0.4699
 2676TIP3    H129587   4.761   5.515   1.676 -1.9783  1.2631 -1.0683
 2676TIP3    H229588   4.877   5.612   1.662  1.6467 -2.2007  2.3638
 2677TIP3   OH229589   1.406   4.900   0.583 -0.0088 -0.0924  0.8990
 2677TIP3    H129590   1.413   4.928   0.674  0.3690 -0.3517  0.9542
 2677TIP3    H229591   1.495   4.910   0.549  0.8227 -3.6756  1.6349
 2678TIP3   OH229592   4.316   6.224   0.009  0.5181  0.0578  0.9917
 2678TIP3    H129593   4.282   6.293  -0.048  1.5947  1.0106  1.4695
 2678TIP3    H229594   4.411   6.234   0.004  0.6614 -0.9112  1.6688
 2679TIP3   OH229595   5.996   1.353   1.383  0.0118 -0.1638  0.0858
 2679TIP3    H129596   6.048   1.357   1.464 -1.3727 -0.1841  1.0042
 2679TIP3    H229597   5.948   1.271   1.390 -0.6776  0.1973 -0.4101
 2680TIP3   OH229598   5.515   0.345   2.314 -0.0109  0.0009  0.3316
 2680TIP3    H129599   5.452   0.277   2.295 -0.7774  0.8273 -0.1451
 2680TIP3    H229600   5.537   0.332   2.407  0.0743 -1.0521  0.1749
 2681TIP3   OH229601   0.958   4.101   2.441  0.2630  0.1477 -0.0207
 2681TIP3    H129602   1.047   4.082   2.472  0.5335 -1.1211 -1.4473
 2681TIP3    H229603   0.911   4.132   2.519  1.5978 -0.3962  1.0401
 2682TIP3   OH229604   3.176   6.217   2.247 -1.0352  0.0884 -0.3241
 2682TIP3    H129605   3.085   6.240   2.265 -1.1606  0.0494 -0.8759
 2682TIP3    H229606   3.179   6.204   2.152 -0.6750 -0.8919 -0.1930
 2683TIP3   OH229607   1.989   0.150   1.346 -0.1126  0.1576 -0.5488
 2683TIP3    H129608   2.044   0.224   1.323 -1.0342  1.6454  1.6548
 2683TIP3    H229609   1.908   0.190   1.379 -1.5796 -1.8932 -1.4552
 2684TIP3   OH229610   1.985   0.506   7.966  0.5018  0.2143  0.2179
 2684TIP3    H129611   1.901   0.476   7.931  0.7790 -0.5252  0.1720
 2684TIP3    H229612   2.001   0.589   7.922 -0.0747  0.2292  0.0259
 2685TIP3   OH229613   0.836   4.581   0.194 -0.8194 -0.2610  0.1603
 2685TIP3    H129614   0.907   4.547   0.140  1.2292  2.5973  0.7831
 2685TIP3    H229615   0.769   4.607   0.131  0.5050  0.8112 -0.8824
 2686TIP3   OH229616   5.761   3.600   2.470  0.5334  0.6085  0.3995
 2686TIP3    H129617   5.720   3.654   2.403 -0.1941  0.2409  0.5439
 2686TIP3    H229618   5.723   3.513   2.458  4.1784 -0.8824 -2.1076
 2687TIP3   OH229619   4.120   3.869   1.464  0.3175  0.0474 -0.6688
 2687TIP3    H129620   4.107   3.851   1.557 -1.1003  1.1411 -0.6140
 2687TIP3    H229621   4.192   3.932   1.461  0.1910  0.2123 -0.2827
 2688TIP3   OH229622   1.521   0.684   1.587  0.1002 -0.0975 -0.0961
 2688TIP3    H129623   1.448   0.677   1.649  1.3046  1.5687  1.6564
 2688TIP3    H229624   1.531   0.596   1.551 -0.3180 -1.3483  2.5799
 2689TIP3   OH229625   1.601   2.417   1.466 -0.7668  0.7213  0.5462
 2689TIP3    H129626   1.683   2.432   1.514 -0.0079  2.2226 -1.0871
 2689TIP3    H229627   1.630   2.401   1.376 -2.2733  1.0488 -0.0148
 2690TIP3   OH229628   1.551   0.964   8.129  0.1207  0.0215  0.2339
 2690TIP3    H129629   1.564   0.879   8.087 -0.6493 -0.5329  1.0970
 2690TIP3    H229630   1.580   0.951   8.220 -2.5732 -0.1243  1.1398
 2691TIP3   OH229631   1.331   5.092   7.286  0.6693  0.2005  0.3038
 2691TIP3    H129632   1.404   5.093   7.225  1.5186  0.8222  1.3105
 2691TIP3    H229633   1.268   5.153   7.248  0.5182 -0.5466 -0.7122
 2692TIP3   OH229634   5.833   1.685   0.751  0.1066 -0.1424 -1.3827
 2692TIP3    H129635   5.744   1.709   0.775  0.6528  1.0270 -0.4086
 2692TIP3    H229636   5.871   1.648   0.831 -0.1579 -2.7850 -2.3772
 2693TIP3   OH229637   5.135   4.563   0.900  0.8165  0.7591 -0.0604
 2693TIP3    H129638   5.207   4.525   0.950  2.1309  3.1090 -0.0527
 2693TIP3    H229639   5.152   4.539   0.809  1.1338  0.6112  0.0379
 2694TIP3   OH229640   4.266   4.862   3.066 -0.0175  0.5716  0.4866
 2694TIP3    H129641   4.356   4.856   3.097  0.6763  0.3755 -1.4018
 2694TIP3    H229642   4.233   4.944   3.101  0.1205 -0.3536  2.9992
 2695TIP3   OH229643   5.871   5.155   2.872  0.2404  0.4184 -0.7997
 2695TIP3    H129644   5.784   5.132   2.838 -1.2364  0.2923  2.6367
 2695TIP3    H229645   5.927   5.082   2.846 -0.9230 -0.0338 -2.1667
 2696TIP3   OH229646   5.979   1.832   1.917 -0.6441 -0.2007  0.0123
 2696TIP3    H129647   6.039   1.898   1.882 -0.2147 -1.0587 -0.9045
 2696TIP3    H229648   6.034   1.771   1.965 -1.1817  0.7304  1.9038
 2697TIP3   OH229649   1.442   5.952   1.553  0.2496  0.1422 -0.2916
 2697TIP3    H129650   1.534   5.979   1.558 -0.4167  2.7617 -0.2883
 2697TIP3    H229651   1.439   5.886   1.484  2.0845  0.3445 -0.5992
 2698TIP3   OH229652   0.611   0.826   0.617 -0.1946  0.3685  0.3335
 2698TIP3    H129653   0.621   0.764   0.689  0.1934  0.2781  0.2063
 2698TIP3    H229654   0.678   0.893   0.634  1.5062 -0.8495 -1.1676
 2699TIP3   OH229655   2.326   2.022   7.504  0.1654 -0.4311 -0.4693
 2699TIP3    H129656   2.237   2.050   7.523  0.4859 -0.8398  1.9237
 2699TIP3    H229657   2.330   1.931   7.534  1.7062 -0.0237  0.6727
 2700TIP3   OH229658   5.974   3.424   2.149  0.2445 -0.0698  0.4683
 2700TIP3    H129659   6.011   3.395   2.066 -0.4658  0.6129 -0.1016
 2700TIP3    H229660   5.969   3.520   2.142 -0.4914 -0.0553  0.9957
 2701TIP3   OH229661   6.079   0.240   1.225 -0.5074  0.0390  0.0693
 2701TIP3    H129662   6.039   0.301   1.163  1.5048  1.7888  0.3920
 2701TIP3    H229663   6.134   0.183   1.171 -1.8202 -1.0868 -0.1441
 2702TIP3   OH229664   5.051   4.781   2.004  0.1335 -0.4228  0.1114
 2702TIP3    H129665   5.071   4.688   2.010 -0.3193 -0.4580  1.8383
 2702TIP3    H229666   5.134   4.822   1.983  0.7173 -1.0846  1.0545
 2703TIP3   OH229667   0.149   0.750   3.019 -0.7086 -0.0231 -0.6643
 2703TIP3    H129668   0.127   0.785   3.106 -1.6846  1.8456 -1.6148
 2703TIP3    H229669   0.186   0.664   3.038 -0.6523  0.4183  1.6282
 2704TIP3   OH229670   4.383   5.954   0.961 -0.1757 -0.0694  0.1175
 2704TIP3    H129671   4.383   5.980   0.868 -1.8675  0.9178  0.3351
 2704TIP3    H229672   4.417   5.865   0.961  1.8242  0.6234 -1.1969
 2705TIP3   OH229673   3.548   0.577   1.620 -0.4102 -0.2708  0.0753
 2705TIP3    H129674   3.570   0.627   1.698  1.4286 -1.5566  0.4626
 2705TIP3    H229675   3.484   0.513   1.649  0.6235 -1.0573  0.6946
 2706TIP3   OH229676   2.555   2.491   7.358  0.5252  0.0899 -0.1495
 2706TIP3    H129677   2.468   2.481   7.396  0.3696 -1.0521 -0.7675
 2706TIP3    H229678   2.560   2.583   7.332 -0.3821  0.2318  0.1569
 2707TIP3   OH229679   6.707   0.507   1.447 -0.3450  0.0440  0.1050
 2707TIP3    H129680   6.783   0.452   1.465 -0.6969 -0.9667 -1.3076
 2707TIP3    H229681   6.729   0.554   1.366 -0.4381  1.2680  0.7717
 2708TIP3   OH229682   6.863   0.390   1.179 -0.0262  0.5755  0.4318
 2708TIP3    H129683   6.827   0.380   1.091 -0.5161 -0.5502  0.7447
 2708TIP3    H229684   6.855   0.303   1.218  2.7062  0.3157  0.6599
 2709TIP3   OH229685   3.622   1.774   0.699  0.0652  0.5610 -0.1519
 2709TIP3    H129686   3.657   1.692   0.664 -1.5738 -0.0709 -0.3967
 2709TIP3    H229687   3.580   1.748   0.782  0.7664  1.4138  0.4884
 2710TIP3   OH229688   5.980   3.494   1.088 -0.1414  0.1183  0.1203
 2710TIP3    H129689   6.061   3.488   1.139  1.6808  0.9334 -2.4427
 2710TIP3    H229690   5.954   3.403   1.074  1.5044 -0.2840 -0.6406
 2711TIP3   OH229691   0.632   4.454   2.723  0.1456 -1.0194 -0.2887
 2711TIP3    H129692   0.654   4.542   2.753  0.0902 -0.4538 -1.8470
 2711TIP3    H229693   0.539   4.459   2.700  0.4973 -1.0453 -1.8041
 2712TIP3   OH229694   4.194   2.624   7.916 -0.0693  0.0838  1.0785
 2712TIP3    H129695   4.224   2.538   7.886  2.0840  1.4964 -1.2391
 2712TIP3    H229696   4.103   2.630   7.885 -0.4246 -1.5216  1.7535
 2713TIP3   OH229697   4.847   6.360   8.333 -0.3217 -0.4828 -0.0821
 2713TIP3    H129698   4.874   6.424   8.399  0.1684 -0.5564 -0.2075
 2713TIP3    H229699   4.830   6.413   8.255  0.8187 -0.5718 -0.4086
 2714TIP3   OH229700   5.781   3.766   1.901  0.1987  0.5441  0.1184
 2714TIP3    H129701   5.794   3.771   1.996 -1.5717  1.2018  0.3772
 2714TIP3    H229702   5.786   3.857   1.872  0.0570  0.4194 -0.3020
 2715TIP3   OH229703   3.394   0.615   2.601  0.0009 -0.5595 -0.7700
 2715TIP3    H129704   3.310   0.621   2.557 -0.1014  0.9393 -0.4240
 2715TIP3    H229705   3.431   0.703   2.595  0.1288 -0.3558  1.8198
 2716TIP3   OH229706   4.600   3.054   0.951 -0.5788 -0.2140 -0.2652
 2716TIP3    H129707   4.653   2.985   0.911 -0.3862 -0.3206  0.1703
 2716TIP3    H229708   4.544   3.009   1.013  0.7467  0.1826  1.2965
 2717TIP3   OH229709   3.992   5.031   2.748  0.0939  0.5063  0.4834
 2717TIP3    H129710   3.950   5.096   2.805 -0.6300 -1.4078  2.2783
 2717TIP3    H229711   4.082   5.062   2.738 -0.7532  2.8766 -0.5359
 2718TIP3   OH229712   3.242   4.403   0.020 -0.4379  0.4501  0.4296
 2718TIP3    H129713   3.220   4.314   0.050  1.9159 -0.1341  0.5841
 2718TIP3    H229714   3.298   4.389  -0.056  1.1112  1.7524  1.2871
 2719TIP3   OH229715   5.292   5.182   1.238 -0.0435 -0.0612 -0.4968
 2719TIP3    H129716   5.381   5.172   1.271 -0.0014  0.1382 -0.5458
 2719TIP3    H229717   5.279   5.106   1.181  0.1712  0.0187 -0.6546
 2720TIP3   OH229718   2.099   5.957   2.389 -0.5783  0.2705 -0.0253
 2720TIP3    H129719   2.119   5.879   2.441 -0.5663 -0.5292 -1.1896
 2720TIP3    H229720   2.040   5.926   2.321 -0.9292  1.3788 -0.2468
 2721TIP3   OH229721   4.448   0.274   0.874  0.1012  0.2592 -0.6896
 2721TIP3    H129722   4.483   0.333   0.941  0.6942 -1.5692  0.7036
 2721TIP3    H229723   4.517   0.269   0.808  1.3885 -1.1372  0.6670
 2722TIP3   OH229724   3.222   5.264   1.054  0.5409 -0.4864  0.2685
 2722TIP3    H129725   3.302   5.296   1.094  0.3332 -0.9088  1.0339
 2722TIP3    H229726   3.222   5.170   1.072  0.3340 -0.6512 -0.5364
 2723TIP3   OH229727   4.599   0.697   1.171 -0.2284  0.2871  0.2954
 2723TIP3    H129728   4.624   0.775   1.121 -1.1322 -0.0124 -0.6555
 2723TIP3    H229729   4.680   0.668   1.212  0.2113  1.4809  0.3234
 2724TIP3   OH229730   0.568   6.150   7.567  0.0979  0.1086  0.2783
 2724TIP3    H129731   0.639   6.090   7.590 -0.2947 -1.0130 -1.3531
 2724TIP3    H229732   0.584   6.173   7.476 -1.7072 -0.2618 -0.1566
 2725TIP3   OH229733   6.302   4.974   2.682 -0.3767  1.0626  0.1952
 2725TIP3    H129734   6.341   4.983   2.769  0.4474  1.1533 -0.1754
 2725TIP3    H229735   6.216   5.015   2.689 -1.3276 -0.9964  1.6183
 2726TIP3   OH229736   3.969   2.916   0.271 -0.2985  0.2357  0.2362
 2726TIP3    H129737   3.889   2.959   0.241 -0.0280  1.0198  0.5965
 2726TIP3    H229738   4.038   2.956   0.219  0.0056  0.5514  0.8736
 2727TIP3   OH229739   6.253   6.245   1.699  0.3089  0.3777 -0.7227
 2727TIP3    H129740   6.176   6.251   1.757 -0.7112 -0.0406 -1.9823
 2727TIP3    H229741   6.304   6.172   1.735  0.1485  0.6901  0.1585
 2728TIP3   OH229742   2.181   1.397   2.833 -0.4059 -0.3006 -0.6879
 2728TIP3    H129743   2.235   1.453   2.889 -1.6275  1.4287 -1.1624
 2728TIP3    H229744   2.219   1.310   2.844 -0.2498  0.0255  2.4326
 2729TIP3   OH229745   0.592   2.268   1.477  0.2488  0.2798  0.3182
 2729TIP3    H129746   0.588   2.247   1.384 -0.2330 -0.4894  0.5012
 2729TIP3    H229747   0.588   2.183   1.521  0.3807  0.6399  1.0458
 2730TIP3   OH229748   4.790   6.048   0.333  0.1700 -0.0075  0.0581
 2730TIP3    H129749   4.867   5.995   0.313  0.5779  0.8113 -0.6157
 2730TIP3    H229750   4.755   6.073   0.247 -1.5249 -1.2991  0.3333
 2731TIP3   OH229751   6.448   0.296   8.231 -0.2829 -0.0497  0.6352
 2731TIP3    H129752   6.473   0.313   8.140 -0.9323 -0.9250  0.2859
 2731TIP3    H229753   6.432   0.383   8.267  1.4023  0.4285  0.3594
 2732TIP3   OH229754   2.667   0.090   2.166 -0.3545  0.0440  0.2235
 2732TIP3    H129755   2.755   0.058   2.183 -0.9300 -2.2233 -0.6679
 2732TIP3    H229756   2.630   0.108   2.252  0.1767 -1.3394  0.7660
 2733TIP3   OH229757   4.508   1.110   2.169 -0.4029 -0.1061  0.2715
 2733TIP3    H129758   4.553   1.115   2.085 -0.4742 -0.4022  0.2137
 2733TIP3    H229759   4.496   1.016   2.184 -0.9928 -0.0328  0.2866
 2734TIP3   OH229760   3.644   6.019   2.087 -0.1650  0.7111  0.2252
 2734TIP3    H129761   3.700   6.097   2.080  1.5375 -0.5393 -0.9285
 2734TIP3    H229762   3.704   5.949   2.113 -2.0104  0.1067  3.5346
 2735TIP3   OH229763   3.476   1.978   8.433 -0.3936 -0.8046  0.2556
 2735TIP3    H129764   3.529   1.935   8.366  0.7394  0.0449  0.5652
 2735TIP3    H229765   3.501   2.070   8.428 -2.2398 -0.2790  0.0827
 2736TIP3   OH229766   0.382   6.375   2.551 -0.0202  0.4759 -0.4349
 2736TIP3    H129767   0.385   6.451   2.493 -1.3365  1.0589  0.2317
 2736TIP3    H229768   0.312   6.394   2.613 -0.5869 -1.3971 -0.4275
 2737TIP3   OH229769   1.583   6.368   3.170  0.1580 -0.0116 -0.4140
 2737TIP3    H129770   1.551   6.452   3.137 -1.1365 -0.7140 -1.0050
 2737TIP3    H229771   1.551   6.364   3.260 -0.0621 -0.0054 -0.4908
 2738TIP3   OH229772   0.599   4.783   1.275  0.0766 -0.5203  0.2898
 2738TIP3    H129773   0.581   4.697   1.313 -1.3486 -0.8719 -1.0968
 2738TIP3    H229774   0.526   4.838   1.304 -2.3115 -1.3382 -3.4409
 2739TIP3   OH229775   2.629   6.502   0.513  0.0169  0.8534  0.1677
 2739TIP3    H129776   2.719   6.518   0.483  0.0589  2.7933  1.1727
 2739TIP3    H229777   2.585   6.463   0.437  1.5014  0.5537 -0.5824
 2740TIP3   OH229778   4.596   1.802   1.922  0.4002 -0.1261 -0.3612
 2740TIP3    H129779   4.665   1.828   1.983 -1.4248 -0.4138  1.9743
 2740TIP3    H229780   4.522   1.860   1.943 -0.6255 -0.9124 -1.6387
 2741TIP3   OH229781   6.809   0.806   2.263  0.0677 -0.1347 -0.5409
 2741TIP3    H129782   6.813   0.868   2.336 -1.0812  1.0758 -1.4441
 2741TIP3    H229783   6.824   0.860   2.185 -1.0577 -0.9638 -1.3643
 2742TIP3   OH229784   3.467   6.129   2.310  0.1796 -1.1505 -0.1351
 2742TIP3    H129785   3.454   6.067   2.238  0.2104  1.0247 -2.1378
 2742TIP3    H229786   3.378   6.150   2.340  0.1659 -2.0375  0.4738
 2743TIP3   OH229787   3.398   3.329   8.169  0.3354 -0.1010  0.6331
 2743TIP3    H129788   3.494   3.335   8.176  0.2592  1.6918  0.6508
 2743TIP3    H229789   3.378   3.375   8.087 -0.4981 -0.6160  0.5500
 2744TIP3   OH229790   6.104   2.429   0.495 -0.1592 -0.1734 -0.3442
 2744TIP3    H129791   6.191   2.412   0.459  0.0018 -0.5062  0.1915
 2744TIP3    H229792   6.083   2.351   0.546  0.5297  1.1039  2.0604
 2745TIP3   OH229793   3.754   2.954   0.845 -0.0872 -0.3251  0.3862
 2745TIP3    H129794   3.846   2.938   0.867 -0.5361 -1.3967  1.6525
 2745TIP3    H229795   3.727   2.873   0.801 -0.1082  0.4803 -1.1172
 2746TIP3   OH229796   5.905   5.724   2.378 -0.0642  0.0688 -0.1419
 2746TIP3    H129797   5.970   5.788   2.408  0.5094 -0.5623  0.0051
 2746TIP3    H229798   5.874   5.758   2.294 -2.6242  2.5475  1.6302
 2747TIP3   OH229799   4.790   5.636   2.110 -0.0259 -0.7522  0.1047
 2747TIP3    H129800   4.764   5.708   2.167  1.1658 -0.0029 -0.2639
 2747TIP3    H229801   4.740   5.561   2.142 -1.5114  0.2800  0.3188
 2748TIP3   OH229802   0.921   6.521   1.033 -0.0036  0.0105 -0.1768
 2748TIP3    H129803   0.849   6.485   1.085 -1.0808 -0.7943 -2.1382
 2748TIP3    H229804   0.988   6.452   1.033  0.8516  0.7598  1.6481
 2749TIP3   OH229805   0.812   2.686   1.492 -0.2121 -0.3543 -0.4512
 2749TIP3    H129806   0.878   2.754   1.505 -0.9119  0.9705 -3.0609
 2749TIP3    H229807   0.730   2.727   1.519 -0.3825 -0.8664 -0.1911
 2750TIP3   OH229808   5.022   3.741   7.899  0.1382  0.3336 -0.8347
 2750TIP3    H129809   5.114   3.764   7.892  0.6548 -1.1568  0.4994
 2750TIP3    H229810   4.993   3.727   7.808  1.2591  0.6388 -1.2480
 2751TIP3   OH229811   3.569   2.674   1.969 -0.1469  0.9877  0.6107
 2751TIP3    H129812   3.481   2.700   1.940  0.0717  0.9916 -0.0768
 2751TIP3    H229813   3.591   2.735   2.039 -0.5793  1.1633  0.5954
 2752TIP3   OH229814   5.467   5.731   0.303  0.1815 -0.0374  0.1719
 2752TIP3    H129815   5.552   5.688   0.309  0.1484 -0.2005 -0.4924
 2752TIP3    H229816   5.485   5.813   0.258 -0.2255 -0.7035 -1.2641
 2753TIP3   OH229817   5.400   4.583   2.152  0.2743  0.1755  0.3742
 2753TIP3    H129818   5.457   4.651   2.115  0.7877 -0.4017  0.0865
 2753TIP3    H229819   5.460   4.525   2.199 -0.0223 -0.6473 -0.2426
 2754TIP3   OH229820   5.024   2.376   7.568  0.0202  0.6038 -0.6832
 2754TIP3    H129821   5.103   2.325   7.550  0.1265  0.6899 -0.4588
 2754TIP3    H229822   5.055   2.466   7.582 -0.2294  0.8637 -1.7215
 2755TIP3   OH229823   0.854   1.115   3.176  0.3112  0.0701 -0.3933
 2755TIP3    H129824   0.878   1.196   3.220  0.3357 -0.3222  0.3290
 2755TIP3    H229825   0.835   1.053   3.247 -0.3225 -0.3749 -0.9365
 2756TIP3   OH229826   0.778   2.337   7.724  0.1624  0.6449 -0.2942
 2756TIP3    H129827   0.753   2.407   7.784 -0.8691 -0.6687  0.8673
 2756TIP3    H229828   0.717   2.345   7.651  0.6878  1.5460 -0.6506
 2757TIP3   OH229829   5.010   4.304   0.036  0.4170  0.1358 -0.2839
 2757TIP3    H129830   5.023   4.394   0.006 -0.8133 -0.3321 -2.4639
 2757TIP3    H229831   5.083   4.255  -0.004 -0.5454 -0.2872 -1.5922
 2758TIP3   OH229832   5.488   1.285   0.965 -0.9189 -0.2158 -0.4010
 2758TIP3    H129833   5.480   1.285   1.060  1.0205  0.3440 -0.1965
 2758TIP3    H229834   5.399   1.304   0.934 -1.4622  0.2207  1.3026
 2759TIP3   OH229835   1.050   4.441   8.284  0.0620 -0.1624  0.0169
 2759TIP3    H129836   1.138   4.441   8.247  0.4218  0.0267  0.8615
 2759TIP3    H229837   0.998   4.493   8.222  0.5680 -0.1842 -0.4272
 2760TIP3   OH229838   6.853   3.979   8.196 -0.4766  0.1572 -0.0117
 2760TIP3    H129839   6.935   4.016   8.164 -0.4040  0.6630  0.7343
 2760TIP3    H229840   6.881   3.910   8.256 -0.6041 -0.0213 -0.1572
 2761TIP3   OH229841   1.300   6.063   8.426  0.3444  0.3443 -0.1105
 2761TIP3    H129842   1.286   5.984   8.479 -0.0118  0.3906 -0.1357
 2761TIP3    H229843   1.369   6.038   8.365 -1.1886 -0.6350 -1.5157
 2762TIP3   OH229844   1.729   0.639   1.095  1.0633 -0.2321 -0.2613
 2762TIP3    H129845   1.783   0.717   1.086  2.1383 -0.8864  0.2687
 2762TIP3    H229846   1.778   0.583   1.156  0.0752 -1.1059 -0.2399
 2763TIP3   OH229847   0.972   1.183   0.605 -0.3228  0.2385 -0.5597
 2763TIP3    H129848   0.949   1.203   0.515  0.2809 -2.1427 -1.3236
 2763TIP3    H229849   0.938   1.256   0.656 -0.0973  1.9800 -2.7708
 2764TIP3   OH229850   3.009   3.822   1.579 -0.0724  0.4550  0.2586
 2764TIP3    H129851   2.918   3.808   1.552  1.6360 -1.9896 -5.9648
 2764TIP3    H229852   3.035   3.740   1.621  0.2479 -0.9216 -2.3751
 2765TIP3   OH229853   5.828   5.121   8.461  0.5788  0.1609  0.2179
 2765TIP3    H129854   5.769   5.120   8.386  0.1040 -1.1566  0.5812
 2765TIP3    H229855   5.834   5.213   8.486 -1.0951  0.3543 -0.0160
 2766TIP3   OH229856   6.684   4.631   8.554  0.0945  0.1839 -0.0796
 2766TIP3    H129857   6.597   4.632   8.594  0.9346  0.2671  1.8533
 2766TIP3    H229858   6.697   4.539   8.529 -1.1573  0.4567 -1.8978
 2767TIP3   OH229859   6.797   4.233   0.140  0.6427 -0.2708  0.4011
 2767TIP3    H129860   6.729   4.294   0.112  0.0929 -0.8102  0.5271
 2767TIP3    H229861   6.811   4.254   0.233  0.8576  0.0374  0.2977
 2768TIP3   OH229862   4.185   6.081   3.605  0.2993  0.1431 -0.3894
 2768TIP3    H129863   4.162   6.086   3.698  3.3267  1.4674  0.3903
 2768TIP3    H229864   4.187   5.987   3.587  2.9268 -0.3962  1.9174
 2769TIP3   OH229865   6.232   6.082   2.166 -0.2999  0.0042  0.8041
 2769TIP3    H129866   6.237   6.172   2.199 -0.5599  0.3184  0.0233
 2769TIP3    H229867   6.314   6.041   2.194  0.2301  0.7610  0.3903
 2770TIP3   OH229868   6.247   1.349   0.083 -0.4543  0.6114 -0.0404
 2770TIP3    H129869   6.211   1.310   0.003  2.4556 -1.5326 -0.4831
 2770TIP3    H229870   6.229   1.285   0.151  2.5476 -0.7619 -0.3566
 2771TIP3   OH229871   1.386   4.672   1.630 -0.2220  0.4653 -0.5302
 2771TIP3    H129872   1.316   4.731   1.600 -0.1242  0.7943 -0.1159
 2771TIP3    H229873   1.445   4.728   1.680  0.1666  0.1216 -0.5988
 2772TIP3   OH229874   2.160   5.175   1.147 -0.1265 -0.4088  0.1452
 2772TIP3    H129875   2.183   5.127   1.068  1.0401 -0.6427  0.6044
 2772TIP3    H229876   2.189   5.265   1.131 -2.0778  0.1363 -0.6137
 2773TIP3   OH229877   1.987   2.188   0.126 -0.1626  0.2678  0.4269
 2773TIP3    H129878   1.899   2.152   0.128  0.1895 -0.7300 -0.7887
 2773TIP3    H229879   2.002   2.211   0.034  0.0029  2.6347  0.9828
 2774TIP3   OH229880   4.428   1.365   7.938 -1.1496 -0.2542  0.1683
 2774TIP3    H129881   4.430   1.455   7.907 -0.4959 -0.7924 -1.4523
 2774TIP3    H229882   4.429   1.373   8.034  2.0066  1.4690  0.1316
 2775TIP3   OH229883   4.420   6.673   2.234  0.0506  0.2707  0.6081
 2775TIP3    H129884   4.331   6.681   2.201 -0.2767  0.0762  1.4105
 2775TIP3    H229885   4.464   6.616   2.171 -0.2523  0.7519 -0.0447
 2776TIP3   OH229886   5.895   4.517   3.559  0.2138  0.0803  0.2057
 2776TIP3    H129887   5.923   4.591   3.506  0.9647  0.0193  0.5044
 2776TIP3    H229888   5.921   4.440   3.508  1.7548  0.0109  1.0414
 2777TIP3   OH229889   5.138   5.668   1.701  0.7635 -0.5029  0.1447
 2777TIP3    H129890   5.158   5.711   1.618  2.2031 -1.7286 -0.1839
 2777TIP3    H229891   5.214   5.685   1.756  1.5082 -2.7482 -0.0889
 2778TIP3   OH229892   5.554   4.933   3.828 -0.1445 -0.4963 -0.3015
 2778TIP3    H129893   5.586   4.845   3.850  0.0285 -0.8825 -2.0059
 2778TIP3    H229894   5.463   4.920   3.801 -0.6182  0.0924  0.8991
 2779TIP3   OH229895   5.068   2.434   2.431 -0.3657  0.3384 -0.0864
 2779TIP3    H129896   5.148   2.390   2.402  0.4568 -0.4785  3.0864
 2779TIP3    H229897   5.095   2.486   2.507 -2.7940  0.2188  0.9398
 2780TIP3   OH229898   4.675   0.290   0.725 -0.3002  0.2600 -0.6798
 2780TIP3    H129899   4.662   0.245   0.642 -2.6137  0.7892 -0.6606
 2780TIP3    H229900   4.685   0.220   0.789 -2.9132 -0.2907 -0.7863
 2781TIP3   OH229901   0.984   0.093   2.526 -0.1029 -0.5362  0.7650
 2781TIP3    H129902   0.988   0.036   2.450  2.2032 -0.8308  1.0321
 2781TIP3    H229903   0.904   0.066   2.572 -0.0346 -2.2961 -0.0626
 2782TIP3   OH229904   2.305   2.460   2.569 -0.3792 -0.4057 -0.2637
 2782TIP3    H129905   2.351   2.380   2.596  1.3871  0.1054 -1.5623
 2782TIP3    H229906   2.230   2.428   2.519  0.3585 -1.2859 -0.8577
 2783TIP3   OH229907   3.967   6.319   1.634 -0.5072 -0.3560  0.2166
 2783TIP3    H129908   3.965   6.355   1.722  0.4959  2.4921 -0.7917
 2783TIP3    H229909   3.884   6.348   1.595 -1.3346 -2.3173  0.4070
 2784TIP3   OH229910   2.320   2.181   1.070  0.1286  0.4069 -0.3194
 2784TIP3    H129911   2.251   2.194   1.006  0.4247 -0.2897 -0.7895
 2784TIP3    H229912   2.401   2.193   1.020  0.3582  1.0683  0.1927
 2785TIP3   OH229913   5.651   4.200   1.633  0.2084 -0.4341  0.0765
 2785TIP3    H129914   5.647   4.239   1.545 -0.1299 -1.5906 -0.4400
 2785TIP3    H229915   5.609   4.115   1.623  0.3111 -0.6473  1.3368
 2786TIP3   OH229916   4.475   1.233   3.183 -0.2217  0.4462  0.1637
 2786TIP3    H129917   4.494   1.261   3.272  0.1302 -1.3141  0.6819
 2786TIP3    H229918   4.558   1.242   3.136  0.3034 -1.0452  0.7262
 2787TIP3   OH229919   3.877   1.506   2.558  0.0898 -0.3734 -0.0072
 2787TIP3    H129920   3.893   1.445   2.486 -1.0352 -0.2958 -0.3442
 2787TIP3    H229921   3.782   1.504   2.570  0.1796  0.2589  0.9145
 2788TIP3   OH229922   5.895   0.769   2.514 -0.4946  0.6361 -0.3615
 2788TIP3    H129923   5.988   0.785   2.496 -0.8161  0.5864 -2.3246
 2788TIP3    H229924   5.890   0.675   2.533 -0.1064  0.7072  0.1172
 2789TIP3   OH229925   4.366   5.601   2.789  0.3961 -0.0823 -0.1502
 2789TIP3    H129926   4.435   5.535   2.795  0.6991  0.0255 -1.8844
 2789TIP3    H229927   4.394   5.671   2.847  1.5422 -0.2326 -0.4970
 2790TIP3   OH229928   4.674   3.660   0.958  0.2744 -0.1317  0.6346
 2790TIP3    H129929   4.595   3.714   0.952 -1.8827 -3.1923 -0.7749
 2790TIP3    H229930   4.663   3.610   1.039  1.1856 -0.0850  0.8032
 2791TIP3   OH229931   6.465   2.051   0.134 -0.0003 -0.2780 -0.9056
 2791TIP3    H129932   6.420   1.998   0.200 -1.2111  0.3856 -1.1684
 2791TIP3    H229933   6.455   2.141   0.165  1.4929 -0.1314 -0.7872
 2792TIP3   OH229934   6.287   4.787   2.138 -0.6101 -0.6970  0.7692
 2792TIP3    H129935   6.266   4.823   2.052  1.2519 -0.2156  0.4803
 2792TIP3    H229936   6.309   4.695   2.120  0.6687 -0.3642  0.5765
 2793TIP3   OH229937   6.875   0.955   7.640  0.0664 -0.3878  0.7642
 2793TIP3    H129938   6.930   1.032   7.625 -1.3987  0.9928  2.1515
 2793TIP3    H229939   6.786   0.985   7.621 -0.5019 -1.8894  0.9101
 2794TIP3   OH229940   1.951   4.008   0.031 -0.2273  0.4624 -0.4672
 2794TIP3    H129941   2.020   4.010   0.097 -1.3293  0.6509  0.7096
 2794TIP3    H229942   1.991   3.966  -0.044  1.6971  2.0928 -0.4344
 2795TIP3   OH229943   6.521   5.008   3.239  0.1024  0.1314 -0.0041
 2795TIP3    H129944   6.515   4.946   3.167 -0.4847 -0.0550  0.2020
 2795TIP3    H229945   6.558   4.958   3.312 -4.2673 -1.2949  1.5558
 2796TIP3   OH229946   5.107   1.970   7.781 -0.5670  0.0795 -0.9514
 2796TIP3    H129947   5.190   1.945   7.741 -0.6487 -0.8088 -0.5942
 2796TIP3    H229948   5.126   2.051   7.828  0.5076 -0.9181  0.4221
 2797TIP3   OH229949   0.711   4.609   7.732 -0.6203  0.0754 -0.2991
 2797TIP3    H129950   0.778   4.669   7.765 -0.8790  0.1219  0.1580
 2797TIP3    H229951   0.710   4.623   7.638  0.9838 -0.9415 -0.4995
 2798TIP3   OH229952   2.481   5.570   0.325 -0.5125 -0.1720 -0.0061
 2798TIP3    H129953   2.389   5.578   0.348 -0.5280 -3.3057  1.6606
 2798TIP3    H229954   2.527   5.617   0.395 -0.7711  1.0677 -0.6328
 2799TIP3   OH229955   2.183   6.794   8.420 -0.2065 -0.3613  0.2571
 2799TIP3    H129956   2.234   6.843   8.485  0.5288  0.0477 -0.6021
 2799TIP3    H229957   2.122   6.859   8.384  1.4411  0.2677 -1.5980
 2800TIP3   OH229958   0.073   0.630   1.676 -0.3869  0.0138 -0.0017
 2800TIP3    H129959   0.049   0.584   1.595 -0.9348 -1.9341  1.2106
 2800TIP3    H229960   0.162   0.600   1.694  0.1822  1.3600 -0.4672
 2801TIP3   OH229961   6.542   1.191   8.066  0.3556  0.3375 -0.4482
 2801TIP3    H129962   6.507   1.110   8.029 -2.2923  1.4527 -0.6193
 2801TIP3    H229963   6.563   1.245   7.989  1.4569  0.1124 -0.3257
 2802TIP3   OH229964   0.352   6.067   2.048 -0.5359  0.2871 -0.2837
 2802TIP3    H129965   0.282   6.133   2.045 -2.6107 -1.8425 -2.3673
 2802TIP3    H229966   0.315   5.995   2.098 -0.6571 -1.6459 -2.9633
 2803TIP3   OH229967   0.338   3.682   1.015  0.6710 -0.4319  0.3024
 2803TIP3    H129968   0.420   3.639   1.039  0.1370 -1.9641 -0.4670
 2803TIP3    H229969   0.269   3.622   1.045 -0.1339  0.3218  0.0105
 2804TIP3   OH229970   6.577   5.936   8.253 -0.0540  0.0259  0.6041
 2804TIP3    H129971   6.595   5.967   8.342  1.7142  0.3835  0.1425
 2804TIP3    H229972   6.635   5.861   8.241 -0.6042 -0.3012 -0.1047
 2805TIP3   OH229973   4.546   6.815   7.489 -0.1732  0.0307 -0.0391
 2805TIP3    H129974   4.585   6.888   7.537 -0.6927 -0.5217  1.2778
 2805TIP3    H229975   4.606   6.742   7.504  0.0467  0.0305 -0.8762
 2806TIP3   OH229976   1.095   6.270   1.612  0.0394 -0.0222 -0.3324
 2806TIP3    H129977   1.157   6.215   1.660  0.0333 -0.9166 -1.2877
 2806TIP3    H229978   1.144   6.348   1.588  0.4187 -0.1558  0.0061
 2807TIP3   OH229979   5.012   4.496   1.794  0.8611 -0.3688 -0.0439
 2807TIP3    H129980   4.942   4.483   1.858  0.0571  0.4453 -0.7335
 2807TIP3    H229981   5.004   4.421   1.736 -0.8245  0.7425 -1.3413
 2808TIP3   OH229982   4.523   4.580   1.101  0.3786 -0.3295 -0.4680
 2808TIP3    H129983   4.444   4.631   1.120  1.0237  0.1078  1.1786
 2808TIP3    H229984   4.496   4.518   1.034 -0.0078  3.4634 -4.2873
 2809TIP3   OH229985   2.552   3.946   0.732  1.0399  0.3103 -0.0036
 2809TIP3    H129986   2.476   3.924   0.785 -0.2756  0.5998 -1.6874
 2809TIP3    H229987   2.517   3.961   0.644  3.0205  0.6273 -0.7990
 2810TIP3   OH229988   5.586   3.945   1.612  0.3260  0.4046  0.1979
 2810TIP3    H129989   5.558   3.854   1.627  2.5229 -0.3576  0.0095
 2810TIP3    H229990   5.553   3.965   1.524  1.3768 -0.9031 -0.5456
 2811TIP3   OH229991   0.757   3.235   0.252  0.0774 -0.0686  0.1032
 2811TIP3    H129992   0.806   3.300   0.303  0.2587  1.0049 -1.3763
 2811TIP3    H229993   0.668   3.269   0.248  0.6414  1.3985 -2.6038
 2812TIP3   OH229994   2.868   4.430   8.327 -0.1129 -0.2984 -0.5866
 2812TIP3    H129995   2.840   4.348   8.285 -0.2635 -1.2499  1.2589
 2812TIP3    H229996   2.920   4.401   8.402  1.9189  1.3595 -1.2468
 2813TIP3   OH229997   3.523   1.546   0.092  0.5853  0.4127 -0.4657
 2813TIP3    H129998   3.430   1.523   0.091  0.6781  0.0242 -0.6179
 2813TIP3    H229999   3.532   1.615   0.027  0.4668  0.1819 -0.7302
 2814TIP3   OH230000   2.849   0.373   2.874  0.1125  0.0847  0.2959
 2814TIP3    H130001   2.939   0.363   2.841  0.2484  0.0026  0.6835
 2814TIP3    H230002   2.855   0.346   2.966 -0.7811 -2.2725 -0.2716
 2815TIP3   OH230003   0.450   6.422   3.374  0.6048 -0.1172 -0.3277
 2815TIP3    H130004   0.497   6.476   3.437  0.2013 -0.4910  0.3124
 2815TIP3    H230005   0.508   6.416   3.299  1.0258  0.4775 -0.0567
 2816TIP3   OH230006   4.930   3.047   2.420  0.9688 -0.1931 -0.5777
 2816TIP3    H130007   4.888   2.964   2.443  2.5155 -0.3663  2.0563
 2816TIP3    H230008   5.000   3.022   2.360 -0.2681 -0.3748 -2.0041
 2817TIP3   OH230009   3.132   4.861   3.039  0.5383  0.0211  0.2073
 2817TIP3    H130010   3.087   4.796   3.093 -0.6156  1.0383  0.5309
 2817TIP3    H230011   3.145   4.936   3.097  1.4439  0.2615 -0.2796
 2818TIP3   OH230012   4.171   2.160   1.695  0.0741 -0.0591  0.1718
 2818TIP3    H130013   4.140   2.238   1.740  2.3241  1.5832 -0.9470
 2818TIP3    H230014   4.141   2.171   1.605  0.7194 -0.2782 -0.0790
 2819TIP3   OH230015   5.982   3.923   0.273  0.2772  0.6349  0.0392
 2819TIP3    H130016   5.909   3.865   0.252  0.8144  0.8492 -2.9072
 2819TIP3    H230017   6.060   3.871   0.254  0.7830  1.9260 -1.6976
 2820TIP3   OH230018   2.570   1.254   2.791 -0.3544  0.0603 -0.8459
 2820TIP3    H130019   2.589   1.292   2.705 -2.7062 -0.4648 -1.6787
 2820TIP3    H230020   2.568   1.159   2.775  0.7138 -0.1452  0.1523
 2821TIP3   OH230021   4.921   6.868   7.931  0.2188 -0.2921 -0.8265
 2821TIP3    H130022   4.837   6.865   7.884  0.2904 -0.6184 -0.9347
 2821TIP3    H230023   4.952   6.778   7.930  0.6931 -0.1267 -1.0043
 2822TIP3   OH230024   5.614   2.971   0.047 -0.0847 -0.3444  0.4182
 2822TIP3    H130025   5.522   2.983   0.024  0.2382  2.1312  0.1556
 2822TIP3    H230026   5.662   2.998  -0.032  0.8851  1.1744  1.4741
 2823TIP3   OH230027   0.750   6.099   1.906 -0.3467 -0.2594  0.4322
 2823TIP3    H130028   0.773   6.047   1.830  0.7094 -1.5391  1.5790
 2823TIP3    H230029   0.776   6.045   1.981 -2.4877  0.4118  1.7435
 2824TIP3   OH230030   4.422   0.216   1.393  0.1187  0.7154 -0.0050
 2824TIP3    H130031   4.387   0.170   1.316 -0.6839 -0.7716  1.2036
 2824TIP3    H230032   4.376   0.300   1.393 -0.2960  0.5039 -0.8196
 2825TIP3   OH230033   5.616   4.310   3.426  0.2067  0.1876 -0.3022
 2825TIP3    H130034   5.581   4.304   3.515  0.3645  1.0973 -0.1722
 2825TIP3    H230035   5.704   4.273   3.432  0.2794  0.4027 -0.0396
 2826TIP3   OH230036   6.070   4.676   2.782  0.1167 -0.9100 -0.0577
 2826TIP3    H130037   6.015   4.696   2.706  1.4649  0.8496 -0.6543
 2826TIP3    H230038   6.158   4.667   2.746  0.5385 -1.6993  1.1175
 2827TIP3   OH230039   4.634   2.023   2.420  0.1795 -0.1581  0.1835
 2827TIP3    H130040   4.554   1.978   2.449  0.7744 -0.5265  1.2748
 2827TIP3    H230041   4.601   2.098   2.369 -0.8373 -1.6293 -1.4658
 2828TIP3   OH230042   0.907   2.532   1.747 -0.2516  0.6490 -0.4715
 2828TIP3    H130043   0.910   2.479   1.668 -0.8382 -0.2158  0.0565
 2828TIP3    H230044   0.902   2.622   1.716  0.8593  0.4178 -1.3933
 2829TIP3   OH230045   5.836   5.929   7.112 -0.2328 -0.0854  0.5152
 2829TIP3    H130046   5.903   5.912   7.046 -0.1361 -0.3922  0.6917
 2829TIP3    H230047   5.756   5.890   7.075 -0.3254  0.3043  0.2925
 2830TIP3   OH230048   5.103   0.889   0.320 -0.2744 -0.4311  0.8977
 2830TIP3    H130049   5.111   0.827   0.248 -1.5223 -1.9223  1.9760
 2830TIP3    H230050   5.188   0.885   0.364  0.1885 -0.1735  0.0520
 2831TIP3   OH230051   0.114   0.146   0.988  0.0144 -0.1875 -0.5211
 2831TIP3    H130052   0.099   0.062   1.032 -1.0676  0.1409 -0.2246
 2831TIP3    H230053   0.202   0.139   0.953  0.2944 -1.0912  0.3029
 2832TIP3   OH230054   0.446   5.675   1.835  0.2583  0.1005  0.1901
 2832TIP3    H130055   0.484   5.682   1.748  0.6550  0.0312  0.3573
 2832TIP3    H230056   0.496   5.738   1.888  0.1127  0.0389  0.4007
 2833TIP3   OH230057   0.675   5.026   3.334 -0.4456  0.5177  0.1149
 2833TIP3    H130058   0.721   4.946   3.361 -1.0076  0.2427  0.3002
 2833TIP3    H230059   0.587   4.995   3.312 -0.0909  0.7901 -1.7782
 2834TIP3   OH230060   3.541   0.708   2.152  0.4076 -0.1259 -0.0456
 2834TIP3    H130061   3.537   0.639   2.085  0.2383 -0.6787  0.5198
 2834TIP3    H230062   3.613   0.682   2.209  0.8693  0.6018 -0.2799
 2835TIP3   OH230063   5.675   4.688   3.871 -0.2966  0.1046 -0.9786
 2835TIP3    H130064   5.768   4.669   3.881 -0.3696 -0.2882 -0.9980
 2835TIP3    H230065   5.638   4.606   3.836 -1.3357 -1.3077  2.8799
 2836TIP3   OH230066   5.913   0.340   1.021 -0.0472 -0.0381 -0.4106
 2836TIP3    H130067   5.830   0.357   1.065  0.0042  1.5953 -0.8717
 2836TIP3    H230068   5.899   0.368   0.931  1.9018  3.5582  0.2212
 2837TIP3   OH230069   0.644   3.588   0.161  0.5442 -0.1013  0.7635
 2837TIP3    H130070   0.557   3.628   0.159  1.2890  1.6252 -1.7508
 2837TIP3    H230071   0.633   3.508   0.213 -2.4315  0.2237  0.7815
 2838TIP3   OH230072   2.157   0.358   1.282  0.0502  0.3581 -0.5884
 2838TIP3    H130073   2.234   0.339   1.336 -1.1906  0.2832  1.2360
 2838TIP3    H230074   2.190   0.417   1.214  1.3024  2.1679  1.4704
 2839TIP3   OH230075   3.455   0.719   2.906  0.2567 -0.4585 -0.4162
 2839TIP3    H130076   3.467   0.781   2.834  2.3214  2.9391  2.4674
 2839TIP3    H230077   3.514   0.647   2.886  1.0066  0.5269 -1.9833
 2840TIP3   OH230078   3.658   2.239   1.980  0.3905 -0.0899  0.2214
 2840TIP3    H130079   3.729   2.299   1.956  1.8339 -2.1529 -1.0506
 2840TIP3    H230080   3.669   2.165   1.920 -2.9309 -0.4883 -0.0666
 2841TIP3   OH230081   1.729   0.977   0.714  0.8291 -0.1685  1.0056
 2841TIP3    H130082   1.771   1.060   0.690  1.1148 -0.0964  1.7187
 2841TIP3    H230083   1.636   0.998   0.723  0.7695 -0.1236  0.3250
 2842TIP3   OH230084   5.400   2.473   1.951  0.3343 -0.1755 -0.1895
 2842TIP3    H130085   5.326   2.456   2.009 -0.4572 -1.3678 -1.4905
 2842TIP3    H230086   5.442   2.551   1.989 -0.3520 -0.6724  1.7370
 2843TIP3   OH230087   0.723   5.100   0.184 -0.0254  0.4491 -0.1485
 2843TIP3    H130088   0.685   5.060   0.106  0.8930  0.9410 -0.8659
 2843TIP3    H230089   0.754   5.025   0.236 -2.5704 -0.0259  0.8403
 2844TIP3   OH230090   5.050   0.463   1.334 -0.6755  0.1270  0.4616
 2844TIP3    H130091   5.069   0.488   1.424 -1.7064  2.6640  0.0636
 2844TIP3    H230092   5.135   0.443   1.295 -0.1646 -0.4294  1.8134
 2845TIP3   OH230093   2.763   1.891   2.139 -0.4694 -0.0449 -0.0701
 2845TIP3    H130094   2.795   1.892   2.229  1.0725  0.1155 -0.5964
 2845TIP3    H230095   2.726   1.803   2.128 -0.6320 -0.0818  0.6842
 2846TIP3   OH230096   0.805   0.433   2.817  0.3120 -0.0479  0.4065
 2846TIP3    H130097   0.762   0.387   2.744 -1.3221 -0.9308  1.8402
 2846TIP3    H230098   0.752   0.512   2.829  0.0561 -0.3200  1.1332
 2847TIP3   OH230099   1.389   3.229   8.292 -0.3727  0.4043  0.0547
 2847TIP3    H130100   1.297   3.251   8.281 -1.1517 -0.0670  4.1393
 2847TIP3    H230101   1.412   3.264   8.378  3.3808  0.6615 -0.8561
 2848TIP3   OH230102   0.673   4.584   7.158  0.3761  0.0604  0.5133
 2848TIP3    H130103   0.613   4.511   7.144  1.6506 -0.8337 -0.5082
 2848TIP3    H230104   0.661   4.640   7.080  1.3562 -0.5022 -0.0631
 2849TIP3   OH230105   4.291   5.715   0.701 -0.5534  0.9186  0.1321
 2849TIP3    H130106   4.288   5.806   0.672  1.2069  0.8875 -0.2426
 2849TIP3    H230107   4.384   5.692   0.698 -0.9806 -0.9214  0.1449
 2850TIP3   OH230108   4.645   4.983   3.386  0.0149 -0.6549  0.5424
 2850TIP3    H130109   4.701   4.957   3.459  0.3633 -0.3065  0.4016
 2850TIP3    H230110   4.697   5.046   3.336 -0.7026  0.1189  0.7268
 2851TIP3   OH230111   0.740   2.356   8.034 -0.1604 -0.1917 -0.3055
 2851TIP3    H130112   0.653   2.389   8.054 -0.6522 -0.7802 -1.4194
 2851TIP3    H230113   0.773   2.324   8.118 -1.5135 -1.1087 -0.1050
 2852TIP3   OH230114   1.013   3.293   3.313 -0.2859  0.9108  0.2214
 2852TIP3    H130115   0.958   3.371   3.299 -1.9123 -0.2748 -0.2680
 2852TIP3    H230116   1.102   3.326   3.307 -0.9073  2.9563  1.2330
 2853TIP3   OH230117   3.778   2.074   1.015 -0.0633  0.3113  1.0238
 2853TIP3    H130118   3.699   2.104   0.970  0.6563  3.7463  1.7656
 2853TIP3    H230119   3.835   2.041   0.945 -0.1180  2.7904 -0.2954
 2854TIP3   OH230120   1.801   5.896   2.473 -0.0384 -0.5761 -0.4744
 2854TIP3    H130121   1.789   5.910   2.567 -0.7069  0.5261 -0.6951
 2854TIP3    H230122   1.831   5.981   2.440  0.4514 -1.0267 -1.2250
 2855TIP3   OH230123   0.019   4.483   2.807 -0.0484 -0.0177  0.0158
 2855TIP3    H130124  -0.028   4.410   2.846  1.1121  0.0590  1.6737
 2855TIP3    H230125  -0.040   4.558   2.817 -0.7301 -0.4666 -0.5603
 2856TIP3   OH230126   4.252   5.942   8.336 -0.4719  0.3824  0.4182
 2856TIP3    H130127   4.184   5.920   8.400 -0.2731 -0.7672  0.2652
 2856TIP3    H230128   4.206   5.943   8.252 -0.7091  1.7706  0.5494
 2857TIP3   OH230129   5.998   4.865   0.483  0.5307  0.4630  0.0398
 2857TIP3    H130130   6.035   4.777   0.488 -0.0801  0.1801 -0.3514
 2857TIP3    H230131   6.030   4.900   0.400 -0.0317  0.2349 -0.2778
 2858TIP3   OH230132   6.867   2.869   7.462  0.1470  0.1096  0.2420
 2858TIP3    H130133   6.845   2.798   7.521  1.0942  0.5436  1.1511
 2858TIP3    H230134   6.888   2.826   7.379  3.3109 -1.0123  1.4603
 2859TIP3   OH230135   4.088   5.477   8.306 -0.1897  0.2565 -0.2107
 2859TIP3    H130136   4.152   5.494   8.375  2.6708 -1.4957 -2.2159
 2859TIP3    H230137   4.127   5.512   8.226 -1.7040 -0.9479 -1.5633
 2860TIP3   OH230138   4.689   2.343   8.298 -0.2385  0.0033 -0.0457
 2860TIP3    H130139   4.774   2.335   8.254 -1.1243  0.9303 -2.1035
 2860TIP3    H230140   4.684   2.436   8.323 -0.2805 -0.2457  0.9031
 2861TIP3   OH230141   4.639   0.422   8.394 -0.1589  0.0532 -0.1403
 2861TIP3    H130142   4.556   0.468   8.381  0.0892  0.9554  1.2523
 2861TIP3    H230143   4.698   0.463   8.331 -0.0425  1.4391  0.8236
 2862TIP3   OH230144   0.408   3.279   7.792 -0.2738 -0.4535 -0.3472
 2862TIP3    H130145   0.367   3.303   7.709 -1.2380 -0.9211 -0.0162
 2862TIP3    H230146   0.420   3.362   7.838  1.1059 -0.0828 -1.3105
 2863TIP3   OH230147   6.884   5.452   0.376 -0.5516  0.4659 -0.3605
 2863TIP3    H130148   6.979   5.461   0.368 -0.5907  0.9538 -0.3362
 2863TIP3    H230149   6.871   5.382   0.439 -0.1638  2.5583  2.2071
 2864TIP3   OH230150   6.575   4.387   2.888 -0.0642 -0.1436  0.0586
 2864TIP3    H130151   6.652   4.370   2.942 -0.4444 -0.4860  0.5067
 2864TIP3    H230152   6.508   4.328   2.924  0.0811 -1.4616 -1.7103
 2865TIP3   OH230153   3.185   5.932   7.711  0.6452  0.0416 -0.3147
 2865TIP3    H130154   3.143   6.012   7.678 -2.0650 -0.5286  1.4114
 2865TIP3    H230155   3.159   5.864   7.650  2.3145  0.2872 -1.3528
 2866TIP3   OH230156   2.897   5.030   8.309 -0.4766 -0.0395  0.1967
 2866TIP3    H130157   2.986   5.003   8.330 -0.5028  1.1593  2.0232
 2866TIP3    H230158   2.886   5.005   8.217  1.4704 -0.8689  0.1377
 2867TIP3   OH230159   4.021   6.898   7.720 -0.0119 -0.0436  0.0365
 2867TIP3    H130160   3.967   6.819   7.724 -1.1902  0.7667  0.7516
 2867TIP3    H230161   4.106   6.868   7.687 -0.8292 -1.3838 -0.9305
 2868TIP3   OH230162   5.408   5.596   2.257  0.3499  0.5289  0.1640
 2868TIP3    H130163   5.482   5.570   2.202 -0.6734  0.0171 -0.9998
 2868TIP3    H230164   5.356   5.516   2.266 -0.3768  1.0317  0.4806
 2869TIP3   OH230165   6.431   6.010   2.635 -0.0688 -0.3047  0.0933
 2869TIP3    H130166   6.421   5.921   2.600 -0.1357  0.0127 -0.7216
 2869TIP3    H230167   6.525   6.026   2.634  0.1340 -1.0732  2.0988
 2870TIP3   OH230168   6.045   2.080   2.760 -0.7866  0.2525  0.5935
 2870TIP3    H130169   5.965   2.132   2.765  1.2371  3.5892  1.5195
 2870TIP3    H230170   6.064   2.057   2.850 -1.0683 -1.2188  0.2937
 2871TIP3   OH230171   1.986   3.707   1.434  0.0196  0.5691 -0.2858
 2871TIP3    H130172   1.903   3.749   1.457  0.7099  2.2400 -0.6615
 2871TIP3    H230173   2.050   3.745   1.494  0.5408 -0.6530 -0.0363
 2872TIP3   OH230174   1.678   0.037   0.977 -0.5489  0.3425 -0.1207
 2872TIP3    H130175   1.613  -0.018   1.021 -0.7505  1.2888  0.8160
 2872TIP3    H230176   1.658   0.126   1.007  1.1343  0.6683  0.1532
 2873TIP3   OH230177   4.827   2.773   2.212  0.2906 -0.3867  0.5742
 2873TIP3    H130178   4.813   2.758   2.305 -0.1465  0.4498  0.6523
 2873TIP3    H230179   4.783   2.700   2.169  2.0895 -1.8336  1.0617
 2874TIP3   OH230180   4.428   4.705   1.816 -0.3006 -0.2777  0.2530
 2874TIP3    H130181   4.500   4.682   1.757  0.8901 -1.0276  1.9394
 2874TIP3    H230182   4.374   4.626   1.818  0.1250 -0.5594  0.8146
 2875TIP3   OH230183   2.761   1.378   3.694  0.6161  0.5577  0.2766
 2875TIP3    H130184   2.792   1.316   3.760 -0.8101 -0.4081  0.0822
 2875TIP3    H230185   2.767   1.330   3.612  0.9179  1.2083 -0.0853
 2876TIP3   OH230186   2.727   1.593   1.864 -0.0038  0.3891 -0.7097
 2876TIP3    H130187   2.703   1.555   1.780  0.7402  0.6271 -1.0375
 2876TIP3    H230188   2.820   1.573   1.874 -0.3440 -0.7211  0.6407
 2877TIP3   OH230189   0.277   0.087   7.441  0.0676  0.3282  0.4398
 2877TIP3    H130190   0.340   0.155   7.414 -0.8924  1.2592  0.4520
 2877TIP3    H230191   0.327   0.006   7.439  0.8070  0.7649 -1.3535
 2878TIP3   OH230192   1.458   4.293   2.398 -0.4113 -0.8216 -0.4892
 2878TIP3    H130193   1.508   4.307   2.317 -1.5213  1.7715 -0.8228
 2878TIP3    H230194   1.373   4.260   2.368 -0.2264 -1.5770 -0.2079
 2879TIP3   OH230195   4.379   2.282   8.419  0.1433 -0.0170 -0.0930
 2879TIP3    H130196   4.428   2.364   8.421  1.8597 -0.9782  0.0565
 2879TIP3    H230197   4.437   2.221   8.372 -1.5278 -0.8750 -1.1331
 2880TIP3   OH230198   0.355   2.424   0.903 -0.6462 -0.2399  0.0346
 2880TIP3    H130199   0.319   2.501   0.860 -1.4462 -0.3086  0.5509
 2880TIP3    H230200   0.448   2.443   0.913 -1.0703  1.3466  1.5271
 2881TIP3   OH230201   0.818   6.228   8.369 -0.5189 -0.1303 -0.3574
 2881TIP3    H130202   0.770   6.173   8.431 -0.9288  0.6629  0.0405
 2881TIP3    H230203   0.894   6.258   8.418 -0.1366 -0.5844 -0.6711
 2882TIP3   OH230204   4.257   3.854   8.462 -0.5568 -0.5927  0.1667
 2882TIP3    H130205   4.177   3.873   8.413  0.6047  0.3634 -1.4916
 2882TIP3    H230206   4.254   3.911   8.538 -1.4895 -0.6472  0.1720
 2883TIP3   OH230207   1.195   1.241   2.285 -0.0628  0.2636  0.3308
 2883TIP3    H130208   1.110   1.281   2.303 -0.0669 -0.0969  1.1414
 2883TIP3    H230209   1.226   1.211   2.371  0.4590 -0.4479 -0.0999
 2884TIP3   OH230210   3.174   4.147   7.463 -0.1497 -0.2020  0.1777
 2884TIP3    H130211   3.169   4.054   7.442 -0.3157 -0.1448 -0.0422
 2884TIP3    H230212   3.135   4.155   7.550 -0.8301 -0.2305 -0.1233
 2885TIP3   OH230213   6.439   4.580   0.159  0.1128 -0.5737 -0.2990
 2885TIP3    H130214   6.357   4.577   0.110  0.1588 -1.0963 -0.3490
 2885TIP3    H230215   6.463   4.488   0.170  1.7030 -0.4088 -1.9662
 2886TIP3   OH230216   2.006   5.371   0.461  0.8027  0.2841 -0.3356
 2886TIP3    H130217   1.959   5.438   0.413 -0.6002 -0.6958 -0.3891
 2886TIP3    H230218   1.943   5.338   0.525  1.5907 -0.6820 -0.0253
 2887TIP3   OH230219   1.117   6.541   0.779 -0.0907  0.4212 -0.0592
 2887TIP3    H130220   1.037   6.589   0.802  0.1499  0.6690  0.2749
 2887TIP3    H230221   1.124   6.473   0.847  0.3153  0.7941  0.2771
 2888TIP3   OH230222   5.848   2.590   8.247  0.5281  0.3208 -0.5732
 2888TIP3    H130223   5.867   2.570   8.339 -0.2369  2.8556  0.2244
 2888TIP3    H230224   5.930   2.573   8.201  1.8369  1.7436  1.1072
 2889TIP3   OH230225   4.656   3.174   3.358  0.3328 -0.1505 -0.1208
 2889TIP3    H130226   4.651   3.086   3.321  1.6444 -0.7926  1.0901
 2889TIP3    H230227   4.570   3.189   3.396  0.7727 -1.9797  1.8076
 2890TIP3   OH230228   3.953   4.247   2.567 -0.3397  0.0844 -0.0570
 2890TIP3    H130229   4.044   4.265   2.547 -0.1697  1.1720  1.5885
 2890TIP3    H230230   3.948   4.151   2.573  1.2352  0.0878  2.1341
 2891TIP3   OH230231   3.932   5.000   3.388  0.1405  0.1615  0.0360
 2891TIP3    H130232   4.025   5.023   3.384 -0.0371  1.2074  1.2908
 2891TIP3    H230233   3.932   4.904   3.389  1.3235  0.1369  1.8298
 2892TIP3   OH230234   4.719   5.098   1.855  0.1700  0.3316 -0.1066
 2892TIP3    H130235   4.792   5.080   1.795  2.2368  0.0420  2.3474
 2892TIP3    H230236   4.643   5.108   1.797  1.4471 -2.6436 -2.5864
 2893TIP3   OH230237   4.096   1.170   2.293 -0.3172 -0.1627 -0.2596
 2893TIP3    H130238   4.091   1.264   2.311  0.7460  0.2426 -1.8256
 2893TIP3    H230239   4.139   1.133   2.371  0.8847  0.9372 -0.3575
 2894TIP3   OH230240   6.759   6.905   2.116 -0.2052 -0.3621 -0.2751
 2894TIP3    H130241   6.673   6.936   2.085 -1.5644 -1.6891  1.9562
 2894TIP3    H230242   6.787   6.972   2.178 -1.4999 -1.7061  1.8834
 2895TIP3   OH230243   6.726   2.341   0.482  0.0819 -0.2799  0.1937
 2895TIP3    H130244   6.696   2.431   0.470 -0.4954 -0.1144  2.3240
 2895TIP3    H230245   6.696   2.295   0.404  0.8027  1.4480 -1.1554
 2896TIP3   OH230246   0.085   2.357   0.471  0.8003  0.0174  0.4029
 2896TIP3    H130247  -0.006   2.328   0.485  0.2959  1.4512  0.3191
 2896TIP3    H230248   0.093   2.436   0.524  1.8820  0.1428  0.0730
 2897TIP3   OH230249   6.170   5.147   8.486 -0.0422 -0.3521  0.1925
 2897TIP3    H130250   6.231   5.178   8.419 -0.5767 -0.7209 -0.4762
 2897TIP3    H230251   6.090   5.126   8.438  0.1130 -2.2346  0.6673
 2898TIP3   OH230252   0.770   4.586   0.954 -0.1095  0.3365 -0.1281
 2898TIP3    H130253   0.774   4.660   0.895  0.6421  1.0707  0.8035
 2898TIP3    H230254   0.736   4.622   1.036 -1.6000 -0.7491 -0.2165
 2899TIP3   OH230255   1.244   3.183   2.613 -0.2005 -0.3007  0.1649
 2899TIP3    H130256   1.198   3.262   2.642  1.0404  1.1379 -1.5189
 2899TIP3    H230257   1.335   3.211   2.605  0.1499 -1.7098 -1.1807
 2900TIP3   OH230258   6.129   2.845   1.949  0.4054  0.4203 -0.5346
 2900TIP3    H130259   6.181   2.765   1.944  0.5226  0.5243 -1.1250
 2900TIP3    H230260   6.081   2.838   2.031  1.0045  0.1076 -0.2046
 2901TIP3   OH230261   4.761   3.795   7.419 -0.1436  0.0068 -0.0399
 2901TIP3    H130262   4.810   3.743   7.355 -1.4176 -1.1708 -0.1228
 2901TIP3    H230263   4.777   3.750   7.502 -1.1067 -0.4282 -0.0800
 2902TIP3   OH230264   2.758   1.848   3.830 -0.3247 -0.7445 -0.3880
 2902TIP3    H130265   2.798   1.934   3.844  1.4547 -1.7015  0.7162
 2902TIP3    H230266   2.670   1.868   3.797  0.0647  1.4815 -0.2503
 2903TIP3   OH230267   6.087   6.613   0.230  0.6818  0.0985 -0.9452
 2903TIP3    H130268   6.027   6.679   0.264 -1.7170 -1.8130 -1.1513
 2903TIP3    H230269   6.126   6.574   0.307 -1.2597 -1.1130 -0.4834
 2904TIP3   OH230270   4.012   5.798   0.498  0.4243 -0.4719  0.0642
 2904TIP3    H130271   4.002   5.889   0.525  0.4440  0.0241 -1.5190
 2904TIP3    H230272   3.935   5.754   0.535 -0.2279  0.4333 -0.1683
 2905TIP3   OH230273   4.000   2.659   1.332 -0.4072  0.1834  0.6937
 2905TIP3    H130274   3.928   2.611   1.292 -0.6032  1.1953 -0.2099
 2905TIP3    H230275   3.970   2.750   1.336 -0.4786  0.1333  3.3572
 2906TIP3   OH230276   6.113   3.963   2.069  1.1792  0.0139 -0.1401
 2906TIP3    H130277   6.029   3.998   2.100  1.0201 -1.0736  0.6882
 2906TIP3    H230278   6.114   3.985   1.976  0.0035  0.0934 -0.1558
 2907TIP3   OH230279   1.467   0.858   1.085 -0.5501  0.5546 -0.5349
 2907TIP3    H130280   1.534   0.899   1.141 -0.2972 -0.0476 -0.3879
 2907TIP3    H230281   1.424   0.795   1.143 -2.4116  2.0823 -0.1169
 2908TIP3   OH230282   5.675   2.408   2.011  0.3916 -0.1068  0.5869
 2908TIP3    H130283   5.589   2.391   2.048  0.5646  0.5364  1.3173
 2908TIP3    H230284   5.716   2.321   2.004 -0.3280 -0.4200  0.1647
 2909TIP3   OH230285   4.680   5.979   2.838 -0.2160  0.4487 -0.1146
 2909TIP3    H130286   4.720   5.892   2.835 -1.2972 -0.0369 -1.1040
 2909TIP3    H230287   4.589   5.963   2.861  0.0009  1.5075  1.6992
 2910TIP3   OH230288   6.824   1.569   0.089  0.0363  0.3329  0.0069
 2910TIP3    H130289   6.785   1.512   0.155  1.3918  0.6355  1.1320
 2910TIP3    H230290   6.853   1.511   0.020 -1.3009 -0.0050 -0.2985
 2911TIP3   OH230291   3.437   3.671   0.757 -0.5698  0.0074 -0.3507
 2911TIP3    H130292   3.413   3.764   0.761 -0.4371  0.0533 -0.5961
 2911TIP3    H230293   3.489   3.663   0.677  1.7394  0.2660  1.0338
 2912TIP3   OH230294   6.056   1.793   1.096  0.0238  0.5595  0.4145
 2912TIP3    H130295   6.058   1.712   1.045  0.4326  1.9923 -1.9869
 2912TIP3    H230296   6.127   1.782   1.160  0.6238 -0.6486 -0.4094
 2913TIP3   OH230297   1.501   0.112   3.318 -0.1087 -0.0247  0.4422
 2913TIP3    H130298   1.561   0.041   3.338 -1.3289 -1.8114 -1.7757
 2913TIP3    H230299   1.418   0.086   3.359  0.0443  1.4217  1.7642
 2914TIP3   OH230300   4.499   1.014   0.479 -0.0835 -0.5001 -0.1315
 2914TIP3    H130301   4.433   0.995   0.545 -2.3152  1.4274 -1.6241
 2914TIP3    H230302   4.499   0.938   0.421 -0.6349 -0.7577  0.2045
 2915TIP3   OH230303   4.670   1.640   1.721 -0.6628 -0.3468 -0.3606
 2915TIP3    H130304   4.646   1.725   1.757 -0.3298  0.0649 -1.0807
 2915TIP3    H230305   4.605   1.579   1.756 -0.8117  0.1778  0.2834
 2916TIP3   OH230306   1.664   5.578   7.557 -0.3442  0.0332  0.4531
 2916TIP3    H130307   1.695   5.615   7.474 -0.2261 -0.5478  0.2333
 2916TIP3    H230308   1.579   5.620   7.572  0.1231  0.9362  0.5877
 2917TIP3   OH230309   3.344   5.627   0.748  0.1040  0.1046  0.1783
 2917TIP3    H130310   3.318   5.535   0.756  1.3978 -0.4087 -1.1039
 2917TIP3    H230311   3.308   5.654   0.664  1.0014  0.3077 -0.1511
 2918TIP3   OH230312   4.530   1.834   8.529 -0.8037 -0.3537 -0.1958
 2918TIP3    H130313   4.474   1.902   8.568  3.1812  2.7443  0.8420
 2918TIP3    H230314   4.551   1.775   8.602  0.0886  0.6289  0.3721
 2919TIP3   OH230315   1.880   4.941   2.978 -0.3987 -0.3084  0.9572
 2919TIP3    H130316   1.892   5.010   3.044 -1.3894 -0.1836  1.0315
 2919TIP3    H230317   1.968   4.910   2.960  0.0236  0.6382  1.2897
 2920TIP3   OH230318   2.235   5.300   8.253  0.4825  0.0104  0.2569
 2920TIP3    H130319   2.142   5.304   8.233  0.5274  0.5736  0.1421
 2920TIP3    H230320   2.252   5.379   8.305  1.0828  0.4119 -0.5301
 2921TIP3   OH230321   2.259   5.729   7.486  0.4720 -0.7553 -0.3852
 2921TIP3    H130322   2.215   5.812   7.505  2.7032  0.5493 -0.5492
 2921TIP3    H230323   2.254   5.679   7.568 -0.1425 -0.0863 -0.0101
 2922TIP3   OH230324   4.557   6.259   8.187 -0.1077  0.2104  0.2340
 2922TIP3    H130325   4.472   6.298   8.165  0.2748  1.1737  0.4160
 2922TIP3    H230326   4.597   6.321   8.248  0.4077 -0.6165  0.7551
 2923TIP3   OH230327   0.543   3.771   7.387 -0.1118  0.6299 -0.0662
 2923TIP3    H130328   0.519   3.679   7.399  0.0795  0.3691 -1.4297
 2923TIP3    H230329   0.485   3.820   7.446 -2.6857 -0.0981 -1.8186
 2924TIP3   OH230330   5.587   0.148   8.289  0.3168 -0.3299 -0.1105
 2924TIP3    H130331   5.543   0.197   8.219 -0.0585  0.3555  0.5920
 2924TIP3    H230332   5.666   0.112   8.247 -0.1815 -0.3915 -1.0235
 2925TIP3   OH230333   0.890   6.838   1.810 -0.8073  0.5972  0.7420
 2925TIP3    H130334   0.906   6.862   1.719  1.3272  0.9499  1.1591
 2925TIP3    H230335   0.941   6.901   1.861 -0.6065 -0.6172  2.1072
 2926TIP3   OH230336   6.460   6.517   0.761 -0.6450  0.7521  0.1443
 2926TIP3    H130337   6.529   6.550   0.817 -0.8184  1.0086  0.2081
 2926TIP3    H230338   6.506   6.477   0.686 -0.3733 -0.5191  0.9502
 2927TIP3   OH230339   6.782   3.426   2.442  0.1454 -0.2128 -0.4707
 2927TIP3    H130340   6.826   3.490   2.498 -1.2003  0.4489 -0.1146
 2927TIP3    H230341   6.807   3.451   2.353  0.5542  0.0972 -0.2702
 2928TIP3   OH230342   6.549   0.216   0.629  0.0078 -0.3659 -0.2489
 2928TIP3    H130343   6.509   0.131   0.646 -2.9067  0.7578 -0.9260
 2928TIP3    H230344   6.520   0.271   0.702 -0.3269  0.6812 -1.1401
 2929TIP3   OH230345   1.177   3.215   7.928  0.2589 -0.3603 -0.1838
 2929TIP3    H130346   1.183   3.223   7.833 -1.2562 -0.7301 -0.3318
 2929TIP3    H230347   1.250   3.158   7.952 -0.0903 -1.2855 -1.2697
 2930TIP3   OH230348   1.325   2.474   1.374 -0.4019  0.0257 -0.9894
 2930TIP3    H130349   1.356   2.486   1.285  0.8126 -0.9045 -0.7290
 2930TIP3    H230350   1.399   2.433   1.420 -1.5860 -1.1323 -0.0068
 2931TIP3   OH230351   2.644   6.135   2.483  0.1083  0.3040 -0.2614
 2931TIP3    H130352   2.594   6.215   2.466 -0.8663  0.0155  1.0780
 2931TIP3    H230353   2.647   6.128   2.578  0.0497 -1.3278 -0.3476
 2932TIP3   OH230354   2.506   2.903   2.839  0.0434 -0.6412 -0.2238
 2932TIP3    H130355   2.561   2.838   2.796  0.4624  0.4451 -1.3997
 2932TIP3    H230356   2.492   2.868   2.927  1.8000 -1.4173 -0.2075
 2933TIP3   OH230357   5.245   0.179   1.924  0.1243 -0.0685  0.5141
 2933TIP3    H130358   5.332   0.219   1.919  0.4791 -0.9321 -0.6927
 2933TIP3    H230359   5.191   0.233   1.867  0.5405 -1.0973 -0.9037
 2934TIP3   OH230360   2.646   2.994   0.225  0.0508  0.2986 -0.5775
 2934TIP3    H130361   2.624   3.086   0.218  0.4956  0.5213  0.7314
 2934TIP3    H230362   2.727   2.985   0.174 -0.4782  0.4237 -1.4679
 2935TIP3   OH230363   4.776   3.839   8.313 -0.2576 -0.5349  0.0721
 2935TIP3    H130364   4.685   3.866   8.297  0.0409  0.1346 -0.6058
 2935TIP3    H230365   4.769   3.766   8.374 -1.3636 -1.6603 -1.3051
 2936TIP3   OH230366   4.712   5.858   2.315  0.4489 -0.3976 -0.2747
 2936TIP3    H130367   4.690   5.951   2.307  0.9960 -0.2440 -0.0275
 2936TIP3    H230368   4.738   5.847   2.407  0.1166 -0.8566 -0.2294
 2937TIP3   OH230369   1.309   5.358   8.389 -0.2347  0.3090  0.2539
 2937TIP3    H130370   1.251   5.392   8.457  1.7246  1.1273  1.6143
 2937TIP3    H230371   1.391   5.338   8.435  0.0504 -2.4659 -1.2528
 2938TIP3   OH230372   2.080   4.881   7.591 -0.2146 -0.1081  0.2202
 2938TIP3    H130373   1.994   4.922   7.586 -1.3301 -2.3978 -1.5309
 2938TIP3    H230374   2.076   4.826   7.669 -0.9946 -1.3643 -0.6492
 2939TIP3   OH230375   5.487   6.611   7.510  0.2756  0.3668  0.0713
 2939TIP3    H130376   5.443   6.529   7.530  1.2159 -0.3145 -0.5260
 2939TIP3    H230377   5.420   6.664   7.467 -0.6530  0.3598  1.4682
 2940TIP3   OH230378   1.847   4.421   1.495  0.3980  0.1141  0.2694
 2940TIP3    H130379   1.775   4.462   1.447  1.7661  1.1859 -0.9747
 2940TIP3    H230380   1.813   4.335   1.520 -0.7433 -0.1145 -1.8038
 2941TIP3   OH230381   1.464   4.520   0.322  0.2086 -0.5726 -0.4358
 2941TIP3    H130382   1.526   4.556   0.386 -0.9161  0.2380  0.2289
 2941TIP3    H230383   1.388   4.578   0.326  0.0338 -0.5892 -2.4213
 2942TIP3   OH230384   0.638   0.067   0.805  0.0143  0.3974 -0.0690
 2942TIP3    H130385   0.651   0.047   0.712 -0.8184  1.0521 -0.3402
 2942TIP3    H230386   0.727   0.078   0.840  0.4673 -2.1389 -0.2359
 2943TIP3   OH230387   3.482   6.441   7.833  0.2629 -0.4475 -0.2615
 2943TIP3    H130388   3.551   6.381   7.862  0.6220  0.0168 -0.1311
 2943TIP3    H230389   3.409   6.424   7.892 -0.6952 -2.7304 -1.9625
 2944TIP3   OH230390   4.467   5.122   1.747  0.1026 -0.0644  0.9963
 2944TIP3    H130391   4.392   5.124   1.687  0.6881  2.3738  0.2273
 2944TIP3    H230392   4.436   5.071   1.822 -1.7886 -0.4184  0.0338
 2945TIP3   OH230393   0.295   2.658   8.556  0.0167 -0.0215 -0.2150
 2945TIP3    H130394   0.262   2.589   8.499 -0.2319  0.1442 -0.2759
 2945TIP3    H230395   0.387   2.668   8.531 -0.1823  0.2938 -0.8437
 2946TIP3   OH230396   4.903   5.663   1.092 -0.3492 -0.4175  0.0465
 2946TIP3    H130397   4.905   5.579   1.136 -1.1677  0.2858  1.5041
 2946TIP3    H230398   4.814   5.671   1.059 -1.1406  0.9822  2.2915
 2947TIP3   OH230399   0.214   6.032   1.253  0.2641  0.3121  0.4116
 2947TIP3    H130400   0.201   6.097   1.323 -0.8872  1.8153 -1.1173
 2947TIP3    H230401   0.170   6.070   1.177 -0.0525 -2.0846 -0.6759
 2948TIP3   OH230402   6.132   1.929   0.817  0.6816 -0.3339  0.1583
 2948TIP3    H130403   6.063   1.976   0.770  1.7404 -0.3519 -1.4986
 2948TIP3    H230404   6.089   1.851   0.852 -0.5715  0.6613  0.9112
 2949TIP3   OH230405   4.773   3.658   2.965 -0.1764  0.1425  0.1918
 2949TIP3    H130406   4.754   3.616   3.049 -1.8188  1.4079  0.4901
 2949TIP3    H230407   4.820   3.738   2.988 -0.8871  0.6410 -0.0578
 2950TIP3   OH230408   1.988   2.709   0.135  0.1985 -0.4706 -0.1224
 2950TIP3    H130409   2.057   2.757   0.089  0.7391  0.0401  1.1799
 2950TIP3    H230410   2.030   2.627   0.162  0.4975  0.0733  1.1474
 2951TIP3   OH230411   6.707   5.370   1.651 -0.1085 -0.3894 -0.2177
 2951TIP3    H130412   6.779   5.311   1.673  0.3383 -0.4814 -1.8570
 2951TIP3    H230413   6.629   5.325   1.684  0.4462 -0.8164  0.5566
 2952TIP3   OH230414   5.544   2.700   1.991  0.2655  0.3492  0.4412
 2952TIP3    H130415   5.588   2.743   1.918 -0.3553  0.1051 -0.0957
 2952TIP3    H230416   5.614   2.659   2.041  0.5978 -0.8567 -0.9388
 2953TIP3   OH230417   4.292   6.389   2.007 -0.3246  0.1586 -0.3311
 2953TIP3    H130418   4.278   6.436   2.090 -2.8175 -0.8786 -0.0694
 2953TIP3    H230419   4.205   6.353   1.986  0.2725  0.3115 -3.3610
 2954TIP3   OH230420   6.519   3.386   0.440  0.2426  0.2979 -0.0152
 2954TIP3    H130421   6.431   3.377   0.477 -1.5347  3.0579 -3.1072
 2954TIP3    H230422   6.572   3.420   0.513 -1.1389 -1.4097  1.9125
 2955TIP3   OH230423   3.684   5.107   3.325 -0.5298  0.5779  0.0414
 2955TIP3    H130424   3.705   5.120   3.233 -2.9321  0.8064 -0.5449
 2955TIP3    H230425   3.767   5.081   3.365  0.6592  0.8355 -2.0876
 2956TIP3   OH230426   4.428   6.514   2.456  0.3689 -0.3269  0.2934
 2956TIP3    H130427   4.440   6.565   2.376 -1.8844  0.3990  0.3512
 2956TIP3    H230428   4.421   6.579   2.526 -1.5474 -0.7239  0.5061
 2957TIP3   OH230429   2.565   1.012   1.250 -0.4769 -0.5369 -0.0089
 2957TIP3    H130430   2.542   0.920   1.266 -0.4019 -0.5837 -0.1632
 2957TIP3    H230431   2.482   1.055   1.231 -0.3275 -0.9560 -1.8093
 2958TIP3   OH230432   1.751   1.734   3.018 -0.0583 -0.1395  0.6638
 2958TIP3    H130433   1.699   1.676   3.073  0.5228  0.8454  2.3323
 2958TIP3    H230434   1.699   1.744   2.939 -0.6286 -2.1040  0.7397
 2959TIP3   OH230435   1.995   2.945   2.653  0.3478 -0.0084 -0.6678
 2959TIP3    H130436   1.991   3.019   2.592  1.0290  0.8241  0.2598
 2959TIP3    H230437   2.075   2.898   2.629  1.5716  1.3133  0.6356
 2960TIP3   OH230438   3.638   6.147   2.657 -0.5036  0.4575  0.0894
 2960TIP3    H130439   3.612   6.112   2.743  1.1839  1.2965  0.9733
 2960TIP3    H230440   3.561   6.197   2.628 -1.1257  0.0952  1.0481
 2961TIP3   OH230441   1.249   5.915   2.311 -0.3268 -0.2266 -0.5937
 2961TIP3    H130442   1.230   5.835   2.360 -0.1078  0.6023  0.8767
 2961TIP3    H230443   1.288   5.974   2.375 -1.6489  1.5391 -1.3515
 2962TIP3   OH230444   0.715   2.539   7.007  0.0221 -0.5452  0.0267
 2962TIP3    H130445   0.750   2.614   7.056  0.3482 -1.3815  1.0948
 2962TIP3    H230446   0.636   2.573   6.965  0.0163  0.3268  0.7174
 2963TIP3   OH230447   2.340   6.642   0.273  0.2607  0.3054  0.2579
 2963TIP3    H130448   2.282   6.635   0.348 -0.9780  3.7763 -0.2204
 2963TIP3    H230449   2.318   6.566   0.218 -1.0047 -0.5799  1.9229
 2964TIP3   OH230450   4.409   2.170   0.238 -0.0227  0.4839 -0.1499
 2964TIP3    H130451   4.452   2.084   0.239 -0.5320  0.0989 -2.7497
 2964TIP3    H230452   4.424   2.206   0.325  2.0010 -1.3656  0.3463
 2965TIP3   OH230453   6.312   2.233   0.811  0.0840 -0.2378  0.1406
 2965TIP3    H130454   6.339   2.189   0.891  0.6798 -0.9652 -0.4493
 2965TIP3    H230455   6.390   2.236   0.757 -0.6280 -1.0444 -0.9872
 2966TIP3   OH230456   3.575   3.870   0.503 -0.0430 -0.0786  0.0987
 2966TIP3    H130457   3.651   3.908   0.547  0.6915 -0.3338 -0.8981
 2966TIP3    H230458   3.612   3.826   0.425 -1.4809  2.2931 -2.0741
 2967TIP3   OH230459   3.040   6.904   3.268  0.0882 -0.3028 -0.9228
 2967TIP3    H130460   2.987   6.983   3.283  0.8832  0.1645 -0.4992
 2967TIP3    H230461   3.064   6.875   3.356  1.9433  0.4865 -1.1200
 2968TIP3   OH230462   0.890   0.697   2.919 -0.8856  0.1747 -0.0309
 2968TIP3    H130463   0.978   0.733   2.908 -0.2114 -1.5777 -0.8054
 2968TIP3    H230464   0.847   0.711   2.834 -0.9245 -0.0428 -0.0482
 2969TIP3   OH230465   0.044   2.593   1.232 -0.4871  0.4711 -0.3408
 2969TIP3    H130466  -0.024   2.557   1.289 -0.2869 -0.6719 -0.7927
 2969TIP3    H230467   0.125   2.578   1.280 -0.4964  1.3501 -0.0385
 2970TIP3   OH230468   2.851   5.405   1.584  0.5030  0.8397  0.5187
 2970TIP3    H130469   2.863   5.405   1.489  0.5693  0.2920  0.5287
 2970TIP3    H230470   2.938   5.423   1.619  0.3427  1.7886  0.4635
 2971TIP3   OH230471   6.591   2.812   8.389 -0.1184 -0.1786 -0.0539
 2971TIP3    H130472   6.676   2.771   8.403 -0.6246 -0.5097  2.6673
 2971TIP3    H230473   6.611   2.898   8.354  1.4395  0.1597  1.5346
 2972TIP3   OH230474   5.392   4.195   8.067 -0.0329 -0.0453  0.1250
 2972TIP3    H130475   5.472   4.151   8.040 -0.6131  0.0992 -1.9670
 2972TIP3    H230476   5.323   4.130   8.055 -0.4049  0.2131  0.7732
 2973TIP3   OH230477   0.793   3.627   8.510  0.1742 -0.7955 -0.8606
 2973TIP3    H130478   0.709   3.665   8.534  0.8549  0.6542 -0.6459
 2973TIP3    H230479   0.824   3.584   8.590 -0.6039 -1.8362 -1.1039
 2974TIP3   OH230480   4.095   0.567   0.628 -0.7457  0.2211 -0.1824
 2974TIP3    H130481   4.143   0.536   0.705 -0.6643 -0.3976 -0.4750
 2974TIP3    H230482   4.021   0.616   0.664 -0.1596  0.7876  0.2774
 2975TIP3   OH230483   2.877   0.609   2.529 -0.1017 -0.1881  0.5634
 2975TIP3    H130484   2.822   0.549   2.579 -0.3707  0.2832  0.8422
 2975TIP3    H230485   2.829   0.692   2.531 -0.3721 -0.2876 -0.9042
 2976TIP3   OH230486   3.361   2.163   8.004 -0.5661  0.0940 -0.7273
 2976TIP3    H130487   3.441   2.192   8.048 -0.5199  0.7288 -1.2170
 2976TIP3    H230488   3.378   2.177   7.911 -1.2276  0.1892 -0.8397
 2977TIP3   OH230489   2.903   0.006   1.960 -0.0766  0.5325 -0.1218
 2977TIP3    H130490   2.998  -0.003   1.964 -0.2089 -0.8025  0.4365
 2977TIP3    H230491   2.889   0.097   1.933  1.3638  0.3584 -1.6207
 2978TIP3   OH230492   1.148   1.716   0.381  0.3949 -0.3295  0.5603
 2978TIP3    H130493   1.212   1.655   0.347  1.4153 -0.0032  1.8134
 2978TIP3    H230494   1.078   1.660   0.416  1.1824 -0.8083  1.4343
 2979TIP3   OH230495   5.137   6.865   8.176  0.4038 -0.2438  0.0033
 2979TIP3    H130496   5.083   6.934   8.215 -2.0395 -1.3403 -1.1703
 2979TIP3    H230497   5.134   6.883   8.082  0.8252 -1.2113 -0.2092
 2980TIP3   OH230498   0.198   2.489   8.021  0.4259  0.5126 -0.2555
 2980TIP3    H130499   0.249   2.540   7.958 -0.7617  1.0046 -0.8472
 2980TIP3    H230500   0.109   2.525   8.015 -0.5214 -1.7405 -0.8422
 2981TIP3   OH230501   0.594   5.319   0.992 -0.7134  0.6077 -0.1165
 2981TIP3    H130502   0.683   5.354   0.986  0.0098 -1.1732 -0.2797
 2981TIP3    H230503   0.597   5.258   1.066 -1.5262 -0.1871 -0.7151
 2982TIP3   OH230504   4.532   3.989   8.083  0.0054 -0.2171  0.7693
 2982TIP3    H130505   4.474   4.058   8.050  0.6314  0.9115  1.9657
 2982TIP3    H230506   4.570   3.950   8.004 -2.4144 -1.0739 -0.0622
 2983TIP3   OH230507   3.022   4.623   1.727 -0.2459 -0.1218 -0.1640
 2983TIP3    H130508   2.990   4.553   1.670 -0.4937 -0.0923 -0.0635
 2983TIP3    H230509   2.942   4.660   1.766 -0.3008  1.4320 -1.6154
 2984TIP3   OH230510   5.115   5.182   2.152  0.7366 -0.4732  0.1429
 2984TIP3    H130511   5.150   5.100   2.118  1.7172 -0.1531  0.3428
 2984TIP3    H230512   5.181   5.212   2.215  1.2958  1.3651 -1.2388
 2985TIP3   OH230513   2.065   2.613   8.365 -0.3407  0.1446  0.5431
 2985TIP3    H130514   2.144   2.560   8.361 -0.3126  0.2421 -1.2439
 2985TIP3    H230515   2.086   2.684   8.425  0.3976 -0.6167  1.2115
 2986TIP3   OH230516   4.600   5.964   0.081  0.4110  0.1636  0.1697
 2986TIP3    H130517   4.581   5.986  -0.010 -0.5266 -0.3242  0.2348
 2986TIP3    H230518   4.590   5.869   0.085 -1.3942  0.3388  1.1599
 2987TIP3   OH230519   6.122   5.655   1.811 -1.1918  0.0609 -0.0571
 2987TIP3    H130520   6.055   5.719   1.785  0.8302  2.3991  0.1463
 2987TIP3    H230521   6.102   5.637   1.903 -1.1420  1.3178  0.2220
 2988TIP3   OH230522   0.420   1.964   8.450 -0.0897 -0.1672  0.1194
 2988TIP3    H130523   0.425   1.897   8.381 -1.5220 -0.0315 -0.1529
 2988TIP3    H230524   0.347   2.020   8.423  2.1802  2.6563 -0.6360
 2989TIP3   OH230525   1.698   1.338   0.773  0.4711 -0.0178  0.4060
 2989TIP3    H130526   1.765   1.377   0.829  2.4535 -2.2381 -0.2571
 2989TIP3    H230527   1.676   1.407   0.710  0.2383  1.5732  2.1250
 2990TIP3   OH230528   6.533   1.525   0.557 -0.1830 -0.1632  0.2333
 2990TIP3    H130529   6.564   1.577   0.483 -2.1621  0.7348 -0.0159
 2990TIP3    H230530   6.574   1.439   0.544  1.8537  0.8277 -0.2325
 2991TIP3   OH230531   1.045   3.419   2.164 -0.4421  0.0295 -0.1383
 2991TIP3    H130532   1.009   3.507   2.167  0.1758  0.2532  1.4132
 2991TIP3    H230533   1.013   3.377   2.243  1.2523 -0.3280  0.4008
 2992TIP3   OH230534   4.269   3.580   1.663  0.1976 -0.1035 -0.7028
 2992TIP3    H130535   4.245   3.494   1.697 -0.7041  0.4731  0.1831
 2992TIP3    H230536   4.341   3.563   1.602  0.9907 -1.3193  0.5226
 2993TIP3   OH230537   4.822   0.410   0.155  0.0620  0.1927 -0.3766
 2993TIP3    H130538   4.892   0.464   0.193  0.3928 -0.9272  0.6667
 2993TIP3    H230539   4.817   0.438   0.064  2.4937 -0.2746 -0.7331
 2994TIP3   OH230540   5.741   2.702   2.196  0.1102  0.0981 -0.2190
 2994TIP3    H130541   5.717   2.626   2.248  1.0670 -1.0083 -1.3265
 2994TIP3    H230542   5.675   2.768   2.218 -0.5897 -0.9458  0.9593
 2995TIP3   OH230543   1.601   5.812   0.897  0.0815  0.1905 -0.1221
 2995TIP3    H130544   1.657   5.850   0.830  1.6372 -0.3981  0.7816
 2995TIP3    H230545   1.572   5.887   0.949  0.1224  0.5027 -0.5521
 2996TIP3   OH230546   4.345   4.837   1.364  0.7741 -0.1673  0.4905
 2996TIP3    H130547   4.270   4.798   1.409 -1.3091  1.8417 -1.0007
 2996TIP3    H230548   4.401   4.870   1.434  0.1577 -1.4646  1.6384
 2997TIP3   OH230549   4.172   1.997   7.392 -0.0368 -0.4117  0.2952
 2997TIP3    H130550   4.187   1.909   7.358  0.3336 -1.1894  2.3425
 2997TIP3    H230551   4.205   1.995   7.482 -1.5221  1.3238  0.9593
 2998TIP3   OH230552   4.974   6.534   0.247  0.9820 -0.2050  0.2770
 2998TIP3    H130553   4.970   6.625   0.275 -2.3330  0.2881 -1.2378
 2998TIP3    H230554   5.056   6.527   0.198 -0.3412  3.1823 -2.9039
 2999TIP3   OH230555   6.518   5.515   1.116 -0.1870 -0.2822  0.4563
 2999TIP3    H130556   6.542   5.605   1.095 -0.2839 -0.1512  0.8848
 2999TIP3    H230557   6.442   5.497   1.062  2.5439 -1.7499 -3.3077
 3000TIP3   OH230558   1.667   4.884   0.105  0.1936 -0.3456 -0.8513
 3000TIP3    H130559   1.660   4.952   0.172  0.7952 -0.2181 -0.9176
 3000TIP3    H230560   1.594   4.902   0.045 -1.1809 -1.2550  0.4672
 3001TIP3   OH230561   0.558   2.111   2.786  0.4051  0.3548  0.6646
 3001TIP3    H130562   0.555   2.015   2.781  1.1669  0.3424  0.1279
 3001TIP3    H230563   0.482   2.135   2.838  0.2981 -0.5550  0.9498
 3002TIP3   OH230564   0.991   3.424   1.016 -0.3501  0.0046 -0.4640
 3002TIP3    H130565   0.984   3.511   1.057  1.8060  0.5960 -1.2295
 3002TIP3    H230566   0.982   3.441   0.922 -2.3201 -0.9665 -0.4984
 3003TIP3   OH230567   5.293   4.226   1.034 -0.5584  0.4187 -0.4022
 3003TIP3    H130568   5.310   4.180   0.952  0.8896  0.1816 -0.0112
 3003TIP3    H230569   5.212   4.189   1.067 -0.1490 -0.8790 -0.7834
 3004TIP3   OH230570   5.755   0.317   2.174  0.6057  0.5356  0.0721
 3004TIP3    H130571   5.665   0.345   2.188  0.4877  0.5521 -0.6918
 3004TIP3    H230572   5.763   0.237   2.226 -0.1122  0.0552 -0.5286
 3005TIP3   OH230573   4.900   2.016   1.952  0.4754 -0.1852  0.2627
 3005TIP3    H130574   4.896   2.095   2.006  1.8510  0.5420 -0.6465
 3005TIP3    H230575   4.833   2.029   1.885  1.4858  0.7851 -0.5882
 3006TIP3   OH230576   3.053   6.611   0.962  0.1706 -0.5776  0.2091
 3006TIP3    H130577   3.002   6.566   0.894 -0.5271  0.9100 -0.3042
 3006TIP3    H230578   3.142   6.578   0.951 -0.3733 -2.0930  0.1145
 3007TIP3   OH230579   2.207   3.837   0.359 -0.1468  0.7794  0.3816
 3007TIP3    H130580   2.178   3.855   0.269 -0.0047  1.4043  0.4593
 3007TIP3    H230581   2.199   3.742   0.367  0.7116  0.6023 -0.5946
 3008TIP3   OH230582   6.263   4.010   2.696  0.0431 -0.1752 -0.0561
 3008TIP3    H130583   6.175   4.029   2.729  0.9517  3.2844  0.8114
 3008TIP3    H230584   6.262   4.037   2.605  0.0884 -0.6030 -0.1863
 3009TIP3   OH230585   4.886   2.342   7.824  0.2621  0.2536  0.1821
 3009TIP3    H130586   4.931   2.347   7.739 -0.3272  0.2948 -0.1317
 3009TIP3    H230587   4.906   2.426   7.866  0.9722  0.0319  0.3013
 3010TIP3   OH230588   2.495   3.806   2.596 -0.4494 -0.7324  0.0426
 3010TIP3    H130589   2.577   3.771   2.562 -0.2668 -1.0259  0.7711
 3010TIP3    H230590   2.500   3.792   2.691  0.2775  2.5482  0.6123
 3011TIP3   OH230591   0.218   5.217   2.044 -0.6307  0.0389  0.1427
 3011TIP3    H130592   0.257   5.217   2.131 -1.4466 -3.9200  0.6937
 3011TIP3    H230593   0.274   5.159   1.993 -1.9113 -0.1969 -1.0532
 3012TIP3   OH230594   2.710   6.012   1.399  0.2889  0.0408  0.1978
 3012TIP3    H130595   2.745   5.924   1.412  1.1164  0.6584  2.8124
 3012TIP3    H230596   2.776   6.070   1.437 -0.6208  1.7480 -0.6938
 3013TIP3   OH230597   5.241   4.651   7.918  0.2314  0.0694  0.1844
 3013TIP3    H130598   5.161   4.657   7.970  0.2375 -0.9528  0.3311
 3013TIP3    H230599   5.264   4.742   7.900 -1.0226  0.3854  0.0479
 3014TIP3   OH230600   2.791   6.045   0.746 -0.5535 -0.4905 -0.0580
 3014TIP3    H130601   2.707   6.083   0.771 -0.0558  0.6980 -0.1081
 3014TIP3    H230602   2.769   5.959   0.711 -1.7448 -0.1993 -0.0747
 3015TIP3   OH230603   4.744   2.111   7.863 -0.3535  0.1905 -0.4478
 3015TIP3    H130604   4.804   2.046   7.901 -0.3819  0.2951 -0.2237
 3015TIP3    H230605   4.793   2.193   7.865  0.4132 -0.1754 -2.5061
 3016TIP3   OH230606   1.402   3.926   8.456 -0.3129 -0.2392  0.1187
 3016TIP3    H130607   1.436   4.008   8.493  0.6837  0.1815 -1.6078
 3016TIP3    H230608   1.459   3.909   8.381 -1.0471 -2.0813 -0.0539
 3017TIP3   OH230609   3.789   3.786   2.012  0.8024 -0.2422  0.2731
 3017TIP3    H130610   3.854   3.717   2.019  0.6204 -0.5333 -0.7439
 3017TIP3    H230611   3.719   3.760   2.071  1.1748 -0.4023  0.6543
 3018TIP3   OH230612   0.020   6.048   7.347  0.3022  0.2358  0.7734
 3018TIP3    H130613  -0.022   5.982   7.292 -0.2554 -0.1703  1.6683
 3018TIP3    H230614  -0.051   6.087   7.398  0.5962  1.6663  0.1351
 3019TIP3   OH230615   0.100   1.486   1.690  0.2279  0.7471 -0.2456
 3019TIP3    H130616   0.028   1.430   1.663  1.0402 -0.2093 -0.5120
 3019TIP3    H230617   0.158   1.427   1.740  0.0833  1.8367  1.2722
 3020TIP3   OH230618   4.889   3.345   8.533 -0.1143  0.1405  0.3182
 3020TIP3    H130619   4.950   3.274   8.553 -1.1147 -0.1542  2.6296
 3020TIP3    H230620   4.818   3.335   8.598 -1.0479  2.3167 -0.2829
 3021TIP3   OH230621   6.620   2.528   1.150  0.2718  0.4671 -0.2220
 3021TIP3    H130622   6.649   2.609   1.192 -0.1179  0.5320 -0.0662
 3021TIP3    H230623   6.551   2.495   1.208  1.1575 -0.5458  0.2850
 3022TIP3   OH230624   0.946   6.012   1.476 -0.5148 -0.5504  0.1368
 3022TIP3    H130625   0.999   5.940   1.443  1.0746 -0.1730  1.7036
 3022TIP3    H230626   1.004   6.088   1.473 -2.0767  0.6451 -1.2549
 3023TIP3   OH230627   2.409   2.840   1.494 -0.3267 -0.1055  0.2774
 3023TIP3    H130628   2.422   2.750   1.521 -0.3011  0.6168  2.9818
 3023TIP3    H230629   2.327   2.867   1.537 -0.1081  1.2670 -0.1054
 3024TIP3   OH230630   6.041   1.363   1.999 -0.4479  0.0697 -0.0545
 3024TIP3    H130631   5.981   1.384   1.928 -1.2691 -0.7924  0.3710
 3024TIP3    H230632   5.985   1.348   2.075  0.4416  1.4823  0.9356
 3025TIP3   OH230633   5.252   6.436   7.528  0.0387  0.0333  0.1494
 3025TIP3    H130634   5.191   6.490   7.479 -0.3180 -1.5655 -1.2476
 3025TIP3    H230635   5.202   6.358   7.552  1.0966 -0.6221  0.2890
 3026TIP3   OH230636   3.070   5.860   0.940  0.7552  0.4592 -0.4176
 3026TIP3    H130637   3.005   5.823   0.881  1.3771  0.7936 -1.3388
 3026TIP3    H230638   3.036   5.843   1.028 -1.2826  1.8726 -0.8648
 3027TIP3   OH230639   2.745   2.273   2.722  0.2732  0.0420 -0.0890
 3027TIP3    H130640   2.743   2.291   2.816 -0.9691  0.7464 -0.2235
 3027TIP3    H230641   2.835   2.290   2.696  0.5469  0.1835  0.9141
 3028TIP3   OH230642   5.136   4.222   0.324  0.0942 -0.0705  0.3662
 3028TIP3    H130643   5.092   4.143   0.292 -0.1934  0.5193 -0.7516
 3028TIP3    H230644   5.213   4.230   0.268 -1.4198  2.0465 -1.5854
 3029TIP3   OH230645   2.476   5.801   1.589  0.2321  0.1271 -0.2031
 3029TIP3    H130646   2.427   5.825   1.511  0.4280 -0.7121 -0.6004
 3029TIP3    H230647   2.568   5.803   1.561  0.4475  1.5927  0.5065
 3030TIP3   OH230648   5.893   1.319   2.803  0.3604  1.0368 -0.4408
 3030TIP3    H130649   5.948   1.288   2.732  1.1792  3.0928 -0.7721
 3030TIP3    H230650   5.925   1.274   2.881  0.8012  0.3080 -1.0356
 3031TIP3   OH230651   4.509   1.539   1.468 -0.0871 -0.3135  0.4037
 3031TIP3    H130652   4.599   1.551   1.497  0.3850 -2.1013 -0.2012
 3031TIP3    H230653   4.459   1.524   1.549  0.7315 -2.4588  0.5635
 3032TIP3   OH230654   0.155   3.471   8.408 -0.7755 -0.1754  0.1011
 3032TIP3    H130655   0.060   3.483   8.396 -0.8801 -1.7231 -1.0087
 3032TIP3    H230656   0.192   3.488   8.322 -0.1287 -0.3320  0.3452
 3033TIP3   OH230657   2.082   6.834   1.956  0.3266  0.2583  0.0406
 3033TIP3    H130658   2.074   6.745   1.922 -1.4282 -0.7131  2.7369
 3033TIP3    H230659   2.051   6.829   2.046  0.0324  3.6484  0.2565
 3034TIP3   OH230660   2.027   0.725   2.461  0.4377 -0.2070 -0.5459
 3034TIP3    H130661   2.121   0.728   2.478  0.4633 -1.2313 -0.4544
 3034TIP3    H230662   2.020   0.725   2.365  0.4841  0.8406 -0.5562
 3035TIP3   OH230663   0.856   3.283   7.688  0.0784  0.5497 -0.5430
 3035TIP3    H130664   0.915   3.355   7.666  1.7216 -0.2739  0.8644
 3035TIP3    H230665   0.885   3.254   7.774 -2.4038  0.0487  0.2105
 3036TIP3   OH230666   4.922   5.953   2.113 -0.0296 -0.0937  0.1610
 3036TIP3    H130667   4.988   6.022   2.123  0.4378 -0.3963 -0.6943
 3036TIP3    H230668   4.923   5.906   2.196  0.2099  0.4437  0.4663
 3037TIP3   OH230669   2.989   5.301   7.950  0.0114 -0.4525  0.3291
 3037TIP3    H130670   3.068   5.302   7.895  0.4221 -2.1459  0.8264
 3037TIP3    H230671   3.022   5.317   8.038 -0.0498 -1.9450  0.6559
 3038TIP3   OH230672   5.675   3.164   1.657 -0.4805 -0.6338 -0.2791
 3038TIP3    H130673   5.759   3.175   1.612  0.2797 -2.7763  0.4646
 3038TIP3    H230674   5.694   3.189   1.748 -1.1527  0.5678 -0.4484
 3039TIP3   OH230675   2.487   6.338   1.022  0.3552  0.1494 -0.1508
 3039TIP3    H130676   2.462   6.422   1.062  0.0424 -0.5942  1.2629
 3039TIP3    H230677   2.582   6.342   1.017  0.2644  1.2687 -1.6753
 3040TIP3   OH230678   1.406   4.411   1.475 -0.2931 -0.0820 -0.2592
 3040TIP3    H130679   1.397   4.470   1.550  0.8989  0.6382 -0.6544
 3040TIP3    H230680   1.478   4.449   1.423  0.4340 -1.8130 -0.5776
 3041TIP3   OH230681   1.617   3.717   1.091 -0.0629  0.5100 -0.0578
 3041TIP3    H130682   1.647   3.628   1.071  0.0691  0.2168  1.3256
 3041TIP3    H230683   1.698   3.766   1.108 -0.2144  0.4564  0.8392
 3042TIP3   OH230684   2.817   3.095   8.219  0.5477  0.0313  0.2392
 3042TIP3    H130685   2.816   3.026   8.153 -0.4959  1.5458 -1.4401
 3042TIP3    H230686   2.730   3.135   8.213  0.9674  1.2025  1.4519
 3043TIP3   OH230687   6.389   2.831   1.739 -0.0270 -0.3798 -0.3671
 3043TIP3    H130688   6.474   2.872   1.757  0.2732 -0.6318 -1.1588
 3043TIP3    H230689   6.348   2.821   1.825  0.4460  0.3879 -0.0454
 3044TIP3   OH230690   5.947   6.551   7.974  0.1716 -0.4791  0.4707
 3044TIP3    H130691   6.033   6.593   7.970 -0.2599  0.3558 -2.2832
 3044TIP3    H230692   5.965   6.458   7.967  0.8726 -0.3938  1.0017
 3045TIP3   OH230693   0.536   2.107   7.825  0.3150  1.0947  0.2833
 3045TIP3    H130694   0.622   2.148   7.836  0.2479  1.2116  0.3712
 3045TIP3    H230695   0.484   2.170   7.776  0.4833  0.7453 -0.3527
 3046TIP3   OH230696   2.872   5.257   2.410  0.9491 -0.0597 -0.2751
 3046TIP3    H130697   2.892   5.334   2.463  0.7583  1.1186 -1.8339
 3046TIP3    H230698   2.943   5.253   2.347  0.3830 -0.5103 -0.8902
 3047TIP3   OH230699   3.205   0.129   8.043 -0.2131 -0.4389 -0.2422
 3047TIP3    H130700   3.273   0.147   7.977 -0.8728  2.0854 -0.3641
 3047TIP3    H230701   3.158   0.053   8.010  1.8977 -1.6217 -0.6704
 3048TIP3   OH230702   3.111   3.680   0.538 -0.4437 -0.6489 -0.2493
 3048TIP3    H130703   3.157   3.601   0.566  0.2900 -0.2072 -0.1751
 3048TIP3    H230704   3.135   3.689   0.445  0.9922  0.4885  0.1965
 3049TIP3   OH230705   4.748   6.131   1.286  0.1611  0.2938  0.0611
 3049TIP3    H130706   4.835   6.100   1.311  0.0728  1.1003  1.4602
 3049TIP3    H230707   4.698   6.052   1.267  0.7315 -0.2675  0.8481
 3050TIP3   OH230708   0.037   1.661   1.907  0.5953  0.6609 -0.5636
 3050TIP3    H130709  -0.026   1.727   1.879  0.0394  0.8483  1.0445
 3050TIP3    H230710   0.040   1.598   1.834 -1.0910  0.8995 -0.8764
 3051TIP3   OH230711   5.847   3.899   8.438  0.4720 -0.6694 -0.6353
 3051TIP3    H130712   5.941   3.891   8.424  0.9138 -0.4726  1.7207
 3051TIP3    H230713   5.827   3.835   8.506 -1.4139 -1.7429 -2.1162
 3052TIP3   OH230714   3.781   5.926   2.855  0.0270  0.3704  0.7243
 3052TIP3    H130715   3.867   5.969   2.850  0.3484 -0.3602 -0.3652
 3052TIP3    H230716   3.747   5.951   2.941  1.2984  0.7309  1.1505
 3053TIP3   OH230717   0.248   0.166   2.899 -0.0120 -0.2187 -0.5884
 3053TIP3    H130718   0.160   0.160   2.861 -0.1355  1.7407 -0.7142
 3053TIP3    H230719   0.237   0.140   2.990 -0.8147  0.3258 -0.5157
 3054TIP3   OH230720   5.803   2.199   2.836  0.0944 -0.3889  0.7206
 3054TIP3    H130721   5.708   2.206   2.835  0.1415  0.3376 -0.1668
 3054TIP3    H230722   5.823   2.158   2.920 -0.9051  1.0330  1.7007
 3055TIP3   OH230723   4.593   2.947   0.611 -0.1147 -0.1890  0.1318
 3055TIP3    H130724   4.632   2.967   0.696  3.2423 -0.6093 -1.1316
 3055TIP3    H230725   4.517   3.004   0.605  1.7260  2.7237  1.8983
 3056TIP3   OH230726   6.137   1.346   0.517 -0.1122  0.1613 -0.1752
 3056TIP3    H130727   6.078   1.356   0.592  2.1028 -0.8269  1.7981
 3056TIP3    H230728   6.142   1.434   0.479 -1.4526  0.6454  0.6720
 3057TIP3   OH230729   4.636   0.205   0.459  0.1903  0.2414  0.7875
 3057TIP3    H130730   4.546   0.238   0.456  0.3508  1.1274  3.3944
 3057TIP3    H230731   4.635   0.129   0.401 -1.7728  1.2397 -0.6190
 3058TIP3   OH230732   1.090   5.966   2.102 -0.7346  0.0244 -0.0370
 3058TIP3    H130733   1.143   5.975   2.181 -0.1310 -2.9040 -0.0260
 3058TIP3    H230734   1.154   5.972   2.030 -1.0513  0.9744 -0.2545
 3059TIP3   OH230735   1.979   5.344   8.144  0.2552  0.4590  0.4989
 3059TIP3    H130736   1.984   5.390   8.060 -0.1810  0.6432  0.5710
 3059TIP3    H230737   1.910   5.279   8.131  0.3048  0.3746  0.6615
 3060TIP3   OH230738   3.881   3.385   0.333 -0.0931  0.8794  0.2674
 3060TIP3    H130739   3.791   3.408   0.311  0.1764  2.0660  0.3358
 3060TIP3    H230740   3.886   3.394   0.428 -0.4477 -1.2940  0.5494
 3061TIP3   OH230741   5.840   5.411   1.760 -0.2230  0.1418  0.3561
 3061TIP3    H130742   5.869   5.433   1.672  1.3948  0.4889  0.9442
 3061TIP3    H230743   5.837   5.494   1.807  0.1758 -0.1899  0.9820
 3062TIP3   OH230744   5.688   1.196   2.222 -0.0631 -0.0308 -0.0503
 3062TIP3    H130745   5.622   1.206   2.291 -1.0512 -2.5180 -0.5106
 3062TIP3    H230746   5.638   1.188   2.141  0.7359 -2.0271 -0.4136
 3063TIP3   OH230747   4.185   3.818   1.755 -0.1111  0.4102  0.2962
 3063TIP3    H130748   4.199   3.734   1.711 -2.1925  1.7628 -3.4412
 3063TIP3    H230749   4.272   3.845   1.784  1.1289 -1.5629 -1.3274
 3064TIP3   OH230750   5.353   0.769   1.884  0.0758 -0.2383  0.1378
 3064TIP3    H130751   5.270   0.773   1.836 -0.7536 -0.8875  1.4359
 3064TIP3    H230752   5.404   0.702   1.840 -0.7239 -0.9202  0.2127
 3065TIP3   OH230753   6.384   6.723   2.131  0.0108 -0.3824  0.1478
 3065TIP3    H130754   6.317   6.726   2.063  0.4435 -1.4065 -0.3468
 3065TIP3    H230755   6.467   6.713   2.083  0.6139  1.5841  0.7105
 3066TIP3   OH230756   6.717   1.335   2.294 -0.1502  0.2003 -0.1864
 3066TIP3    H130757   6.766   1.394   2.237 -0.7214  1.0643  0.1932
 3066TIP3    H230758   6.784   1.295   2.350  0.1571  1.2055  0.1882
 3067TIP3   OH230759   5.477   6.759   1.888 -0.1553  0.3536  0.3342
 3067TIP3    H130760   5.520   6.700   1.826 -0.6974  1.8761 -1.5978
 3067TIP3    H230761   5.394   6.717   1.908 -1.2976  1.1213 -2.3595
 3068TIP3   OH230762   4.278   2.346   2.818 -0.0255  0.0245  0.2012
 3068TIP3    H130763   4.289   2.265   2.867 -0.3725 -0.7282 -0.9306
 3068TIP3    H230764   4.188   2.374   2.838 -0.3008 -0.4883 -0.2944
 3069TIP3   OH230765   6.107   0.656   1.159 -0.1315 -0.1441  0.1872
 3069TIP3    H130766   6.151   0.638   1.243 -1.8629  0.4932  1.2842
 3069TIP3    H230767   6.014   0.645   1.179 -0.7820  2.5772 -0.9650
 3070TIP3   OH230768   0.932   1.253   8.502  0.0571 -0.5400 -0.1611
 3070TIP3    H130769   0.925   1.243   8.407  0.1048 -1.8396 -0.0483
 3070TIP3    H230770   0.974   1.172   8.532 -0.1912 -0.2623  1.0015
 3071TIP3   OH230771   5.642   6.124   1.508  0.3911  0.0744 -0.6990
 3071TIP3    H130772   5.607   6.208   1.479 -1.1629 -1.2431 -2.8776
 3071TIP3    H230773   5.649   6.071   1.429 -0.5959 -2.5449  0.8235
 3072TIP3   OH230774   5.147   5.790   0.627  0.3259 -0.9243  0.2509
 3072TIP3    H130775   5.156   5.738   0.707  0.1597  2.6075  2.7969
 3072TIP3    H230776   5.237   5.814   0.603  0.3496 -1.6580 -0.4280
 3073TIP3   OH230777   0.898   4.376   0.826  0.3726  0.0414 -0.6870
 3073TIP3    H130778   0.913   4.388   0.733  2.8624  0.0818 -0.3263
 3073TIP3    H230779   0.872   4.463   0.858  0.5499  0.2654 -1.1527
 3074TIP3   OH230780   4.057   1.932   0.276 -0.2939 -0.2376  0.4607
 3074TIP3    H130781   4.084   1.850   0.235 -1.9169 -0.7715  0.3866
 3074TIP3    H230782   4.073   1.999   0.209 -1.2984 -0.8653 -0.4447
 3075TIP3   OH230783   1.811   3.394   7.051  0.0270 -0.1529 -0.1301
 3075TIP3    H130784   1.897   3.418   7.018 -0.2602 -0.0343 -0.8258
 3075TIP3    H230785   1.777   3.475   7.090  0.5284 -0.3954  0.8372
 3076TIP3   OH230786   1.095   4.913   1.080 -0.3310 -0.1339 -0.4711
 3076TIP3    H130787   1.081   4.935   0.988  0.3905 -0.8668 -0.7750
 3076TIP3    H230788   1.079   4.819   1.084 -0.5763 -0.0643  0.2023
 3077TIP3   OH230789   2.357   4.741   0.045  0.2015 -0.7423  0.7037
 3077TIP3    H130790   2.443   4.752   0.006 -0.2767 -1.4455 -0.5860
 3077TIP3    H230791   2.295   4.762  -0.025 -0.6813 -2.3335  0.9649
 3078TIP3   OH230792   0.777   1.913   8.366  0.1362 -0.0407 -0.7170
 3078TIP3    H130793   0.740   1.921   8.279 -0.2427 -1.5213 -0.7250
 3078TIP3    H230794   0.714   1.956   8.424 -0.0013  0.2414 -1.0737
 3079TIP3   OH230795   0.155   6.185   3.243 -0.0996 -0.3708  0.6161
 3079TIP3    H130796   0.227   6.160   3.301  1.2109  0.1395 -0.7380
 3079TIP3    H230797   0.192   6.254   3.188 -1.5864 -0.2244 -0.2292
 3080TIP3   OH230798   0.909   3.832   7.038  0.1851  0.4553 -0.1112
 3080TIP3    H130799   0.916   3.801   6.948 -0.7277 -1.2451  0.3513
 3080TIP3    H230800   0.982   3.790   7.084  1.1792  2.0123 -0.1971
 3081TIP3   OH230801   5.816   3.039   8.447 -0.4457  0.5508 -0.2139
 3081TIP3    H130802   5.864   2.973   8.397 -0.2165  0.4820  0.0963
 3081TIP3    H230803   5.788   3.103   8.381 -1.3060 -0.2214 -0.6241
 3082TIP3   OH230804   3.238   5.746   8.529  0.0149  0.0476  0.5494
 3082TIP3    H130805   3.222   5.804   8.603 -0.2909  0.2201  0.3502
 3082TIP3    H230806   3.334   5.742   8.522  0.2148 -2.5733  2.9919
 3083TIP3   OH230807   6.673   6.463   0.952  0.4220 -0.4627 -0.1800
 3083TIP3    H130808   6.607   6.466   1.020 -0.5548 -0.8486 -1.0737
 3083TIP3    H230809   6.746   6.515   0.986 -0.9212  1.2692  0.2172
 3084TIP3   OH230810   0.342   5.893   0.905  0.0473 -0.3881  0.0800
 3084TIP3    H130811   0.306   5.933   0.984 -0.3563  0.3094 -0.4560
 3084TIP3    H230812   0.358   5.966   0.846 -2.3016 -1.1297 -1.5759
 3085TIP3   OH230813   6.291   6.854   3.402  0.5383  0.0131  0.1840
 3085TIP3    H130814   6.203   6.818   3.389  0.7654 -1.1140  1.4797
 3085TIP3    H230815   6.282   6.947   3.385 -1.0000 -0.0190  0.6697
 3086TIP3   OH230816   3.551   1.626   8.358  0.2204 -0.1485 -0.2415
 3086TIP3    H130817   3.617   1.694   8.342  0.2198  0.2948  1.4252
 3086TIP3    H230818   3.467   1.668   8.338  0.3807 -0.5670 -1.9127
 3087TIP3   OH230819   4.628   6.900   7.993 -0.0074  0.5423  0.7848
 3087TIP3    H130820   4.566   6.834   7.964  0.0077  0.8641  0.0019
 3087TIP3    H230821   4.680   6.920   7.916  0.6290  0.7655  1.2647
 3088TIP3   OH230822   0.688   0.916   1.622 -0.0999  1.0543  0.0881
 3088TIP3    H130823   0.679   0.994   1.567  1.3507  1.1887 -0.0203
 3088TIP3    H230824   0.746   0.944   1.693 -0.9937  0.5513  1.0317
 3089TIP3   OH230825   2.841   1.906   8.204 -0.4003  0.2623 -0.1133
 3089TIP3    H130826   2.901   1.831   8.200 -0.2594  0.3762 -0.1589
 3089TIP3    H230827   2.857   1.944   8.290  0.3533  0.9129 -0.5241
 3090TIP3   OH230828   4.715   0.963   8.402  0.3312  0.2222  0.0259
 3090TIP3    H130829   4.692   0.963   8.495  2.0875  0.2160  0.5059
 3090TIP3    H230830   4.685   0.878   8.370  0.9277 -0.3595  0.9482
 3091TIP3   OH230831   2.127   3.683   8.085 -0.7886  0.3493  0.1985
 3091TIP3    H130832   2.199   3.731   8.126 -0.7501  1.1437 -0.7448
 3091TIP3    H230833   2.072   3.752   8.047 -0.0979 -0.3440 -2.2715
 3092TIP3   OH230834   3.938   4.530   1.712 -0.3930 -0.0714  0.6487
 3092TIP3    H130835   3.983   4.451   1.743  0.8529  0.5661  0.5380
 3092TIP3    H230836   3.945   4.592   1.785  2.6696  1.4844 -0.7696
 3093TIP3   OH230837   5.904   0.400   0.032  0.4992 -0.4930  0.4231
 3093TIP3    H130838   5.830   0.442   0.077  0.3459 -1.6831  1.3296
 3093TIP3    H230839   5.891   0.422  -0.061 -0.0430  0.7212  0.7649
 3094TIP3   OH230840   2.775   6.496   2.106 -0.2355 -0.0956 -0.1007
 3094TIP3    H130841   2.861   6.539   2.101 -0.3147  0.4796  2.0607
 3094TIP3    H230842   2.720   6.547   2.047  0.8355 -0.2955 -1.3068
 3095TIP3   OH230843   1.616   3.022   1.465  0.2859  0.3510 -0.4169
 3095TIP3    H130844   1.632   3.116   1.474 -0.5199  0.3575  1.5003
 3095TIP3    H230845   1.546   3.004   1.527  0.4483 -1.5333 -0.7313
 3096TIP3   OH230846   0.314   6.247   2.832  0.3588  0.0962  0.0485
 3096TIP3    H130847   0.301   6.293   2.915  2.1423  0.0167  0.4200
 3096TIP3    H230848   0.273   6.303   2.766  1.0585  1.4033  0.6975
 3097TIP3   OH230849   0.288   5.398   0.942 -0.0394  0.5226 -0.3699
 3097TIP3    H130850   0.274   5.480   0.990  3.7421 -0.3719  2.7727
 3097TIP3    H230851   0.221   5.339   0.976  0.5461  0.8605  1.4738
 3098TIP3   OH230852   0.204   5.513   2.236  0.3615  0.1859 -0.3836
 3098TIP3    H130853   0.202   5.419   2.255 -1.1930 -0.2478 -2.2869
 3098TIP3    H230854   0.135   5.550   2.291  1.3436  0.3218  0.7745
 3099TIP3   OH230855   2.809   5.268   0.002  0.6614  0.7819 -0.7293
 3099TIP3    H130856   2.737   5.322   0.036  0.5036 -0.4848  1.1213
 3099TIP3    H230857   2.887   5.300   0.048  0.6578 -0.1732 -0.0427
 3100TIP3   OH230858   2.833   0.975   1.682  0.4447 -0.0979 -0.4607
 3100TIP3    H130859   2.913   0.941   1.641  0.5203 -0.4881  0.0019
 3100TIP3    H230860   2.820   1.061   1.642  0.4781 -0.4951 -1.3497
 3101TIP3   OH230861   6.775   3.941   2.661  0.1125  0.3101  0.1791
 3101TIP3    H130862   6.840   3.951   2.731 -0.4147 -0.8046  0.8593
 3101TIP3    H230863   6.702   3.997   2.688  0.0220  0.0918  0.3974
 3102TIP3   OH230864   1.804   0.328   1.662 -0.6242 -0.0663  0.2510
 3102TIP3    H130865   1.857   0.384   1.718  0.0394 -0.7406  0.3110
 3102TIP3    H230866   1.716   0.335   1.698 -0.8519  2.0547 -0.6156
 3103TIP3   OH230867   6.088   0.270   7.711 -0.3916 -0.0478 -0.4362
 3103TIP3    H130868   6.022   0.227   7.657 -2.7679  0.5382  1.8062
 3103TIP3    H230869   6.082   0.363   7.687 -3.5834  0.7568  2.5210
 3104TIP3   OH230870   0.795   1.060   0.398 -0.2250 -0.2834  0.5640
 3104TIP3    H130871   0.860   0.999   0.432  0.4609 -0.2622 -0.6607
 3104TIP3    H230872   0.757   1.016   0.322 -0.9973  0.0867  0.7187
 3105TIP3   OH230873   4.384   4.852   7.134  0.5936 -0.0772 -0.0663
 3105TIP3    H130874   4.410   4.864   7.225  0.1349  1.1838 -0.0891
 3105TIP3    H230875   4.290   4.868   7.133  0.9140  2.0290 -1.0864
 3106TIP3   OH230876   2.335   1.202   2.004  0.3107 -0.0080 -0.2547
 3106TIP3    H130877   2.396   1.129   2.011 -0.7624 -0.9783 -0.7734
 3106TIP3    H230878   2.308   1.220   2.094  0.6659 -0.1678 -0.1148
 3107TIP3   OH230879   6.669   5.848   0.224  0.2823 -0.0001  0.3416
 3107TIP3    H130880   6.678   5.754   0.241  2.2265 -0.3432 -2.0653
 3107TIP3    H230881   6.749   5.886   0.260 -0.5471  0.7955  1.4052
 3108TIP3   OH230882   2.231   1.718   1.164 -0.3723 -0.2369 -0.3481
 3108TIP3    H130883   2.323   1.722   1.137 -0.2677  0.4098  0.0995
 3108TIP3    H230884   2.233   1.735   1.258 -0.8228 -1.6164 -0.0629
 3109TIP3   OH230885   5.811   2.726   3.189 -0.5980 -0.7651 -0.1589
 3109TIP3    H130886   5.827   2.716   3.095 -0.5066 -2.9697  0.0516
 3109TIP3    H230887   5.898   2.734   3.228 -0.6510  0.7337 -0.2648
 3110TIP3   OH230888   5.995   4.630   0.229 -0.3543 -0.8410 -0.6742
 3110TIP3    H130889   5.977   4.552   0.282  0.0396 -0.8286 -0.5175
 3110TIP3    H230890   5.914   4.646   0.182 -0.4712 -1.2905 -0.6342
 3111TIP3   OH230891   6.695   4.097   8.393  0.0207  0.0868  0.6792
 3111TIP3    H130892   6.754   4.149   8.449 -1.0175  0.6275  1.3121
 3111TIP3    H230893   6.748   4.073   8.318  1.5850 -0.9732  2.0526
 3112TIP3   OH230894   1.713   1.617   2.749 -0.2337 -0.1244 -0.0731
 3112TIP3    H130895   1.648   1.554   2.719  0.6251 -1.6080  1.0690
 3112TIP3    H230896   1.796   1.569   2.748  0.4294  0.9484  0.9267
 3113TIP3   OH230897   2.102   6.579   1.457 -0.1170  0.0892  0.0801
 3113TIP3    H130898   2.177   6.579   1.517 -0.2223 -1.5417  0.2666
 3113TIP3    H230899   2.140   6.583   1.370  0.0805  1.3710  0.2066
 3114TIP3   OH230900   1.885   1.158   1.663  0.2145  0.2244  0.5125
 3114TIP3    H130901   1.812   1.182   1.720  0.3033  0.2306  0.6239
 3114TIP3    H230902   1.954   1.130   1.723  0.8095  1.5764  0.5036
 3115TIP3   OH230903   0.038   4.006   0.051  0.2387  0.7817 -0.2714
 3115TIP3    H130904  -0.013   3.938   0.006  0.4601 -1.4516  2.5512
 3115TIP3    H230905  -0.026   4.073   0.074 -0.1097  1.3249 -2.5302
 3116TIP3   OH230906   6.299   5.751   7.871  0.2444  0.4175 -0.4799
 3116TIP3    H130907   6.388   5.717   7.880  0.1674  0.3814  0.2622
 3116TIP3    H230908   6.303   5.811   7.797  1.0511  0.9382 -0.0291
 3117TIP3   OH230909   1.933   4.856   2.560  0.6177  0.1312 -0.6232
 3117TIP3    H130910   1.954   4.949   2.552 -0.8336  0.5169 -0.3227
 3117TIP3    H230911   1.837   4.853   2.554  0.1515 -0.8057  3.6063
 3118TIP3   OH230912   3.260   4.759   0.391  0.3795 -0.4200 -0.4904
 3118TIP3    H130913   3.239   4.763   0.485  2.4348  0.4666 -0.0258
 3118TIP3    H230914   3.186   4.803   0.349 -0.1518 -0.0342  0.7786
 3119TIP3   OH230915   4.861   5.176   8.337  0.1994  0.3100 -0.7447
 3119TIP3    H130916   4.817   5.091   8.323  2.0234 -0.3961 -2.7843
 3119TIP3    H230917   4.853   5.221   8.253 -0.9409  2.3259  0.3818
 3120TIP3   OH230918   5.837   0.885   7.848  0.1094  0.1351 -0.0643
 3120TIP3    H130919   5.824   0.856   7.758 -1.1402 -1.4346  0.5676
 3120TIP3    H230920   5.839   0.981   7.842  0.0548  0.0643 -1.7517
 3121TIP3   OH230921   4.624   0.747   1.585 -0.3336  0.0058  0.4870
 3121TIP3    H130922   4.657   0.735   1.674  1.5377  0.2386 -0.1338
 3121TIP3    H230923   4.597   0.659   1.558 -0.7433 -0.0968  1.2122
 3122TIP3   OH230924   3.581   0.217   0.200 -0.0470  0.1711 -0.6282
 3122TIP3    H130925   3.501   0.259   0.169  0.4863  1.9469  0.2928
 3122TIP3    H230926   3.651   0.272   0.167  0.6647  0.1976  0.8653
 3123TIP3   OH230927   5.330   0.306   3.282 -0.3115 -0.0134 -0.0604
 3123TIP3    H130928   5.277   0.251   3.339 -0.3057 -0.9623 -0.9460
 3123TIP3    H230929   5.415   0.313   3.327 -0.5760 -0.0427  0.4465
 3124TIP3   OH230930   6.855   6.570   8.466  0.2180 -0.5429  0.6357
 3124TIP3    H130931   6.914   6.551   8.539 -0.3360 -2.0042  0.7480
 3124TIP3    H230932   6.789   6.501   8.470 -1.9147  1.3993  0.9223
 3125TIP3   OH230933   6.197   2.004   8.151 -0.7356 -0.3167  0.3342
 3125TIP3    H130934   6.243   2.071   8.202 -0.6128  1.7781 -2.2736
 3125TIP3    H230935   6.235   2.011   8.063 -2.6612 -1.9324 -0.7106
 3126TIP3   OH230936   6.749   5.283   0.211  0.4367 -0.3010  0.4208
 3126TIP3    H130937   6.812   5.226   0.168 -1.1430 -2.0083  0.2603
 3126TIP3    H230938   6.803   5.340   0.267  2.0560 -2.6604  1.4299
 3127TIP3   OH230939   5.970   2.744   1.586 -0.0813 -0.6081 -0.1084
 3127TIP3    H130940   5.922   2.673   1.628 -0.7919  1.1595  2.3014
 3127TIP3    H230941   5.903   2.795   1.540 -0.5264  1.2394  2.3521
 3128TIP3   OH230942   2.419   1.205   1.480  0.0114  0.5627 -0.6201
 3128TIP3    H130943   2.340   1.224   1.531 -1.8182  0.0270 -3.0724
 3128TIP3    H230944   2.445   1.117   1.508 -0.6395  0.4896 -0.2294
 3129TIP3   OH230945   1.113   6.142   2.880  0.5376  0.1356  0.1794
 3129TIP3    H130946   1.093   6.200   2.953  2.4862  0.4425  0.5106
 3129TIP3    H230947   1.193   6.096   2.906 -1.3115 -3.3716  0.2873
 3130TIP3   OH230948   6.073   6.410   1.011 -0.2839 -0.1478 -0.0147
 3130TIP3    H130949   6.140   6.466   0.972  0.0131 -0.4968  0.0016
 3130TIP3    H230950   6.010   6.396   0.940 -0.6229  0.6142  0.1187
 3131TIP3   OH230951   4.277   2.828   2.278 -0.0985 -0.2893 -0.1092
 3131TIP3    H130952   4.322   2.890   2.336  1.3151  0.5680 -2.0012
 3131TIP3    H230953   4.184   2.849   2.288  0.1404  0.1388  1.4621
 3132TIP3   OH230954   3.657   1.827   0.018 -0.4601  0.2338 -0.3048
 3132TIP3    H130955   3.726   1.890  -0.003 -0.9547  0.0656 -2.6399
 3132TIP3    H230956   3.575   1.872  -0.002 -0.8259 -1.0751 -1.9687
 3133TIP3   OH230957   3.430   5.437   1.633 -0.7998  0.0814 -0.5658
 3133TIP3    H130958   3.454   5.466   1.721 -1.9428  0.2352 -0.2882
 3133TIP3    H230959   3.495   5.369   1.611  0.5830  1.2959 -0.3547
 3134TIP3   OH230960   0.639   1.263   7.945  0.3081 -0.1453  0.0619
 3134TIP3    H130961   0.683   1.268   8.029  1.0600 -1.7555 -0.1968
 3134TIP3    H230962   0.548   1.243   7.966 -0.1376  2.1343  0.5531
 3135TIP3   OH230963   4.409   3.356   1.276 -0.1015 -0.0289  0.7570
 3135TIP3    H130964   4.467   3.323   1.344  0.7677 -0.0181  0.0357
 3135TIP3    H230965   4.393   3.447   1.302 -0.3117 -0.2127  1.2939
 3136TIP3   OH230966   4.169   1.493   1.789 -0.5830 -0.3829 -0.6441
 3136TIP3    H130967   4.263   1.477   1.782 -0.3479  0.5477  0.1697
 3136TIP3    H230968   4.157   1.581   1.753 -1.1043 -0.4002 -0.5206
 3137TIP3   OH230969   6.872   5.483   2.098  0.0263 -0.1556  0.2664
 3137TIP3    H130970   6.892   5.434   2.018 -0.4466 -0.4304  0.3119
 3137TIP3    H230971   6.957   5.500   2.138  0.3250  0.5112 -0.6021
 3138TIP3   OH230972   0.358   0.262   0.707  0.3155  0.1331  0.1663
 3138TIP3    H130973   0.375   0.313   0.786  1.9762 -1.7099  1.1108
 3138TIP3    H230974   0.421   0.294   0.643  0.6752 -0.0463  0.4277
 3139TIP3   OH230975   1.122   4.029   2.192 -0.1554 -0.3447 -0.2852
 3139TIP3    H130976   1.147   3.965   2.258  0.2623 -0.6630 -0.7395
 3139TIP3    H230977   1.029   4.014   2.178 -0.8259  1.3292  1.9386
 3140TIP3   OH230978   3.676   3.744   8.418 -0.0873 -0.7664 -0.2557
 3140TIP3    H130979   3.754   3.697   8.446  0.5066 -0.1953 -0.8944
 3140TIP3    H230980   3.694   3.768   8.327 -1.0720 -0.7547 -0.4573
 3141TIP3   OH230981   0.279   4.300   7.297 -0.4095 -0.6331  0.1464
 3141TIP3    H130982   0.320   4.270   7.378 -1.7323 -1.1969  0.6278
 3141TIP3    H230983   0.208   4.238   7.282 -0.6638 -0.0771 -1.0369
 3142TIP3   OH230984   1.735   0.433   2.640 -0.4035 -0.2427  0.0897
 3142TIP3    H130985   1.721   0.527   2.623  0.9811 -0.3658 -2.2697
 3142TIP3    H230986   1.649   0.394   2.627 -0.6566  0.5204 -0.7075
 3143TIP3   OH230987   4.300   0.073   2.019 -0.0002 -0.9765 -0.5615
 3143TIP3    H130988   4.225   0.073   1.960  0.0339 -1.3876 -0.6046
 3143TIP3    H230989   4.343  -0.011   2.004 -0.5207 -1.5102  0.7015
 3144TIP3   OH230990   6.424   6.451   7.951 -0.0371  0.4232 -0.1455
 3144TIP3    H130991   6.439   6.402   8.032 -1.3306  0.7823  0.3532
 3144TIP3    H230992   6.376   6.390   7.895 -0.1238  0.5416 -0.2001
 3145TIP3   OH230993   2.041   1.028   1.218  0.0352 -0.6277  0.4819
 3145TIP3    H130994   2.007   1.075   1.142  0.5458 -0.1450  0.5466
 3145TIP3    H230995   1.966   1.020   1.277  0.0384  0.5091  0.6656
 3146TIP3   OH230996   3.621   0.578   0.370 -0.3177  0.1373  0.2565
 3146TIP3    H130997   3.586   0.502   0.417  0.4493  0.6922  1.7776
 3146TIP3    H230998   3.714   0.580   0.394  0.4112 -0.2485 -2.2586
 3147TIP3   OH230999   1.160   2.186   8.224 -0.0555 -0.2269 -0.0640
 3147TIP3    H131000   1.227   2.249   8.197 -1.1454  0.9351 -0.1029
 3147TIP3    H231001   1.177   2.170   8.317 -0.3359  0.8510  0.1824
 3148TIP3   OH231002   1.943   5.889   0.915  0.2823 -0.3744 -0.0671
 3148TIP3    H131003   1.986   5.974   0.929 -0.3458  0.0079 -0.4145
 3148TIP3    H231004   1.902   5.868   0.999  1.7523 -1.1077  0.5027
 3149TIP3   OH231005   0.738   3.364   2.574  0.5670  0.4531 -0.2154
 3149TIP3    H131006   0.793   3.376   2.651  0.2340  0.0511  0.0928
 3149TIP3    H231007   0.652   3.396   2.602  0.2213 -0.5245 -0.1138
 3150TIP3   OH231008   3.729   4.960   2.630 -0.7646  0.1913 -0.0833
 3150TIP3    H131009   3.819   4.992   2.634 -1.0673  1.1341 -0.6553
 3150TIP3    H231010   3.732   4.886   2.569 -0.5903  0.9750 -1.0328
 3151TIP3   OH231011   5.808   0.630   1.204  0.0634  0.0808  0.5315
 3151TIP3    H131012   5.755   0.638   1.283 -0.7256 -2.1573  0.3028
 3151TIP3    H231013   5.781   0.546   1.166  1.1368  0.6366 -1.5835
 3152TIP3   OH231014   3.382   1.782   2.278  0.0574  0.3508 -0.0653
 3152TIP3    H131015   3.446   1.724   2.319 -0.8939  0.5328  1.7968
 3152TIP3    H231016   3.429   1.824   2.207  1.0287 -2.0195 -0.9108
 3153TIP3   OH231017   0.142   1.112   1.779 -0.3215 -0.1348 -0.2316
 3153TIP3    H131018   0.217   1.061   1.809 -0.0040  0.1656 -0.5056
 3153TIP3    H231019   0.074   1.095   1.844 -0.8769 -2.4348 -1.2993
 3154TIP3   OH231020   2.663   3.904   3.086  0.2626 -0.0340 -0.1424
 3154TIP3    H131021   2.706   3.955   3.017  0.6381 -1.9571 -1.4121
 3154TIP3    H231022   2.736   3.870   3.139  0.1719 -1.0879 -0.6756
 3155TIP3   OH231023   4.725   3.182   1.975 -0.0015 -0.1696 -0.3491
 3155TIP3    H131024   4.736   3.200   2.068 -0.1391  0.7314 -0.4972
 3155TIP3    H231025   4.773   3.101   1.960 -1.9171 -1.6351  0.9769
 3156TIP3   OH231026   6.491   0.171   0.364 -0.3757 -0.1606  0.3984
 3156TIP3    H131027   6.435   0.095   0.349 -0.7349 -0.1078  1.4335
 3156TIP3    H231028   6.489   0.184   0.459  0.6708  0.3896  0.3573
 3157TIP3   OH231029   2.891   4.320   7.881  1.0490 -0.4708 -0.3052
 3157TIP3    H131030   2.913   4.302   7.789  0.1482 -0.7547 -0.4760
 3157TIP3    H231031   2.957   4.273   7.931  0.1427 -2.3532 -0.7757
 3158TIP3   OH231032   4.497   4.184   0.135  0.3562  0.3973  0.4619
 3158TIP3    H131033   4.534   4.264   0.171  2.0300  0.1087 -0.5290
 3158TIP3    H231034   4.570   4.142   0.089 -0.7786 -1.0968 -0.0521
 3159TIP3   OH231035   5.062   1.063   2.782 -0.0737  0.0451 -0.2524
 3159TIP3    H131036   4.991   1.024   2.833  0.3103  0.4256  0.5936
 3159TIP3    H231037   5.123   0.991   2.766  0.6802  0.2814  1.3818
 3160TIP3   OH231038   6.555   4.240   3.263 -0.0404  0.0510 -0.1807
 3160TIP3    H131039   6.475   4.206   3.223 -1.4248  0.8614  1.7092
 3160TIP3    H231040   6.548   4.215   3.355  1.2657  1.2181  0.2713
 3161TIP3   OH231041   3.732   6.437   1.538  0.2882  0.0427 -0.1970
 3161TIP3    H131042   3.715   6.436   1.444 -0.9355  1.2249 -0.0131
 3161TIP3    H231043   3.646   6.441   1.579  0.7768 -1.0841  1.0113
 3162TIP3   OH231044   4.258   6.214   0.759 -0.0336  0.6889 -0.3648
 3162TIP3    H131045   4.267   6.256   0.844 -2.5260 -0.0079  0.3305
 3162TIP3    H231046   4.190   6.264   0.714 -1.0534 -0.8495 -0.6284
 3163TIP3   OH231047   1.192   6.492   2.195  0.1773  0.1465  0.4410
 3163TIP3    H131048   1.254   6.425   2.166 -1.9825 -1.2545 -1.3096
 3163TIP3    H231049   1.141   6.449   2.264  0.2843  0.8259  0.9523
 3164TIP3   OH231050   1.488   0.245   8.523 -0.3798 -0.1831 -0.0393
 3164TIP3    H131051   1.500   0.272   8.432 -0.7300 -0.7255 -0.2588
 3164TIP3    H231052   1.418   0.179   8.518 -0.4496 -0.1613  0.6323
 3165TIP3   OH231053   0.944   3.692   6.788  0.5554 -0.0267  0.7626
 3165TIP3    H131054   0.895   3.624   6.741 -1.0039  1.0844  0.7183
 3165TIP3    H231055   1.026   3.649   6.813 -0.1513 -1.7550  0.2626
 3166TIP3   OH231056   5.939   0.319   7.952 -0.3438  0.0741  0.4655
 3166TIP3    H131057   6.004   0.273   7.899 -1.5604 -0.9529 -0.1525
 3166TIP3    H231058   5.911   0.392   7.896 -1.2711 -0.7251 -0.1238
 3167TIP3   OH231059   2.415   6.533   2.030  0.4088 -0.4122  0.5631
 3167TIP3    H131060   2.471   6.593   2.080  1.2931 -0.7523 -0.0032
 3167TIP3    H231061   2.328   6.544   2.069  0.8985 -0.0216  1.5874
 3168TIP3   OH231062   2.578   2.617   0.834 -0.1683  0.1605 -0.1992
 3168TIP3    H131063   2.598   2.593   0.744 -1.7802  1.6972 -1.0308
 3168TIP3    H231064   2.609   2.707   0.842 -0.3337  0.1498  0.6852
 3169TIP3   OH231065   5.728   5.994   1.735  0.3425  0.2370  0.0336
 3169TIP3    H131066   5.665   5.995   1.807 -0.4447 -0.9116 -0.6249
 3169TIP3    H231067   5.686   6.044   1.665  1.0751  1.2854  0.3030
 3170TIP3   OH231068   3.242   6.223   8.241 -1.0304  0.3945  0.3140
 3170TIP3    H131069   3.296   6.146   8.222 -1.5317  0.4411 -1.4490
 3170TIP3    H231070   3.166   6.188   8.287 -0.1590  0.1685  1.6514
 3171TIP3   OH231071   4.490   1.518   0.810 -0.5013  0.2265 -0.0161
 3171TIP3    H131072   4.558   1.565   0.859 -0.6868 -0.5530  1.0348
 3171TIP3    H231073   4.465   1.445   0.868  0.5666 -1.8544 -2.0132
 3172TIP3   OH231074   1.458   3.471   8.114  0.6500  0.1078 -0.1452
 3172TIP3    H131075   1.422   3.391   8.154  0.6019 -0.8432 -1.9848
 3172TIP3    H231076   1.416   3.542   8.162 -1.6436 -0.9694 -0.3947
 3173TIP3   OH231077   3.005   6.665   2.095  0.1199 -0.0904  0.4003
 3173TIP3    H131078   3.083   6.654   2.041  0.4334  2.8761  0.0811
 3173TIP3    H231079   2.968   6.750   2.067 -2.8441 -1.0530  1.0158
 3174TIP3   OH231080   6.093   3.270   8.045 -0.6688  0.3551 -0.1408
 3174TIP3    H131081   6.172   3.283   7.993 -0.5948  2.4334  0.3877
 3174TIP3    H231082   6.022   3.298   7.986 -0.9478 -0.6220 -0.2913
 3175TIP3   OH231083   3.208   5.026   2.417  0.5668 -0.4180  0.1449
 3175TIP3    H131084   3.180   5.092   2.355  0.2132  1.3175  2.0528
 3175TIP3    H231085   3.135   4.963   2.420 -1.2789  1.6046  1.6495
 3176TIP3   OH231086   2.946   2.076   8.015 -0.3179  0.2238 -0.3582
 3176TIP3    H131087   3.001   2.014   7.968 -2.2880 -1.2972 -0.8263
 3176TIP3    H231088   2.897   2.022   8.077 -0.8772  1.5751  0.4201
 3177TIP3   OH231089   6.138   4.471   1.667 -0.3770  0.5578 -0.3717
 3177TIP3    H131090   6.086   4.474   1.747 -0.5150  0.6308 -0.4639
 3177TIP3    H231091   6.115   4.550   1.619 -0.2735  0.5296 -0.4715
 3178TIP3   OH231092   3.552   2.464   2.169 -0.0686  0.5730 -0.2075
 3178TIP3    H131093   3.467   2.421   2.157  1.4025 -2.3203 -1.2525
 3178TIP3    H231094   3.561   2.520   2.093 -0.2851 -0.5715 -1.1098
 3179TIP3   OH231095   6.033   2.097   2.407  0.1349  0.3557  0.0627
 3179TIP3    H131096   6.076   2.050   2.478  0.1417  1.0270  0.5066
 3179TIP3    H231097   5.986   2.168   2.450 -2.2286 -0.9056 -0.3046
 3180TIP3   OH231098   1.385   1.903   1.599 -0.5388  0.9407 -0.2612
 3180TIP3    H131099   1.293   1.878   1.604 -0.2133 -0.7146 -1.7172
 3180TIP3    H231100   1.431   1.823   1.576  1.3898  1.5782  1.0968
 3181TIP3   OH231101   2.941   3.525   0.263 -0.0373 -0.3986 -0.2227
 3181TIP3    H131102   2.881   3.600   0.263 -0.8106 -1.0080 -0.3006
 3181TIP3    H231103   3.028   3.564   0.250 -0.2620  0.6017  1.0577
 3182TIP3   OH231104   2.694   6.730   1.949 -0.2318 -0.2047 -0.7822
 3182TIP3    H131105   2.616   6.773   1.914 -0.2001  0.5138 -0.0115
 3182TIP3    H231106   2.756   6.801   1.964  0.0614 -0.5915 -0.0964
 3183TIP3   OH231107   2.683   5.787   3.182 -0.3911 -0.2375  0.1403
 3183TIP3    H131108   2.726   5.822   3.259  0.3096 -0.2818 -0.2251
 3183TIP3    H231109   2.744   5.722   3.147 -0.1948  0.5594 -1.0673
 3184TIP3   OH231110   1.564   5.368   2.357 -0.3196  0.0220 -0.0646
 3184TIP3    H131111   1.614   5.407   2.286  0.0355  1.0907  0.7462
 3184TIP3    H231112   1.627   5.359   2.429 -0.8411 -0.3676  0.3571
 3185TIP3   OH231113   0.220   1.270   8.345  0.3870 -0.5141  0.2178
 3185TIP3    H131114   0.234   1.289   8.252 -0.7713 -1.8950 -0.2735
 3185TIP3    H231115   0.275   1.194   8.363  2.1732  0.9480  1.2246
 3186TIP3   OH231116   3.077   2.082   2.127  0.3161 -0.4632 -0.0254
 3186TIP3    H131117   3.075   2.167   2.170  0.8673  0.1755 -1.2391
 3186TIP3    H231118   3.035   2.023   2.190 -2.2709  1.1134 -0.1045
 3187TIP3   OH231119   5.492   5.351   2.025  0.1391 -0.1612 -0.4163
 3187TIP3    H131120   5.531   5.290   2.088  0.4319  0.7780  0.3401
 3187TIP3    H231121   5.423   5.301   1.983 -0.9840 -0.4283  1.6126
 3188TIP3   OH231122   5.831   5.680   3.127 -0.0204 -0.4283 -0.5427
 3188TIP3    H131123   5.838   5.585   3.135  0.5970 -0.2956  0.6765
 3188TIP3    H231124   5.768   5.705   3.195  0.6067  0.1303 -0.1549
 3189TIP3   OH231125   1.532   1.028   0.204 -0.6117  0.7865 -0.0160
 3189TIP3    H131126   1.624   1.044   0.184 -0.1335 -0.2557  1.2299
 3189TIP3    H231127   1.485   1.067   0.130  0.8503  0.7765 -1.0033
 3190TIP3   OH231128   4.516   5.076   2.646  0.3976  0.1664  0.5508
 3190TIP3    H131129   4.535   4.984   2.667  0.2239 -0.0463 -0.1924
 3190TIP3    H231130   4.514   5.120   2.731 -1.4365 -0.8852  1.1153
 3191TIP3   OH231131   0.933   0.436   3.612  0.1732 -0.2371 -0.3413
 3191TIP3    H131132   1.018   0.463   3.579 -0.3328  0.2514 -1.2923
 3191TIP3    H231133   0.917   0.351   3.570  0.6761 -0.8908  0.7318
 3192TIP3   OH231134   3.328   0.634   7.156  0.0367 -0.1345 -0.0047
 3192TIP3    H131135   3.337   0.551   7.202  0.6112 -0.5384 -0.8305
 3192TIP3    H231136   3.346   0.613   7.065 -2.7993  0.3074 -0.7445
 3193TIP3   OH231137   3.788   1.057   1.411  0.6979 -0.1140  0.1043
 3193TIP3    H131138   3.729   1.062   1.336  0.4119  1.6749  0.4013
 3193TIP3    H231139   3.854   1.124   1.395 -2.1897  4.1629  3.6693
 3194TIP3   OH231140   3.231   2.803   1.562  0.3193 -0.6079  0.8842
 3194TIP3    H131141   3.180   2.745   1.505 -0.5628 -1.3691  2.3816
 3194TIP3    H231142   3.170   2.873   1.585  0.5637 -0.4829  1.1514
 3195TIP3   OH231143   4.074   5.213   8.235 -0.0641 -0.0516  0.1024
 3195TIP3    H131144   4.084   5.197   8.141 -0.2885  0.7613 -0.0661
 3195TIP3    H231145   4.118   5.297   8.250 -0.1142 -0.1274  0.7111
 3196TIP3   OH231146   3.968   6.735   0.340  0.2781 -0.3707 -0.6841
 3196TIP3    H131147   3.897   6.798   0.349  1.5393  0.7980  2.1825
 3196TIP3    H231148   4.043   6.787   0.312  0.8301 -0.9570 -0.3171
 3197TIP3   OH231149   3.360   3.487   7.951 -0.1418  0.4592 -0.2281
 3197TIP3    H131150   3.308   3.561   7.921 -1.3570 -0.7661 -1.2697
 3197TIP3    H231151   3.436   3.486   7.894 -0.5079  0.4516 -0.7219
 3198TIP3   OH231152   4.363   6.646   7.756 -0.5586 -0.0324  0.1142
 3198TIP3    H131153   4.284   6.643   7.702  0.7562 -2.3080 -1.9113
 3198TIP3    H231154   4.412   6.567   7.731  1.6267  0.4580  2.4287
 3199TIP3   OH231155   3.079   6.045   0.723  0.1665 -0.1873  0.4138
 3199TIP3    H131156   2.990   6.080   0.717 -0.0392 -0.7659  0.0494
 3199TIP3    H231157   3.073   5.975   0.789 -0.2029 -1.8508 -1.2966
 3200TIP3   OH231158   1.811   1.452   2.404  0.2933  0.3896  0.1420
 3200TIP3    H131159   1.833   1.541   2.431 -1.0263  0.5049  0.8973
 3200TIP3    H231160   1.870   1.397   2.456 -0.1309  0.7531  1.0328
 3201TIP3   OH231161   6.252   5.610   7.549  0.2744  0.1127  0.1520
 3201TIP3    H131162   6.291   5.571   7.627  0.1059  0.1829  0.2736
 3201TIP3    H231163   6.326   5.639   7.496  0.4166 -0.7749 -0.1516
 3202TIP3   OH231164   3.821   5.139   2.443  0.5050  0.0728 -0.1311
 3202TIP3    H131165   3.785   5.050   2.437  1.1546 -0.1334 -4.9201
 3202TIP3    H231166   3.745   5.196   2.435  0.3667 -0.0999 -0.0710
 3203TIP3   OH231167   5.386   0.685   8.303 -0.1994  0.1346 -0.1651
 3203TIP3    H131168   5.353   0.620   8.365 -2.6497  0.9646 -0.4892
 3203TIP3    H231169   5.477   0.699   8.329 -0.3001 -1.6808  1.3701
 3204TIP3   OH231170   3.158   2.037   1.856  0.2779  0.0620  0.2536
 3204TIP3    H131171   3.088   1.997   1.805 -1.2756  1.9201  0.8303
 3204TIP3    H231172   3.137   2.016   1.947  0.7640  0.1843  0.3983
 3205TIP3   OH231173   3.468   0.513   1.084 -0.1882  0.6646 -0.5438
 3205TIP3    H131174   3.446   0.592   1.035 -0.4082  1.2413  0.4564
 3205TIP3    H231175   3.391   0.496   1.138 -0.4396 -0.6722 -1.2837
 3206TIP3   OH231176   4.838   6.744   1.221  0.4165 -0.6456  0.6338
 3206TIP3    H131177   4.742   6.741   1.214  0.4181  0.2737  0.0795
 3206TIP3    H231178   4.863   6.654   1.239 -0.5644 -0.8824  0.9002
 3207TIP3   OH231179   6.209   6.248   0.382  0.3673  0.3197 -0.2266
 3207TIP3    H131180   6.162   6.214   0.306 -0.5653  1.1509 -0.0413
 3207TIP3    H231181   6.163   6.210   0.457 -0.0641  1.1947 -0.0414
 3208TIP3   OH231182   2.983   5.055   7.811 -0.5514  0.2525  0.5650
 3208TIP3    H131183   2.937   4.971   7.814 -0.5541  0.2703  0.9655
 3208TIP3    H231184   3.006   5.073   7.902 -0.3731  0.5885  0.4516
 3209TIP3   OH231185   0.716   0.239   8.546 -0.2635 -0.1731 -0.0027
 3209TIP3    H131186   0.772   0.317   8.541 -0.1016 -0.3213 -0.6996
 3209TIP3    H231187   0.764   0.178   8.602 -1.5264  1.1154  2.6503
 3210TIP3   OH231188   0.918   0.413   0.797 -0.4861  0.2258  0.1048
 3210TIP3    H131189   1.014   0.421   0.804 -0.3542 -0.2625 -0.9624
 3210TIP3    H231190   0.899   0.325   0.828 -0.8520  1.0257  2.3417
 3211TIP3   OH231191   4.898   5.689   0.691  0.0684  0.7017  0.2357
 3211TIP3    H131192   4.857   5.742   0.623  1.0162  1.1537 -0.0005
 3211TIP3    H231193   4.989   5.682   0.665 -0.3191 -2.6231 -0.7530
 3212TIP3   OH231194   3.637   2.828   1.555  0.2098  0.3230  0.3188
 3212TIP3    H131195   3.560   2.870   1.595  0.0915 -0.0472  0.4824
 3212TIP3    H231196   3.601   2.756   1.504  0.3363  0.9470 -0.6771
 3213TIP3   OH231197   0.417   5.328   7.530 -0.2763  0.5567  0.4170
 3213TIP3    H131198   0.477   5.286   7.468  0.3139  0.4792  1.0286
 3213TIP3    H231199   0.429   5.421   7.516 -1.3524  0.5412 -0.7203
 3214TIP3   OH231200   3.901   2.059   7.360 -0.3479  0.0391 -0.4308
 3214TIP3    H131201   3.984   2.025   7.394 -0.6847 -0.1313  0.2154
 3214TIP3    H231202   3.923   2.086   7.271  0.0696 -1.3236 -0.7758
 3215TIP3   OH231203   4.759   1.744   7.692 -0.1564  0.4583  0.3783
 3215TIP3    H131204   4.844   1.699   7.695 -0.7589 -0.7083  0.7434
 3215TIP3    H231205   4.745   1.762   7.599 -0.0577 -0.4568  0.1739
 3216TIP3   OH231206   2.603   1.375   0.652  0.0169  0.2310  0.8461
 3216TIP3    H131207   2.633   1.454   0.697  1.5338  1.5684 -2.1611
 3216TIP3    H231208   2.681   1.344   0.604 -1.2518 -1.4899 -0.2371
 3217TIP3   OH231209   3.450   2.253   7.418 -0.4772  0.4789  0.3013
 3217TIP3    H131210   3.509   2.292   7.482 -0.1656 -0.0816  0.3595
 3217TIP3    H231211   3.450   2.314   7.345  1.6485 -0.4176 -0.5000
 3218TIP3   OH231212   5.488   4.900   1.226 -0.0279 -0.9478  0.2001
 3218TIP3    H131213   5.489   4.899   1.322  0.3483 -1.5378  0.1977
 3218TIP3    H231214   5.417   4.842   1.202  1.3122 -2.6458  0.1305
 3219TIP3   OH231215   0.590   1.764   8.240 -0.1210  0.2897  0.4832
 3219TIP3    H131216   0.603   1.821   8.164  1.7283  0.4582  0.8689
 3219TIP3    H231217   0.542   1.689   8.206 -2.0236  1.7137 -0.1833
 3220TIP3   OH231218   2.969   4.750   8.220  0.2388  0.2458  0.6762
 3220TIP3    H131219   2.932   4.714   8.301 -0.8407 -1.9235 -0.6588
 3220TIP3    H231220   2.900   4.807   8.186 -0.3580 -0.7857  0.0999
 3221TIP3   OH231221   4.572   0.547   0.215 -0.1417 -0.1716 -0.9705
 3221TIP3    H131222   4.665   0.530   0.202 -0.5878 -1.9142 -2.2477
 3221TIP3    H231223   4.531   0.461   0.209 -1.7785  0.4664  0.2950
 3222TIP3   OH231224   5.285   0.896   2.429 -0.2787  0.0724  0.2871
 3222TIP3    H131225   5.236   0.829   2.475 -0.7374  0.0221 -0.2654
 3222TIP3    H231226   5.304   0.858   2.344 -0.3961  0.5734  0.0316
 3223TIP3   OH231227   6.036   2.828   2.652 -0.0869  0.2612 -0.0326
 3223TIP3    H131228   6.011   2.869   2.570 -1.6306  1.3195  0.9122
 3223TIP3    H231229   6.021   2.734   2.638 -3.7534  0.6867  0.0579
 3224TIP3   OH231230   5.510   2.997   3.455 -0.7838  0.2845  0.8465
 3224TIP3    H131231   5.587   2.955   3.493 -1.4177 -0.8798  0.8959
 3224TIP3    H231232   5.483   3.061   3.520  1.0759  1.8889  0.1204
 3225TIP3   OH231233   1.690   4.404   0.992  0.1197 -0.3555 -0.8572
 3225TIP3    H131234   1.662   4.360   0.911  0.7277  0.0613 -1.2966
 3225TIP3    H231235   1.654   4.349   1.062 -0.3087 -0.7887 -1.4040
 3226TIP3   OH231236   6.782   1.881   0.331 -0.1805 -0.1011  0.6832
 3226TIP3    H131237   6.712   1.919   0.383 -0.4716 -2.1349  1.8724
 3226TIP3    H231238   6.747   1.797   0.300  1.1251 -0.3899 -0.1268
 3227TIP3   OH231239   4.357   3.018   0.423 -0.0069  0.3003  0.6368
 3227TIP3    H131240   4.394   3.057   0.502 -0.3905  0.4047  0.7672
 3227TIP3    H231241   4.275   3.065   0.408  0.0978  0.3319  0.1337
 3228TIP3   OH231242   2.898   2.326   8.129  0.3412 -0.0871  0.0392
 3228TIP3    H131243   2.833   2.367   8.072  0.8114  0.2538 -0.2561
 3228TIP3    H231244   2.919   2.244   8.086 -1.1823 -1.0562  1.0248
 3229TIP3   OH231245   3.107   1.342   3.702  0.1451  0.6219  0.0425
 3229TIP3    H131246   3.152   1.264   3.669 -0.0634  0.2860  0.5163
 3229TIP3    H231247   3.058   1.309   3.778  0.3056  1.2840  0.4348
 3230TIP3   OH231248   2.288   3.603   2.241  0.2155 -0.3376  0.0425
 3230TIP3    H131249   2.270   3.520   2.196 -0.2719  0.6975 -1.8057
 3230TIP3    H231250   2.201   3.640   2.257  0.4067  1.3422 -2.2968
 3231TIP3   OH231251   0.108   2.838   8.194  0.6270 -0.2097 -0.1811
 3231TIP3    H131252   0.199   2.863   8.213  1.5724 -1.2002 -2.8571
 3231TIP3    H231253   0.114   2.787   8.113 -2.1236 -1.9575  0.5734
 3232TIP3   OH231254   3.466   3.236   2.248  0.1801 -0.2437 -0.5908
 3232TIP3    H131255   3.411   3.161   2.270 -0.3384  0.0337 -0.9021
 3232TIP3    H231256   3.477   3.282   2.332 -0.5518  0.0077 -0.6183
 3233TIP3   OH231257   1.268   2.205   1.270  0.2223 -0.1795  0.2280
 3233TIP3    H131258   1.210   2.227   1.343  0.1006  0.6481 -0.1018
 3233TIP3    H231259   1.271   2.285   1.217  1.5799 -0.2404  0.1810
 3234TIP3   OH231260   5.823   2.180   0.269  0.3083  0.2044 -0.6950
 3234TIP3    H131261   5.868   2.121   0.329 -1.1751 -0.6754 -0.3956
 3234TIP3    H231262   5.837   2.140   0.182 -0.8191 -0.7240 -0.4789
 3235TIP3   OH231263   5.735   1.717   1.815 -0.5286 -0.2021  0.2262
 3235TIP3    H131264   5.810   1.771   1.838 -2.2780  2.3555  0.2319
 3235TIP3    H231265   5.731   1.651   1.884 -0.3188  1.7814  2.2365
 3236TIP3   OH231266   4.009   5.466   1.119  0.0461 -0.1907  0.4281
 3236TIP3    H131267   4.083   5.409   1.139  0.8923  0.6588 -0.1283
 3236TIP3    H231268   4.015   5.480   1.024  0.0251  1.0063  0.5822
 3237TIP3   OH231269   3.759   5.853   1.246 -0.2339  0.3373  0.5821
 3237TIP3    H131270   3.807   5.770   1.253  2.3627  1.6033 -0.9123
 3237TIP3    H231271   3.786   5.902   1.324  0.6699  0.9101 -0.0756
 3238TIP3   OH231272   3.868   2.385   0.949  0.3027 -0.2884  0.0029
 3238TIP3    H131273   3.925   2.461   0.934 -2.2318  1.5631 -1.0402
 3238TIP3    H231274   3.895   2.321   0.884 -0.4215  1.5684 -2.2667
 3239TIP3   OH231275   4.505   3.217   0.249 -0.3543 -0.2698 -0.1674
 3239TIP3    H131276   4.433   3.155   0.256  0.5085 -1.5501 -1.9575
 3239TIP3    H231277   4.505   3.243   0.157  0.4841  0.9430  0.1598
 3240TIP3   OH231278   4.488   6.892   0.085 -0.2347  0.3254  0.2047
 3240TIP3    H131279   4.516   6.965   0.029 -0.2099  1.3967  1.5748
 3240TIP3    H231280   4.437   6.836   0.026  2.4139 -0.2748 -1.6923
 3241TIP3   OH231281   0.419   4.296   0.489 -0.6698  0.0041  0.0413
 3241TIP3    H131282   0.399   4.247   0.409 -2.6923  2.6140 -1.1915
 3241TIP3    H231283   0.433   4.386   0.460 -1.7580  1.1219  2.6415
 3242TIP3   OH231284   1.290   0.466   2.269 -0.5161  0.0910 -0.0890
 3242TIP3    H131285   1.287   0.400   2.199 -1.2306  0.3007 -0.2609
 3242TIP3    H231286   1.308   0.415   2.348  0.3383 -0.1458 -0.4219
 3243TIP3   OH231287   1.147   6.035   0.636  0.2757 -0.4039 -0.4431
 3243TIP3    H131288   1.075   6.097   0.626  1.8462  1.5675 -0.2209
 3243TIP3    H231289   1.105   5.953   0.661 -2.0844 -0.0697 -2.7991
 3244TIP3   OH231290   5.066   1.709   0.753 -0.1912 -0.3545 -0.0764
 3244TIP3    H131291   5.024   1.632   0.714  1.3180 -0.8694 -0.7593
 3244TIP3    H231292   5.157   1.683   0.764  0.3006  1.2698 -0.1315
 3245TIP3   OH231293   3.720   0.965   2.363 -0.1152  0.7861  0.3203
 3245TIP3    H131294   3.706   0.991   2.454  1.1067  2.8879 -0.0319
 3245TIP3    H231295   3.635   0.979   2.321 -0.6611 -0.1152  1.1081
 3246TIP3   OH231296   3.419   5.877   0.459  0.0922 -0.1616 -0.0793
 3246TIP3    H131297   3.429   5.820   0.383  1.1477 -0.1013  0.0014
 3246TIP3    H231298   3.487   5.848   0.520 -0.5199  0.0152  0.7023
 3247TIP3   OH231299   6.515   4.329   2.600 -0.8063  0.2927  0.4775
 3247TIP3    H131300   6.481   4.402   2.548  0.2996  0.3074 -0.2610
 3247TIP3    H231301   6.497   4.354   2.691 -1.8092  0.7625  0.1692
 3248TIP3   OH231302   6.557   1.574   3.123  0.0630 -0.2024 -0.2220
 3248TIP3    H131303   6.577   1.571   3.216 -0.9520 -0.3817 -0.0011
 3248TIP3    H231304   6.582   1.488   3.090  0.3398 -0.1693 -0.1013
 3249TIP3   OH231305   4.708   5.340   1.613 -0.5612  0.3724  0.3174
 3249TIP3    H131306   4.646   5.362   1.544 -0.0203  0.2026 -0.2328
 3249TIP3    H231307   4.659   5.352   1.694 -1.5455 -0.4783 -0.1216
 3250TIP3   OH231308   1.212   0.636   0.378 -0.1195  0.0418 -0.0487
 3250TIP3    H131309   1.198   0.692   0.455  3.9739  1.2138  0.0621
 3250TIP3    H231310   1.250   0.694   0.312  0.1708 -1.7283 -1.5314
 3251TIP3   OH231311   2.232   5.646   8.168 -0.0571 -0.1192  0.2840
 3251TIP3    H131312   2.309   5.691   8.132 -0.2004 -0.1774 -0.0949
 3251TIP3    H231313   2.160   5.671   8.110 -0.3788  0.1410  0.7848
 3252TIP3   OH231314   6.800   1.370   1.899  0.5108 -0.5488  0.8108
 3252TIP3    H131315   6.813   1.336   1.811  1.7508 -0.7883  1.0688
 3252TIP3    H231316   6.728   1.317   1.934  0.9125 -1.3710  0.4120
 3253TIP3   OH231317   0.537   5.317   0.680  0.0688 -0.3194 -0.1697
 3253TIP3    H131318   0.590   5.243   0.707 -2.8125 -2.2567  0.6054
 3253TIP3    H231319   0.507   5.295   0.592  1.2639  1.2206 -1.0116
 3254TIP3   OH231320   6.779   6.786   8.291  0.6476 -0.5883 -0.1625
 3254TIP3    H131321   6.698   6.820   8.328  1.6050  0.3577  1.1598
 3254TIP3    H231322   6.804   6.714   8.350  0.4545 -1.2982 -0.9292
 3255TIP3   OH231323   4.586   6.854   0.331  0.1454  0.5939  0.3125
 3255TIP3    H131324   4.548   6.850   0.243 -0.8686  1.4150  0.7061
 3255TIP3    H231325   4.614   6.764   0.348 -0.6463  0.1947 -0.4138
 3256TIP3   OH231326   4.619   6.379   0.923 -0.3713 -0.0874 -0.2038
 3256TIP3    H131327   4.592   6.441   0.855  0.2780 -1.4030 -1.7420
 3256TIP3    H231328   4.706   6.408   0.949 -0.3425  0.0321 -0.4349
 3257TIP3   OH231329   2.715   0.773   8.218  0.1273 -0.2373  0.0046
 3257TIP3    H131330   2.649   0.796   8.153 -1.3480  0.2439  1.5763
 3257TIP3    H231331   2.671   0.712   8.277  1.3008 -0.4280  0.7263
 3258TIP3   OH231332   0.418   6.681   7.691  0.1872  0.1505  0.4970
 3258TIP3    H131333   0.441   6.591   7.712  1.3636  0.6808  1.6082
 3258TIP3    H231334   0.325   6.678   7.671  0.3861 -1.4584 -0.4000
 3259TIP3   OH231335   4.393   5.459   3.370  0.0064 -0.0007 -0.1615
 3259TIP3    H131336   4.313   5.509   3.388 -1.1292 -0.7723 -2.6059
 3259TIP3    H231337   4.372   5.370   3.398  0.2769 -0.0547 -0.1295
 3260TIP3   OH231338   1.254   1.558   8.483  0.1572 -0.0814 -0.0681
 3260TIP3    H131339   1.169   1.563   8.528 -0.2515 -0.4829 -0.7878
 3260TIP3    H231340   1.239   1.603   8.400  0.6435 -0.1907 -0.2138
 3261TIP3   OH231341   6.055   3.486   0.408 -0.1605  0.2658 -0.1314
 3261TIP3    H131342   6.014   3.492   0.322 -0.2442 -0.2663 -0.1341
 3261TIP3    H231343   5.987   3.511   0.470 -0.8245 -1.5833 -0.0615
 3262TIP3   OH231344   4.531   1.178   8.285 -0.3707 -0.0146 -0.0611
 3262TIP3    H131345   4.519   1.188   8.380 -0.1643  0.4358 -0.0802
 3262TIP3    H231346   4.500   1.260   8.248  1.4311  0.6527 -0.2178
 3263TIP3   OH231347   3.762   6.498   2.050 -0.4350 -0.0216  0.8219
 3263TIP3    H131348   3.681   6.458   2.017 -0.6541 -0.0248  1.3574
 3263TIP3    H231349   3.812   6.424   2.086  0.9853 -0.4822 -1.7527
 3264TIP3   OH231350   1.139   0.949   3.228 -0.1241 -0.4378 -0.1753
 3264TIP3    H131351   1.185   1.031   3.244  1.8454 -1.3634 -0.7760
 3264TIP3    H231352   1.165   0.893   3.301 -0.3236 -0.9888 -0.5219
 3265TIP3   OH231353   4.198   6.389   0.319  0.4083  0.9834 -0.0490
 3265TIP3    H131354   4.261   6.316   0.318  0.9463  1.4506 -0.4061
 3265TIP3    H231355   4.247   6.464   0.285 -0.6578  1.0937 -1.4178
 3266TIP3   OH231356   5.542   1.642   0.532  0.2381 -0.0143  0.2364
 3266TIP3    H131357   5.578   1.709   0.590  1.9790 -0.5135 -0.2218
 3266TIP3    H231358   5.561   1.559   0.576 -1.5020 -0.2726  0.5791
 3267TIP3   OH231359   1.795   1.154   1.910  0.1009 -0.0168 -0.6815
 3267TIP3    H131360   1.815   1.123   1.998 -1.4676  0.2409 -0.2142
 3267TIP3    H231361   1.706   1.123   1.893 -0.6982  2.2844 -1.0596
 3268TIP3   OH231362   2.157   6.644   0.897  0.2666  0.0602  0.2831
 3268TIP3    H131363   2.224   6.711   0.909 -0.8286  0.8347  2.5679
 3268TIP3    H231364   2.082   6.690   0.859  0.4823 -0.5055 -0.8800
 3269TIP3   OH231365   2.382   4.264   1.243 -0.3063  0.2358 -0.0993
 3269TIP3    H131366   2.412   4.350   1.216 -1.2437  0.1803 -1.4163
 3269TIP3    H231367   2.419   4.204   1.178 -0.3391 -0.2431  0.3218
 3270TIP3   OH231368   5.917   1.525   0.347  0.2749 -0.4802  0.0499
 3270TIP3    H131369   5.904   1.611   0.308 -0.2619 -0.3870  0.4178
 3270TIP3    H231370   5.897   1.463   0.277  0.6556 -0.3075 -0.2137
 3271TIP3   OH231371   3.448   2.613   8.433 -0.5757  0.5819  0.3321
 3271TIP3    H131372   3.371   2.563   8.460  0.3346 -1.1205 -0.1332
 3271TIP3    H231373   3.414   2.677   8.371 -1.2971 -2.1171 -2.2763
 3272TIP3   OH231374   4.656   1.512   7.469 -0.6147 -0.5235  0.1528
 3272TIP3    H131375   4.609   1.596   7.463  2.5070  1.5983  2.3013
 3272TIP3    H231376   4.696   1.502   7.383 -1.1705  0.0531 -0.1904
 3273TIP3   OH231377   0.459   1.284   1.649  0.3433  0.3036  0.3138
 3273TIP3    H131378   0.438   1.367   1.605  0.6840  0.4476  0.4189
 3273TIP3    H231379   0.465   1.307   1.742  0.5548  0.1854  0.3300
 3274TIP3   OH231380   0.351   2.702   1.314 -0.0134  0.2835  0.0012
 3274TIP3    H131381   0.407   2.625   1.305  0.1792  0.4357 -0.0906
 3274TIP3    H231382   0.356   2.746   1.229  0.6670  0.9425  0.3784
 3275TIP3   OH231383   2.595   4.276   0.946 -0.0255  0.1051  0.1427
 3275TIP3    H131384   2.524   4.306   0.889  1.0538  0.5103 -1.0493
 3275TIP3    H231385   2.655   4.230   0.887 -0.6472 -2.7934  1.5712
 3276TIP3   OH231386   4.423   4.936   1.980  0.6466 -0.4614 -0.1587
 3276TIP3    H131387   4.477   4.892   2.046  0.6980 -0.9471 -0.5243
 3276TIP3    H231388   4.400   4.868   1.917 -1.9025 -0.7127  0.9174
 3277TIP3   OH231389   3.256   5.125   7.555 -0.3715 -0.0803  0.3254
 3277TIP3    H131390   3.253   5.069   7.632 -0.4847 -0.6769 -0.1086
 3277TIP3    H231391   3.314   5.197   7.580  1.1068 -1.2323  0.3400
 3278TIP3   OH231392   5.426   3.858   8.197 -0.2676  0.4509  0.3777
 3278TIP3    H131393   5.436   3.916   8.120 -1.3693  1.2153  0.7924
 3278TIP3    H231394   5.482   3.898   8.263  0.9729 -0.4121 -0.0998
 3279TIP3   OH231395   1.858   2.014   3.168 -0.2298  0.6311  0.0648
 3279TIP3    H131396   1.820   2.063   3.095 -0.1384  0.7563  0.0986
 3279TIP3    H231397   1.865   2.079   3.238 -2.0487  0.0739  0.8199
 3280TIP3   OH231398   1.655   5.443   8.025  0.0492  0.7567 -0.4640
 3280TIP3    H131399   1.743   5.480   8.031  0.9925 -1.1319 -1.4665
 3280TIP3    H231400   1.645   5.421   7.933  0.1516 -2.5822  0.1926
 3281TIP3   OH231401   3.533   2.702   7.811  0.4301 -0.3113 -0.2183
 3281TIP3    H131402   3.454   2.692   7.758  1.0279 -2.0962 -0.8496
 3281TIP3    H231403   3.597   2.741   7.752  1.1279 -2.3973 -0.9150
 3282TIP3   OH231404   0.892   4.825   8.164  0.6331  0.5483 -0.2483
 3282TIP3    H131405   0.847   4.868   8.091  0.6934  0.4293 -0.3562
 3282TIP3    H231406   0.984   4.825   8.138  0.3460 -2.2519 -1.6127
 3283TIP3   OH231407   5.503   0.010   0.980 -0.0611 -0.0218 -0.1372
 3283TIP3    H131408   5.531  -0.020   1.067  0.9665  1.0442 -0.0709
 3283TIP3    H231409   5.413   0.041   0.994  0.5964  1.5729  0.9554
 3284TIP3   OH231410   6.214   5.310   2.585  0.2805 -0.8471 -0.1106
 3284TIP3    H131411   6.305   5.321   2.555  0.0932 -0.5768 -0.5862
 3284TIP3    H231412   6.191   5.394   2.624 -0.6192 -0.0136 -2.3174
 3285TIP3   OH231413   4.679   1.474   1.220  0.4860  0.2927 -0.2402
 3285TIP3    H131414   4.670   1.398   1.278  0.2362  0.8126  0.4165
 3285TIP3    H231415   4.693   1.436   1.133  0.6659 -0.5018  0.1237
 3286TIP3   OH231416   3.280   6.843   8.252 -0.5888 -0.8349  0.3615
 3286TIP3    H131417   3.260   6.897   8.176  0.4204 -0.6648  0.2042
 3286TIP3    H231418   3.226   6.878   8.322 -0.9293 -0.4786 -0.0796
 3287TIP3   OH231419   0.633   0.063   8.344 -0.2019  0.1792 -0.1497
 3287TIP3    H131420   0.651   0.135   8.404 -0.4676 -0.3184  0.5320
 3287TIP3    H231421   0.538   0.054   8.345 -0.2129  0.1878 -0.6785
 3288TIP3   OH231422   3.984   0.373   0.463  0.0998 -0.3376 -0.0936
 3288TIP3    H131423   4.061   0.330   0.502  1.3012  2.2070  0.5710
 3288TIP3    H231424   3.996   0.465   0.484 -1.4887  0.5861 -2.7978
 3289TIP3   OH231425   6.495   3.754   1.450 -0.4835 -0.0184  0.2055
 3289TIP3    H131426   6.572   3.701   1.467 -0.6041 -0.9960 -1.9215
 3289TIP3    H231427   6.522   3.844   1.468  0.4066 -0.5784  1.7360
 3290TIP3   OH231428   4.855   6.571   8.505 -0.0292  0.3281  0.1170
 3290TIP3    H131429   4.853   6.664   8.527 -0.5385  0.2476  0.4267
 3290TIP3    H231430   4.820   6.527   8.582 -0.9296 -0.0279 -0.4821
 3291TIP3   OH231431   2.020   2.252   8.430  0.0067  0.1777  0.6229
 3291TIP3    H131432   1.983   2.327   8.382 -1.2357  0.7440  2.3758
 3291TIP3    H231433   2.115   2.268   8.428  0.0206  0.1266 -1.6551
 3292TIP3   OH231434   3.989   0.265   0.212  0.2866 -0.5297 -0.0093
 3292TIP3    H131435   3.957   0.314   0.289 -0.7798 -0.7275 -0.3027
 3292TIP3    H231436   4.080   0.246   0.232  0.3997  0.5926  0.6151
 3293TIP3   OH231437   1.141   4.510   1.758  0.2943 -0.2181 -0.0917
 3293TIP3    H131438   1.202   4.549   1.696  1.3205  1.6589  1.9339
 3293TIP3    H231439   1.083   4.582   1.783  0.9891 -0.3968  2.2994
 3294TIP3   OH231440   2.131   0.257   2.919 -0.0710 -0.5258  0.0136
 3294TIP3    H131441   2.100   0.168   2.900  3.3342 -1.9977  0.6111
 3294TIP3    H231442   2.077   0.286   2.992 -0.7309 -2.4588  0.3472
 3295TIP3   OH231443   2.813   5.735   2.373  0.2937  0.3691 -0.1516
 3295TIP3    H131444   2.845   5.819   2.404 -2.0659  0.3712  2.6946
 3295TIP3    H231445   2.792   5.750   2.280  2.2691  2.1141 -0.3885
 3296TIP3   OH231446   1.043   6.742   1.544 -0.3277  0.3798  0.1772
 3296TIP3    H131447   1.097   6.776   1.615 -0.0319 -0.2785  0.2762
 3296TIP3    H231448   1.107   6.705   1.482 -0.7091 -2.5868  1.4025
 3297TIP3   OH231449   5.259   6.910   0.035 -0.5008  0.0188 -0.0116
 3297TIP3    H131450   5.194   6.971   0.001 -1.5477 -0.5600  0.9144
 3297TIP3    H231451   5.213   6.860   0.102 -0.0998 -2.7328 -1.6215
 3298TIP3   OH231452   1.208   4.993   2.190 -0.3705  0.5843 -0.5607
 3298TIP3    H131453   1.175   4.938   2.260  1.6192 -1.3183 -1.0106
 3298TIP3    H231454   1.189   4.944   2.110 -0.7541  1.7303 -1.1934
 3299TIP3   OH231455   0.918   0.832   0.530 -0.0238  0.6099 -0.1394
 3299TIP3    H131456   0.894   0.768   0.463 -2.1409 -0.5094  1.5588
 3299TIP3    H231457   0.903   0.786   0.613  0.5658  2.5881  1.1269
 3300TIP3   OH231458   1.004   5.837   0.773 -0.3040  0.1515  0.5855
 3300TIP3    H131459   0.948   5.806   0.844  1.1306 -1.3455  1.1297
 3300TIP3    H231460   1.001   5.767   0.708  0.6638  0.1916  0.4873
 3301TIP3   OH231461   0.792   3.653   7.279 -0.0788 -0.2610  0.7335
 3301TIP3    H131462   0.867   3.675   7.334  0.3876 -0.4549  0.1863
 3301TIP3    H231463   0.831   3.619   7.198 -0.6185  2.5322 -0.8503
 3302TIP3   OH231464   1.989   6.056   2.737  0.7297 -0.3206 -0.4191
 3302TIP3    H131465   2.043   5.984   2.769  1.0450  0.7871  1.8188
 3302TIP3    H231466   1.899   6.027   2.752  0.8616  0.0856  1.5297
 3303TIP3   OH231467   4.064   6.040   0.621 -0.6499  0.1023  0.6157
 3303TIP3    H131468   4.149   6.021   0.661  0.5946  0.9984 -1.4291
 3303TIP3    H231469   4.079   6.121   0.572 -2.4031 -0.2906 -0.6510
 3304TIP3   OH231470   6.096   0.578   0.084 -0.3821 -0.1549  0.2985
 3304TIP3    H131471   6.057   0.646   0.139 -0.7028  0.2628 -0.4148
 3304TIP3    H231472   6.021   0.532   0.047 -0.1729 -0.4024  0.1821
 3305TIP3   OH231473   2.845   0.892   1.369  0.2186  0.2948  0.5277
 3305TIP3    H131474   2.773   0.914   1.309 -0.6921 -2.5950  0.4218
 3305TIP3    H231475   2.802   0.853   1.444  1.4986  2.2089  2.3661
 3306TIP3   OH231476   1.957   2.733   1.060  0.2481 -0.1619 -0.0315
 3306TIP3    H131477   2.006   2.774   1.131 -0.5796 -1.2711  1.2224
 3306TIP3    H231478   1.924   2.806   1.008  0.7379  0.6838  0.8127
 3307TIP3   OH231479   1.783   4.570   3.371  0.1059 -0.0019  0.2280
 3307TIP3    H131480   1.819   4.623   3.299  0.1439  0.7278  0.7694
 3307TIP3    H231481   1.833   4.489   3.368 -0.7842 -0.5410 -1.3946
 3308TIP3   OH231482   2.675   6.841   0.810  0.1281 -0.1369 -0.4346
 3308TIP3    H131483   2.724   6.851   0.728  0.5295  2.1954  0.0169
 3308TIP3    H231484   2.597   6.895   0.797 -0.2654 -0.4974  0.3878
 3309TIP3   OH231485   2.101   2.928   2.353 -0.3370  0.8574 -0.1430
 3309TIP3    H131486   2.182   2.886   2.323  0.5828  2.5687 -0.1944
 3309TIP3    H231487   2.032   2.885   2.304  0.4860 -0.9445  0.2100
 3310TIP3   OH231488   2.701   0.815   2.827  0.0007  0.5620 -0.3709
 3310TIP3    H131489   2.735   0.798   2.915 -0.5624  0.1513 -0.2272
 3310TIP3    H231490   2.606   0.820   2.839 -0.0936  0.3119 -0.9877
 3311TIP3   OH231491   2.039   2.534   1.393  0.2292 -0.4367  0.1615
 3311TIP3    H131492   1.964   2.592   1.380  0.2909 -0.2310  0.7323
 3311TIP3    H231493   2.008   2.467   1.453 -0.7302 -2.6392 -2.5352
 3312TIP3   OH231494   3.455   1.804   8.027  0.3819 -0.4087  0.1282
 3312TIP3    H131495   3.392   1.873   8.048  0.5794 -0.1672 -0.0536
 3312TIP3    H231496   3.514   1.845   7.963  2.1739  0.1791  2.0443
 3313TIP3   OH231497   4.058   0.964   7.790 -0.4182 -0.6033 -0.1843
 3313TIP3    H131498   4.075   1.055   7.812  0.1358 -0.1356 -2.3590
 3313TIP3    H231499   3.976   0.966   7.741 -1.3950 -1.5545  1.3089
 3314TIP3   OH231500   1.470   2.738   2.943  0.6384 -0.0719  0.6797
 3314TIP3    H131501   1.459   2.817   2.890  1.1358 -0.8619 -0.6525
 3314TIP3    H231502   1.407   2.748   3.014 -0.9012  0.4893 -0.6981
 3315TIP3   OH231503   2.164   5.624   7.719  0.2368  0.0400 -0.5775
 3315TIP3    H131504   2.167   5.666   7.805  0.5413 -0.1637 -0.4870
 3315TIP3    H231505   2.082   5.655   7.680 -1.3713 -2.0949  0.9042
 3316TIP3   OH231506   4.822   6.689   2.187 -0.2343  0.8351 -0.1835
 3316TIP3    H131507   4.763   6.631   2.235 -0.7523  0.3637 -1.3710
 3316TIP3    H231508   4.785   6.776   2.199 -1.0626  0.5693 -0.7340
 3317TIP3   OH231509   4.877   1.620   0.378  0.0708  0.6637  0.0134
 3317TIP3    H131510   4.877   1.675   0.300  2.4336 -1.9360 -2.0353
 3317TIP3    H231511   4.798   1.565   0.368 -0.0389  0.8474 -0.1372
 3318TIP3   OH231512   4.942   1.765   2.186 -0.0106 -0.3082  0.3504
 3318TIP3    H131513   4.936   1.705   2.112 -0.7646 -0.1292  0.2495
 3318TIP3    H231514   5.029   1.805   2.179 -0.8672  1.4326 -1.8009
 3319TIP3   OH231515   5.130   3.396   2.191  0.1331  0.2185 -0.1238
 3319TIP3    H131516   5.061   3.440   2.141  0.7428  0.1227 -1.0772
 3319TIP3    H231517   5.147   3.315   2.143 -0.6853 -0.9068  1.3829
 3320TIP3   OH231518   5.571   1.860   0.723 -0.1363 -0.4224  0.0204
 3320TIP3    H131519   5.530   1.888   0.805  0.5630  0.0605  0.2147
 3320TIP3    H231520   5.539   1.923   0.658 -0.7888 -0.8797 -0.1134
 3321TIP3   OH231521   4.903   2.947   8.417  0.6713  0.2294 -0.0429
 3321TIP3    H131522   4.968   2.877   8.423  0.5569  0.0980 -0.3453
 3321TIP3    H231523   4.948   3.024   8.452  0.8064  0.0139  0.2615
 3322TIP3   OH231524   1.881   3.411   1.592  0.7830 -0.0352 -0.8061
 3322TIP3    H131525   1.901   3.490   1.542  0.6319 -0.2941 -1.2899
 3322TIP3    H231526   1.958   3.355   1.580  0.6885 -0.1530 -0.8653
 3323TIP3   OH231527   2.184   0.999   7.701  0.1369 -0.1518 -0.2028
 3323TIP3    H131528   2.113   1.055   7.671  1.1747 -0.0167 -2.6475
 3323TIP3    H231529   2.147   0.910   7.701 -0.2699  0.0206 -0.5637
 3324TIP3   OH231530   0.717   1.510   2.225  0.5614  0.1028 -0.2308
 3324TIP3    H131531   0.768   1.476   2.299 -0.5526 -0.2024  0.4151
 3324TIP3    H231532   0.666   1.435   2.195  0.8568  0.2728 -1.2053
 3325TIP3   OH231533   5.897   6.398   1.974 -0.0878  0.1356  0.1673
 3325TIP3    H131534   5.853   6.383   1.891 -1.1250 -2.0609  1.0224
 3325TIP3    H231535   5.835   6.448   2.027  0.8921  2.2587 -0.5743
 3326TIP3   OH231536   5.616   4.694   2.503 -0.7406  0.0032  0.0283
 3326TIP3    H131537   5.646   4.782   2.482  0.0433 -0.3273 -0.2764
 3326TIP3    H231538   5.589   4.699   2.595 -0.1315  0.4103  0.1870
 3327TIP3   OH231539   2.081   0.657   2.176 -0.0627  0.5781 -0.3443
 3327TIP3    H131540   2.033   0.712   2.115  1.5555 -0.0494 -2.2716
 3327TIP3    H231541   2.057   0.567   2.152 -1.6132  0.3009  1.8785
 3328TIP3   OH231542   5.569   3.365   8.076 -0.9265 -0.0845  0.1340
 3328TIP3    H131543   5.631   3.342   8.146 -0.2428  0.7184 -0.1914
 3328TIP3    H231544   5.532   3.449   8.103 -3.1153 -1.2704  1.1133
 3329TIP3   OH231545   6.868   0.453   3.136 -0.1323  0.0369  0.1729
 3329TIP3    H131546   6.859   0.389   3.207 -0.4160  0.0851  0.1799
 3329TIP3    H231547   6.809   0.524   3.161  2.5840  1.8733  1.8970
 3330TIP3   OH231548   5.240   2.243   7.485 -0.3866  1.0009 -0.1172
 3330TIP3    H131549   5.292   2.230   7.564 -1.3836  0.8350  0.5319
 3330TIP3    H231550   5.269   2.175   7.425 -0.2842  0.5314  0.4616
 3331TIP3   OH231551   6.294   3.055   7.879  0.4992  0.1920 -0.1874
 3331TIP3    H131552   6.318   3.148   7.871  0.5416  0.2505  0.5249
 3331TIP3    H231553   6.367   3.008   7.840  0.3920  0.4584 -0.7260
 3332TIP3   OH231554   0.578   1.868   0.707  0.0558  0.0141  0.2274
 3332TIP3    H131555   0.545   1.916   0.631  0.4936 -0.3184 -0.1836
 3332TIP3    H231556   0.583   1.777   0.677  1.2595  0.0378  0.2880
 3333TIP3   OH231557   5.933   0.508   2.587 -0.5745 -0.1748  0.1629
 3333TIP3    H131558   5.888   0.443   2.640 -0.9049  0.4058  0.6079
 3333TIP3    H231559   5.996   0.458   2.535 -0.4595 -0.7840  0.8777
 3334TIP3   OH231560   2.327   4.619   0.723 -0.1434 -0.0764 -0.3801
 3334TIP3    H131561   2.407   4.626   0.671  1.3410 -1.5218  1.5364
 3334TIP3    H231562   2.330   4.694   0.783 -1.0990  0.7693 -1.3508
 3335TIP3   OH231563   3.384   5.356   0.796  0.1196  0.3688  0.8639
 3335TIP3    H131564   3.437   5.306   0.733 -1.7682  0.6754 -1.1049
 3335TIP3    H231565   3.347   5.289   0.854 -0.9758 -0.4209 -0.6526
 3336TIP3   OH231566   2.415   4.565   8.337  0.1177  0.0558 -0.2313
 3336TIP3    H131567   2.368   4.551   8.255 -0.0642  0.8820 -0.2690
 3336TIP3    H231568   2.409   4.659   8.353 -0.2869 -0.1581  0.9908
 3337TIP3   OH231569   6.543   1.250   1.542  0.0623  0.4364 -0.1698
 3337TIP3    H131570   6.529   1.233   1.449  0.6903 -0.0163 -0.1927
 3337TIP3    H231571   6.471   1.205   1.586  0.0006  0.2935 -0.4147
 3338TIP3   OH231572   2.934   3.926   8.554  0.0142 -0.2839 -0.5529
 3338TIP3    H131573   2.923   3.857   8.619 -0.6835 -0.3590 -0.7443
 3338TIP3    H231574   2.846   3.944   8.522  0.2758  0.1804 -1.0418
 3339TIP3   OH231575   2.758   5.398   2.721 -0.0410  0.1555  0.2365
 3339TIP3    H131576   2.759   5.304   2.705 -1.8007  0.2544 -0.7228
 3339TIP3    H231577   2.820   5.434   2.658 -0.5793 -0.2335 -0.5287
 3340TIP3   OH231578   0.671   6.145   0.039  0.0904 -0.2633  0.1003
 3340TIP3    H131579   0.584   6.119   0.009  0.5132 -0.4786 -0.9847
 3340TIP3    H231580   0.704   6.070   0.088 -0.3157 -0.2012  0.4660
 3341TIP3   OH231581   3.205   2.033   2.967 -0.6887  0.7074 -0.2669
 3341TIP3    H131582   3.163   2.000   3.046 -3.0665  1.9514 -0.9405
 3341TIP3    H231583   3.271   2.095   2.999 -1.9496  1.5612  0.7436
 3342TIP3   OH231584   5.521   0.901   1.440 -0.4155 -0.0836  0.0089
 3342TIP3    H131585   5.597   0.857   1.402 -1.1337 -1.8847  0.5185
 3342TIP3    H231586   5.489   0.959   1.371  0.1257 -0.9744 -1.0112
 3343TIP3   OH231587   4.538   5.887   7.529 -0.7230 -0.3075  0.4384
 3343TIP3    H131588   4.456   5.935   7.543 -0.5537 -0.2267  1.2446
 3343TIP3    H231589   4.604   5.940   7.575  0.0694  0.4271 -1.4497
 3344TIP3   OH231590   3.185   3.199   3.018 -0.2039  0.1636 -0.2919
 3344TIP3    H131591   3.105   3.250   3.011  1.0914  2.1295 -1.8419
 3344TIP3    H231592   3.225   3.227   3.100 -1.0101 -0.7415  0.4291
 3345TIP3   OH231593   1.641   4.782   1.456 -0.1447  0.5083 -0.1433
 3345TIP3    H131594   1.601   4.754   1.539  1.3033 -0.6724  0.1785
 3345TIP3    H231595   1.715   4.836   1.483  1.3934 -1.2960 -0.5757
 3346TIP3   OH231596   2.409   5.088   8.217 -0.4271  0.7052  0.7030
 3346TIP3    H131597   2.412   5.076   8.122 -0.8375 -0.6919  0.8362
 3346TIP3    H231598   2.346   5.159   8.230 -2.8435 -1.1451  0.0010
 3347TIP3   OH231599   3.794   1.079   7.731  0.1828 -0.7511  0.1995
 3347TIP3    H131600   3.755   1.135   7.798 -0.7308  0.8797 -1.6042
 3347TIP3    H231601   3.722   1.024   7.700 -0.1008  0.3690 -1.2451
 3348TIP3   OH231602   0.835   5.517   1.411  0.1443 -0.1369  0.6533
 3348TIP3    H131603   0.770   5.468   1.461  0.9304 -0.2069  1.6454
 3348TIP3    H231604   0.797   5.605   1.402 -0.4670 -0.4176  0.4481
 3349TIP3   OH231605   6.371   1.504   1.475  0.1920  0.0772  0.1817
 3349TIP3    H131606   6.399   1.484   1.386 -0.8578 -0.6022 -0.0185
 3349TIP3    H231607   6.451   1.507   1.526  0.6646 -1.3295 -0.4467
 3350TIP3   OH231608   3.620   1.212   2.264  0.6583  0.1814  0.1654
 3350TIP3    H131609   3.714   1.197   2.251  0.7656  1.7852 -1.2848
 3350TIP3    H231610   3.578   1.139   2.218  1.1985  0.3094 -0.5580
 3351TIP3   OH231611   6.293   5.862   0.265  0.3849 -0.0732 -0.6331
 3351TIP3    H131612   6.246   5.860   0.348 -1.3446 -0.8052 -1.5857
 3351TIP3    H231613   6.342   5.780   0.262  0.9756  0.2489 -0.0738
 3352TIP3   OH231614   4.971   3.968   2.749  0.3607  0.1717  0.2859
 3352TIP3    H131615   4.948   4.060   2.761 -1.4076 -0.2256  0.2902
 3352TIP3    H231616   5.046   3.954   2.806  0.7671  1.6490  0.1461
 3353TIP3   OH231617   3.725   3.074   0.591 -0.5206 -0.4202  0.2250
 3353TIP3    H131618   3.719   3.056   0.685 -2.7531 -0.2138  0.1897
 3353TIP3    H231619   3.651   3.027   0.553 -1.0522  1.3639 -1.0886
 3354TIP3   OH231620   5.725   3.314   2.452  0.4192  0.7749  0.1729
 3354TIP3    H131621   5.755   3.273   2.371  0.4493  2.8048 -0.9164
 3354TIP3    H231622   5.651   3.260   2.480 -1.1010  1.2701 -2.4930
 3355TIP3   OH231623   0.527   1.213   2.590 -0.0627 -0.4952 -0.0477
 3355TIP3    H131624   0.621   1.210   2.573 -0.3424 -0.5874 -1.8267
 3355TIP3    H231625   0.514   1.294   2.639  0.8925 -0.2741 -0.1264
 3356TIP3   OH231626   6.231   5.163   0.203 -1.1442 -0.0189  0.1849
 3356TIP3    H131627   6.199   5.240   0.249 -1.6779 -0.5659  0.7577
 3356TIP3    H231628   6.218   5.182   0.110 -2.4439  0.0745  0.3760
 3357TIP3   OH231629   2.470   5.838   2.541 -0.3048  0.8196  0.2207
 3357TIP3    H131630   2.547   5.893   2.556  1.3031 -1.2336 -0.1162
 3357TIP3    H231631   2.457   5.839   2.446 -0.0911  0.3827  0.1865
 3358TIP3   OH231632   5.993   3.472   1.643  0.1118  0.0332 -0.2051
 3358TIP3    H131633   5.994   3.566   1.626 -0.4522  0.2116  0.7034
 3358TIP3    H231634   5.976   3.433   1.557  0.6793  0.7378 -0.6500
 3359TIP3   OH231635   0.692   5.751   2.193 -0.2557  0.1683  0.8261
 3359TIP3    H131636   0.644   5.822   2.151 -0.3865 -0.2167  0.3143
 3359TIP3    H231637   0.771   5.792   2.228  0.1893  0.3863 -0.3787
 3360TIP3   OH231638   0.299   1.583   0.616 -0.3396  0.0911  0.5218
 3360TIP3    H131639   0.292   1.508   0.557 -0.0590  0.4158  0.0691
 3360TIP3    H231640   0.393   1.599   0.623 -0.4459  1.6096 -0.9411
 3361TIP3   OH231641   1.123   5.791   8.361  0.5615  0.7745  0.8836
 3361TIP3    H131642   1.177   5.784   8.439  0.1867  0.8164  1.1501
 3361TIP3    H231643   1.040   5.751   8.386  0.3168  1.1159  0.6253
 3362TIP3   OH231644   5.764   0.659   1.866 -0.0150  0.3200  0.4653
 3362TIP3    H131645   5.823   0.699   1.929  0.8841 -0.9145  0.4399
 3362TIP3    H231646   5.755   0.568   1.895 -0.7998  0.1254 -0.3261
 3363TIP3   OH231647   6.042   4.921   8.307 -0.2530  0.1560 -0.1592
 3363TIP3    H131648   6.068   4.901   8.397 -1.2346  0.4517  0.1984
 3363TIP3    H231649   5.972   4.859   8.288  0.0637 -0.0221 -0.7915
 3364TIP3   OH231650   4.059   3.079   2.177 -0.4246  0.0601  0.6279
 3364TIP3    H131651   4.040   2.986   2.191  0.7381 -0.1338  1.0556
 3364TIP3    H231652   4.082   3.112   2.264  2.0449  0.0297  0.0562
 3365TIP3   OH231653   3.045   0.778   0.982 -0.2441  0.5709 -0.1710
 3365TIP3    H131654   3.042   0.682   0.985 -1.9143  0.6117  0.0655
 3365TIP3    H231655   3.099   0.802   1.058  2.3102 -0.2138 -1.6220
 3366TIP3   OH231656   6.768   6.505   1.853  0.5674  0.0524  0.9776
 3366TIP3    H131657   6.754   6.465   1.768 -0.5885 -0.4550  1.3766
 3366TIP3    H231658   6.862   6.500   1.868  0.8302  0.5108 -0.4322
 3367TIP3   OH231659   1.392   2.678   3.614 -0.2949  0.1924  0.3401
 3367TIP3    H131660   1.323   2.730   3.572 -0.0219  0.2785 -0.0043
 3367TIP3    H231661   1.469   2.736   3.613  0.3138 -0.6013 -1.0273
 3368TIP3   OH231662   2.694   5.714   1.466 -1.2447 -0.5637 -0.1361
 3368TIP3    H131663   2.679   5.686   1.376  0.4742  0.1524 -0.7068
 3368TIP3    H231664   2.671   5.639   1.520  1.5317 -2.5397 -1.4727
 3369TIP3   OH231665   6.832   1.966   3.015 -0.4341 -0.4253  1.3614
 3369TIP3    H131666   6.872   1.957   2.928 -1.7358 -0.3727  0.7372
 3369TIP3    H231667   6.743   1.935   3.003 -1.0587  0.9217  2.3503
 3370TIP3   OH231668   1.654   3.524   3.171 -0.7286 -0.4985 -0.0483
 3370TIP3    H131669   1.700   3.442   3.153  0.0563  0.4779 -2.9641
 3370TIP3    H231670   1.719   3.579   3.216  0.6382  0.3519 -2.8572
 3371TIP3   OH231671   2.973   1.868   0.725  0.2928 -0.1695  0.3058
 3371TIP3    H131672   2.946   1.824   0.644 -0.6212 -1.0185  1.0533
 3371TIP3    H231673   3.053   1.914   0.701 -0.2640  0.0643 -1.2410
 3372TIP3   OH231674   3.788   3.902   8.202  0.6216  0.2610 -0.4212
 3372TIP3    H131675   3.786   3.856   8.118  0.9267  0.9961 -0.8471
 3372TIP3    H231676   3.764   3.992   8.180 -0.8875  0.1196  0.5270
 3373TIP3   OH231677   4.906   5.255   1.452 -0.0528 -0.0702  0.6953
 3373TIP3    H131678   4.824   5.280   1.494  0.0370  0.8305  0.3607
 3373TIP3    H231679   4.972   5.307   1.498  0.2725 -0.4483  0.6543
 3374TIP3   OH231680   1.673   3.161   8.316 -0.0370  0.0937  0.0732
 3374TIP3    H131681   1.675   3.164   8.411 -0.8629  0.7353  0.0911
 3374TIP3    H231682   1.586   3.194   8.293  1.1383  2.7616 -0.9718
 3375TIP3   OH231683   4.152   1.030   1.719 -0.1913 -0.3484  0.2011
 3375TIP3    H131684   4.234   0.980   1.723 -0.3199 -0.7626 -1.7415
 3375TIP3    H231685   4.112   1.016   1.805  1.8810  0.0861  1.2948
 3376TIP3   OH231686   2.676   3.447   2.791 -0.4415 -0.0900 -0.3620
 3376TIP3    H131687   2.694   3.491   2.708  0.1076 -0.0442 -0.2252
 3376TIP3    H231688   2.680   3.354   2.770 -3.2113 -0.1470 -1.0006
 3377TIP3   OH231689   1.145   0.671   7.505  0.2137  0.0056  0.1070
 3377TIP3    H131690   1.182   0.604   7.449 -0.9304 -2.0148  1.6463
 3377TIP3    H231691   1.147   0.633   7.593 -2.1093  1.2422  0.7679
 3378TIP3   OH231692   2.607   1.790   1.517 -0.5576  0.0001 -0.4482
 3378TIP3    H131693   2.662   1.712   1.514 -0.4287  0.1200 -1.5552
 3378TIP3    H231694   2.668   1.863   1.507 -0.7357  0.2227  0.0547
 3379TIP3   OH231695   3.617   4.534   0.895 -0.2395 -0.2217  0.1739
 3379TIP3    H131696   3.534   4.526   0.848 -0.6287 -1.1356  0.9720
 3379TIP3    H231697   3.622   4.455   0.949  3.5400 -2.8811 -3.4488
 3380TIP3   OH231698   4.648   5.156   2.250 -0.4658 -0.5521 -0.4158
 3380TIP3    H131699   4.556   5.161   2.227 -0.9240 -0.6097  1.2694
 3380TIP3    H231700   4.665   5.062   2.264 -0.5198 -0.4315  0.5623
 3381TIP3   OH231701   3.715   6.771   1.992  0.0741  0.2927 -0.0063
 3381TIP3    H131702   3.635   6.743   1.947 -0.9927  2.4877  0.4045
 3381TIP3    H231703   3.744   6.693   2.039  0.1103 -1.5256 -2.7987
 3382TIP3   OH231704   5.797   1.381   1.804 -0.3242 -0.0113 -0.0775
 3382TIP3    H131705   5.805   1.351   1.713  3.5563 -0.6788  0.3383
 3382TIP3    H231706   5.750   1.310   1.848  1.3294 -1.6360 -0.8058
 3383TIP3   OH231707   4.834   3.894   1.327  0.4398  0.3217  0.2638
 3383TIP3    H131708   4.839   3.857   1.239 -0.4469  0.7854  0.0007
 3383TIP3    H231709   4.790   3.978   1.314 -1.5625 -0.4862  1.3954
 3384TIP3   OH231710   3.111   5.852   2.364 -0.1002  0.2185 -0.3430
 3384TIP3    H131711   3.047   5.804   2.417  1.1614 -0.5378  0.5411
 3384TIP3    H231712   3.063   5.928   2.331 -1.1530  0.2410  1.1721
 3385TIP3   OH231713   3.333   0.470   3.399  0.7869  0.0164 -0.5610
 3385TIP3    H131714   3.306   0.561   3.388  0.4513 -0.1134 -0.8473
 3385TIP3    H231715   3.276   0.437   3.469  2.4443  0.6448  1.1751
 3386TIP3   OH231716   5.709   2.174   2.191  0.2013  0.0965 -0.6570
 3386TIP3    H131717   5.619   2.160   2.162  0.3710 -0.2827 -1.0224
 3386TIP3    H231718   5.703   2.240   2.260 -0.1552  1.4970 -1.9719
 3387TIP3   OH231719   3.920   6.268   0.391  0.0042 -0.3912  0.0077
 3387TIP3    H131720   4.011   6.285   0.415  0.0941 -0.6466 -0.1443
 3387TIP3    H231721   3.902   6.330   0.321 -0.2533  0.3446  0.7010
 3388TIP3   OH231722   1.660   6.876   8.454 -0.1023 -0.2312  0.1021
 3388TIP3    H131723   1.617   6.945   8.404  1.3359  0.3701 -0.3848
 3388TIP3    H231724   1.663   6.802   8.394  1.2434  0.3557 -0.6226
 3389TIP3   OH231725   0.640   4.838   0.259  1.0616 -0.1718 -0.1969
 3389TIP3    H131726   0.561   4.892   0.249  1.0957 -0.1233 -0.2069
 3389TIP3    H231727   0.669   4.823   0.169  0.7368 -0.6750 -0.2210
 3390TIP3   OH231728   0.563   0.454   1.344  0.0370 -0.0482  0.5346
 3390TIP3    H131729   0.562   0.548   1.361  2.2196 -0.0013  0.6531
 3390TIP3    H231730   0.617   0.444   1.265 -1.2628 -1.1187 -0.2681
 3391TIP3   OH231731   3.073   4.407   0.816  0.1512  0.2063 -0.4579
 3391TIP3    H131732   3.151   4.382   0.766  1.4076  0.7124  1.1743
 3391TIP3    H231733   3.052   4.329   0.867 -1.0054 -0.2412 -1.5730
 3392TIP3   OH231734   5.913   3.328   8.508 -0.0521  0.2568  0.5753
 3392TIP3    H131735   5.954   3.261   8.453 -0.6369  1.4930 -1.4859
 3392TIP3    H231736   5.819   3.317   8.494 -0.2035  0.7900  1.1054
 3393TIP3   OH231737   2.915   0.342   7.797  0.2088 -0.6310  0.5925
 3393TIP3    H131738   2.939   0.266   7.743  0.6706 -0.7870  1.0161
 3393TIP3    H231739   2.819   0.341   7.796  0.1995 -1.4568  0.9053
 3394TIP3   OH231740   1.510   4.574   3.425 -0.5610  0.3984 -0.3804
 3394TIP3    H131741   1.606   4.571   3.428 -0.5762 -1.3640 -0.9514
 3394TIP3    H231742   1.486   4.630   3.499  0.9800  3.2730 -1.8468
 3395TIP3   OH231743   2.909   4.140   1.199  0.1719  0.7228 -0.0730
 3395TIP3    H131744   2.825   4.186   1.194  0.6844  1.7696  0.5956
 3395TIP3    H231745   2.908   4.098   1.285 -0.8907 -1.7860 -1.2203
 3396TIP3   OH231746   0.055   5.761   2.455  0.3078  0.4182 -0.1486
 3396TIP3    H131747   0.115   5.825   2.492 -0.3047  1.0781 -0.2866
 3396TIP3    H231748   0.075   5.679   2.501  1.6707  0.4947 -0.5651
 3397TIP3   OH231749   3.883   4.657   1.454  0.4452 -0.3056 -0.1375
 3397TIP3    H131750   3.907   4.595   1.524  0.0236  1.5007  1.7160
 3397TIP3    H231751   3.800   4.624   1.420  1.3561 -2.0062 -0.8331
 3398TIP3   OH231752   4.448   2.463   2.553  0.7206  0.3630  0.2041
 3398TIP3    H131753   4.423   2.473   2.461 -2.1748  1.6453  1.0338
 3398TIP3    H231754   4.434   2.550   2.591 -0.7029 -0.7553  2.3960
 3399TIP3   OH231755   3.888   2.778   8.358  0.0845 -0.2705  0.1022
 3399TIP3    H131756   3.865   2.687   8.379  3.3977 -0.8139  2.0130
 3399TIP3    H231757   3.876   2.825   8.441 -0.3180  0.7645 -0.5292
 3400TIP3   OH231758   0.413   5.635   0.995  0.6083  0.1258  0.4650
 3400TIP3    H131759   0.426   5.641   1.089 -1.1255  0.4550  0.7084
 3400TIP3    H231760   0.395   5.725   0.967  0.5116 -0.0592 -0.0775
 3401TIP3   OH231761   0.930   0.441   1.131  0.6853 -0.4849 -0.1618
 3401TIP3    H131762   0.942   0.353   1.095  1.7104 -0.1630 -0.6482
 3401TIP3    H231763   0.850   0.473   1.089 -1.0902 -2.0243  1.7896
 3402TIP3   OH231764   3.089   0.731   8.557 -0.1899  0.3488  0.0994
 3402TIP3    H131765   3.104   0.701   8.647 -0.9362  1.0066  0.4557
 3402TIP3    H231766   2.999   0.764   8.558 -0.9742 -1.5808 -1.4203
 3403TIP3   OH231767   6.160   5.449   0.215  0.0840  0.3348  0.6742
 3403TIP3    H131768   6.221   5.507   0.261 -0.5665  0.9142  0.8323
 3403TIP3    H231769   6.199   5.437   0.128  0.4813  0.6089  0.8130
 3404TIP3   OH231770   1.276   0.372   1.622 -0.4421 -0.1238  0.6188
 3404TIP3    H131771   1.242   0.291   1.584  0.5413 -0.9679  1.4545
 3404TIP3    H231772   1.218   0.441   1.590 -3.1646 -1.4897  2.2236
 3405TIP3   OH231773   4.038   6.080   8.140 -0.3505  0.3752 -0.0627
 3405TIP3    H131774   4.095   6.012   8.106  0.6418  1.5546 -0.8434
 3405TIP3    H231775   3.972   6.033   8.191  1.0638 -1.0685  0.5289
 3406TIP3   OH231776   0.049   0.105   2.552 -0.1996 -0.2942  0.4721
 3406TIP3    H131777   0.037   0.039   2.621 -1.0029  0.0342  0.6621
 3406TIP3    H231778   0.129   0.079   2.508  0.1866 -0.6733  1.3596
 3407TIP3   OH231779   5.269   0.221   0.853 -0.8350 -0.0663  0.6022
 3407TIP3    H131780   5.200   0.288   0.856  0.2652  1.1846 -0.6105
 3407TIP3    H231781   5.262   0.185   0.764  0.1984  0.2072  0.4078
 3408TIP3   OH231782   2.832   2.817   1.131  0.7121  0.4971 -0.2883
 3408TIP3    H131783   2.919   2.789   1.157  0.5304 -0.6910 -0.9022
 3408TIP3    H231784   2.784   2.825   1.214  1.0954  0.0926 -0.0226
 3409TIP3   OH231785   0.224   4.269   0.269  0.7378  0.1067 -0.2774
 3409TIP3    H131786   0.158   4.331   0.300  1.6817  0.6132  0.7906
 3409TIP3    H231787   0.279   4.320   0.209  0.8310 -0.0081 -0.2911
 3410TIP3   OH231788   5.469   1.509   0.304  0.0350 -0.2033 -0.0428
 3410TIP3    H131789   5.467   1.555   0.388 -0.7795 -0.2134 -0.0474
 3410TIP3    H231790   5.379   1.476   0.292  0.4457 -1.2687 -0.3257
 3411TIP3   OH231791   6.469   3.701   1.152 -0.1009  0.0467 -0.0409
 3411TIP3    H131792   6.402   3.759   1.116 -0.0635  0.2230  0.1694
 3411TIP3    H231793   6.448   3.695   1.245 -0.3395 -0.6001 -0.1368
 3412TIP3   OH231794   5.294   2.974   2.904 -0.0921  0.1701 -0.2256
 3412TIP3    H131795   5.383   3.001   2.927  0.7231 -2.2512 -0.2418
 3412TIP3    H231796   5.241   3.000   2.979  0.9104  0.2830  0.4657
 3413TIP3   OH231797   2.203   0.523   0.153 -0.4621 -0.3133  0.6118
 3413TIP3    H131798   2.186   0.595   0.215  1.3632  0.6220  0.1019
 3413TIP3    H231799   2.190   0.562   0.067 -2.6384 -1.5199  0.3307
 3414TIP3   OH231800   6.514   3.028   2.607 -0.0163 -0.5519 -0.1556
 3414TIP3    H131801   6.461   3.088   2.555 -0.1369 -0.3127  0.2384
 3414TIP3    H231802   6.604   3.044   2.578 -0.1195 -0.7025 -0.5674
 3415TIP3   OH231803   1.201   1.217   7.589 -0.4793  0.5818 -0.1822
 3415TIP3    H131804   1.193   1.284   7.522  0.0299  1.1192  0.2839
 3415TIP3    H231805   1.289   1.228   7.624 -0.8482  0.5407  0.8018
 3416TIP3   OH231806   4.138   4.637   2.960 -0.5189  0.7642 -0.2297
 3416TIP3    H131807   4.081   4.593   3.024  0.3690 -1.0026 -0.6205
 3416TIP3    H231808   4.151   4.724   2.997 -1.9865  0.6013  0.7773
 3417TIP3   OH231809   4.945   5.044   8.030  0.0347  0.1867  0.6279
 3417TIP3    H131810   5.039   5.057   8.026 -0.1907  1.7555 -1.5924
 3417TIP3    H231811   4.921   5.010   7.943 -1.6772  1.9996  0.3125
 3418TIP3   OH231812   1.890   5.421   1.431  0.4144  0.3288 -0.0694
 3418TIP3    H131813   1.818   5.364   1.458  1.8800 -2.3999 -1.5208
 3418TIP3    H231814   1.959   5.405   1.496  1.1046 -0.2137 -0.9065
 3419TIP3   OH231815   2.086   6.572   8.561 -0.2454  0.1354 -0.0386
 3419TIP3    H131816   2.119   6.487   8.535  2.1388  0.0631  2.7245
 3419TIP3    H231817   2.142   6.635   8.516 -0.5240  0.2026 -0.2971
 3420TIP3   OH231818   3.511   2.433   0.480 -0.2535  0.3750  0.0028
 3420TIP3    H131819   3.536   2.364   0.418  2.4089  1.3358 -0.1070
 3420TIP3    H231820   3.460   2.495   0.428 -1.4637 -0.7512 -0.2216
 3421TIP3   OH231821   2.475   4.186   8.311  0.5563 -0.1953 -0.1142
 3421TIP3    H131822   2.541   4.129   8.271  1.8297 -1.2231  3.1188
 3421TIP3    H231823   2.396   4.169   8.260  1.6293 -2.5755 -1.1943
 3422TIP3   OH231824   2.588   0.311   8.508  0.0770 -0.5769 -0.0641
 3422TIP3    H131825   2.533   0.239   8.477  1.6832 -1.7845 -0.2387
 3422TIP3    H231826   2.664   0.268   8.548  0.1817  1.0009  1.5813
 3423TIP3   OH231827   0.490   2.091   8.130  0.3184 -0.3387  0.1630
 3423TIP3    H131828   0.481   2.160   8.195 -0.4385 -2.0229  1.9519
 3423TIP3    H231829   0.413   2.100   8.074  0.4682  0.5164  0.0809
 3424TIP3   OH231830   0.119   4.318   0.006  0.0110  0.8513  0.0205
 3424TIP3    H131831   0.104   4.412  -0.005 -3.1134  0.3793 -0.6032
 3424TIP3    H231832   0.058   4.292   0.075  2.4310 -0.4045  1.8291
 3425TIP3   OH231833   4.041   6.563   2.660 -0.0211  0.1689  0.6377
 3425TIP3    H131834   4.034   6.635   2.723  0.7216  0.4353  0.4257
 3425TIP3    H231835   4.111   6.508   2.695 -1.2801 -1.0517  1.3701
 3426TIP3   OH231836   2.582   1.896   0.991  0.5376  0.0401  0.2471
 3426TIP3    H131837   2.564   1.908   1.084 -0.4390  2.2749 -0.1727
 3426TIP3    H231838   2.678   1.899   0.985  0.5680  2.2616  0.9643
 3427TIP3   OH231839   5.633   4.471   1.095  0.0977 -0.0189 -0.1450
 3427TIP3    H131840   5.640   4.478   0.999 -2.6245  2.9971 -0.2926
 3427TIP3    H231841   5.692   4.539   1.128 -0.6508  0.4803  0.1816
 3428TIP3   OH231842   5.133   1.355   2.193 -0.2084  0.2660 -0.7388
 3428TIP3    H131843   5.140   1.357   2.097 -0.1190  0.8599 -0.7260
 3428TIP3    H231844   5.039   1.350   2.210 -0.2354  0.3430 -0.8606
 3429TIP3   OH231845   4.404   0.852   0.889 -0.0215 -0.1754  0.2773
 3429TIP3    H131846   4.491   0.882   0.864  1.3137 -1.5749  2.7527
 3429TIP3    H231847   4.397   0.764   0.851  0.5567 -0.8805  1.7117
 3430TIP3   OH231848   6.007   5.776   0.751  0.4141  0.2888  0.2434
 3430TIP3    H131849   5.969   5.708   0.807 -0.3352  1.6964  1.5251
 3430TIP3    H231850   5.941   5.844   0.748  0.8232  0.6454 -1.6761
 3431TIP3   OH231851   1.880   6.837   1.212 -0.5248  0.3171 -0.0119
 3431TIP3    H131852   1.881   6.795   1.298 -0.5453  0.8052  0.2301
 3431TIP3    H231853   1.899   6.930   1.230 -0.5571  0.4283 -0.5283
 3432TIP3   OH231854   4.318   5.278   8.109 -0.6479  0.1263  0.1529
 3432TIP3    H131855   4.393   5.230   8.144 -1.2605 -0.0803  1.2336
 3432TIP3    H231856   4.267   5.212   8.062 -1.0525 -0.1245  0.9221
 3433TIP3   OH231857   3.837   6.484   0.581  0.1538  0.0925  0.0126
 3433TIP3    H131858   3.743   6.490   0.566  0.1680 -1.2015 -0.7791
 3433TIP3    H231859   3.870   6.434   0.506  1.4711  0.5468  0.2729
 3434TIP3   OH231860   5.421   3.605   7.263  0.0520  0.3445 -0.1017
 3434TIP3    H131861   5.329   3.578   7.260 -0.2633  1.4533 -0.9420
 3434TIP3    H231862   5.418   3.700   7.273  1.1160  0.3609  0.1641
 3435TIP3   OH231863   1.224   1.061   0.399 -0.7281  0.1104  0.3626
 3435TIP3    H131864   1.193   1.010   0.474 -3.0851 -1.2308 -1.3761
 3435TIP3    H231865   1.268   0.996   0.343 -1.5937  0.4516 -0.7465
 3436TIP3   OH231866   3.514   4.826   0.742 -0.2442  0.3553  0.3561
 3436TIP3    H131867   3.541   4.808   0.832 -0.5892  1.1806  0.6325
 3436TIP3    H231868   3.472   4.912   0.746 -0.2083  0.4310 -0.6053
 3437TIP3   OH231869   6.431   2.988   1.136  0.2418 -0.1668 -0.0570
 3437TIP3    H131870   6.470   2.922   1.079 -1.0995 -2.6600  1.7267
 3437TIP3    H231871   6.499   3.009   1.199  0.6711  0.2075 -0.6277
 3438TIP3   OH231872   4.815   5.356   8.549  0.4365  0.4089  0.2960
 3438TIP3    H131873   4.744   5.349   8.613 -0.6032  1.8405 -0.6471
 3438TIP3    H231874   4.786   5.303   8.474  1.4698 -0.9363  0.8012
 3439TIP3   OH231875   0.230   1.926   2.670  0.2940 -1.0423  0.2797
 3439TIP3    H131876   0.298   1.912   2.737  0.6761 -0.4370  0.0253
 3439TIP3    H231877   0.273   1.903   2.588  0.9404  1.4382 -0.1618
 3440TIP3   OH231878   2.951   0.325   0.536  0.1475 -0.3604 -0.7167
 3440TIP3    H131879   2.921   0.310   0.626  2.8603 -0.6445  0.2227
 3440TIP3    H231880   2.907   0.257   0.485  0.7802 -2.0839  0.9235
 3441TIP3   OH231881   4.888   3.415   0.526 -0.2106  0.4926  0.3370
 3441TIP3    H131882   4.837   3.493   0.545 -1.4485 -0.5902  1.7932
 3441TIP3    H231883   4.828   3.357   0.479  0.1471 -0.1908  0.6981
 3442TIP3   OH231884   5.229   2.009   0.856 -0.2502  0.6246  0.3511
 3442TIP3    H131885   5.225   1.949   0.930  1.5415  0.2919  0.2175
 3442TIP3    H231886   5.162   2.075   0.875  0.9322  1.2087  2.8928
 3443TIP3   OH231887   0.638   0.204   1.094  0.4974  0.1857 -0.0098
 3443TIP3    H131888   0.623   0.142   1.022 -0.4065 -0.4911  0.7475
 3443TIP3    H231889   0.615   0.289   1.057 -3.1828 -0.4978  0.3785
 3444TIP3   OH231890   0.723   6.895   2.224 -0.1060 -0.1099  0.1101
 3444TIP3    H131891   0.737   6.835   2.297  1.4824  0.9847  0.7671
 3444TIP3    H231892   0.803   6.888   2.171  0.0277  1.2129  0.0850
 3445TIP3   OH231893   5.311   5.356   0.997  0.7141 -0.3147  0.4702
 3445TIP3    H131894   5.289   5.305   1.076 -0.1859 -0.3031  0.2334
 3445TIP3    H231895   5.328   5.289   0.930 -0.8974 -0.3296  0.0421
 3446TIP3   OH231896   2.995   5.620   2.883  0.5048 -0.7011 -0.5038
 3446TIP3    H131897   2.992   5.525   2.893  0.1162 -0.6835 -0.4203
 3446TIP3    H231898   2.904   5.645   2.866  0.7436 -0.4375 -1.4591
 3447TIP3   OH231899   2.116   4.814   0.413 -0.2163 -0.3987 -0.2347
 3447TIP3    H131900   2.122   4.859   0.329 -0.0645 -1.7869 -0.9974
 3447TIP3    H231901   2.187   4.851   0.465 -0.2950  0.4666 -0.7216
 3448TIP3   OH231902   3.116   4.347   1.696  0.7099 -0.1097  0.2352
 3448TIP3    H131903   3.047   4.388   1.645  0.5189  1.8827  1.9464
 3448TIP3    H231904   3.105   4.253   1.681 -0.1323  0.3283 -2.2600
 3449TIP3   OH231905   4.386   6.685   2.655  0.3620 -0.2990  0.0189
 3449TIP3    H131906   4.356   6.771   2.685  2.1494  0.2147  0.4902
 3449TIP3    H231907   4.340   6.622   2.711 -2.4373  0.1618 -1.5796
 3450TIP3   OH231908   1.398   2.265   2.758 -0.3713 -0.2939  0.1798
 3450TIP3    H131909   1.331   2.231   2.698 -0.5308 -0.3679  0.4005
 3450TIP3    H231910   1.379   2.359   2.762 -0.9181 -0.4254  0.8119
 3451TIP3   OH231911   2.489   6.464   1.738 -0.4379  0.8645  0.3242
 3451TIP3    H131912   2.518   6.450   1.828 -0.0528  1.3221  0.2748
 3451TIP3    H231913   2.560   6.429   1.684  0.7244  3.2392  0.1939
 3452TIP3   OH231914   4.600   4.265   2.200  0.1008 -0.4050  0.4910
 3452TIP3    H131915   4.586   4.360   2.206  0.8001 -0.1312 -1.4425
 3452TIP3    H231916   4.668   4.247   2.265  2.4025  1.0571 -1.3090
 3453TIP3   OH231917   2.610   3.086   7.152 -0.1382  0.4578  0.1261
 3453TIP3    H131918   2.659   3.161   7.188 -1.7399  0.4930  2.4413
 3453TIP3    H231919   2.664   3.010   7.174 -1.0901  0.4698  2.8707
 3454TIP3   OH231920   5.585   1.215   8.094 -0.4960 -0.3306 -0.2945
 3454TIP3    H131921   5.566   1.132   8.051  0.4411 -0.7382  0.0584
 3454TIP3    H231922   5.500   1.246   8.125 -0.7943 -1.3692 -0.0498
 3455TIP3   OH231923   2.327   6.742   2.397 -1.1310 -0.3182  0.3290
 3455TIP3    H131924   2.328   6.832   2.365  0.3670 -0.6663 -0.7026
 3455TIP3    H231925   2.417   6.725   2.426 -1.6897 -1.0874  1.6965
 3456TIP3   OH231926   2.267   0.986   0.467 -0.6213  0.3648  0.0132
 3456TIP3    H131927   2.191   1.025   0.423  0.0653  1.0395 -0.6276
 3456TIP3    H231928   2.289   1.048   0.536 -0.6261  0.2008  0.1602
 3457TIP3   OH231929   5.297   3.530   1.779  0.0286  0.5181 -0.0118
 3457TIP3    H131930   5.338   3.584   1.847  0.5057  0.0329  0.0931
 3457TIP3    H231931   5.240   3.591   1.731 -0.3471  0.8700  0.8411
 3458TIP3   OH231932   6.868   3.446   2.870  0.3431 -0.2934  0.3447
 3458TIP3    H131933   6.823   3.452   2.955 -0.2276  2.3344 -0.0546
 3458TIP3    H231934   6.912   3.530   2.860  0.7220 -0.6874 -1.7901
 3459TIP3   OH231935   1.683   6.133   0.799 -0.2030  0.4730  0.2277
 3459TIP3    H131936   1.654   6.211   0.847 -1.0744  1.4921 -1.8481
 3459TIP3    H231937   1.602   6.090   0.773  0.1655  0.9621 -1.8778
 3460TIP3   OH231938   4.237   3.318   0.028 -0.3001 -0.2450  0.4487
 3460TIP3    H131939   4.268   3.268  -0.048  0.0591 -0.4269  0.7161
 3460TIP3    H231940   4.310   3.375   0.050 -0.2729 -0.4433  0.8805
 3461TIP3   OH231941   6.846   5.609   8.088 -0.5051  0.1035  0.1831
 3461TIP3    H131942   6.766   5.609   8.141 -0.9760  0.2022 -0.5099
 3461TIP3    H231943   6.824   5.663   8.012 -0.9040 -2.4551 -1.6711
 3462TIP3   OH231944   5.658   5.963   3.189 -0.6994  0.1547  0.3068
 3462TIP3    H131945   5.588   6.026   3.209 -0.1051  0.6194  0.9734
 3462TIP3    H231946   5.624   5.880   3.222 -2.1361 -0.2282 -1.9279
 3463TIP3   OH231947   5.384   4.071   2.864  0.0318  0.2373  0.0125
 3463TIP3    H131948   5.405   4.075   2.957 -1.1913 -0.7398  0.3520
 3463TIP3    H231949   5.326   3.996   2.856 -0.0969  0.4740 -1.5062
 3464TIP3   OH231950   4.837   2.780   2.481  0.1894 -0.0118 -0.1146
 3464TIP3    H131951   4.759   2.820   2.519  0.7218  0.9280  0.0263
 3464TIP3    H231952   4.863   2.713   2.544  0.1263  0.4292  0.3922
 3465TIP3   OH231953   5.505   0.675   6.933 -0.1080 -0.4814  0.5583
 3465TIP3    H131954   5.419   0.713   6.951 -0.6958  0.0231 -2.6425
 3465TIP3    H231955   5.565   0.749   6.939 -0.2667 -0.3503  0.5587
 3466TIP3   OH231956   1.972   3.590   2.683 -0.5009 -0.0073 -0.7241
 3466TIP3    H131957   2.005   3.646   2.613 -0.0930  0.6516 -0.0293
 3466TIP3    H231958   2.014   3.624   2.762  0.1360 -1.5888 -0.3397
 3467TIP3   OH231959   5.987   4.282   2.593  0.7215 -0.5117 -0.2988
 3467TIP3    H131960   5.935   4.314   2.520 -0.7095  1.0841  1.3310
 3467TIP3    H231961   6.063   4.340   2.597 -0.7119  1.3988  1.2332
 3468TIP3   OH231962   3.024   3.166   8.366  0.4186 -0.2752  0.2109
 3468TIP3    H131963   2.962   3.146   8.296  0.4516  0.3041  0.0054
 3468TIP3    H231964   3.103   3.195   8.320 -0.1628  1.9235  0.4502
 3469TIP3   OH231965   0.367   6.593   8.306  0.4598 -0.2314  0.0771
 3469TIP3    H131966   0.456   6.558   8.310  0.2248 -0.7409  1.6985
 3469TIP3    H231967   0.319   6.542   8.371 -0.4328  1.6332  0.9354
 3470TIP3   OH231968   3.612   4.541   8.477 -0.0054 -0.1330  0.4203
 3470TIP3    H131969   3.622   4.622   8.527  0.1347 -0.3490  0.7488
 3470TIP3    H231970   3.644   4.472   8.536  2.1963 -0.1786 -0.7311
 3471TIP3   OH231971   0.337   2.577   7.797 -0.1057 -0.0895 -0.5544
 3471TIP3    H131972   0.285   2.620   7.728 -1.7472 -0.6665  0.2597
 3471TIP3    H231973   0.420   2.555   7.755 -0.7091  0.4319 -2.0761
 3472TIP3   OH231974   6.637   0.791   2.969 -0.5023 -0.3403 -0.2373
 3472TIP3    H131975   6.663   0.733   3.040  2.9882  0.9367 -0.2770
 3472TIP3    H231976   6.656   0.743   2.889 -0.0110 -0.0977 -0.2713
 3473TIP3   OH231977   0.907   0.676   7.700  0.0376 -0.0290 -0.0185
 3473TIP3    H131978   0.968   0.649   7.769 -1.9882 -0.1569  1.8094
 3473TIP3    H231979   0.825   0.694   7.746 -1.4122 -0.1471 -2.4160
 3474TIP3   OH231980   4.441   2.821   3.053 -0.3948  0.1478 -0.1025
 3474TIP3    H131981   4.523   2.799   3.098 -0.7015 -0.4901  0.1701
 3474TIP3    H231982   4.462   2.897   2.999  0.3369  0.0800  0.0772
 3475TIP3   OH231983   3.507   3.459   3.391 -0.4709 -0.3477  0.0646
 3475TIP3    H131984   3.601   3.471   3.379 -0.1465 -2.7840 -0.1980
 3475TIP3    H231985   3.498   3.423   3.479 -1.1896 -0.0225  0.1298
 3476TIP3   OH231986   1.114   0.833   8.159  0.4486 -0.4174  0.2790
 3476TIP3    H131987   1.031   0.812   8.202 -0.1181 -1.7181 -1.3350
 3476TIP3    H231988   1.093   0.909   8.104  0.2263 -0.8969 -0.3183
 3477TIP3   OH231989   0.393   0.369   8.090 -0.0747 -0.1834 -0.1176
 3477TIP3    H131990   0.389   0.459   8.058 -2.3798 -0.4449 -0.7813
 3477TIP3    H231991   0.309   0.357   8.135 -0.0510 -2.1834 -0.5412
 3478TIP3   OH231992   0.381   0.015   0.951  0.0100  0.2052  0.1645
 3478TIP3    H131993   0.412  -0.068   0.916 -0.6097 -0.2978  0.7757
 3478TIP3    H231994   0.434   0.081   0.907  0.8250 -0.5337  0.0095
 3479TIP3   OH231995   2.234   5.760   1.205 -0.3481 -0.0525 -0.0992
 3479TIP3    H131996   2.271   5.783   1.291  0.4406 -0.4111 -0.3314
 3479TIP3    H231997   2.165   5.697   1.226 -0.1005 -0.2101  0.2743
 3480TIP3   OH231998   2.830   6.432   2.458 -0.1357  0.2809 -0.9061
 3480TIP3    H131999   2.894   6.502   2.473  1.3250 -0.9477 -1.1762
 3480TIP3    H232000   2.765   6.443   2.527  1.7785  0.0028  1.0341
 3481TIP3   OH232001   5.632   5.016   2.994  0.1164  0.2377  0.3184
 3481TIP3    H132002   5.579   4.964   3.054 -2.0049 -0.4058 -1.9323
 3481TIP3    H232003   5.722   4.997   3.018 -0.6360 -0.9982  2.3947
 3482TIP3   OH232004   0.510   6.249   0.279  0.6491  0.6367  0.2398
 3482TIP3    H132005   0.546   6.260   0.191 -0.9293 -1.4460 -0.7806
 3482TIP3    H232006   0.586   6.242   0.336  1.7278  1.1986 -1.0941
 3483TIP3   OH232007   3.395   6.091   1.798  0.5780 -0.0012  0.4371
 3483TIP3    H132008   3.469   6.063   1.745  0.7222  0.0797  0.5946
 3483TIP3    H232009   3.334   6.017   1.796  0.3391  0.2147 -0.2867
 3484TIP3   OH232010   6.397   2.068   1.178 -0.8166  0.1255  0.7311
 3484TIP3    H132011   6.471   2.054   1.237 -0.2980  1.6176  0.4804
 3484TIP3    H232012   6.392   1.988   1.126 -0.3632 -0.6146  1.7821
 3485TIP3   OH232013   0.708   5.583   1.688  0.2431  0.1986 -0.1880
 3485TIP3    H132014   0.749   5.497   1.697 -0.2759 -0.2752 -1.9639
 3485TIP3    H232015   0.753   5.638   1.752  2.3746 -0.7547 -0.7765
 3486TIP3   OH232016   3.795   0.975   3.293 -0.2452 -0.1378 -0.1968
 3486TIP3    H132017   3.732   1.017   3.352 -2.4226 -1.0717 -1.7556
 3486TIP3    H232018   3.847   0.919   3.351 -3.1946 -2.0845  0.7993
 3487TIP3   OH232019   6.206   1.507   2.465 -0.0049 -0.3608  0.0511
 3487TIP3    H132020   6.170   1.555   2.391 -0.0827 -0.9822 -0.3205
 3487TIP3    H232021   6.216   1.573   2.534  0.4692  0.3052 -0.6423
 3488TIP3   OH232022   6.463   0.195   1.043 -0.5927 -0.6575 -0.0259
 3488TIP3    H132023   6.509   0.231   1.118  0.8214 -1.7173 -0.3338
 3488TIP3    H232024   6.527   0.136   1.002 -1.6267 -0.7896 -1.5331
 3489TIP3   OH232025   3.479   5.178   8.063 -0.4464 -0.4210  0.3604
 3489TIP3    H132026   3.465   5.272   8.074 -4.3858 -0.7944 -0.0675
 3489TIP3    H232027   3.449   5.140   8.146 -0.2541 -1.3723  0.0036
 3490TIP3   OH232028   1.576   3.378   2.293  0.5949 -0.3792  0.3237
 3490TIP3    H132029   1.499   3.430   2.270  0.2814  0.5923  3.1217
 3490TIP3    H232030   1.618   3.359   2.210 -1.3355  1.1646 -1.1061
 3491TIP3   OH232031   3.352   2.367   2.461  0.9084  0.0275 -0.0381
 3491TIP3    H132032   3.372   2.323   2.544 -0.5319  0.9530  0.8555
 3491TIP3    H232033   3.343   2.297   2.398  0.1476 -0.8728  1.0250
 3492TIP3   OH232034   5.906   4.125   7.776  0.3154  0.2379 -0.1077
 3492TIP3    H132035   5.903   4.193   7.709 -2.2256 -0.6332 -1.0024
 3492TIP3    H232036   5.996   4.126   7.808  2.3733 -0.7731 -5.0205
 3493TIP3   OH232037   6.233   4.850   1.856 -0.3097  0.3499  0.1598
 3493TIP3    H132038   6.145   4.864   1.822  0.1965  1.2752 -0.8314
 3493TIP3    H232039   6.289   4.906   1.802  0.7620  0.5385  1.4081
 3494TIP3   OH232040   0.401   1.918   2.395 -0.1880 -0.1002  0.1626
 3494TIP3    H132041   0.427   1.917   2.303  1.0446  0.4973  0.4841
 3494TIP3    H232042   0.481   1.941   2.442 -1.0270  0.5516  1.3122
 3495TIP3   OH232043   6.031   1.001   8.308  0.5295 -0.8200 -0.5837
 3495TIP3    H132044   6.127   1.003   8.316  0.7230  1.1478 -2.4970
 3495TIP3    H232045   6.013   0.919   8.263  1.4618 -0.6007 -1.3965
 3496TIP3   OH232046   5.793   6.710   8.530 -0.1003 -0.4156 -0.9070
 3496TIP3    H132047   5.706   6.733   8.497  0.4124  0.4898 -1.7002
 3496TIP3    H232048   5.838   6.673   8.454  0.1599 -1.0356 -0.4586
 3497TIP3   OH232049   5.296   5.707   3.433  0.2148 -0.0193  0.6539
 3497TIP3    H132050   5.237   5.632   3.428 -2.4271  1.9753 -1.0758
 3497TIP3    H232051   5.264   5.758   3.508  1.7515 -0.3531  1.5928
 3498TIP3   OH232052   1.882   0.106   0.565  0.0270 -0.4190 -0.1045
 3498TIP3    H132053   1.922   0.184   0.527 -1.0072  0.4073  0.4214
 3498TIP3    H232054   1.837   0.064   0.492  0.8637 -0.7162 -0.4567
 3499TIP3   OH232055   0.410   6.005   8.530 -0.4085  0.0378 -0.0532
 3499TIP3    H132056   0.335   6.025   8.586 -1.5265  0.6763 -1.7217
 3499TIP3    H232057   0.373   5.988   8.444  1.2804 -0.7580 -0.6869
 3500TIP3   OH232058   2.154   5.488   1.287 -0.2113 -0.6317  0.6054
 3500TIP3    H132059   2.244   5.490   1.320 -0.7479  0.0270  2.1171
 3500TIP3    H232060   2.101   5.462   1.363 -1.7479  2.9266  0.9344
 3501TIP3   OH232061   5.536   1.357   0.666  0.8791 -0.4668 -0.2087
 3501TIP3    H132062   5.460   1.320   0.622  1.5634  0.1870 -2.0071
 3501TIP3    H232063   5.518   1.343   0.759 -1.2063 -0.7547 -0.5975
 3502TIP3   OH232064   6.218   5.731   1.091 -0.4955 -0.1964  0.4103
 3502TIP3    H132065   6.273   5.784   1.034 -1.8902 -0.1101 -0.9533
 3502TIP3    H232066   6.235   5.641   1.063 -0.6766 -0.2034  0.3200
 3503TIP3   OH232067   5.027   3.372   8.094  0.5971 -0.1418  0.0585
 3503TIP3    H132068   5.060   3.414   8.015  0.2368 -0.8870 -0.4944
 3503TIP3    H232069   5.082   3.407   8.164  1.2919  0.0860 -0.5934
 3504TIP3   OH232070   1.365   4.843   0.095 -0.2314 -0.4392 -0.4414
 3504TIP3    H132071   1.356   4.810   0.184  0.2893 -0.4352 -0.3833
 3504TIP3    H232072   1.336   4.770   0.040  5.0601 -2.9428 -0.5546
 3505TIP3   OH232073   0.935   5.362   0.619  0.4537 -0.2155  0.3099
 3505TIP3    H132074   1.019   5.379   0.661 -0.5609 -0.0794  2.3841
 3505TIP3    H232075   0.893   5.448   0.614  0.1673 -0.3778 -0.1828
 3506TIP3   OH232076   1.227   3.885   1.494 -0.2761 -0.0549 -0.3821
 3506TIP3    H132077   1.281   3.807   1.489  0.9061  0.6932  0.3256
 3506TIP3    H232078   1.214   3.911   1.402  0.5792 -0.2278 -0.5588
 3507TIP3   OH232079   0.956   3.361   7.941  0.1731 -0.0960  0.1163
 3507TIP3    H132080   1.043   3.321   7.933  0.3455  0.2761  0.1318
 3507TIP3    H232081   0.965   3.421   8.016 -0.2098 -0.3581  0.3747
 3508TIP3   OH232082   5.835   0.794   8.102  0.2473 -0.2375 -0.6381
 3508TIP3    H132083   5.921   0.769   8.136  0.2529 -0.4757 -0.8271
 3508TIP3    H232084   5.854   0.836   8.017  0.2107  0.1019 -0.4814
 3509TIP3   OH232085   2.023   0.546   1.450  0.6203  0.1899  0.0980
 3509TIP3    H132086   2.098   0.496   1.420  1.0115 -0.0380  1.4003
 3509TIP3    H232087   2.040   0.563   1.543 -1.5619 -1.0548  0.7991
 3510TIP3   OH232088   2.979   0.917   3.264 -0.1429  0.5079 -0.3434
 3510TIP3    H132089   2.889   0.885   3.269  0.0559 -0.0627 -0.3163
 3510TIP3    H232090   3.004   0.904   3.172 -0.1327  0.7928 -0.3816
 3511TIP3   OH232091   3.596   3.097   1.253  0.2581 -0.0742  0.1633
 3511TIP3    H132092   3.512   3.103   1.297  0.0239 -0.2235 -0.2644
 3511TIP3    H232093   3.654   3.155   1.304 -0.1771  0.2621  0.2789
 3512TIP3   OH232094   5.757   6.578   2.131  0.1149  0.2015 -0.0913
 3512TIP3    H132095   5.765   6.554   2.224  1.6529 -0.1639 -0.3051
 3512TIP3    H232096   5.722   6.667   2.133  1.6308  0.8210  0.9170
 3513TIP3   OH232097   2.729   3.610   7.623 -0.4820 -0.4133  0.3158
 3513TIP3    H132098   2.659   3.623   7.687 -0.3373 -0.4300  0.4784
 3513TIP3    H232099   2.782   3.539   7.660  0.9714  1.1563  1.3575
 3514TIP3   OH232100   1.662   1.490   0.240 -0.2417 -0.0036  0.0875
 3514TIP3    H132101   1.612   1.461   0.164  0.6853  0.7480 -0.8401
 3514TIP3    H232102   1.754   1.487   0.211  0.4128 -2.3766  2.0721
 3515TIP3   OH232103   6.669   2.776   1.262  0.2187 -0.0726 -0.6590
 3515TIP3    H132104   6.579   2.792   1.292 -0.2273  2.3081 -2.8718
 3515TIP3    H232105   6.722   2.783   1.341 -1.4002 -0.1001  0.4842
 3516TIP3   OH232106   2.575   5.013   0.190  0.3770 -0.5914  0.4673
 3516TIP3    H132107   2.667   5.019   0.214  0.5133  1.7919 -0.4259
 3516TIP3    H232108   2.573   5.024   0.095 -0.8493 -0.2528  0.5066
 3517TIP3   OH232109   4.581   4.617   0.124  0.2291 -0.0221 -0.1410
 3517TIP3    H132110   4.633   4.676   0.070 -0.9342 -0.1224 -1.4335
 3517TIP3    H232111   4.515   4.673   0.164 -0.1395 -0.2579 -0.4138
 3518TIP3   OH232112   1.271   4.344   7.770  0.0249 -0.4101  0.5250
 3518TIP3    H132113   1.214   4.414   7.802 -1.0618 -1.7189  1.6477
 3518TIP3    H232114   1.347   4.347   7.828  1.3436  1.5813 -1.2119
 3519TIP3   OH232115   6.336   0.846   3.093 -0.5449  0.6175  0.2043
 3519TIP3    H132116   6.421   0.882   3.065 -1.3204  1.9703 -0.4852
 3519TIP3    H232117   6.348   0.751   3.085  0.7844  0.7913 -0.2412
 3520TIP3   OH232118   5.948   4.810   1.757 -0.3840 -0.6814 -0.3606
 3520TIP3    H132119   5.876   4.768   1.805 -0.3839  1.4809  1.7036
 3520TIP3    H232120   5.906   4.868   1.695 -0.3892 -0.9895 -0.6499
 3521TIP3   OH232121   2.879   4.322   2.730 -0.6625 -0.3154  0.0640
 3521TIP3    H132122   2.879   4.410   2.765 -0.2259  0.3167 -1.4193
 3521TIP3    H232123   2.916   4.267   2.799  0.7272  0.9508  0.3556
 3522TIP3   OH232124   4.861   4.991   3.169 -0.0707 -0.3621  0.2325
 3522TIP3    H132125   4.943   5.034   3.191  0.0013 -0.1611 -0.4224
 3522TIP3    H232126   4.879   4.898   3.181 -0.0075 -0.2680  0.9212
 3523TIP3   OH232127   1.984   2.188   1.794 -0.3497 -0.3259 -0.4928
 3523TIP3    H132128   2.032   2.234   1.863 -0.9040  2.5623 -1.8957
 3523TIP3    H232129   2.018   2.099   1.797  0.1094 -0.1798  3.0475
 3524TIP3   OH232130   3.451   6.159   3.310  0.0680  0.2714 -1.2393
 3524TIP3    H132131   3.360   6.159   3.278 -0.9457  2.5536  1.2536
 3524TIP3    H232132   3.458   6.239   3.362  3.0553 -0.6799  0.0198
 3525TIP3   OH232133   0.878   2.080   1.617 -0.3721 -0.1266 -0.1622
 3525TIP3    H132134   0.785   2.056   1.620 -0.5156  0.4730  0.5920
 3525TIP3    H232135   0.893   2.126   1.700  0.7287 -0.6652 -0.0469
 3526TIP3   OH232136   3.553   2.567   2.823 -0.7650  0.0683 -0.1112
 3526TIP3    H132137   3.487   2.499   2.837  0.3769 -0.8277  1.2418
 3526TIP3    H232138   3.535   2.632   2.890 -0.1170 -0.3411  0.4826
 3527TIP3   OH232139   0.113   2.158   2.908  0.0582 -0.1804  0.0324
 3527TIP3    H132140   0.207   2.177   2.914 -0.3398  1.5702  1.7680
 3527TIP3    H232141   0.096   2.098   2.981 -0.4140  0.8536  0.8099
 3528TIP3   OH232142   5.072   6.684   1.475  0.3544  0.1472  0.3480
 3528TIP3    H132143   5.026   6.605   1.447 -0.7628  0.8530  0.1018
 3528TIP3    H232144   5.153   6.684   1.424 -0.2115 -0.2098 -0.5843
 3529TIP3   OH232145   1.403   1.468   1.695  0.4261  0.0781 -0.7810
 3529TIP3    H132146   1.445   1.520   1.628 -1.0454 -0.5739 -2.2994
 3529TIP3    H232147   1.410   1.520   1.775  3.4174  0.2794 -1.0676
 3530TIP3   OH232148   4.631   4.981   2.923  0.1569  0.0389  0.1124
 3530TIP3    H132149   4.572   5.056   2.934 -0.0654 -0.1497  0.2064
 3530TIP3    H232150   4.646   4.949   3.012  1.3644  0.8172  0.2193
 3531TIP3   OH232151   5.178   5.611   0.823 -0.2364  0.2656  0.0488
 3531TIP3    H132152   5.180   5.587   0.916  2.5745  0.9009  0.2677
 3531TIP3    H232153   5.240   5.551   0.782  2.1708  2.9006 -0.4735
 3532TIP3   OH232154   3.051   4.878   0.250 -0.3985 -0.4083  0.2535
 3532TIP3    H132155   2.995   4.893   0.174  1.3632 -0.1236 -1.0255
 3532TIP3    H232156   3.022   4.944   0.314 -2.1923 -0.9407  0.0502
 3533TIP3   OH232157   0.232   5.469   0.317 -0.1025  0.1194 -0.1318
 3533TIP3    H132158   0.224   5.430   0.230  0.1648 -0.5321  0.1270
 3533TIP3    H232159   0.321   5.447   0.344  0.4572  1.8204 -0.4024
 3534TIP3   OH232160   0.943   1.084   1.660 -0.2444 -0.6317 -0.6411
 3534TIP3    H132161   1.018   1.133   1.694 -0.8290 -0.5144  0.5235
 3534TIP3    H232162   0.897   1.147   1.605 -1.2127  0.3237  1.1581
 3535TIP3   OH232163   3.215   1.136   3.589 -0.2642  0.4893 -0.2617
 3535TIP3    H132164   3.207   1.110   3.498 -0.2148  1.4857 -0.5603
 3535TIP3    H232165   3.270   1.068   3.629 -0.8413 -0.3143 -0.8028
 3536TIP3   OH232166   2.679   4.485   0.162 -0.2427 -0.1447  0.0005
 3536TIP3    H132167   2.596   4.514   0.201 -0.1485 -0.5056  0.4607
 3536TIP3    H232168   2.653   4.448   0.077 -0.6689 -1.1367  0.5494
 3537TIP3   OH232169   0.351   0.067   7.864  0.1584 -0.6638 -0.1657
 3537TIP3    H132170   0.426   0.042   7.810 -0.0549 -0.4457 -0.5686
 3537TIP3    H232171   0.283   0.003   7.842  0.1707 -0.7611  0.0759
 3538TIP3   OH232172   2.357   3.726   8.546 -0.0885 -0.3566  0.4284
 3538TIP3    H132173   2.303   3.804   8.546  1.8817  1.1092  1.2359
 3538TIP3    H232174   2.439   3.754   8.503  1.5744 -1.2071  2.8363
 3539TIP3   OH232175   5.478   2.279   0.471  0.3288 -0.3891 -0.0011
 3539TIP3    H132176   5.403   2.225   0.496  0.3536 -0.6549 -0.4816
 3539TIP3    H232177   5.467   2.360   0.520 -0.4747 -0.2800 -0.3406
 3540TIP3   OH232178   2.395   2.504   1.977  0.5697 -0.2259 -0.0554
 3540TIP3    H132179   2.425   2.467   2.060  0.5319 -1.7888 -0.7016
 3540TIP3    H232180   2.314   2.550   1.999  0.1460 -1.2737  0.6663
 3541TIP3   OH232181   3.814   4.297   1.735 -0.0713  0.4031  0.3868
 3541TIP3    H132182   3.839   4.388   1.720  0.7529  0.0222 -0.6842
 3541TIP3    H232183   3.806   4.259   1.647  2.3882 -1.2993  0.7957
 3542TIP3   OH232184   0.246   0.235   1.463 -0.0889  0.3931 -0.5103
 3542TIP3    H132185   0.220   0.212   1.374 -0.2121 -0.0293 -0.3687
 3542TIP3    H232186   0.337   0.206   1.470  0.8748  2.9081 -1.3810
 3543TIP3   OH232187   6.775   2.478   1.453  0.2919 -0.0150 -0.4276
 3543TIP3    H132188   6.760   2.408   1.390  0.7357 -0.6357  0.1518
 3543TIP3    H232189   6.763   2.437   1.538 -0.5295  0.8743 -0.0939
 3544TIP3   OH232190   6.382   4.991   2.939 -0.4536  0.0322 -0.3283
 3544TIP3    H132191   6.316   4.950   2.995 -0.5314  1.8105  0.9906
 3544TIP3    H232192   6.461   4.939   2.952 -0.6164  0.0974  1.0719
 3545TIP3   OH232193   4.514   0.204   8.495 -0.3307  0.3447  0.0447
 3545TIP3    H132194   4.556   0.283   8.463  0.6504  0.0942  0.6807
 3545TIP3    H232195   4.493   0.154   8.416 -1.2995  1.3804 -0.3881
 3546TIP3   OH232196   5.974   2.800   0.636  0.6966  0.2797 -0.8254
 3546TIP3    H132197   6.066   2.784   0.658  0.9845 -0.7240 -2.5850
 3546TIP3    H232198   5.977   2.868   0.570  0.2521 -0.4034 -1.5625
 3547TIP3   OH232199   1.383   1.591   2.390  0.6918  0.3737 -0.3964
 3547TIP3    H132200   1.290   1.609   2.403  0.4127  0.7692 -2.5800
 3547TIP3    H232201   1.427   1.675   2.401  0.4055  0.7959 -2.1250
 3548TIP3   OH232202   0.571   2.650   0.877 -0.4357 -0.4170 -0.7003
 3548TIP3    H132203   0.547   2.635   0.786 -1.2725 -1.9914 -0.2498
 3548TIP3    H232204   0.500   2.704   0.912  0.4965  1.2477 -1.2512
 3549TIP3   OH232205   1.439   1.852   0.912 -0.0246  0.5633  0.4035
 3549TIP3    H132206   1.525   1.827   0.880 -0.0394  1.4749 -0.3917
 3549TIP3    H232207   1.450   1.940   0.946 -0.7255  0.8518 -0.0905
 3550TIP3   OH232208   3.940   2.298   0.678  0.4664  0.1447 -0.0703
 3550TIP3    H132209   4.012   2.317   0.618  0.8316 -0.9049  0.0217
 3550TIP3    H232210   3.972   2.226   0.733 -1.2604 -1.5435 -1.1491
 3551TIP3   OH232211   3.625   5.509   0.741  0.0538 -0.0503 -0.0141
 3551TIP3    H132212   3.660   5.466   0.819 -0.5645 -1.8170 -0.6564
 3551TIP3    H232213   3.531   5.514   0.756 -0.4145 -2.5002 -1.5123
 3552TIP3   OH232214   3.648   3.517   1.769 -0.5731  0.5347  0.2753
 3552TIP3    H132215   3.718   3.579   1.749 -0.2956  0.1630  0.0896
 3552TIP3    H232216   3.616   3.545   1.855 -1.3854  1.7807 -0.3938
 3553TIP3   OH232217   1.109   2.672   0.530 -0.3248  0.7254 -0.1910
 3553TIP3    H132218   1.132   2.671   0.437  0.7416 -0.3115  0.0633
 3553TIP3    H232219   1.070   2.586   0.545 -1.4393  1.2605  0.1220
 3554TIP3   OH232220   0.657   1.018   1.940  0.2032  0.7756  0.2526
 3554TIP3    H132221   0.743   0.976   1.932  0.3965  0.9656  1.2220
 3554TIP3    H232222   0.674   1.111   1.925  0.1507  0.8001  0.3454
 3555TIP3   OH232223   5.624   1.786   7.440  0.2253  0.8294  0.1786
 3555TIP3    H132224   5.566   1.810   7.367  0.6098 -0.1903 -0.4802
 3555TIP3    H232225   5.620   1.690   7.443  2.1691  0.7066 -0.1284
 3556TIP3   OH232226   1.741   0.852   8.308  0.2392 -0.3119 -0.3118
 3556TIP3    H132227   1.825   0.889   8.333 -0.6241  0.5818  1.4253
 3556TIP3    H232228   1.763   0.768   8.268  2.0428  0.6927 -1.5689
 3557TIP3   OH232229   4.234   1.512   0.694 -0.5060 -0.0175  0.4815
 3557TIP3    H132230   4.231   1.600   0.656 -0.1436  0.4006  1.4075
 3557TIP3    H232231   4.304   1.515   0.759 -0.2718 -1.0874  0.3109
 3558TIP3   OH232232   3.675   0.948   8.412 -0.7546 -0.4559  0.4135
 3558TIP3    H132233   3.598   0.908   8.370  0.0877  0.3380 -2.0612
 3558TIP3    H232234   3.737   0.875   8.422  1.0114 -0.0311 -4.6179
 3559TIP3   OH232235   0.632   2.475   0.206 -0.0818 -0.2591 -0.1639
 3559TIP3    H132236   0.659   2.533   0.278  0.5240  1.4031 -1.6383
 3559TIP3    H232237   0.538   2.462   0.220  0.0406 -0.0634  0.9798
 3560TIP3   OH232238   0.649   1.890   1.129 -0.0999  0.0423  1.0100
 3560TIP3    H132239   0.604   1.895   1.214 -1.5634 -2.4898  0.5101
 3560TIP3    H232240   0.596   1.944   1.071  0.2308  0.8507  1.4539
 3561TIP3   OH232241   2.977   1.524   2.395 -0.3999 -0.0823  0.1920
 3561TIP3    H132242   2.983   1.436   2.434 -1.5644 -0.1147  0.3357
 3561TIP3    H232243   2.984   1.509   2.301 -1.3067 -0.4343  0.1633
 3562TIP3   OH232244   2.584   0.797   8.486  0.7857 -0.1774  0.7338
 3562TIP3    H132245   2.569   0.704   8.470 -0.3434  0.0849  0.1626
 3562TIP3    H232246   2.548   0.812   8.573  0.9692 -0.2712  0.8267
 3563TIP3   OH232247   3.309   3.263   7.748 -0.3882  0.1863  0.0021
 3563TIP3    H132248   3.279   3.348   7.716  0.2254  0.0800 -0.8774
 3563TIP3    H232249   3.404   3.268   7.744 -0.3497 -0.6491 -0.3387
 3564TIP3   OH232250   5.143   2.017   2.550 -0.4579 -0.6468 -0.6240
 3564TIP3    H132251   5.185   2.075   2.613  0.2948 -0.3348 -1.4015
 3564TIP3    H232252   5.050   2.018   2.576 -0.3180  0.2056 -0.0946
 3565TIP3   OH232253   6.563   0.045   8.357  0.2879  0.0261  0.0770
 3565TIP3    H132254   6.526   0.043   8.445  0.3592 -0.8739  0.0902
 3565TIP3    H232255   6.542   0.133   8.325 -1.1546 -0.1722  0.3870
 3566TIP3   OH232256   3.492   0.077   7.418  0.4737  0.4327 -0.1947
 3566TIP3    H132257   3.526   0.057   7.331 -0.1796 -0.5172 -0.2543
 3566TIP3    H232258   3.409   0.121   7.401 -0.0400 -0.4563 -0.0755
 3567TIP3   OH232259   5.995   4.840   1.307  0.0172 -0.3002  0.5455
 3567TIP3    H132260   5.989   4.794   1.390  0.6994 -1.0032  0.2155
 3567TIP3    H232261   6.022   4.929   1.331  2.8856 -1.1769  0.9623
 3568TIP3   OH232262   5.431   6.313   0.260 -0.2548 -0.1004 -0.1210
 3568TIP3    H132263   5.398   6.367   0.188  0.0107  0.8235  0.4386
 3568TIP3    H232264   5.377   6.234   0.257 -0.5806  0.1394 -1.0152
 3569TIP3   OH232265   3.121   1.603   3.623  0.1121  0.4257 -0.0374
 3569TIP3    H132266   3.112   1.647   3.707  0.2311  1.1852 -0.4164
 3569TIP3    H232267   3.121   1.510   3.645 -2.6244  0.5041  0.5468
 3570TIP3   OH232268   4.793   4.834   8.548 -0.0272  0.3293  0.3174
 3570TIP3    H132269   4.784   4.911   8.605 -1.0246  1.3923 -1.1846
 3570TIP3    H232270   4.851   4.864   8.478  0.2738 -0.5745  0.1780
 3571TIP3   OH232271   4.464   3.886   0.112  0.8952  0.7680 -0.0875
 3571TIP3    H132272   4.380   3.911   0.150 -0.1578 -0.4879 -1.4556
 3571TIP3    H232273   4.441   3.842   0.030  2.9680  1.8274 -1.3283
 3572TIP3   OH232274   5.556   4.017   8.435  0.1849  0.3763 -0.4655
 3572TIP3    H132275   5.648   4.011   8.461 -0.0207 -1.4833 -0.0256
 3572TIP3    H232276   5.529   4.104   8.465  1.3617  0.3202  0.9044
 3573TIP3   OH232277   2.927   6.107   3.117  0.3081 -0.1838 -0.0509
 3573TIP3    H132278   2.846   6.155   3.099  0.4069 -0.3200 -0.9159
 3573TIP3    H232279   2.995   6.174   3.118  0.0165  0.1607  2.2698
 3574TIP3   OH232280   0.187   2.542   2.853 -0.3608 -0.0570 -0.2505
 3574TIP3    H132281   0.171   2.618   2.908 -1.9590 -0.7262  0.2796
 3574TIP3    H232282   0.274   2.512   2.877 -0.3433  0.6962  0.6440
 3575TIP3   OH232283   3.658   4.505   1.373 -0.5230 -0.4764  0.7968
 3575TIP3    H132284   3.570   4.471   1.359 -0.3009 -0.8794  0.3318
 3575TIP3    H232285   3.711   4.429   1.396  0.2102 -0.6865 -1.3491
 3576TIP3   OH232286   2.047   5.384   2.782  0.2821  0.0342  0.7022
 3576TIP3    H132287   2.076   5.395   2.691 -1.1234  0.6821  0.3077
 3576TIP3    H232288   1.970   5.327   2.776  0.9204 -0.9745  1.6416
 3577TIP3   OH232289   0.720   5.307   2.477  0.1017 -0.5554  0.0595
 3577TIP3    H132290   0.805   5.270   2.454 -0.0390  0.1811 -1.8203
 3577TIP3    H232291   0.741   5.387   2.526  0.5172 -0.0762 -0.8806
 3578TIP3   OH232292   3.929   2.137   3.035 -0.0621  0.1367 -0.5792
 3578TIP3    H132293   4.010   2.145   3.086  0.4988  0.8222 -1.5340
 3578TIP3    H232294   3.870   2.088   3.091  1.0879 -0.5648  0.0670
 3579TIP3   OH232295   3.232   6.903   7.759  0.2585  0.3859 -0.2951
 3579TIP3    H132296   3.234   6.808   7.762  0.2335  0.4028  0.2901
 3579TIP3    H232297   3.143   6.924   7.728  0.0194  0.2331  0.2806
 3580TIP3   OH232298   2.283   4.848   3.573  0.3829 -0.9550 -0.5861
 3580TIP3    H132299   2.361   4.864   3.627  1.3581 -1.0050 -1.9156
 3580TIP3    H232300   2.303   4.766   3.528 -1.2969 -1.9961  0.4810
 3581TIP3   OH232301   0.734   3.156   2.192  0.3640  0.1168  0.0731
 3581TIP3    H132302   0.737   3.237   2.141  0.1660  0.6643  0.9028
 3581TIP3    H232303   0.825   3.125   2.194  0.7891  1.3420  1.3128
 3582TIP3   OH232304   0.815   1.629   8.296  0.2902  0.3065 -0.4236
 3582TIP3    H132305   0.838   1.678   8.217 -1.2587 -2.2131 -2.6067
 3582TIP3    H232306   0.769   1.693   8.350  1.3207  2.1111 -1.5427
 3583TIP3   OH232307   1.248   1.803   2.230  0.3620  0.4697  0.4414
 3583TIP3    H132308   1.231   1.739   2.160  0.4050  1.0235 -0.0878
 3583TIP3    H232309   1.165   1.851   2.239  0.8219  1.4544 -0.3474
 3584TIP3   OH232310   5.665   2.724   1.225 -0.3951  0.2126  0.2670
 3584TIP3    H132311   5.667   2.672   1.145 -0.9317  0.3701  0.1501
 3584TIP3    H232312   5.706   2.668   1.291 -0.0312  0.0466 -0.0910
 3585TIP3   OH232313   2.379   1.089   0.145 -0.1486 -0.1348 -0.1500
 3585TIP3    H132314   2.407   0.998   0.157  0.2572 -0.1176 -0.9233
 3585TIP3    H232315   2.446   1.140   0.190 -0.6645 -0.2268  0.7575
 3586TIP3   OH232316   2.928   5.510   2.534  0.5504 -0.0696 -1.3718
 3586TIP3    H132317   2.891   5.580   2.480  0.5079  0.2869 -0.8861
 3586TIP3    H232318   2.993   5.554   2.590  0.3049 -0.3625 -0.8463
 3587TIP3   OH232319   5.864   0.607   8.347 -0.8023 -0.1762  0.2426
 3587TIP3    H132320   5.948   0.652   8.352 -1.6677  1.5366  0.2917
 3587TIP3    H232321   5.883   0.525   8.301  1.0586 -0.3192  1.1630
 3588TIP3   OH232322   1.712   4.642   2.137  0.5166  0.4213  0.0594
 3588TIP3    H132323   1.754   4.561   2.111  1.4006  0.1942  2.0445
 3588TIP3    H232324   1.627   4.641   2.093  0.4397 -1.6613  0.1915
 3589TIP3   OH232325   1.366   5.704   0.719 -0.3050  0.2119 -0.2564
 3589TIP3    H132326   1.386   5.796   0.703 -0.8743  0.4188  0.1799
 3589TIP3    H232327   1.381   5.693   0.813 -0.2509 -0.1387 -0.3059
 3590TIP3   OH232328   1.817   2.423   2.389  0.0290  0.1064 -0.1184
 3590TIP3    H132329   1.866   2.504   2.400 -0.3683  0.4335 -0.6641
 3590TIP3    H232330   1.734   2.440   2.434 -0.2333  0.1774 -0.6200
 3591TIP3   OH232331   0.962   6.282   8.125  0.0945 -0.3809  0.0596
 3591TIP3    H132332   0.931   6.263   8.214 -0.8462  0.8396  0.0157
 3591TIP3    H232333   0.984   6.375   8.127  0.6827 -0.4944 -0.8208
 3592TIP3   OH232334   6.066   2.615   8.064 -0.1612  0.5237  0.1509
 3592TIP3    H132335   6.125   2.637   7.992 -1.3280  0.1388 -0.9602
 3592TIP3    H232336   6.051   2.521   8.053  0.0226  0.3647  1.2054
 3593TIP3   OH232337   5.644   6.697   1.659 -0.6208  0.8314  0.4595
 3593TIP3    H132338   5.664   6.689   1.565 -2.2142 -0.9415  0.1875
 3593TIP3    H232339   5.729   6.687   1.702 -0.0223  0.2432 -0.7705
 3594TIP3   OH232340   0.885   2.930   0.813 -0.5519 -0.2425  0.0051
 3594TIP3    H132341   0.940   3.003   0.843 -1.6737  1.0895 -1.0489
 3594TIP3    H232342   0.800   2.946   0.852 -1.1472 -0.2707 -1.2306
 3595TIP3   OH232343   4.472   5.515   8.090 -0.1703 -0.1304  0.2467
 3595TIP3    H132344   4.406   5.448   8.109 -1.0985  0.9535  1.0093
 3595TIP3    H232345   4.422   5.590   8.057  0.9537 -0.1837 -1.7567
 3596TIP3   OH232346   5.653   5.942   0.438  0.4642  0.0430 -0.2496
 3596TIP3    H132347   5.700   5.931   0.521  0.0363  2.3027  0.3454
 3596TIP3    H232348   5.721   5.966   0.375  0.5808 -0.1303 -0.1906
 3597TIP3   OH232349   5.993   2.298   3.329 -0.7191 -0.2867 -0.0731
 3597TIP3    H132350   6.043   2.337   3.400  0.3100 -1.1197 -0.3010
 3597TIP3    H232351   5.919   2.357   3.315 -1.1650 -0.3074  1.9282
 3598TIP3   OH232352   2.123   2.674   1.824  0.1887  0.1894 -0.6702
 3598TIP3    H132353   2.031   2.649   1.818 -0.1112  1.0717 -0.0712
 3598TIP3    H232354   2.171   2.599   1.790 -0.6959 -0.8350  0.2589
 3599TIP3   OH232355   0.313   3.386   0.464 -0.2362 -0.3905 -0.5109
 3599TIP3    H132356   0.288   3.474   0.492 -0.5390 -0.4168 -0.6969
 3599TIP3    H232357   0.234   3.351   0.423 -0.7541 -1.4970  1.3317
 3600TIP3   OH232358   1.174   1.156   7.260  0.6002  0.0511  0.2942
 3600TIP3    H132359   1.158   1.246   7.233  1.7042  0.2890  0.3915
 3600TIP3    H232360   1.246   1.126   7.205  2.0294  0.1231  2.0282
 3601TIP3   OH232361   6.806   3.912   1.458  0.0837  0.1921 -0.0395
 3601TIP3    H132362   6.810   4.004   1.431  1.2166 -0.2325 -1.3833
 3601TIP3    H232363   6.893   3.892   1.492  0.7048 -1.0642 -2.1805
 3602TIP3   OH232364   1.375   4.466   2.604 -0.0215 -0.2332 -0.6303
 3602TIP3    H132365   1.412   4.549   2.575  0.3753 -0.4654 -0.8121
 3602TIP3    H232366   1.378   4.411   2.525 -1.3253 -0.0703 -0.8074
 3603TIP3   OH232367   2.758   5.158   7.968 -0.1786  0.1420 -0.3608
 3603TIP3    H132368   2.835   5.214   7.959 -0.6195  0.9700  0.7880
 3603TIP3    H232369   2.749   5.116   7.882  1.5764 -0.0261 -0.5065
 3604TIP3   OH232370   0.637   6.849   7.812 -1.1855 -0.0466  0.2260
 3604TIP3    H132371   0.601   6.763   7.790 -0.9333 -0.1482  0.2106
 3604TIP3    H232372   0.726   6.847   7.777 -1.8170  0.9538 -1.5392
 3605TIP3   OH232373   2.355   6.454   2.745  0.6618  0.2669  0.7084
 3605TIP3    H132374   2.381   6.383   2.804  1.8304  0.5220  0.5288
 3605TIP3    H232375   2.355   6.532   2.801 -0.9035  0.1059  0.9728
 3606TIP3   OH232376   6.735   0.702   1.770 -0.7049  0.1447  0.1127
 3606TIP3    H132377   6.668   0.692   1.703 -0.6550  0.7276 -0.0325
 3606TIP3    H232378   6.814   0.664   1.730 -0.9728 -0.6368  0.3264
 3607TIP3   OH232379   5.955   5.000   7.930  0.5318  0.2531  0.2495
 3607TIP3    H132380   5.939   5.048   7.849 -1.8088  0.8845  0.9976
 3607TIP3    H232381   5.901   4.921   7.922  1.0046 -0.1384  0.8159
 3608TIP3   OH232382   2.084   0.323   8.115  0.1799 -0.2277 -0.3128
 3608TIP3    H132383   2.052   0.403   8.073 -1.2248 -0.7996 -0.4080
 3608TIP3    H232384   2.123   0.272   8.044  0.3238  0.0092 -0.4049
 3609TIP3   OH232385   4.638   0.354   2.309  0.1847 -0.2178  0.3218
 3609TIP3    H132386   4.708   0.303   2.349 -0.1354 -1.6532 -0.8824
 3609TIP3    H232387   4.574   0.289   2.280 -0.3367  0.8782 -1.1015
 3610TIP3   OH232388   3.432   4.164   7.973 -0.1642  0.5543 -0.5766
 3610TIP3    H132389   3.520   4.127   7.979  0.6319  1.9738 -2.5460
 3610TIP3    H232390   3.439   4.251   8.012 -0.4715  1.0206 -1.5410
 3611TIP3   OH232391   0.523   6.882   1.927  0.1143 -0.2814  0.1746
 3611TIP3    H132392   0.442   6.872   1.876  1.4353 -1.9004 -1.7944
 3611TIP3    H232393   0.575   6.944   1.876  0.9650 -0.9674  0.1805
 3612TIP3   OH232394   0.425   6.213   1.714 -0.3986 -0.3934 -0.3912
 3612TIP3    H132395   0.460   6.176   1.633  0.7680 -0.1426 -0.0296
 3612TIP3    H232396   0.471   6.165   1.783 -2.5241 -1.7052  0.1694
 3613TIP3   OH232397   0.633   2.798   1.737 -0.2031  0.2088 -0.1600
 3613TIP3    H132398   0.615   2.859   1.809  0.0604  2.5489 -1.9615
 3613TIP3    H232399   0.564   2.815   1.673  0.5433 -0.6044 -1.2184
 3614TIP3   OH232400   3.965   1.744   0.548 -0.0962  0.1297  0.0355
 3614TIP3    H132401   3.957   1.722   0.456 -0.0814  1.0202 -0.1915
 3614TIP3    H232402   4.040   1.803   0.552  0.3358 -0.4487  0.7223
 3615TIP3   OH232403   4.075   1.902   7.831  0.3341 -0.2911 -0.5764
 3615TIP3    H132404   4.152   1.902   7.888 -0.5921 -2.6475  0.8415
 3615TIP3    H232405   4.110   1.888   7.743  1.5645 -2.9531  0.2143
 3616TIP3   OH232406   0.680   4.371   2.405  0.2283 -0.1481  0.9212
 3616TIP3    H132407   0.687   4.318   2.326  1.1948 -0.3812  1.1560
 3616TIP3    H232408   0.606   4.332   2.452  0.9974 -1.3955  1.1450
 3617TIP3   OH232409   3.728   3.072   0.246  0.5382 -0.4918 -0.2598
 3617TIP3    H132410   3.754   3.139   0.183 -0.9866 -0.1049 -0.5292
 3617TIP3    H232411   3.654   3.111   0.292 -0.3082 -1.9482 -0.3338
 3618TIP3   OH232412   4.256   4.114   1.496 -0.1308  0.0372  0.3012
 3618TIP3    H132413   4.176   4.094   1.544 -1.7305  0.9233 -1.7869
 3618TIP3    H232414   4.316   4.150   1.561 -1.3559 -0.8230  1.9604
 3619TIP3   OH232415   2.694   0.861   3.211 -0.6605 -0.3996 -0.2548
 3619TIP3    H132416   2.661   0.948   3.189 -0.6586 -0.2052  0.4830
 3619TIP3    H232417   2.643   0.801   3.156  0.4040  0.1567 -1.9204
 3620TIP3   OH232418   0.705   5.278   1.702 -0.0657  0.4102 -0.4909
 3620TIP3    H132419   0.633   5.333   1.734  1.4655  1.4431  1.4204
 3620TIP3    H232420   0.717   5.305   1.611 -2.1601  0.0764 -0.9282
 3621TIP3   OH232421   3.392   2.057   2.370 -0.2479 -0.1085 -0.2613
 3621TIP3    H132422   3.359   1.974   2.338 -2.3372 -0.1366  1.7008
 3621TIP3    H232423   3.469   2.034   2.422  0.9105 -0.4427 -2.0604
 3622TIP3   OH232424   2.570   1.965   0.489  0.2897 -0.0921  0.3671
 3622TIP3    H132425   2.554   1.998   0.578 -1.9276  0.5673 -0.2162
 3622TIP3    H232426   2.665   1.954   0.485  0.3387 -2.2138  3.5300
 3623TIP3   OH232427   2.299   4.913   0.564 -0.0945 -0.6714  0.1096
 3623TIP3    H132428   2.314   4.937   0.656  0.1303 -1.5535  0.3110
 3623TIP3    H232429   2.384   4.884   0.532 -0.4588 -1.7304  0.0510
 3624TIP3   OH232430   1.106   6.758   0.443  0.5335  0.3818  0.6261
 3624TIP3    H132431   1.104   6.841   0.492  0.4736 -0.3505  1.9088
 3624TIP3    H232432   1.187   6.761   0.393  0.5643  1.1843  0.7159
 3625TIP3   OH232433   6.063   2.311   1.008  0.0439 -0.2279 -0.1456
 3625TIP3    H132434   6.156   2.332   1.002 -0.0962  1.1826  1.6790
 3625TIP3    H232435   6.061   2.225   1.050  0.5278 -0.6522 -0.9779
 3626TIP3   OH232436   1.438   2.808   2.242  0.4402  0.1532 -0.0741
 3626TIP3    H132437   1.395   2.863   2.176 -0.4975 -0.2651  0.1742
 3626TIP3    H232438   1.528   2.801   2.212 -0.0117 -0.1997 -1.4450
 3627TIP3   OH232439   6.674   0.795   0.978 -0.6907  0.4855 -0.6471
 3627TIP3    H132440   6.746   0.777   1.038 -1.9659 -0.4186  0.6810
 3627TIP3    H232441   6.601   0.743   1.012 -2.4535  2.5984 -1.0002
 3628TIP3   OH232442   3.098   1.041   0.845 -0.1740 -0.1342  0.5444
 3628TIP3    H132443   3.015   1.085   0.826 -0.6696 -1.0926  0.4701
 3628TIP3    H232444   3.074   0.952   0.868  0.8191 -0.3473  0.8074
 3629TIP3   OH232445   2.066   4.107   2.821 -0.1044  0.2266  0.9494
 3629TIP3    H132446   1.991   4.048   2.832 -0.8462  1.0738  0.5689
 3629TIP3    H232447   2.104   4.114   2.909 -2.7859  2.7639  2.0934
 3630TIP3   OH232448   4.247   6.695   3.392  0.2490  0.2660 -0.2621
 3630TIP3    H132449   4.264   6.731   3.479 -0.7186  0.8533 -0.3057
 3630TIP3    H232450   4.326   6.716   3.342  0.6952  0.1745  0.3866
 3631TIP3   OH232451   2.389   3.486   0.900  0.2317 -0.1586 -0.0024
 3631TIP3    H132452   2.348   3.505   0.984  0.4473  0.7157 -0.0865
 3631TIP3    H232453   2.481   3.509   0.912  0.8065 -2.3977  0.2828
 3632TIP3   OH232454   3.454   6.617   6.926  0.0225  0.5048  0.2350
 3632TIP3    H132455   3.409   6.700   6.911  2.2445  1.5410 -1.2432
 3632TIP3    H232456   3.416   6.557   6.862  0.8560  1.4498 -1.2035
 3633TIP3   OH232457   0.376   2.937   7.763  0.7457  0.0148  0.0523
 3633TIP3    H132458   0.340   2.973   7.682 -0.1454  1.5677  1.0826
 3633TIP3    H232459   0.423   2.858   7.736 -1.0655 -0.5275 -1.7347
 3634TIP3   OH232460   5.192   3.167   0.717  0.2997 -0.1403  0.2695
 3634TIP3    H132461   5.096   3.163   0.712  0.3964 -2.4757 -1.7936
 3634TIP3    H232462   5.219   3.206   0.634  1.1618 -2.0099 -0.3794
 3635TIP3   OH232463   2.451   5.853   2.290  0.4770  0.2871  0.4356
 3635TIP3    H132464   2.390   5.904   2.236  1.0588  2.0688  1.3661
 3635TIP3    H232465   2.524   5.834   2.231 -0.3083 -0.6319 -0.2830
 3636TIP3   OH232466   4.319   1.398   8.463  0.2337 -0.2337 -0.4121
 3636TIP3    H132467   4.364   1.324   8.504 -2.0582 -1.3726  0.2615
 3636TIP3    H232468   4.353   1.475   8.509  0.3417 -1.1727  1.1694
 3637TIP3   OH232469   5.393   3.705   1.959  0.1883  0.2225  0.0521
 3637TIP3    H132470   5.328   3.760   1.917  0.7509  0.3075 -0.7304
 3637TIP3    H232471   5.447   3.766   2.010  1.6791  0.6446 -1.9166
 3638TIP3   OH232472   6.374   0.973   7.941  0.8167 -0.2165  0.0422
 3638TIP3    H132473   6.433   0.965   7.866  0.6214 -0.8292 -0.0545
 3638TIP3    H232474   6.296   0.923   7.915  0.8377 -0.6197  0.7420
 3639TIP3   OH232475   1.598   2.353   0.932  0.1887 -0.0183 -0.0444
 3639TIP3    H132476   1.640   2.267   0.939  1.5864  0.6206 -0.3402
 3639TIP3    H232477   1.669   2.414   0.914 -0.7808  1.2192  0.1489
 3640TIP3   OH232478   0.116   5.318   0.692 -0.3910 -0.4546  0.1037
 3640TIP3    H132479   0.072   5.248   0.740 -1.1441 -0.9923 -1.3142
 3640TIP3    H232480   0.066   5.397   0.715  0.1012 -0.4630  1.2510
 3641TIP3   OH232481   1.183   3.684   2.920 -0.2314 -0.5025  0.6945
 3641TIP3    H132482   1.176   3.779   2.922  0.1270 -0.4811  1.7258
 3641TIP3    H232483   1.181   3.658   3.012 -0.6552 -1.5212  0.4177
 3642TIP3   OH232484   1.178   2.165   2.641 -0.2749  0.0283  0.1726
 3642TIP3    H132485   1.141   2.118   2.716  1.7900 -3.4936 -0.8114
 3642TIP3    H232486   1.112   2.154   2.571  0.2157 -1.5852 -0.0670
 3643TIP3   OH232487   4.764   5.485   0.844 -0.5290 -0.0837 -0.3680
 3643TIP3    H132488   4.801   5.554   0.789  0.2074 -1.0163 -1.0735
 3643TIP3    H232489   4.839   5.445   0.887 -1.0697  0.4260  1.1197
 3644TIP3   OH232490   3.514   0.871   1.717 -0.3426 -0.3490 -0.0528
 3644TIP3    H132491   3.551   0.947   1.674 -1.2265  0.3067  0.3251
 3644TIP3    H232492   3.490   0.902   1.804 -0.8674 -1.0132  0.0481
 3645TIP3   OH232493   1.720   4.141   2.216 -0.4487  0.0012  0.3044
 3645TIP3    H132494   1.635   4.173   2.185  0.2417  0.2015 -1.4515
 3645TIP3    H232495   1.721   4.048   2.192 -1.4814 -0.9051  3.3043
 3646TIP3   OH232496   6.134   0.287   2.659 -0.3626  0.7051  0.1592
 3646TIP3    H132497   6.112   0.232   2.584 -0.0710  2.0478 -0.9483
 3646TIP3    H232498   6.057   0.281   2.716 -1.6518  1.5219 -1.3910
 3647TIP3   OH232499   6.695   1.172   8.297  0.0016 -0.2999 -0.0432
 3647TIP3    H132500   6.627   1.163   8.364  0.0518  1.8923  0.3679
 3647TIP3    H232501   6.646   1.194   8.217  0.2094  2.4338  0.5014
 3648TIP3   OH232502   1.327   0.475   0.042  0.4201  0.1097 -0.4042
 3648TIP3    H132503   1.301   0.528  -0.033  0.9685  0.3190 -0.4499
 3648TIP3    H232504   1.395   0.416   0.007  1.5183  0.9883  0.1680
 3649TIP3   OH232505   3.329   2.514   0.302  0.6140 -0.5550 -0.2385
 3649TIP3    H132506   3.299   2.438   0.253  0.2960  0.2836 -1.3717
 3649TIP3    H232507   3.343   2.582   0.236 -0.0453  0.6820  0.8482
 3650TIP3   OH232508   3.581   1.892   2.548 -0.3087  0.0938  0.0401
 3650TIP3    H132509   3.507   1.836   2.568  0.3883 -0.3442  1.5633
 3650TIP3    H232510   3.619   1.854   2.469 -1.0005 -0.3881 -0.0693
 3651TIP3   OH232511   6.825   3.541   0.814 -0.4785  0.1854  0.0409
 3651TIP3    H132512   6.819   3.628   0.854  0.2470 -1.0810  3.2182
 3651TIP3    H232513   6.918   3.529   0.797 -0.2588 -0.7169  1.6584
 3652TIP3   OH232514   6.280   6.318   0.716 -0.1128 -0.3204 -0.6210
 3652TIP3    H132515   6.311   6.409   0.719 -0.4835 -0.1595 -1.4713
 3652TIP3    H232516   6.360   6.266   0.724  0.3227  0.0860 -2.0937
 3653TIP3   OH232517   5.644   6.398   8.428 -0.4150  0.0213  0.2541
 3653TIP3    H132518   5.594   6.452   8.366  1.7123  0.7083 -0.9634
 3653TIP3    H232519   5.648   6.312   8.387 -0.0570  0.1445  0.0261
 3654TIP3   OH232520   3.169   0.863   0.366  0.3459 -0.2412  0.8516
 3654TIP3    H132521   3.083   0.823   0.369  0.4420 -0.7095 -1.1297
 3654TIP3    H232522   3.164   0.937   0.426 -1.6739  0.1947  0.1903
 3655TIP3   OH232523   5.274   5.141   8.198 -0.6281  0.3466  0.0830
 3655TIP3    H132524   5.287   5.051   8.227 -1.5676  0.4483  0.8679
 3655TIP3    H232525   5.245   5.134   8.107  0.8524 -0.0548 -0.3786
 3656TIP3   OH232526   5.887   0.155   2.972  0.0444 -0.3489 -0.1174
 3656TIP3    H132527   5.824   0.085   2.990 -0.6716  0.6274  1.3904
 3656TIP3    H232528   5.888   0.207   3.052  2.9138 -0.3961 -0.0236
 3657TIP3   OH232529   4.013   3.987   0.334  0.1905 -0.1626 -0.4735
 3657TIP3    H132530   4.071   3.996   0.410 -0.2498  0.6973 -0.2308
 3657TIP3    H232531   3.972   4.073   0.325 -0.7006 -0.6238 -0.9212
 3658TIP3   OH232532   3.517   5.773   1.715  0.6415 -0.3947 -0.0543
 3658TIP3    H132533   3.561   5.734   1.640 -1.6544 -0.8926 -1.2480
 3658TIP3    H232534   3.504   5.701   1.776  0.8975 -0.3787  0.0214
 3659TIP3   OH232535   5.916   6.745   7.218  0.1080 -0.7168 -0.0094
 3659TIP3    H132536   5.856   6.685   7.263  2.8393 -4.3085 -0.7226
 3659TIP3    H232537   5.995   6.746   7.273  0.7123  1.0952 -0.8275
 3660TIP3   OH232538   0.605   3.584   1.120  0.4444  0.3810  0.3709
 3660TIP3    H132539   0.634   3.606   1.032 -1.0437  1.0511  0.0269
 3660TIP3    H232540   0.667   3.517   1.149  0.7182 -0.1509 -1.3242
 3661TIP3   OH232541   6.785   4.815   1.014 -0.2902  0.2087 -0.2227
 3661TIP3    H132542   6.872   4.855   1.008 -1.5949  3.4598  0.2499
 3661TIP3    H232543   6.753   4.815   0.924 -0.1276 -0.2234 -0.2831
 3662TIP3   OH232544   0.885   0.199   8.240 -0.0150 -0.1864 -0.4554
 3662TIP3    H132545   0.945   0.129   8.265 -0.5805 -0.6967 -0.4928
 3662TIP3    H232546   0.798   0.160   8.249 -0.3441  0.5398 -0.3931
 3663TIP3   OH232547   5.635   0.168   0.505  0.0102 -0.1931 -0.1903
 3663TIP3    H132548   5.571   0.212   0.448  1.0030 -0.3063 -1.4456
 3663TIP3    H232549   5.636   0.220   0.585  0.3334  1.4560 -1.2113
 3664TIP3   OH232550   0.583   1.690   8.528 -0.1442 -0.6451 -0.2319
 3664TIP3    H132551   0.578   1.718   8.436  1.8622 -0.5258 -0.3580
 3664TIP3    H232552   0.503   1.725   8.568 -0.3810  0.5222 -1.6269
 3665TIP3   OH232553   3.895   0.039   0.084  0.3969  0.0069 -0.1689
 3665TIP3    H132554   3.841   0.003   0.154 -0.8589 -0.3424 -1.2613
 3665TIP3    H232555   3.938   0.115   0.123  0.9047 -1.0478  1.3764
 3666TIP3   OH232556   3.946   3.748   2.972 -0.2166 -0.0950  0.3045
 3666TIP3    H132557   3.983   3.779   3.055  1.4974  0.4226 -0.6136
 3666TIP3    H232558   3.954   3.653   2.977  2.5247  0.0308 -0.3710
 3667TIP3   OH232559   6.428   5.158   0.944  0.3147  0.0100  0.3046
 3667TIP3    H132560   6.391   5.171   0.857  1.2998 -0.5029 -0.2088
 3667TIP3    H232561   6.504   5.216   0.947  0.7319 -0.5415  0.5387
 3668TIP3   OH232562   2.578   4.574   1.816  0.0987 -0.5647  0.4835
 3668TIP3    H132563   2.521   4.531   1.880 -2.1956  1.2928 -0.1742
 3668TIP3    H232564   2.572   4.518   1.738 -1.1209 -0.2567  0.3272
 3669TIP3   OH232565   4.981   6.246   0.428 -0.2882 -0.0698 -0.3486
 3669TIP3    H132566   4.901   6.198   0.406 -1.5561  2.2701 -1.0933
 3669TIP3    H232567   5.036   6.180   0.471 -1.3134 -2.5665 -2.5478
 3670TIP3   OH232568   5.866   2.891   0.336 -0.4531  0.1917 -0.4370
 3670TIP3    H132569   5.790   2.948   0.345 -1.1023 -0.8838  1.6984
 3670TIP3    H232570   5.937   2.938   0.379 -0.9519 -0.4820  1.1909
 3671TIP3   OH232571   2.163   2.040   3.114 -0.3479 -0.5664  0.4166
 3671TIP3    H132572   2.083   1.989   3.103  0.5774 -2.4214  1.8238
 3671TIP3    H232573   2.135   2.131   3.105 -2.2418 -1.2498 -1.0816
 3672TIP3   OH232574   2.237   4.939   0.199  0.1260 -0.1474  0.2370
 3672TIP3    H132575   2.270   4.878   0.133 -0.2061  0.9679 -0.9999
 3672TIP3    H232576   2.300   5.011   0.199 -1.1869  1.0471 -0.7016
 3673TIP3   OH232577   4.196   5.397   1.874  0.1927 -0.1858  0.4550
 3673TIP3    H132578   4.180   5.303   1.881 -1.8300  0.1989  1.7621
 3673TIP3    H232579   4.259   5.416   1.944  0.4927 -0.5229  0.2815
 3674TIP3   OH232580   2.445   2.964   1.096  0.1076  0.0526 -0.5953
 3674TIP3    H132581   2.466   3.050   1.131  0.6263 -0.9185  1.6985
 3674TIP3    H232582   2.456   2.972   1.001  2.1500  1.9511 -0.2634
 3675TIP3   OH232583   2.666   1.346   1.012  0.6685  0.2338  0.1883
 3675TIP3    H132584   2.715   1.426   1.032  0.3603  0.2579  0.8808
 3675TIP3    H232585   2.708   1.279   1.066 -0.7723  0.4908  1.7218
 3676TIP3   OH232586   1.095   4.392   7.426 -0.5459  0.2063 -0.1798
 3676TIP3    H132587   1.028   4.429   7.370  0.2020  1.6266 -0.1831
 3676TIP3    H232588   1.177   4.434   7.397  0.2913 -1.1742  0.0820
 3677TIP3   OH232589   0.617   6.438   7.281  0.1472 -0.2762 -0.1216
 3677TIP3    H132590   0.614   6.342   7.277  3.0348 -0.4447 -0.6006
 3677TIP3    H232591   0.697   6.457   7.329 -1.1916  1.9535  1.3660
 3678TIP3   OH232592   2.925   3.502   0.665  0.1493  0.2732  0.1540
 3678TIP3    H132593   2.939   3.494   0.759 -0.8797  2.2077  0.5345
 3678TIP3    H232594   2.967   3.585   0.642  0.8494 -0.4271 -1.2209
 3679TIP3   OH232595   3.348   0.380   2.750 -0.5769  0.3107  0.3138
 3679TIP3    H132596   3.359   0.440   2.676  1.4724  1.3596  1.4001
 3679TIP3    H232597   3.418   0.403   2.810 -0.8235 -2.0273  1.5891
 3680TIP3   OH232598   6.550   1.037   3.085 -0.5489 -0.4085  0.1870
 3680TIP3    H132599   6.594   1.051   3.169 -0.6308  0.9428  0.0217
 3680TIP3    H232600   6.594   0.960   3.047 -0.3679 -0.8970  1.3512
 3681TIP3   OH232601   1.340   5.622   1.455 -0.0227 -0.2507 -0.0658
 3681TIP3    H132602   1.380   5.669   1.382  0.7058 -0.2871  0.3089
 3681TIP3    H232603   1.356   5.529   1.436 -1.6931 -0.4131 -0.9457
 3682TIP3   OH232604   2.402   4.248   2.335 -0.0379  0.1831 -0.2506
 3682TIP3    H132605   2.419   4.340   2.317  0.4405 -0.3715 -3.0254
 3682TIP3    H232606   2.307   4.239   2.324  0.0292  0.1891 -0.8623
 3683TIP3   OH232607   5.226   1.464   2.779 -0.4248 -0.4091  0.5720
 3683TIP3    H132608   5.164   1.391   2.781  0.9799 -1.7151 -0.6025
 3683TIP3    H232609   5.175   1.540   2.805 -2.2723 -1.5908  0.5646
 3684TIP3   OH232610   4.485   4.394   1.354  0.1414 -0.0351 -0.5177
 3684TIP3    H132611   4.460   4.314   1.309  0.2089 -0.5665  0.3654
 3684TIP3    H232612   4.418   4.458   1.328 -1.8814 -1.2616  1.3517
 3685TIP3   OH232613   4.625   6.573   3.212  0.3267 -0.1758 -0.2535
 3685TIP3    H132614   4.674   6.615   3.283  1.2359 -0.8507 -0.4616
 3685TIP3    H232615   4.670   6.490   3.197 -0.0449 -0.1989 -1.3977
 3686TIP3   OH232616   0.770   5.389   0.188 -0.3629 -0.1654  0.2619
 3686TIP3    H132617   0.865   5.399   0.194 -0.2119  0.0964 -1.8673
 3686TIP3    H232618   0.754   5.295   0.197  0.0164 -0.1390  1.2973
 3687TIP3   OH232619   5.944   6.595   3.577 -0.6201 -0.0350  0.4375
 3687TIP3    H132620   6.025   6.596   3.628 -0.6079  0.6509  0.4098
 3687TIP3    H232621   5.902   6.513   3.601  0.8136 -1.1783 -0.6915
 3688TIP3   OH232622   0.112   0.954   0.117  0.4916 -0.6502 -0.1845
 3688TIP3    H132623   0.155   0.896   0.181  1.1249  0.3253  0.3076
 3688TIP3    H232624   0.185   1.000   0.074 -0.0112  1.7339  1.3250
 3689TIP3   OH232625   5.062   5.478   0.007  0.1591  0.1695 -0.1911
 3689TIP3    H132626   5.062   5.497   0.101  1.9923  0.3285 -0.1870
 3689TIP3    H232627   4.985   5.422  -0.006  0.1044 -0.2099  1.4760
 3690TIP3   OH232628   0.372   6.166   3.418 -0.1343  0.4446  0.0156
 3690TIP3    H132629   0.386   6.261   3.410  2.6014  0.2592  1.2948
 3690TIP3    H232630   0.445   6.128   3.369  0.3245 -0.9080  1.6564
 3691TIP3   OH232631   3.262   3.191   3.491  0.3729  0.3822  0.1685
 3691TIP3    H132632   3.174   3.165   3.518  0.3598 -0.1185 -0.3243
 3691TIP3    H232633   3.299   3.112   3.453  1.2292  0.4513  0.8310
 3692TIP3   OH232634   1.753   4.627   0.131  0.4652 -0.2062  0.2305
 3692TIP3    H132635   1.756   4.722   0.136  0.2467  0.0506 -2.8576
 3692TIP3    H232636   1.682   4.602   0.191 -1.7287  1.8844 -1.3239
 3693TIP3   OH232637   0.954   4.753   7.449  0.3081  0.4499 -0.0735
 3693TIP3    H132638   1.041   4.727   7.418  1.1535 -0.1692  2.5436
 3693TIP3    H232639   0.958   4.848   7.456  1.5366  0.3140  1.8604
 3694TIP3   OH232640   1.895   6.604   0.376  1.1622  0.3593  0.4457
 3694TIP3    H132641   1.988   6.589   0.387  1.0863 -1.3988 -0.9015
 3694TIP3    H232642   1.855   6.518   0.383 -0.3946  1.0879  1.0916
 3695TIP3   OH232643   3.571   5.283   0.094 -0.3257  0.0957  0.1710
 3695TIP3    H132644   3.614   5.201   0.116 -3.8818 -1.0175  4.2604
 3695TIP3    H232645   3.624   5.351   0.136  0.3444 -0.5715  0.4181
 3696TIP3   OH232646   6.616   0.903   7.823 -0.2437 -0.2345 -1.0531
 3696TIP3    H132647   6.657   0.825   7.786  0.9656 -0.2378  0.2431
 3696TIP3    H232648   6.668   0.976   7.789  0.3536 -0.1864 -0.0676
 3697TIP3   OH232649   0.970   1.807   0.193  0.1429  0.2235 -0.2550
 3697TIP3    H132650   1.006   1.811   0.104  1.3653  0.6444  0.2428
 3697TIP3    H232651   1.039   1.767   0.245 -1.5707 -2.6412  0.0335
 3698TIP3   OH232652   3.358   3.066   7.943  0.0898  0.4302  0.5087
 3698TIP3    H132653   3.324   3.135   7.886 -0.9142 -0.8223 -0.4863
 3698TIP3    H232654   3.416   3.015   7.886 -2.4861 -2.0612 -0.1071
 3699TIP3   OH232655   0.972   5.685   1.269  0.1047  0.2984  0.5669
 3699TIP3    H132656   0.977   5.709   1.362  2.1933 -1.6636  1.0582
 3699TIP3    H232657   0.936   5.596   1.270  0.6196  0.0685 -0.4420
 3700TIP3   OH232658   5.309   0.537   2.317  0.1591  0.1819 -0.0369
 3700TIP3    H132659   5.327   0.627   2.288  2.1572 -0.0365  0.3608
 3700TIP3    H232660   5.391   0.490   2.301 -0.5382 -1.3418  0.6743
 3701TIP3   OH232661   5.907   2.143   3.125  0.1259 -0.4342 -0.0429
 3701TIP3    H132662   5.921   2.203   3.198 -0.0588 -0.2918 -0.1222
 3701TIP3    H232663   5.995   2.113   3.101  0.3820  0.9313 -0.9462
 3702TIP3   OH232664   6.649   2.648   0.122  0.5415  0.0408  0.5091
 3702TIP3    H132665   6.687   2.567   0.086 -0.0480  0.3285 -0.8264
 3702TIP3    H232666   6.556   2.643   0.099 -0.3224 -0.6297  3.6808
 3703TIP3   OH232667   5.543   6.441   2.625 -0.4344  0.5487 -0.5558
 3703TIP3    H132668   5.534   6.447   2.530 -1.3156 -0.5746 -0.5676
 3703TIP3    H232669   5.630   6.405   2.639  0.6686  2.9307 -0.8173
 3704TIP3   OH232670   6.111   6.679   3.115  0.9666 -0.0808 -0.1674
 3704TIP3    H132671   6.045   6.691   3.046  1.9058  0.8600 -0.9264
 3704TIP3    H232672   6.072   6.720   3.192 -0.4414 -1.8416  0.1371
 3705TIP3   OH232673   2.019   6.805   3.045  0.6567 -0.1011 -0.2315
 3705TIP3    H132674   1.969   6.864   2.989 -1.5585  0.5161  2.1471
 3705TIP3    H232675   2.020   6.721   2.998 -1.0955  0.3833 -1.2093
 3706TIP3   OH232676   1.357   1.343   0.786 -0.3560 -0.2049  0.1964
 3706TIP3    H132677   1.310   1.326   0.704 -1.0876 -0.8388  0.7196
 3706TIP3    H232678   1.441   1.299   0.776 -1.2775 -2.1815  0.5791
 3707TIP3   OH232679   6.206   1.295   8.374  0.4743  0.0704 -0.6104
 3707TIP3    H132680   6.253   1.211   8.376 -1.8049 -1.3045 -0.6574
 3707TIP3    H232681   6.122   1.274   8.334 -0.8352  2.0384  0.9320
 3708TIP3   OH232682   5.934   0.830   0.983  0.3927 -0.2210  0.2155
 3708TIP3    H132683   5.942   0.913   1.030 -0.2525 -0.3905  0.6422
 3708TIP3    H232684   5.908   0.767   1.050 -2.0147 -0.1803 -0.5815
 3709TIP3   OH232685   1.493   2.210   8.065  0.0353 -0.0938 -0.6186
 3709TIP3    H132686   1.529   2.258   8.139  0.3196  0.3800 -1.0639
 3709TIP3    H232687   1.568   2.188   8.011 -0.4111  1.9034 -2.1490
 3710TIP3   OH232688   5.867   3.523   3.471 -0.4703 -0.3055 -0.0568
 3710TIP3    H132689   5.898   3.447   3.421 -0.0585 -0.3160  0.2099
 3710TIP3    H232690   5.784   3.495   3.508 -0.9270 -0.1990 -0.9678
 3711TIP3   OH232691   0.509   0.702   1.823  0.0947  0.0773  0.7791
 3711TIP3    H132692   0.562   0.654   1.887  0.1360 -0.6338  0.2160
 3711TIP3    H232693   0.569   0.766   1.785  0.2323  0.0818  0.9992
 3712TIP3   OH232694   2.514   1.472   3.728  0.5394 -0.2419  0.4287
 3712TIP3    H132695   2.603   1.442   3.710  1.2940  2.4397 -0.6148
 3712TIP3    H232696   2.524   1.535   3.800 -0.2980  1.1274 -0.6190
 3713TIP3   OH232697   0.146   2.060   8.329  0.0037 -0.2694  0.5136
 3713TIP3    H132698   0.104   2.078   8.413 -0.4625  0.6356  0.1005
 3713TIP3    H232699   0.121   2.134   8.274  0.3103 -0.8503 -0.4207
 3714TIP3   OH232700   5.576   3.165   7.562  0.1156 -0.1589  0.0686
 3714TIP3    H132701   5.647   3.105   7.585 -0.1592 -0.1642  0.9453
 3714TIP3    H232702   5.557   3.146   7.470  0.0880 -1.3634  0.3092
 3715TIP3   OH232703   3.671   3.044   2.249 -0.6662  0.0060 -0.1910
 3715TIP3    H132704   3.712   3.032   2.335 -1.5083 -2.4906 -0.0486
 3715TIP3    H232705   3.625   3.127   2.255  0.6427  0.6848  1.1763
 3716TIP3   OH232706   0.473   1.928   0.461 -0.2804  0.6870  0.2708
 3716TIP3    H132707   0.521   2.010   0.477 -0.1134  0.4956  0.7838
 3716TIP3    H232708   0.390   1.957   0.425 -1.2277  1.2824  2.7011
 3717TIP3   OH232709   2.092   3.858   2.618 -0.7566  0.4198  0.6003
 3717TIP3    H132710   2.085   3.801   2.694 -1.0725 -0.3245  0.0269
 3717TIP3    H232711   2.058   3.942   2.647 -2.4501 -0.3013  0.8255
 3718TIP3   OH232712   0.010   1.250   2.447 -0.0617  0.0991  0.3648
 3718TIP3    H132713   0.072   1.186   2.413  0.6003  0.2551  1.2320
 3718TIP3    H232714   0.038   1.333   2.409 -0.0318  0.0910  0.3690
 3719TIP3   OH232715   3.190   1.218   2.581  0.4629 -0.0589  0.2591
 3719TIP3    H132716   3.165   1.273   2.655  0.7865  0.5780 -0.0979
 3719TIP3    H232717   3.283   1.199   2.594  0.4203 -0.2931  0.2339
 3720TIP3   OH232718   4.292   6.771   8.461 -0.8899  0.5390  0.5577
 3720TIP3    H132719   4.213   6.779   8.407  0.2136  0.2299 -1.1639
 3720TIP3    H232720   4.288   6.682   8.495  0.5349 -0.9214 -2.6480
 3721TIP3   OH232721   5.800   2.545   2.659  0.2570 -0.2566 -0.1742
 3721TIP3    H132722   5.895   2.538   2.647  0.4168  1.4673 -0.0837
 3721TIP3    H232723   5.787   2.527   2.752  0.4034 -1.1307 -0.3097
 3722TIP3   OH232724   5.076   4.356   1.282 -0.1231 -0.2033  0.4071
 3722TIP3    H132725   4.981   4.367   1.278 -0.0225  1.0765  1.1097
 3722TIP3    H232726   5.110   4.418   1.217  0.2682 -0.0136  0.7908
 3723TIP3   OH232727   1.488   0.648   2.879 -0.1009  0.0100 -0.2300
 3723TIP3    H132728   1.401   0.668   2.844  0.4299 -0.8122 -2.1993
 3723TIP3    H232729   1.483   0.555   2.903  0.8071 -0.6730 -2.4567
 3724TIP3   OH232730   1.564   4.071   0.846  0.0469 -0.1544 -0.8983
 3724TIP3    H132731   1.562   4.157   0.804 -0.1503 -0.4774 -1.5685
 3724TIP3    H232732   1.529   4.087   0.934  1.6167  0.7653 -0.3931
 3725TIP3   OH232733   3.929   6.880   3.244  0.2668 -0.1141 -0.0289
 3725TIP3    H132734   4.009   6.899   3.194  1.0787 -0.8626  0.9582
 3725TIP3    H232735   3.948   6.912   3.332 -1.1055  1.0773 -0.1312
 3726TIP3   OH232736   1.166   5.484   0.020  0.0180  0.2481  0.0354
 3726TIP3    H132737   1.092   5.532  -0.017 -1.1543 -0.5387  1.2801
 3726TIP3    H232738   1.166   5.509   0.113  1.9161  0.9600 -0.1006
 3727TIP3   OH232739   2.266   2.708   8.114  0.2241  0.0542 -0.4112
 3727TIP3    H132740   2.277   2.741   8.203 -0.1022 -0.9597  0.0213
 3727TIP3    H232741   2.354   2.710   8.076  0.6226 -0.8537  0.4296
 3728TIP3   OH232742   0.120   5.405   8.059 -0.2289 -0.3556 -0.1282
 3728TIP3    H132743   0.037   5.453   8.059 -0.1760 -0.2466  0.7774
 3728TIP3    H232744   0.101   5.323   8.104  0.6690  0.6548  2.2664
 3729TIP3   OH232745   5.301   2.737   7.785  0.0328 -0.3997  0.5355
 3729TIP3    H132746   5.244   2.693   7.722  0.1903  0.6196 -0.3560
 3729TIP3    H232747   5.242   2.797   7.832  0.2937  0.4755 -0.2173
 3730TIP3   OH232748   6.401   1.061   1.326 -0.3064  0.5086 -0.7977
 3730TIP3    H132749   6.334   1.071   1.258  0.9446  1.2872 -1.9797
 3730TIP3    H232750   6.474   1.116   1.296  1.1055 -0.7662  0.1248
 3731TIP3   OH232751   5.906   5.586   0.913  0.0007 -0.0571  0.2670
 3731TIP3    H132752   5.812   5.603   0.908 -0.2455 -1.1299  0.9991
 3731TIP3    H232753   5.916   5.496   0.882  0.8435  0.1917 -0.2179
 3732TIP3   OH232754   6.087   2.064   1.129 -0.0681  0.1782 -0.3142
 3732TIP3    H132755   6.074   1.980   1.085  1.0388  0.4002 -1.1043
 3732TIP3    H232756   6.120   2.041   1.216 -0.4716 -0.2211 -0.2657
 3733TIP3   OH232757   3.848   1.185   3.111 -0.2222  0.3548  0.2866
 3733TIP3    H132758   3.764   1.189   3.065  1.0732 -0.9289 -2.4443
 3733TIP3    H232759   3.833   1.120   3.180 -1.5615  0.3349  0.0207
 3734TIP3   OH232760   4.545   2.275   2.291  0.0860  0.1941 -0.5887
 3734TIP3    H132761   4.618   2.308   2.343 -0.1467 -2.7770  1.8600
 3734TIP3    H232762   4.502   2.354   2.257  2.9247  2.0926 -0.0596
 3735TIP3   OH232763   4.426   2.076   1.691 -0.1784 -0.2274 -0.5124
 3735TIP3    H132764   4.431   2.000   1.632  0.7254 -0.9344  0.4271
 3735TIP3    H232765   4.332   2.091   1.703 -0.4088 -1.9837  0.2190
 3736TIP3   OH232766   1.414   3.078   7.926  0.4159  0.6117  0.3604
 3736TIP3    H132767   1.456   2.992   7.927 -0.1127  0.3379  2.5269
 3736TIP3    H232768   1.487   3.140   7.926  0.9203  0.1333  2.9882
 3737TIP3   OH232769   1.354   6.458   8.233 -0.5305  0.7270  0.0641
 3737TIP3    H132770   1.267   6.440   8.269 -0.9196  0.6008 -0.9072
 3737TIP3    H232771   1.390   6.372   8.213 -1.1555  0.8240 -1.7228
 3738TIP3   OH232772   2.573   2.051   0.759  0.6968 -0.5981 -0.4512
 3738TIP3    H132773   2.582   2.006   0.843 -0.8523  0.1700  0.1661
 3738TIP3    H232774   2.612   2.138   0.774 -1.1119  0.1674  0.0493
 3739TIP3   OH232775   4.772   2.523   2.059 -0.0684  0.1235  0.1355
 3739TIP3    H132776   4.721   2.545   1.981  0.7591 -1.6330 -0.9731
 3739TIP3    H232777   4.861   2.506   2.026  0.7244  1.0040  1.7083
 3740TIP3   OH232778   4.616   5.424   1.869  0.0417 -0.3388  0.0387
 3740TIP3    H132779   4.698   5.376   1.882  0.3232  0.2271  0.4000
 3740TIP3    H232780   4.552   5.374   1.919  0.2155 -0.6441 -0.0376
 3741TIP3   OH232781   5.284   1.591   2.287  0.3750 -0.1025  0.3318
 3741TIP3    H132782   5.297   1.549   2.372 -1.9566  0.2816  0.9449
 3741TIP3    H232783   5.225   1.532   2.240  0.6336  0.3217 -0.5554
 3742TIP3   OH232784   4.428   5.776   2.297  0.7379  0.0235 -0.1153
 3742TIP3    H132785   4.520   5.789   2.322  0.8563 -2.0602  0.7887
 3742TIP3    H232786   4.381   5.772   2.380 -0.2458  1.2711 -0.5742
 3743TIP3   OH232787   4.727   4.681   1.536 -0.2958 -0.4010  0.4241
 3743TIP3    H132788   4.721   4.610   1.473 -1.0502 -0.2180  0.2802
 3743TIP3    H232789   4.821   4.688   1.555  0.2230  0.6923 -2.0232
 3744TIP3   OH232790   4.426   4.502   2.440  0.3288 -0.4747  0.3162
 3744TIP3    H132791   4.415   4.587   2.398  2.8116 -0.7628 -1.1466
 3744TIP3    H232792   4.488   4.519   2.511 -1.3449 -0.6034  1.8722
 3745TIP3   OH232793   0.809   4.142   1.390  0.5550  0.3053  0.0444
 3745TIP3    H132794   0.814   4.223   1.441  0.1785 -0.3662  1.1803
 3745TIP3    H232795   0.843   4.074   1.448 -1.4207 -0.7574  0.0610
 3746TIP3   OH232796   0.291   3.498   0.079  0.2149  0.4542 -0.0699
 3746TIP3    H132797   0.374   3.491   0.032  0.9722  1.1584  1.1089
 3746TIP3    H232798   0.227   3.457   0.021  1.4063 -0.2511 -0.9345
 3747TIP3   OH232799   0.690   5.969   1.157 -0.6097 -0.1293  0.3155
 3747TIP3    H132800   0.760   5.997   1.099  1.4416  1.0293  3.0999
 3747TIP3    H232801   0.618   6.029   1.139 -0.0021  0.2669 -0.9025
 3748TIP3   OH232802   5.294   0.144   2.419  0.1625 -0.1910  0.2855
 3748TIP3    H132803   5.267   0.198   2.493  0.4371 -1.3199  1.2333
 3748TIP3    H232804   5.212   0.118   2.377 -0.1375 -1.2652  1.4626
 3749TIP3   OH232805   5.637   1.164   0.483 -0.0753 -0.0672 -0.2519
 3749TIP3    H132806   5.710   1.107   0.508  0.9443  0.7767 -1.2345
 3749TIP3    H232807   5.628   1.225   0.557 -0.0484 -0.4269  0.0496
 3750TIP3   OH232808   5.971   5.131   2.237  0.1970 -0.4832  0.1395
 3750TIP3    H132809   5.983   5.093   2.150  0.0275 -0.5703  0.1540
 3750TIP3    H232810   5.941   5.058   2.291 -0.7158 -0.1968  0.0282
 3751TIP3   OH232811   3.812   4.364   0.580  0.3583  0.2719  0.2879
 3751TIP3    H132812   3.749   4.348   0.510  0.7026  0.1449  0.0102
 3751TIP3    H232813   3.859   4.443   0.553  1.4474 -0.5551 -0.3043
 3752TIP3   OH232814   5.280   0.027   7.689  0.2415  0.0019  0.0253
 3752TIP3    H132815   5.335  -0.044   7.723 -1.5624 -0.5151  2.0857
 3752TIP3    H232816   5.316   0.046   7.602  1.1576 -3.0352 -0.3718
 3753TIP3   OH232817   6.529   5.889   1.729  0.2692  0.2817 -0.2133
 3753TIP3    H132818   6.497   5.804   1.700 -1.5934  0.5722  0.8239
 3753TIP3    H232819   6.452   5.932   1.767  1.8425  1.1619  2.1788
 3754TIP3   OH232820   1.414   4.197   2.818  0.1386 -0.1661  0.5514
 3754TIP3    H132821   1.506   4.220   2.809  0.4682 -1.4499  0.4577
 3754TIP3    H232822   1.414   4.104   2.841 -1.1903 -0.7799 -1.6310
 3755TIP3   OH232823   3.937   0.279   0.975 -0.2630 -0.3789 -0.3913
 3755TIP3    H132824   3.847   0.310   0.968 -0.3739 -0.3769  0.7891
 3755TIP3    H232825   3.929   0.185   0.989 -0.1091 -0.3270  0.0784
 3756TIP3   OH232826   0.036   6.581   2.944 -0.0570 -0.0581  0.0424
 3756TIP3    H132827   0.099   6.635   2.991 -2.3993  1.5215  1.5532
 3756TIP3    H232828  -0.049   6.605   2.981 -1.5360 -2.4629 -1.5227
 3757TIP3   OH232829   1.484   4.173   0.036 -0.1445  0.7199  0.0564
 3757TIP3    H132830   1.560   4.206   0.083  0.1363 -0.0662  0.1532
 3757TIP3    H232831   1.410   4.187   0.096  0.4213 -1.7348  1.4457
 3758TIP3   OH232832   4.938   5.189   7.680 -0.4140 -0.1372  0.0038
 3758TIP3    H132833   5.031   5.168   7.694 -0.6872 -0.8032  0.8859
 3758TIP3    H232834   4.899   5.106   7.653 -1.0282 -0.2064  1.0793
 3759TIP3   OH232835   0.726   5.950   7.710  0.3785  0.0822  0.4572
 3759TIP3    H132836   0.802   5.971   7.764 -0.5217  1.5517  1.2200
 3759TIP3    H232837   0.721   5.854   7.712  2.0667 -0.0460  0.5400
 3760TIP3   OH232838   1.614   4.532   1.292 -0.4918 -0.1601 -0.2417
 3760TIP3    H132839   1.647   4.607   1.342  0.5550 -0.3422 -0.6359
 3760TIP3    H232840   1.600   4.566   1.204 -0.2302 -0.3722 -0.3646
 3761TIP3   OH232841   0.167   1.683   0.884 -0.1188  0.4375  0.0419
 3761TIP3    H132842   0.207   1.648   0.804  0.0782 -0.6113  0.5714
 3761TIP3    H232843   0.074   1.690   0.863 -0.0194  0.4705 -0.3903
 3762TIP3   OH232844   5.876   3.298   2.671 -0.3512 -0.3525 -0.1335
 3762TIP3    H132845   5.948   3.360   2.680 -0.7905  0.2860 -0.8733
 3762TIP3    H232846   5.836   3.320   2.587 -1.1155 -1.0088  0.0473
 3763TIP3   OH232847   1.268   2.455   1.738 -0.1688 -0.4627 -0.2115
 3763TIP3    H132848   1.262   2.417   1.651  0.2738  0.3986 -0.6362
 3763TIP3    H232849   1.235   2.545   1.727  3.9965  1.2440 -0.5820
 3764TIP3   OH232850   5.252   1.378   0.865  0.4505  0.0877 -0.0398
 3764TIP3    H132851   5.167   1.402   0.900  0.3125 -0.4904  0.0459
 3764TIP3    H232852   5.273   1.446   0.801  0.3214  0.6951  0.5525
 3765TIP3   OH232853   6.290   3.455   0.875 -0.1420 -0.6618 -0.1175
 3765TIP3    H132854   6.333   3.535   0.847  0.5493 -1.5147 -1.6155
 3765TIP3    H232855   6.343   3.385   0.838 -0.9570 -1.8182  0.8094
 3766TIP3   OH232856   6.723   3.215   8.461 -0.3581 -0.6193  0.3060
 3766TIP3    H132857   6.642   3.195   8.507 -0.4743  0.5993  0.6451
 3766TIP3    H232858   6.775   3.134   8.467 -0.6080 -0.6721  2.0677
 3767TIP3   OH232859   0.279   0.008   0.631  0.3081 -0.0719 -0.0954
 3767TIP3    H132860   0.290   0.091   0.679 -0.3497 -0.1144  0.1335
 3767TIP3    H232861   0.358   0.002   0.576 -0.5833  1.7609 -1.7026
 3768TIP3   OH232862   5.629   5.275   0.542 -0.2770  0.1153 -0.2399
 3768TIP3    H132863   5.647   5.194   0.589  0.3205  0.1837 -0.3350
 3768TIP3    H232864   5.687   5.271   0.465  0.7012  1.1995  0.4023
 3769TIP3   OH232865   2.876   2.455   3.246 -0.8259  1.1648 -0.2435
 3769TIP3    H132866   2.823   2.376   3.251 -0.1206  0.6807 -0.1949
 3769TIP3    H232867   2.840   2.513   3.313 -1.2270  0.8045 -0.1440
 3770TIP3   OH232868   1.711   1.857   8.366 -0.5372  0.5096 -0.2674
 3770TIP3    H132869   1.802   1.881   8.349 -0.6698  1.9939  0.9010
 3770TIP3    H232870   1.663   1.940   8.363 -1.8383 -0.2133 -0.6381
 3771TIP3   OH232871   6.898   6.099   0.567  0.1448 -0.1557  0.3214
 3771TIP3    H132872   6.815   6.096   0.521  0.0347  1.1553  0.3905
 3771TIP3    H232873   6.910   6.192   0.588  1.9924 -0.2027 -0.3677
 3772TIP3   OH232874   2.455   3.383   8.113  0.1275  0.6136 -0.0735
 3772TIP3    H132875   2.458   3.476   8.094 -1.3381  1.0987  1.7975
 3772TIP3    H232876   2.395   3.347   8.048  2.0327  0.5969 -1.9261
 3773TIP3   OH232877   4.283   3.567   2.825  0.9897  0.4531 -0.3340
 3773TIP3    H132878   4.205   3.564   2.880  1.6789 -0.3530  0.6431
 3773TIP3    H232879   4.325   3.650   2.846 -0.3936  1.6688 -2.0571
 3774TIP3   OH232880   3.488   2.719   0.107  0.0379 -0.7089 -0.5668
 3774TIP3    H132881   3.467   2.648   0.046 -0.6177 -0.4315 -0.6711
 3774TIP3    H232882   3.448   2.797   0.068  1.5426 -0.0801 -0.9422
 3775TIP3   OH232883   5.821   5.421   8.538 -0.2456  0.8017  0.2366
 3775TIP3    H132884   5.893   5.477   8.508  0.3874  2.0692  3.6594
 3775TIP3    H232885   5.746   5.480   8.545 -1.0225  0.0099 -1.0124
 3776TIP3   OH232886   4.477   5.184   0.929 -0.0915  0.2899 -0.0948
 3776TIP3    H132887   4.408   5.250   0.920 -0.1598  0.1748 -0.4342
 3776TIP3    H232888   4.429   5.103   0.946 -0.0911  0.0508 -1.1690
 3777TIP3   OH232889   2.728   3.884   1.649  0.4782  0.4845  0.4538
 3777TIP3    H132890   2.750   3.799   1.687  0.7221  1.2375  2.0621
 3777TIP3    H232891   2.676   3.928   1.716  1.8734  2.3074  0.4152
 3778TIP3   OH232892   6.284   4.044   3.277  0.0867 -0.1628  0.3913
 3778TIP3    H132893   6.246   4.024   3.191  0.3874 -1.0168  0.4467
 3778TIP3    H232894   6.219   4.099   3.320 -0.6127 -0.7314  0.0795
 3779TIP3   OH232895   5.897   6.028   0.962  0.7214 -0.2208 -0.6317
 3779TIP3    H132896   5.806   6.048   0.986  0.8138  0.9574 -1.1836
 3779TIP3    H232897   5.918   5.949   1.012 -0.1262  0.3231  0.6358
 3780TIP3   OH232898   4.386   0.206   2.254  0.4922  0.4598 -0.1819
 3780TIP3    H132899   4.410   0.125   2.300  0.2957  1.5346  1.9487
 3780TIP3    H232900   4.340   0.176   2.176  1.5871 -1.4911 -0.1606
 3781TIP3   OH232901   4.021   1.379   8.383 -0.5994  0.2001 -0.1629
 3781TIP3    H132902   4.111   1.349   8.391 -0.2946  1.4946  2.0743
 3781TIP3    H232903   4.004   1.379   8.288  1.1288 -1.6947 -0.5473
 3782TIP3   OH232904   3.996   0.866   0.619  0.3377 -1.1274 -0.4719
 3782TIP3    H132905   3.933   0.864   0.690 -0.2479 -1.4600 -0.9964
 3782TIP3    H232906   3.968   0.939   0.564 -1.1194 -2.7933 -2.0629
 3783TIP3   OH232907   0.719   4.628   7.427 -0.4821  0.1299  0.0841
 3783TIP3    H132908   0.718   4.612   7.333 -1.9656  2.5040 -0.3885
 3783TIP3    H232909   0.798   4.680   7.442  0.5446 -1.4589  0.4547
 3784TIP3   OH232910   1.592   4.272   1.216 -0.0455  0.4231 -0.4457
 3784TIP3    H132911   1.542   4.352   1.231  0.7512  0.8569 -0.0498
 3784TIP3    H232912   1.559   4.210   1.281  0.8259  1.1231  0.6983
 3785TIP3   OH232913   4.554   1.883   7.785 -0.3018 -0.1533 -0.1240
 3785TIP3    H132914   4.491   1.842   7.725 -0.1775 -0.4370 -0.0644
 3785TIP3    H232915   4.635   1.835   7.771  1.0716  2.6602 -3.0238
 3786TIP3   OH232916   2.362   4.554   2.421  0.5594  0.1734 -0.2446
 3786TIP3    H132917   2.271   4.544   2.449  0.3824 -0.4452 -0.9863
 3786TIP3    H232918   2.357   4.603   2.339  0.9579  0.7165  0.0415
 3787TIP3   OH232919   3.378   1.835   0.223  0.8442 -0.0526  0.0276
 3787TIP3    H132920   3.370   1.745   0.193  0.5789  0.4836 -1.5934
 3787TIP3    H232921   3.460   1.837   0.272  2.2985 -0.5891 -2.2391
 3788TIP3   OH232922   4.207   2.146   1.041 -0.3078  0.0676  0.4997
 3788TIP3    H132923   4.201   2.230   1.088 -1.2838  0.1413  0.2606
 3788TIP3    H232924   4.294   2.147   1.002 -0.1649  0.8047  0.8119
 3789TIP3   OH232925   1.978   4.967   1.814  0.0626  0.3151 -0.0919
 3789TIP3    H132926   2.032   4.981   1.892 -1.0200  0.2501  0.6920
 3789TIP3    H232927   1.893   4.940   1.848 -0.9486  1.8620 -1.2043
 3790TIP3   OH232928   6.795   0.526   2.193 -0.1389 -0.0060  0.0287
 3790TIP3    H132929   6.708   0.537   2.156 -0.1047  0.7166  0.1600
 3790TIP3    H232930   6.797   0.584   2.269 -0.4657 -2.0101  1.6532
 3791TIP3   OH232931   0.516   6.403   7.617  0.0825  0.7174  0.1327
 3791TIP3    H132932   0.606   6.392   7.586 -0.0323  1.0914 -0.3528
 3791TIP3    H232933   0.492   6.318   7.653  0.7180  0.6858  0.5010
 3792TIP3   OH232934   4.613   5.227   1.179 -0.0457 -0.3689  0.1754
 3792TIP3    H132935   4.569   5.238   1.095 -2.6748  0.2766  1.5365
 3792TIP3    H232936   4.576   5.146   1.215 -0.4103  0.3569  1.5058
 3793TIP3   OH232937   4.027   6.308   1.975 -0.1446 -0.5993  0.0371
 3793TIP3    H132938   4.019   6.292   2.069  0.4831 -1.0396  0.0216
 3793TIP3    H232939   3.951   6.265   1.937 -0.8981  0.3693  0.4241
 3794TIP3   OH232940   5.452   3.758   0.229  0.7207 -0.3745  0.1219
 3794TIP3    H132941   5.486   3.672   0.254 -2.0197 -1.1388  1.6420
 3794TIP3    H232942   5.397   3.741   0.152 -0.6056 -0.2123  1.0005
 3795TIP3   OH232943   5.149   6.089   1.838  0.0313 -0.2571  0.0205
 3795TIP3    H132944   5.219   6.084   1.773 -1.1293 -0.5187 -1.2693
 3795TIP3    H232945   5.083   6.026   1.806 -0.2524 -0.9640  1.8769
 3796TIP3   OH232946   5.948   0.263   0.505  0.1727  0.2233 -0.3682
 3796TIP3    H132947   5.863   0.308   0.504  0.2718  0.4244  0.0142
 3796TIP3    H232948   6.000   0.308   0.438 -1.3262 -2.5207 -3.6719
 3797TIP3   OH232949   4.253   5.874   1.343 -0.5052  0.3544  0.0791
 3797TIP3    H132950   4.167   5.869   1.302 -0.2231 -0.5519 -0.4308
 3797TIP3    H232951   4.285   5.962   1.321 -0.4939  0.0033 -1.4169
 3798TIP3   OH232952   2.894   5.073   3.045 -0.2395  0.5321 -0.0440
 3798TIP3    H132953   2.928   5.074   3.134 -0.1980 -0.1821 -0.0472
 3798TIP3    H232954   2.828   5.142   3.044  1.0422  1.8198  0.0114
 3799TIP3   OH232955   5.088   5.660   8.157 -0.0303 -0.1101 -0.2187
 3799TIP3    H132956   4.994   5.663   8.141 -0.6766 -1.5151  2.6911
 3799TIP3    H232957   5.116   5.574   8.126  0.0978 -0.1100 -0.1054
 3800TIP3   OH232958   6.148   3.638   8.121 -0.5832 -0.1555  0.3438
 3800TIP3    H132959   6.226   3.592   8.153 -0.8230 -1.0751 -0.3394
 3800TIP3    H232960   6.149   3.624   8.026 -0.7374  1.1764  0.1238
 3801TIP3   OH232961   3.538   1.112   0.592  0.0061 -0.0124  0.0813
 3801TIP3    H132962   3.567   1.114   0.683  0.7808  0.3843 -0.1690
 3801TIP3    H232963   3.593   1.047   0.550 -0.2383 -0.0762 -0.1464
 3802TIP3   OH232964   4.916   3.172   0.750  0.5441  0.4861  0.9316
 3802TIP3    H132965   4.828   3.199   0.776  0.1996  1.3082 -0.9473
 3802TIP3    H232966   4.904   3.116   0.674  1.6809  2.1251 -0.5379
 3803TIP3   OH232967   4.762   6.144   2.604  0.8068 -0.3705  0.4687
 3803TIP3    H132968   4.672   6.174   2.596  1.5226  1.5804 -1.0125
 3803TIP3    H232969   4.769   6.111   2.694 -0.9806  0.7853  1.0731
 3804TIP3   OH232970   4.055   4.142   1.705  0.1361  0.3306 -0.1657
 3804TIP3    H132971   4.061   4.237   1.717  0.5793  0.3446 -0.4489
 3804TIP3    H232972   4.045   4.107   1.793 -1.3401  0.7191 -0.1551
 3805TIP3   OH232973   6.191   6.455   1.359 -0.2309  0.2498 -0.1635
 3805TIP3    H132974   6.221   6.537   1.321  0.6668  1.0698  2.1170
 3805TIP3    H232975   6.109   6.436   1.314  0.3630  1.5193 -1.8757
 3806TIP3   OH232976   2.327   6.841   0.081  0.1500  0.3977  0.4429
 3806TIP3    H132977   2.399   6.895   0.113  0.6953  0.4262 -0.7755
 3806TIP3    H232978   2.319   6.771   0.146 -0.1758  1.5927  1.7267
 3807TIP3   OH232979   6.041   0.192   0.183  0.6312 -0.0690  0.0196
 3807TIP3    H132980   5.974   0.258   0.168 -0.8304 -0.7440  2.9567
 3807TIP3    H232981   6.104   0.234   0.241  1.1081 -0.4557 -0.2085
 3808TIP3   OH232982   5.541   0.028   1.274  0.3132  0.2916  0.3876
 3808TIP3    H132983   5.512  -0.023   1.350  0.8948 -0.3305  0.2024
 3808TIP3    H232984   5.526   0.119   1.299 -0.8831  0.0331  0.6704
 3809TIP3   OH232985   3.185   5.474   8.556  0.1136  0.3296  1.0578
 3809TIP3    H132986   3.196   5.569   8.548 -2.5197  0.6390  0.1927
 3809TIP3    H232987   3.218   5.439   8.474  1.2820  0.4485  1.4621
 3810TIP3   OH232988   0.300   2.034   0.266 -0.2433  0.6066  0.1110
 3810TIP3    H132989   0.215   2.038   0.309 -0.5289 -0.4320 -0.3187
 3810TIP3    H232990   0.293   2.097   0.194 -0.5875  0.6574  0.1851
 3811TIP3   OH232991   6.630   6.373   1.633 -0.1735 -0.7885  0.0687
 3811TIP3    H132992   6.550   6.422   1.652  0.4161  0.4101 -0.4101
 3811TIP3    H232993   6.640   6.381   1.538  1.9176  1.3987  0.3832
 3812TIP3   OH232994   0.583   4.317   1.012  0.1444  0.2642  0.0285
 3812TIP3    H132995   0.575   4.315   0.916 -1.4056 -0.1409  0.1536
 3812TIP3    H232996   0.648   4.385   1.028 -0.6990  1.4362 -1.2565
 3813TIP3   OH232997   5.459   3.904   2.148 -0.0895 -0.4995  0.4924
 3813TIP3    H132998   5.383   3.937   2.196 -0.9469 -0.9121 -0.5471
 3813TIP3    H232999   5.534   3.929   2.202 -1.0051 -0.7763  1.9335
 3814TIP3   OH233000   4.060   1.438   2.264 -0.0901  0.5501 -0.1017
 3814TIP3    H133001   4.085   1.530   2.272 -0.9797  0.7109  1.1809
 3814TIP3    H233002   4.131   1.398   2.214  0.7512  1.7483  0.0903
 3815TIP3   OH233003   3.600   4.313   0.092  0.2690  0.0892  0.7811
 3815TIP3    H133004   3.563   4.363   0.164 -0.6646 -0.4131  0.6656
 3815TIP3    H233005   3.596   4.222   0.121 -1.6305 -0.2983 -0.5088
 3816TIP3   OH233006   1.850   1.534   1.126  0.0564  0.2240 -0.3225
 3816TIP3    H133007   1.922   1.471   1.113  0.7837  1.2300 -1.4026
 3816TIP3    H233008   1.809   1.541   1.040  0.4336  1.7357 -0.4106
 3817TIP3   OH233009   2.418   0.021   0.739  1.1977  0.3193  0.7892
 3817TIP3    H133010   2.400  -0.010   0.650  0.3181 -0.3965  1.2004
 3817TIP3    H233011   2.336   0.060   0.768  1.1972 -0.2701  1.6129
 3818TIP3   OH233012   3.243   2.649   7.341  0.0824  0.4061 -0.3797
 3818TIP3    H133013   3.149   2.653   7.326  0.0739  0.8261 -0.2392
 3818TIP3    H233014   3.265   2.734   7.379  0.2182 -0.3273  1.2828
 3819TIP3   OH233015   5.406   1.145   0.329 -0.0584  0.2548 -0.2583
 3819TIP3    H133016   5.486   1.141   0.382  0.0308 -2.0051 -0.4319
 3819TIP3    H233017   5.341   1.186   0.386  0.9419  1.1587  0.2725
 3820TIP3   OH233018   3.380   0.783   7.432  0.4375 -0.4060 -0.2556
 3820TIP3    H133019   3.349   0.694   7.414 -0.6533  0.0501 -0.7162
 3820TIP3    H233020   3.419   0.812   7.350  0.2170 -0.2274 -0.2970
 3821TIP3   OH233021   5.943   1.253   8.172 -0.0136  0.2349  0.0868
 3821TIP3    H133022   6.008   1.236   8.104  1.1278  0.8628  1.0051
 3821TIP3    H233023   5.899   1.168   8.184  0.1357 -0.0164 -1.0374
 3822TIP3   OH233024   6.365   6.051   1.904  0.2000  0.6528 -0.0219
 3822TIP3    H133025   6.306   6.046   1.979 -0.2891  1.1896 -0.3626
 3822TIP3    H233026   6.452   6.034   1.940 -0.2175 -0.6409  0.4073
 3823TIP3   OH233027   1.677   3.284   1.470 -0.1114  0.2757 -0.1251
 3823TIP3    H133028   1.721   3.309   1.389 -0.0323  1.6093  0.3151
 3823TIP3    H233029   1.732   3.321   1.539  0.7177 -2.1636  0.6522
 3824TIP3   OH233030   0.374   1.090   0.429 -0.4620  0.1942 -0.2977
 3824TIP3    H133031   0.460   1.132   0.440 -0.7087  0.5043  0.4800
 3824TIP3    H233032   0.383   1.039   0.349  1.0689 -1.2865  0.7563
 3825TIP3   OH233033   0.058   2.936   0.426  0.5904 -0.8266  0.1272
 3825TIP3    H133034  -0.017   2.882   0.452 -1.0908  2.2674  2.3742
 3825TIP3    H233035   0.114   2.939   0.504  0.4082  0.9753  0.2214
 3826TIP3   OH233036   3.153   3.756   1.068 -0.0800 -0.5694  0.0318
 3826TIP3    H133037   3.086   3.815   1.102  0.1666 -0.3138  0.0876
 3826TIP3    H233038   3.162   3.689   1.136  0.3730 -0.0891  0.4634
 3827TIP3   OH233039   4.122   5.954   2.288  0.2279 -0.1066  0.0850
 3827TIP3    H133040   4.189   5.963   2.355  1.7386 -1.9029 -1.0749
 3827TIP3    H233041   4.164   5.985   2.208  0.4701 -2.9712 -1.0456
 3828TIP3   OH233042   6.151   6.514   1.988  0.1792 -0.7837  0.1869
 3828TIP3    H133043   6.074   6.457   1.980  0.9818 -1.9604  0.5041
 3828TIP3    H233044   6.122   6.587   2.042 -1.1246 -0.4305 -0.9423
 3829TIP3   OH233045   5.004   1.144   0.813  0.7187  0.6362 -0.1214
 3829TIP3    H133046   5.005   1.091   0.893  1.0536  2.4849  1.1584
 3829TIP3    H233047   5.096   1.156   0.791  0.6236 -0.2018 -1.0596
 3830TIP3   OH233048   6.156   2.345   7.105  0.4125 -0.0506 -0.0249
 3830TIP3    H133049   6.209   2.340   7.025  1.3527  1.0823  0.5112
 3830TIP3    H233050   6.143   2.438   7.119  0.2052 -0.2458  1.1179
 3831TIP3   OH233051   3.888   1.321   2.821  0.0976  0.1804  0.7277
 3831TIP3    H133052   3.799   1.296   2.845 -0.1157  0.4897  0.2733
 3831TIP3    H233053   3.895   1.300   2.728  1.1486 -1.6957  1.1630
 3832TIP3   OH233054   6.227   5.020   3.461  0.2025  0.0872 -0.1365
 3832TIP3    H133055   6.259   5.058   3.543  0.5877 -0.8711  0.1754
 3832TIP3    H233056   6.286   4.946   3.445  0.4372  0.5541 -1.5480
 3833TIP3   OH233057   3.555   0.134   8.043 -0.2116  0.0320  0.6443
 3833TIP3    H133058   3.515   0.182   8.115 -0.7471 -0.2314  0.5303
 3833TIP3    H233059   3.507   0.163   7.966 -0.3092 -0.4242  0.5300
 3834TIP3   OH233060   1.775   4.669   0.811 -0.6133 -0.5567 -0.1065
 3834TIP3    H133061   1.804   4.718   0.734 -3.0620  2.6827  0.8000
 3834TIP3    H233062   1.847   4.608   0.830  1.2915  0.5243 -3.2233
 3835TIP3   OH233063   3.215   5.978   2.579 -0.1661  0.1307  0.0194
 3835TIP3    H133064   3.192   6.071   2.587  2.1012  0.9127 -1.7182
 3835TIP3    H233065   3.180   5.951   2.494  0.8570 -0.0473 -0.3595
 3836TIP3   OH233066   6.421   1.893   2.733  0.4152 -0.2005  0.7858
 3836TIP3    H133067   6.387   1.895   2.823 -1.0131 -2.1114  0.3361
 3836TIP3    H233068   6.462   1.807   2.724  0.2494 -0.1672 -0.4920
 3837TIP3   OH233069   0.280   2.304   8.487 -0.0246 -0.3548  0.0696
 3837TIP3    H133070   0.250   2.285   8.576  1.3812  0.4786  0.7640
 3837TIP3    H233071   0.375   2.314   8.496  0.0242  0.7481 -1.3481
 3838TIP3   OH233072   0.577   3.349   8.211 -0.0156  0.0845  0.0441
 3838TIP3    H133073   0.658   3.397   8.197  1.3400 -2.4976 -1.7582
 3838TIP3    H233074   0.567   3.294   8.133 -2.2398 -1.4090  1.2573
 3839TIP3   OH233075   4.099   5.141   1.848 -0.1680  0.7892 -0.1000
 3839TIP3    H133076   4.005   5.138   1.827 -0.2312 -0.9642  0.2917
 3839TIP3    H233077   4.105   5.101   1.935  0.9003  1.3040  0.0695
 3840TIP3   OH233078   1.694   5.805   0.556  0.1800  0.4011  0.7815
 3840TIP3    H133079   1.764   5.869   0.563 -0.4712  1.6976 -2.6468
 3840TIP3    H233080   1.617   5.856   0.533 -0.8121 -1.4391 -0.1865
 3841TIP3   OH233081   3.751   5.005   1.089 -0.1000  0.0339  0.6740
 3841TIP3    H133082   3.744   5.094   1.123  0.6386 -0.1990  1.4735
 3841TIP3    H233083   3.844   4.985   1.093 -0.0599 -0.2389 -0.9362
 3842TIP3   OH233084   1.962   1.776   1.208 -0.2332 -0.9360  0.1021
 3842TIP3    H133085   2.057   1.792   1.212 -0.4423  0.2129  1.2123
 3842TIP3    H233086   1.954   1.685   1.179  1.1998 -0.8898 -0.5192
 3843TIP3   OH233087   2.939   0.396   1.347  0.1587 -0.0114  0.4038
 3843TIP3    H133088   2.921   0.312   1.304  0.7354  0.4234 -0.7254
 3843TIP3    H233089   2.853   0.426   1.377 -0.3567 -0.0936 -0.9090
 3844TIP3   OH233090   1.547   2.757   7.186 -0.3290  0.3173 -0.1033
 3844TIP3    H133091   1.623   2.754   7.244 -0.1872 -1.6768 -0.3074
 3844TIP3    H233092   1.531   2.665   7.163 -2.5571  0.7125 -0.3839
 3845TIP3   OH233093   6.223   0.856   0.997  0.0004 -0.2466  0.3498
 3845TIP3    H133094   6.230   0.810   0.913  2.4333 -1.5870  1.1879
 3845TIP3    H233095   6.182   0.793   1.056  2.0571 -0.9110  1.1469
 3846TIP3   OH233096   4.296   5.260   1.444  0.5331  0.8485  0.2904
 3846TIP3    H133097   4.281   5.167   1.459 -2.3306  0.8257 -1.8311
 3846TIP3    H233098   4.243   5.304   1.510 -0.9165  0.8790 -0.8490
 3847TIP3   OH233099   1.032   2.382   7.982 -0.0263  0.2908  0.8003
 3847TIP3    H133100   1.060   2.373   7.891 -1.8464 -0.5770  0.2858
 3847TIP3    H233101   0.937   2.387   7.978 -0.0757  2.4627  2.5177
 3848TIP3   OH233102   2.527   2.771   8.070 -0.3163  0.7610 -0.0115
 3848TIP3    H133103   2.573   2.753   8.152 -0.0057 -3.2613 -0.8638
 3848TIP3    H233104   2.594   2.810   8.013  0.5241  0.0376  0.4667
 3849TIP3   OH233105   2.127   4.446   2.864 -0.2847  0.4227 -0.5461
 3849TIP3    H133106   2.150   4.367   2.815  0.8497 -0.3602  1.1538
 3849TIP3    H233107   2.117   4.416   2.954 -0.4289  2.1226  0.0307
 3850TIP3   OH233108   3.854   0.765   0.052 -0.3419 -0.4181  0.2923
 3850TIP3    H133109   3.777   0.717   0.081 -0.0966 -0.2854  1.1993
 3850TIP3    H233110   3.894   0.709  -0.014 -1.9741  0.1435 -1.2518
 3851TIP3   OH233111   3.288   3.081   0.866 -0.0518 -0.4793 -0.0770
 3851TIP3    H133112   3.352   3.035   0.920 -0.3061 -1.6422 -0.7309
 3851TIP3    H233113   3.337   3.109   0.789  0.1087  0.3993  0.3306
 3852TIP3   OH233114   6.015   0.473   1.566 -0.6009 -0.2413  0.0285
 3852TIP3    H133115   6.089   0.504   1.513  0.0905 -0.9031  0.5805
 3852TIP3    H233116   5.952   0.440   1.502  0.8417 -2.4001 -0.3885
 3853TIP3   OH233117   3.398   5.399   3.078 -0.1414  0.1531  0.1303
 3853TIP3    H133118   3.455   5.380   3.153  1.9253 -1.6946 -1.7547
 3853TIP3    H233119   3.335   5.327   3.078 -0.8769  0.7888  0.7382
 3854TIP3   OH233120   4.122   1.942   1.300  0.5675  0.2175  0.7622
 3854TIP3    H133121   4.058   1.907   1.237 -0.7609  0.8502  1.7013
 3854TIP3    H233122   4.127   1.877   1.369 -0.0995  0.7704  1.3455
 3855TIP3   OH233123   3.182   2.663   0.033 -0.1671  0.5733 -0.3214
 3855TIP3    H133124   3.185   2.733  -0.032 -1.9811  1.7769  0.7946
 3855TIP3    H233125   3.107   2.610   0.008 -0.5519  0.7325  0.4465
 3856TIP3   OH233126   5.052   0.586   1.907 -0.7157  0.0377 -0.2397
 3856TIP3    H133127   5.085   0.496   1.905 -1.3653 -0.2039 -0.0688
 3856TIP3    H233128   5.060   0.616   1.816  0.1935  0.0690 -0.1625
 3857TIP3   OH233129   5.862   6.066   2.354 -0.3749  0.1004  0.4247
 3857TIP3    H133130   5.875   6.158   2.332  1.0318 -0.2672 -0.4288
 3857TIP3    H233131   5.951   6.029   2.357 -0.7362 -0.8018  2.7772
 3858TIP3   OH233132   5.186   4.988   1.063  0.0782 -0.2310  0.1464
 3858TIP3    H133133   5.099   5.012   1.030 -0.0102  1.2963  1.3636
 3858TIP3    H233134   5.242   4.986   0.986 -0.8012 -0.0887 -0.5090
 3859TIP3   OH233135   5.829   1.012   0.609  0.2409 -0.4164 -0.3321
 3859TIP3    H133136   5.910   1.034   0.562 -0.2519  1.6216 -0.3394
 3859TIP3    H233137   5.844   1.043   0.698  0.0240 -1.4545  0.0764
 3860TIP3   OH233138   4.478   1.555   2.022 -0.2281  0.0843  0.8043
 3860TIP3    H133139   4.520   1.634   1.987  0.3348  0.3624  2.0721
 3860TIP3    H233140   4.476   1.495   1.947  3.5999 -0.4123  0.8623
 3861TIP3   OH233141   1.578   6.292   8.278 -0.3514  0.2788  0.0092
 3861TIP3    H133142   1.613   6.346   8.207 -1.3829  0.4819 -0.3736
 3861TIP3    H233143   1.521   6.229   8.233  3.1453 -3.2501  0.0832
 3862TIP3   OH233144   6.459   4.101   1.485  0.5784  0.4942  0.4940
 3862TIP3    H133145   6.514   4.175   1.459  0.5682  0.2418 -0.2759
 3862TIP3    H233146   6.371   4.139   1.495  0.6605  0.6700  0.5528
 3863TIP3   OH233147   2.460   0.306   2.690  0.2898  0.6932  0.1197
 3863TIP3    H133148   2.525   0.364   2.729  0.4793  0.2791  0.4303
 3863TIP3    H233149   2.376   0.348   2.708  0.4374  0.9611  0.1833
 3864TIP3   OH233150   2.572   1.813   1.880  0.1000  0.3929  0.3776
 3864TIP3    H133151   2.490   1.774   1.852 -0.5829  1.5644  0.6923
 3864TIP3    H233152   2.631   1.738   1.893 -0.3529 -0.3468 -1.5664
 3865TIP3   OH233153   1.845   6.112   8.211 -0.2068  0.4216  0.1029
 3865TIP3    H133154   1.813   6.048   8.275 -0.1301 -0.1846 -0.4480
 3865TIP3    H233155   1.770   6.131   8.156 -0.1225  0.4819  0.0073
 3866TIP3   OH233156   2.813   0.359   0.778 -0.1780 -0.0290  0.0164
 3866TIP3    H133157   2.848   0.279   0.817  0.8057  0.6950  0.6965
 3866TIP3    H233158   2.721   0.361   0.804  0.6995  1.1158  3.7129
 3867TIP3   OH233159   3.854   3.662   1.646  0.4185 -0.2735  0.0486
 3867TIP3    H133160   3.876   3.624   1.561 -2.2057 -1.1693 -0.3112
 3867TIP3    H233161   3.833   3.753   1.628 -0.3865 -0.5282 -0.3186
 3868TIP3   OH233162   5.378   6.530   6.964  0.3335  0.4019 -0.2488
 3868TIP3    H133163   5.390   6.587   7.040  0.4032  0.8869 -0.6195
 3868TIP3    H233164   5.356   6.589   6.892 -2.3468 -0.2396 -0.0598
 3869TIP3   OH233165   6.640   3.123   2.152  0.6812  0.9757 -0.1953
 3869TIP3    H133166   6.713   3.129   2.091  1.0684 -1.6814 -0.1088
 3869TIP3    H233167   6.616   3.214   2.171  3.8416  1.9366 -0.3468
 3870TIP3   OH233168   2.184   4.200   0.946 -0.8153 -0.6193 -0.2885
 3870TIP3    H133169   2.131   4.192   1.025 -1.7678 -1.1529 -0.9562
 3870TIP3    H233170   2.233   4.282   0.957 -0.8337 -0.7612  0.8956
 3871TIP3   OH233171   4.995   2.658   0.569 -0.1112 -0.1377 -0.0784
 3871TIP3    H133172   4.968   2.652   0.661 -1.0833 -2.0480 -0.4461
 3871TIP3    H233173   5.090   2.653   0.572 -0.1812 -1.5607  0.7804
 3872TIP3   OH233174   4.728   1.099   2.810  0.2475  0.2202  0.3915
 3872TIP3    H133175   4.761   1.143   2.731 -0.1521  0.9144  0.6097
 3872TIP3    H233176   4.700   1.170   2.868 -3.7705 -0.2450 -0.6507
 3873TIP3   OH233177   0.858   1.480   3.171  0.1742  0.2762 -0.1914
 3873TIP3    H133178   0.896   1.567   3.159 -1.3795  0.8876 -1.0012
 3873TIP3    H233179   0.767   1.497   3.194 -0.1582 -1.1352 -0.3745
 3874TIP3   OH233180   1.936   2.374   8.164  0.2241 -0.4236 -0.1925
 3874TIP3    H133181   2.017   2.387   8.116 -0.4575  0.1138 -1.2245
 3874TIP3    H233182   1.884   2.453   8.145 -0.2139 -0.3718  1.1169
 3875TIP3   OH233183   6.382   2.623   1.319 -0.5272  1.1262 -0.3779
 3875TIP3    H133184   6.412   2.557   1.381 -0.7624  1.9059  0.5962
 3875TIP3    H233185   6.338   2.689   1.373  0.3175  2.4352 -1.2189
 3876TIP3   OH233186   0.949   3.003   7.951  0.2458 -0.4443  0.4621
 3876TIP3    H133187   0.979   2.918   7.918 -1.2378 -1.6772  2.0819
 3876TIP3    H233188   1.022   3.062   7.934  1.0329 -1.8459 -1.4056
 3877TIP3   OH233189   4.405   4.387   0.927  0.1454  0.2849 -0.2585
 3877TIP3    H133190   4.313   4.374   0.949  0.1108 -1.3881 -1.1570
 3877TIP3    H233191   4.408   4.374   0.832  1.0554  2.0827 -0.5089
 3878TIP3   OH233192   5.664   3.329   2.870  0.1092 -0.2278 -0.2389
 3878TIP3    H133193   5.717   3.324   2.790  1.1654 -0.2551  0.4340
 3878TIP3    H233194   5.727   3.356   2.937 -1.0016  0.9462  0.3613
 3879TIP3   OH233195   4.412   6.885   2.402 -0.6674 -0.0392 -0.5292
 3879TIP3    H133196   4.481   6.875   2.467  0.3441  0.3503 -1.5007
 3879TIP3    H233197   4.429   6.815   2.339  1.2758  2.2884 -2.8376
 3880TIP3   OH233198   5.015   2.208   0.764  0.3686  0.5286 -0.1676
 3880TIP3    H133199   5.010   2.288   0.816 -1.9726 -0.3495  1.0854
 3880TIP3    H233200   4.950   2.150   0.803  1.4308 -1.7123 -1.5479
 3881TIP3   OH233201   1.327   3.041   3.080  0.4469 -0.0431  0.4442
 3881TIP3    H133202   1.241   3.069   3.048  0.4179 -1.9032 -1.2512
 3881TIP3    H233203   1.339   3.091   3.161 -1.8484  0.8841  0.2943
 3882TIP3   OH233204   6.622   5.446   0.607 -0.4949  0.0235 -0.8603
 3882TIP3    H133205   6.602   5.354   0.590 -1.3929  0.2532 -1.1096
 3882TIP3    H233206   6.556   5.473   0.671  0.5590  0.1617  0.2035
 3883TIP3   OH233207   3.601   1.528   2.638  0.3441  0.4430  0.2005
 3883TIP3    H133208   3.534   1.482   2.587 -0.3895  1.2159  0.4382
 3883TIP3    H233209   3.557   1.607   2.669  0.9463  0.2578  1.5812
 3884TIP3   OH233210   4.239   0.777   2.925 -0.1157  0.9610  0.5701
 3884TIP3    H133211   4.237   0.709   2.857 -0.3275  0.6963  0.8355
 3884TIP3    H233212   4.249   0.859   2.877  0.4412  0.7170  0.2606
 3885TIP3   OH233213   0.669   5.740   1.356 -0.8443  0.1157  0.5126
 3885TIP3    H133214   0.584   5.719   1.317  0.2807 -2.1618 -0.9623
 3885TIP3    H233215   0.693   5.825   1.318 -0.9489 -0.8351 -1.8892
 3886TIP3   OH233216   5.383   1.493   8.436  0.2621 -0.2886 -0.4145
 3886TIP3    H133217   5.475   1.520   8.442 -0.0118  0.6213 -0.0618
 3886TIP3    H233218   5.372   1.429   8.506  0.5469 -0.1319 -0.2241
 3887TIP3   OH233219   2.969   3.645   8.444 -0.0854  0.3392 -0.3519
 3887TIP3    H133220   3.046   3.590   8.430 -0.0404 -0.1364  1.5405
 3887TIP3    H233221   2.912   3.592   8.498 -0.1623  2.0340  1.2980
 3888TIP3   OH233222   5.271   4.612   1.792  0.1151 -0.0780  0.3274
 3888TIP3    H133223   5.264   4.707   1.792  2.9928  0.2318  0.5730
 3888TIP3    H233224   5.200   4.582   1.848 -2.0605  1.7413 -1.2946
 3889TIP3   OH233225   5.800   5.914   3.468 -0.2743 -0.4228 -0.4287
 3889TIP3    H133226   5.763   5.914   3.380 -1.1470 -3.2466 -0.1650
 3889TIP3    H233227   5.822   5.823   3.485 -0.2027  0.0064  2.3149
 3890TIP3   OH233228   4.810   6.601   2.672  0.1204 -0.1009 -0.2770
 3890TIP3    H133229   4.874   6.530   2.667  0.4108  0.2035 -1.1937
 3890TIP3    H233230   4.810   6.628   2.763  0.4688 -0.8559 -0.0455
 3891TIP3   OH233231   1.899   6.643   8.362  0.1757 -0.3627  0.2786
 3891TIP3    H133232   1.808   6.665   8.382 -0.1395 -0.9537 -0.4490
 3891TIP3    H233233   1.943   6.640   8.447 -0.7590 -1.2278  0.7566
 3892TIP3   OH233234   3.635   5.557   1.035  0.6135 -1.1887  0.1734
 3892TIP3    H133235   3.640   5.633   0.977 -2.0472 -1.0356  0.0538
 3892TIP3    H233236   3.676   5.587   1.116  2.0690 -0.5696 -0.7339
 3893TIP3   OH233237   1.351   4.219   7.508 -0.4826  0.4773 -0.2300
 3893TIP3    H133238   1.355   4.302   7.461  2.8361  0.4361 -0.2646
 3893TIP3    H233239   1.345   4.244   7.601 -0.6876  0.7144 -0.3069
 3894TIP3   OH233240   5.168   0.270   7.352  0.2648  0.0088  0.1115
 3894TIP3    H133241   5.237   0.249   7.415  0.8590  2.0967  0.2291
 3894TIP3    H233242   5.214   0.279   7.269 -0.3660 -1.6625 -0.4595
 3895TIP3   OH233243   3.591   0.020   1.443 -0.1727 -0.3426 -0.1473
 3895TIP3    H133244   3.678   0.050   1.415 -0.9728  0.8688 -1.4701
 3895TIP3    H233245   3.549   0.098   1.478 -0.6454 -0.9858  0.7479
 3896TIP3   OH233246   4.391   1.448   2.419 -0.1511  0.4702  0.3081
 3896TIP3    H133247   4.323   1.414   2.477 -1.4137  1.2480 -0.6563
 3896TIP3    H233248   4.349   1.453   2.333  1.1726  0.8660 -0.3428
 3897TIP3   OH233249   1.135   4.159   8.137  0.1320 -0.5538  0.5163
 3897TIP3    H133250   1.197   4.227   8.163 -0.3087 -0.2907  0.8933
 3897TIP3    H233251   1.189   4.081   8.124  0.6387 -0.1459  0.1103
 3898TIP3   OH233252   6.038   5.272   1.887 -0.0718 -0.6800  0.1044
 3898TIP3    H133253   6.032   5.180   1.913 -0.1982 -0.3841  1.1733
 3898TIP3    H233254   5.957   5.288   1.838 -0.0418 -1.1425 -0.1010
 3899TIP3   OH233255   5.472   1.784   8.274 -0.2412  0.2977  0.6051
 3899TIP3    H133256   5.550   1.730   8.283  0.3501  1.0136 -0.0217
 3899TIP3    H233257   5.413   1.732   8.219  0.3608  0.3159 -0.0803
 3900TIP3   OH233258   1.756   6.853   0.387  0.6303  0.3062  0.4825
 3900TIP3    H133259   1.794   6.770   0.361  1.0000  0.5010  0.3978
 3900TIP3    H233260   1.686   6.869   0.323  2.1172  1.2220 -0.9896
 3901TIP3   OH233261   3.269   5.337   8.314  0.2259  0.3592  0.0426
 3901TIP3    H133262   3.340   5.371   8.261 -0.4592  1.7411 -0.0355
 3901TIP3    H233263   3.309   5.268   8.368  1.6677  1.2783  0.1911
 3902TIP3   OH233264   4.950   5.846   1.831  0.4121  0.1593  0.0204
 3902TIP3    H133265   4.942   5.860   1.925  0.3253  0.3608 -0.0163
 3902TIP3    H233266   4.996   5.763   1.823 -3.7844 -2.4926  0.2848
 3903TIP3   OH233267   1.096   0.041   0.778  0.1486  0.7533  0.5614
 3903TIP3    H133268   1.137   0.108   0.723 -0.6558 -1.0838 -2.5129
 3903TIP3    H233269   1.168   0.007   0.831  1.4572  1.2388 -0.8195
 3904TIP3   OH233270   0.148   6.444   0.491 -0.0891 -0.1250 -0.2513
 3904TIP3    H133271   0.075   6.409   0.542 -0.5318  1.0644 -0.0568
 3904TIP3    H233272   0.109   6.473   0.409  0.5209 -1.4532 -1.0590
 3905TIP3   OH233273   3.060   0.497   8.261  0.0414  0.0042  0.5515
 3905TIP3    H133274   3.095   0.441   8.330 -2.1306 -1.3300  0.6614
 3905TIP3    H233275   2.985   0.541   8.302 -0.0610  0.7345 -0.3878
 3906TIP3   OH233276   0.566   5.887   1.981 -0.3726 -0.0629  0.3809
 3906TIP3    H133277   0.488   5.941   1.969 -0.9788 -0.9273  0.3258
 3906TIP3    H233278   0.630   5.923   1.919 -0.6685  0.7412  0.5295
 3907TIP3   OH233279   6.549   3.383   2.584  0.6356 -0.1226  0.4641
 3907TIP3    H133280   6.630   3.406   2.539  0.5563  0.6196  0.6793
 3907TIP3    H233281   6.481   3.431   2.538 -0.0200 -2.2853 -0.9965
 3908TIP3   OH233282   3.468   2.595   2.401 -0.0815  0.2023 -0.4537
 3908TIP3    H133283   3.418   2.521   2.436 -1.3436  1.4033  0.3862
 3908TIP3    H233284   3.498   2.565   2.315  0.2314 -1.6029  0.2453
 3909TIP3   OH233285   3.394   0.209   7.835 -0.0258 -0.2946  0.0065
 3909TIP3    H133286   3.358   0.126   7.802 -0.5423 -0.6946  1.4788
 3909TIP3    H233287   3.361   0.275   7.774 -0.7084 -1.0247 -0.4399
 3910TIP3   OH233288   3.051   2.339   2.250  0.2609 -0.8137 -0.3815
 3910TIP3    H133289   3.075   2.391   2.327 -0.6831 -1.1602  0.1719
 3910TIP3    H233290   3.008   2.400   2.191  2.2924 -0.2237 -1.3108
 3911TIP3   OH233291   1.505   3.022   7.104 -0.2978  0.6097 -0.1047
 3911TIP3    H133292   1.600   3.029   7.108 -0.1554 -0.8696 -0.4133
 3911TIP3    H233293   1.486   2.931   7.127 -1.6008  0.7321 -0.5750
 3912TIP3   OH233294   1.331   1.136   1.576 -0.0236  0.3127 -0.0092
 3912TIP3    H133295   1.426   1.134   1.569  0.0794  2.4683 -0.0592
 3912TIP3    H233296   1.301   1.084   1.501  1.1366  1.2482 -1.1762
 3913TIP3   OH233297   4.286   5.257   3.561 -0.1930  0.0143  0.7771
 3913TIP3    H133298   4.352   5.247   3.630 -1.3951 -0.0938  1.9587
 3913TIP3    H233299   4.284   5.173   3.517 -0.1776 -0.2848  1.3385
 3914TIP3   OH233300   4.861   3.544   8.355  0.5323 -0.3166  0.0622
 3914TIP3    H133301   4.945   3.589   8.355 -0.1742  1.1172  1.9248
 3914TIP3    H233302   4.877   3.463   8.403  1.2287 -0.9387 -1.1639
 3915TIP3   OH233303   5.652   5.150   2.182  0.5770  0.1653  0.0732
 3915TIP3    H133304   5.718   5.215   2.208  0.3848 -0.2088  1.5817
 3915TIP3    H233305   5.685   5.067   2.216 -1.0795  0.1040  1.6710
 3916TIP3   OH233306   2.977   2.574   7.382  0.2696  0.2406 -0.4793
 3916TIP3    H133307   2.942   2.547   7.297 -0.4237  1.3626 -0.5630
 3916TIP3    H233308   2.976   2.494   7.434  0.3615 -0.3831 -1.4094
 3917TIP3   OH233309   1.377   1.641   7.307  0.8202 -0.1338  0.1577
 3917TIP3    H133310   1.387   1.720   7.360  0.0192  1.4301 -1.8869
 3917TIP3    H233311   1.466   1.621   7.278  0.9357  0.5387  0.0212
 3918TIP3   OH233312   2.821   5.992   3.364 -0.5580 -0.4076 -0.3259
 3918TIP3    H133313   2.736   6.036   3.370 -0.8740 -1.0361 -0.1573
 3918TIP3    H233314   2.850   6.010   3.274 -0.0225  1.3133  0.1448
 3919TIP3   OH233315   1.638   1.983   1.313  0.1518 -0.3520 -0.3194
 3919TIP3    H133316   1.661   1.930   1.237 -1.4732 -0.7158 -0.5992
 3919TIP3    H233317   1.543   1.970   1.323 -0.2509  2.1769 -0.1788
 3920TIP3   OH233318   2.348   0.156   8.392  0.4502  0.1893 -0.3934
 3920TIP3    H133319   2.260   0.131   8.422 -0.2398  1.0958 -1.5583
 3920TIP3    H233320   2.339   0.247   8.366  2.1164  0.7251  0.7892
 3921TIP3   OH233321   6.688   0.729   0.706 -0.0178 -0.1290 -0.2119
 3921TIP3    H133322   6.692   0.774   0.791 -0.5301  0.4550 -0.4894
 3921TIP3    H233323   6.777   0.736   0.671 -0.0254  0.4637 -0.1375
 3922TIP3   OH233324   5.413   6.067   2.407  0.7478 -0.0223  0.2225
 3922TIP3    H133325   5.451   6.036   2.324  1.1189  0.9648 -0.0012
 3922TIP3    H233326   5.418   6.163   2.400  0.5210  0.0720  1.2721
 3923TIP3   OH233327   2.093   2.319   3.112  0.0815 -0.4486  0.3752
 3923TIP3    H133328   2.051   2.394   3.071  0.0906 -0.9708 -0.6311
 3923TIP3    H233329   2.023   2.275   3.159 -0.5051 -1.1946 -1.1153
 3924TIP3   OH233330   1.986   4.255   8.410 -0.3223 -0.5136  0.6944
 3924TIP3    H133331   1.981   4.348   8.431 -0.4359 -0.6154  1.1235
 3924TIP3    H233332   1.895   4.226   8.407 -0.3461 -0.3713 -0.5539
 3925TIP3   OH233333   3.038   1.385   1.369  0.1456 -0.0545 -0.0973
 3925TIP3    H133334   3.000   1.299   1.384 -1.4063  0.3710 -1.3633
 3925TIP3    H233335   3.045   1.393   1.274  0.0893  1.2770 -0.0176
 3926TIP3   OH233336   0.709   3.189   8.563  0.7051 -0.3890 -0.0622
 3926TIP3    H133337   0.691   3.187   8.657 -2.7951 -0.1041 -0.6064
 3926TIP3    H233338   0.718   3.097   8.538  1.2840 -0.4792  0.4591
 3927TIP3   OH233339   3.085   1.216   2.305 -0.3918 -0.1429 -0.2215
 3927TIP3    H133340   3.142   1.293   2.301  0.3388 -0.7015 -0.7459
 3927TIP3    H233341   3.085   1.180   2.216 -2.2389  0.3084 -0.4393
 3928TIP3   OH233342   1.849   3.028   8.125 -0.5466 -0.4210  0.4773
 3928TIP3    H133343   1.803   3.044   8.207 -1.5008 -0.0502 -0.1151
 3928TIP3    H233344   1.791   3.064   8.057  0.3351 -0.4944 -0.3385
 3929TIP3   OH233345   0.237   1.473   8.543 -0.2115  0.1568 -0.0369
 3929TIP3    H133346   0.252   1.388   8.502  2.1361  0.1083  0.7448
 3929TIP3    H233347   0.252   1.536   8.472 -1.2568 -0.0388 -0.4477
 3930TIP3   OH233348   0.384   0.416   2.980 -0.2107  0.6483  0.3517
 3930TIP3    H133349   0.347   0.344   2.929  1.8797 -0.8708  0.8141
 3930TIP3    H233350   0.317   0.437   3.044 -1.1941 -0.3526 -0.3058
 3931TIP3   OH233351   5.708   5.733   2.682 -0.3642 -0.1662  0.1976
 3931TIP3    H133352   5.785   5.749   2.736  0.6603 -2.3642 -0.4918
 3931TIP3    H233353   5.708   5.806   2.619  1.4065 -0.3083 -0.0329
 3932TIP3   OH233354   4.455   3.858   0.934 -0.2018  0.6304 -0.1241
 3932TIP3    H133355   4.384   3.847   0.870  0.1352  2.1931 -0.8108
 3932TIP3    H233356   4.409   3.869   1.017 -0.7042  0.1189 -0.3212
 3933TIP3   OH233357   4.729   1.238   1.027  0.3052  0.5691 -0.2175
 3933TIP3    H133358   4.796   1.173   1.049  0.2320 -0.0660 -1.7152
 3933TIP3    H233359   4.751   1.266   0.938 -2.1749 -0.7264 -1.3402
 3934TIP3   OH233360   6.553   3.691   8.023  0.0696 -0.0932  0.3384
 3934TIP3    H133361   6.565   3.758   8.091 -0.1310  0.2392  0.0493
 3934TIP3    H233362   6.542   3.741   7.942  0.1775 -0.4857  0.0810
 3935TIP3   OH233363   0.697   3.645   0.513 -0.3669  0.1954 -0.1514
 3935TIP3    H133364   0.621   3.702   0.509 -0.2800  0.5811  2.2117
 3935TIP3    H233365   0.664   3.564   0.552 -0.0495 -0.5946 -1.4760
 3936TIP3   OH233366   1.906   1.276   2.628 -0.3175  1.1629  0.3619
 3936TIP3    H133367   1.938   1.362   2.653 -0.5798  1.0314  1.1744
 3936TIP3    H233368   1.959   1.215   2.678  0.8932  0.7596 -1.3208
 3937TIP3   OH233369   1.272   4.404   0.630 -0.2834  0.0562  0.2056
 3937TIP3    H133370   1.293   4.312   0.619  2.1188  0.4095  1.2006
 3937TIP3    H233371   1.241   4.411   0.720  0.6241  0.3717  0.5006
 3938TIP3   OH233372   1.207   0.201   8.188  0.1503  0.8048  0.0828
 3938TIP3    H133373   1.212   0.233   8.279  0.5451  1.0774 -0.0314
 3938TIP3    H233374   1.158   0.268   8.141  1.2138  1.3986 -0.2163
 3939TIP3   OH233375   4.327   5.406   0.948  0.1119  0.3868  0.0094
 3939TIP3    H133376   4.296   5.496   0.949 -0.3667  0.2945 -2.0799
 3939TIP3    H233377   4.306   5.372   1.035  0.9751  2.4746  1.1009
 3940TIP3   OH233378   4.287   3.416   2.288  0.2807 -0.8130  0.2123
 3940TIP3    H133379   4.375   3.449   2.302  0.2238 -0.9658  0.9981
 3940TIP3    H233380   4.293   3.360   2.210  0.5912  0.2127 -0.5151
 3941TIP3   OH233381   4.756   2.881   1.099 -0.2412 -0.4895  0.1435
 3941TIP3    H133382   4.718   2.969   1.106  1.5956  0.4695 -0.9962
 3941TIP3    H233383   4.726   2.836   1.178 -0.9466  1.2823  0.9550
 3942TIP3   OH233384   4.837   5.284   8.107 -0.7927 -0.3798 -0.0849
 3942TIP3    H133385   4.872   5.201   8.074  0.4415 -0.0613  0.3695
 3942TIP3    H233386   4.806   5.330   8.028  0.8953 -0.1894 -0.6912
 3943TIP3   OH233387   0.419   4.847   7.672  0.2350 -0.3469  0.1573
 3943TIP3    H133388   0.365   4.926   7.681  0.7936  0.0975 -0.3288
 3943TIP3    H233389   0.475   4.865   7.597  0.9319 -0.8844  0.5413
 3944TIP3   OH233390   0.057   1.671   1.279 -0.0478 -0.0270  0.1066
 3944TIP3    H133391   0.096   1.584   1.264  0.5355  0.2526 -0.0378
 3944TIP3    H233392   0.035   1.703   1.191 -0.4310 -0.1031  0.1739
 3945TIP3   OH233393   5.863   0.268   2.720 -0.0136  0.7742  0.5456
 3945TIP3    H133394   5.853   0.231   2.807  0.3204 -1.4204 -0.2753
 3945TIP3    H233395   5.793   0.226   2.668  1.1207  0.3650 -0.7091
 3946TIP3   OH233396   0.091   4.798   3.694  0.3580  0.2327  0.1604
 3946TIP3    H133397   0.160   4.843   3.646  0.0372  0.0444 -0.4826
 3946TIP3    H233398   0.129   4.782   3.781  1.9064 -1.6437 -0.7789
 3947TIP3   OH233399   2.725   6.321   1.620 -1.1192 -0.2205 -0.0202
 3947TIP3    H133400   2.773   6.347   1.541  0.2414 -1.6791  0.2868
 3947TIP3    H233401   2.763   6.375   1.690  0.8555 -2.0214  0.3974
 3948TIP3   OH233402   1.191   2.857   3.380  0.1491 -0.0325  0.4424
 3948TIP3    H133403   1.101   2.883   3.361  0.2738 -0.4067 -0.7268
 3948TIP3    H233404   1.241   2.938   3.375  0.0363  0.0152  0.0647
 3949TIP3   OH233405   6.669   1.078   0.547  0.0520  0.1601  0.3551
 3949TIP3    H133406   6.720   1.158   0.544  0.6147 -0.1448  1.2829
 3949TIP3    H233407   6.591   1.100   0.598 -0.4092  0.4365 -0.4543
 3950TIP3   OH233408   0.932   1.381   7.652  0.3362 -0.1046 -0.1842
 3950TIP3    H133409   0.991   1.456   7.663 -0.9637  1.1066 -1.0882
 3950TIP3    H233410   0.972   1.329   7.583  1.4483 -0.4721  0.7111
 3951TIP3   OH233411   6.391   4.148   3.499 -0.1567  0.3440  0.0458
 3951TIP3    H133412   6.323   4.207   3.532 -0.4632  0.7640 -1.2794
 3951TIP3    H233413   6.350   4.104   3.424  0.6524 -0.2743 -0.0485
 3952TIP3   OH233414   0.231   0.691   0.209  0.4517  0.3030 -0.5158
 3952TIP3    H133415   0.149   0.653   0.177 -0.4914  0.2979  1.6527
 3952TIP3    H233416   0.254   0.637   0.284  3.1975 -0.4679 -1.8026
 3953TIP3   OH233417   6.253   1.125   1.099  0.1954 -0.1596  0.1907
 3953TIP3    H133418   6.273   1.177   1.021 -2.7549  2.6426  1.1161
 3953TIP3    H233419   6.258   1.034   1.068  1.1727  0.7389 -2.6778
 3954TIP3   OH233420   1.062   2.239   0.080  0.0185  0.5204 -0.1007
 3954TIP3    H133421   0.974   2.243   0.043 -0.5732 -2.0874  0.7988
 3954TIP3    H233422   1.048   2.249   0.175  0.7954  0.7769 -0.0077
 3955TIP3   OH233423   5.191   1.231   8.437 -0.3710  0.0781 -0.4076
 3955TIP3    H133424   5.235   1.236   8.522  0.5127 -0.8523 -0.7843
 3955TIP3    H233425   5.135   1.154   8.444 -1.9461  1.2262  0.0487
 3956TIP3   OH233426   4.077   6.066   1.654  0.4222 -0.3678 -0.1189
 3956TIP3    H133427   4.034   6.151   1.643 -1.2892 -1.3059 -1.1194
 3956TIP3    H233428   4.165   6.079   1.617  0.2129  0.9688 -0.2124
 3957TIP3   OH233429   4.448   6.759   1.485  0.3374 -0.1478  0.3362
 3957TIP3    H133430   4.412   6.839   1.522  1.1374  0.5034 -0.2526
 3957TIP3    H233431   4.492   6.717   1.559  0.7867  0.4758  0.4371
 3958TIP3   OH233432   1.587   1.252   1.766  0.4425 -0.0309  0.2480
 3958TIP3    H133433   1.522   1.308   1.723  0.0698  0.2005  1.0902
 3958TIP3    H233434   1.647   1.314   1.807 -1.0147 -0.1740  2.7667
 3959TIP3   OH233435   4.658   3.490   0.675  0.5065  0.8363  0.7943
 3959TIP3    H133436   4.695   3.418   0.726  0.9297  1.1323  0.9069
 3959TIP3    H233437   4.630   3.554   0.740  1.2615  1.3190  0.6542
 3960TIP3   OH233438   2.313   2.561   0.519  0.5631  0.4704 -0.2010
 3960TIP3    H133439   2.329   2.601   0.433  2.7244  1.4915  0.5972
 3960TIP3    H233440   2.356   2.476   0.514 -0.6717 -0.1552 -0.6077
 3961TIP3   OH233441   0.778   4.277   7.341 -0.5570  0.6552 -0.3856
 3961TIP3    H133442   0.841   4.245   7.277 -0.5148  0.5247 -0.2783
 3961TIP3    H233443   0.791   4.372   7.342 -0.4537  0.6414 -0.4610
 3962TIP3   OH233444   2.259   1.434   1.382 -0.7970 -0.0325  0.0951
 3962TIP3    H133445   2.319   1.379   1.433 -1.9167 -0.3724  1.1111
 3962TIP3    H233446   2.222   1.495   1.446 -1.3952  0.2807 -0.5384
 3963TIP3   OH233447   2.057   3.057   8.464 -0.6857 -0.6215 -0.3947
 3963TIP3    H133448   2.113   3.101   8.399  1.2872 -1.0187  0.9383
 3963TIP3    H233449   1.999   3.126   8.496  1.1425  0.6445  0.3590
 3964TIP3   OH233450   6.160   2.590   2.280 -0.0474 -0.6771 -0.3171
 3964TIP3    H133451   6.253   2.609   2.285 -0.1331 -0.3460  0.0875
 3964TIP3    H233452   6.152   2.497   2.301  0.5167 -1.5863 -3.5493
 3965TIP3   OH233453   5.766   2.013   7.659  0.3245  0.1398 -0.0305
 3965TIP3    H133454   5.696   2.054   7.609  0.3833 -1.7221 -1.7723
 3965TIP3    H233455   5.810   2.086   7.702 -1.6383  1.5154 -0.2147
 3966TIP3   OH233456   5.972   1.135   8.551 -0.4817  0.3724 -0.4593
 3966TIP3    H133457   5.936   1.078   8.619  0.7926 -0.4375 -0.4513
 3966TIP3    H233458   5.996   1.076   8.480  3.4983  0.4248  0.6329
 3967TIP3   OH233459   0.414   0.096   8.127 -0.5533  0.0870 -0.2848
 3967TIP3    H133460   0.389   0.069   8.038 -1.0479  0.8656 -0.3858
 3967TIP3    H233461   0.418   0.191   8.124 -2.6822  0.2949  1.0397
 3968TIP3   OH233462   0.343   4.507   1.910  0.0334 -0.0949  0.7172
 3968TIP3    H133463   0.426   4.473   1.942 -0.8411 -0.6021  2.6011
 3968TIP3    H233464   0.347   4.601   1.929 -0.1904 -0.2781  1.7876
 3969TIP3   OH233465   3.980   3.171   1.786 -0.3795 -0.5695 -0.0479
 3969TIP3    H133466   3.916   3.106   1.818 -0.2957  0.2797  2.0370
 3969TIP3    H233467   3.931   3.224   1.724 -1.0272 -1.3787 -0.2500
 3970TIP3   OH233468   0.808   6.317   1.234 -0.4614 -0.0158 -0.1083
 3970TIP3    H133469   0.874   6.247   1.237 -0.1222  0.3230  0.8884
 3970TIP3    H233470   0.761   6.309   1.317 -0.8633  0.5160 -0.2781
 3971TIP3   OH233471   5.563   2.850   7.766  0.4534  0.5179 -0.9448
 3971TIP3    H133472   5.544   2.891   7.850  2.2287 -0.4856  0.0068
 3971TIP3    H233473   5.487   2.794   7.748  0.2024  0.4900  0.1568
 3972TIP3   OH233474   5.492   2.696   1.600 -0.1033 -0.3554 -0.0711
 3972TIP3    H133475   5.527   2.622   1.550 -0.5772 -0.1551 -0.7062
 3972TIP3    H233476   5.569   2.734   1.643  0.0964 -1.4233  0.5458
 3973TIP3   OH233477   5.364   5.908   0.831  0.1050  0.6497  0.1612
 3973TIP3    H133478   5.390   5.866   0.749 -2.8115  2.5555 -1.9220
 3973TIP3    H233479   5.366   6.002   0.813 -1.2868  1.1135  2.0602
 3974TIP3   OH233480   5.840   3.513   3.104  0.0043 -0.1397  0.3963
 3974TIP3    H133481   5.758   3.559   3.085  0.4999  0.2154 -1.0854
 3974TIP3    H233482   5.908   3.580   3.092  0.7182 -1.1290 -1.5609
 3975TIP3   OH233483   3.010   5.492   1.922  0.3024 -0.1235 -0.5463
 3975TIP3    H133484   2.930   5.544   1.928  0.2744 -0.0180 -1.6770
 3975TIP3    H233485   3.000   5.426   1.990 -0.9284 -0.3432 -0.9051
 3976TIP3   OH233486   3.693   3.735   2.289 -0.0239  0.0086  0.0941
 3976TIP3    H133487   3.720   3.676   2.360 -1.4058 -1.0031 -0.1613
 3976TIP3    H233488   3.733   3.819   2.310  1.4457 -0.8523  0.8495
 3977TIP3   OH233489   2.537   2.183   8.355  0.1702  0.1535 -0.0198
 3977TIP3    H133490   2.610   2.222   8.403  0.2821  1.4315 -1.1476
 3977TIP3    H233491   2.572   2.165   8.268 -0.5728 -0.1586 -0.2664
 3978TIP3   OH233492   6.443   2.548   7.135  0.0220  0.1024 -0.4339
 3978TIP3    H133493   6.446   2.615   7.067 -1.6185  1.2447  0.5425
 3978TIP3    H233494   6.406   2.593   7.211  2.7627 -0.8124  1.6177
 3979TIP3   OH233495   0.293   4.152   1.283  0.1008  0.1206  0.0583
 3979TIP3    H133496   0.316   4.239   1.250 -0.1422  1.7584  3.7001
 3979TIP3    H233497   0.357   4.135   1.352 -1.1467 -1.6401  0.8420
 3980TIP3   OH233498   3.162   4.940   8.368 -0.1965  0.1245 -0.0338
 3980TIP3    H133499   3.253   4.944   8.399  0.0156  1.5735 -0.7537
 3980TIP3    H233500   3.149   4.849   8.344  0.4210 -0.5366  1.9234
 3981TIP3   OH233501   5.770   2.911   1.444  0.1973 -0.2202  0.3744
 3981TIP3    H133502   5.752   3.005   1.434  3.3248  0.4521 -0.2487
 3981TIP3    H233503   5.734   2.871   1.365 -1.0313  0.4572  0.5737
 3982TIP3   OH233504   1.623   1.566   7.521 -0.3540 -0.4168 -0.5291
 3982TIP3    H133505   1.589   1.477   7.525 -2.3826  0.3279  0.0335
 3982TIP3    H233506   1.554   1.620   7.558  0.8759  1.3967 -0.7367
 3983TIP3   OH233507   4.630   1.644   0.137 -0.0807  1.3697 -0.3131
 3983TIP3    H133508   4.621   1.561   0.184 -1.9440  1.3284 -0.6498
 3983TIP3    H233509   4.711   1.682   0.170  0.6054 -0.3854  0.1417
 3984TIP3   OH233510   4.719   6.118   1.007  0.1783  0.2380  0.2640
 3984TIP3    H133511   4.672   6.199   0.987  1.1610  0.4641 -1.2653
 3984TIP3    H233512   4.756   6.134   1.094 -2.7697 -0.0999  1.7147
 3985TIP3   OH233513   6.358   3.561   2.102  0.0742  0.5121 -0.2429
 3985TIP3    H133514   6.301   3.565   2.025  1.1487 -1.0992 -1.1559
 3985TIP3    H233515   6.447   3.560   2.067  0.5619 -1.5549  0.9117
 3986TIP3   OH233516   1.257   6.411   2.833  0.1047  0.0897 -0.2225
 3986TIP3    H133517   1.238   6.371   2.918 -1.2279  0.3356 -0.3880
 3986TIP3    H233518   1.330   6.471   2.850 -0.3001  0.3134  0.7938
 3987TIP3   OH233519   3.978   5.411   0.839  0.0172 -0.0262  0.2602
 3987TIP3    H133520   3.889   5.394   0.870  0.4856 -0.0164  1.7191
 3987TIP3    H233521   3.994   5.344   0.772 -0.1890 -1.7336  1.8314
 3988TIP3   OH233522   6.742   2.990   3.335 -0.1374  0.0534  0.1593
 3988TIP3    H133523   6.772   2.914   3.285 -0.0120  0.3540 -0.2370
 3988TIP3    H233524   6.820   3.023   3.379 -0.1666  0.0247  0.2330
 3989TIP3   OH233525   4.131   4.001   2.792 -0.0347  0.4944 -0.0509
 3989TIP3    H133526   4.205   4.001   2.730  1.6431  0.1640  1.8445
 3989TIP3    H233527   4.151   3.929   2.852 -0.6810  1.8420  1.8688
 3990TIP3   OH233528   1.486   5.649   8.489 -0.0335 -0.2570  0.6213
 3990TIP3    H133529   1.415   5.711   8.505  0.4784  1.0361 -1.7310
 3990TIP3    H233530   1.546   5.696   8.432  1.4305 -2.2251  0.4636
 3991TIP3   OH233531   2.387   2.451   7.871  0.6817 -0.7645 -0.3741
 3991TIP3    H133532   2.418   2.366   7.839 -1.6209 -2.0858  0.6767
 3991TIP3    H233533   2.441   2.470   7.947  0.3842 -1.9412  0.1436
 3992TIP3   OH233534   4.671   1.896   1.516 -0.1814  0.6930 -0.2226
 3992TIP3    H133535   4.749   1.943   1.547 -0.3256  1.0936 -0.4574
 3992TIP3    H233536   4.705   1.829   1.456  0.0891 -0.0124  0.6999
 3993TIP3   OH233537   4.143   0.116   2.694  0.3262  0.1690  1.0881
 3993TIP3    H133538   4.098   0.039   2.658 -1.7262  2.1904 -1.1102
 3993TIP3    H233539   4.073   0.179   2.708  2.2449  3.5671 -2.5403
 3994TIP3   OH233540   4.486   2.536   2.913 -0.1865  0.7496 -0.2782
 3994TIP3    H133541   4.416   2.474   2.893 -0.6163  0.9741  0.4837
 3994TIP3    H233542   4.562   2.502   2.866 -0.4914 -0.1935 -0.1126
 3995TIP3   OH233543   6.354   4.215   2.971 -0.3660 -0.6335  0.0175
 3995TIP3    H133544   6.275   4.229   3.023 -1.1404 -1.2639 -0.9512
 3995TIP3    H233545   6.346   4.276   2.898 -1.1145 -2.2641 -1.3208
 3996TIP3   OH233546   3.348   6.424   8.562 -0.3530 -0.0318 -0.3387
 3996TIP3    H133547   3.362   6.514   8.593 -1.9986  0.0632  0.1835
 3996TIP3    H233548   3.316   6.377   8.639 -1.1586 -0.6492 -1.0441
 3997TIP3   OH233549   2.602   2.491   2.611  0.2307 -0.6067  0.3386
 3997TIP3    H133550   2.625   2.410   2.655 -0.8671 -1.2155 -0.1802
 3997TIP3    H233551   2.564   2.546   2.680 -0.6778 -1.2230  0.3387
 3998TIP3   OH233552   2.501   0.307   0.581  0.1018 -0.3088 -0.2029
 3998TIP3    H133553   2.514   0.399   0.556  0.7684 -0.7396 -1.5150
 3998TIP3    H233554   2.524   0.305   0.674  0.1937  0.8265 -0.1802
 3999TIP3   OH233555   6.109   1.748   8.126  0.4236 -0.4230  0.3460
 3999TIP3    H133556   6.128   1.704   8.209 -1.3769  0.0719  1.0565
 3999TIP3    H233557   6.146   1.836   8.136 -0.9734  0.0846  1.1774
 4000TIP3   OH233558   1.964   4.490   0.984  0.2446 -0.2956  0.1693
 4000TIP3    H133559   2.009   4.446   1.056 -0.8924 -1.1596  0.3850
 4000TIP3    H233560   1.873   4.462   0.993 -0.0761  0.3124 -1.0640
 4001TIP3   OH233561   1.438   1.007   2.928  0.2591 -0.1042 -0.1781
 4001TIP3    H133562   1.491   1.053   2.863 -1.2968 -0.5118 -1.8388
 4001TIP3    H233563   1.438   0.916   2.900 -0.8676 -0.1984  0.0501
 4002TIP3   OH233564   3.224   6.657   3.093  0.1845 -0.3342 -0.1457
 4002TIP3    H133565   3.230   6.748   3.064 -2.3887  0.7007  2.1030
 4002TIP3    H233566   3.267   6.657   3.179 -0.2162 -1.1062  0.0637
 4003TIP3   OH233567   3.847   4.613   1.065 -0.6724 -0.0627 -0.2243
 4003TIP3    H133568   3.844   4.571   0.978 -1.6175  1.3746 -0.9238
 4003TIP3    H233569   3.761   4.596   1.103 -0.3353 -0.4995  0.3521
 4004TIP3   OH233570   0.473   0.110   2.761  0.4768 -0.2128 -0.5212
 4004TIP3    H133571   0.542   0.109   2.827 -0.8928  0.7308  1.0219
 4004TIP3    H233572   0.393   0.128   2.811 -0.7843 -0.5454 -2.3224
 4005TIP3   OH233573   1.681   3.014   1.187  0.0901  0.5263 -0.2587
 4005TIP3    H133574   1.612   2.948   1.193  0.9919 -0.6010 -1.7607
 4005TIP3    H233575   1.694   3.042   1.278 -1.7950  0.2410  0.1615
 4006TIP3   OH233576   6.641   2.752   3.072  0.1693  0.1511  0.0633
 4006TIP3    H133577   6.712   2.780   3.130  0.8901 -1.9807  0.3185
 4006TIP3    H233578   6.594   2.686   3.124 -1.2037  0.5854 -0.5965
 4007TIP3   OH233579   0.295   3.259   0.718  0.2931  0.2603  0.3827
 4007TIP3    H133580   0.283   3.301   0.633 -0.2229  0.1202  0.3811
 4007TIP3    H233581   0.250   3.175   0.709  1.2413 -0.2581  0.4120
 4008TIP3   OH233582   3.021   1.154   3.002 -0.3185  0.2122  0.1686
 4008TIP3    H133583   3.054   1.068   2.976 -0.2605  0.1294  0.5131
 4008TIP3    H233584   2.926   1.144   3.004 -0.4420  0.6341 -1.4918
 4009TIP3   OH233585   1.268   2.916   1.190 -0.3102 -0.9317 -0.3154
 4009TIP3    H133586   1.225   2.957   1.265 -1.8518 -1.9546 -0.5903
 4009TIP3    H233587   1.199   2.864   1.148  1.1106 -2.3512 -1.0112
 4010TIP3   OH233588   0.767   2.028   2.397  0.5457 -0.0288  0.2509
 4010TIP3    H133589   0.701   2.089   2.364 -0.5328 -0.9573  0.6095
 4010TIP3    H233590   0.721   1.977   2.464  1.5238 -0.9457  0.2585
 4011TIP3   OH233591   2.367   1.775   7.973 -0.0317 -0.4049  0.5243
 4011TIP3    H133592   2.357   1.865   8.003  1.2937 -0.4430  1.1515
 4011TIP3    H233593   2.329   1.774   7.886  1.4952  1.2256 -0.2301
 4012TIP3   OH233594   3.872   4.286   1.995 -0.2115 -0.1857 -0.2019
 4012TIP3    H133595   3.848   4.275   1.903 -1.1588  0.9509 -0.1197
 4012TIP3    H233596   3.836   4.209   2.039  0.7072 -0.9986 -0.8547
 4013TIP3   OH233597   4.129   1.658   2.575 -0.3496 -0.4974 -0.0657
 4013TIP3    H133598   4.043   1.621   2.596  0.1697 -1.8614 -0.2385
 4013TIP3    H233599   4.129   1.663   2.479  0.2171 -1.7216 -0.1532
 4014TIP3   OH233600   6.293   5.276   8.029  0.0350  0.3085  0.0755
 4014TIP3    H133601   6.217   5.329   8.008  0.8321  1.0922 -0.9890
 4014TIP3    H233602   6.258   5.198   8.072 -1.1536  1.7531  1.8667
 4015TIP3   OH233603   6.104   0.745   8.131 -0.2671  0.2836  0.2235
 4015TIP3    H133604   6.162   0.672   8.152  1.9984  1.4372 -1.6700
 4015TIP3    H233605   6.118   0.762   8.038 -1.6189  2.3870  0.3369
 4016TIP3   OH233606   6.070   6.188   3.531  0.2535 -0.1829 -0.0861
 4016TIP3    H133607   6.125   6.175   3.454  0.9625 -0.8915  0.5188
 4016TIP3    H233608   6.068   6.102   3.573  0.4391  0.3652  1.0640
 4017TIP3   OH233609   0.474   5.428   1.953  0.4573 -0.1647 -0.2726
 4017TIP3    H133610   0.452   5.514   1.917 -2.9005 -0.6818  0.2475
 4017TIP3    H233611   0.477   5.442   2.048 -1.7519 -0.8160 -0.0411
 4018TIP3   OH233612   4.280   6.715   1.226 -0.2347  0.4069 -0.7060
 4018TIP3    H133613   4.195   6.677   1.248 -0.6433  0.3968 -2.1561
 4018TIP3    H233614   4.331   6.711   1.307 -1.1857 -0.7519 -0.1404
 4019TIP3   OH233615   3.095   4.587   7.738  0.2971  0.1629  0.5632
 4019TIP3    H133616   3.122   4.548   7.821 -1.1486 -0.1790  0.9069
 4019TIP3    H233617   3.004   4.614   7.753  0.1216  0.4046 -0.8056
 4020TIP3   OH233618   0.154   4.888   0.919  0.3313  0.0953  0.1396
 4020TIP3    H133619   0.225   4.942   0.885  0.1008  0.5943  0.4470
 4020TIP3    H233620   0.197   4.808   0.949  1.0119  1.0792  1.9016
 4021TIP3   OH233621   0.178   4.545   7.545 -0.7200 -0.7085 -0.3482
 4021TIP3    H133622   0.185   4.478   7.614  1.9501  0.8823  1.0717
 4021TIP3    H233623   0.262   4.542   7.501 -2.1474 -1.2295 -3.2547
 4022TIP3   OH233624   2.821   2.938   8.016  0.3372  0.2612 -0.2570
 4022TIP3    H133625   2.901   2.941   7.962 -0.1878 -1.3608 -1.2198
 4022TIP3    H233626   2.756   2.986   7.965  0.7164  1.8435  0.6670
 4023TIP3   OH233627   3.968   3.422   0.631  0.1880 -0.2323 -0.3189
 4023TIP3    H133628   4.045   3.429   0.573  0.9904 -1.6908  0.5080
 4023TIP3    H233629   4.004   3.398   0.716 -0.9361  2.2376  0.9695
 4024TIP3   OH233630   0.803   2.189   2.685  0.3388 -0.5367  0.2377
 4024TIP3    H133631   0.857   2.112   2.671  1.1605 -0.5898  2.9695
 4024TIP3    H233632   0.731   2.158   2.740  1.1758  0.7195  2.1565
 4025TIP3   OH233633   2.187   6.341   8.471  0.2206 -0.0328  0.1014
 4025TIP3    H133634   2.240   6.264   8.449 -1.8022 -1.6064  0.4148
 4025TIP3    H233635   2.120   6.344   8.403 -0.0916  1.1147  0.4399
 4026TIP3   OH233636   3.209   6.879   0.047 -0.2887  0.4513  0.1203
 4026TIP3    H133637   3.131   6.823   0.050  0.1594 -0.1758  0.0426
 4026TIP3    H233638   3.186   6.954   0.103 -1.3042  0.7393 -0.6607
 4027TIP3   OH233639   1.697   2.886   0.548 -0.0621 -0.0563  0.4550
 4027TIP3    H133640   1.638   2.848   0.484  0.7158  0.4276 -0.5779
 4027TIP3    H233641   1.641   2.911   0.621 -0.6720 -2.7519  1.0058
 4028TIP3   OH233642   0.922   5.742   2.391  0.4021 -0.4436  0.5595
 4028TIP3    H133643   0.855   5.681   2.422 -1.4245  1.1232 -0.0791
 4028TIP3    H233644   0.967   5.770   2.471 -0.6720 -0.4619  1.1972
 4029TIP3   OH233645   5.942   0.559   7.445  0.4523  0.0004  0.2721
 4029TIP3    H133646   5.876   0.503   7.487  2.0691 -2.2294  0.0083
 4029TIP3    H233647   5.938   0.536   7.353  1.2907  0.1762  0.1859
 4030TIP3   OH233648   5.418   4.149   3.583  0.5917 -0.4590  0.2330
 4030TIP3    H133649   5.473   4.118   3.656  0.3991  0.0897  0.6182
 4030TIP3    H233650   5.431   4.084   3.514  0.6807 -1.0548  0.8021
 4031TIP3   OH233651   6.676   3.383   1.711  1.0007  0.2218 -0.1852
 4031TIP3    H133652   6.634   3.340   1.785  1.0177  0.4036 -0.0698
 4031TIP3    H233653   6.666   3.477   1.728  2.2439  0.2806  0.3044
 4032TIP3   OH233654   1.352   2.922   0.505  0.5327  0.5412 -0.1417
 4032TIP3    H133655   1.379   3.013   0.522  0.1828  0.6022  0.0896
 4032TIP3    H233656   1.309   2.894   0.585  2.0719 -0.3796  0.4113
 4033TIP3   OH233657   4.230   4.386   7.520 -0.2966 -0.2142 -0.1783
 4033TIP3    H133658   4.296   4.337   7.471  0.6414  0.0939  0.7268
 4033TIP3    H233659   4.255   4.372   7.612 -0.0980  1.7984  0.1112
 4034TIP3   OH233660   3.966   1.556   0.994  0.2465  0.6857 -0.1163
 4034TIP3    H133661   3.976   1.651   0.992 -3.9454  1.3599  1.0136
 4034TIP3    H233662   3.988   1.532   1.084  0.0290  0.7847 -0.0373
 4035TIP3   OH233663   2.670   2.548   1.907  0.3873 -0.3443 -0.0511
 4035TIP3    H133664   2.669   2.475   1.846 -2.0969 -0.4127 -0.0457
 4035TIP3    H233665   2.580   2.553   1.940  1.0817  1.1754  1.8211
 4036TIP3   OH233666   0.940   3.486   7.050  0.1589 -0.4064  0.1892
 4036TIP3    H133667   0.876   3.435   7.001  0.0643 -0.8691  0.7738
 4036TIP3    H233668   1.002   3.517   6.985 -0.2730 -0.5462 -0.2909
 4037TIP3   OH233669   4.168   2.387   8.556  0.6188  0.0654  0.0672
 4037TIP3    H133670   4.250   2.343   8.536  0.9249  0.0594  1.2644
 4037TIP3    H233671   4.189   2.446   8.628  0.4696  2.9798 -2.0546
 4038TIP3   OH233672   0.928   0.934   1.912  0.0340  0.2943  0.1588
 4038TIP3    H133673   0.994   0.977   1.966 -0.2117  0.7889  0.0654
 4038TIP3    H233674   0.939   0.971   1.825 -0.2987  0.3024  0.1171
 4039TIP3   OH233675   1.649   6.112   8.018 -0.2853 -0.2584 -0.4165
 4039TIP3    H133676   1.712   6.075   7.957 -2.3730 -2.2626 -1.5239
 4039TIP3    H233677   1.591   6.166   7.963  1.1812  2.7680  0.7897
 4040TIP3   OH233678   2.671   4.005   0.359  0.0843  0.1715 -0.1539
 4040TIP3    H133679   2.635   3.951   0.429  0.9974 -0.1096  0.1147
 4040TIP3    H233680   2.701   4.085   0.403  0.9048 -0.1185 -0.1637
 4041TIP3   OH233681   0.105   3.370   0.283  0.0376 -0.0971  0.0842
 4041TIP3    H133682   0.078   3.446   0.231  1.1307 -0.0024 -0.3888
 4041TIP3    H233683   0.030   3.311   0.281  0.4140 -0.6266 -2.6284
 4042TIP3   OH233684   4.271   3.151   8.362 -0.5165 -0.0654  0.1556
 4042TIP3    H133685   4.233   3.179   8.279 -0.9876  3.0205  1.2569
 4042TIP3    H233686   4.365   3.157   8.349 -0.4810 -2.0159 -0.8235
 4043TIP3   OH233687   3.818   0.555   0.773 -0.1322  0.4808 -0.0150
 4043TIP3    H133688   3.815   0.553   0.868 -1.9581  0.5187 -0.0388
 4043TIP3    H233689   3.782   0.641   0.749 -2.5135 -0.6232 -0.7448
 4044TIP3   OH233690   2.474   4.967   1.366 -0.2643 -0.5755 -0.2700
 4044TIP3    H133691   2.423   4.969   1.447  0.5401 -0.4369  0.2437
 4044TIP3    H233692   2.563   4.991   1.392 -0.2363  0.6734 -1.3931
 4045TIP3   OH233693   1.752   1.064   3.182 -0.0557  0.2192 -0.1451
 4045TIP3    H133694   1.844   1.064   3.207 -0.3086  0.9467  0.8616
 4045TIP3    H233695   1.724   1.155   3.196 -0.7631  0.1503 -1.0581
 4046TIP3   OH233696   5.038   1.464   0.530 -0.2205  0.2347  0.2006
 4046TIP3    H133697   4.977   1.516   0.478 -0.4736  0.0640  0.3220
 4046TIP3    H233698   5.028   1.375   0.497  0.0496  0.2247  0.1424
 4047TIP3   OH233699   5.957   6.300   8.215 -0.0252  0.0513 -0.2376
 4047TIP3    H133700   6.051   6.315   8.230  0.0732  0.4485 -1.1586
 4047TIP3    H233701   5.945   6.316   8.122 -0.6390 -2.0749 -0.5730
 4048TIP3   OH233702   1.769   5.337   0.587  0.2275  0.7930 -0.8554
 4048TIP3    H133703   1.803   5.388   0.660 -0.1884 -0.3638  0.1726
 4048TIP3    H233704   1.684   5.378   0.567 -0.6392 -0.1521  0.7185
 4049TIP3   OH233705   3.014   1.425   1.925  0.0718 -0.2556  0.2988
 4049TIP3    H133706   3.057   1.452   1.843  0.0515  0.4512  0.5150
 4049TIP3    H233707   3.040   1.334   1.936  1.5786  0.1588  0.4508
 4050TIP3   OH233708   2.534   3.897   1.409  0.1221 -0.1728  0.0398
 4050TIP3    H133709   2.533   3.949   1.329 -0.2557 -0.1049  0.0863
 4050TIP3    H233710   2.625   3.904   1.441  0.3016 -0.3002 -0.4408
 4051TIP3   OH233711   1.621   2.693   1.366 -0.4971 -1.0200  0.4575
 4051TIP3    H133712   1.622   2.597   1.356 -0.8522 -1.1208  1.2671
 4051TIP3    H233713   1.608   2.726   1.278  2.1094 -1.6333 -0.2575
 4052TIP3   OH233714   1.856   6.108   0.535 -0.3764 -0.0124  0.2492
 4052TIP3    H133715   1.764   6.134   0.532 -0.1431  0.8131 -0.2837
 4052TIP3    H233716   1.886   6.117   0.444  0.9379  2.4837  0.8283
 4053TIP3   OH233717   0.889   6.172   7.886 -0.4066 -0.4534 -0.1717
 4053TIP3    H133718   0.980   6.150   7.870 -0.4485  0.6865 -2.2414
 4053TIP3    H233719   0.889   6.214   7.972  0.7989 -1.4774  0.3653
 4054TIP3   OH233720   5.930   6.488   1.232  0.3202  0.1288 -0.5359
 4054TIP3    H133721   5.871   6.552   1.192  0.8434  0.8020 -0.2526
 4054TIP3    H233722   5.982   6.455   1.159  1.8450  1.9627 -0.3640
 4055TIP3   OH233723   0.279   1.901   3.353 -0.1045  0.1047 -0.4749
 4055TIP3    H133724   0.188   1.905   3.384  0.1096  1.0095  0.1015
 4055TIP3    H233725   0.275   1.938   3.264 -0.2848  0.2421 -0.4118
 4056TIP3   OH233726   6.825   1.728   3.179  0.8433 -0.2020 -0.6679
 4056TIP3    H133727   6.744   1.678   3.182  0.1171  0.9316 -0.8971
 4056TIP3    H233728   6.809   1.797   3.115  1.9541  0.0959 -0.6513
 4057TIP3   OH233729   4.754   3.665   1.459 -0.0760  0.2740  0.0113
 4057TIP3    H133730   4.803   3.603   1.405 -1.1270  0.1467 -0.8301
 4057TIP3    H233731   4.773   3.750   1.421 -0.7464  0.1924 -0.5386
 4058TIP3   OH233732   1.272   2.427   7.557 -0.4272  0.3168 -0.2814
 4058TIP3    H133733   1.248   2.380   7.477 -0.4855 -0.9145  0.4232
 4058TIP3    H233734   1.366   2.416   7.565 -0.2658  1.3166 -0.7037
 4059TIP3   OH233735   4.859   6.411   1.057  0.3185 -0.3918 -0.4881
 4059TIP3    H133736   4.857   6.420   1.153  0.5488 -0.0458 -0.5155
 4059TIP3    H233737   4.941   6.453   1.031 -0.0397  0.0548 -0.8961
 4060TIP3   OH233738   2.635   5.178   1.606 -0.8075 -0.0589  0.0014
 4060TIP3    H133739   2.550   5.210   1.638 -0.4527  0.5479  0.3600
 4060TIP3    H233740   2.695   5.195   1.679 -0.3578 -0.3883 -0.2934
 4061TIP3   OH233741   0.775   6.415   0.049 -0.1131 -0.3673  0.4973
 4061TIP3    H133742   0.811   6.421   0.138 -1.7066  1.2957  1.0981
 4061TIP3    H233743   0.727   6.332   0.049 -1.5480  0.3989  1.8297
 4062TIP3   OH233744   4.797   5.302   2.028  0.4891  0.3781  0.6541
 4062TIP3    H133745   4.808   5.229   1.967  0.8484  1.6329 -0.8511
 4062TIP3    H233746   4.723   5.277   2.083  0.1770 -0.8287 -0.2821
 4063TIP3   OH233747   4.246   6.832   0.290  0.1071 -0.0279  0.3396
 4063TIP3    H133748   4.292   6.868   0.214  0.7318  0.0594  0.7508
 4063TIP3    H233749   4.216   6.909   0.339 -3.2665  0.0244 -1.4917
 4064TIP3   OH233750   4.100   3.573   2.002  0.1268  0.5072  0.1885
 4064TIP3    H133751   4.069   3.561   1.912 -2.0822  1.4858  0.7381
 4064TIP3    H233752   4.097   3.486   2.040 -1.6004  0.4722  0.0531
 4065TIP3   OH233753   5.045   2.182   7.208  0.1114  0.5342  0.1469
 4065TIP3    H133754   5.131   2.140   7.211  0.4853  0.7326 -3.3242
 4065TIP3    H233755   5.064   2.274   7.191 -0.7950  0.9142  1.0932
 4066TIP3   OH233756   6.538   5.967   2.909 -0.7198 -0.3411 -0.0024
 4066TIP3    H133757   6.561   5.903   2.976 -2.8817 -0.6363  0.5301
 4066TIP3    H233758   6.568   6.051   2.943  0.2162 -0.7796  0.2745
 4067TIP3   OH233759   6.200   4.854   8.060  0.2301 -0.2630  0.1977
 4067TIP3    H133760   6.154   4.863   8.143  0.6157  0.3488  0.3532
 4067TIP3    H233761   6.132   4.865   7.993 -0.1044 -0.8987  0.4242
 4068TIP3   OH233762   6.589   2.029   1.600  0.1723 -0.1014  0.6954
 4068TIP3    H133763   6.582   1.982   1.517  0.1805  0.0617  0.6029
 4068TIP3    H233764   6.676   2.069   1.598 -0.7467  1.9872 -0.3200
 4069TIP3   OH233765   0.351   2.475   2.434 -0.7017  0.4341  0.2068
 4069TIP3    H133766   0.265   2.486   2.476 -0.0443  0.5507  1.5873
 4069TIP3    H233767   0.410   2.451   2.506  0.2011 -0.8144 -0.9070
 4070TIP3   OH233768   1.469   4.535   2.896  0.1601  0.0851  0.0291
 4070TIP3    H133769   1.491   4.515   2.987  1.4807 -1.7779 -0.6347
 4070TIP3    H233770   1.551   4.523   2.848 -0.5710  0.7342 -1.4599
 4071TIP3   OH233771   4.002   5.276   2.988  0.6192 -0.0935  0.0653
 4071TIP3    H133772   3.943   5.304   3.058  1.1468  1.6652 -0.1383
 4071TIP3    H233773   4.054   5.206   3.027  1.5030  1.4303  1.7887
 4072TIP3   OH233774   3.240   0.926   2.036 -0.0181 -0.2608  0.5309
 4072TIP3    H133775   3.174   0.919   2.104 -0.8936  2.0487  0.0261
 4072TIP3    H233776   3.221   0.855   1.975 -3.6659  1.6925 -0.8698
 4073TIP3   OH233777   5.663   5.293   2.584 -0.0598  0.0352 -0.3765
 4073TIP3    H133778   5.725   5.342   2.530  0.8273 -0.9289 -0.2535
 4073TIP3    H233779   5.677   5.201   2.561 -1.9445 -0.1820 -0.8668
 4074TIP3   OH233780   1.094   1.577   1.702 -0.4996  0.4503  0.5291
 4074TIP3    H133781   1.161   1.511   1.679 -0.5928  0.4115  0.3713
 4074TIP3    H233782   1.050   1.596   1.620 -0.7258  0.4313  0.6471
 4075TIP3   OH233783   6.911   2.099   0.802 -0.6420 -0.4583 -0.5994
 4075TIP3    H133784   6.835   2.119   0.857 -0.1300  0.3474 -0.1658
 4075TIP3    H233785   6.969   2.048   0.859 -0.4326 -0.2436 -0.6189
 4076TIP3   OH233786   6.616   4.664   1.221  0.2515 -0.1981  0.1370
 4076TIP3    H133787   6.523   4.683   1.215  0.4253  1.3359  1.7479
 4076TIP3    H233788   6.659   4.740   1.182  0.8743 -0.9981 -0.8248
 4077TIP3   OH233789   0.647   5.654   2.884  0.3959 -0.0920  0.1650
 4077TIP3    H133790   0.722   5.714   2.880 -1.1813  1.9607 -0.0718
 4077TIP3    H233791   0.639   5.631   2.976  1.9535 -1.2493  0.0530
 4078TIP3   OH233792   4.804   2.284   2.751 -0.4238 -0.1117 -0.0828
 4078TIP3    H133793   4.855   2.363   2.767  1.3416 -0.6147 -2.5410
 4078TIP3    H233794   4.755   2.269   2.832  2.4336  1.0884  2.0063
 4079TIP3   OH233795   4.812   1.087   1.721  0.1379  0.5447  0.1950
 4079TIP3    H133796   4.848   1.007   1.761 -0.1047  0.1017 -0.4589
 4079TIP3    H233797   4.730   1.102   1.769 -0.1021  0.0730 -0.0567
 4080TIP3   OH233798   4.548   6.510   2.048 -0.0796 -0.1439  0.2975
 4080TIP3    H133799   4.462   6.471   2.032 -0.0872 -0.2473  0.5838
 4080TIP3    H233800   4.610   6.438   2.035  0.0338  0.1389 -0.7671
 4081TIP3   OH233801   2.460   3.638   8.112  0.1968  0.5719  0.5333
 4081TIP3    H133802   2.458   3.681   8.026 -0.3210 -0.2690  0.1089
 4081TIP3    H233803   2.402   3.691   8.167  1.3296  1.7164  0.6790
 4082TIP3   OH233804   3.282   4.371   7.637  0.3361 -0.0456  0.2699
 4082TIP3    H133805   3.330   4.402   7.560  0.6523 -0.5228  0.2700
 4082TIP3    H233806   3.202   4.424   7.638 -0.4472 -1.0995 -1.3221
 4083TIP3   OH233807   0.361   5.003   1.135  0.1129  0.1103 -0.4604
 4083TIP3    H133808   0.351   5.044   1.049 -0.9269 -2.7604 -1.8503
 4083TIP3    H233809   0.284   4.946   1.144  0.9901 -0.8695  1.6893
 4084TIP3   OH233810   1.875   2.599   1.755  0.6199 -0.2525 -0.1707
 4084TIP3    H133811   1.797   2.634   1.798  1.7200  0.5087  1.2703
 4084TIP3    H233812   1.857   2.610   1.662 -1.0619 -0.2631  0.1160
 4085TIP3   OH233813   5.086   2.730   2.305  0.2107 -0.3395 -0.3700
 4085TIP3    H133814   4.994   2.734   2.279  0.4835  1.4128 -1.2361
 4085TIP3    H233815   5.109   2.821   2.326  1.5161 -0.8753  0.6928
 4086TIP3   OH233816   4.701   6.347   1.442  0.2996 -0.2880 -0.2572
 4086TIP3    H133817   4.616   6.390   1.435  1.3396  1.7068 -1.4428
 4086TIP3    H233818   4.684   6.256   1.415 -1.9577 -0.7946  2.3317
 4087TIP3   OH233819   2.773   4.894   8.094 -0.2774 -0.4056 -0.0861
 4087TIP3    H133820   2.787   4.984   8.066  0.0074 -0.8240 -1.3185
 4087TIP3    H233821   2.695   4.865   8.047 -1.5838 -0.1982  1.8018
 4088TIP3   OH233822   0.233   5.243   2.312  0.1609  0.1668 -0.7369
 4088TIP3    H133823   0.316   5.283   2.337  0.2764 -0.3417 -0.2827
 4088TIP3    H233824   0.200   5.205   2.393 -0.4774  0.2982 -0.9360
 4089TIP3   OH233825   2.369   4.049   2.679  0.3921  0.0671  0.0025
 4089TIP3    H133826   2.279   4.072   2.704  0.5288  2.0989 -1.1434
 4089TIP3    H233827   2.360   3.967   2.631 -0.7368 -0.1890  0.6037
 4090TIP3   OH233828   1.775   0.298   0.285  0.0790 -0.6776  0.4726
 4090TIP3    H133829   1.831   0.276   0.360  3.4748 -0.5186 -1.7944
 4090TIP3    H233830   1.799   0.388   0.262 -0.1842 -1.0247 -1.3113
 4091TIP3   OH233831   5.616   1.954   1.001 -0.1180  0.4106 -0.7562
 4091TIP3    H133832   5.564   1.874   0.993  1.3955 -0.6397 -0.5740
 4091TIP3    H233833   5.557   2.017   1.043 -0.7806 -1.2015  0.8583
 4092TIP3   OH233834   6.253   6.601   0.939  1.1053 -0.2086 -0.1499
 4092TIP3    H133835   6.176   6.647   0.904 -0.3830 -2.2060  0.3404
 4092TIP3    H233836   6.304   6.578   0.861 -0.0491 -0.9567 -0.7160
 4093TIP3   OH233837   5.918   3.132   7.766 -0.3018  0.0173  0.2782
 4093TIP3    H133838   5.863   3.090   7.700 -1.1157  1.6273 -0.1298
 4093TIP3    H233839   6.007   3.104   7.745 -0.8033 -1.4836  0.0571
 4094TIP3   OH233840   4.739   5.994   0.633  0.3901  0.1058 -0.3681
 4094TIP3    H133841   4.747   5.949   0.717  0.1623  0.7649  0.0153
 4094TIP3    H233842   4.750   6.087   0.655 -0.9913  0.4072 -0.8591
 4095TIP3   OH233843   6.514   3.327   1.328  0.2583  0.1064  0.4751
 4095TIP3    H133844   6.442   3.263   1.331 -0.0345  0.4064 -0.0332
 4095TIP3    H233845   6.537   3.341   1.420  0.6148 -1.0432  0.5764
 4096TIP3   OH233846   5.606   5.400   7.526  0.0198 -0.0430 -0.5393
 4096TIP3    H133847   5.602   5.471   7.590 -1.1955 -1.8351  1.5100
 4096TIP3    H233848   5.653   5.437   7.451  0.8862  2.3751  1.0949
 4097TIP3   OH233849   6.387   4.310   0.180  0.2512 -0.3305 -0.1896
 4097TIP3    H133850   6.403   4.223   0.215 -0.4102 -0.4868 -0.2598
 4097TIP3    H233851   6.313   4.299   0.121 -0.8491  0.5386  0.9728
 4098TIP3   OH233852   4.392   1.780   2.404  0.4225  0.6460 -0.3753
 4098TIP3    H133853   4.396   1.809   2.496 -1.7573  0.7625 -0.2715
 4098TIP3    H233854   4.392   1.685   2.409  0.0768  0.6502 -0.2177
 4099TIP3   OH233855   3.025   1.688   8.205  0.3868  0.4146 -0.1115
 4099TIP3    H133856   3.011   1.616   8.143  0.7929 -0.5136  0.8379
 4099TIP3    H233857   2.998   1.652   8.289  0.4736  1.4303  0.3603
 4100TIP3   OH233858   4.702   3.160   1.240  0.2021  0.4488  0.2864
 4100TIP3    H133859   4.640   3.166   1.313  0.3819  0.6022  0.4276
 4100TIP3    H233860   4.783   3.128   1.280  0.8228  2.1374  0.4748
 4101TIP3   OH233861   0.960   3.468   0.138  0.0647 -0.0656  0.1779
 4101TIP3    H133862   1.030   3.531   0.122 -1.8943  2.2678  0.1971
 4101TIP3    H233863   0.966   3.449   0.232 -0.9330  2.2773  0.7795
 4102TIP3   OH233864   3.934   0.545   1.165  0.3112 -0.3388  0.2329
 4102TIP3    H133865   3.842   0.568   1.155  0.6481  0.7361 -0.6695
 4102TIP3    H233866   3.949   0.475   1.102 -0.2800 -1.8005  1.6510
 4103TIP3   OH233867   4.723   6.501   2.380 -0.2763  0.2917  0.1554
 4103TIP3    H133868   4.742   6.538   2.466 -0.1503 -0.4689  0.4629
 4103TIP3    H233869   4.647   6.446   2.394  0.0697 -0.2618 -0.1004
 4104TIP3   OH233870   1.058   3.680   1.120 -0.3384 -0.7811 -0.2702
 4104TIP3    H133871   1.010   3.760   1.102 -1.5891 -1.3468  0.4024
 4104TIP3    H233872   1.145   3.695   1.083 -0.0740  1.4273  1.0468
 4105TIP3   OH233873   0.627   6.569   7.914  0.2234  0.9623 -0.0042
 4105TIP3    H133874   0.674   6.595   7.994 -0.0548 -0.4774  0.6502
 4105TIP3    H233875   0.535   6.574   7.937  0.0820  1.9425 -0.7077
 4106TIP3   OH233876   0.754   1.330   8.221 -0.3145  0.2612 -0.0961
 4106TIP3    H133877   0.827   1.272   8.197  0.0469  0.3326  0.8113
 4106TIP3    H233878   0.789   1.387   8.289 -1.4755 -0.3324  1.0432
 4107TIP3   OH233879   0.743   2.006   8.102  0.0046 -0.4680 -0.0400
 4107TIP3    H133880   0.656   2.045   8.116 -0.6810 -2.2406  0.9404
 4107TIP3    H233881   0.769   2.038   8.016 -0.3152  2.4208  0.7995
 4108TIP3   OH233882   1.119   4.998   2.458  0.1469 -0.0872 -0.3008
 4108TIP3    H133883   1.055   4.951   2.511  0.3899 -0.8663 -0.6824
 4108TIP3    H233884   1.165   5.055   2.520 -0.1891 -0.3183  0.1607
 4109TIP3   OH233885   2.694   1.624   0.767 -0.0210  0.2835 -0.0549
 4109TIP3    H133886   2.701   1.652   0.675 -2.8880 -1.9605 -1.0943
 4109TIP3    H233887   2.605   1.649   0.793  0.2559 -0.4096  1.6656
 4110TIP3   OH233888   4.255   0.533   1.085 -0.0400  0.8212  0.1283
 4110TIP3    H133889   4.264   0.590   1.162  0.6085  2.5045 -1.1355
 4110TIP3    H233890   4.239   0.446   1.122  0.7499  1.4754  2.1810
 4111TIP3   OH233891   0.953   5.322   1.808  0.1328  0.4312 -0.6237
 4111TIP3    H133892   0.867   5.283   1.793 -0.0154  0.5334 -0.0604
 4111TIP3    H233893   0.952   5.347   1.901  0.3668  1.4288 -0.8844
 4112TIP3   OH233894   0.945   3.221   1.889  0.5574 -0.1807 -0.4858
 4112TIP3    H133895   1.015   3.261   1.942  0.7246  0.7102 -1.3436
 4112TIP3    H233896   0.955   3.127   1.903 -0.1095  0.0438  1.9419
 4113TIP3   OH233897   3.325   0.371   7.641 -0.2320 -0.3036 -0.0536
 4113TIP3    H133898   3.231   0.385   7.628 -0.1011  0.8721  0.2045
 4113TIP3    H233899   3.361   0.367   7.552 -0.5365 -0.8740 -0.1546
 4114TIP3   OH233900   6.652   6.216   8.553 -0.3161  0.0287 -0.4401
 4114TIP3    H133901   6.600   6.220   8.633  0.0452 -0.0411 -0.1976
 4114TIP3    H233902   6.692   6.129   8.555  1.8701  0.9965  0.7026
 4115TIP3   OH233903   2.192   3.860   3.380  0.0870 -0.2309  0.2655
 4115TIP3    H133904   2.264   3.853   3.317  0.3090 -0.7333  0.5669
 4115TIP3    H233905   2.164   3.951   3.375  0.1801 -0.2371 -0.4753
 4116TIP3   OH233906   4.476   1.711   0.576 -0.1108  0.6497 -0.0430
 4116TIP3    H133907   4.412   1.755   0.632  1.7637  1.3874  1.6329
 4116TIP3    H233908   4.522   1.651   0.634  1.2367  0.6892 -1.0050
 4117TIP3   OH233909   1.400   3.415   1.214  0.0233 -0.2456 -0.0064
 4117TIP3    H133910   1.445   3.408   1.298 -0.4709  0.1879  0.3043
 4117TIP3    H233911   1.319   3.365   1.226  0.7394 -1.6664 -0.8086
 4118TIP3   OH233912   2.121   6.145   1.560  0.6659  0.0496  0.0000
 4118TIP3    H133913   2.045   6.189   1.523  0.2321 -0.0213  0.7857
 4118TIP3    H233914   2.194   6.204   1.543  1.0473 -1.1713 -3.4139
 4119TIP3   OH233915   3.517   3.013   1.759 -0.5832  0.2534 -0.7826
 4119TIP3    H133916   3.451   2.992   1.825  1.7087 -0.5922  1.4036
 4119TIP3    H233917   3.557   3.094   1.790  0.7116 -0.3034 -0.9142
 4120TIP3   OH233918   0.324   1.391   3.366  0.1069 -0.4412 -0.1210
 4120TIP3    H133919   0.287   1.307   3.339  0.0829 -0.3201 -0.4743
 4120TIP3    H233920   0.267   1.456   3.325 -1.4178 -0.2068  2.2097
 4121TIP3   OH233921   3.003   4.646   3.158 -0.1695  0.1550  0.2608
 4121TIP3    H133922   2.912   4.643   3.129 -0.0006 -1.2855 -0.1645
 4121TIP3    H233923   3.005   4.596   3.239  0.4675 -0.9181 -0.3964
 4122TIP3   OH233924   1.570   6.211   1.875  0.3276  0.2058 -0.5695
 4122TIP3    H133925   1.525   6.205   1.791  0.6295  2.7075 -0.9692
 4122TIP3    H233926   1.663   6.211   1.852  0.5159 -1.7211  0.0145
 4123TIP3   OH233927   6.549   6.903   2.449 -0.1984 -0.0972 -0.4866
 4123TIP3    H133928   6.467   6.924   2.493 -0.1520 -0.2446 -0.3221
 4123TIP3    H233929   6.538   6.933   2.359 -0.2569  0.3054 -0.3459
 4124TIP3   OH233930   1.284   4.294   1.239 -0.2502  0.3516 -0.5715
 4124TIP3    H133931   1.190   4.285   1.256 -0.1049  1.2072  0.8064
 4124TIP3    H233932   1.313   4.362   1.299  1.4263 -0.4761 -0.3965
 4125TIP3   OH233933   3.112   1.079   1.605  0.5013  0.0451 -1.0336
 4125TIP3    H133934   3.068   1.121   1.531 -0.7877  0.6019 -0.0036
 4125TIP3    H233935   3.065   1.111   1.682  0.6214 -1.9312 -0.0727
 4126TIP3   OH233936   6.428   1.473   1.772 -0.4194 -0.3207 -0.1515
 4126TIP3    H133937   6.407   1.379   1.776 -1.9461 -0.0271 -0.4991
 4126TIP3    H233938   6.504   1.479   1.715  1.5691 -1.5915  2.1677
 4127TIP3   OH233939   1.191   4.686   2.376  0.0896 -0.4405 -0.0294
 4127TIP3    H133940   1.102   4.719   2.391  0.0458  0.8852 -2.7208
 4127TIP3    H233941   1.180   4.615   2.313  0.7947 -1.7348  1.2378
 4128TIP3   OH233942   0.734   1.331   0.114  0.4509  0.1650 -0.5323
 4128TIP3    H133943   0.747   1.417   0.153 -0.9399  0.7346 -1.2683
 4128TIP3    H233944   0.802   1.324   0.047 -0.6108  1.5481 -1.8169
 4129TIP3   OH233945   5.679   1.847   2.406 -0.1016  0.4380 -0.0982
 4129TIP3    H133946   5.762   1.880   2.440  1.2924 -3.2803  0.5224
 4129TIP3    H233947   5.615   1.870   2.473  1.2824 -0.4851  1.6100
 4130TIP3   OH233948   0.482   0.025   1.476 -0.1421  0.6950  0.4889
 4130TIP3    H133949   0.556   0.073   1.438 -0.1975  1.6140  1.4873
 4130TIP3    H233950   0.424   0.007   1.402  0.7400  0.5895 -0.1894
 4131TIP3   OH233951   0.615   0.334   0.293  0.2611 -0.2217  0.3253
 4131TIP3    H133952   0.568   0.348   0.211 -0.9209  0.3010  1.0531
 4131TIP3    H233953   0.707   0.345   0.271  0.0064 -0.6419 -1.0322
 4132TIP3   OH233954   6.669   0.132   7.741 -0.1387 -0.2661  0.6984
 4132TIP3    H133955   6.639   0.124   7.831  0.1812  0.5903  0.8897
 4132TIP3    H233956   6.589   0.129   7.688 -0.2506 -1.8238  0.9253
 4133TIP3   OH233957   0.253   5.903   2.595 -0.1283 -0.2840  0.2353
 4133TIP3    H133958   0.283   5.838   2.659 -0.0982 -0.6813 -0.1782
 4133TIP3    H233959   0.313   5.893   2.521 -1.5255 -1.4046 -0.7912
 4134TIP3   OH233960   6.502   4.703   1.791  0.0492 -0.1967  1.1398
 4134TIP3    H133961   6.442   4.697   1.716  0.4879 -0.6742  0.8188
 4134TIP3    H233962   6.488   4.621   1.838  0.8001 -0.5371  0.7887
 4135TIP3   OH233963   4.920   0.880   1.847 -0.2788 -0.5281 -0.2214
 4135TIP3    H133964   4.960   0.870   1.933  3.0605 -0.9369 -1.6518
 4135TIP3    H233965   4.847   0.819   1.846 -0.7335 -0.1312  2.4470
 4136TIP3   OH233966   0.286   1.084   2.534 -0.2198 -0.0383  0.0082
 4136TIP3    H133967   0.308   0.991   2.525  1.1137 -0.0638  2.5383
 4136TIP3    H233968   0.368   1.130   2.514 -0.2458  0.4244  0.9099
 4137TIP3   OH233969   1.139   2.797   0.264 -0.3746 -0.0974  0.4491
 4137TIP3    H133970   1.218   2.839   0.230  0.0901  0.1282  1.7797
 4137TIP3    H233971   1.075   2.868   0.271 -1.0155 -0.4199 -1.4246
 4138TIP3   OH233972   2.180   4.745   1.662  0.4969 -0.1593  0.6198
 4138TIP3    H133973   2.097   4.754   1.708 -0.0932 -3.0441  0.2957
 4138TIP3    H233974   2.158   4.754   1.570  0.4174 -1.2556  0.5092
 4139TIP3   OH233975   6.219   3.159   1.901 -0.5354 -0.4626 -0.0499
 4139TIP3    H133976   6.173   3.077   1.883 -0.7784 -0.4391  0.4318
 4139TIP3    H233977   6.279   3.138   1.973  0.3478 -0.5382 -0.7991
 4140TIP3   OH233978   3.312   3.940   0.363 -0.0852  0.3139  0.4104
 4140TIP3    H133979   3.355   3.895   0.436 -2.7715 -0.3773  1.7127
 4140TIP3    H233980   3.296   4.029   0.395 -0.6329  0.2148  0.4328
 4141TIP3   OH233981   2.679   6.689   8.455 -0.4849  0.4493 -0.0574
 4141TIP3    H133982   2.674   6.779   8.486  0.6935  0.4217  0.2495
 4141TIP3    H233983   2.602   6.646   8.493 -0.3066  0.9824  0.9477
 4142TIP3   OH233984   6.486   2.922   1.464 -0.2502 -0.0522  0.0656
 4142TIP3    H133985   6.445   2.851   1.514  0.6087 -0.3910  0.3078
 4142TIP3    H233986   6.421   2.945   1.398 -0.6240 -0.9282  0.1098
 4143TIP3   OH233987   1.250   0.792   1.483  0.2486  0.1656  0.2220
 4143TIP3    H133988   1.225   0.882   1.460 -3.5937 -0.5447  1.0115
 4143TIP3    H233989   1.304   0.763   1.409 -0.7449  2.2014 -1.4061
 4144TIP3   OH233990   0.861   4.555   3.039  0.4621 -0.0140 -0.0191
 4144TIP3    H133991   0.856   4.473   3.088  0.2751 -0.0323 -0.0696
 4144TIP3    H233992   0.898   4.617   3.102 -0.7939  0.2352  0.5161
 4145TIP3   OH233993   5.699   5.910   1.126 -0.3081 -0.3307  0.6029
 4145TIP3    H133994   5.770   5.897   1.188  0.3909  0.8170  0.0683
 4145TIP3    H233995   5.693   5.827   1.079  1.4693 -0.0738 -0.1313
 4146TIP3   OH233996   4.650   4.459   2.968 -0.6295 -0.5071 -0.1028
 4146TIP3    H133997   4.571   4.408   2.953 -0.0184 -1.3881 -0.4278
 4146TIP3    H233998   4.651   4.474   3.063 -0.7738 -1.1860  0.0119
 4147TIP3   OH233999   6.480   0.041   3.650 -0.0225  0.5933  0.0831
 4147TIP3    H134000   6.426   0.114   3.620  0.7006  1.4583  0.8267
 4147TIP3    H234001   6.471  -0.025   3.581 -0.8659  1.2873 -0.5000
 4148TIP3   OH234002   6.034   6.775   3.365 -0.3751  0.1012 -0.3923
 4148TIP3    H134003   6.001   6.724   3.438 -1.3477  0.8879 -0.2602
 4148TIP3    H234004   5.987   6.858   3.370 -0.0958  0.3602 -1.6167
 4149TIP3   OH234005   2.884   0.019   2.316 -0.1232  0.0143 -0.1426
 4149TIP3    H134006   2.883   0.111   2.341 -0.4982 -0.3390  1.2428
 4149TIP3    H234007   2.975  -0.008   2.325 -0.0167  0.2457 -0.5363
 4150TIP3   OH234008   1.259   0.453   0.695 -0.3968  0.0897 -0.1926
 4150TIP3    H134009   1.258   0.432   0.602 -0.0588 -0.6250 -0.0480
 4150TIP3    H234010   1.318   0.387   0.733 -1.5495 -0.4664  0.7049
 4151TIP3   OH234011   2.017   2.592   2.752  0.7203  0.1207  0.3386
 4151TIP3    H134012   2.014   2.677   2.797 -0.9085 -0.5370  1.5971
 4151TIP3    H234013   2.101   2.554   2.777  1.4461  1.3103 -0.1967
 4152TIP3   OH234014   5.845   1.999   7.250  0.0886  0.0764  0.0802
 4152TIP3    H134015   5.766   2.039   7.287  0.4169  0.9602 -0.1475
 4152TIP3    H234016   5.900   2.073   7.226  0.2680 -0.5032 -1.3631
 4153TIP3   OH234017   2.897   5.801   1.662 -0.1006  0.0031  0.8115
 4153TIP3    H134018   2.838   5.756   1.602 -1.4432 -0.6790  2.5478
 4153TIP3    H234019   2.854   5.884   1.680  1.6580  1.4643 -1.2364
 4154TIP3   OH234020   3.305   1.727   8.307 -0.2555 -0.1121  0.0333
 4154TIP3    H134021   3.232   1.681   8.267 -0.2733  0.3301 -0.4581
 4154TIP3    H234022   3.295   1.818   8.278 -0.8735  0.4604  1.9101
 4155TIP3   OH234023   4.731   5.783   3.492  0.2646  0.1381 -0.3398
 4155TIP3    H134024   4.732   5.730   3.572  1.2532 -1.0029 -1.0823
 4155TIP3    H234025   4.772   5.866   3.517  0.0564  0.0063  0.4640
 4156TIP3   OH234026   5.604   4.667   8.484 -0.3038 -0.4354 -0.3822
 4156TIP3    H134027   5.537   4.728   8.515 -1.0067 -0.7923 -1.1451
 4156TIP3    H234028   5.563   4.581   8.490 -0.9608 -0.4313 -3.3495
 4157TIP3   OH234029   4.382   3.218   7.750  0.0586  0.3770  0.2073
 4157TIP3    H134030   4.336   3.248   7.828 -2.3225  0.5138 -1.1787
 4157TIP3    H234031   4.377   3.291   7.689  0.6016 -0.2499 -0.6174
 4158TIP3   OH234032   3.927   4.408   2.240  0.1036  0.3492 -0.1497
 4158TIP3    H134033   3.847   4.390   2.289 -0.4120  0.3344 -0.9759
 4158TIP3    H234034   3.911   4.369   2.154  0.6509  1.1076 -0.6044
 4159TIP3   OH234035   1.323   0.305   1.241  0.2051 -0.1147 -0.9132
 4159TIP3    H134036   1.267   0.281   1.315  0.4533 -0.4609 -0.8317
 4159TIP3    H234037   1.272   0.369   1.192  0.3596  0.7470  0.0015
 4160TIP3   OH234038   3.463   6.264   0.995  0.3429  0.3526  0.4051
 4160TIP3    H134039   3.556   6.281   0.983  0.3244 -0.2196 -0.6286
 4160TIP3    H234040   3.456   6.168   0.998 -0.2584  0.3774 -0.0037
 4161TIP3   OH234041   5.399   1.282   0.052  0.4218 -0.0739 -0.0173
 4161TIP3    H134042   5.408   1.241   0.138 -0.1846 -2.6352 -1.0754
 4161TIP3    H234043   5.473   1.248   0.002  0.1424  0.4949 -0.8326
 4162TIP3   OH234044   0.940   2.928   0.544 -0.7614 -0.1896 -0.1104
 4162TIP3    H134045   0.928   2.932   0.639 -0.7164  2.4838 -0.1596
 4162TIP3    H234046   1.000   2.854   0.531  1.0646  0.7720  2.1608
 4163TIP3   OH234047   6.183   6.121   8.181 -0.0848  0.2401 -0.6141
 4163TIP3    H134048   6.230   6.065   8.120 -1.1094  1.2144 -2.3823
 4163TIP3    H234049   6.114   6.065   8.217  0.9457 -0.5318  0.2245
 4164TIP3   OH234050   1.147   1.046   2.967 -0.1857  0.2747 -0.3010
 4164TIP3    H134051   1.239   1.025   2.951  0.4607  2.1866  0.5127
 4164TIP3    H234052   1.136   1.034   3.062 -0.3923  1.2904 -0.1838
 4165TIP3   OH234053   0.281   1.614   8.322  0.5674 -0.0840  0.0679
 4165TIP3    H134054   0.359   1.565   8.297 -0.0792 -0.2035 -1.8095
 4165TIP3    H234055   0.286   1.696   8.273  0.0668  0.3947  0.7915
 4166TIP3   OH234056   4.922   5.025   1.669 -0.6932 -0.1001  0.1095
 4166TIP3    H134057   4.910   4.999   1.577 -0.3504  0.1989 -0.0238
 4166TIP3    H234058   4.993   5.090   1.666 -0.6224 -0.1535  0.5962
 4167TIP3   OH234059   2.510   6.328   7.185  0.0477 -0.3447 -0.8947
 4167TIP3    H134060   2.422   6.291   7.195 -0.0836  0.0992 -0.3549
 4167TIP3    H234061   2.500   6.420   7.209  0.8140 -0.4580 -0.0905
 4168TIP3   OH234062   4.915   0.615   0.360  0.5274  0.0308  0.0037
 4168TIP3    H134063   4.900   0.539   0.415 -0.8050  1.0512  1.1331
 4168TIP3    H234064   4.897   0.690   0.417  0.9441  1.1751 -1.3092
 4169TIP3   OH234065   3.286   3.254   1.983  0.6112 -0.5741 -0.2797
 4169TIP3    H134066   3.369   3.293   1.955 -0.9452  2.9136 -0.5349
 4169TIP3    H234067   3.296   3.243   2.078  1.2033  0.3107 -0.2265
 4170TIP3   OH234068   3.878   0.244   7.744  0.1412 -0.4010  0.3757
 4170TIP3    H134069   3.799   0.242   7.690 -0.2311  0.8761  0.8558
 4170TIP3    H234070   3.908   0.152   7.746 -0.9855 -0.7959 -0.2903
 4171TIP3   OH234071   5.889   2.435   8.492  0.0821 -0.1544  0.3849
 4171TIP3    H134072   5.877   2.422   8.586  0.9930 -1.7134  0.3248
 4171TIP3    H234073   5.984   2.430   8.479  0.1102  1.7086 -0.4235
 4172TIP3   OH234074   2.462   6.584   8.552  0.1060  0.1406  0.2013
 4172TIP3    H134075   2.427   6.495   8.555 -0.5412  0.2939 -1.3420
 4172TIP3    H234076   2.387   6.640   8.571  0.2743  0.3782  0.1711
 4173TIP3   OH234077   2.905   6.366   1.411  0.2096 -0.4289 -0.0986
 4173TIP3    H134078   2.823   6.372   1.363  0.2790 -0.0535 -0.1781
 4173TIP3    H234079   2.971   6.352   1.343  0.2297 -0.5520 -0.0526
 4174TIP3   OH234080   6.618   0.712   7.556 -0.0115  0.2917 -0.1161
 4174TIP3    H134081   6.630   0.801   7.523 -1.7855  0.7806  0.3945
 4174TIP3    H234082   6.691   0.698   7.617  0.4301  1.3014 -0.4039
 4175TIP3   OH234083   2.444   5.332   2.050  0.5148  0.1336 -0.4020
 4175TIP3    H134084   2.408   5.387   2.119  1.4421  0.6215 -0.2964
 4175TIP3    H234085   2.460   5.248   2.092  0.4745  0.2313 -0.1895
 4176TIP3   OH234086   6.335   0.836   0.272  0.1792  0.0948 -0.1711
 4176TIP3    H134087   6.337   0.857   0.365 -2.8186  0.0015 -0.0057
 4176TIP3    H234088   6.337   0.741   0.269  0.1642  0.0951 -0.1937
 4177TIP3   OH234089   1.306   5.424   2.153  0.0108 -0.0350  0.4327
 4177TIP3    H134090   1.397   5.401   2.135  0.1114 -0.3106  1.2298
 4177TIP3    H234091   1.307   5.453   2.244 -0.2962  2.2170 -0.2167
 4178TIP3   OH234092   0.709   4.594   1.591 -0.0455  1.0984  0.1110
 4178TIP3    H134093   0.776   4.526   1.598  0.8670  1.8756 -0.7225
 4178TIP3    H234094   0.659   4.572   1.513  0.3096  1.4266 -0.2119
 4179TIP3   OH234095   4.261   6.495   2.829 -0.3954 -0.1171 -0.2538
 4179TIP3    H134096   4.299   6.505   2.916 -0.6170 -0.6767 -0.0923
 4179TIP3    H234097   4.244   6.401   2.820 -1.0073  0.0223 -0.6329
 4180TIP3   OH234098   2.580   1.938   8.141 -0.9142 -0.0054 -0.0897
 4180TIP3    H134099   2.554   1.873   8.076 -0.9728  0.3237 -0.3992
 4180TIP3    H234100   2.670   1.916   8.163 -0.8585 -0.0536 -0.3626
 4181TIP3   OH234101   3.107   3.997   2.644 -0.1415 -0.2226  0.0583
 4181TIP3    H134102   3.188   4.010   2.694 -0.8588  1.0791  0.9371
 4181TIP3    H234103   3.060   3.930   2.692  0.5889 -1.3459 -0.7268
 4182TIP3   OH234104   1.544   0.697   2.533  0.0155 -0.1940 -0.1535
 4182TIP3    H134105   1.525   0.717   2.625 -0.3832 -0.5869 -0.1498
 4182TIP3    H234106   1.481   0.748   2.484  0.9974  0.9554 -0.2651
 4183TIP3   OH234107   1.206   6.464   0.347  0.1564 -0.8849 -0.0001
 4183TIP3    H134108   1.138   6.526   0.376  2.2873  1.8666 -0.4739
 4183TIP3    H234109   1.217   6.405   0.421 -3.0720 -1.8232 -0.1081
 4184TIP3   OH234110   1.253   0.046   3.398  0.0973  0.0993 -0.0462
 4184TIP3    H134111   1.194   0.072   3.326 -1.2051 -0.9176  0.6011
 4184TIP3    H234112   1.253   0.121   3.457  0.2704  0.5052 -0.5564
 4185TIP3   OH234113   5.233   1.963   0.317 -0.3586  0.0711 -0.1338
 4185TIP3    H134114   5.327   1.942   0.314 -0.2983  0.4089 -1.1745
 4185TIP3    H234115   5.205   1.936   0.404  0.1545 -2.4368 -0.6552
 4186TIP3   OH234116   1.596   5.989   1.138 -0.2269 -0.8091 -0.2844
 4186TIP3    H134117   1.689   5.971   1.157  0.0149 -0.8786 -1.4747
 4186TIP3    H234118   1.588   6.084   1.145  0.1249 -0.7242 -0.9737
 4187TIP3   OH234119   4.087   4.306   1.053 -0.4264 -0.8173 -0.5220
 4187TIP3    H134120   4.069   4.235   0.991 -2.1876 -0.7565 -0.1236
 4187TIP3    H234121   4.001   4.336   1.081  0.2819  1.2095 -0.3507
 4188TIP3   OH234122   6.323   4.699   2.730 -0.5428  0.0242  0.1248
 4188TIP3    H134123   6.318   4.791   2.703 -1.1845 -0.1085 -0.2282
 4188TIP3    H234124   6.415   4.687   2.754 -0.5127  0.8303  0.4536
 4189TIP3   OH234125   2.014   6.554   1.889  0.0709 -0.0118  0.2770
 4189TIP3    H134126   2.063   6.519   1.815 -1.2152 -1.1887 -0.0562
 4189TIP3    H234127   1.923   6.559   1.859 -0.4301 -0.1896  1.6481
 4190TIP3   OH234128   2.918   0.283   1.882  0.1778  0.0729  0.4096
 4190TIP3    H134129   2.917   0.264   1.788  1.3419  1.7940  0.0120
 4190TIP3    H234130   2.834   0.327   1.898  0.3509  0.5599 -0.0055
 4191TIP3   OH234131   0.745   6.038   2.487  0.7519  0.2354  0.2678
 4191TIP3    H134132   0.799   6.067   2.560  1.3094 -1.0907  0.4159
 4191TIP3    H234133   0.806   6.000   2.424  0.0902 -0.6387  0.1171
 4192TIP3   OH234134   5.836   6.558   2.433 -0.3090  0.2123  0.6523
 4192TIP3    H134135   5.815   6.496   2.503  0.7637 -1.5718 -0.5308
 4192TIP3    H234136   5.931   6.561   2.430 -0.3067  2.3763  1.0021
 4193TIP3   OH234137   3.017   2.088   0.096 -0.0382 -0.1205 -0.3451
 4193TIP3    H134138   3.026   1.992   0.092  0.3939 -0.0761 -0.4128
 4193TIP3    H234139   3.085   2.121   0.037 -1.3381  0.1776 -1.7630
 4194TIP3   OH234140   3.462   6.339   1.637  0.5714 -0.2748  0.1577
 4194TIP3    H134141   3.458   6.357   1.543 -0.0142 -1.9218 -0.1771
 4194TIP3    H234142   3.435   6.247   1.644  0.6004 -0.1724  1.9406
 4195TIP3   OH234143   4.845   5.058   0.523 -0.1409 -0.3371  0.1751
 4195TIP3    H134144   4.833   5.049   0.618 -1.9890 -0.8767 -0.0679
 4195TIP3    H234145   4.827   5.150   0.505  3.5687  0.6558  0.7022
 4196TIP3   OH234146   2.284   5.079   3.805 -0.0046  0.4053  0.3432
 4196TIP3    H134147   2.228   5.111   3.734 -1.4675  1.3336  1.8237
 4196TIP3    H234148   2.282   4.984   3.797 -0.8212  0.4723 -0.3817
 4197TIP3   OH234149   6.355   6.614   3.020 -0.0443  0.4845  0.0100
 4197TIP3    H134150   6.421   6.584   3.083  0.9691  0.1868 -1.1767
 4197TIP3    H234151   6.274   6.618   3.072  0.6019 -0.4889  1.1562
 4198TIP3   OH234152   6.587   0.801   0.086 -0.2398  0.3438 -0.1043
 4198TIP3    H134153   6.659   0.795   0.149 -0.1358 -3.2886 -0.3359
 4198TIP3    H234154   6.517   0.749   0.125 -2.4822  2.9923 -0.3440
 4199TIP3   OH234155   0.692   4.297   3.419 -0.0784  0.2746 -0.4014
 4199TIP3    H134156   0.609   4.252   3.406 -1.0632  0.7825  3.1247
 4199TIP3    H234157   0.668   4.383   3.451  1.8457  1.5002 -2.0252
 4200TIP3   OH234158   6.664   4.903   1.671  0.2057  0.3232  0.1704
 4200TIP3    H134159   6.749   4.921   1.711 -0.1655 -0.5154  1.4027
 4200TIP3    H234160   6.642   4.814   1.699  0.6244 -1.0024 -3.2263
 4201TIP3   OH234161   3.655   1.093   1.953  0.1312  0.1978 -0.0615
 4201TIP3    H134162   3.619   1.046   2.029  1.0687 -0.5253 -0.0461
 4201TIP3    H234163   3.607   1.176   1.951 -0.4347 -0.0913  0.8695
 4202TIP3   OH234164   3.689   6.577   0.959  0.1765 -0.5602  0.1932
 4202TIP3    H134165   3.755   6.643   0.939 -0.0172 -0.0371  1.2094
 4202TIP3    H234166   3.691   6.569   1.054 -1.3708 -0.3627  0.2727
 4203TIP3   OH234167   2.813   3.109   0.968  0.1627  0.3639  0.2286
 4203TIP3    H134168   2.898   3.074   0.995  0.4843  0.3104 -0.7865
 4203TIP3    H234169   2.763   3.117   1.049  1.4100  1.1664  0.9468
 4204TIP3   OH234170   0.253   1.950   3.084 -0.6939  0.1609 -0.0149
 4204TIP3    H134171   0.331   1.985   3.040 -0.9099  2.0329  0.9868
 4204TIP3    H234172   0.216   1.887   3.021 -0.6580  2.2530 -2.2779
 4205TIP3   OH234173   1.782   4.877   2.004 -0.4506 -0.1521  0.3655
 4205TIP3    H134174   1.691   4.847   2.000 -0.0318 -1.3318 -1.7093
 4205TIP3    H234175   1.827   4.809   2.053 -0.3138 -0.7115 -0.5114
 4206TIP3   OH234176   4.241   5.037   1.631  0.2014 -0.0237  0.4432
 4206TIP3    H134177   4.224   4.944   1.641 -0.4626  0.0449  0.0558
 4206TIP3    H234178   4.185   5.079   1.696  1.4820  0.0607  1.5443
 4207TIP3   OH234179   1.090   5.391   2.751  0.3622  0.2518 -0.2143
 4207TIP3    H134180   1.006   5.436   2.763  0.0425 -0.2107 -0.6761
 4207TIP3    H234181   1.156   5.459   2.762 -0.0090  0.4011  1.3950
 4208TIP3   OH234182   0.826   5.900   1.729  0.9217  0.4082  0.0574
 4208TIP3    H134183   0.898   5.839   1.744 -0.0995 -1.2151 -1.3139
 4208TIP3    H234184   0.837   5.927   1.637 -0.2444  0.0744 -0.1895
 4209TIP3   OH234185   0.206   2.289   0.181  0.0524 -0.0802 -0.4284
 4209TIP3    H134186   0.136   2.229   0.208 -0.3867 -0.5140 -2.3657
 4209TIP3    H234187   0.163   2.375   0.177  0.1550  0.0107  0.3438
 4210TIP3   OH234188   0.485   3.077   2.268 -0.6704  0.0337 -1.1059
 4210TIP3    H134189   0.495   3.016   2.341 -1.1822  0.1944 -0.8956
 4210TIP3    H234190   0.573   3.111   2.252 -0.8812  1.7106  0.9244
 4211TIP3   OH234191   3.563   6.696   1.609  0.4882  0.1568 -0.4154
 4211TIP3    H134192   3.489   6.653   1.566  0.9514 -1.9499  0.7741
 4211TIP3    H234193   3.571   6.780   1.564  0.3884 -1.5205 -3.8128
 4212TIP3   OH234194   3.944   0.304   2.793 -0.6073 -0.2518  0.3404
 4212TIP3    H134195   3.865   0.308   2.848  0.5778  1.4493  2.0420
 4212TIP3    H234196   3.966   0.395   2.777  0.9866 -0.7011 -0.1596
 4213TIP3   OH234197   3.469   1.192   8.271  0.5513  0.5993 -0.0520
 4213TIP3    H134198   3.531   1.223   8.205  0.5523 -0.7009 -0.6881
 4213TIP3    H234199   3.511   1.116   8.311 -0.6434 -0.3426 -0.5319
 4214TIP3   OH234200   1.923   2.140   2.049 -0.3314  0.0268  0.0709
 4214TIP3    H134201   1.972   2.092   1.982 -0.8015 -1.7860  0.9656
 4214TIP3    H234202   1.990   2.177   2.107  0.0318 -0.8642  0.2327
 4215TIP3   OH234203   6.661   0.896   1.995 -0.9239  0.2865 -0.0375
 4215TIP3    H134204   6.606   0.826   2.030 -0.3620 -0.7641 -1.1811
 4215TIP3    H234205   6.678   0.870   1.904  0.8799  0.9480  0.0769
 4216TIP3   OH234206   4.218   3.843   7.752 -0.4598 -0.2316  0.4297
 4216TIP3    H134207   4.284   3.834   7.683 -0.8410  0.1579  0.0116
 4216TIP3    H234208   4.233   3.931   7.788  1.1991 -1.2273  2.3747
 4217TIP3   OH234209   0.997   2.529   0.759 -0.1691  0.1182 -0.1187
 4217TIP3    H134210   1.077   2.498   0.802  0.9715  1.7407 -0.9724
 4217TIP3    H234211   0.943   2.563   0.831 -0.1420 -1.0696  0.4739
 4218TIP3   OH234212   2.373   5.782   8.000  0.2535 -0.0334 -0.3953
 4218TIP3    H134213   2.468   5.786   8.008  0.1531  1.4622  0.1974
 4218TIP3    H234214   2.352   5.845   7.932 -0.3145 -0.4568 -0.6207
 4219TIP3   OH234215   5.943   0.350   8.236 -0.1118 -0.7899  0.6703
 4219TIP3    H134216   6.022   0.313   8.275  1.7383 -0.0994 -2.1392
 4219TIP3    H234217   5.941   0.316   8.147 -2.2035  0.3730  0.1887
 4220TIP3   OH234218   2.958   0.782   8.109  1.0420  0.6007 -0.0541
 4220TIP3    H134219   2.873   0.760   8.147  1.7935 -1.3761  0.5778
 4220TIP3    H234220   2.941   0.861   8.057 -0.7037  1.5114  1.7673
 4221TIP3   OH234221   3.252   3.076   0.079 -0.4070 -0.1012  0.1134
 4221TIP3    H134222   3.256   3.162   0.039 -0.1316  0.0415  0.4530
 4221TIP3    H234223   3.206   3.089   0.162 -1.4547 -0.4857 -0.3875
 4222TIP3   OH234224   1.403   6.067   0.739 -0.3743 -0.2981 -0.4334
 4222TIP3    H134225   1.311   6.054   0.716 -1.0526  0.4707  1.5933
 4222TIP3    H234226   1.408   6.159   0.767  1.0288 -0.3256 -0.4973
 4223TIP3   OH234227   5.945   4.918   0.898 -0.3450 -0.4670  0.5201
 4223TIP3    H134228   5.858   4.885   0.917  0.3071 -1.9535  1.0417
 4223TIP3    H234229   5.985   4.933   0.983  0.9303 -2.6859  0.3965
 4224TIP3   OH234230   5.290   1.304   0.527 -0.6630  0.5619  0.0740
 4224TIP3    H134231   5.209   1.353   0.541 -1.2373 -0.3723  0.1042
 4224TIP3    H234232   5.284   1.230   0.587  0.0250  0.2559 -0.2201
 4225TIP3   OH234233   1.851   5.100   0.381 -0.1984  0.4981 -0.4633
 4225TIP3    H134234   1.899   5.095   0.298  2.6635  1.2022  1.0469
 4225TIP3    H234235   1.829   5.192   0.390 -0.2175  0.4752 -0.2800
 4226TIP3   OH234236   2.480   0.809   0.163  0.6153  0.2084  0.0618
 4226TIP3    H134237   2.401   0.792   0.215  0.5454 -2.4263 -0.7691
 4226TIP3    H234238   2.529   0.728   0.167  1.1227  0.2535 -3.0759
 4227TIP3   OH234239   2.959   3.505   0.937  0.5586  0.7046 -0.7903
 4227TIP3    H134240   2.945   3.485   1.030  1.4812  3.0886 -0.0623
 4227TIP3    H234241   3.054   3.501   0.926  0.3922 -3.6040 -2.7474
 4228TIP3   OH234242   0.155   1.543   3.213 -0.1059  0.1410 -0.0956
 4228TIP3    H134243   0.143   1.480   3.142 -0.3164  0.8819 -0.7228
 4228TIP3    H234244   0.066   1.571   3.235 -0.0058  0.2813  0.1310
 4229TIP3   OH234245   1.027   5.034   7.572  0.1156  0.6255 -0.0291
 4229TIP3    H134246   1.022   5.073   7.484  2.0233  4.2829  1.2584
 4229TIP3    H234247   1.036   5.109   7.631 -0.0325 -1.7212  3.2451
 4230TIP3   OH234248   1.533   1.682   7.765 -0.4022  0.1693 -0.1062
 4230TIP3    H134249   1.592   1.607   7.775  0.1619  0.3108 -1.9328
 4230TIP3    H234250   1.483   1.685   7.846  3.0631  0.8992  2.2090
 4231TIP3   OH234251   2.705   0.225   7.483  0.0091  0.3258  0.3860
 4231TIP3    H134252   2.695   0.132   7.462 -1.0307  0.1541  1.5325
 4231TIP3    H234253   2.735   0.225   7.574 -1.5146  1.1249  0.9147
 4232TIP3   OH234254   2.519   4.022   1.138 -0.8539  0.8988 -0.1102
 4232TIP3    H134255   2.463   3.959   1.093  1.4647 -0.3104 -1.4742
 4232TIP3    H234256   2.558   4.075   1.068  2.6231 -0.8304  0.2979
 4233TIP3   OH234257   6.891   5.162   8.156  0.1266 -0.2268  0.6909
 4233TIP3    H134258   6.836   5.132   8.228  1.5544 -1.3261  1.3789
 4233TIP3    H234259   6.854   5.121   8.078 -0.5326 -0.2546  1.0117
 4234TIP3   OH234260   0.982   1.887   2.625 -1.3740 -0.0176 -0.6723
 4234TIP3    H134261   0.940   1.815   2.580  0.3645 -1.4732 -0.1103
 4234TIP3    H234262   0.950   1.882   2.715  1.0750 -2.2242  0.2180
 4235TIP3   OH234263   0.020   3.006   2.517  0.1822  0.4019 -0.0281
 4235TIP3    H134264  -0.067   3.033   2.490  0.6638  2.7466  0.5140
 4235TIP3    H234265   0.076   3.029   2.442  0.3571 -1.0644 -0.3650
 4236TIP3   OH234266   2.116   4.429   2.074 -0.1261  0.3762 -0.9682
 4236TIP3    H134267   2.209   4.455   2.074  0.5162 -1.7079 -0.8229
 4236TIP3    H234268   2.075   4.488   2.137  1.3039  0.7317 -0.3145
 4237TIP3   OH234269   6.110   4.720   0.786  0.4430 -0.2172  0.1820
 4237TIP3    H134270   6.039   4.779   0.813  0.3128  0.6493 -1.8090
 4237TIP3    H234271   6.147   4.688   0.868 -1.4666  0.2354  1.3046
 4238TIP3   OH234272   3.570   2.451   0.946 -0.0985 -0.2530  0.4387
 4238TIP3    H134273   3.648   2.432   0.997 -0.8779  1.3528  2.3751
 4238TIP3    H234274   3.601   2.465   0.857  2.0137  1.5950  1.3903
 4239TIP3   OH234275   5.173   1.500   7.877 -0.0805 -0.1850 -0.2562
 4239TIP3    H134276   5.175   1.562   7.805 -0.0925  0.0644 -0.0430
 4239TIP3    H234277   5.166   1.414   7.835  1.1783 -0.1345 -0.6093
 4240TIP3   OH234278   2.803   5.433   2.163  0.9753  0.2621  0.1560
 4240TIP3    H134279   2.789   5.484   2.242 -1.1427  1.2710 -0.7785
 4240TIP3    H234280   2.765   5.347   2.183 -0.6456  0.8831 -0.0980
 4241TIP3   OH234281   6.669   0.852   1.476 -0.3753 -0.1164 -0.0840
 4241TIP3    H134282   6.675   0.773   1.422 -0.6775  0.2146 -0.6130
 4241TIP3    H234283   6.676   0.924   1.413 -1.6034  0.2842  0.2223
 4242TIP3   OH234284   6.607   1.363   7.857  0.6300  0.1046  0.5246
 4242TIP3    H134285   6.535   1.330   7.804 -0.6123  1.5569  1.2333
 4242TIP3    H234286   6.603   1.458   7.846  2.3060  0.2312  0.7711
 4243TIP3   OH234287   1.799   4.305   0.585  0.0819 -0.1104  0.4686
 4243TIP3    H134288   1.845   4.243   0.642  0.3293 -1.5425 -1.1923
 4243TIP3    H234289   1.865   4.333   0.521 -0.7552 -0.4574 -0.5845
 4244TIP3   OH234290   1.768   1.679   1.731 -0.1797 -0.5143 -0.2965
 4244TIP3    H134291   1.686   1.713   1.695 -0.0591 -1.2295 -1.2732
 4244TIP3    H234292   1.747   1.592   1.764 -0.0262 -0.3210  0.3233
 4245TIP3   OH234293   2.440   0.426   0.306 -0.3513  0.0466 -0.7161
 4245TIP3    H134294   2.464   0.337   0.332 -0.2218  0.5969  1.2368
 4245TIP3    H234295   2.366   0.448   0.362  1.2964  2.0933  0.8116
 4246TIP3   OH234296   4.978   1.619   8.076 -0.4080  0.0232  0.0733
 4246TIP3    H134297   4.988   1.553   8.145 -0.5737  2.2690  2.4251
 4246TIP3    H234298   5.049   1.601   8.015  0.2236 -1.6383  1.2189
 4247TIP3   OH234299   2.869   3.285   1.624  0.0141 -0.1165 -0.2630
 4247TIP3    H134300   2.920   3.206   1.607  1.7255  0.4989  1.6188
 4247TIP3    H234301   2.828   3.269   1.709  0.2877  0.9675  0.0898
 4248TIP3   OH234302   6.662   4.948   7.663 -0.3671 -0.0425 -0.1380
 4248TIP3    H134303   6.602   4.888   7.708  0.7634 -0.7195  0.5049
 4248TIP3    H234304   6.707   4.994   7.733  1.1226 -0.8075 -0.5616
 4249TIP3   OH234305   1.788   3.434   1.252  0.8126 -0.6208 -0.1437
 4249TIP3    H134306   1.877   3.467   1.269 -0.2877  2.4495  0.2703
 4249TIP3    H234307   1.773   3.455   1.160  0.1682 -0.1805  0.0582
 4250TIP3   OH234308   0.797   5.047   1.423  0.2786 -0.2073 -0.2248
 4250TIP3    H134309   0.842   4.975   1.379  0.3261 -0.7386  0.6650
 4250TIP3    H234310   0.722   5.066   1.367 -0.3964 -1.7454  0.1043
 4251TIP3   OH234311   1.586   2.361   0.008 -0.3847  0.0559 -0.1603
 4251TIP3    H134312   1.577   2.270  -0.023 -1.4530  0.1524 -0.1685
 4251TIP3    H234313   1.651   2.399  -0.050  0.7317 -0.9428  0.3884
 4252TIP3   OH234314   5.103   2.657   0.125  0.2187  0.5691  0.4088
 4252TIP3    H134315   5.072   2.663   0.215  0.3995  0.2044  0.4958
 4252TIP3    H234316   5.029   2.622   0.076  0.4079 -0.0654  0.5717
 4253TIP3   OH234317   2.020   2.968   7.931 -0.1181  0.5942  0.2178
 4253TIP3    H134318   1.958   2.970   8.004  0.5696  1.0113  0.8059
 4253TIP3    H234319   1.997   2.890   7.882 -1.1919  0.8157  0.3527
 4254TIP3   OH234320   5.580   0.968   7.955 -0.1694  0.0562  0.0203
 4254TIP3    H134321   5.662   0.918   7.957 -1.2015 -1.7130  0.2195
 4254TIP3    H234322   5.542   0.950   7.869 -1.8866 -1.8397  1.0905
 4255TIP3   OH234323   2.245   4.026   1.693  0.2582  0.5476 -0.3303
 4255TIP3    H134324   2.256   4.113   1.655 -0.9755  0.4186 -1.0370
 4255TIP3    H234325   2.293   4.029   1.776 -1.4568  2.5913  0.6732
 4256TIP3   OH234326   2.074   0.306   0.024 -0.4847  0.3048 -0.6607
 4256TIP3    H134327   2.064   0.368   0.095 -0.4520 -0.2512 -0.1598
 4256TIP3    H234328   1.997   0.319  -0.031 -1.0236  0.0629  0.0177
 4257TIP3   OH234329   1.899   5.327   1.169  0.0810  0.2801  0.2039
 4257TIP3    H134330   1.890   5.372   1.253 -0.7742 -0.4219  0.5043
 4257TIP3    H234331   1.987   5.287   1.172  0.1155  0.3955  0.6938
 4258TIP3   OH234332   0.463   1.362   3.582 -0.0559 -0.5951  0.3271
 4258TIP3    H134333   0.408   1.352   3.505 -0.3550 -3.7413  0.8232
 4258TIP3    H234334   0.403   1.351   3.656  0.3165  1.8471  1.0750
 4259TIP3   OH234335   5.902   4.848   7.352 -0.2718  0.3784 -1.2859
 4259TIP3    H134336   5.870   4.933   7.323 -1.1165  0.9192  1.0373
 4259TIP3    H234337   5.938   4.864   7.439 -1.6292 -1.8448 -0.2186
 4260TIP3   OH234338   5.323   2.148   7.754  0.2385 -0.0428 -0.8071
 4260TIP3    H134339   5.364   2.125   7.837 -2.5883 -3.1568 -0.0347
 4260TIP3    H234340   5.352   2.080   7.693 -0.3521  0.2138 -1.3893
 4261TIP3   OH234341   3.870   4.723   1.898 -0.8228 -0.0669  0.0528
 4261TIP3    H134342   3.870   4.756   1.988 -1.5219  0.4588 -0.1333
 4261TIP3    H234343   3.796   4.767   1.856  0.3797  0.8493 -1.2052
 4262TIP3   OH234344   3.737   6.122   2.345  0.7739 -0.2356 -0.0749
 4262TIP3    H134345   3.642   6.136   2.349  0.7889  0.3184 -1.2115
 4262TIP3    H234346   3.757   6.070   2.423 -0.1369  1.4421  1.3234
 4263TIP3   OH234347   3.439   0.328   1.778 -0.0104 -0.0806 -0.0661
 4263TIP3    H134348   3.363   0.311   1.834 -0.1518 -0.6272 -0.4129
 4263TIP3    H234349   3.504   0.263   1.806  1.2127  1.8281  1.7985
 4264TIP3   OH234350   3.907   2.777   2.547  0.6866 -0.0969 -0.0669
 4264TIP3    H134351   3.835   2.714   2.544  0.2492  0.3562  0.8204
 4264TIP3    H234352   3.971   2.737   2.606  0.3163  0.3732  0.6651
 4265TIP3   OH234353   4.269   6.411   0.974 -0.5055 -0.3079  0.3279
 4265TIP3    H134354   4.362   6.426   0.952 -0.8514  2.3502  0.4047
 4265TIP3    H234355   4.271   6.376   1.063  0.4945 -2.8702 -0.6073
 4266TIP3   OH234356   4.053   1.944   8.360  0.7694  0.3393  0.2103
 4266TIP3    H134357   4.024   1.854   8.350  1.0969  0.2977 -0.4896
 4266TIP3    H234358   4.000   1.979   8.431  0.3876 -0.2980  0.2482
 4267TIP3   OH234359   3.557   3.350   2.486 -0.2376 -0.1628 -0.0764
 4267TIP3    H134360   3.639   3.391   2.513 -0.2752  0.4715 -0.8926
 4267TIP3    H234361   3.491   3.387   2.544 -0.1310  0.2586 -0.2216
 4268TIP3   OH234362   2.094   2.596   0.672 -0.3483  0.2500 -0.2538
 4268TIP3    H134363   2.061   2.507   0.671 -0.9976  0.4676  0.6680
 4268TIP3    H234364   2.172   2.594   0.616 -0.8869 -0.6760 -0.9893
 4269TIP3   OH234365   6.378   1.793   1.199  0.1083  0.4445  0.5436
 4269TIP3    H134366   6.457   1.840   1.226 -0.2481  0.5116  1.5180
 4269TIP3    H234367   6.405   1.701   1.197  0.4702  0.5629 -0.1064
 4270TIP3   OH234368   0.826   1.216   2.911  0.7913 -0.2253 -0.2143
 4270TIP3    H134369   0.885   1.151   2.872  3.2657  1.9817 -0.4020
 4270TIP3    H234370   0.819   1.188   3.003  0.7575 -1.4335 -0.5594
 4271TIP3   OH234371   3.842   1.833   0.851 -0.2457  0.1854 -0.1195
 4271TIP3    H134372   3.749   1.841   0.829 -0.4364 -0.8621  0.2621
 4271TIP3    H234373   3.876   1.770   0.787  0.1035  0.2506  0.0013
 4272TIP3   OH234374   0.139   6.441   7.927 -0.2702  0.4948 -0.1596
 4272TIP3    H134375   0.228   6.472   7.940 -0.3033 -0.0925  1.6957
 4272TIP3    H234376   0.102   6.435   8.015 -1.0577 -2.3564 -0.5630
 4273TIP3   OH234377   2.349   4.176   7.966  0.1553 -0.5797  0.3124
 4273TIP3    H134378   2.398   4.243   8.014 -2.2957 -0.9277  3.6773
 4273TIP3    H234379   2.313   4.222   7.890  1.8770  0.7957  0.2772
 4274TIP3   OH234380   2.626   5.498   1.914 -0.1623  0.6033  0.6468
 4274TIP3    H134381   2.661   5.561   1.977 -0.6136  0.2621  1.2487
 4274TIP3    H234382   2.558   5.451   1.962  2.0619 -2.3609  1.2212
 4275TIP3   OH234383   0.512   6.547   2.107 -0.0952  0.1989  0.4340
 4275TIP3    H134384   0.419   6.566   2.094 -0.6417 -2.4795 -0.1895
 4275TIP3    H234385   0.531   6.479   2.042  1.7707 -0.7986  1.9500
 4276TIP3   OH234386   2.525   6.395   2.550 -0.2857 -0.1005  0.2088
 4276TIP3    H134387   2.521   6.455   2.476  1.7550  0.3915  0.4349
 4276TIP3    H234388   2.435   6.389   2.582 -0.7291  1.8914 -0.5550
 4277TIP3   OH234389   5.621   3.036   0.414  0.5465  0.7711  0.0636
 4277TIP3    H134390   5.666   3.038   0.499  1.2183  2.6262 -0.2752
 4277TIP3    H234391   5.628   3.126   0.382  0.5875  0.0415 -2.1162
 4278TIP3   OH234392   6.187   3.016   2.308 -0.0923  0.4827  0.1014
 4278TIP3    H134393   6.208   3.008   2.215 -0.6935 -0.7362  0.0517
 4278TIP3    H234394   6.262   3.062   2.345  1.2235 -0.9809 -0.6087
 4279TIP3   OH234395   1.110   2.963   8.530 -0.0320 -0.1571  0.1267
 4279TIP3    H134396   1.188   3.017   8.519  1.1000 -1.2822  2.2174
 4279TIP3    H234397   1.076   2.986   8.616 -1.0217 -0.9513 -0.0282
 4280TIP3   OH234398   5.062   4.877   2.710 -0.0511 -0.0515 -0.2855
 4280TIP3    H134399   5.020   4.792   2.695 -0.0618 -0.2496  0.7922
 4280TIP3    H234400   5.048   4.925   2.629  1.0336 -1.5134 -1.3910
 4281TIP3   OH234401   5.785   2.908   1.024  0.6282 -0.0820  0.0671
 4281TIP3    H134402   5.727   2.869   1.090 -0.2784 -1.1503 -1.3151
 4281TIP3    H234403   5.873   2.896   1.060  0.1748 -0.9397  0.9341
 4282TIP3   OH234404   1.189   0.557   8.391  0.5466  0.1287 -0.0320
 4282TIP3    H134405   1.245   0.517   8.324  1.4772 -1.0045  1.3620
 4282TIP3    H234406   1.134   0.484   8.422 -0.8818  0.9567 -0.5258
 4283TIP3   OH234407   2.579   1.953   7.670  0.5049 -0.5060  0.4692
 4283TIP3    H134408   2.626   1.966   7.588  0.7111  0.2158  0.6943
 4283TIP3    H234409   2.495   1.914   7.644  0.0226  0.9438 -0.2073
 4284TIP3   OH234410   5.679   1.395   7.162 -0.2061  0.5950  0.0122
 4284TIP3    H134411   5.672   1.322   7.100  1.6986  1.3114 -1.1392
 4284TIP3    H234412   5.755   1.445   7.132 -0.9927  2.6497  1.2035
 4285TIP3   OH234413   0.174   2.215   1.599  0.6803  0.3595  0.2992
 4285TIP3    H134414   0.134   2.291   1.558  0.2341 -0.0328 -0.0022
 4285TIP3    H234415   0.237   2.183   1.535 -0.2618 -0.4587 -0.2521
 4286TIP3   OH234416   2.570   5.720   1.069  0.1690 -0.1777  0.2194
 4286TIP3    H134417   2.506   5.729   0.998  1.8076  0.0956 -1.2857
 4286TIP3    H234418   2.538   5.646   1.120 -0.8674 -0.6305 -1.0273
 4287TIP3   OH234419   2.885   0.137   1.239  0.8722 -0.0577 -0.4362
 4287TIP3    H134420   2.877   0.042   1.247  1.0594 -0.2557 -2.2329
 4287TIP3    H234421   2.796   0.169   1.253  1.0684 -0.3201  1.7607
 4288TIP3   OH234422   1.441   2.203   2.316  0.1437  0.2264  0.0650
 4288TIP3    H134423   1.429   2.126   2.260 -0.7147 -0.3638  1.0296
 4288TIP3    H234424   1.516   2.248   2.278 -0.4812 -0.0707 -1.6453
 4289TIP3   OH234425   0.196   2.852   1.509 -0.1742 -1.0803 -0.0710
 4289TIP3    H134426   0.254   2.805   1.449  0.8759 -0.2018  0.2217
 4289TIP3    H234427   0.201   2.803   1.591  1.5596 -0.0670  0.4839
 4290TIP3   OH234428   6.071   4.690   3.376 -0.3076 -0.2087 -0.6811
 4290TIP3    H134429   6.160   4.726   3.385 -0.3570  0.1497 -1.4945
 4290TIP3    H234430   6.019   4.764   3.343 -1.2601  0.0294  1.2238
 4291TIP3   OH234431   2.916   4.838   1.467 -0.0373  1.0772 -0.0838
 4291TIP3    H134432   2.940   4.834   1.374  1.9638 -1.4968  0.4108
 4291TIP3    H234433   2.825   4.808   1.469  1.1549 -3.4755 -1.0330
 4292TIP3   OH234434   1.281   4.014   1.228  0.2252  0.2978 -0.3451
 4292TIP3    H134435   1.287   3.949   1.158  1.7674  0.1210 -0.0811
 4292TIP3    H234436   1.245   4.092   1.186  0.7062  0.0489 -1.2364
 4293TIP3   OH234437   3.782   5.463   2.372 -0.4642  0.2334 -0.2080
 4293TIP3    H134438   3.806   5.436   2.283 -1.6715  0.1162 -0.5120
 4293TIP3    H234439   3.865   5.462   2.420  0.1854  0.1598 -1.2917
 4294TIP3   OH234440   0.456   0.634   2.806 -0.6752  0.2812  0.2832
 4294TIP3    H134441   0.445   0.584   2.886 -1.3617 -0.9389 -0.5435
 4294TIP3    H234442   0.397   0.593   2.743 -0.6971  1.6607 -0.6534
 4295TIP3   OH234443   4.514   0.190   7.248  0.0989  0.4214  0.5810
 4295TIP3    H134444   4.505   0.195   7.343  1.1091  0.5340  0.6878
 4295TIP3    H234445   4.436   0.144   7.219  0.8821 -1.8023  1.7037
 4296TIP3   OH234446   2.462   0.545   0.039 -0.1223  0.0559  0.5816
 4296TIP3    H134447   2.492   0.456   0.019  0.9402  0.5496 -0.0908
 4296TIP3    H234448   2.392   0.532   0.103 -2.4375 -1.5015 -2.0193
 4297TIP3   OH234449   0.907   3.835   2.393 -0.1058  0.6053  0.2455
 4297TIP3    H134450   0.910   3.930   2.390 -1.3871  0.6377 -0.9794
 4297TIP3    H234451   0.903   3.814   2.486 -1.1083  1.8011  0.4930
 4298TIP3   OH234452   5.771   4.691   1.200 -0.4334  0.1327 -0.2704
 4298TIP3    H134453   5.748   4.657   1.286 -0.6832 -0.9793 -0.7622
 4298TIP3    H234454   5.866   4.687   1.197 -0.3472  1.2142  0.3507
 4299TIP3   OH234455   5.704   0.918   1.648 -0.3084 -0.1758  0.2842
 4299TIP3    H134456   5.619   0.921   1.604 -0.5049 -0.0683  0.6632
 4299TIP3    H234457   5.686   0.953   1.736 -0.3159 -1.9857  1.0553
 4300TIP3   OH234458   2.332   1.277   2.584 -0.1701  0.4894 -0.8407
 4300TIP3    H134459   2.419   1.301   2.553 -0.4102  0.7112 -1.3469
 4300TIP3    H234460   2.343   1.189   2.622  0.5526  1.0724  0.3485
 4301TIP3   OH234461   5.728   3.327   1.899 -0.1990 -0.1573  0.2513
 4301TIP3    H134462   5.820   3.345   1.917 -0.4048  1.5888 -0.2253
 4301TIP3    H234463   5.695   3.409   1.861 -1.2927 -1.5773 -2.0769
 4302TIP3   OH234464   3.947   4.516   2.481  0.1878 -0.3020  0.2125
 4302TIP3    H134465   3.940   4.493   2.388 -0.4449 -0.2408  0.2455
 4302TIP3    H234466   3.955   4.433   2.527  0.2426 -0.3416  0.1316
 4303TIP3   OH234467   0.947   1.973   7.662  0.0030 -0.1533 -0.0231
 4303TIP3    H134468   1.035   1.948   7.632 -0.7213 -3.6303  0.3543
 4303TIP3    H234469   0.930   2.056   7.618  1.7987 -1.4728 -3.6557
 4304TIP3   OH234470   4.674   6.871   7.247 -0.0182 -0.3066  0.6237
 4304TIP3    H134471   4.639   6.958   7.230  2.3395  0.8803  1.4729
 4304TIP3    H234472   4.618   6.836   7.317 -0.2065  1.0863  1.2066
 4305TIP3   OH234473   6.456   1.538   1.196  0.7336  0.6206 -0.5370
 4305TIP3    H134474   6.383   1.478   1.180 -0.2315  1.5849  0.0665
 4305TIP3    H234475   6.529   1.501   1.146  0.1912 -1.0542 -0.1542
 4306TIP3   OH234476   0.476   4.857   2.213  0.2281 -0.0280  0.2910
 4306TIP3    H134477   0.501   4.948   2.199  1.5306 -0.4394 -0.1740
 4306TIP3    H234478   0.421   4.859   2.291 -0.4958  1.2621 -0.2256
 4307TIP3   OH234479   1.962   1.884   0.934 -0.0656  0.3994  0.3943
 4307TIP3    H134480   1.947   1.882   0.840 -1.8561  0.9348  0.6184
 4307TIP3    H234481   2.022   1.812   0.951 -1.8712 -1.5078 -0.8227
 4308TIP3   OH234482   6.813   1.777   1.089 -0.6388 -0.0798 -0.6831
 4308TIP3    H134483   6.805   1.868   1.059 -2.6852 -0.0241 -0.1296
 4308TIP3    H234484   6.748   1.770   1.159  2.0105 -0.9578  1.9183
 4309TIP3   OH234485   6.254   0.924   0.572  0.2595 -0.0603  0.0441
 4309TIP3    H134486   6.314   0.999   0.570  0.7880 -0.4697  0.1751
 4309TIP3    H234487   6.289   0.867   0.641 -0.6211 -0.0330  0.5259
 4310TIP3   OH234488   6.086   2.591   7.132  0.3464 -0.4774 -0.2417
 4310TIP3    H134489   6.135   2.655   7.184 -0.8067  0.8257 -0.6885
 4310TIP3    H234490   6.008   2.571   7.185  1.4127 -2.7701  0.6057
 4311TIP3   OH234491   4.722   2.175   0.883 -0.9585  0.1905  0.3714
 4311TIP3    H134492   4.761   2.237   0.821 -0.0463 -0.3577  0.3740
 4311TIP3    H234493   4.706   2.227   0.962 -0.0412  0.3988  0.4328
 4312TIP3   OH234494   5.986   5.681   7.221 -0.1716 -0.4239  0.1175
 4312TIP3    H134495   6.049   5.609   7.234 -0.2798 -0.3438  1.1574
 4312TIP3    H234496   5.902   5.645   7.251 -0.6850 -0.5881 -1.4204
 4313TIP3   OH234497   3.652   0.220   7.571 -0.3498  0.1518 -0.0174
 4313TIP3    H134498   3.581   0.172   7.528  0.4267 -0.2348 -0.9058
 4313TIP3    H234499   3.658   0.302   7.522 -0.6249  0.4766  0.4884
 4314TIP3   OH234500   3.980   6.212   7.801 -0.2520 -0.3288  0.4565
 4314TIP3    H134501   3.994   6.302   7.771 -1.0554 -0.3033  0.1414
 4314TIP3    H234502   4.024   6.207   7.886  0.9062 -0.0106 -0.0975
 4315TIP3   OH234503   2.290   0.737   0.326  0.3016 -0.1301 -0.9107
 4315TIP3    H134504   2.284   0.690   0.409  0.5918  2.9067  0.9772
 4315TIP3    H234505   2.263   0.826   0.347  2.3592  1.2843 -3.6006
 4316TIP3   OH234506   5.599   1.275   1.420  0.0751  0.6134  0.2212
 4316TIP3    H134507   5.637   1.358   1.448 -2.4804  1.9634 -0.0048
 4316TIP3    H234508   5.539   1.251   1.491  0.0404 -0.5459 -0.1742
 4317TIP3   OH234509   1.895   2.491   3.030  0.2195  0.8273 -0.2540
 4317TIP3    H134510   1.809   2.511   2.994 -0.2850  0.7683  0.8524
 4317TIP3    H234511   1.955   2.550   2.985 -0.4162  0.9620 -0.9427
 4318TIP3   OH234512   2.255   0.459   2.797 -0.3958 -0.5838  0.0080
 4318TIP3    H134513   2.239   0.383   2.852 -2.0411  0.2730  0.7901
 4318TIP3    H234514   2.171   0.475   2.754 -0.3934  1.4042  0.6606
 4319TIP3   OH234515   4.289   2.017   7.655  0.0860  0.5041  0.1661
 4319TIP3    H134516   4.310   1.945   7.715  1.6870  0.8364  0.0561
 4319TIP3    H234517   4.343   2.090   7.687  1.6788  0.4497 -2.1551
 4320TIP3   OH234518   2.580   6.187   0.065 -0.9238 -0.2475 -0.7329
 4320TIP3    H134519   2.638   6.141   0.005 -0.1194  1.7334 -1.5471
 4320TIP3    H234520   2.519   6.120   0.095 -0.1356 -1.7171 -2.2511
 4321TIP3   OH234521   4.658   5.863   1.228 -0.4044 -0.1444 -0.1740
 4321TIP3    H134522   4.594   5.833   1.164 -0.5308  0.7689 -0.4896
 4321TIP3    H234523   4.699   5.782   1.261 -1.1117 -0.6831 -0.5864
 4322TIP3   OH234524   3.746   4.979   2.143  0.4898  0.0192 -0.9490
 4322TIP3    H134525   3.656   4.955   2.120  0.8179 -0.6967 -1.5322
 4322TIP3    H234526   3.762   4.936   2.227  0.1564  0.4830 -0.6438
 4323TIP3   OH234527   5.774   2.512   1.390  0.0331  0.5822  0.7653
 4323TIP3    H134528   5.766   2.486   1.482  1.0493 -0.3486  0.6123
 4323TIP3    H234529   5.868   2.524   1.377 -0.0769  0.4497 -0.2240
 4324TIP3   OH234530   1.884   1.237   1.413  0.3789  0.3341  0.7934
 4324TIP3    H134531   1.907   1.176   1.483  1.7433  1.6551  1.5631
 4324TIP3    H234532   1.900   1.323   1.450 -1.0364  1.1713 -0.4244
 4325TIP3   OH234533   3.333   3.832   1.666 -0.0754 -0.2454  0.2063
 4325TIP3    H134534   3.273   3.771   1.708  0.1805 -0.9393 -0.4178
 4325TIP3    H234535   3.348   3.795   1.579  1.0466  0.0474  0.2557
 4326TIP3   OH234536   6.445   2.596   8.462 -0.6864 -0.0875 -0.0177
 4326TIP3    H134537   6.474   2.505   8.457 -1.3757 -0.3261  0.1269
 4326TIP3    H234538   6.494   2.641   8.394 -0.0853 -0.4966  0.1357
 4327TIP3   OH234539   6.269   6.238   2.703  0.4563  0.8145 -0.5870
 4327TIP3    H134540   6.311   6.161   2.666 -0.2191  0.7427 -1.2369
 4327TIP3    H234541   6.322   6.260   2.779 -0.2636 -1.2745  0.5903
 4328TIP3   OH234542   4.905   5.553   2.422  0.3767 -0.7158 -0.5645
 4328TIP3    H134543   4.962   5.614   2.376 -0.5505 -2.3035 -4.2157
 4328TIP3    H234544   4.822   5.600   2.431  0.8460 -0.0548  0.3989
 4329TIP3   OH234545   6.363   1.848   0.693 -0.2486  0.1510 -0.4984
 4329TIP3    H134546   6.287   1.874   0.746 -0.2454 -1.4251  0.3414
 4329TIP3    H234547   6.330   1.846   0.603 -1.2286 -0.5232 -0.1428
 4330TIP3   OH234548   4.062   6.818   2.860 -0.0633 -0.5093  0.0108
 4330TIP3    H134549   3.980   6.797   2.904  0.0346  0.8077  0.8890
 4330TIP3    H234550   4.102   6.885   2.915  1.2297 -0.5591 -0.8238
 4331TIP3   OH234551   1.317   2.489   2.082  0.1043  0.4398 -0.1661
 4331TIP3    H134552   1.355   2.418   2.031 -0.4666 -0.3931  0.5581
 4331TIP3    H234553   1.236   2.454   2.116  0.5739  0.9075  1.5092
 4332TIP3   OH234554   3.144   6.768   3.509  0.1424  0.6496 -0.0924
 4332TIP3    H134555   3.230   6.809   3.502  1.0840 -1.3776 -0.9895
 4332TIP3    H234556   3.136   6.745   3.602  1.6644 -1.3135 -0.3947
 4333TIP3   OH234557   1.101   5.023   0.719 -0.1003 -0.2998 -0.6089
 4333TIP3    H134558   1.058   5.004   0.635 -0.9827  0.8160 -0.4421
 4333TIP3    H234559   1.037   5.077   0.767  0.1568 -1.4004  1.0331
 4334TIP3   OH234560   2.368   6.706   8.210  0.1073 -0.0845 -0.2658
 4334TIP3    H134561   2.327   6.726   8.294  4.0132 -1.0280  2.1127
 4334TIP3    H234562   2.304   6.651   8.165 -1.7722 -0.3638  2.4696
 4335TIP3   OH234563   0.320   1.032   1.239 -0.4692  0.3982 -0.6497
 4335TIP3    H134564   0.255   1.063   1.176  1.3047  2.1302 -1.7654
 4335TIP3    H234565   0.310   1.091   1.315  0.2709  1.1947 -1.1482
 4336TIP3   OH234566   1.791   5.035   0.660  0.2413 -0.0447  0.3089
 4336TIP3    H134567   1.814   5.093   0.587  1.1109 -1.0563 -0.2537
 4336TIP3    H234568   1.716   5.078   0.702  2.2545  2.6902  1.3562
 4337TIP3   OH234569   1.266   6.855   8.468 -0.6827  0.1297 -0.0157
 4337TIP3    H134570   1.332   6.896   8.412  1.7303  0.7112  2.9530
 4337TIP3    H234571   1.253   6.768   8.432  1.4613  0.1522 -0.9755
 4338TIP3   OH234572   0.712   0.540   3.291  0.2033  0.0903 -0.2490
 4338TIP3    H134573   0.693   0.607   3.357  1.1843  0.2727 -0.1393
 4338TIP3    H234574   0.672   0.460   3.325  1.6085 -0.0751  1.1142
 4339TIP3   OH234575   0.452   5.937   0.307  0.2570 -1.0183 -0.2358
 4339TIP3    H134576   0.517   5.977   0.364 -0.5701  0.3431 -0.2011
 4339TIP3    H234577   0.408   6.011   0.265 -0.6461 -1.9298 -0.9577
 4340TIP3   OH234578   3.081   3.469   1.532  0.2444 -0.1810 -0.1270
 4340TIP3    H134579   3.151   3.423   1.577  0.0640 -0.4773 -0.1433
 4340TIP3    H234580   3.013   3.403   1.520 -0.3880  0.3104  0.6430
 4341TIP3   OH234581   1.449   3.438   0.592  0.5203  0.0313 -0.2867
 4341TIP3    H134582   1.530   3.490   0.588  1.6834 -1.7383 -1.8194
 4341TIP3    H234583   1.396   3.472   0.520  0.2286  0.6770  0.2279
 4342TIP3   OH234584   4.295   4.196   3.297  0.7806 -0.7175 -0.2684
 4342TIP3    H134585   4.358   4.268   3.292 -1.4037  1.4909  1.2760
 4342TIP3    H234586   4.226   4.221   3.235 -0.3154 -1.1220  0.7581
 4343TIP3   OH234587   5.116   4.911   1.328  0.1089 -0.3173  0.2406
 4343TIP3    H134588   5.140   4.942   1.241 -0.2796 -0.1432  0.1945
 4343TIP3    H234589   5.080   4.824   1.313  1.1579 -0.7928  0.3652
 4344TIP3   OH234590   5.352   0.045   7.416  0.1814 -0.0146  0.0050
 4344TIP3    H134591   5.415   0.048   7.344 -0.3301  0.7398 -0.4300
 4344TIP3    H234592   5.304  -0.037   7.402  0.6975 -0.3207  0.0205
 4345TIP3   OH234593   2.682   5.599   2.906 -0.0811  0.3301 -0.2300
 4345TIP3    H134594   2.642   5.563   2.986 -1.5276 -0.4427 -1.2666
 4345TIP3    H234595   2.697   5.523   2.851  1.1826  0.8332 -0.5983
 4346TIP3   OH234596   4.469   0.917   1.433  0.2083  0.3066 -0.0863
 4346TIP3    H134597   4.490   1.010   1.429  1.0839  0.0685 -2.5715
 4346TIP3    H234598   4.534   0.881   1.494  0.4708  1.1787  0.1687
 4347TIP3   OH234599   5.810   2.259   8.296 -0.1943 -0.1688 -0.4159
 4347TIP3    H134600   5.867   2.244   8.371 -0.0401  2.3267  0.0699
 4347TIP3    H234601   5.726   2.283   8.335 -1.6551 -3.5818 -1.1171
 4348TIP3   OH234602   2.494   1.240   8.336  0.2037  0.2329  0.2415
 4348TIP3    H134603   2.448   1.158   8.316  0.7747 -0.1146  0.3498
 4348TIP3    H234604   2.430   1.292   8.385 -0.2983  0.0147 -0.1749
 4349TIP3   OH234605   6.008   5.138   8.150 -0.6539 -0.0782 -0.0274
 4349TIP3    H134606   6.002   5.092   8.066 -0.7842  0.8342 -0.5371
 4349TIP3    H234607   6.002   5.069   8.216 -0.3372 -0.8380 -0.7681
 4350TIP3   OH234608   3.580   6.222   0.306 -0.2602  0.4799 -0.3336
 4350TIP3    H134609   3.609   6.131   0.296 -0.8061  0.3514 -0.7593
 4350TIP3    H234610   3.588   6.260   0.219 -0.6175  0.6689 -0.2852
 4351TIP3   OH234611   2.596   0.212   2.420  0.0870  0.7743  0.2035
 4351TIP3    H134612   2.502   0.206   2.401  0.3064  0.7947 -0.9797
 4351TIP3    H234613   2.605   0.293   2.470 -0.6798  0.1191  1.4289
 4352TIP3   OH234614   2.266   0.852   2.243  0.0543 -0.6921 -0.4707
 4352TIP3    H134615   2.231   0.936   2.213 -0.2640 -0.2716  1.0180
 4352TIP3    H234616   2.236   0.789   2.177  0.2080  0.3211 -1.5547
 4353TIP3   OH234617   2.044   3.494   1.950 -0.6313  0.6725 -0.3960
 4353TIP3    H134618   1.980   3.472   2.018 -0.9315  0.9564 -0.5868
 4353TIP3    H234619   2.124   3.449   1.978 -1.0693 -0.1826 -0.4684
 4354TIP3   OH234620   0.206   1.746   0.359  0.0848 -0.2422 -0.1072
 4354TIP3    H134621   0.282   1.782   0.315 -0.3903  1.8401  0.6573
 4354TIP3    H234622   0.198   1.657   0.325  1.5397  0.2399 -1.8469
 4355TIP3   OH234623   2.778   0.184   0.090 -0.1669  0.3190  0.4105
 4355TIP3    H134624   2.831   0.264   0.093 -1.0903  1.0036 -0.4703
 4355TIP3    H234625   2.802   0.142   0.007 -2.7514  1.9907 -1.3546
 4356TIP3   OH234626   0.502   4.542   1.385  0.5495 -0.2451 -0.1278
 4356TIP3    H134627   0.479   4.484   1.457  1.5950 -0.8977 -0.2952
 4356TIP3    H234628   0.445   4.516   1.313  1.2459 -1.3223 -0.3103
 4357TIP3   OH234629   5.498   1.872   0.354  1.3168 -0.2935 -0.1355
 4357TIP3    H134630   5.509   1.899   0.263 -1.9352  0.0959 -0.5480
 4357TIP3    H234631   5.508   1.777   0.352 -0.1252 -0.4626 -1.2473
 4358TIP3   OH234632   2.313   1.691   1.901  0.1443  0.0316  0.8140
 4358TIP3    H134633   2.259   1.613   1.889  0.5680 -0.4942  2.1573
 4358TIP3    H234634   2.250   1.764   1.895 -0.2848 -0.3909 -0.2309
 4359TIP3   OH234635   3.055   5.410   8.191 -0.3198 -0.2612  0.0069
 4359TIP3    H134636   3.014   5.470   8.254 -1.4667  0.1183 -1.0685
 4359TIP3    H234637   3.132   5.376   8.238 -1.1303 -0.0000  1.6115
 4360TIP3   OH234638   5.161   5.581   3.133  0.5190  0.1138 -0.0896
 4360TIP3    H134639   5.070   5.588   3.103  0.6393  2.5924 -0.1241
 4360TIP3    H234640   5.156   5.590   3.228  0.6269 -1.4850  0.0891
 4361TIP3   OH234641   6.691   3.701   1.725 -0.0077 -0.6483  0.3222
 4361TIP3    H134642   6.761   3.669   1.781 -1.2799  0.6582  2.8095
 4361TIP3    H234643   6.703   3.796   1.722 -2.1560 -0.2503  1.6734
 4362TIP3   OH234644   0.792   2.339   7.246 -0.3486  0.1268 -0.0290
 4362TIP3    H134645   0.826   2.259   7.204  2.4961  1.6094 -0.8190
 4362TIP3    H234646   0.769   2.397   7.173  1.5310  1.5118  0.4116
 4363TIP3   OH234647   5.948   3.295   0.726 -0.2022 -0.2780 -0.2211
 4363TIP3    H134648   5.947   3.302   0.822  1.8488 -0.4753 -0.1521
 4363TIP3    H234649   5.944   3.385   0.696  1.6058 -0.0478  0.1344
 4364TIP3   OH234650   1.865   6.787   1.481 -0.2391  0.0888 -0.5688
 4364TIP3    H134651   1.827   6.839   1.552  0.1016  0.9578 -1.0140
 4364TIP3    H234652   1.959   6.789   1.496 -0.1787  0.1059 -0.9286
 4365TIP3   OH234653   4.695   3.795   1.704 -0.0147  0.1822  0.4084
 4365TIP3    H134654   4.716   3.753   1.620 -0.6939  0.3887  0.1241
 4365TIP3    H234655   4.745   3.747   1.769  1.0805  0.4689 -0.2044
 4366TIP3   OH234656   6.059   4.561   1.313 -0.2205  0.7146  0.2696
 4366TIP3    H134657   5.977   4.572   1.360 -0.3252  1.1041  0.0008
 4366TIP3    H234658   6.115   4.632   1.345 -0.0467  0.5523  0.3275
 4367TIP3   OH234659   3.351   0.346   0.150  0.0788  0.0032  0.1561
 4367TIP3    H134660   3.274   0.291   0.166 -0.0085 -0.6082 -2.0416
 4367TIP3    H234661   3.338   0.422   0.206 -1.6045 -0.5566  0.5954
 4368TIP3   OH234662   5.349   3.929   3.394  0.0349  0.1346  1.2418
 4368TIP3    H134663   5.410   3.869   3.352  1.3368  3.0100 -1.3830
 4368TIP3    H234664   5.263   3.898   3.367  0.6304 -0.8420  0.3849
 4369TIP3   OH234665   4.999   2.850   7.601 -0.0032  0.0508  0.2475
 4369TIP3    H134666   5.014   2.928   7.548  0.2937  0.7902  1.3645
 4369TIP3    H234667   4.911   2.863   7.637  0.8666  1.0073  2.1907
 4370TIP3   OH234668   0.619   3.070   8.324  0.0346 -0.3822  0.1495
 4370TIP3    H134669   0.702   3.043   8.286 -1.5518 -1.8944 -2.6078
 4370TIP3    H234670   0.603   3.157   8.287  0.0075 -0.4606 -0.0260
 4371TIP3   OH234671   2.362   6.193   7.588 -0.6335 -0.4011  0.2369
 4371TIP3    H134672   2.396   6.112   7.551 -0.6309 -0.8825  1.2477
 4371TIP3    H234673   2.433   6.257   7.577 -1.0622 -0.1844 -1.6186
 4372TIP3   OH234674   1.670   1.160   2.809  0.0573 -0.1404 -0.1295
 4372TIP3    H134675   1.734   1.168   2.879 -1.0675 -0.2783  0.9587
 4372TIP3    H234676   1.697   1.224   2.743  1.5642 -0.5442  0.0729
 4373TIP3   OH234677   6.148   3.214   0.141 -0.0052 -0.0794 -0.4459
 4373TIP3    H134678   6.158   3.152   0.213  0.6633  0.5309  0.0059
 4373TIP3    H234679   6.140   3.159   0.063 -1.4793 -0.7697  0.1599
 4374TIP3   OH234680   1.190   0.564   1.149 -0.0477  0.5926  0.2067
 4374TIP3    H134681   1.098   0.549   1.169 -0.1367  1.2932  0.3267
 4374TIP3    H234682   1.191   0.589   1.057  0.2316 -1.3424 -0.3640
 4375TIP3   OH234683   5.279   0.641   1.367  0.3571 -0.1451  0.3258
 4375TIP3    H134684   5.323   0.678   1.444  1.5241  1.0511 -0.8702
 4375TIP3    H234685   5.323   0.558   1.353 -1.2334 -1.3843  2.1006
 4376TIP3   OH234686   2.196   6.415   2.510 -0.2193  0.3111  0.4883
 4376TIP3    H134687   2.133   6.395   2.580 -0.0595 -2.1297  0.0211
 4376TIP3    H234688   2.276   6.442   2.557  0.2251 -2.3002  1.3832
 4377TIP3   OH234689   2.099   5.812   2.845 -0.0883  0.0198  0.3557
 4377TIP3    H134690   2.067   5.771   2.925 -0.6541  0.2051  0.2337
 4377TIP3    H234691   2.194   5.808   2.851 -0.1257 -1.7943  0.0981
 4378TIP3   OH234692   4.939   5.280   2.351 -0.4472 -0.1589  0.7311
 4378TIP3    H134693   4.970   5.246   2.267 -1.1431 -1.4107  0.9486
 4378TIP3    H234694   4.935   5.375   2.339 -0.2381 -0.2967 -0.5446
 4379TIP3   OH234695   4.295   6.903   8.049  0.2987 -0.1285 -0.3028
 4379TIP3    H134696   4.338   6.898   7.964  2.0329 -0.7472  0.5499
 4379TIP3    H234697   4.206   6.931   8.030  0.1007 -1.9916 -2.4829
 4380TIP3   OH234698   4.495   0.840   7.575 -0.3297  0.9101  0.3595
 4380TIP3    H134699   4.415   0.801   7.610 -0.1532  0.0552 -0.1495
 4380TIP3    H234700   4.500   0.808   7.485  0.4923  1.0896  0.3296
 4381TIP3   OH234701   5.340   2.850   1.391 -0.0451  0.0365  0.5901
 4381TIP3    H134702   5.407   2.823   1.454 -0.0028 -0.7301  0.2342
 4381TIP3    H234703   5.329   2.773   1.334 -0.8554  0.3364  0.3313
 4382TIP3   OH234704   0.705   1.844   7.785  0.3894  0.0467 -0.2891
 4382TIP3    H134705   0.787   1.864   7.740 -0.2959  1.1152 -1.1141
 4382TIP3    H234706   0.672   1.929   7.814  0.2824 -0.5102  1.3354
 4383TIP3   OH234707   5.876   2.580   3.558  0.5723  0.1170  0.0770
 4383TIP3    H134708   5.809   2.649   3.563  0.7150  0.2191  0.6550
 4383TIP3    H234709   5.851   2.528   3.481 -0.2428  0.0880  0.3467
 4384TIP3   OH234710   3.067   0.595   0.234  0.6224  0.7334  0.0039
 4384TIP3    H134711   3.152   0.569   0.269  1.0627  0.0021 -1.5082
 4384TIP3    H234712   3.010   0.600   0.311  1.7900  0.2762  0.9348
 4385TIP3   OH234713   4.388   0.833   2.182 -0.2633  0.2333 -0.4713
 4385TIP3    H134714   4.423   0.793   2.103 -1.4179 -1.5759 -0.1321
 4385TIP3    H234715   4.306   0.874   2.154 -0.6442 -0.3595 -0.2449
 4386TIP3   OH234716   1.977   2.770   2.970 -0.0960 -0.1286 -0.6717
 4386TIP3    H134717   2.035   2.845   2.963 -0.0920 -0.0486  0.1387
 4386TIP3    H234718   1.893   2.807   2.998 -0.2108 -0.3799 -0.6798
 4387TIP3   OH234719   3.483   5.703   8.348 -0.6967  0.1442 -0.4537
 4387TIP3    H134720   3.547   5.701   8.277 -1.0274 -0.2654 -0.7441
 4387TIP3    H234721   3.480   5.613   8.379 -0.8170  0.2522 -0.1541
 4388TIP3   OH234722   6.584   4.634   2.726 -0.0549  0.4066 -0.0743
 4388TIP3    H134723   6.592   4.543   2.752 -0.9918 -0.3483 -2.1828
 4388TIP3    H234724   6.662   4.676   2.761  0.5817 -1.2801  0.6376
 4389TIP3   OH234725   6.072   4.791   8.541 -0.5705 -0.0924  0.9632
 4389TIP3    H134726   5.983   4.799   8.575 -0.6951 -1.9729  1.1376
 4389TIP3    H234727   6.129   4.813   8.615 -0.8329  1.5669  0.7319
 4390TIP3   OH234728   5.307   3.950   8.523 -0.0603  1.0865  0.4436
 4390TIP3    H134729   5.394   3.946   8.481  0.3097  1.3741  1.1654
 4390TIP3    H234730   5.259   3.876   8.485  0.7995  0.3885  0.6659
 4391TIP3   OH234731   5.932   3.388   7.820  0.6083 -0.4871  0.5268
 4391TIP3    H134732   5.954   3.302   7.782  1.2662  0.2318 -0.7919
 4391TIP3    H234733   5.844   3.407   7.787  1.7538  0.8343 -2.1147
 4392TIP3   OH234734   6.094   6.692   8.315  0.2429  0.2952 -0.7865
 4392TIP3    H134735   6.140   6.711   8.397 -0.5347 -0.1342 -0.2296
 4392TIP3    H234736   6.145   6.622   8.275  1.2561  1.2616 -1.2341
 4393TIP3   OH234737   4.131   6.263   2.774 -0.4219 -0.8932 -0.7341
 4393TIP3    H134738   4.157   6.191   2.716 -0.0214  0.1098 -1.8193
 4393TIP3    H234739   4.100   6.219   2.853  1.6337 -2.2619 -0.5972
 4394TIP3   OH234740   0.308   1.364   0.449 -0.2828 -0.4277  0.0461
 4394TIP3    H134741   0.353   1.294   0.402  0.2510 -0.7759  1.0572
 4394TIP3    H234742   0.249   1.402   0.384  0.9590 -0.4159 -1.1176
 4395TIP3   OH234743   5.711   3.159   0.908  0.0979 -0.4779 -0.2604
 4395TIP3    H134744   5.734   3.072   0.941  2.2997 -0.2315 -0.9947
 4395TIP3    H234745   5.620   3.171   0.934 -0.0645 -2.7369  0.4112
 4396TIP3   OH234746   4.709   0.903   0.980  0.2499 -0.5182 -0.1801
 4396TIP3    H134747   4.781   0.932   1.036  0.1648  0.2690 -0.4757
 4396TIP3    H234748   4.695   0.974   0.918  1.4231 -2.0205 -2.2916
 4397TIP3   OH234749   1.723   2.024   7.748  0.1105  0.3585 -0.1975
 4397TIP3    H134750   1.779   1.966   7.696  0.1171  1.6016 -1.6491
 4397TIP3    H234751   1.672   2.072   7.683 -1.3794  0.5334  1.0427
 4398TIP3   OH234752   6.542   6.746   3.387  0.2062 -0.2461  0.3539
 4398TIP3    H134753   6.450   6.774   3.390  0.3772  0.4010 -0.2788
 4398TIP3    H234754   6.540   6.664   3.337 -0.3047 -1.4692  2.2862
 4399TIP3   OH234755   6.423   6.666   2.385 -0.3791 -0.1034  0.7909
 4399TIP3    H134756   6.480   6.742   2.401  0.9547 -0.7175 -0.7637
 4399TIP3    H234757   6.417   6.661   2.290  1.0944 -2.9828  0.7493
 4400TIP3   OH234758   4.495   6.267   2.560 -0.7798  0.2945 -0.1654
 4400TIP3    H134759   4.468   6.355   2.533 -2.4657  0.4924  1.8902
 4400TIP3    H234760   4.462   6.258   2.650  0.6309 -1.9068  0.2255
 4401TIP3   OH234761   4.733   4.141   0.456  0.2613 -0.1782 -0.0689
 4401TIP3    H134762   4.639   4.122   0.459 -0.1932  1.8125  2.9038
 4401TIP3    H234763   4.747   4.182   0.370 -1.9350  0.9117  0.0296
 4402TIP3   OH234764   1.233   0.276   3.531 -0.2190  0.4028 -0.1838
 4402TIP3    H134765   1.229   0.363   3.490 -1.0128 -0.2114 -1.4985
 4402TIP3    H234766   1.199   0.289   3.619  2.2385  1.9226  0.6258
 4403TIP3   OH234767   4.921   2.054   1.214  0.5597  0.4678  0.2231
 4403TIP3    H134768   4.948   2.095   1.296  0.4800  1.0671 -0.0424
 4403TIP3    H234769   4.825   2.057   1.217  0.5616  1.6618 -0.4555
 4404TIP3   OH234770   5.092   2.250   1.837  0.5896  0.4085 -0.3220
 4404TIP3    H134771   5.173   2.288   1.802  1.7575 -1.7930 -0.2005
 4404TIP3    H234772   5.122   2.181   1.896 -1.3853  1.2616  1.8396
 4405TIP3   OH234773   6.350   4.773   1.148 -0.3895  0.4747  0.0141
 4405TIP3    H134774   6.405   4.840   1.109  1.9462  0.3900  2.7800
 4405TIP3    H234775   6.265   4.815   1.161  0.9374  2.9717  1.5080
 4406TIP3   OH234776   5.860   3.233   1.122  0.5148  0.1306  0.2869
 4406TIP3    H134777   5.888   3.143   1.139  2.5431  0.4584 -1.0100
 4406TIP3    H234778   5.790   3.225   1.058 -0.6325 -0.5725  1.5631
 4407TIP3   OH234779   6.887   2.976   8.401  0.0882 -0.0289 -0.0509
 4407TIP3    H134780   6.927   2.947   8.319 -0.3694  0.2494 -0.3810
 4407TIP3    H234781   6.913   2.911   8.466 -1.8535 -1.8454 -0.9915
 4408TIP3   OH234782   0.977   3.022   2.244  0.7303  0.3934 -0.0559
 4408TIP3    H134783   0.981   3.114   2.270 -1.3780  0.4898  0.1335
 4408TIP3    H234784   0.960   2.975   2.326 -0.3997  0.0983 -0.4431
 4409TIP3   OH234785   2.058   0.938   0.844 -0.6097 -0.4589 -0.2798
 4409TIP3    H134786   2.009   1.019   0.854  0.9115  0.6763 -1.6303
 4409TIP3    H234787   2.149   0.965   0.836 -0.1010 -2.2661 -1.1486
 4410TIP3   OH234788   0.624   2.996   0.915 -0.0475  0.3111 -0.0573
 4410TIP3    H134789   0.649   3.078   0.957 -0.4395  0.5491 -0.2842
 4410TIP3    H234790   0.586   3.022   0.832  0.7426 -0.1620 -0.5740
 4411TIP3   OH234791   1.000   2.353   1.023 -0.2563  0.4150 -0.3457
 4411TIP3    H134792   1.033   2.406   1.095  0.1178  1.7128 -1.4242
 4411TIP3    H234793   1.078   2.332   0.971 -0.3890 -1.2859  0.0917
 4412TIP3   OH234794   0.360   0.105   8.458  0.0885  0.0753 -0.5998
 4412TIP3    H134795   0.268   0.083   8.443  0.1075  0.1565 -0.8459
 4412TIP3    H234796   0.370   0.192   8.419  1.0984 -1.3237 -3.7435
 4413TIP3   OH234797   1.764   4.531   2.391  0.6039  0.1747 -0.0533
 4413TIP3    H134798   1.753   4.568   2.303 -1.4060 -0.8410 -0.3071
 4413TIP3    H234799   1.698   4.575   2.444 -1.2041 -2.1611 -0.1541
 4414TIP3   OH234800   0.947   5.602   8.442  0.4305  0.1601  0.3945
 4414TIP3    H134801   0.852   5.614   8.450  0.2172  1.6965 -2.7400
 4414TIP3    H234802   0.961   5.583   8.349  3.1513 -0.9932  0.9454
 4415TIP3   OH234803   3.107   1.916   1.140 -0.3427 -0.3303 -0.0070
 4415TIP3    H134804   3.175   1.956   1.086 -0.9906  1.1707  0.2464
 4415TIP3    H234805   3.035   1.899   1.079 -0.4947 -0.0590  0.0965
 4416TIP3   OH234806   0.580   4.986   0.729 -0.4628 -0.4780  0.1161
 4416TIP3    H134807   0.658   5.035   0.703 -1.0731  0.6019  0.2625
 4416TIP3    H234808   0.582   4.907   0.675  0.8670 -0.6029  0.3090
 4417TIP3   OH234809   4.192   6.309   1.275  0.3395 -0.2050  0.0309
 4417TIP3    H134810   4.196   6.344   1.365  0.1638  0.4668 -0.2118
 4417TIP3    H234811   4.284   6.306   1.247  0.4159 -0.6484  0.3137
 4418TIP3   OH234812   5.570   1.190   3.149  0.1727 -0.2158 -0.0055
 4418TIP3    H134813   5.519   1.137   3.088 -0.9777 -1.4292  1.8901
 4418TIP3    H234814   5.535   1.279   3.139 -0.0528 -0.4092 -1.0178
 4419TIP3   OH234815   2.197   2.816   0.004  0.0918 -0.0665 -0.4925
 4419TIP3    H134816   2.185   2.911   0.013  0.7554 -0.1512  2.5493
 4419TIP3    H234817   2.274   2.807  -0.052  2.2192  1.4285  1.9726
 4420TIP3   OH234818   2.556   1.462   2.565  0.4766 -0.4851 -0.6336
 4420TIP3    H134819   2.605   1.519   2.505 -1.5470 -0.0141 -1.9308
 4420TIP3    H234820   2.548   1.514   2.645  0.1192  0.3687 -1.2110
 4421TIP3   OH234821   0.689   6.251   1.493 -0.5386  0.1682  0.0665
 4421TIP3    H134822   0.627   6.181   1.513  0.8001 -1.4524 -1.2192
 4421TIP3    H234823   0.742   6.259   1.573 -0.8395 -0.1174  0.2982
 4422TIP3   OH234824   3.592   1.652   1.861 -0.0986 -0.2824 -0.6552
 4422TIP3    H134825   3.510   1.697   1.882 -0.3686 -1.3160  0.6200
 4422TIP3    H234826   3.566   1.575   1.811  0.0935 -0.5690 -0.3212
 4423TIP3   OH234827   0.245   1.146   1.531  0.2659  0.4829 -0.3255
 4423TIP3    H134828   0.206   1.111   1.611  0.3015  0.2390 -0.4144
 4423TIP3    H234829   0.317   1.201   1.562  1.5992 -1.2469 -0.2501
 4424TIP3   OH234830   0.624   0.567   3.026 -0.0016  0.2161  0.4503
 4424TIP3    H134831   0.564   0.499   2.996  2.9200 -1.8791 -1.1709
 4424TIP3    H234832   0.616   0.565   3.122 -1.3428 -1.1053  0.3493
 4425TIP3   OH234833   1.765   0.869   2.582  0.6081 -0.0413 -0.1533
 4425TIP3    H134834   1.849   0.871   2.628  0.8182 -2.1287 -0.3447
 4425TIP3    H234835   1.723   0.789   2.614 -0.7303  0.2671 -1.0726
 4426TIP3   OH234836   6.834   2.770   1.497  0.4870  0.9652 -0.2895
 4426TIP3    H134837   6.813   2.676   1.501 -0.0215  1.0606 -0.6202
 4426TIP3    H234838   6.928   2.773   1.477  0.2766  0.5207 -1.4049
 4427TIP3   OH234839   2.365   4.534   7.834 -0.4776 -0.4404  0.4741
 4427TIP3    H134840   2.433   4.485   7.787  0.3506  0.3273  0.8344
 4427TIP3    H234841   2.377   4.510   7.926 -1.1906 -0.8668  0.4651
 4428TIP3   OH234842   3.995   4.382   8.547  0.3122  0.8294  0.2466
 4428TIP3    H134843   4.071   4.339   8.588  0.1726  0.1336 -0.2083
 4428TIP3    H234844   3.958   4.315   8.489  0.2571  1.6642 -0.7085
 4429TIP3   OH234845   6.766   2.410   8.162  0.8860 -0.3979  0.2869
 4429TIP3    H134846   6.793   2.498   8.138  0.5383 -0.2572  0.4098
 4429TIP3    H234847   6.838   2.354   8.132  0.0066 -0.3659 -2.1241
 4430TIP3   OH234848   5.071   5.835   2.701  0.5869  0.3736 -0.0908
 4430TIP3    H134849   5.157   5.811   2.667  0.4450 -0.9443  0.4016
 4430TIP3    H234850   5.085   5.919   2.745  2.0615 -0.6620  1.5671
 4431TIP3   OH234851   1.733   5.134   2.098  0.0505  0.3493 -0.1823
 4431TIP3    H134852   1.747   5.040   2.087  0.1524  0.2103  1.0309
 4431TIP3    H234853   1.792   5.159   2.170 -1.2582  0.9878  0.7009
 4432TIP3   OH234854   4.556   6.514   8.348 -0.3094  0.2457  0.1083
 4432TIP3    H134855   4.622   6.582   8.335  0.2321 -0.0092  1.3962
 4432TIP3    H234856   4.478   6.548   8.305  0.3135  1.0947 -0.3891
 4433TIP3   OH234857   4.289   5.745   1.571 -0.1498  0.0800 -0.4839
 4433TIP3    H134858   4.225   5.799   1.616  0.5083  0.5336 -0.0677
 4433TIP3    H234859   4.293   5.780   1.482  0.4337  0.8725 -0.1536
 4434TIP3   OH234860   6.046   6.884   8.111  0.1435 -0.3543  0.4188
 4434TIP3    H134861   6.138   6.869   8.089  0.0756 -0.7697  0.3946
 4434TIP3    H234862   6.034   6.836   8.193 -0.3731 -1.3947 -0.2462
 4435TIP3   OH234863   6.056   5.953   2.723 -0.0745  1.0645  0.1567
 4435TIP3    H134864   6.147   5.933   2.743 -0.1360 -0.2590 -0.7384
 4435TIP3    H234865   6.006   5.885   2.769 -0.4613  0.5485 -0.9937
 4436TIP3   OH234866   5.622   0.733   8.434 -0.6730 -0.1779  0.2318
 4436TIP3    H134867   5.665   0.808   8.477 -1.4758  0.6219 -0.3231
 4436TIP3    H234868   5.692   0.691   8.384 -0.2548  0.3279  0.3792
 4437TIP3   OH234869   5.265   5.850   2.516 -0.2755  0.2020 -0.4824
 4437TIP3    H134870   5.314   5.768   2.518 -0.8106 -0.1045  0.7174
 4437TIP3    H234871   5.322   5.911   2.469 -0.2510 -1.0864 -2.2164
 4438TIP3   OH234872   4.701   4.880   1.094  0.3388  0.0069 -0.0385
 4438TIP3    H134873   4.697   4.807   1.157  0.7941 -0.0660 -0.0909
 4438TIP3    H234874   4.622   4.930   1.111  1.0637  0.7114  1.4747
 4439TIP3   OH234875   2.697   2.482   0.160 -0.3297 -0.0386  0.0388
 4439TIP3    H134876   2.747   2.563   0.146 -0.0793 -0.0603  0.7777
 4439TIP3    H234877   2.759   2.422   0.201 -0.4637 -0.6825 -0.6747
 4440TIP3   OH234878   3.684   1.742   2.350 -0.0331  0.3975 -0.3872
 4440TIP3    H134879   3.676   1.647   2.345 -2.3816  0.5411 -0.3491
 4440TIP3    H234880   3.765   1.762   2.303  0.9334 -1.6618  0.3007
 4441TIP3   OH234881   2.620   0.518   2.836 -0.1023 -0.0385  0.1095
 4441TIP3    H134882   2.662   0.582   2.779  0.5543  0.4520  1.1055
 4441TIP3    H234883   2.688   0.451   2.850 -1.2175 -1.7270 -2.0292
 4442TIP3   OH234884   6.894   0.284   2.908  0.0495 -0.0029  0.5320
 4442TIP3    H134885   6.888   0.346   2.981 -1.6430  0.6221 -0.0862
 4442TIP3    H234886   6.898   0.198   2.950 -1.7127  0.2928  1.4160
 4443TIP3   OH234887   3.110   6.271   1.243 -0.1563 -0.3682 -0.7798
 4443TIP3    H134888   3.146   6.189   1.276  1.5482  0.3460 -0.7440
 4443TIP3    H234889   3.063   6.246   1.163 -0.4429 -1.4847 -0.2750
 4444TIP3   OH234890   6.325   4.763   3.402 -0.9328  0.3569  0.4204
 4444TIP3    H134891   6.406   4.793   3.445 -1.2951 -0.0240  1.4039
 4444TIP3    H234892   6.333   4.668   3.401 -1.0233  0.3553 -0.1909
 4445TIP3   OH234893   2.310   6.121   8.382 -0.6555  0.2947 -0.1263
 4445TIP3    H134894   2.226   6.082   8.405 -1.0663  0.8019 -0.7200
 4445TIP3    H234895   2.373   6.049   8.385 -1.5861 -0.6758 -2.3026
 4446TIP3   OH234896   3.602   4.022   1.654  0.3150  0.4625  0.4200
 4446TIP3    H134897   3.545   4.023   1.731  1.4443 -0.1635  1.2941
 4446TIP3    H234898   3.564   3.954   1.598  0.0091  0.2889  0.8301
 4447TIP3   OH234899   2.017   4.880   1.304 -0.0340 -0.3610  0.0191
 4447TIP3    H134900   1.978   4.867   1.218 -1.3960  0.4743  0.4785
 4447TIP3    H234901   2.031   4.791   1.338  1.8275 -0.7514 -1.5692
 4448TIP3   OH234902   0.989   0.565   2.023 -0.0317  0.1488  0.0855
 4448TIP3    H134903   0.910   0.513   2.040  1.5349 -2.1649  0.7242
 4448TIP3    H234904   1.056   0.500   2.003  1.4698  2.1194 -1.6117
 4449TIP3   OH234905   2.865   2.371   1.507  0.0688 -0.0090 -0.1474
 4449TIP3    H134906   2.803   2.301   1.484  1.3999 -1.1446 -0.4459
 4449TIP3    H234907   2.918   2.333   1.577 -0.0059  1.2012  0.5789
 4450TIP3   OH234908   0.643   6.326   1.959  0.0334  0.4390  0.1695
 4450TIP3    H134909   0.723   6.376   1.946 -0.4654  0.6459 -2.8440
 4450TIP3    H234910   0.668   6.235   1.941 -0.1404  0.2916  0.6370
 4451TIP3   OH234911   5.134   5.573   1.291 -0.1737 -0.3959 -0.8263
 4451TIP3    H134912   5.140   5.608   1.202  0.1357  0.3722 -0.5137
 4451TIP3    H234913   5.205   5.616   1.338  1.4797 -2.8740 -0.8719
 4452TIP3   OH234914   3.096   0.734   2.775  0.8314  0.2844 -0.7143
 4452TIP3    H134915   3.133   0.818   2.745 -0.8132  0.8136 -1.3475
 4452TIP3    H234916   3.130   0.670   2.713  1.6075  0.5721 -0.5969
 4453TIP3   OH234917   3.327   4.495   0.252  0.1790 -0.3408  0.5370
 4453TIP3    H134918   3.308   4.458   0.165 -0.0343 -1.6429  1.1186
 4453TIP3    H234919   3.302   4.587   0.244  0.4526 -0.3629 -0.8789
 4454TIP3   OH234920   5.620   3.515   1.531  0.0164 -0.2527  0.3001
 4454TIP3    H134921   5.619   3.503   1.626  0.6573  0.8337  0.4595
 4454TIP3    H234922   5.702   3.476   1.503  0.1830  0.1125  0.2865
 4455TIP3   OH234923   2.377   3.210   1.217  0.5248  0.0143  0.1681
 4455TIP3    H134924   2.402   3.205   1.309  0.0654  0.7677  0.3502
 4455TIP3    H234925   2.281   3.202   1.218  0.5922 -0.9837 -0.3422
 4456TIP3   OH234926   5.871   6.653   1.822 -0.2874  0.0950 -0.4493
 4456TIP3    H134927   5.955   6.645   1.776 -0.0118 -0.6425  0.1641
 4456TIP3    H234928   5.879   6.732   1.874  0.4676 -0.5800  0.4826
 4457TIP3   OH234929   2.044   5.676   7.966  0.1149 -0.8737  0.0157
 4457TIP3    H134930   1.981   5.683   8.037  0.5044  0.8420  0.2371
 4457TIP3    H234931   2.021   5.594   7.921  0.3651 -2.4285  2.5500
 4458TIP3   OH234932   5.903   5.767   2.873 -0.0964  0.5771 -0.3499
 4458TIP3    H134933   5.883   5.689   2.925  1.0694 -0.3607 -1.2691
 4458TIP3    H234934   5.835   5.830   2.898 -2.3407 -1.4100 -1.0960
 4459TIP3   OH234935   3.860   4.619   7.879  0.5043  0.4412 -0.3470
 4459TIP3    H134936   3.872   4.582   7.966  1.1892 -2.6106 -1.6082
 4459TIP3    H234937   3.780   4.578   7.846  0.1749  1.6569 -1.1155
 4460TIP3   OH234938   0.843   6.330   1.714 -0.3440 -0.3261 -0.2147
 4460TIP3    H134939   0.858   6.359   1.804 -0.6741  2.1606 -0.8722
 4460TIP3    H234940   0.930   6.309   1.680 -0.1713 -0.8793  0.5509
 4461TIP3   OH234941   0.470   2.920   7.187  0.8324 -0.6721 -0.7232
 4461TIP3    H134942   0.498   2.846   7.133  0.4027 -1.0485 -0.4318
 4461TIP3    H234943   0.389   2.949   7.147  0.1393 -1.3958  0.1187
 4462TIP3   OH234944   4.658   5.280   0.466 -0.0543 -0.0345  0.4601
 4462TIP3    H134945   4.695   5.368   0.477  0.6823 -0.2227 -0.4039
 4462TIP3    H234946   4.669   5.238   0.551  0.8423  0.2484  0.4976
 4463TIP3   OH234947   3.053   6.593   3.326  0.6141 -0.7162 -0.5143
 4463TIP3    H134948   3.085   6.651   3.257  1.4539  0.0947  0.5332
 4463TIP3    H234949   3.073   6.639   3.407 -0.2574 -1.7091  0.2831
 4464TIP3   OH234950   5.801   6.225   0.549 -0.0188 -0.6875  0.0095
 4464TIP3    H134951   5.825   6.163   0.481  0.1579 -0.8089  0.1830
 4464TIP3    H234952   5.744   6.288   0.505 -0.2870 -1.0342 -0.1405
 4465TIP3   OH234953   6.642   4.246   0.491  0.3343  0.5835  0.7873
 4465TIP3    H134954   6.644   4.342   0.497  1.6251  0.5388  1.4531
 4465TIP3    H234955   6.715   4.218   0.546 -0.6984 -0.8376  1.4915
 4466TIP3   OH234956   0.434   5.100   3.139  0.5375 -0.4708  0.1488
 4466TIP3    H134957   0.457   5.183   3.182 -0.3601 -0.3810  0.4660
 4466TIP3    H234958   0.417   5.040   3.212 -0.2562 -0.5255 -0.0770
 4467TIP3   OH234959   6.729   6.853   0.402 -0.2394  0.2855 -0.1017
 4467TIP3    H134960   6.773   6.938   0.406  0.2667  0.0084  0.2328
 4467TIP3    H234961   6.682   6.855   0.318  2.0268 -0.1855 -1.4770
 4468TIP3   OH234962   3.838   2.628   2.253 -0.4389  0.1121  0.2587
 4468TIP3    H134963   3.749   2.643   2.284 -0.6046 -1.7245  0.8056
 4468TIP3    H234964   3.849   2.533   2.256  1.2187  0.2254 -0.7231
 4469TIP3   OH234965   4.059   4.729   2.167 -0.3851  0.7338 -0.0889
 4469TIP3    H134966   4.096   4.802   2.118  1.4850 -0.5804 -0.7284
 4469TIP3    H234967   4.113   4.723   2.246 -2.2453  1.6993  1.3418
 4470TIP3   OH234968   4.049   0.232   0.685 -0.1040  0.3485 -0.3413
 4470TIP3    H134969   4.008   0.299   0.740 -0.1188  1.5577 -1.7795
 4470TIP3    H234970   3.976   0.180   0.652 -0.0270 -1.1863  1.6876
 4471TIP3   OH234971   2.349   2.549   8.459 -0.1477  0.0103  0.0943
 4471TIP3    H134972   2.311   2.566   8.545 -0.9641  0.3450 -0.3166
 4471TIP3    H234973   2.346   2.454   8.449  0.6874 -0.0985  0.7495
 4472TIP3   OH234974   1.607   4.369   1.735  0.6074 -0.2677 -0.3121
 4472TIP3    H134975   1.530   4.340   1.784  0.4760 -0.4625 -0.6296
 4472TIP3    H234976   1.639   4.446   1.783  0.7155 -0.6869  0.3027
 4473TIP3   OH234977   5.273   5.255   3.370 -0.6355 -0.1748  0.0766
 4473TIP3    H134978   5.358   5.297   3.382  0.3269 -1.9378 -0.2853
 4473TIP3    H234979   5.251   5.219   3.456 -0.6743 -0.3297  0.0027
 4474TIP3   OH234980   2.318   6.716   2.857  0.1886 -0.0277 -0.5548
 4474TIP3    H134981   2.352   6.726   2.945 -0.8992 -1.5003  0.0734
 4474TIP3    H234982   2.312   6.805   2.822 -2.6816  1.0079  2.1383
 4475TIP3   OH234983   6.519   4.819   2.328 -0.0852  0.0798 -0.2100
 4475TIP3    H134984   6.451   4.814   2.260 -1.5494 -2.9490  1.2768
 4475TIP3    H234985   6.490   4.889   2.386 -0.9579  0.0813 -0.6237
 4476TIP3   OH234986   5.236   4.190   7.797  0.3760  0.5736 -0.5559
 4476TIP3    H134987   5.147   4.171   7.826  0.9013  0.7081  1.2692
 4476TIP3    H234988   5.276   4.104   7.782  1.3802  0.1491  3.4059
 4477TIP3   OH234989   1.821   2.623   8.151 -0.4508 -0.3545  0.4935
 4477TIP3    H134990   1.895   2.671   8.188  0.3398  0.2394 -1.7488
 4477TIP3    H234991   1.747   2.683   8.161  0.2881  0.8995 -1.2070
 4478TIP3   OH234992   6.194   2.697   0.393  0.3973 -0.4632  0.1563
 4478TIP3    H134993   6.121   2.641   0.421 -1.0970  1.0813 -0.4671
 4478TIP3    H234994   6.222   2.740   0.474  0.9233 -1.3724  0.4724
 4479TIP3   OH234995   3.452   4.927   7.738  0.3710  0.3997 -0.5734
 4479TIP3    H134996   3.416   5.001   7.787  2.5008  0.4581  1.0613
 4479TIP3    H234997   3.376   4.876   7.712 -1.0504  2.1530 -0.1063
 4480TIP3   OH234998   6.353   3.757   2.704 -0.0481  0.4073 -0.6216
 4480TIP3    H134999   6.301   3.745   2.783  0.1240  0.3015 -0.5237
 4480TIP3    H235000   6.344   3.850   2.683  2.4687  1.2266  1.3485
 4481TIP3   OH235001   1.421   3.958   0.509  0.0706 -0.4520  0.4145
 4481TIP3    H135002   1.464   4.041   0.488 -0.8025  0.7966  3.1060
 4481TIP3    H235003   1.342   3.957   0.456 -0.0338  0.5702  0.5339
 4482TIP3   OH235004   0.031   4.813   2.066 -0.1292 -0.4756  0.8434
 4482TIP3    H135005  -0.057   4.774   2.060  0.1947 -0.9872 -1.0274
 4482TIP3    H235006   0.019   4.888   2.125 -2.4691  1.1151 -1.3955
 4483TIP3   OH235007   5.383   5.777   1.823 -0.2831  0.4010  0.3594
 4483TIP3    H135008   5.429   5.697   1.845  0.6624  0.6009 -0.7732
 4483TIP3    H235009   5.405   5.838   1.894  0.3524  0.1648  0.3704
 4484TIP3   OH235010   3.841   2.633   2.895  0.0732 -0.3071  0.6583
 4484TIP3    H135011   3.746   2.620   2.894 -0.0035  0.1744 -1.0772
 4484TIP3    H235012   3.852   2.726   2.912  0.2437 -0.3857  0.9863
 4485TIP3   OH235013   2.085   2.103   7.607  0.3224 -0.2622  0.1378
 4485TIP3    H135014   2.047   2.072   7.690  1.4397 -1.1597  0.3403
 4485TIP3    H235015   2.084   2.198   7.615  0.8019 -0.3373  1.3832
 4486TIP3   OH235016   2.324   0.085   2.357 -0.0506 -0.4979  0.2164
 4486TIP3    H135017   2.322   0.171   2.313  2.1485 -0.4407  0.0919
 4486TIP3    H235018   2.261   0.093   2.428 -0.5989  0.8966 -0.3856
 4487TIP3   OH235019   4.667   0.958   8.036 -0.1335  1.2117 -0.2973
 4487TIP3    H135020   4.763   0.954   8.032 -0.0147  1.8991  1.2013
 4487TIP3    H235021   4.648   1.012   8.112 -1.7373  0.3825 -0.0515
 4488TIP3   OH235022   3.391   0.483   7.371  0.0253 -0.0529 -0.3162
 4488TIP3    H135023   3.342   0.402   7.355 -0.7421  0.4893 -0.8056
 4488TIP3    H235024   3.483   0.457   7.368 -0.1715 -0.6675 -1.9655
 4489TIP3   OH235025   5.705   0.835   2.266 -0.1212 -0.3873 -0.5630
 4489TIP3    H135026   5.711   0.792   2.181  1.1368 -1.2758 -0.0644
 4489TIP3    H235027   5.780   0.800   2.316  0.4595  1.7220  0.1720
 4490TIP3   OH235028   5.895   1.375   0.066 -0.2490 -0.0108  0.2059
 4490TIP3    H135029   5.808   1.362   0.103  0.1664 -1.0625  0.8699
 4490TIP3    H235030   5.920   1.289   0.033  0.4541  0.3211 -0.1524
 4491TIP3   OH235031   3.439   5.121   3.340 -0.5375 -0.4841  0.0001
 4491TIP3    H135032   3.527   5.087   3.325 -1.1471 -1.0171 -3.1879
 4491TIP3    H235033   3.452   5.215   3.351  0.4381 -0.4833 -0.9122
 4492TIP3   OH235034   1.938   3.286   7.834  0.4423 -0.0357 -0.0216
 4492TIP3    H135035   2.003   3.294   7.904  0.7992 -0.2392 -0.3301
 4492TIP3    H235036   1.902   3.374   7.824 -1.0317 -0.3548  1.7755
 4493TIP3   OH235037   1.975   0.970   8.394  0.4045 -0.0634  0.4865
 4493TIP3    H135038   2.044   0.949   8.457  1.9459 -0.4557 -1.2522
 4493TIP3    H235039   1.979   1.065   8.385  0.8891 -0.1075  0.2129
 4494TIP3   OH235040   6.832   5.978   2.767 -0.4219 -0.0465  0.2307
 4494TIP3    H135041   6.822   5.885   2.790 -2.1029  0.8469  3.6637
 4494TIP3    H235042   6.848   6.022   2.850 -3.7967  3.2423 -0.6148
 4495TIP3   OH235043   2.929   3.019   0.131 -0.7755  0.4857  1.0008
 4495TIP3    H135044   2.915   3.081   0.202 -1.1583  0.8901  0.5772
 4495TIP3    H235045   2.980   2.948   0.170 -2.6793 -0.2970  2.2323
 4496TIP3   OH235046   2.491   4.747   2.093 -0.5213  1.0011  0.0520
 4496TIP3    H135047   2.557   4.758   2.161 -1.2952  1.3226  0.7733
 4496TIP3    H235048   2.521   4.802   2.021 -0.4123  1.7789  0.6794
 4497TIP3   OH235049   1.740   1.870   2.003 -0.2731  0.4832 -0.0315
 4497TIP3    H135050   1.729   1.814   1.926 -0.8832  0.3385  0.1641
 4497TIP3    H235051   1.783   1.814   2.068  0.4801  0.6782 -0.3442
 4498TIP3   OH235052   6.733   0.230   8.017  0.1285 -0.3750  0.1358
 4498TIP3    H135053   6.680   0.303   7.989 -1.0297 -0.0313  2.8710
 4498TIP3    H235054   6.823   0.258   8.002 -0.3163 -0.1075 -2.5730
 4499TIP3   OH235055   2.020   4.310   0.134 -0.5674  0.4546  0.0085
 4499TIP3    H135056   2.066   4.377   0.082 -2.1391  1.4958 -0.1333
 4499TIP3    H235057   1.995   4.243   0.070 -1.0892  0.9430 -0.3134
 4500TIP3   OH235058   6.456   2.648   0.366  0.0582 -0.9054  0.1687
 4500TIP3    H135059   6.467   2.741   0.387  1.5966 -0.2148 -3.0645
 4500TIP3    H235060   6.363   2.640   0.344  0.0672  0.0356 -0.2545
 4501TIP3   OH235061   3.191   3.967   1.955 -0.2230 -0.1014 -0.0455
 4501TIP3    H135062   3.188   4.030   1.883  2.5495  2.0431  1.5340
 4501TIP3    H235063   3.101   3.962   1.986 -0.7223  2.2488 -0.9320
 4502TIP3   OH235064   6.594   1.112   2.526 -0.2940 -0.3025 -0.5539
 4502TIP3    H135065   6.543   1.072   2.596 -0.5792 -1.7843 -1.5501
 4502TIP3    H235066   6.541   1.186   2.497  0.1283  0.7307  1.1793
 4503TIP3   OH235067   2.588   2.930   1.890  0.1030  0.5216  0.2280
 4503TIP3    H135068   2.512   2.907   1.943 -1.0733 -0.1808 -1.6611
 4503TIP3    H235069   2.639   2.849   1.884 -1.0756 -0.1480 -1.6985
 4504TIP3   OH235070   3.345   1.119   0.952  0.0198 -0.0281  0.5847
 4504TIP3    H135071   3.371   1.043   0.899  1.5481  0.5256  0.4710
 4504TIP3    H235072   3.250   1.114   0.956 -0.0108 -1.1522 -0.6231
 4505TIP3   OH235073   0.317   2.769   2.361 -0.4843 -0.0171  0.4061
 4505TIP3    H135074   0.364   2.794   2.440 -0.4330  0.4528  0.2288
 4505TIP3    H235075   0.334   2.675   2.353 -2.5850 -0.6368  2.3319
 4506TIP3   OH235076   6.596   6.527   2.055 -0.1637 -0.1827 -0.1237
 4506TIP3    H135077   6.670   6.508   1.998 -0.2150  1.4836 -0.8068
 4506TIP3    H235078   6.519   6.497   2.007 -0.0912 -0.0761 -0.3061
 4507TIP3   OH235079   5.747   1.933   7.953  0.1462  0.5423  0.4672
 4507TIP3    H135080   5.825   1.976   7.988  0.1926  0.1719  0.8259
 4507TIP3    H235081   5.760   1.932   7.858  0.8345 -0.0110  0.5625
 4508TIP3   OH235082   3.130   6.612   0.312  0.4531 -0.4066  1.5500
 4508TIP3    H135083   3.208   6.576   0.355  0.6668 -0.2552  1.2962
 4508TIP3    H235084   3.136   6.580   0.223  1.5968  1.6371  0.8104
 4509TIP3   OH235085   3.957   2.924   0.546 -0.5839 -0.1482  0.0229
 4509TIP3    H135086   3.974   2.934   0.453  0.6392  0.7446  0.3225
 4509TIP3    H235087   3.875   2.971   0.560 -0.5480  0.0859 -0.5281
 4510TIP3   OH235088   3.837   5.310   2.677  0.1378  0.0051  0.2129
 4510TIP3    H135089   3.845   5.256   2.598 -0.8954  0.1253  0.0072
 4510TIP3    H235090   3.922   5.351   2.687  0.8915 -1.5134  0.2646
 4511TIP3   OH235091   0.703   0.189   1.359 -0.0726  0.6386  0.1045
 4511TIP3    H135092   0.772   0.256   1.363  0.8550 -0.2574 -0.5542
 4511TIP3    H235093   0.659   0.206   1.276  0.5095  0.1021 -0.3164
 4512TIP3   OH235094   6.047   5.363   1.471 -0.1049 -0.2944  0.4766
 4512TIP3    H135095   6.115   5.396   1.529 -1.2938  0.8408  1.2760
 4512TIP3    H235096   6.038   5.432   1.404 -1.7153  0.4795  1.4310
 4513TIP3   OH235097   1.482   1.077   0.631  0.4139  0.3498  0.7444
 4513TIP3    H135098   1.386   1.075   0.629  0.4313 -0.4290  0.3357
 4513TIP3    H235099   1.507   1.134   0.559  0.3267 -3.1033 -2.3150
 4514TIP3   OH235100   6.865   6.658   8.049 -0.5463  0.0269  0.0714
 4514TIP3    H135101   6.848   6.702   8.132  1.3004  0.8016  0.1038
 4514TIP3    H235102   6.886   6.567   8.074  0.5610  0.3942  0.5421
 4515TIP3   OH235103   0.539   6.428   2.843 -0.2511 -0.0224  0.0383
 4515TIP3    H135104   0.525   6.353   2.785  0.6137  0.1002 -0.3587
 4515TIP3    H235105   0.617   6.404   2.894 -1.5636 -0.5456  1.8755
 4516TIP3   OH235106   5.604   0.733   2.704 -0.5611  0.2338  0.3829
 4516TIP3    H135107   5.583   0.770   2.789  1.1967 -0.2404  1.0638
 4516TIP3    H235108   5.590   0.805   2.642 -0.1359  1.1127  1.2902
 4517TIP3   OH235109   5.800   4.838   8.567 -0.2561  0.0264  0.2393
 4517TIP3    H135110   5.734   4.776   8.537  1.4082 -1.1230 -1.2490
 4517TIP3    H235111   5.754   4.922   8.572 -2.2694 -1.0414  1.1176
 4518TIP3   OH235112   5.650   4.480   2.290  0.6130 -0.2206 -0.0836
 4518TIP3    H135113   5.634   4.554   2.347 -0.4442 -0.2574 -0.3171
 4518TIP3    H235114   5.581   4.417   2.311  1.2308 -0.9601 -0.1946
 4519TIP3   OH235115   6.098   0.172   2.212  0.9829  0.3964  0.6149
 4519TIP3    H135116   6.132   0.177   2.122  0.9020 -0.0357  0.5570
 4519TIP3    H235117   6.117   0.258   2.249  0.9368  0.6104  0.1540
 4520TIP3   OH235118   1.683   3.192   7.903  0.1717  0.1924  0.5142
 4520TIP3    H135119   1.637   3.270   7.871 -1.1526 -1.0858 -0.9131
 4520TIP3    H235120   1.776   3.210   7.888 -0.0517  1.7621  0.9075
 4521TIP3   OH235121   6.730   3.636   1.457 -0.5430  0.0304 -0.0340
 4521TIP3    H135122   6.786   3.713   1.439  1.9593 -1.5261  0.5436
 4521TIP3    H235123   6.727   3.631   1.552  1.9498 -2.2250  0.0439
 4522TIP3   OH235124   1.530   1.663   0.626  0.4024 -0.1769 -0.1566
 4522TIP3    H135125   1.475   1.720   0.572 -1.1187 -1.2211  0.2212
 4522TIP3    H235126   1.565   1.599   0.565  1.0758  0.3800 -0.3679
 4523TIP3   OH235127   3.784   3.013   2.521  0.0339  1.1281 -0.5297
 4523TIP3    H135128   3.790   3.053   2.608 -1.8730  0.1429  0.1182
 4523TIP3    H235129   3.813   2.923   2.535 -0.3252  0.9545 -0.9155
 4524TIP3   OH235130   3.476   0.867   7.187  0.3728 -0.1000 -0.2474
 4524TIP3    H135131   3.473   0.946   7.134 -1.4523  0.5047  0.6910
 4524TIP3    H235132   3.436   0.799   7.133  1.0282 -0.1723 -0.6623
 4525TIP3   OH235133   1.801   4.497   8.073  0.4974  0.7503 -0.6170
 4525TIP3    H135134   1.739   4.556   8.116  0.2323  1.8286 -2.3706
 4525TIP3    H235135   1.756   4.413   8.071  0.3521  0.7689  0.7845
 4526TIP3   OH235136   1.441   6.178   1.361  0.3296  0.2329  0.1343
 4526TIP3    H135137   1.434   6.268   1.393 -0.5521  0.4983 -0.7544
 4526TIP3    H235138   1.453   6.126   1.440  0.3151  1.0778  0.7099
 4527TIP3   OH235139   6.297   0.985   8.332 -0.6545  0.2054 -0.3434
 4527TIP3    H135140   6.291   0.923   8.260  0.0364  0.3479 -0.5264
 4527TIP3    H235141   6.389   0.984   8.357 -0.8326  0.3807  0.3403
 4528TIP3   OH235142   1.798   6.692   2.096 -0.4131  0.1123 -0.5774
 4528TIP3    H135143   1.869   6.738   2.141  0.1135 -0.5141 -0.7516
 4528TIP3    H235144   1.797   6.605   2.135 -0.6831 -0.0765 -1.0006
 4529TIP3   OH235145   2.554   5.252   0.491 -0.4756  0.5546  0.5179
 4529TIP3    H135146   2.536   5.280   0.581 -3.1379  0.5297  0.0708
 4529TIP3    H235147   2.472   5.214   0.461  0.2831  0.7552 -2.0196
 4530TIP3   OH235148   5.270   2.473   8.074  0.5658  0.2024 -0.1095
 4530TIP3    H135149   5.279   2.431   8.160 -0.8772  1.4952  0.7146
 4530TIP3    H235150   5.288   2.565   8.090  0.5138  0.4266 -1.2635
 4531TIP3   OH235151   1.602   4.692   2.604 -0.2197  0.5153  0.3373
 4531TIP3    H135152   1.640   4.697   2.692  0.2294  0.8061  0.1290
 4531TIP3    H235153   1.625   4.776   2.563 -0.0971  0.2319 -0.1850
 4532TIP3   OH235154   5.035   5.422   0.290  0.3574  0.4954 -0.5007
 4532TIP3    H135155   4.962   5.461   0.339  0.8129 -0.5096  1.0675
 4532TIP3    H235156   5.114   5.456   0.333  0.7680 -1.0154  0.0109
 4533TIP3   OH235157   1.053   6.560   1.792 -0.2237 -0.4987 -0.3095
 4533TIP3    H135158   0.987   6.629   1.792  0.5902  0.3073 -0.3922
 4533TIP3    H235159   1.007   6.481   1.765 -1.5150 -0.3230  1.2360
 4534TIP3   OH235160   2.891   2.221   0.770 -0.1521  0.0366  0.2505
 4534TIP3    H135161   2.868   2.182   0.854  0.1854  0.7787  0.6990
 4534TIP3    H235162   2.824   2.288   0.756  1.9405  2.6886  1.8943
 4535TIP3   OH235163   4.675   5.904   1.957  0.1613 -0.6330 -0.1921
 4535TIP3    H135164   4.705   5.960   1.886 -1.8883  0.8329  0.0152
 4535TIP3    H235165   4.719   5.939   2.035 -1.0337  0.6855 -0.0788
 4536TIP3   OH235166   3.000   5.430   0.200  0.5239 -0.6400 -0.7158
 4536TIP3    H135167   3.062   5.446   0.129  0.2712  1.4615 -0.5363
 4536TIP3    H235168   2.932   5.497   0.188 -0.0484 -0.8816  0.9141
 4537TIP3   OH235169   3.526   4.241   0.700 -0.1008  0.3060 -0.1121
 4537TIP3    H135170   3.520   4.335   0.719 -1.2692  0.1996  0.1161
 4537TIP3    H235171   3.583   4.206   0.768  0.4459  0.8559 -0.2691
 4538TIP3   OH235172   5.232   2.066   8.189  0.4511  0.2589  0.0246
 4538TIP3    H135173   5.165   1.997   8.186 -0.1813  0.8006  1.1072
 4538TIP3    H235174   5.190   2.141   8.148  0.9764  0.1533 -0.7288
 4539TIP3   OH235175   6.526   2.367   8.300 -0.0485  0.3195 -0.5341
 4539TIP3    H135176   6.619   2.380   8.285 -0.2924  2.1872 -0.6131
 4539TIP3    H235177   6.514   2.272   8.294  1.8140  0.0536 -0.6033
 4540TIP3   OH235178   5.580   5.470   2.804  0.3462  0.3572  0.0181
 4540TIP3    H135179   5.571   5.413   2.880 -1.7894  0.9262  0.2446
 4540TIP3    H235180   5.607   5.411   2.733 -2.1929 -1.1128  0.1385
 4541TIP3   OH235181   2.833   2.006   0.384 -0.8294  0.2809 -0.3746
 4541TIP3    H135182   2.928   2.019   0.392 -0.7242 -0.2938 -0.6258
 4541TIP3    H235183   2.819   1.994   0.290 -0.8256 -1.9974 -0.1270
 4542TIP3   OH235184   6.316   3.930   1.191  0.1900 -0.0692 -0.1740
 4542TIP3    H135185   6.297   4.022   1.171  2.3193  0.5807  0.5139
 4542TIP3    H235186   6.352   3.932   1.279  2.1247 -1.2947 -0.8838
 4543TIP3   OH235187   4.043   0.502   7.784 -0.1908  0.2678 -0.7847
 4543TIP3    H135188   3.995   0.420   7.792 -2.6896  1.7176  0.9241
 4543TIP3    H235189   4.030   0.529   7.693  1.9628 -1.8450 -1.8070
 4544TIP3   OH235190   5.664   0.952   1.116  0.3051 -0.2627 -0.3924
 4544TIP3    H135191   5.693   1.000   1.038  0.9836 -0.3242 -0.1910
 4544TIP3    H235192   5.664   0.860   1.089  1.8454 -0.4303  0.0274
 4545TIP3   OH235193   3.101   0.722   7.264  0.1540  0.1669  0.7163
 4545TIP3    H135194   3.187   0.697   7.228  0.2175  0.2734  0.7944
 4545TIP3    H235195   3.106   0.817   7.273  0.6557  0.0140  2.3370
 4546TIP3   OH235196   3.388   5.792   2.267 -0.1657  0.2034 -0.0888
 4546TIP3    H135197   3.308   5.834   2.299 -0.6964  0.0353 -1.1625
 4546TIP3    H235198   3.412   5.843   2.189 -0.5396 -1.1535 -1.1173
 4547TIP3   OH235199   0.977   2.620   1.991 -0.0713 -0.0905 -0.1446
 4547TIP3    H135200   1.032   2.576   1.927 -0.4380 -0.5055 -0.1803
 4547TIP3    H235201   1.020   2.603   2.075  1.3885  1.9506 -0.4294
 4548TIP3   OH235202   0.227   0.326   1.161  0.6306  0.6767  0.6225
 4548TIP3    H135203   0.150   0.383   1.158 -0.5444 -0.7424  1.9691
 4548TIP3    H235204   0.197   0.244   1.122  1.4204  0.0740  1.2462
 4549TIP3   OH235205   5.123   1.021   1.681  0.2484  0.1183  0.4279
 4549TIP3    H135206   5.073   0.952   1.726 -2.7429  1.4813 -0.5439
 4549TIP3    H235207   5.068   1.047   1.608  2.9970  1.0208 -1.4870
 4550TIP3   OH235208   2.829   2.288   1.980  0.2088 -0.2415 -0.1158
 4550TIP3    H135209   2.907   2.239   1.954  0.6588 -0.4995  1.6022
 4550TIP3    H235210   2.770   2.281   1.905  1.6607 -0.4000 -1.2838
 4551TIP3   OH235211   2.491   5.926   0.136 -0.0140  0.2199  0.4202
 4551TIP3    H135212   2.519   5.867   0.067  1.1933  1.4965 -0.2261
 4551TIP3    H235213   2.417   5.881   0.177 -0.7668 -0.5894 -1.6714
 4552TIP3   OH235214   5.378   4.773   0.035 -0.5215  0.5421  0.2129
 4552TIP3    H135215   5.343   4.685   0.049 -0.2581  0.5449  0.9277
 4552TIP3    H235216   5.413   4.798   0.120 -0.1085  1.1260 -0.1262
 4553TIP3   OH235217   6.631   1.639   2.451 -0.8289  0.2751 -0.1458
 4553TIP3    H135218   6.714   1.687   2.441 -0.2695 -0.1404  1.9792
 4553TIP3    H235219   6.643   1.560   2.399  0.4356 -0.1336  0.7076
 4554TIP3   OH235220   1.142   1.857   1.670 -0.0348 -0.0789  0.0680
 4554TIP3    H135221   1.126   1.764   1.687  0.3988  0.0541  1.3149
 4554TIP3    H235222   1.071   1.903   1.717 -0.0257  0.2337 -0.2197
 4555TIP3   OH235223   0.907   3.824   0.621 -0.4859 -0.6929 -0.1447
 4555TIP3    H135224   0.842   3.768   0.663 -0.3865  0.3243  1.4616
 4555TIP3    H235225   0.980   3.765   0.601 -0.2601 -1.1652  1.7877
 4556TIP3   OH235226   5.265   6.489   0.058 -0.5125  0.0402 -0.1727
 4556TIP3    H135227   5.264   6.514  -0.034 -0.0372 -1.2119 -0.5472
 4556TIP3    H235228   5.303   6.564   0.104  0.2491  0.2655 -1.1462
 4557TIP3   OH235229   4.713   6.634   7.726  0.0461  0.3255 -0.3809
 4557TIP3    H135230   4.704   6.729   7.729  0.8748  0.4133 -0.3726
 4557TIP3    H235231   4.794   6.619   7.677 -0.7227 -0.4103 -1.4907
 4558TIP3   OH235232   4.860   1.359   2.222  0.6093 -0.2854  0.6346
 4558TIP3    H135233   4.822   1.438   2.186  0.1589 -1.3579 -1.3685
 4558TIP3    H235234   4.785   1.308   2.253  0.9117  0.1333  2.1220
 4559TIP3   OH235235   0.600   1.722   2.328  0.1790  0.2489 -0.0931
 4559TIP3    H135236   0.641   1.648   2.283  0.5556  0.8536 -0.7685
 4559TIP3    H235237   0.567   1.778   2.257 -2.6483 -0.6287  0.3791
 4560TIP3   OH235238   5.955   2.093   2.130  0.0171  0.0766 -0.3886
 4560TIP3    H135239   5.998   2.109   2.214 -0.6033 -1.3963  0.2389
 4560TIP3    H235240   5.865   2.121   2.142 -0.0790 -0.1550 -0.5520
 4561TIP3   OH235241   5.754   5.067   1.821 -0.0739 -0.1940 -0.1712
 4561TIP3    H135242   5.774   5.085   1.729 -0.6861 -0.1055 -0.2879
 4561TIP3    H235243   5.660   5.079   1.828 -0.0277 -0.1881  0.4756
 4562TIP3   OH235244   2.851   2.069   8.422 -0.3839 -0.0357  0.3494
 4562TIP3    H135245   2.807   2.154   8.430 -1.7329 -0.5811 -1.0025
 4562TIP3    H235246   2.944   2.091   8.415 -0.7256  1.3394 -0.1184
 4563TIP3   OH235247   3.110   2.772   1.160 -0.3173 -0.1109  0.4691
 4563TIP3    H135248   3.192   2.745   1.118 -0.4615  1.2783 -0.7966
 4563TIP3    H235249   3.113   2.732   1.247  0.3329 -2.4880 -0.5699
 4564TIP3   OH235250   5.152   6.562   7.790 -0.0050  0.0304  0.7735
 4564TIP3    H135251   5.165   6.572   7.696  0.0325 -1.0934  0.6404
 4564TIP3    H235252   5.066   6.520   7.798  0.3556 -0.6484  1.1826
 4565TIP3   OH235253   3.763   5.542   7.792  0.0244  0.0082 -0.3706
 4565TIP3    H135254   3.806   5.614   7.746  0.4845 -1.1323 -1.8189
 4565TIP3    H235255   3.821   5.523   7.866  1.4878 -0.7607 -1.6524
 4566TIP3   OH235256   3.036   5.086   0.740 -0.0700  0.0305  0.1008
 4566TIP3    H135257   3.035   5.049   0.828 -1.5845  0.6018  0.3384
 4566TIP3    H235258   2.979   5.162   0.744  0.7231  0.7241 -1.1048
 4567TIP3   OH235259   2.856   1.262   7.998  0.5661  0.0181 -0.5951
 4567TIP3    H135260   2.828   1.225   7.915 -0.3557  1.8134 -1.1398
 4567TIP3    H235261   2.814   1.208   8.064 -0.8183  0.1154 -1.3629
 4568TIP3   OH235262   1.632   0.779   1.365 -0.4837  0.1236  0.8159
 4568TIP3    H135263   1.624   0.750   1.456 -1.5102  1.2251  1.1003
 4568TIP3    H235264   1.549   0.752   1.324  1.3700 -3.7477 -0.8655
 4569TIP3   OH235265   5.654   5.972   2.540 -0.1683  0.0559  0.2556
 4569TIP3    H135266   5.714   6.009   2.476  0.0317  0.6449  0.7781
 4569TIP3    H235267   5.567   5.982   2.501 -0.0365  0.2722  0.0179
 4570TIP3   OH235268   0.657   6.860   1.193  0.6011  0.3402 -0.1751
 4570TIP3    H135269   0.630   6.939   1.146  1.1125  0.4067 -0.3667
 4570TIP3    H235270   0.683   6.892   1.280 -0.0348  0.2614  0.0478
 4571TIP3   OH235271   5.089   0.641   1.615  0.3144  0.2715  0.2383
 4571TIP3    H135272   5.159   0.700   1.587  0.1782  0.2360 -0.1748
 4571TIP3    H235273   5.133   0.556   1.627  0.1418 -0.0431 -1.1571
 4572TIP3   OH235274   0.829   2.641   0.982  0.4910 -0.3244 -0.0437
 4572TIP3    H135275   0.771   2.572   1.016 -0.4423  0.1654 -0.6209
 4572TIP3    H235276   0.775   2.691   0.922  1.2677  0.7118  0.0997
 4573TIP3   OH235277   6.757   0.263   2.401 -0.1405  0.6730  0.1989
 4573TIP3    H135278   6.681   0.216   2.368  0.1536  0.9857 -0.9492
 4573TIP3    H235279   6.787   0.210   2.475 -1.2555  0.3632  0.4599
 4574TIP3   OH235280   0.939   2.698   7.613  0.2388  0.0654 -0.2164
 4574TIP3    H135281   0.937   2.630   7.546  0.7381 -0.9569  0.7780
 4574TIP3    H235282   1.017   2.679   7.664 -0.4383  0.4806  1.0077
 4575TIP3   OH235283   0.072   0.439   0.868 -0.5295 -0.1755  0.6869
 4575TIP3    H135284   0.124   0.358   0.869 -0.4707 -0.1372  0.7650
 4575TIP3    H235285   0.072   0.465   0.776 -0.6139 -0.3062  0.6492
 4576TIP3   OH235286   0.503   3.378   8.475 -0.5975 -0.2027  0.4877
 4576TIP3    H135287   0.570   3.318   8.508  1.0678  1.4740  0.3297
 4576TIP3    H235288   0.527   3.393   8.384 -0.9616  0.6864  0.5229
 4577TIP3   OH235289   4.108   6.655   3.123  0.4407  0.3041 -0.1399
 4577TIP3    H135290   4.175   6.621   3.064  1.1052  1.6737 -0.2147
 4577TIP3    H235291   4.152   6.663   3.208 -0.4643 -1.5080  0.5469
 4578TIP3   OH235292   1.722   3.762   0.124  0.2087 -0.2250  1.0034
 4578TIP3    H135293   1.808   3.742   0.160  0.3587 -1.2905  0.1005
 4578TIP3    H235294   1.735   3.765   0.029 -1.0123 -1.9863  0.7292
 4579TIP3   OH235295   5.348   5.270   2.865 -0.2332  0.0011 -0.3526
 4579TIP3    H135296   5.421   5.209   2.855 -0.2654 -0.1362  0.2529
 4579TIP3    H235297   5.278   5.218   2.903  0.1251  0.6824  1.3075
 4580TIP3   OH235298   6.060   4.110   1.826 -0.0218 -0.4059 -0.5393
 4580TIP3    H135299   5.994   4.066   1.772 -0.6991  0.3505 -0.3389
 4580TIP3    H235300   6.017   4.190   1.857 -0.1393 -1.4070  2.1992
 4581TIP3   OH235301   5.369   4.938   2.385 -0.2640 -0.0604  0.6159
 4581TIP3    H135302   5.445   4.883   2.372  0.8199  1.1319  1.6789
 4581TIP3    H235303   5.309   4.886   2.439 -1.2211 -1.8389 -1.9646
 4582TIP3   OH235304   3.266   6.389   1.928  0.1027  0.6160 -0.0900
 4582TIP3    H135305   3.360   6.373   1.934 -0.1040 -1.4562 -1.2027
 4582TIP3    H235306   3.245   6.442   2.005  2.0702  0.5775  0.5166
 4583TIP3   OH235307   4.235   2.904   8.481  0.0626 -0.9545 -0.0587
 4583TIP3    H135308   4.193   2.854   8.410 -0.1207 -1.1105  0.1603
 4583TIP3    H235309   4.251   2.990   8.442 -0.8914 -0.7347 -0.0051
 4584TIP3   OH235310   3.611   0.109   1.831  0.2852 -0.1900  0.5762
 4584TIP3    H135311   3.704   0.085   1.827  0.0187 -1.0343 -1.9810
 4584TIP3    H235312   3.570   0.035   1.877  0.8743  0.4088  2.1628
 4585TIP3   OH235313   2.896   3.853   3.232 -0.0408  0.1484 -0.3259
 4585TIP3    H135314   2.918   3.882   3.320  1.3214 -1.3928 -0.0960
 4585TIP3    H235315   2.965   3.890   3.177  0.4915 -0.8213 -0.3453
 4586TIP3   OH235316   4.188   4.551   8.446  0.4861  0.3996  0.2604
 4586TIP3    H135317   4.268   4.518   8.487  0.1501  0.0662  0.6518
 4586TIP3    H235318   4.117   4.518   8.501  0.1004  1.0762  0.1784
 4587TIP3   OH235319   5.222   2.753   0.897 -0.2337 -0.2031 -0.0214
 4587TIP3    H135320   5.242   2.674   0.847 -0.9418 -0.2188 -0.2879
 4587TIP3    H235321   5.170   2.722   0.971  0.0473 -0.0657  0.2361
 4588TIP3   OH235322   0.676   0.422   1.868  0.1008 -0.3482  0.7129
 4588TIP3    H135323   0.597   0.437   1.817  0.5771  0.3998  0.1728
 4588TIP3    H235324   0.708   0.337   1.838  0.9140  0.5018 -1.0107
 4589TIP3   OH235325   2.937   0.323   2.351  0.5261 -0.4098  0.0488
 4589TIP3    H135326   2.922   0.369   2.434 -1.8963 -0.2041 -0.4388
 4589TIP3    H235327   2.863   0.346   2.296  1.9538 -0.7276 -2.1462
 4590TIP3   OH235328   3.159   6.084   3.317  0.0304 -0.2405  0.1136
 4590TIP3    H135329   3.140   6.136   3.395 -0.1948  0.6479 -0.5234
 4590TIP3    H235330   3.074   6.072   3.274 -0.0054 -1.5954  0.5165
 4591TIP3   OH235331   2.646   0.318   1.934 -0.1023 -0.0754 -0.3138
 4591TIP3    H135332   2.559   0.351   1.956 -0.8061 -1.1616 -1.3470
 4591TIP3    H235333   2.630   0.236   1.888  1.4577  0.0107 -1.0927
 4592TIP3   OH235334   1.481   2.077   0.427  0.4305 -0.2613  0.5130
 4592TIP3    H135335   1.479   1.984   0.449 -1.6855 -0.1477  0.9815
 4592TIP3    H235336   1.468   2.080   0.332  1.4404 -0.4569  0.3594
 4593TIP3   OH235337   0.150   4.994   0.635 -0.1821 -0.2410 -0.4050
 4593TIP3    H135338   0.095   5.042   0.696 -0.1428  1.0125 -1.3009
 4593TIP3    H235339   0.207   5.061   0.597  0.0913 -1.0500 -1.4780
 4594TIP3   OH235340   1.691   0.636   3.117 -0.1518  0.2228  0.6965
 4594TIP3    H135341   1.669   0.682   3.198  0.2923  3.5078 -0.8852
 4594TIP3    H235342   1.632   0.674   3.052  1.1593 -0.5367 -0.9784
 4595TIP3   OH235343   4.397   5.404   2.579 -0.1302 -0.7058 -0.0089
 4595TIP3    H135344   4.476   5.453   2.603  0.7504 -2.0476 -0.0018
 4595TIP3    H235345   4.365   5.367   2.661 -0.0178 -1.1956 -0.1780
 4596TIP3   OH235346   2.522   0.077   0.184  0.5417 -0.0614 -0.2878
 4596TIP3    H135347   2.610   0.104   0.157  1.0936  2.1205  3.1039
 4596TIP3    H235348   2.467   0.154   0.167 -0.2867 -0.6827 -0.4988
 4597TIP3   OH235349   0.337   0.139   2.515  0.0919 -0.9445  0.5907
 4597TIP3    H135350   0.374   0.136   2.603  0.1625  0.8189  0.6643
 4597TIP3    H235351   0.413   0.133   2.457  0.8037  3.4347  0.7407
 4598TIP3   OH235352   3.024   0.517   2.135  0.2331 -0.2826  0.1813
 4598TIP3    H135353   3.021   0.447   2.200 -1.6543 -0.9789 -0.5985
 4598TIP3    H235354   2.933   0.534   2.112  0.7655  0.8670 -1.3198
 4599TIP3   OH235355   1.776   2.886   0.166  0.3266 -0.3813 -0.5626
 4599TIP3    H135356   1.713   2.826   0.207  2.1242 -0.4953  2.3017
 4599TIP3    H235357   1.846   2.829   0.135  1.4557  0.0404  1.0629
 4600TIP3   OH235358   3.963   0.875   2.626  0.5270 -0.1658  0.1683
 4600TIP3    H135359   3.942   0.858   2.718  1.2088 -2.7582 -0.0757
 4600TIP3    H235360   4.049   0.917   2.628  0.0645  0.7888  0.7233
 4601TIP3   OH235361   4.219   5.656   0.380  0.4026  0.0451  0.3017
 4601TIP3    H135362   4.266   5.619   0.455  0.1160  0.2546  0.5865
 4601TIP3    H235363   4.156   5.717   0.419  0.8404  0.8121 -0.1467
 4602TIP3   OH235364   4.481   2.230   1.440  0.3269 -0.2194 -0.7396
 4602TIP3    H135365   4.575   2.222   1.449  0.1404 -0.9133  0.7986
 4602TIP3    H235366   4.447   2.223   1.529 -1.1068  1.1612 -1.1294
 4603TIP3   OH235367   5.428   1.408   3.102 -0.2634  0.4021 -0.7758
 4603TIP3    H135368   5.407   1.501   3.106  0.6799  0.6135 -0.5091
 4603TIP3    H235369   5.343   1.364   3.107 -0.6279  1.2056  0.7097
 4604TIP3   OH235370   6.320   5.437   0.702  0.0148  0.2312 -0.5304
 4604TIP3    H135371   6.236   5.484   0.699 -0.2698 -0.0514  1.4417
 4604TIP3    H235372   6.299   5.349   0.672 -0.3597  0.2284 -0.2763
 4605TIP3   OH235373   4.286   3.802   1.191 -0.2158 -0.1530 -0.4374
 4605TIP3    H135374   4.334   3.773   1.268 -0.9956  0.2206  0.2110
 4605TIP3    H235375   4.257   3.722   1.148 -1.7045 -0.3947  0.9158
 4606TIP3   OH235376   6.862   5.148   0.454 -0.2791 -0.5111 -0.3611
 4606TIP3    H135377   6.798   5.159   0.524 -0.5357  1.5636 -0.8597
 4606TIP3    H235378   6.812   5.109   0.382 -0.6616 -0.1757 -0.2830
 4607TIP3   OH235379   2.905   2.855   3.335 -0.2470 -0.0471 -0.5833
 4607TIP3    H135380   2.952   2.830   3.256  1.1522 -0.7634  0.4235
 4607TIP3    H235381   2.851   2.930   3.309  0.9471  0.3724 -1.9610
 4608TIP3   OH235382   3.782   4.429   8.096 -0.2141 -0.3076 -0.8845
 4608TIP3    H135383   3.687   4.434   8.098 -0.1815  0.1038 -0.0732
 4608TIP3    H235384   3.811   4.484   8.169  0.7004  1.3016 -2.3695
 4609TIP3   OH235385   4.121   2.078   2.767  0.0907  0.2561  0.2852
 4609TIP3    H135386   4.120   1.985   2.787 -0.4130 -0.0916 -1.2647
 4609TIP3    H235387   4.198   2.111   2.812  1.0788 -1.1838 -0.2761
 4610TIP3   OH235388   0.184   2.762   7.585  0.0561 -0.1550  0.0832
 4610TIP3    H135389   0.223   2.789   7.502  1.2609 -1.2130  0.2712
 4610TIP3    H235390   0.097   2.802   7.585  0.1679  0.1491 -1.5315
 4611TIP3   OH235391   4.129   1.112   2.887 -0.0509  1.0772  0.0880
 4611TIP3    H135392   4.148   1.093   2.795  0.7233  0.6265  0.3325
 4611TIP3    H235393   4.211   1.095   2.932 -0.6226  0.6061  0.9684
 4612TIP3   OH235394   5.340   6.551   1.421 -0.3995  0.5256  0.5120
 4612TIP3    H135395   5.415   6.600   1.456 -0.1651  0.2401  0.4072
 4612TIP3    H235396   5.365   6.459   1.430 -1.7808  0.3085  2.8810
 4613TIP3   OH235397   0.229   5.219   2.595  0.3604 -0.0177 -0.1560
 4613TIP3    H135398   0.290   5.276   2.548 -1.4566  0.8504 -1.5831
 4613TIP3    H235399   0.245   5.238   2.688  2.7366 -0.3868 -0.4422
 4614TIP3   OH235400   3.802   5.364   1.701 -0.2430  0.2705 -0.0194
 4614TIP3    H135401   3.865   5.433   1.721 -0.3541  0.0783  1.0366
 4614TIP3    H235402   3.726   5.410   1.664 -0.8235  0.8860  1.8300
 4615TIP3   OH235403   0.226   1.410   1.262  0.3733 -0.3473 -0.2041
 4615TIP3    H135404   0.261   1.400   1.351  0.5755 -1.3785 -0.3781
 4615TIP3    H235405   0.295   1.455   1.214 -0.2517  1.3886  0.4530
 4616TIP3   OH235406   6.712   0.158   0.190  0.0636 -0.4157 -0.3915
 4616TIP3    H135407   6.766   0.185   0.264 -0.4429 -1.1739  0.2699
 4616TIP3    H235408   6.622   0.166   0.222 -0.1850 -0.1758 -1.1264
 4617TIP3   OH235409   6.874   6.608   0.294  0.1278 -0.4230  0.5199
 4617TIP3    H135410   6.913   6.674   0.352  2.2343  0.1244 -1.3632
 4617TIP3    H235411   6.840   6.659   0.220 -1.2131 -1.2294  0.5416
 4618TIP3   OH235412   6.181   5.615   2.930 -0.6453 -0.4384  0.3563
 4618TIP3    H135413   6.271   5.592   2.909 -0.5609 -0.4482  0.7327
 4618TIP3    H235414   6.132   5.592   2.851 -0.5768 -1.9881  0.7183
 4619TIP3   OH235415   6.303   2.358   8.119 -0.4504  0.8958 -0.4217
 4619TIP3    H135416   6.380   2.393   8.164  1.1322 -1.2134 -1.3041
 4619TIP3    H235417   6.334   2.340   8.030 -2.3387  1.1737 -1.1685
 4620TIP3   OH235418   1.722   2.068   7.152 -0.2850  0.5863  0.9213
 4620TIP3    H135419   1.750   2.158   7.134  0.4078  0.2250  0.0949
 4620TIP3    H235420   1.788   2.014   7.108  0.1686 -0.3537  2.6718
 4621TIP3   OH235421   2.449   6.500   1.337 -0.0422  0.1310 -0.0814
 4621TIP3    H135422   2.412   6.573   1.287 -0.6672 -1.0831 -1.4892
 4621TIP3    H235423   2.541   6.522   1.347 -0.4519  1.6652  0.6015
 4622TIP3   OH235424   6.240   4.391   2.535 -0.0364 -0.1847  0.3855
 4622TIP3    H135425   6.242   4.332   2.459 -0.6296 -1.4055  1.2848
 4622TIP3    H235426   6.225   4.478   2.497  0.2896 -0.6785 -0.9327
 4623TIP3   OH235427   3.017   2.031   1.414 -0.2228  0.0920 -0.0393
 4623TIP3    H135428   2.944   2.052   1.472  0.3380  2.3726 -0.0309
 4623TIP3    H235429   2.980   1.973   1.348 -2.2034  1.5295 -0.2955
 4624TIP3   OH235430   3.984   4.777   1.227 -0.0502 -0.3044 -0.3623
 4624TIP3    H135431   3.981   4.750   1.319 -0.4206  0.1553 -0.2400
 4624TIP3    H235432   3.935   4.709   1.181 -2.1245  0.7980  0.1090
 4625TIP3   OH235433   4.792   2.307   0.358  0.2029 -0.0245  0.3519
 4625TIP3    H135434   4.846   2.271   0.288 -0.8343 -0.8965 -0.0189
 4625TIP3    H235435   4.844   2.378   0.394  1.1937 -0.2393 -0.6150
 4626TIP3   OH235436   1.646   0.275   1.093 -0.4244 -0.3905  0.6785
 4626TIP3    H135437   1.600   0.220   1.156  0.3566  0.4269  2.0112
 4626TIP3    H235438   1.711   0.322   1.145 -0.2212  0.8481 -0.6179
 4627TIP3   OH235439   0.525   0.304   7.795  0.2657 -0.3948  0.1519
 4627TIP3    H135440   0.459   0.321   7.728  1.7476  1.8941 -0.8557
 4627TIP3    H235441   0.481   0.248   7.858 -2.4308  0.4953 -0.7945
 4628TIP3   OH235442   3.367   2.763   3.453 -0.3443 -1.1544  0.3166
 4628TIP3    H135443   3.461   2.748   3.462 -0.1892  0.7088  2.7480
 4628TIP3    H235444   3.351   2.755   3.359  2.1097 -2.1087 -0.1080
 4629TIP3   OH235445   0.892   3.890   8.247  0.4980 -0.1493  0.6124
 4629TIP3    H135446   0.931   3.947   8.312  3.1498 -0.1698 -0.8193
 4629TIP3    H235447   0.942   3.808   8.253  0.7454 -0.1902 -1.3147
 4630TIP3   OH235448   5.538   3.176   7.290 -0.4383 -0.4902 -0.4310
 4630TIP3    H135449   5.576   3.108   7.235  1.1889 -0.3100  0.4135
 4630TIP3    H235450   5.559   3.258   7.245 -0.9237 -0.4491 -0.5885
 4631TIP3   OH235451   4.646   4.816   2.173 -0.4251  0.1934  0.3188
 4631TIP3    H135452   4.686   4.876   2.236 -2.6221  1.3855  0.6787
 4631TIP3    H235453   4.709   4.812   2.101  0.4109  1.8340  0.9018
 4632TIP3   OH235454   5.549   0.931   2.493  0.5488  0.1572  0.1823
 4632TIP3    H135455   5.457   0.922   2.471  0.5187 -1.4935  0.7876
 4632TIP3    H235456   5.596   0.902   2.415  0.6336  2.2760 -0.6255
 4633TIP3   OH235457   5.050   2.654   1.106 -0.5855 -0.5854 -0.5963
 4633TIP3    H135458   5.119   2.631   1.169  0.3701  1.3355 -0.8559
 4633TIP3    H235459   4.971   2.661   1.159  0.1211  0.6054  0.3631
 4634TIP3   OH235460   4.641   6.565   0.364 -0.0573  0.6330 -0.5217
 4634TIP3    H135461   4.731   6.595   0.374  0.4645 -1.1068  0.4183
 4634TIP3    H235462   4.647   6.469   0.363 -1.9056  0.4647 -0.1222
 4635TIP3   OH235463   1.085   1.985   1.271 -0.0996 -0.2349 -0.3102
 4635TIP3    H135464   1.020   2.026   1.214  0.7780 -1.3335 -2.2065
 4635TIP3    H235465   1.155   2.049   1.278 -0.1930 -0.1120 -0.4968
 4636TIP3   OH235466   0.791   4.290   3.096  0.0304 -0.2034  0.0768
 4636TIP3    H135467   0.720   4.245   3.142  0.4244  0.8112  1.7597
 4636TIP3    H235468   0.863   4.292   3.159  0.9764  0.2881 -0.9843
 4637TIP3   OH235469   4.800   5.522   0.403  0.0950  0.4996 -0.6269
 4637TIP3    H135470   4.741   5.563   0.340  2.6343  0.7743 -3.0040
 4637TIP3    H235471   4.825   5.593   0.462  1.3666  1.4785 -2.2789
 4638TIP3   OH235472   0.086   5.535   1.137  0.1923  0.1527 -0.0718
 4638TIP3    H135473   0.089   5.571   1.226  1.6731  1.5462 -0.6548
 4638TIP3    H235474   0.090   5.611   1.080  1.0601 -0.8211 -1.3505
 4639TIP3   OH235475   6.059   2.261   1.391 -0.5069 -0.2879 -0.0881
 4639TIP3    H135476   6.040   2.198   1.321  1.0043 -0.6034 -0.2400
 4639TIP3    H235477   5.975   2.272   1.436 -1.4156 -0.4190 -1.6516
 4640TIP3   OH235478   6.126   2.553   0.790 -0.3807 -0.1879  0.1726
 4640TIP3    H135479   6.207   2.518   0.827 -2.1192 -3.3312  1.3724
 4640TIP3    H235480   6.126   2.522   0.699  1.2008  2.7284 -0.9825
 4641TIP3   OH235481   3.019   2.532   0.352  0.1034  0.7412  0.0087
 4641TIP3    H135482   3.027   2.575   0.437  2.6892  2.3968 -0.9766
 4641TIP3    H235483   2.972   2.595   0.297 -0.6058  0.1208 -0.1244
 4642TIP3   OH235484   3.085   3.038   1.043  0.5544  0.4748  0.0984
 4642TIP3    H135485   3.093   2.944   1.059  0.4352  0.3076 -0.7709
 4642TIP3    H235486   3.161   3.060   0.990 -0.5583  0.4169 -1.5887
 4643TIP3   OH235487   0.923   0.284   0.537 -0.2426  0.7359  0.0525
 4643TIP3    H135488   0.902   0.328   0.620 -2.0051 -2.6142  1.5960
 4643TIP3    H235489   1.010   0.247   0.551 -1.2784 -1.3808  1.2308
 4644TIP3   OH235490   3.490   5.349   1.111  0.4914  0.0190 -0.9421
 4644TIP3    H135491   3.531   5.409   1.049  0.4354 -1.1121 -2.1001
 4644TIP3    H235492   3.544   5.357   1.190  0.4923  1.5674 -1.0633
 4645TIP3   OH235493   2.454   3.995   2.181 -0.0524  0.7375 -0.1487
 4645TIP3    H135494   2.372   4.043   2.191 -0.5409 -0.3765  1.7502
 4645TIP3    H235495   2.522   4.060   2.193 -0.6244  1.5572 -1.1153
 4646TIP3   OH235496   1.693   2.161   1.827 -0.3494  0.1498  0.1759
 4646TIP3    H135497   1.660   2.112   1.752 -1.5155 -1.0020  1.3844
 4646TIP3    H235498   1.780   2.191   1.799  0.5693 -2.8340 -0.5951
 4647TIP3   OH235499   2.252   1.422   3.641 -0.5152 -0.2015  0.2862
 4647TIP3    H135500   2.341   1.455   3.648 -0.9082  0.5484  2.5249
 4647TIP3    H235501   2.261   1.330   3.616  0.8958 -0.2567  0.9450
 4648TIP3   OH235502   0.406   1.688   3.218 -0.0045 -0.3851 -0.8648
 4648TIP3    H135503   0.379   1.752   3.283 -0.4433 -1.4856  0.0709
 4648TIP3    H235504   0.326   1.639   3.198  0.8362 -2.5364  0.6310
 4649TIP3   OH235505   5.073   6.361   3.106  0.0445  0.6314 -0.2209
 4649TIP3    H135506   5.131   6.365   3.182 -0.1676 -0.4887  0.0163
 4649TIP3    H235507   4.987   6.388   3.139  0.0785  0.7176 -0.2027
 4650TIP3   OH235508   0.291   4.334   3.127  0.3677 -0.3519 -0.4946
 4650TIP3    H135509   0.384   4.356   3.127  0.5097 -0.8942  0.8754
 4650TIP3    H235510   0.280   4.279   3.049  0.4435  2.5056 -2.7292
 4651TIP3   OH235511   5.804   1.414   8.367 -0.5193  0.0682 -0.0164
 4651TIP3    H135512   5.870   1.379   8.308  0.5280  1.4969  0.2723
 4651TIP3    H235513   5.833   1.388   8.454  0.2937  1.6233  0.2039
 4652TIP3   OH235514   1.199   1.742   1.229 -0.3529 -0.3489 -0.8702
 4652TIP3    H135515   1.175   1.830   1.258 -0.3362 -0.0095 -1.8394
 4652TIP3    H235516   1.207   1.749   1.133 -0.2602 -1.3808 -0.9568
 4653TIP3   OH235517   4.508   3.725   0.391  0.0512  0.1471  0.3271
 4653TIP3    H135518   4.497   3.753   0.482 -1.0030 -1.4736  0.7427
 4653TIP3    H235519   4.425   3.682   0.370  1.5860 -2.8249 -0.1436
 4654TIP3   OH235520   0.056   4.853   8.339  0.5089  0.1965  0.2410
 4654TIP3    H135521   0.123   4.913   8.372 -0.5698  0.6694  1.6937
 4654TIP3    H235522   0.027   4.891   8.257  2.3695 -0.3063 -0.7002
 4655TIP3   OH235523   3.406   5.259   2.220 -0.2164 -0.5218  0.2593
 4655TIP3    H135524   3.322   5.243   2.263 -0.7174 -1.6185 -1.0619
 4655TIP3    H235525   3.471   5.245   2.289 -1.1191  1.2985  1.5517
 4656TIP3   OH235526   0.617   6.163   7.304 -0.2220 -0.7978 -0.4405
 4656TIP3    H135527   0.679   6.095   7.329  1.6091  0.5656 -1.0575
 4656TIP3    H235528   0.570   6.127   7.229 -0.8022 -2.1582  0.5220
 4657TIP3   OH235529   3.026   3.138   2.690 -0.4611  0.6473 -0.1898
 4657TIP3    H135530   3.085   3.065   2.672 -0.2899 -0.6512  4.3315
 4657TIP3    H235531   3.084   3.211   2.711 -0.4621  0.3541  0.9028
 4658TIP3   OH235532   3.570   5.466   8.428 -0.3596  0.2103 -0.1874
 4658TIP3    H135533   3.656   5.430   8.408  0.2108  1.3136  0.2065
 4658TIP3    H235534   3.537   5.413   8.500 -0.7208 -1.2447 -1.3764
 4659TIP3   OH235535   3.188   3.159   0.352 -0.5540  0.2627 -0.6763
 4659TIP3    H135536   3.155   3.229   0.408 -1.4025  0.7906 -1.8029
 4659TIP3    H235537   3.186   3.080   0.407 -1.3604  0.7677  0.0289
 4660TIP3   OH235538   1.174   4.267   2.347  0.0737 -0.4492 -0.1409
 4660TIP3    H135539   1.098   4.305   2.391 -0.4282  0.4589 -1.7235
 4660TIP3    H235540   1.137   4.199   2.291  0.4129 -0.0355 -0.8824
 4661TIP3   OH235541   3.958   2.628   7.749 -0.2934  0.1858 -0.1271
 4661TIP3    H135542   3.878   2.657   7.793  0.9383  1.0717  1.6530
 4661TIP3    H235543   3.929   2.559   7.689 -2.1252 -0.9813  1.9371
 4662TIP3   OH235544   2.025   6.775   2.239 -0.0864 -0.3480  0.3772
 4662TIP3    H135545   2.014   6.778   2.334  0.0459 -2.3105  0.4915
 4662TIP3    H235546   2.057   6.687   2.221 -1.6055 -0.5676 -1.6476
 4663TIP3   OH235547   0.330   1.190   2.050  0.0093  0.2058  0.2870
 4663TIP3    H135548   0.340   1.098   2.025  0.6041  0.1648  0.6479
 4663TIP3    H235549   0.237   1.200   2.070  0.2170 -0.7490  1.8991
 4664TIP3   OH235550   4.029   1.314   1.935 -0.1131  0.5414 -0.0934
 4664TIP3    H135551   3.983   1.270   1.863  1.2164  0.4049 -0.8953
 4664TIP3    H235552   4.059   1.396   1.897 -1.6005  1.6869  1.0734
 4665TIP3   OH235553   5.526   1.241   2.451 -0.1685  0.3321 -0.0766
 4665TIP3    H135554   5.461   1.195   2.398 -1.0374 -0.1676  1.3649
 4665TIP3    H235555   5.475   1.298   2.508  0.5361 -0.7786  1.7686
 4666TIP3   OH235556   3.199   6.891   0.596  0.2868 -0.5352  0.3908
 4666TIP3    H135557   3.137   6.902   0.524 -0.3049  1.3278  1.1300
 4666TIP3    H235558   3.247   6.811   0.575 -0.9539 -0.8861 -1.2508
 4667TIP3   OH235559   4.972   1.309   2.758 -0.1195  0.9455 -0.1171
 4667TIP3    H135560   4.991   1.215   2.752 -1.1387  0.5843  1.6418
 4667TIP3    H235561   4.901   1.324   2.696  0.2488  0.6309 -0.6215
 4668TIP3   OH235562   4.029   1.546   1.255 -0.0057 -0.1327 -0.2189
 4668TIP3    H135563   4.095   1.497   1.303 -1.1731 -1.4262  0.1109
 4668TIP3    H235564   4.024   1.630   1.301 -0.1223 -0.8301  1.0794
 4669TIP3   OH235565   6.105   0.992   2.101  0.1753 -0.8315 -0.1399
 4669TIP3    H135566   6.033   1.022   2.157 -0.5223  0.1110 -1.4847
 4669TIP3    H235567   6.156   1.072   2.083  0.6062 -1.1864 -0.5356
 4670TIP3   OH235568   2.926   4.653   2.604  0.1804 -0.1533  0.4694
 4670TIP3    H135569   2.831   4.648   2.616  0.1245  0.4502  0.3157
 4670TIP3    H235570   2.948   4.577   2.551 -0.1432 -0.5811  0.9392
 4671TIP3   OH235571   0.079   5.296   1.428 -0.1778 -0.1041  0.0003
 4671TIP3    H135572   0.072   5.202   1.441  1.5209 -0.5253 -1.7283
 4671TIP3    H235573   0.009   5.317   1.366 -0.6701 -0.1840  0.5236
 4672TIP3   OH235574   5.782   1.341   7.564  0.2692  0.1741 -0.1008
 4672TIP3    H135575   5.872   1.317   7.584 -0.3227 -1.3391  0.9152
 4672TIP3    H235576   5.733   1.260   7.572 -1.4729  1.2583  1.1642
 4673TIP3   OH235577   4.487   4.356   2.675 -0.0269  0.0812  0.2655
 4673TIP3    H135578   4.461   4.308   2.596  0.1918 -1.2740  0.9899
 4673TIP3    H235579   4.407   4.400   2.702 -0.2372  0.1442 -0.4238
 4674TIP3   OH235580   0.543   0.406   0.572  0.0962 -0.2981 -0.6376
 4674TIP3    H135581   0.609   0.456   0.621 -0.9549  1.3555 -0.8366
 4674TIP3    H235582   0.571   0.413   0.481 -0.7438  1.0719 -0.8088
 4675TIP3   OH235583   6.281   5.006   0.439 -0.0812 -0.4249 -0.1438
 4675TIP3    H135584   6.272   5.066   0.365 -2.1632 -0.3543  0.1191
 4675TIP3    H235585   6.272   4.919   0.400 -0.9355 -0.3978 -0.0131
 4676TIP3   OH235586   0.627   5.768   2.528 -0.3689  0.2239 -0.3393
 4676TIP3    H135587   0.654   5.825   2.599 -0.7681 -0.3754  0.3078
 4676TIP3    H235588   0.651   5.815   2.448  1.9390  0.0690  0.1682
 4677TIP3   OH235589   3.842   4.180   8.439  0.0163 -0.2557  0.0049
 4677TIP3    H135590   3.792   4.119   8.493  0.0068 -1.0805 -0.9040
 4677TIP3    H235591   3.783   4.202   8.367 -0.5096  1.9720  1.0499
 4678TIP3   OH235592   5.279   2.576   1.711  0.1511  0.1130 -0.1027
 4678TIP3    H135593   5.357   2.626   1.686 -0.8911  1.5516 -0.5344
 4678TIP3    H235594   5.271   2.590   1.805 -0.6205  1.5287 -0.3477
 4679TIP3   OH235595   0.064   6.337   0.865  0.2064 -0.4436  0.2722
 4679TIP3    H135596   0.056   6.431   0.881 -1.5711 -0.4679 -0.2375
 4679TIP3    H235597  -0.017   6.313   0.821  0.8778 -2.1231 -0.1438
 4680TIP3   OH235598   2.325   2.090   0.079  0.5051  0.0176  0.7329
 4680TIP3    H135599   2.268   2.079   0.155  0.9399  0.9448  1.1966
 4680TIP3    H235600   2.407   2.048   0.103  0.5441  0.0504  0.6588
 4681TIP3   OH235601   2.122   3.753   1.911  0.0653  0.7821  0.4943
 4681TIP3    H135602   2.058   3.684   1.931 -0.5321  1.4727  1.0060
 4681TIP3    H235603   2.183   3.750   1.985  0.5501  0.2228  0.0798
 4682TIP3   OH235604   1.386   3.565   2.238  0.0091  0.3950 -0.4495
 4682TIP3    H135605   1.385   3.658   2.261  1.1596  0.6364 -1.2977
 4682TIP3    H235606   1.294   3.540   2.234 -0.2994  1.3243  0.4179
 4683TIP3   OH235607   6.442   5.004   1.729 -0.0518 -0.3696  0.1033
 4683TIP3    H135608   6.444   5.097   1.748 -0.5639 -0.3161 -0.0987
 4683TIP3    H235609   6.534   4.979   1.722  0.1275 -0.1106  1.2702
 4684TIP3   OH235610   0.881   0.174   1.595 -0.7332 -0.3747 -0.1936
 4684TIP3    H135611   0.915   0.249   1.545 -0.9235 -0.9829 -1.2696
 4684TIP3    H235612   0.798   0.153   1.551 -0.1786 -1.8726 -0.5859
 4685TIP3   OH235613   0.003   5.570   2.677 -0.3424  0.3577 -0.3949
 4685TIP3    H135614  -0.085   5.589   2.645  0.4941  1.4806 -2.1759
 4685TIP3    H235615   0.002   5.601   2.768 -1.5256  1.1472 -0.6534
 4686TIP3   OH235616   1.326   6.160   1.099  0.3028 -0.3710 -0.4254
 4686TIP3    H135617   1.332   6.155   1.195 -2.2713 -1.3493 -0.2151
 4686TIP3    H235618   1.335   6.070   1.070  1.6336 -0.0081 -1.1861
 4687TIP3   OH235619   4.396   4.150   2.352  0.1224  0.2268 -0.0943
 4687TIP3    H135620   4.322   4.162   2.292 -0.1615 -1.3540 -0.0941
 4687TIP3    H235621   4.473   4.175   2.301  0.0014 -2.0647 -1.5337
 4688TIP3   OH235622   0.902   3.679   2.174 -0.0905 -0.0373 -0.1478
 4688TIP3    H135623   0.883   3.751   2.113 -1.2764  1.4338  1.8292
 4688TIP3    H235624   0.904   3.721   2.260  0.6411 -2.1749  0.9396
 4689TIP3   OH235625   6.154   1.113   1.473 -0.6334  0.2176  0.5746
 4689TIP3    H135626   6.229   1.094   1.416 -1.4746  1.1756 -0.9187
 4689TIP3    H235627   6.191   1.164   1.545  0.0364  1.5425 -0.6537
 4690TIP3   OH235628   2.274   0.771   0.680 -0.3641  0.4776 -0.0527
 4690TIP3    H135629   2.184   0.764   0.648 -1.1457  0.8755  1.9364
 4690TIP3    H235630   2.271   0.732   0.767  1.7552 -0.9152 -0.5563
 4691TIP3   OH235631   5.929   1.691   7.492 -0.2971  0.2930  0.4839
 4691TIP3    H135632   5.886   1.606   7.483  0.1217  0.0357  0.8388
 4691TIP3    H235633   6.020   1.670   7.511 -0.1102  0.8275  0.1940
 4692TIP3   OH235634   5.978   5.829   1.107  0.2891 -0.6296 -0.2546
 4692TIP3    H135635   6.049   5.804   1.049  0.4098  0.4377 -0.5920
 4692TIP3    H235636   6.020   5.845   1.191  0.2738 -1.0946 -0.1543
 4693TIP3   OH235637   0.902   4.806   7.789  0.4589 -0.2165 -0.4542
 4693TIP3    H135638   0.944   4.846   7.713 -1.5597 -0.0359 -1.5491
 4693TIP3    H235639   0.873   4.880   7.842  2.1966 -0.3388  0.7687
 4694TIP3   OH235640   2.776   2.794   1.737  0.3175  0.2251 -0.4436
 4694TIP3    H135641   2.743   2.859   1.676 -0.0600  0.6146  0.1583
 4694TIP3    H235642   2.755   2.709   1.698  0.6805  0.4639 -1.1616
 4695TIP3   OH235643   6.749   2.131   3.530  0.2014  0.1483  0.3194
 4695TIP3    H135644   6.816   2.115   3.462  0.8379 -0.3068  1.0389
 4695TIP3    H235645   6.667   2.106   3.488  0.5917 -0.2035 -0.2692
 4696TIP3   OH235646   6.893   1.107   1.463  0.7275 -0.2735  0.0199
 4696TIP3    H135647   6.912   1.021   1.501  0.0455 -0.1749  0.6192
 4696TIP3    H235648   6.978   1.150   1.456  0.9289 -0.5143  0.9071
 4697TIP3   OH235649   3.000   4.207   2.505 -0.0516 -0.3104  0.0838
 4697TIP3    H135650   3.069   4.146   2.531  1.0802  1.3716  1.1762
 4697TIP3    H235651   2.962   4.237   2.588 -0.1609  0.9480 -0.4000
 4698TIP3   OH235652   3.610   6.408   2.291  0.8318 -0.0522  0.1321
 4698TIP3    H135653   3.579   6.318   2.300  0.1616  0.3728  2.6875
 4698TIP3    H235654   3.695   6.399   2.248 -0.1928 -1.6931 -1.7279
 4699TIP3   OH235655   4.594   0.441   1.020  0.1044 -0.3107  0.2663
 4699TIP3    H135656   4.668   0.397   1.061  0.2523 -0.5018 -0.1960
 4699TIP3    H235657   4.566   0.507   1.083 -0.5063 -1.4681  1.2428
 4700TIP3   OH235658   2.646   3.680   3.416 -0.4820  0.3254  0.3674
 4700TIP3    H135659   2.564   3.648   3.453 -0.4687 -1.0515 -0.7008
 4700TIP3    H235660   2.635   3.775   3.410 -2.0725  0.1417  0.0481
 4701TIP3   OH235661   6.044   2.227   0.749  0.5810  0.5164 -0.1487
 4701TIP3    H135662   6.039   2.260   0.839  1.2118  0.6083 -0.1419
 4701TIP3    H235663   6.134   2.194   0.740 -0.0078 -1.1577 -0.1805
 4702TIP3   OH235664   4.691   5.586   0.177  0.0151 -0.4811 -0.1278
 4702TIP3    H135665   4.647   5.501   0.171 -0.0978 -0.3966 -0.5308
 4702TIP3    H235666   4.622   5.646   0.208  0.2007 -0.6165  0.5510
 4703TIP3   OH235667   5.547   3.767   3.228  0.0967 -0.8101  0.5891
 4703TIP3    H135668   5.488   3.693   3.243 -0.8793  0.2107  2.0516
 4703TIP3    H235669   5.503   3.818   3.160 -0.6127 -0.1777  1.5059
 4704TIP3   OH235670   3.491   5.889   0.068  0.3454 -0.6341  0.4151
 4704TIP3    H135671   3.539   5.895  -0.015 -0.8796 -0.9677 -0.3570
 4704TIP3    H235672   3.547   5.836   0.125  0.9692 -0.8548 -0.3856
 4705TIP3   OH235673   0.274   2.392   1.319 -0.5700 -0.2709  0.4907
 4705TIP3    H135674   0.268   2.300   1.293 -1.0621  0.2604 -1.4401
 4705TIP3    H235675   0.335   2.431   1.257 -0.8550  0.8324  0.8767
 4706TIP3   OH235676   0.565   6.692   2.382  0.1510  0.0794  0.0141
 4706TIP3    H135677   0.475   6.720   2.368  0.4248  1.3846  0.6896
 4706TIP3    H235678   0.572   6.681   2.477  0.8267  0.4717  0.0166
 4707TIP3   OH235679   6.683   0.494   0.423  0.0706  0.3935  0.2256
 4707TIP3    H135680   6.729   0.552   0.362 -1.3363 -0.0190 -1.3029
 4707TIP3    H235681   6.637   0.553   0.482  1.4601  0.8055  0.9269
 4708TIP3   OH235682   1.368   2.942   0.170 -0.7964  0.0029  0.1360
 4708TIP3    H135683   1.360   3.026   0.215 -0.8763  0.8897 -1.4866
 4708TIP3    H235684   1.441   2.953   0.110 -0.0928 -1.4670  0.6499
 4709TIP3   OH235685   4.389   3.191   3.448  0.5332  0.6794  0.1889
 4709TIP3    H135686   4.419   3.258   3.509  0.3878  0.2687  0.7188
 4709TIP3    H235687   4.298   3.214   3.429 -0.1703 -0.4800  1.9502
 4710TIP3   OH235688   5.685   4.299   2.661  0.2898  0.5859 -0.4895
 4710TIP3    H135689   5.733   4.333   2.737 -0.5310  1.2337 -0.2481
 4710TIP3    H235690   5.667   4.376   2.607  0.0072  0.2678 -0.8518
 4711TIP3   OH235691   2.467   6.768   1.711 -0.2691  0.3406 -0.2708
 4711TIP3    H135692   2.462   6.673   1.721  3.0517  0.2164  1.9353
 4711TIP3    H235693   2.526   6.782   1.637 -0.1962  0.6505 -0.1587
 4712TIP3   OH235694   3.279   3.517   0.324  0.3612  0.1173 -0.4979
 4712TIP3    H135695   3.340   3.590   0.315 -0.4097  0.7109 -0.9733
 4712TIP3    H235696   3.271   3.504   0.419 -0.0589  1.1399 -0.3774
 4713TIP3   OH235697   5.914   0.089   3.467 -0.2286 -0.0183 -0.5074
 4713TIP3    H135698   5.827   0.107   3.503 -0.3293 -2.7739  0.9271
 4713TIP3    H235699   5.932   0.162   3.409 -2.9592  1.2814  0.1303
 4714TIP3   OH235700   2.866   1.874   0.990 -0.3271  0.3677  0.4583
 4714TIP3    H135701   2.844   1.964   1.014  0.3110  0.4131  0.9066
 4714TIP3    H235702   2.914   1.883   0.907 -0.7698  0.3858  0.2009
 4715TIP3   OH235703   2.287   6.395   0.148 -0.2389 -0.0855 -0.2968
 4715TIP3    H135704   2.227   6.375   0.076 -1.9560  0.6883  0.8283
 4715TIP3    H235705   2.257   6.339   0.220  0.1488  0.5901  0.4034
 4716TIP3   OH235706   5.417   6.108   2.952 -0.0527  0.3651 -0.0728
 4716TIP3    H135707   5.417   6.195   2.912  1.1832  0.6534  0.4943
 4716TIP3    H235708   5.438   6.124   3.044 -0.9114 -0.4551  0.2919
 4717TIP3   OH235709   5.868   2.538   7.292 -0.2529 -0.1408 -0.3738
 4717TIP3    H135710   5.784   2.571   7.259 -0.4572 -1.0948 -0.8462
 4717TIP3    H235711   5.843   2.469   7.354  0.1768 -0.8523 -0.9769
 4718TIP3   OH235712   5.708   4.650   3.354 -0.4150  0.2453 -0.0776
 4718TIP3    H135713   5.648   4.643   3.429 -0.7635 -1.7620 -0.4885
 4718TIP3    H235714   5.699   4.566   3.309  2.0045  0.2793 -0.7118
 4719TIP3   OH235715   2.470   4.928   2.570  0.7666 -0.1340 -0.5685
 4719TIP3    H135716   2.540   4.926   2.505 -0.5363  1.5494 -2.1475
 4719TIP3    H235717   2.393   4.897   2.522  0.5682 -3.1980  1.4597
 4720TIP3   OH235718   5.727   6.854   2.130  0.3041  0.3462 -0.1908
 4720TIP3    H135719   5.760   6.927   2.077 -0.2239  0.8799  0.2010
 4720TIP3    H235720   5.634   6.873   2.141  0.1046 -0.5350 -0.3106
 4721TIP3   OH235721   2.028   5.239   1.782 -0.5778 -0.0079  0.0688
 4721TIP3    H135722   1.935   5.249   1.763 -0.7631  1.4983  1.5284
 4721TIP3    H235723   2.048   5.148   1.760 -2.2728 -0.2327 -0.6774
 4722TIP3   OH235724   0.770   1.026   0.713  0.2029 -0.2027  0.3595
 4722TIP3    H135725   0.820   1.089   0.661 -2.4127  1.0610 -0.7957
 4722TIP3    H235726   0.830   0.998   0.782  2.7742  0.4682 -1.4725
 4723TIP3   OH235727   3.170   4.739   1.943  0.5485 -0.7178  0.4989
 4723TIP3    H135728   3.126   4.700   1.867  1.5421 -0.0704 -0.4432
 4723TIP3    H235729   3.263   4.723   1.928  0.8438  0.3578  1.0283
 4724TIP3   OH235730   2.416   6.212   0.539  0.0946 -0.2131 -0.5092
 4724TIP3    H135731   2.356   6.255   0.477  0.4668 -0.6813 -1.2131
 4724TIP3    H235732   2.371   6.133   0.566 -0.4920  0.4720  0.6102
 4725TIP3   OH235733   0.478   4.593   2.492 -0.1546  0.1583  0.2482
 4725TIP3    H135734   0.549   4.641   2.536  0.5376  0.4518 -1.1471
 4725TIP3    H235735   0.517   4.563   2.410 -2.0455  1.5771 -1.2461
 4726TIP3   OH235736   0.183   4.070   8.091 -0.3306  0.2282 -0.0701
 4726TIP3    H135737   0.217   4.101   8.175 -0.1334 -3.2970  1.3122
 4726TIP3    H235738   0.260   4.041   8.043 -0.7394 -1.7168  0.3667
 4727TIP3   OH235739   6.120   1.631   1.371  0.5715  0.2919  0.0742
 4727TIP3    H135740   6.076   1.547   1.386  0.2311  0.0695 -1.8742
 4727TIP3    H235741   6.212   1.615   1.394  0.6100 -0.7891 -0.7540
 4728TIP3   OH235742   2.277   0.248   3.304  0.1143 -0.2763  0.0775
 4728TIP3    H135743   2.316   0.179   3.251 -0.0197  0.1121 -0.5282
 4728TIP3    H235744   2.182   0.238   3.291  0.0751 -0.2620  0.3466
 4729TIP3   OH235745   2.911   3.080   3.186  0.6493  0.3040 -0.0881
 4729TIP3    H135746   2.923   3.173   3.207 -2.2835  1.0898 -1.5164
 4729TIP3    H235747   2.823   3.074   3.151  0.7419 -3.0762 -0.0398
 4730TIP3   OH235748   5.646   3.531   8.489 -0.1528  0.4436 -0.2252
 4730TIP3    H135749   5.642   3.564   8.400  0.3156 -0.5076 -0.6194
 4730TIP3    H235750   5.690   3.600   8.539 -1.1122  1.3052 -0.5572
 4731TIP3   OH235751   3.410   5.077   3.070 -0.5832  0.1637 -0.0014
 4731TIP3    H135752   3.378   5.089   3.159 -1.2211  1.1734 -0.3510
 4731TIP3    H235753   3.505   5.094   3.076 -0.6507  0.4000  0.4522
 4732TIP3   OH235754   2.741   1.147   2.176 -0.4603 -0.7135 -0.0802
 4732TIP3    H135755   2.663   1.103   2.142  0.7187 -1.5817 -1.8500
 4732TIP3    H235756   2.813   1.108   2.126  1.0428  0.5028  1.0580
 4733TIP3   OH235757   1.658   1.654   8.532  0.3410 -0.5403 -0.9052
 4733TIP3    H135758   1.675   1.729   8.475 -1.5070 -0.4141 -1.3442
 4733TIP3    H235759   1.738   1.602   8.528  1.9544  1.6982 -0.0569
 4734TIP3   OH235760   6.402   5.103   8.308 -0.4793  0.3234  0.3274
 4734TIP3    H135761   6.436   5.064   8.227 -0.4321  0.1909  0.4114
 4734TIP3    H235762   6.473   5.159   8.339 -0.2427 -0.1305  0.6259
 4735TIP3   OH235763   5.160   0.295   0.266  0.6254 -0.1956 -0.1829
 4735TIP3    H135764   5.103   0.257   0.199 -0.2461  0.0307  0.4112
 4735TIP3    H235765   5.249   0.281   0.233  0.2351 -0.7043 -1.0494
 4736TIP3   OH235766   0.578   3.140   1.680  0.4264 -0.8203  0.0201
 4736TIP3    H135767   0.483   3.129   1.676  0.3883 -0.2472 -1.0005
 4736TIP3    H235768   0.592   3.196   1.757 -0.1711 -0.0344 -0.4199
 4737TIP3   OH235769   4.262   2.293   1.280 -0.0549 -0.6587 -0.0515
 4737TIP3    H135770   4.339   2.294   1.337  1.5851 -0.0332 -2.1241
 4737TIP3    H235771   4.246   2.201   1.263  0.6392 -0.7763 -0.0908
 4738TIP3   OH235772   2.547   6.260   1.983 -0.3473  0.0278 -0.3199
 4738TIP3    H135773   2.566   6.191   2.047 -0.1852 -2.1893 -2.5637
 4738TIP3    H235774   2.504   6.329   2.033  0.3799 -1.2527  2.2579
 4739TIP3   OH235775   5.785   4.801   8.219 -0.4081 -0.0079  0.0616
 4739TIP3    H135776   5.749   4.754   8.295  1.3265  0.5629  1.3099
 4739TIP3    H235777   5.788   4.735   8.150 -0.4352 -1.0227  0.9969
 4740TIP3   OH235778   0.167   2.821   7.945 -0.0500 -0.7035  0.1441
 4740TIP3    H135779   0.181   2.854   7.856 -0.3590  0.1978  0.4130
 4740TIP3    H235780   0.254   2.793   7.974  1.0069  2.9562  1.0577
 4741TIP3   OH235781   6.549   3.217   7.754  0.3124 -0.2949  0.0086
 4741TIP3    H135782   6.553   3.122   7.737  0.6334 -0.0200 -1.5629
 4741TIP3    H235783   6.576   3.257   7.672 -0.8365  1.1910  0.3210
 4742TIP3   OH235784   6.611   5.322   8.316  0.1118 -0.0734  0.3791
 4742TIP3    H135785   6.667   5.247   8.336  0.9982  0.7036  0.8921
 4742TIP3    H235786   6.659   5.397   8.352  0.6217  1.1172 -2.5348
 4743TIP3   OH235787   5.277   1.100   0.710  0.0784 -0.2965  0.3704
 4743TIP3    H135788   5.312   1.111   0.798 -1.8865 -0.3452  1.2009
 4743TIP3    H235789   5.218   1.025   0.716  0.3423 -0.6607 -1.1338
 4744TIP3   OH235790   3.988   6.561   1.841 -0.2854 -0.0972  0.0913
 4744TIP3    H135791   4.031   6.489   1.888 -2.0935 -0.5920  1.0979
 4744TIP3    H235792   3.951   6.616   1.909 -1.0424  0.4325 -0.7226
 4745TIP3   OH235793   2.294   1.927   0.799  0.4159  0.1471 -0.2741
 4745TIP3    H135794   2.371   1.879   0.829 -0.7581 -0.8622  1.2043
 4745TIP3    H235795   2.225   1.862   0.793  0.1323  0.5604 -3.8171
 4746TIP3   OH235796   0.794   2.751   2.799 -0.3964  0.3956  0.8288
 4746TIP3    H135797   0.772   2.775   2.709 -0.8850 -2.0693  0.2262
 4746TIP3    H235798   0.883   2.786   2.812 -0.1457  0.4256 -0.7545
 4747TIP3   OH235799   3.523   1.213   2.622 -0.2718  0.0240  0.2709
 4747TIP3    H135800   3.501   1.260   2.542  0.2591  0.1185  0.1773
 4747TIP3    H235801   3.513   1.120   2.599 -0.8613  0.0694  0.3211
 4748TIP3   OH235802   3.084   5.065   0.456  0.0684 -0.3223  0.6114
 4748TIP3    H135803   3.079   5.035   0.547  0.3614 -0.9914  0.4136
 4748TIP3    H235804   3.073   5.160   0.461 -1.6886 -0.5144  1.1948
 4749TIP3   OH235805   0.362   0.861   8.546  0.8966 -0.0514  0.3674
 4749TIP3    H135806   0.397   0.791   8.491 -2.9006 -1.9942  0.0457
 4749TIP3    H235807   0.298   0.906   8.491  2.7960  3.4693  0.7655
 4750TIP3   OH235808   6.246   4.747   0.330 -0.2440 -0.3210  0.0838
 4750TIP3    H135809   6.290   4.709   0.254 -0.4140 -1.1165  0.3717
 4750TIP3    H235810   6.166   4.695   0.340  0.8238 -1.7273  2.1144
 4751TIP3   OH235811   1.278   4.051   7.305  0.0777 -0.0880  0.0699
 4751TIP3    H135812   1.237   4.118   7.251 -0.0511 -0.3223 -0.1233
 4751TIP3    H235813   1.292   4.094   7.390 -3.0214 -0.7626  1.0571
 4752TIP3   OH235814   3.572   6.845   3.597 -0.3006 -0.9327  0.1581
 4752TIP3    H135815   3.506   6.889   3.543 -0.4245 -0.1678  0.9158
 4752TIP3    H235816   3.560   6.752   3.578 -2.1538 -0.8800  0.8732
 4753TIP3   OH235817   0.739   3.519   7.555  0.2058  0.4100  0.2776
 4753TIP3    H135818   0.660   3.540   7.505 -0.1651  0.2209  0.7818
 4753TIP3    H235819   0.762   3.430   7.526  0.9860  0.9427 -0.8274
 4754TIP3   OH235820   5.285   1.274   7.364 -0.2300  0.1155  0.1090
 4754TIP3    H135821   5.350   1.274   7.435  2.4069 -2.8655 -2.0003
 4754TIP3    H235822   5.238   1.191   7.375  0.4171 -0.5454 -1.6481
 4755TIP3   OH235823   6.857   5.947   0.785  0.0887  0.4243  0.8895
 4755TIP3    H135824   6.798   5.873   0.769  1.1838 -0.2050 -0.3582
 4755TIP3    H235825   6.868   5.988   0.700  0.2451  1.4729  1.3992
 4756TIP3   OH235826   0.479   5.015   2.883 -0.2932  0.3178 -0.2368
 4756TIP3    H135827   0.461   5.050   2.970  2.3368  1.5814 -0.1193
 4756TIP3    H235828   0.474   5.092   2.826  2.2947  0.3551 -0.4887
 4757TIP3   OH235829   1.075   4.738   0.789  0.0188  0.3954 -0.0131
 4757TIP3    H135830   1.090   4.832   0.795 -1.0115  0.5339  0.5771
 4757TIP3    H235831   1.088   4.718   0.696 -0.9308  1.3455 -0.3705
 4758TIP3   OH235832   3.945   0.274   8.210  0.1270 -0.0615  0.5010
 4758TIP3    H135833   3.908   0.227   8.285 -3.2581  1.9301  0.2659
 4758TIP3    H235834   4.016   0.326   8.248 -0.5520 -0.1967  2.0348
 4759TIP3   OH235835   1.076   0.308   8.432  0.3456  0.0360 -0.1780
 4759TIP3    H135836   1.076   0.239   8.497 -1.5363  1.6288  1.6679
 4759TIP3    H235837   1.000   0.289   8.376 -0.0225  0.4586  0.1741
 4760TIP3   OH235838   3.518   5.310   1.970  0.7272 -0.8714 -0.2330
 4760TIP3    H135839   3.597   5.257   1.959  0.1300 -1.7737 -0.3306
 4760TIP3    H235840   3.483   5.284   2.055 -0.2257 -1.5578 -0.8038
 4761TIP3   OH235841   2.384   1.886   2.684 -0.0535 -0.3267 -0.1506
 4761TIP3    H135842   2.335   1.804   2.680 -1.1527  0.3471 -1.8192
 4761TIP3    H235843   2.462   1.870   2.630 -0.1757 -0.3258 -0.3270
 4762TIP3   OH235844   1.929   4.505   8.485 -0.1827 -0.5682 -0.3582
 4762TIP3    H135845   1.868   4.525   8.556 -1.6933 -3.1834 -0.7667
 4762TIP3    H235846   2.015   4.515   8.524 -0.8266  1.8081  0.6743
 4763TIP3   OH235847   4.197   1.129   0.461  0.1577 -0.1210 -0.3426
 4763TIP3    H135848   4.177   1.087   0.378 -0.5096 -0.7430  0.1143
 4763TIP3    H235849   4.236   1.059   0.514 -2.0923 -0.5719  0.8619
 4764TIP3   OH235850   0.762   2.880   3.061 -0.6408  0.3500 -0.1340
 4764TIP3    H135851   0.780   2.974   3.056  0.6619  0.1734  0.8470
 4764TIP3    H235852   0.728   2.858   2.974 -2.2219  1.9510  0.0294
 4765TIP3   OH235853   4.239   1.442   1.418  0.3121 -0.2279  1.1445
 4765TIP3    H135854   4.330   1.462   1.395  0.3374 -1.2010  0.3484
 4765TIP3    H235855   4.245   1.399   1.503  0.9299 -2.8806 -0.1191
 4766TIP3   OH235856   6.537   6.782   0.074  0.0629 -0.1795  0.0177
 4766TIP3    H135857   6.631   6.769   0.087 -0.1062 -1.2740  0.2211
 4766TIP3    H235858   6.524   6.876   0.087  1.3115  0.2018 -1.2191
 4767TIP3   OH235859   5.183   3.258   0.466  0.5067 -0.2794  0.3963
 4767TIP3    H135860   5.090   3.267   0.446  0.7139  1.1676 -0.0593
 4767TIP3    H235861   5.227   3.277   0.383  1.2736  2.0954  1.2728
 4768TIP3   OH235862   5.320   2.749   8.569  0.3660  0.3581 -0.0387
 4768TIP3    H135863   5.386   2.711   8.627  0.6288  0.0977 -0.5075
 4768TIP3    H235864   5.236   2.720   8.607  0.5122  0.6979  0.5580
 4769TIP3   OH235865   0.379   3.933   8.362 -0.9100 -0.3665 -0.0328
 4769TIP3    H135866   0.371   3.865   8.295 -0.0781 -1.0627  0.5444
 4769TIP3    H235867   0.472   3.954   8.365 -0.9957 -0.0265  0.5929
 4770TIP3   OH235868   3.908   5.526   8.018 -0.0347  0.3497  0.3203
 4770TIP3    H135869   3.876   5.555   8.103  0.7802 -0.2416  0.8410
 4770TIP3    H235870   4.001   5.549   8.019  0.1095 -0.2058 -0.1787
 4771TIP3   OH235871   2.046   4.737   8.215 -0.6313 -0.5144 -0.2281
 4771TIP3    H135872   1.969   4.734   8.158 -0.0523 -1.0741 -1.0018
 4771TIP3    H235873   2.021   4.796   8.286 -0.8469  1.4550 -1.8338
 4772TIP3   OH235874   0.408   2.662   7.007  0.0559 -0.6685  0.0947
 4772TIP3    H135875   0.372   2.722   6.941 -0.0705  2.2904  2.5915
 4772TIP3    H235876   0.331   2.632   7.056  0.3506 -0.1619  0.9010
 4773TIP3   OH235877   5.922   5.412   2.891  0.5575 -0.2068 -0.2340
 4773TIP3    H135878   5.876   5.435   2.972 -0.3200 -1.4142 -0.3606
 4773TIP3    H235879   5.898   5.321   2.875  0.4760  0.0921 -2.0125
 4774TIP3   OH235880   0.107   5.733   0.954 -0.1331 -0.2813  0.3875
 4774TIP3    H135881   0.041   5.802   0.964 -0.3890 -0.7719  2.7251
 4774TIP3    H235882   0.156   5.758   0.875 -2.4228  0.6381 -0.8487
 4775TIP3   OH235883   6.221   2.332   1.596 -0.1993  0.2225  0.5745
 4775TIP3    H135884   6.166   2.358   1.670 -0.5203 -2.1377  1.2744
 4775TIP3    H235885   6.159   2.303   1.529  0.1307  0.6439  0.0804
 4776TIP3   OH235886   1.901   1.897   7.565  0.0765 -0.1952  0.4437
 4776TIP3    H135887   1.844   1.918   7.491 -0.5290 -1.7031  0.4431
 4776TIP3    H235888   1.987   1.885   7.525  0.5392  2.4407  0.4908
 4777TIP3   OH235889   6.393   1.300   2.371  0.2370 -0.0436 -0.3204
 4777TIP3    H135890   6.341   1.379   2.384  0.4409  0.3229 -1.5757
 4777TIP3    H235891   6.329   1.231   2.355  0.1028  0.2896 -1.2671
 4778TIP3   OH235892   5.914   3.815   7.292  0.7026 -0.0906  0.3558
 4778TIP3    H135893   5.890   3.808   7.200 -0.2197 -0.8153  0.6433
 4778TIP3    H235894   5.839   3.780   7.340  1.4238 -0.3031  1.3650
 4779TIP3   OH235895   6.169   1.110   2.391  0.2689 -0.5429 -0.2660
 4779TIP3    H135896   6.172   1.019   2.421 -1.7160 -0.2315  1.0952
 4779TIP3    H235897   6.081   1.120   2.355 -0.3413  1.3559  1.5457
 4780TIP3   OH235898   5.568   0.954   8.246 -0.1743  0.3011 -0.6578
 4780TIP3    H135899   5.616   1.014   8.189 -0.8141  2.4605  0.9572
 4780TIP3    H235900   5.634   0.893   8.279  0.8064  1.1261 -1.0716
 4781TIP3   OH235901   4.256   0.224   7.789 -0.1064 -0.2738  0.0718
 4781TIP3    H135902   4.314   0.148   7.797  0.2241 -0.0760 -0.4041
 4781TIP3    H235903   4.171   0.192   7.817  0.4601 -0.2532  1.9657
 4782TIP3   OH235904   2.690   3.318   2.104 -0.0211  0.0790 -0.9820
 4782TIP3    H135905   2.676   3.397   2.156  0.8338 -0.4446  0.0751
 4782TIP3    H235906   2.672   3.246   2.163  1.6263 -0.5404 -1.1756
 4783TIP3   OH235907   0.709   3.874   7.813  0.4697 -0.6811 -0.1278
 4783TIP3    H135908   0.804   3.873   7.823  0.4876 -1.1609 -0.3272
 4783TIP3    H235909   0.692   3.815   7.740  0.1105  0.4917 -1.0273
 4784TIP3   OH235910   2.601   3.001   2.519  0.2496  0.3148 -0.0735
 4784TIP3    H135911   2.662   2.982   2.590  1.3793  0.6378 -0.9158
 4784TIP3    H235912   2.527   3.044   2.561 -0.0151 -1.2662  1.1600
 4785TIP3   OH235913   5.762   1.573   3.018  0.0804  0.1238 -0.0651
 4785TIP3    H135914   5.787   1.663   2.999 -1.6516  0.7618  0.5045
 4785TIP3    H235915   5.730   1.576   3.108  4.0302 -1.9403  1.6479
 4786TIP3   OH235916   6.874   1.783   2.442  0.0103  0.7914 -0.3472
 4786TIP3    H135917   6.820   1.863   2.442 -2.0154 -0.4203  1.6726
 4786TIP3    H235918   6.958   1.811   2.407 -0.8720  3.6125 -0.5293
 4787TIP3   OH235919   6.773   2.702   7.663 -0.1153  0.1477  0.3846
 4787TIP3    H135920   6.677   2.702   7.654 -0.1009  0.7929  0.2067
 4787TIP3    H235921   6.789   2.742   7.748  0.0290  1.0912 -0.0694
 4788TIP3   OH235922   2.829   0.657   7.092 -0.0459  0.1750  0.3115
 4788TIP3    H135923   2.912   0.706   7.090 -0.7910  1.4836 -1.2570
 4788TIP3    H235924   2.852   0.569   7.061  0.8378  0.3923  0.3229
 4789TIP3   OH235925   3.406   4.064   3.021  0.0040 -0.1069 -0.0407
 4789TIP3    H135926   3.361   4.095   2.943 -0.0533 -0.2630 -0.0706
 4789TIP3    H235927   3.353   4.095   3.094 -0.4912 -0.8068 -0.0895
 4790TIP3   OH235928   1.622   2.804   8.217 -0.3600  0.4007  0.1009
 4790TIP3    H135929   1.602   2.803   8.124  1.1190  0.0049 -0.2304
 4790TIP3    H235930   1.561   2.868   8.254 -0.6647  0.8803 -1.1893
 4791TIP3   OH235931   3.105   5.837   1.475  0.2758 -0.7770 -0.4602
 4791TIP3    H135932   3.045   5.792   1.534  1.3501 -0.5513  0.8423
 4791TIP3    H235933   3.179   5.778   1.465  0.0258 -0.9042 -1.7867
 4792TIP3   OH235934   4.066   3.015   3.061  0.0013  0.2425 -0.2803
 4792TIP3    H135935   4.038   3.056   3.142  1.0516 -0.7534  0.6227
 4792TIP3    H235936   4.083   3.088   3.002 -0.1138  1.0199  0.6263
 4793TIP3   OH235937   0.535   3.082   1.378  0.7460  0.0068 -0.3460
 4793TIP3    H135938   0.466   3.109   1.439 -0.0035 -0.2138 -1.0639
 4793TIP3    H235939   0.490   3.075   1.293  1.3489 -1.5013 -0.5772
 4794TIP3   OH235940   4.737   4.941   2.393 -0.4548  0.1972 -0.0881
 4794TIP3    H135941   4.679   4.905   2.461 -1.0424  1.2791  0.0034
 4794TIP3    H235942   4.806   4.986   2.442  1.5187 -2.4879 -0.1360
 4795TIP3   OH235943   1.244   4.707   8.452  0.5683  0.9894  0.2320
 4795TIP3    H135944   1.300   4.719   8.375  0.1191  1.0840 -0.0852
 4795TIP3    H235945   1.162   4.750   8.429 -1.1516 -2.5195 -0.9700
 4796TIP3   OH235946   1.547   2.465   2.492  0.3665 -0.5320  0.0700
 4796TIP3    H135947   1.592   2.498   2.569  1.9912  0.9015 -1.4056
 4796TIP3    H235948   1.459   2.503   2.498  0.1926 -1.1131  1.5846
 4797TIP3   OH235949   2.189   4.117   8.307  0.1088  0.3088 -0.9727
 4797TIP3    H135950   2.143   4.184   8.357  0.7790  0.8473 -1.0621
 4797TIP3    H235951   2.155   4.127   8.218 -1.7780 -1.2748 -0.4771
 4798TIP3   OH235952   3.618   6.795   0.529  0.2878 -0.4489 -0.0210
 4798TIP3    H135953   3.538   6.745   0.514  0.1510 -0.4117  0.5619
 4798TIP3    H235954   3.614   6.819   0.621 -0.3439  1.8095 -0.5464
 4799TIP3   OH235955   4.190   3.774   0.548  0.4620 -0.6285 -0.1152
 4799TIP3    H135956   4.249   3.849   0.547  0.6120 -0.7345 -1.5931
 4799TIP3    H235957   4.186   3.745   0.457 -0.8696 -1.4161  0.1628
 4800TIP3   OH235958   6.705   6.568   3.542  0.1187  0.1957 -0.3370
 4800TIP3    H135959   6.674   6.655   3.516  1.0098  0.0370 -2.0362
 4800TIP3    H235960   6.638   6.508   3.509  0.9618  0.0399 -1.8487
 4801TIP3   OH235961   0.730   1.823   1.588 -0.8933 -0.8161 -0.4655
 4801TIP3    H135962   0.712   1.746   1.642  0.0649  0.3977  1.7253
 4801TIP3    H235963   0.816   1.807   1.550  0.3505  0.0615  1.8223
 4802TIP3   OH235964   4.227   3.842   0.809  0.2994 -0.0140  0.0174
 4802TIP3    H135965   4.140   3.819   0.840  0.4146 -0.1521  0.2445
 4802TIP3    H235966   4.225   3.826   0.715  0.4009 -1.0496  0.1737
 4803TIP3   OH235967   6.055   3.763   1.112 -0.6378 -0.1842  0.0030
 4803TIP3    H135968   6.120   3.807   1.056 -0.2660 -1.5095 -0.6507
 4803TIP3    H235969   6.039   3.679   1.068 -0.1808 -1.3614  2.0011
 4804TIP3   OH235970   1.307   2.402   0.328 -0.0669 -0.1826  0.1812
 4804TIP3    H135971   1.337   2.369   0.413  2.1980  0.4538 -0.2888
 4804TIP3    H235972   1.383   2.449   0.292 -1.3421  0.6097 -1.6718
 4805TIP3   OH235973   6.197   3.990   8.105  0.2800  0.3395  0.1116
 4805TIP3    H135974   6.198   3.942   8.022 -1.9206  0.7568 -0.1987
 4805TIP3    H235975   6.245   4.071   8.087  0.2209  0.2167 -0.6193
 4806TIP3   OH235976   2.014   0.311   0.442 -0.4282  0.3873 -0.1644
 4806TIP3    H135977   2.063   0.321   0.523  0.2234  0.2125 -0.5365
 4806TIP3    H235978   2.078   0.280   0.378 -0.9829  0.3130 -0.6935
 4807TIP3   OH235979   5.065   3.198   7.832  0.1526  0.9862 -0.0290
 4807TIP3    H135980   5.080   3.180   7.740  0.5788 -1.2307  0.4158
 4807TIP3    H235981   5.145   3.244   7.861  1.4747 -1.1268 -0.1097
 4808TIP3   OH235982   4.902   6.472   0.576  0.0559  0.0935  0.1557
 4808TIP3    H135983   4.913   6.555   0.529  2.5885  0.4055  1.1189
 4808TIP3    H235984   4.898   6.406   0.508 -0.3961  0.8638 -0.5804
 4809TIP3   OH235985   4.726   3.300   1.700  0.1482  0.0625 -0.3637
 4809TIP3    H135986   4.794   3.367   1.706 -1.2698  1.4054  1.6754
 4809TIP3    H235987   4.754   3.231   1.759  0.0474  0.3343  0.0024
 4810TIP3   OH235988   4.072   0.169   2.302  0.2205 -0.0657  0.0021
 4810TIP3    H135989   4.042   0.098   2.245 -0.4212 -1.1998  1.6711
 4810TIP3    H235990   4.129   0.222   2.246 -0.5227 -0.9965 -1.7287
 4811TIP3   OH235991   5.019   4.041   1.007  0.1110 -0.3214 -0.1459
 4811TIP3    H135992   5.024   4.085   0.922 -2.1266 -0.6695 -0.5413
 4811TIP3    H235993   4.976   3.957   0.988 -0.9550 -0.1698  1.3881
 4812TIP3   OH235994   3.286   0.766   3.345 -0.0830 -0.0058  0.0904
 4812TIP3    H135995   3.304   0.837   3.407  0.5742 -1.3771  1.5227
 4812TIP3    H235996   3.287   0.809   3.259  2.6446  1.3595  0.6974
 4813TIP3   OH235997   3.328   1.471   0.621  0.1290  0.5083  0.2430
 4813TIP3    H135998   3.403   1.472   0.681  1.0966 -1.9802 -0.8242
 4813TIP3    H235999   3.303   1.379   0.614 -2.0774  1.1022 -0.6513
 4814TIP3   OH236000   5.596   2.066   1.363 -0.1234  0.5327 -0.5081
 4814TIP3    H136001   5.522   2.006   1.366  1.0930 -1.5437 -4.4454
 4814TIP3    H236002   5.604   2.089   1.270  4.1812  0.4797 -0.3500
 4815TIP3   OH236003   0.356   3.121   8.034 -0.4206 -0.3260  0.6941
 4815TIP3    H136004   0.303   3.041   8.041  1.6386 -1.6878  2.0558
 4815TIP3    H236005   0.293   3.192   8.029 -2.3737 -1.8741  1.9198
 4816TIP3   OH236006   1.286   1.494   0.283  0.2979 -0.2081  0.0451
 4816TIP3    H136007   1.374   1.456   0.285  0.0420 -0.8606 -0.8561
 4816TIP3    H236008   1.236   1.438   0.224 -0.9022 -0.1980  0.9986
 4817TIP3   OH236009   2.339   6.282   8.060  0.0788 -0.1616 -0.3869
 4817TIP3    H136010   2.269   6.226   8.091 -0.0778 -0.9687 -2.0690
 4817TIP3    H236011   2.414   6.259   8.115 -0.3457 -1.0256 -0.1519
 4818TIP3   OH236012   0.824   2.720   7.162 -0.6157 -0.1361 -0.3619
 4818TIP3    H136013   0.917   2.744   7.165  0.0358 -2.2594 -1.4542
 4818TIP3    H236014   0.781   2.781   7.222  1.6326  0.2830  0.9187
 4819TIP3   OH236015   6.542   6.274   2.387 -0.2629  0.3428 -0.0081
 4819TIP3    H136016   6.607   6.339   2.363 -1.6878  1.1441 -1.9629
 4819TIP3    H236017   6.593   6.199   2.418  1.6303  0.7725 -1.8710
 4820TIP3   OH236018   3.767   5.389   0.448 -0.0030 -0.2926 -0.0410
 4820TIP3    H136019   3.739   5.437   0.370 -0.0405  0.1926  0.2700
 4820TIP3    H236020   3.722   5.432   0.520  1.8889  0.8475  0.5406
 4821TIP3   OH236021   2.372   6.598   7.774 -0.2026  0.0243  0.3847
 4821TIP3    H136022   2.431   6.665   7.740 -0.3589  0.1032  0.2657
 4821TIP3    H236023   2.302   6.648   7.817 -1.0908 -0.0131 -0.9536
 4822TIP3   OH236024   5.973   0.462   2.094  0.0362 -0.2246 -0.1056
 4822TIP3    H136025   5.885   0.433   2.118 -0.2371  0.9190  0.3113
 4822TIP3    H236026   5.988   0.423   2.008 -0.7133 -0.7509 -0.0146
 4823TIP3   OH236027   0.367   5.101   0.874 -0.3550  0.1735  0.0510
 4823TIP3    H136028   0.428   5.088   0.801  0.6153  2.6707  0.3414
 4823TIP3    H236029   0.372   5.194   0.894 -1.4110 -0.2324  2.6169
 4824TIP3   OH236030   0.660   0.646   7.871 -0.4383 -0.3378 -0.3142
 4824TIP3    H136031   0.697   0.574   7.922 -1.5855 -1.3488 -0.8418
 4824TIP3    H236032   0.615   0.700   7.936  0.7202  0.1094  0.1334
 4825TIP3   OH236033   1.679   5.334   8.285  0.1942 -0.2453 -0.3041
 4825TIP3    H136034   1.653   5.377   8.204  0.7042 -1.4981 -1.1667
 4825TIP3    H236035   1.755   5.385   8.315 -0.0610  0.2900 -0.5478
 4826TIP3   OH236036   3.003   2.595   1.443 -0.3772 -0.6397 -0.1305
 4826TIP3    H136037   2.958   2.674   1.473  1.0860 -0.4662  1.7508
 4826TIP3    H236038   2.943   2.524   1.465 -0.5583 -0.2705  0.5885
 4827TIP3   OH236039   2.128   1.658   0.883 -0.1660 -0.4334 -0.4756
 4827TIP3    H136040   2.167   1.625   0.802 -0.2519 -2.2424  0.1769
 4827TIP3    H236041   2.146   1.590   0.948 -1.8552  0.0384  0.5521
 4828TIP3   OH236042   3.524   3.595   2.008  0.2014  0.3457  0.1457
 4828TIP3    H136043   3.438   3.604   2.050 -0.7587  1.4868 -1.9146
 4828TIP3    H236044   3.570   3.530   2.061 -2.0652 -0.5889  1.0901
 4829TIP3   OH236045   1.681   5.787   7.884  0.0609 -0.2310  0.1099
 4829TIP3    H136046   1.707   5.875   7.857 -1.2998  0.9053  2.2001
 4829TIP3    H236047   1.624   5.756   7.813  2.4038 -0.4790 -1.7851
 4830TIP3   OH236048   6.234   4.406   3.592  0.2367  0.2442 -0.3464
 4830TIP3    H136049   6.149   4.368   3.617 -1.5249  2.7619 -2.0109
 4830TIP3    H236050   6.254   4.468   3.663  0.2876  0.1988 -0.3215
 4831TIP3   OH236051   2.036   4.658   1.905 -0.3115  0.2490 -0.7471
 4831TIP3    H136052   2.053   4.574   1.862  1.1708  0.8181 -1.3369
 4831TIP3    H236053   2.108   4.668   1.966 -1.0622  0.6208  0.0959
 4832TIP3   OH236054   4.585   1.162   1.893 -0.5559  0.1647 -0.1918
 4832TIP3    H136055   4.628   1.231   1.943 -0.1399 -0.2587  0.0548
 4832TIP3    H236056   4.540   1.207   1.822  0.7537  0.5976 -0.7815
 4833TIP3   OH236057   5.515   6.363   2.352  0.1942  0.2366 -0.1644
 4833TIP3    H136058   5.545   6.339   2.264  1.1854  2.6779 -0.5659
 4833TIP3    H236059   5.491   6.455   2.345 -0.5999  0.2450  1.9247
 4834TIP3   OH236060   3.570   6.830   0.792  0.4086 -0.7800  0.2761
 4834TIP3    H136061   3.568   6.735   0.805 -1.3445 -0.7830  0.2196
 4834TIP3    H236062   3.530   6.866   0.871  1.7959 -0.0205  0.6623
 4835TIP3   OH236063   0.819   3.991   7.376  0.0742 -0.3036  0.0921
 4835TIP3    H136064   0.903   3.982   7.421  1.8992  0.4199 -2.9110
 4835TIP3    H236065   0.798   4.084   7.382 -1.2789 -0.6743  1.9611
 4836TIP3   OH236066   3.925   5.206   3.575 -0.2264 -0.2315 -0.5771
 4836TIP3    H136067   3.834   5.234   3.579  0.5016  2.4512 -0.7636
 4836TIP3    H236068   3.922   5.121   3.532 -2.5918 -0.0262 -0.9521
 4837TIP3   OH236069   1.065   3.362   2.800 -0.3320  0.1559 -0.8154
 4837TIP3    H136070   1.072   3.455   2.822 -0.0645 -0.5806  2.8418
 4837TIP3    H236071   0.977   3.337   2.828  0.1359 -0.9881 -0.3093
 4838TIP3   OH236072   3.412   1.801   2.912  0.5885 -0.0297 -0.5309
 4838TIP3    H136073   3.453   1.748   2.981 -0.2026 -3.3989 -2.4060
 4838TIP3    H236074   3.319   1.800   2.934  0.4375 -0.4030 -1.1586
 4839TIP3   OH236075   1.778   0.189   8.277 -0.7237  0.1305  0.2545
 4839TIP3    H136076   1.687   0.215   8.292 -1.2473 -2.1053  1.4378
 4839TIP3    H236077   1.829   0.265   8.305 -2.1857  1.6790 -1.0081
 4840TIP3   OH236078   2.858   4.698   2.139 -0.1602  0.2518  0.6545
 4840TIP3    H136079   2.842   4.608   2.167 -0.2673  0.4240  1.1578
 4840TIP3    H236080   2.787   4.749   2.180 -0.4184  0.4858 -0.0665
 4841TIP3   OH236081   2.450   1.272   0.858  0.3854 -0.3735 -0.4536
 4841TIP3    H136082   2.498   1.275   0.775 -0.3829 -0.4378 -0.9041
 4841TIP3    H236083   2.518   1.284   0.925  0.8029  1.3400 -1.1378
 4842TIP3   OH236084   5.026   6.765   2.939 -0.5267 -0.1809 -0.0748
 4842TIP3    H136085   4.952   6.705   2.928 -0.3358 -0.0651 -2.8519
 4842TIP3    H236086   4.987   6.852   2.942 -0.5731 -0.1760 -0.6737
 4843TIP3   OH236087   6.268   6.277   2.351 -0.2835  0.2743 -0.0035
 4843TIP3    H136088   6.244   6.367   2.373 -1.9330 -0.5096  1.6155
 4843TIP3    H236089   6.362   6.272   2.372 -0.0882  1.6791 -0.4359
 4844TIP3   OH236090   2.271   5.498   1.793  0.0557 -0.1614  0.2945
 4844TIP3    H136091   2.340   5.536   1.847  1.3263  0.5836 -1.7155
 4844TIP3    H236092   2.192   5.504   1.847  0.7311  2.7973  1.1665
 4845TIP3   OH236093   1.920   5.714   1.345  0.4731  0.0247  0.2627
 4845TIP3    H136094   1.865   5.636   1.347 -0.1329  0.4345 -0.3645
 4845TIP3    H236095   1.974   5.707   1.424  2.1727 -2.2950 -0.9961
 4846TIP3   OH236096   5.545   4.902   1.593 -0.2620 -0.2426  0.7786
 4846TIP3    H136097   5.491   4.836   1.549 -0.8887  2.0277 -2.2103
 4846TIP3    H236098   5.482   4.964   1.628  0.3460  0.4015  0.7444
 4847TIP3   OH236099   5.633   0.313   2.943 -0.6451  0.0015  0.4725
 4847TIP3    H136100   5.644   0.218   2.954 -1.6621 -0.3733 -1.2656
 4847TIP3    H236101   5.685   0.352   3.013  1.3193 -1.8177  0.1218
 4848TIP3   OH236102   0.095   0.508   2.002  0.2761  0.1115  0.3065
 4848TIP3    H136103   0.022   0.516   2.063 -2.1952  2.3377 -2.5477
 4848TIP3    H236104   0.061   0.454   1.931  1.1537  1.6050 -1.3388
 4849TIP3   OH236105   0.582   1.452   3.264 -0.7297 -0.5967 -0.1415
 4849TIP3    H136106   0.548   1.542   3.269 -0.8706 -0.7202  2.3172
 4849TIP3    H236107   0.511   1.398   3.299  0.9881 -1.1161  2.8217
 4850TIP3   OH236108   2.419   4.547   1.221  0.2657 -0.3534  0.4034
 4850TIP3    H136109   2.380   4.635   1.218  0.3474 -0.3278 -0.0909
 4850TIP3    H236110   2.472   4.547   1.300 -1.8445 -0.8718  1.8940
 4851TIP3   OH236111   5.238   4.524   7.656  0.2523  0.1581 -0.0710
 4851TIP3    H136112   5.233   4.493   7.566  3.5117  2.1740 -1.1372
 4851TIP3    H236113   5.174   4.595   7.660  0.2910  0.2611 -0.9427
 4852TIP3   OH236114   5.091   4.589   0.531 -0.0379 -0.0054 -0.4591
 4852TIP3    H136115   5.139   4.651   0.474  2.0993 -1.4043 -0.2891
 4852TIP3    H236116   5.014   4.638   0.559  1.1561  2.3315 -0.9476
 4853TIP3   OH236117   2.325   3.958   0.899  0.0507 -0.6726  0.0024
 4853TIP3    H136118   2.293   4.043   0.928 -0.3101 -1.2652  1.4248
 4853TIP3    H236119   2.265   3.895   0.940  2.0880 -1.7539  1.5021
 4854TIP3   OH236120   0.139   3.387   2.695 -0.4264  0.5461 -0.0567
 4854TIP3    H136121   0.066   3.394   2.756 -0.3393  1.8656 -0.0717
 4854TIP3    H236122   0.138   3.470   2.647 -0.0165 -0.1488 -1.3098
 4855TIP3   OH236123   5.096   0.208   8.522 -0.6172 -0.2698 -0.4274
 4855TIP3    H136124   5.018   0.156   8.506 -0.3799 -1.3470  1.6104
 4855TIP3    H236125   5.112   0.254   8.440 -2.4150 -1.3117 -1.4058
 4856TIP3   OH236126   5.909   3.997   1.559  0.2116 -0.4663  0.1320
 4856TIP3    H136127   5.933   3.983   1.467 -0.0107 -1.9768  0.2825
 4856TIP3    H236128   5.819   4.028   1.556  0.8462  1.4612 -0.2368
 4857TIP3   OH236129   2.878   3.523   2.201  0.1414 -0.2979  0.3295
 4857TIP3    H136130   2.862   3.570   2.282 -1.2558  0.2166 -0.2089
 4857TIP3    H236131   2.879   3.431   2.226 -2.6134 -0.3342  0.6876
 4858TIP3   OH236132   6.104   4.144   0.803 -0.1689  0.7370 -0.6297
 4858TIP3    H136133   6.065   4.085   0.738 -0.9153  1.1703 -0.5892
 4858TIP3    H236134   6.171   4.091   0.846 -0.4608  0.0852 -0.9622
 4859TIP3   OH236135   0.143   6.643   7.631 -0.3154  0.2245  0.1414
 4859TIP3    H136136   0.093   6.567   7.659  0.8826 -0.4862  0.4183
 4859TIP3    H236137   0.120   6.654   7.539 -1.7867  0.5814  0.5250
 4860TIP3   OH236138   2.072   5.720   2.574  0.0989  0.6586  0.3117
 4860TIP3    H136139   2.072   5.752   2.664  1.6664 -2.9216  1.7875
 4860TIP3    H236140   2.003   5.654   2.571  1.4675 -0.8406 -0.3629
 4861TIP3   OH236141   4.352   5.308   0.290  0.4918 -0.4797 -0.1768
 4861TIP3    H136142   4.273   5.298   0.344  0.4948  0.4270  0.0197
 4861TIP3    H236143   4.400   5.380   0.332  0.3778  0.4151 -1.5366
 4862TIP3   OH236144   2.051   5.958   7.920 -0.1819  0.5128  0.0401
 4862TIP3    H136145   1.966   5.972   7.878 -0.8243  0.4299  1.2811
 4862TIP3    H236146   2.053   5.865   7.940  0.6469  0.3188 -0.8940
 4863TIP3   OH236147   1.924   5.454   7.888  0.0488 -0.4542 -0.1228
 4863TIP3    H136148   1.851   5.478   7.831  0.7624  0.2445 -0.7724
 4863TIP3    H236149   1.950   5.367   7.858  0.3000 -0.1704 -0.7560
 4864TIP3   OH236150   5.022   4.152   2.520 -0.0765 -0.2170 -0.2397
 4864TIP3    H136151   4.955   4.218   2.537 -0.1867 -0.5136  0.5238
 4864TIP3    H236152   4.974   4.079   2.482  0.3230  0.8589 -3.0104
 4865TIP3   OH236153   1.429   6.477   2.480 -0.2135 -0.5044 -0.1970
 4865TIP3    H136154   1.357   6.537   2.498  1.0871  0.6032  1.6606
 4865TIP3    H236155   1.416   6.404   2.541 -0.5120 -1.0012 -0.8400
 4866TIP3   OH236156   6.552   3.196   1.879  0.2298  0.4448 -0.3376
 4866TIP3    H136157   6.576   3.107   1.852 -0.3427  0.3052 -0.3866
 4866TIP3    H236158   6.476   3.185   1.935  1.8374  0.6562  2.0376
 4867TIP3   OH236159   5.441   6.831   2.414 -0.2427 -0.0637 -0.0782
 4867TIP3    H136160   5.383   6.904   2.392 -1.7254 -1.4429 -0.9599
 4867TIP3    H236161   5.418   6.810   2.505  0.1440  0.5117  0.1579
 4868TIP3   OH236162   1.317   0.852   2.013  0.6309 -0.4932  0.3260
 4868TIP3    H136163   1.277   0.805   1.940  0.9872  1.8227 -1.4925
 4868TIP3    H236164   1.311   0.945   1.988  0.2269  0.4724  3.5452
 4869TIP3   OH236165   2.026   0.143   2.180 -0.2259  0.1161 -0.5404
 4869TIP3    H136166   1.962   0.118   2.246  0.2047 -0.3334 -0.2852
 4869TIP3    H236167   2.099   0.083   2.194  0.0628  0.3275 -1.1198
 4870TIP3   OH236168   6.753   2.251   1.324 -0.3525 -0.0138 -0.4240
 4870TIP3    H136169   6.701   2.171   1.317  1.7719 -1.3579 -2.2250
 4870TIP3    H236170   6.762   2.282   1.234  0.4823  1.1592  0.0399
 4871TIP3   OH236171   6.559   4.202   2.018 -0.1218  0.1354 -0.0892
 4871TIP3    H136172   6.627   4.145   1.982  0.0532  1.3293 -1.7512
 4871TIP3    H236173   6.478   4.172   1.976 -0.0354  1.0139 -0.9414
 4872TIP3   OH236174   2.610   1.385   2.257 -0.2873 -0.1840 -0.9992
 4872TIP3    H136175   2.685   1.336   2.222 -0.1977 -0.3415 -0.5917
 4872TIP3    H236176   2.575   1.329   2.325  0.7142  0.9320  0.4958
 4873TIP3   OH236177   3.867   1.211   2.149  0.2259 -0.8296  0.2726
 4873TIP3    H136178   3.953   1.189   2.186  0.3264 -0.8275  0.0429
 4873TIP3    H236179   3.887   1.248   2.063 -0.0234 -1.0579  0.1157
 4874TIP3   OH236180   0.704   0.133   0.476  0.2230  0.3575 -0.0305
 4874TIP3    H136181   0.769   0.186   0.520 -2.1517  2.5327  1.1213
 4874TIP3    H236182   0.672   0.187   0.404 -0.6396 -0.4361 -0.2792
 4875TIP3   OH236183   4.294   3.766   2.027  0.0629  0.3908 -0.2416
 4875TIP3    H136184   4.224   3.743   1.966 -1.4808  1.7803  0.9086
 4875TIP3    H236185   4.264   3.733   2.111  0.3100  1.8067  0.4379
 4876TIP3   OH236186   5.510   2.511   0.652 -0.4050 -0.2616  0.2571
 4876TIP3    H136187   5.603   2.492   0.664  0.0637  0.6215 -1.5569
 4876TIP3    H236188   5.509   2.594   0.604 -2.1218 -0.4377 -0.0746
 4877TIP3   OH236189   6.722   6.658   3.079 -0.8117  0.6808 -0.4754
 4877TIP3    H136190   6.794   6.686   3.135 -1.5762 -0.8557  1.3767
 4877TIP3    H236191   6.661   6.613   3.138 -1.4662 -1.4179 -2.5773
 4878TIP3   OH236192   0.267   4.325   0.924 -0.0636  0.1288  0.2695
 4878TIP3    H136193   0.265   4.386   0.851  2.0141 -1.6085 -1.3754
 4878TIP3    H236194   0.175   4.304   0.941 -0.6422  1.4631 -1.0442
 4879TIP3   OH236195   6.322   0.045   2.622  0.5545  0.3412 -1.0889
 4879TIP3    H136196   6.277   0.098   2.687 -0.2840  0.4574 -1.7369
 4879TIP3    H236197   6.261   0.042   2.548  1.0658 -0.5967 -1.4895
 4880TIP3   OH236198   0.507   2.886   0.208  0.4536 -0.4160 -0.1263
 4880TIP3    H136199   0.584   2.943   0.215 -0.9679  1.4214  1.4623
 4880TIP3    H236200   0.453   2.927   0.141 -0.3933 -0.1123  0.7314
 4881TIP3   OH236201   0.662   5.456   8.155  0.3046 -0.2494 -0.3625
 4881TIP3    H136202   0.711   5.525   8.110 -0.8103  1.4906  0.9844
 4881TIP3    H236203   0.571   5.470   8.127 -0.0101 -0.8157  0.3698
 4882TIP3   OH236204   2.531   3.608   2.364  0.4702 -0.2579 -0.7925
 4882TIP3    H136205   2.439   3.629   2.344  0.6988  0.1744 -1.4183
 4882TIP3    H236206   2.575   3.692   2.367  0.6246 -0.3592  0.7746
 4883TIP3   OH236207   5.613   3.838   2.418  0.7915  0.5717  0.2982
 4883TIP3    H136208   5.684   3.894   2.449 -0.1961  1.0618  1.7701
 4883TIP3    H236209   5.544   3.847   2.484  0.4779 -2.1825  0.4912
 4884TIP3   OH236210   1.106   3.176   8.229  0.8315  0.5159  0.0640
 4884TIP3    H136211   1.121   3.082   8.220 -0.3452  0.4812 -2.0347
 4884TIP3    H236212   1.024   3.183   8.279 -0.3534  0.3179 -1.7670
 4885TIP3   OH236213   6.010   3.722   2.181  0.4440  0.0777  0.0958
 4885TIP3    H136214   6.036   3.747   2.269  0.4037  0.2262  0.0671
 4885TIP3    H236215   6.005   3.805   2.133 -1.6785  0.2423  0.5172
 4886TIP3   OH236216   2.517   3.319   2.381 -0.1025 -0.5345 -0.5022
 4886TIP3    H136217   2.525   3.415   2.387 -1.3118 -0.4885  1.3449
 4886TIP3    H236218   2.438   3.305   2.330 -0.5044 -0.5113  0.1049
 4887TIP3   OH236219   6.798   5.103   8.408 -0.4236  0.4305  0.8552
 4887TIP3    H136220   6.884   5.116   8.447  0.1946  0.8683 -0.5895
 4887TIP3    H236221   6.752   5.047   8.471  1.9346 -2.3840  0.3218
 4888TIP3   OH236222   6.792   1.309   1.615 -0.8385 -0.2188  0.2352
 4888TIP3    H136223   6.847   1.253   1.561  0.8680  0.8006  0.8236
 4888TIP3    H236224   6.704   1.296   1.582  0.0512 -0.0784 -2.4181
 4889TIP3   OH236225   3.361   0.963   7.802  0.1027  0.3487  0.0981
 4889TIP3    H136226   3.423   0.995   7.867  0.1016  1.5378 -0.4548
 4889TIP3    H236227   3.413   0.952   7.722 -0.0034 -0.5832  0.1453
 4890TIP3   OH236228   0.708   4.106   8.129 -0.0041 -0.2392 -0.0369
 4890TIP3    H136229   0.746   4.035   8.180  0.6590  0.6551  0.7322
 4890TIP3    H236230   0.774   4.175   8.129 -0.2336  0.0338 -1.5859
 4891TIP3   OH236231   4.030   0.148   1.939 -0.4053  0.0316  0.3243
 4891TIP3    H136232   3.980   0.085   1.991 -1.0136 -2.2639 -2.6794
 4891TIP3    H236233   3.976   0.163   1.862  1.9582  0.1748 -1.4392
 4892TIP3   OH236234   6.007   1.740   2.383  0.1893  0.8906  0.5203
 4892TIP3    H136235   5.981   1.713   2.294  0.1602  3.0106 -0.1658
 4892TIP3    H236236   6.096   1.774   2.372  0.7228 -0.1125  1.5947
 4893TIP3   OH236237   4.389   1.949   1.230  0.3147  0.9992 -0.1135
 4893TIP3    H136238   4.302   1.960   1.268  1.3215  1.0976  2.3186
 4893TIP3    H236239   4.402   1.854   1.228  1.0244  1.0151  1.7883
 4894TIP3   OH236240   3.826   4.039   2.138  0.0311 -0.0384  0.1680
 4894TIP3    H136241   3.900   4.007   2.189 -0.5615  0.4094  1.3313
 4894TIP3    H236242   3.785   3.960   2.103  0.9708 -0.2949 -0.3883
 4895TIP3   OH236243   0.121   2.180   2.324  0.6242 -0.0386 -0.1109
 4895TIP3    H136244   0.169   2.192   2.406 -1.4498  0.9090  1.0476
 4895TIP3    H236245   0.090   2.268   2.302 -0.1328 -0.5356 -1.0762
 4896TIP3   OH236246   0.442   5.361   2.460  0.0375 -0.3091  0.1843
 4896TIP3    H136247   0.532   5.352   2.429  1.6250  0.8764  3.8733
 4896TIP3    H236248   0.425   5.455   2.456 -0.0736 -0.2410  1.7411
 4897TIP3   OH236249   4.665   2.289   1.145  0.1193  0.2800  0.1988
 4897TIP3    H136250   4.697   2.199   1.150  1.8717  0.8566  0.1254
 4897TIP3    H236251   4.577   2.285   1.183  0.3470 -1.3693  0.6459
 4898TIP3   OH236252   5.011   4.997   0.305 -0.7328  0.5573 -0.3026
 4898TIP3    H136253   5.081   4.938   0.334 -2.1289 -0.8929  0.3040
 4898TIP3    H236254   4.965   5.020   0.386 -2.7491 -0.9533 -0.9490
 4899TIP3   OH236255   1.978   4.694   2.797 -0.0744 -0.0523  0.8932
 4899TIP3    H136256   1.972   4.743   2.715 -3.4028  0.1262  1.1137
 4899TIP3    H236257   1.984   4.603   2.770 -1.0628  0.0100  0.4273
 4900TIP3   OH236258   2.298   6.080   0.967 -0.0132  0.0591  0.0616
 4900TIP3    H136259   2.205   6.091   0.988 -0.4010 -1.0731 -0.9845
 4900TIP3    H236260   2.342   6.099   1.050 -1.2816 -0.9020  1.0296
 4901TIP3   OH236261   3.614   5.931   7.811  0.1589 -0.1003 -0.3862
 4901TIP3    H136262   3.530   5.966   7.841  0.6854  0.5547  0.3653
 4901TIP3    H236263   3.618   5.956   7.718 -0.7448 -0.6848 -0.5919
 4902TIP3   OH236264   3.706   4.355   2.376 -0.7277  0.3658 -0.0655
 4902TIP3    H136265   3.639   4.362   2.308  0.2358 -0.5574 -1.1546
 4902TIP3    H236266   3.705   4.440   2.419 -0.7833  1.3036 -1.8150
 4903TIP3   OH236267   5.399   4.305   0.230 -0.0740  0.1917 -0.8197
 4903TIP3    H136268   5.422   4.212   0.226  1.0232  0.4080 -0.0041
 4903TIP3    H236269   5.472   4.346   0.276 -1.7713  1.0576  1.2785
 4904TIP3   OH236270   3.770   4.171   8.118  0.0671  0.1820 -0.6925
 4904TIP3    H136271   3.852   4.140   8.080  1.0971  1.4253  0.4154
 4904TIP3    H236272   3.790   4.259   8.149 -1.2815 -0.0215  0.8770
 4905TIP3   OH236273   3.768   6.184   7.627  0.6041  0.0481  0.3665
 4905TIP3    H136274   3.837   6.171   7.692  0.8956 -0.5217 -0.0585
 4905TIP3    H236275   3.813   6.213   7.548  0.4362 -0.9187 -0.1024
 4906TIP3   OH236276   2.549   0.607   0.629 -0.2031  0.0446  0.6394
 4906TIP3    H136277   2.640   0.634   0.642 -0.0489 -1.0254  2.0197
 4906TIP3    H236278   2.507   0.624   0.713 -0.2278 -3.2705  1.4416
 4907TIP3   OH236279   2.025   1.192   7.766 -0.0891 -0.2615 -0.3988
 4907TIP3    H136280   2.026   1.208   7.860  0.9152 -2.5732  0.0465
 4907TIP3    H236281   2.103   1.237   7.733 -1.1685  1.6954 -0.3914
 4908TIP3   OH236282   0.111   5.774   1.283  0.0659 -0.5574  0.5825
 4908TIP3    H136283   0.026   5.747   1.318  0.3508  0.0279  1.7934
 4908TIP3    H236284   0.096   5.862   1.249  0.3829 -0.0743  1.6541
 4909TIP3   OH236285   3.095   0.810   2.233  0.2439  0.3104 -0.5116
 4909TIP3    H136286   3.058   0.724   2.214 -0.2016  0.6529 -1.2638
 4909TIP3    H236287   3.184   0.792   2.263 -0.0450 -0.4408 -0.0734
 4910TIP3   OH236288   3.141   0.911   2.505 -0.1408 -0.2235  0.2103
 4910TIP3    H136289   3.136   0.821   2.473  0.8337 -0.3617  0.4283
 4910TIP3    H236290   3.233   0.935   2.495  0.1031 -0.0868  2.4237
 4911TIP3   OH236291   6.192   6.173   3.271 -0.2141  0.1901 -0.4274
 4911TIP3    H136292   6.263   6.227   3.236 -0.6612  0.5529 -0.7825
 4911TIP3    H236293   6.112   6.223   3.253 -0.8480 -1.4230 -2.4621
 4912TIP3   OH236294   5.326   6.102   0.521 -0.0197 -0.0323  0.0424
 4912TIP3    H136295   5.346   6.093   0.428 -3.6944  1.0949 -1.0462
 4912TIP3    H236296   5.232   6.083   0.526  0.0951 -0.2738  3.6101
 4913TIP3   OH236297   1.042   4.816   1.826 -0.3624  0.2509 -1.0391
 4913TIP3    H136298   1.036   4.904   1.863 -0.9079 -0.4318  0.5944
 4913TIP3    H236299   0.974   4.814   1.758  0.7631  1.5759 -2.2805
 4914TIP3   OH236300   2.967   0.381   0.069 -0.1151  0.1985 -0.2700
 4914TIP3    H136301   2.965   0.465   0.116 -0.1771  0.0090  0.0683
 4914TIP3    H236302   3.009   0.402  -0.015  1.3577  0.2588  0.4390
 4915TIP3   OH236303   0.566   3.638   2.937  0.0576  0.3972  0.2604
 4915TIP3    H136304   0.537   3.661   3.025 -1.2020 -0.6186  0.1360
 4915TIP3    H236305   0.488   3.604   2.894  1.0867 -0.9256 -0.6377
 4916TIP3   OH236306   3.761   5.057   0.736  0.1983 -0.2761  0.0516
 4916TIP3    H136307   3.801   4.973   0.710 -0.3541 -1.4190  2.5916
 4916TIP3    H236308   3.684   5.064   0.679  0.8815 -0.8868 -0.9990
 4917TIP3   OH236309   6.796   1.248   2.703  0.0467 -0.6529 -0.2432
 4917TIP3    H136310   6.812   1.238   2.609  0.6282 -0.4600 -0.1689
 4917TIP3    H236311   6.870   1.204   2.745  1.8287  2.3972  0.0912
 4918TIP3   OH236312   4.435   3.666   2.480  0.4031 -0.3069 -0.4194
 4918TIP3    H136313   4.523   3.702   2.491 -1.0231  3.0933  1.7774
 4918TIP3    H236314   4.429   3.596   2.545  1.2625 -0.1139 -0.1214
 4919TIP3   OH236315   4.532   0.561   2.004 -0.0177 -0.5921 -0.7557
 4919TIP3    H136316   4.562   0.524   2.087 -1.6887  0.3658  0.3470
 4919TIP3    H236317   4.479   0.492   1.964 -0.6880 -0.4565 -0.1295
 4920TIP3   OH236318   2.148   6.470   0.676 -0.1104  0.1430 -0.3333
 4920TIP3    H136319   2.153   6.378   0.703  1.7644 -0.4735 -2.4228
 4920TIP3    H236320   2.163   6.520   0.756 -2.1325 -1.2926  1.0330
 4921TIP3   OH236321   5.162   1.197   2.562 -0.2857  0.3423  1.0662
 4921TIP3    H136322   5.092   1.154   2.513  1.6668 -0.2299 -1.4454
 4921TIP3    H236323   5.172   1.144   2.641  0.2143 -2.3044 -0.6507
 4922TIP3   OH236324   5.091   4.763   8.455 -0.0768  0.2290 -0.0679
 4922TIP3    H136325   5.080   4.853   8.425  0.6964  0.3351 -0.0329
 4922TIP3    H236326   5.095   4.769   8.550 -1.7156 -0.0304  0.0624
 4923TIP3   OH236327   3.995   2.838   2.302 -0.0861  0.1031  0.3543
 4923TIP3    H136328   3.955   2.767   2.252  2.2847 -2.5299  1.8928
 4923TIP3    H236329   3.952   2.835   2.387  0.6437 -0.1070  0.7212
 4924TIP3   OH236330   3.470   3.223   0.270  0.3760 -0.3883  0.1606
 4924TIP3    H136331   3.446   3.288   0.204  1.9436  0.5249  0.4325
 4924TIP3    H236332   3.387   3.184   0.297 -0.5074  0.8042 -0.7288
 4925TIP3   OH236333   2.068   5.688   1.582  0.2737 -0.3872  0.0573
 4925TIP3    H136334   2.130   5.717   1.649 -1.4680 -0.0214  1.5859
 4925TIP3    H236335   2.104   5.605   1.551  1.9710  0.2269  0.2283
 4926TIP3   OH236336   4.473   5.703   0.237  0.1156  0.1059 -0.2741
 4926TIP3    H136337   4.381   5.690   0.212  0.7719 -2.0218 -1.8394
 4926TIP3    H236338   4.482   5.655   0.319 -0.7763  2.7483  1.5133
 4927TIP3   OH236339   5.910   6.638   2.939  0.7360  0.4043  0.1626
 4927TIP3    H136340   5.889   6.710   2.880 -1.9093 -0.9999 -0.7886
 4927TIP3    H236341   5.829   6.621   2.987  0.9204 -2.5189 -0.3518
 4928TIP3   OH236342   0.658   0.444   7.586  0.0969 -1.1230  0.6051
 4928TIP3    H136343   0.638   0.517   7.644  1.0432 -0.3031 -0.0713
 4928TIP3    H236344   0.715   0.387   7.638  0.9177 -0.4057  0.5197
 4929TIP3   OH236345   1.580   4.959   8.287  0.1259  0.2284  0.1681
 4929TIP3    H136346   1.516   4.976   8.356 -0.2527  0.9560 -0.3505
 4929TIP3    H236347   1.664   4.984   8.326  0.0007  0.0419  0.5711
 4930TIP3   OH236348   3.379   2.763   0.666  0.1522 -0.2052 -0.4573
 4930TIP3    H136349   3.438   2.712   0.610 -0.4414 -0.3362 -0.9804
 4930TIP3    H236350   3.378   2.716   0.749 -1.4545 -1.8755 -1.3598
 4931TIP3   OH236351   0.099   6.799   1.195 -0.0767 -0.2953 -0.0209
 4931TIP3    H136352   0.195   6.809   1.200  0.2118 -1.6542 -1.9909
 4931TIP3    H236353   0.077   6.746   1.272  0.7829 -0.1432  0.3412
 4932TIP3   OH236354   4.262   0.105   0.534 -0.6882  0.4723 -0.0794
 4932TIP3    H136355   4.229   0.151   0.612 -0.2551  0.3843  0.1607
 4932TIP3    H236356   4.309   0.030   0.569 -0.1582  0.6464 -0.4107
 4933TIP3   OH236357   4.154   4.418   0.301  0.4168  0.5659  0.0393
 4933TIP3    H136358   4.202   4.382   0.376  0.5421 -2.1744 -1.2412
 4933TIP3    H236359   4.215   4.410   0.227 -0.7820  0.2441 -0.9424
 4934TIP3   OH236360   3.274   4.422   2.225 -0.1470  0.4521 -0.3131
 4934TIP3    H136361   3.239   4.371   2.152 -2.3704  0.9015  0.3727
 4934TIP3    H236362   3.251   4.513   2.205 -0.0102  0.6783  0.5207
 4935TIP3   OH236363   1.745   2.490   1.214 -0.5497  0.3857  0.3496
 4935TIP3    H136364   1.829   2.494   1.168 -0.4005 -0.5622  0.5255
 4935TIP3    H236365   1.681   2.473   1.144 -0.0794 -3.3293  0.6217
 4936TIP3   OH236366   2.146   1.966   0.272 -0.5986 -0.6301 -0.6320
 4936TIP3    H136367   2.180   1.972   0.361  0.2312 -0.7212 -0.9301
 4936TIP3    H236368   2.074   2.028   0.269  1.3652  1.8017 -0.7874
 4937TIP3   OH236369   5.239   2.547   2.163 -0.2445 -0.1127 -0.3178
 4937TIP3    H136370   5.258   2.465   2.209  2.0168  1.1925  1.2093
 4937TIP3    H236371   5.182   2.595   2.222  0.0705  0.2588 -0.3168
 4938TIP3   OH236372   2.596   5.494   8.340 -0.0891  0.6810 -0.3056
 4938TIP3    H136373   2.552   5.458   8.417  2.1649  2.8613  2.1802
 4938TIP3    H236374   2.666   5.432   8.322 -0.2318  0.4921 -0.2241
 4939TIP3   OH236375   5.542   4.856   2.079 -0.3277  0.3594 -0.5348
 4939TIP3    H136376   5.584   4.899   2.154  0.8444 -3.5065  1.2525
 4939TIP3    H236377   5.614   4.840   2.018 -0.3192 -0.7753 -0.2524
 4940TIP3   OH236378   0.799   5.940   7.980  0.4258 -0.6457  0.3946
 4940TIP3    H136379   0.745   5.967   8.054  0.1113 -1.8319  0.6228
 4940TIP3    H236380   0.847   6.019   7.954 -0.9065  0.2585  0.6169
 4941TIP3   OH236381   1.800   0.544   0.790  0.5023 -0.6332  0.5175
 4941TIP3    H136382   1.746   0.570   0.864  0.7437  0.9023  0.1744
 4941TIP3    H236383   1.755   0.468   0.753 -0.7398 -0.1481  0.9844
 4942TIP3   OH236384   0.315   2.393   7.412 -0.0915  0.6640 -0.1209
 4942TIP3    H136385   0.342   2.448   7.338 -0.4601  0.5928 -0.3072
 4942TIP3    H236386   0.262   2.324   7.373 -0.0794  0.4830  0.1808
 4943TIP3   OH236387   5.132   1.580   8.484 -0.3056 -0.0573 -0.0551
 4943TIP3    H136388   5.192   1.507   8.473 -0.2948 -0.4223  2.1194
 4943TIP3    H236389   5.186   1.659   8.472 -0.0907 -0.3659 -1.2624
 4944TIP3   OH236390   2.260   5.081   7.669 -0.0662  0.1726 -0.3417
 4944TIP3    H136391   2.348   5.111   7.649 -0.4462  0.5734 -1.4821
 4944TIP3    H236392   2.250   4.998   7.623 -0.3046  0.1555 -0.2659
 4945TIP3   OH236393   6.857   5.213   1.849  0.1540  0.0663 -0.3661
 4945TIP3    H136394   6.786   5.205   1.912 -0.1222  1.3022 -0.4972
 4945TIP3    H236395   6.897   5.126   1.848 -0.4490 -0.2532  0.7641
 4946TIP3   OH236396   1.098   0.116   0.056  0.4843  0.1469 -0.2552
 4946TIP3    H136397   1.143   0.147   0.134 -0.9764 -0.2190  0.7549
 4946TIP3    H236398   1.158   0.051   0.018  2.2305  1.9598 -0.7577
 4947TIP3   OH236399   0.561   2.229   2.317  0.7110  0.0177 -0.3962
 4947TIP3    H136400   0.512   2.235   2.400  0.2567  2.8763 -0.7825
 4947TIP3    H236401   0.493   2.230   2.250  1.1697 -0.3077 -0.8716
 4948TIP3   OH236402   1.778   6.714   0.628  0.2026  0.1841 -0.4001
 4948TIP3    H136403   1.867   6.708   0.662 -0.6957 -0.5346  2.0729
 4948TIP3    H236404   1.786   6.769   0.551  2.6282  1.0871  0.3788
 4949TIP3   OH236405   1.775   5.150   8.067 -0.1756 -0.1650 -0.5872
 4949TIP3    H136406   1.699   5.208   8.071 -1.2671 -1.5876  0.7802
 4949TIP3    H236407   1.785   5.130   7.974 -1.0358  0.6151 -0.8623
 4950TIP3   OH236408   3.829   1.718   7.465  0.2981  0.4913  0.2454
 4950TIP3    H136409   3.879   1.731   7.384  1.5615 -0.8231  0.7762
 4950TIP3    H236410   3.770   1.645   7.445 -1.6267  2.1487 -0.4371
 4951TIP3   OH236411   2.810   4.840   2.852  0.0098 -0.1549  0.0389
 4951TIP3    H136412   2.741   4.905   2.845 -0.3626 -0.6011 -0.4455
 4951TIP3    H236413   2.790   4.792   2.932 -0.5642 -0.6455 -0.3886
 4952TIP3   OH236414   4.296   4.938   7.587  0.2810 -0.1804  0.6470
 4952TIP3    H136415   4.240   4.999   7.538  0.3761  0.4745  1.3264
 4952TIP3    H236416   4.270   4.951   7.678  0.7679 -0.6824  0.8595
 4953TIP3   OH236417   5.708   3.493   1.133  0.5077  0.0005  0.1096
 4953TIP3    H136418   5.802   3.502   1.119  0.7379 -1.2789  0.6469
 4953TIP3    H236419   5.674   3.467   1.048  0.8550 -0.8521  0.2186
 4954TIP3   OH236420   1.251   2.958   2.470 -0.1067 -0.4659  0.7149
 4954TIP3    H136421   1.157   2.942   2.478 -0.3656  0.4026 -0.3062
 4954TIP3    H236422   1.261   3.049   2.499  0.1189  0.0534 -0.9140
 4955TIP3   OH236423   3.310   1.900   1.477  0.2159  0.0278 -0.1845
 4955TIP3    H136424   3.275   1.981   1.439  0.1536  0.0755 -0.0242
 4955TIP3    H236425   3.262   1.830   1.432 -0.2965  0.0978  0.2380
 4956TIP3   OH236426   3.309   0.219   1.277 -0.2526 -0.3696  0.6318
 4956TIP3    H136427   3.359   0.300   1.275 -1.1151  0.2464 -2.6406
 4956TIP3    H236428   3.356   0.161   1.217 -1.7663 -0.8592 -0.1310
 4957TIP3   OH236429   0.921   3.037   3.266  0.5431  0.9100  0.1454
 4957TIP3    H136430   0.887   3.053   3.178  0.2087 -0.0428  0.0979
 4957TIP3    H236431   0.961   3.121   3.291 -0.3785  1.5527 -0.4433
 4958TIP3   OH236432   0.936   3.932   1.495 -0.5656 -0.0662 -0.4112
 4958TIP3    H136433   0.881   3.857   1.473 -0.3481  0.1760 -1.8843
 4958TIP3    H236434   1.022   3.894   1.514  0.2856 -0.0822 -3.7529
 4959TIP3   OH236435   3.545   6.355   0.558 -0.0109  0.0970 -0.2754
 4959TIP3    H136436   3.462   6.308   0.565  0.7718 -1.1176  1.8544
 4959TIP3    H236437   3.596   6.303   0.496  0.2732 -1.0351  0.8607
 4960TIP3   OH236438   4.705   0.067   1.762 -0.1757  0.0718 -0.5146
 4960TIP3    H136439   4.694   0.143   1.819  2.5963  1.7106 -1.9711
 4960TIP3    H236440   4.750   0.002   1.816 -1.0914  0.0488  0.2501
 4961TIP3   OH236441   0.564   2.037   1.617 -0.3756  0.0556  0.4904
 4961TIP3    H136442   0.591   1.945   1.615  0.6367  0.3474 -0.4919
 4961TIP3    H236443   0.582   2.066   1.706  1.0981 -0.2149  0.3064
 4962TIP3   OH236444   2.470   4.099   0.137 -0.0119 -0.2043 -0.1811
 4962TIP3    H136445   2.545   4.129   0.086  0.2367 -2.6009 -1.3812
 4962TIP3    H236446   2.508   4.045   0.206 -0.5599 -0.9939 -0.4762
 4963TIP3   OH236447   4.230   0.798   2.416  0.2752 -0.1170 -0.3845
 4963TIP3    H136448   4.292   0.836   2.353 -1.0307  2.2113 -0.3794
 4963TIP3    H236449   4.148   0.791   2.368 -0.1552 -0.5576  0.3897
 4964TIP3   OH236450   6.226   4.563   8.554 -0.4540  0.2317  0.6227
 4964TIP3    H136451   6.186   4.500   8.615 -0.0559  0.5159  1.1807
 4964TIP3    H236452   6.161   4.633   8.546 -0.7653 -0.0912  0.2408
 4965TIP3   OH236453   3.179   1.860   7.613  0.1253  0.3631  0.1974
 4965TIP3    H136454   3.100   1.876   7.562 -0.0392 -0.4447  0.1784
 4965TIP3    H236455   3.158   1.782   7.665  1.3773 -0.7073 -0.8330
 4966TIP3   OH236456   2.020   1.717   2.348 -0.3533 -0.5187 -0.2059
 4966TIP3    H136457   2.071   1.637   2.334 -1.2436 -1.0081 -0.7284
 4966TIP3    H236458   2.063   1.782   2.293  0.7969 -0.4345  0.7430
 4967TIP3   OH236459   0.916   3.671   7.661  0.1851  0.8911  0.0679
 4967TIP3    H136460   0.985   3.700   7.601  1.2887 -0.1769  0.7801
 4967TIP3    H236461   0.858   3.617   7.607 -0.6582  2.5385 -0.7514
 4968TIP3   OH236462   5.301   1.557   8.184  0.2795  0.3234  0.2978
 4968TIP3    H136463   5.314   1.508   8.266  1.3891  0.3749  0.1657
 4968TIP3    H236464   5.305   1.490   8.116  0.1291  0.3811  0.2332
 4969TIP3   OH236465   4.847   4.256   2.296  0.2594 -0.3763 -0.7173
 4969TIP3    H136466   4.937   4.255   2.330  1.2751  0.1885 -3.1260
 4969TIP3    H236467   4.819   4.347   2.307  0.4375 -0.2862 -0.9810
 4970TIP3   OH236468   1.699   1.825   1.111  0.6141 -0.3402  0.3200
 4970TIP3    H136469   1.794   1.824   1.122  0.5880 -0.6007  0.5121
 4970TIP3    H236470   1.685   1.794   1.021  0.7992  1.3380 -0.3253
 4971TIP3   OH236471   2.095   1.361   1.195  0.0725 -0.1125  0.1098
 4971TIP3    H136472   2.007   1.333   1.222 -0.5713  1.2955 -0.4429
 4971TIP3    H236473   2.134   1.398   1.274 -0.5886  1.0578 -0.0981
 4972TIP3   OH236474   2.015   1.431   2.089  0.1544  0.1986  0.6507
 4972TIP3    H136475   2.013   1.351   2.141  2.1004 -0.3270  0.0089
 4972TIP3    H236476   1.937   1.480   2.116 -0.0681 -1.0518  2.3988
 4973TIP3   OH236477   1.290   0.798   2.317  0.2962 -0.1023  0.7504
 4973TIP3    H136478   1.251   0.712   2.329 -3.2615  1.4504  1.6479
 4973TIP3    H236479   1.260   0.826   2.231 -0.6087  1.1091  1.4237
 4974TIP3   OH236480   4.872   4.887   8.276 -0.2774 -0.7221  0.6519
 4974TIP3    H136481   4.827   4.824   8.220  0.0094 -2.0894  1.8822
 4974TIP3    H236482   4.912   4.949   8.216 -1.8247 -0.8420 -0.5602
 4975TIP3   OH236483   3.817   0.702   2.491  0.4633 -0.1303  0.1577
 4975TIP3    H136484   3.754   0.774   2.482 -0.4362 -0.9391 -0.1197
 4975TIP3    H236485   3.902   0.744   2.481  0.1044  1.3162  2.3436
 4976TIP3   OH236486   5.935   2.963   1.779  0.1941 -0.3864  0.1984
 4976TIP3    H136487   5.951   2.932   1.690 -0.9232 -0.9182  0.1725
 4976TIP3    H236488   6.008   2.927   1.830  0.0135 -1.3683 -0.2189
 4977TIP3   OH236489   2.950   3.405   2.907  0.3051  0.1328  0.0561
 4977TIP3    H136490   2.947   3.451   2.990  0.2826  1.7468 -0.8039
 4977TIP3    H236491   2.871   3.434   2.860  0.0427 -1.1468 -0.3408
 4978TIP3   OH236492   5.982   6.819   2.260  0.3675 -0.1015  0.4848
 4978TIP3    H136493   6.003   6.902   2.219 -1.6478  0.3691  0.3186
 4978TIP3    H236494   5.896   6.795   2.225  0.2523 -1.5344  1.6225
 4979TIP3   OH236495   0.419   4.395   1.595  0.1139  0.3282 -0.6289
 4979TIP3    H136496   0.398   4.440   1.677  0.8195  0.6229 -0.6075
 4979TIP3    H236497   0.349   4.331   1.585  0.1747  0.0875  0.3633
 4980TIP3   OH236498   0.037   6.656   1.418  0.1016  0.1062  0.0808
 4980TIP3    H136499   0.006   6.708   1.491  0.0488 -0.5333  0.5215
 4980TIP3    H236500   0.104   6.599   1.456  0.1005 -0.2054 -0.3734
 4981TIP3   OH236501   2.113   4.999   2.076  0.0602  0.1195  0.4824
 4981TIP3    H136502   2.048   5.039   2.134 -0.8997  1.7608 -1.6077
 4981TIP3    H236503   2.191   5.054   2.085 -0.4729  1.0867 -0.6026
 4982TIP3   OH236504   2.313   2.281   8.460 -0.4619  0.2684 -0.7230
 4982TIP3    H136505   2.303   2.214   8.527 -1.5542  0.3204 -0.8126
 4982TIP3    H236506   2.395   2.259   8.416 -0.2080 -0.3065  0.0212
 4983TIP3   OH236507   5.494   6.647   0.170  0.6331 -0.0357 -0.3819
 4983TIP3    H136508   5.519   6.732   0.206  0.5828  0.1743 -0.8377
 4983TIP3    H236509   5.573   6.614   0.128  0.5828 -0.0977 -0.4297
 4984TIP3   OH236510   1.072   1.673   7.666  0.0777 -0.0384  0.5240
 4984TIP3    H136511   1.124   1.753   7.668 -0.1709  0.1892 -0.9046
 4984TIP3    H236512   0.982   1.703   7.659 -0.0337 -0.4322  0.2149
 4985TIP3   OH236513   5.183   0.759   1.131 -0.3125 -0.8432 -0.3490
 4985TIP3    H136514   5.204   0.740   1.223 -0.1536  1.2152  0.0739
 4985TIP3    H236515   5.115   0.827   1.135  0.1323 -0.2829 -1.7518
 4986TIP3   OH236516   1.251   4.742   1.992 -0.2426  0.1817  0.2346
 4986TIP3    H136517   1.209   4.664   2.029 -0.0365 -1.1829 -2.2096
 4986TIP3    H236518   1.182   4.786   1.943  0.1765  0.2388 -0.3177
 4987TIP3   OH236519   6.680   6.484   2.311 -0.0352 -0.2955 -0.2162
 4987TIP3    H136520   6.640   6.498   2.226  0.3887  2.1574 -0.0959
 4987TIP3    H236521   6.751   6.549   2.315  0.8661 -1.3045  1.4432
 4988TIP3   OH236522   2.879   3.378   1.183 -0.1880  0.8242  0.5740
 4988TIP3    H136523   2.822   3.310   1.146  0.3375  0.6827 -0.0013
 4988TIP3    H236524   2.954   3.330   1.218  0.4528  1.1332 -0.3348
 4989TIP3   OH236525   3.589   1.938   0.448  0.1155  0.4188  0.3844
 4989TIP3    H136526   3.599   1.903   0.537  1.5124 -1.1231 -0.3272
 4989TIP3    H236527   3.626   1.870   0.392  0.8725  2.1160 -1.2667
 4990TIP3   OH236528   4.992   4.883   0.779 -0.1335  0.0852  0.3829
 4990TIP3    H136529   4.947   4.798   0.783  0.8632 -0.5080 -0.5464
 4990TIP3    H236530   4.953   4.933   0.851 -1.3441 -0.8532  0.4286
 4991TIP3   OH236531   3.697   2.034   1.808 -0.0258 -0.1583 -0.4838
 4991TIP3    H136532   3.780   2.004   1.771  0.6176  1.9601 -0.9056
 4991TIP3    H236533   3.633   1.969   1.779  1.1255 -0.6615 -2.0452
 4992TIP3   OH236534   2.412   2.529   1.487  0.4149  1.2781 -0.6392
 4992TIP3    H136535   2.464   2.449   1.499  0.7703  1.8121  1.9283
 4992TIP3    H236536   2.333   2.515   1.538 -0.0674  2.1183 -1.1261
 4993TIP3   OH236537   6.357   0.934   7.566  0.5245  0.3373  0.8130
 4993TIP3    H136538   6.351   0.847   7.605 -0.7223  1.2738  2.9192
 4993TIP3    H236539   6.267   0.966   7.564  0.7342  0.9944 -1.4970
 4994TIP3   OH236540   6.678   3.118   1.239 -0.1503 -0.6419 -0.0848
 4994TIP3    H136541   6.728   3.170   1.175  0.6940  0.5305  1.4594
 4994TIP3    H236542   6.626   3.183   1.286 -1.1537 -1.5587  0.0868
 4995TIP3   OH236543   2.432   1.010   2.718 -0.7447  0.0963 -0.6523
 4995TIP3    H136544   2.375   0.998   2.642 -1.3716  0.1704 -0.2042
 4995TIP3    H236545   2.394   0.953   2.786 -2.8778  3.1709  1.0261
 4996TIP3   OH236546   3.982   3.236   1.106  0.0611 -0.9641  0.0682
 4996TIP3    H136547   3.903   3.285   1.128  1.1284  1.0965 -0.4154
 4996TIP3    H236548   4.037   3.242   1.184  0.2686 -1.2698 -0.0506
 4997TIP3   OH236549   0.834   4.265   8.386 -0.4091  0.7728  0.3828
 4997TIP3    H136550   0.875   4.202   8.446 -0.1502  0.3932 -0.1747
 4997TIP3    H236551   0.904   4.326   8.363  0.0984 -0.2962 -1.1350
 4998TIP3   OH236552   4.623   5.327   0.194  0.5873 -0.7030 -0.5094
 4998TIP3    H136553   4.529   5.308   0.188 -0.2211  1.4088  2.8992
 4998TIP3    H236554   4.644   5.312   0.286  3.2266  0.5063 -0.8435
 4999TIP3   OH236555   6.294   2.676   7.898  0.7919 -0.0605  0.4535
 4999TIP3    H136556   6.373   2.668   7.845  1.5071 -0.1367  1.4928
 4999TIP3    H236557   6.319   2.732   7.971 -0.9001  2.2076 -0.5927
 5000TIP3   OH236558   0.840   6.006   2.161 -0.6058  0.4301 -0.1958
 5000TIP3    H136559   0.927   5.972   2.140 -0.7327  0.0786 -0.1549
 5000TIP3    H236560   0.856   6.095   2.192 -0.3974  0.8846 -1.5733
 5001TIP3   OH236561   4.223   1.297   3.152 -0.4208 -0.1959  0.7569
 5001TIP3    H136562   4.315   1.271   3.145 -0.8454 -1.3416 -1.9464
 5001TIP3    H236563   4.208   1.306   3.246  2.3176 -0.3968  1.3120
 5002TIP3   OH236564   3.216   4.765   1.555  0.0580  0.4373  0.4218
 5002TIP3    H136565   3.194   4.857   1.568 -0.0893  0.8285 -2.1962
 5002TIP3    H236566   3.146   4.718   1.601 -1.1539  1.6413 -0.1285
 5003TIP3   OH236567   1.091   5.406   1.215  0.1082 -0.6380 -0.5129
 5003TIP3    H136568   1.114   5.394   1.307 -2.7859  1.9160  0.7375
 5003TIP3    H236569   1.175   5.403   1.168  1.7679 -1.2227  2.2759
 5004TIP3   OH236570   1.862   1.995   2.310  0.5482 -0.9164  0.1688
 5004TIP3    H136571   1.935   2.055   2.323  1.0819 -1.4654 -0.2798
 5004TIP3    H236572   1.833   1.974   2.399  1.5375 -1.4191  0.3914
 5005TIP3   OH236573   5.942   1.634   1.636 -0.4407  0.7971 -0.0869
 5005TIP3    H136574   5.899   1.658   1.718 -0.7874  1.4332 -0.4453
 5005TIP3    H236575   5.989   1.553   1.656 -0.0807  1.2263  0.8902
 5006TIP3   OH236576   2.921   6.174   1.042 -0.2063 -0.0637  0.3373
 5006TIP3    H136577   2.863   6.100   1.063  1.7923 -2.9403 -3.0475
 5006TIP3    H236578   2.876   6.220   0.972  0.4758 -0.9507 -0.7297
 5007TIP3   OH236579   1.080   0.584   1.549 -0.4235  0.1877  0.3968
 5007TIP3    H136580   1.051   0.593   1.640 -0.8408  1.7715  0.1213
 5007TIP3    H236581   1.142   0.655   1.536  2.3482 -2.0351  0.4166
 5008TIP3   OH236582   2.586   3.000   1.614  0.4011  0.0959 -0.1118
 5008TIP3    H136583   2.560   2.966   1.699  0.4758  1.7710  0.6174
 5008TIP3    H236584   2.531   2.952   1.551 -2.4648  1.4727  1.1529
 5009TIP3   OH236585   2.266   4.179   0.453 -0.2493 -0.2743 -0.2065
 5009TIP3    H136586   2.332   4.231   0.500 -2.2870  2.0853  0.2714
 5009TIP3    H236587   2.195   4.168   0.517 -0.1503 -3.3684 -0.4646
 5010TIP3   OH236588   0.396   5.482   8.055 -0.1137 -0.6783 -0.1443
 5010TIP3    H136589   0.394   5.547   7.984  0.2432  0.2097  0.6389
 5010TIP3    H236590   0.306   5.452   8.062 -0.1002 -0.9838 -1.1600
 5011TIP3   OH236591   2.365   1.719   8.256 -0.2083 -0.5737  0.4918
 5011TIP3    H136592   2.443   1.729   8.309  0.7054 -0.6237 -0.7929
 5011TIP3    H236593   2.394   1.737   8.167 -1.2847 -2.1783 -0.2402
 5012TIP3   OH236594   6.348   4.480   2.148 -0.1941  0.2137 -0.5387
 5012TIP3    H136595   6.397   4.400   2.133 -1.6249 -0.6213 -0.9081
 5012TIP3    H236596   6.290   4.488   2.072 -1.7790  0.2935  0.6229
 5013TIP3   OH236597   2.605   6.063   2.174 -0.2786  0.5410 -0.1800
 5013TIP3    H136598   2.689   6.016   2.179  0.4898  1.7574 -1.0001
 5013TIP3    H236599   2.571   6.059   2.264  0.4737 -0.2999  0.0896
 5014TIP3   OH236600   6.291   3.798   2.218  0.3860  0.1492 -0.2598
 5014TIP3    H136601   6.293   3.730   2.150  2.0286  0.8591 -1.0008
 5014TIP3    H236602   6.241   3.870   2.178 -0.7921 -0.3638  0.2710
 5015TIP3   OH236603   0.376   6.859   2.226 -0.5735  0.1520  0.4639
 5015TIP3    H136604   0.315   6.838   2.296 -1.3137  0.7035  0.0087
 5015TIP3    H236605   0.338   6.937   2.184 -0.0416 -0.0479 -0.4104
 5016TIP3   OH236606   0.777   0.666   3.672  0.2981 -1.0305 -0.0984
 5016TIP3    H136607   0.833   0.707   3.606  1.4338 -0.9410  0.9060
 5016TIP3    H236608   0.820   0.585   3.695 -0.3620 -1.3158  0.1720
 5017TIP3   OH236609   5.090   6.731   2.620  0.0683 -0.3908  0.5471
 5017TIP3    H136610   5.030   6.660   2.643 -2.4960  1.6035  0.4815
 5017TIP3    H236611   5.168   6.687   2.586 -2.7689 -3.2181 -3.0305
 5018TIP3   OH236612   5.756   1.879   2.724  0.0946  0.6097  0.8788
 5018TIP3    H136613   5.785   1.794   2.691 -0.9012  0.6414 -0.1209
 5018TIP3    H236614   5.779   1.878   2.817  0.5931 -0.5288  0.7523
 5019TIP3   OH236615   1.781   3.008   2.816 -0.5416  0.8011  0.2302
 5019TIP3    H136616   1.773   2.950   2.891 -0.1893  2.0478  1.2780
 5019TIP3    H236617   1.847   2.968   2.760 -2.0695 -1.0659 -0.3313
 5020TIP3   OH236618   5.387   4.415   1.647 -0.0330 -0.3095 -0.1606
 5020TIP3    H136619   5.332   4.485   1.681  1.3647  1.1368 -0.7481
 5020TIP3    H236620   5.332   4.337   1.651 -1.6664  0.8204  0.4459
 5021TIP3   OH236621   0.227   1.300   3.057 -0.2717 -0.4155 -0.1473
 5021TIP3    H136622   0.156   1.247   3.021  1.2297 -1.0887 -2.3001
 5021TIP3    H236623   0.257   1.251   3.133 -0.1324 -1.7395 -1.0237
 5022TIP3   OH236624   6.518   3.157   0.059 -0.4042 -0.0537  0.2913
 5022TIP3    H136625   6.459   3.138  -0.013  0.8249 -1.4732 -0.3846
 5022TIP3    H236626   6.460   3.177   0.133 -1.7255 -0.9818 -0.4552
 5023TIP3   OH236627   2.903   4.993   1.708 -0.8592 -0.0810 -0.2754
 5023TIP3    H136628   2.918   4.956   1.621 -0.7300 -1.0164  0.1385
 5023TIP3    H236629   2.897   4.918   1.766 -1.6420  0.5076  0.4337
 5024TIP3   OH236630   5.979   5.726   3.795 -0.0837 -0.5186 -0.5164
 5024TIP3    H136631   5.884   5.726   3.790 -0.1110 -1.4693 -0.1852
 5024TIP3    H236632   6.004   5.633   3.789  0.7386 -0.3997  0.7106
 5025TIP3   OH236633   6.553   5.197   3.426 -0.3593  0.3415  0.0687
 5025TIP3    H136634   6.526   5.123   3.372 -1.0224  0.8894 -0.3867
 5025TIP3    H236635   6.648   5.190   3.433 -0.4470 -0.7076  0.2833
 5026TIP3   OH236636   0.805   1.371   1.280 -0.1830  0.2319 -0.4879
 5026TIP3    H136637   0.802   1.300   1.345  0.5819  0.7050  0.0745
 5026TIP3    H236638   0.862   1.437   1.319 -0.2104  0.7956 -1.3809
 5027TIP3   OH236639   1.889   5.577   0.745  0.2666 -0.5494  0.1834
 5027TIP3    H136640   1.933   5.658   0.718  2.1236 -0.5494  2.8301
 5027TIP3    H236641   1.809   5.575   0.693  1.0933  1.9649 -1.3806
 5028TIP3   OH236642   6.862   4.173   0.627 -0.0434  0.2069  0.2395
 5028TIP3    H136643   6.865   4.187   0.722  0.7483  2.7355 -0.0752
 5028TIP3    H236644   6.953   4.187   0.599 -0.6042  1.3704 -1.0819
 5029TIP3   OH236645   6.570   3.080   8.251  0.5301 -0.4026  0.3162
 5029TIP3    H136646   6.617   3.155   8.289  1.6807 -1.3189  0.7622
 5029TIP3    H236647   6.502   3.061   8.315  0.5215 -0.0285  0.4253
 5030TIP3   OH236648   5.573   4.845   0.311  0.4787 -0.3360 -0.0890
 5030TIP3    H136649   5.593   4.919   0.255  0.1699  0.8695  1.3415
 5030TIP3    H236650   5.599   4.873   0.399 -1.6420 -1.0551  0.8393
 5031TIP3   OH236651   1.453   3.700   0.061  0.8772  0.7285  0.6997
 5031TIP3    H136652   1.451   3.769  -0.006 -0.6880  0.5914  0.5773
 5031TIP3    H236653   1.537   3.713   0.105  0.4097  3.0613  1.0443
 5032TIP3   OH236654   6.569   2.020   0.461  0.3744  0.7952 -0.4375
 5032TIP3    H136655   6.518   2.070   0.524  0.5908 -0.9557  1.2171
 5032TIP3    H236656   6.504   1.972   0.410  0.2595  0.9304 -0.4181
 5033TIP3   OH236657   5.010   4.789   2.299 -0.3650 -0.1223  0.0770
 5033TIP3    H136658   5.009   4.795   2.203  1.7460 -1.1453 -0.0841
 5033TIP3    H236659   5.023   4.879   2.329  0.5405  0.0227 -0.6958
 5034TIP3   OH236660   3.658   3.524   0.237  0.4227  0.5070  0.1488
 5034TIP3    H136661   3.582   3.576   0.263 -0.5341 -0.3057 -0.9097
 5034TIP3    H236662   3.724   3.588   0.214 -0.5771  1.2647 -0.6870
 5035TIP3   OH236663   6.643   3.607   2.078 -0.1682 -0.2407  0.3260
 5035TIP3    H136664   6.727   3.564   2.091  0.5402  1.0951  0.3371
 5035TIP3    H236665   6.665   3.699   2.065 -1.5488 -0.0229 -0.7271
 5036TIP3   OH236666   4.011   0.522   2.352  0.3240 -0.1268  0.3295
 5036TIP3    H136667   3.929   0.492   2.313  2.2400 -0.3037 -4.1882
 5036TIP3    H236668   4.014   0.616   2.334  1.7041 -0.3882 -1.0440
 5037TIP3   OH236669   4.007   1.775   1.517  0.0485  0.4141  0.4028
 5037TIP3    H136670   3.970   1.862   1.524  1.2589  1.0710 -0.9505
 5037TIP3    H236671   4.056   1.763   1.599 -1.3545  0.3672  1.2611
 5038TIP3   OH236672   1.903   4.888   1.027  0.2763 -0.2398 -0.0746
 5038TIP3    H136673   1.819   4.888   1.072  0.2710 -1.2619 -0.0768
 5038TIP3    H236674   1.904   4.971   0.979  0.0319  0.6089  1.3260
 5039TIP3   OH236675   1.300   1.467   1.021 -0.7167 -0.3543  0.2902
 5039TIP3    H136676   1.332   1.404   0.956 -1.6398  0.0864 -0.6210
 5039TIP3    H236677   1.268   1.541   0.970 -0.7452  0.3491  1.2931
 5040TIP3   OH236678   3.187   4.826   1.281  0.2801 -0.0366  0.2499
 5040TIP3    H136679   3.199   4.762   1.352 -0.2448 -1.1152 -0.5970
 5040TIP3    H236680   3.269   4.823   1.232 -0.2371 -1.1077 -0.5889
 5041TIP3   OH236681   2.805   2.656   3.717 -0.0621 -0.4798 -0.3363
 5041TIP3    H136682   2.835   2.738   3.756 -0.4287  1.1140 -3.0825
 5041TIP3    H236683   2.881   2.598   3.721  1.2098  1.0654 -0.9998
 5042TIP3   OH236684   5.069   2.462   0.899  0.2985 -0.0500 -0.3569
 5042TIP3    H136685   5.053   2.512   0.979 -1.4976  0.5200 -1.0261
 5042TIP3    H236686   5.162   2.474   0.881  0.7588 -0.2802  1.6893
 5043TIP3   OH236687   1.279   2.599   2.400 -0.2226 -0.0504  0.3538
 5043TIP3    H136688   1.187   2.576   2.388 -0.1688  0.5372 -1.6889
 5043TIP3    H236689   1.321   2.572   2.318  1.2977  0.2544  0.9999
 5044TIP3   OH236690   1.873   5.116   0.917  0.1073 -0.3436 -0.3299
 5044TIP3    H136691   1.822   5.152   0.989 -0.8462 -0.7131 -0.7939
 5044TIP3    H236692   1.830   5.149   0.838  0.2783 -1.0676 -0.7396
 5045TIP3   OH236693   6.520   5.602   1.660  0.2018  0.4720 -0.3118
 5045TIP3    H136694   6.557   5.516   1.679 -1.6062 -0.2788  0.0009
 5045TIP3    H236695   6.533   5.614   1.566  3.0868  1.2199  0.0594
 5046TIP3   OH236696   6.863   5.492   0.850 -0.1819  0.4117 -0.3694
 5046TIP3    H136697   6.933   5.517   0.910 -0.2616 -0.9549  0.3245
 5046TIP3    H236698   6.843   5.572   0.802  1.3242  1.0102 -0.0443
 5047TIP3   OH236699   0.654   2.907   7.965  0.0646  0.6146 -0.2978
 5047TIP3    H136700   0.592   2.845   8.004 -0.1906  0.6339 -0.6712
 5047TIP3    H236701   0.736   2.859   7.958  0.8754  1.3648  2.6483
 5048TIP3   OH236702   1.912   4.322   3.308 -0.1066 -0.5513  0.6446
 5048TIP3    H136703   1.997   4.340   3.268 -0.0930 -2.4211 -0.2451
 5048TIP3    H236704   1.927   4.248   3.367 -0.7221  0.3886  2.0381
 5049TIP3   OH236705   1.432   2.569   7.815 -0.7166 -0.0600 -0.1670
 5049TIP3    H136706   1.422   2.526   7.900  3.5797  0.4879  0.8636
 5049TIP3    H236707   1.463   2.500   7.757  2.4436  0.6090  0.5072
 5050TIP3   OH236708   5.835   1.284   3.159  0.2746 -0.3878 -0.0284
 5050TIP3    H136709   5.747   1.248   3.161  0.0549 -0.0530 -1.7865
 5050TIP3    H236710   5.828   1.368   3.204 -0.4812 -0.0383 -0.7704
 5051TIP3   OH236711   4.826   6.279   2.268  0.5864 -0.4867 -0.1492
 5051TIP3    H136712   4.838   6.268   2.173  0.7523  0.1586 -0.2034
 5051TIP3    H236713   4.811   6.372   2.280  0.2522 -0.6127  0.4321
 5052TIP3   OH236714   6.754   5.866   7.582 -0.0986 -0.0266 -0.1092
 5052TIP3    H136715   6.715   5.782   7.556 -0.4430  0.0416  0.1683
 5052TIP3    H236716   6.712   5.930   7.524  0.3764 -0.0803 -0.5143
 5053TIP3   OH236717   6.903   2.347   7.794 -0.5208 -0.0936 -0.5401
 5053TIP3    H136718   6.940   2.407   7.730 -0.3609  0.5289  0.1288
 5053TIP3    H236719   6.954   2.266   7.783 -0.3417  0.0829 -1.0313
 5054TIP3   OH236720   0.570   2.678   8.559 -0.2183 -0.5378  0.1846
 5054TIP3    H136721   0.568   2.718   8.646  1.1560 -0.2689  0.1206
 5054TIP3    H236722   0.632   2.732   8.510 -1.0452 -0.6265 -1.0080
 5055TIP3   OH236723   5.827   2.511   1.741  0.2053 -0.0296 -0.5656
 5055TIP3    H136724   5.745   2.467   1.764 -0.1186  1.1624  0.7415
 5055TIP3    H236725   5.884   2.496   1.815  0.5073  0.6959 -0.6370
 5056TIP3   OH236726   0.479   3.752   0.704  0.2415 -0.0597 -0.1637
 5056TIP3    H136727   0.387   3.769   0.686 -0.1934 -2.1487 -0.1418
 5056TIP3    H236728   0.522   3.837   0.689 -1.9383  1.5565  1.9790
 5057TIP3   OH236729   1.120   4.290   0.214 -0.1595 -0.2139 -0.5337
 5057TIP3    H136730   1.100   4.381   0.232 -2.1567  0.1588 -3.8321
 5057TIP3    H236731   1.214   4.282   0.230  0.0314  2.3604 -0.0482
 5058TIP3   OH236732   3.636   0.876   0.406 -0.2582  0.2873  0.7466
 5058TIP3    H136733   3.572   0.876   0.334  2.6082  1.1437 -2.0319
 5058TIP3    H236734   3.709   0.824   0.374  1.0386  0.4139  3.2379
 5059TIP3   OH236735   4.129   1.140   8.204 -0.3998  0.8277 -0.6116
 5059TIP3    H136736   4.042   1.163   8.170 -0.0204  1.3306 -1.2538
 5059TIP3    H236737   4.190   1.166   8.135  0.1594 -1.0065 -0.8567
 5060TIP3   OH236738   4.937   1.940   0.832 -0.1986  0.6905 -0.0711
 5060TIP3    H136739   4.861   1.946   0.774  0.2014 -0.5605 -0.7519
 5060TIP3    H236740   4.983   1.862   0.803  1.6251  1.6909  0.0204
 5061TIP3   OH236741   6.399   6.427   1.901  0.5759 -0.8753  0.1591
 5061TIP3    H136742   6.367   6.339   1.880  1.4631 -1.4151  1.0367
 5061TIP3    H236743   6.319   6.479   1.913  0.0445 -1.5825 -0.2146
 5062TIP3   OH236744   0.438   2.863   0.492  0.2950  0.6776 -0.5055
 5062TIP3    H136745   0.517   2.915   0.477  0.1718  0.4332 -2.0980
 5062TIP3    H236746   0.379   2.887   0.421 -1.0687  0.8067  0.6105
 5063TIP3   OH236747   0.354   4.835   0.372 -0.3420 -0.3624  0.6873
 5063TIP3    H136748   0.315   4.922   0.368  0.4483 -0.0048 -2.5108
 5063TIP3    H236749   0.339   4.798   0.284 -1.4594 -3.8872  2.1741
 5064TIP3   OH236750   2.342   0.986   0.949 -0.1796  0.0078  0.6513
 5064TIP3    H136751   2.326   1.063   1.003  1.5421  0.1885  0.9732
 5064TIP3    H236752   2.331   0.912   1.008 -2.9704 -0.1358  0.0783
 5065TIP3   OH236753   1.421   0.036   0.453  0.5369  0.2520  0.0998
 5065TIP3    H136754   1.486   0.075   0.395  0.2517  0.8233  0.1641
 5065TIP3    H236755   1.447   0.064   0.541  1.8610 -1.8455  0.4502
 5066TIP3   OH236756   4.412   5.358   2.091 -1.0398  0.3579 -0.4975
 5066TIP3    H136757   4.419   5.267   2.120 -1.1506  0.1487 -1.1207
 5066TIP3    H236758   4.368   5.403   2.163  0.2119  0.2098  0.4010
 5067TIP3   OH236759   3.283   5.042   1.929  0.1446  0.0206  0.5520
 5067TIP3    H136760   3.219   5.013   1.993 -0.1095 -0.2120  0.1942
 5067TIP3    H236761   3.367   5.010   1.963  0.0659  0.2821  0.9926
 5068TIP3   OH236762   1.071   6.192   8.472  0.1928 -0.0537  0.0557
 5068TIP3    H136763   1.043   6.127   8.537  1.3638 -0.5153  0.1344
 5068TIP3    H236764   1.151   6.154   8.434 -1.8444 -1.1291 -3.6537
 5069TIP3   OH236765   5.013   4.008   0.176 -0.0731 -0.5505  0.8021
 5069TIP3    H136766   4.945   3.943   0.192  0.5858 -0.8078  2.8708
 5069TIP3    H236767   5.092   3.956   0.158  0.0508 -0.2978  0.6113
 5070TIP3   OH236768   2.209   3.399   8.296  0.1391 -0.2096  0.5894
 5070TIP3    H136769   2.195   3.309   8.267  2.9032 -0.4435 -0.2797
 5070TIP3    H236770   2.273   3.435   8.234 -0.1806  2.0626  1.4758
 5071TIP3   OH236771   6.810   1.659   2.855  0.2177 -0.1650  0.0777
 5071TIP3    H136772   6.809   1.572   2.895 -0.7629 -0.3447 -0.3053
 5071TIP3    H236773   6.719   1.690   2.862  0.7341  1.2155  1.0232
 5072TIP3   OH236774   6.804   1.750   1.503 -0.6414  0.6727  0.1236
 5072TIP3    H136775   6.760   1.810   1.443 -0.7220  0.5041  0.0140
 5072TIP3    H236776   6.889   1.734   1.463 -1.0163 -0.1058 -0.3797
 5073TIP3   OH236777   3.985   1.881   2.009 -0.2778 -0.0356  0.4093
 5073TIP3    H136778   3.896   1.847   2.016  0.0788 -0.7929  1.6044
 5073TIP3    H236779   4.040   1.802   2.008  0.4115  0.4426  0.1780
 5074TIP3   OH236780   3.693   6.492   2.977 -0.0618 -0.5333  0.6531
 5074TIP3    H136781   3.739   6.575   2.990 -0.8090 -0.0080  0.0396
 5074TIP3    H236782   3.759   6.425   2.994  1.6826  0.1684 -2.4502
 5075TIP3   OH236783   5.371   4.491   2.457 -0.0110  0.8102 -0.1523
 5075TIP3    H136784   5.377   4.587   2.458  1.9608  0.7480 -1.0068
 5075TIP3    H236785   5.278   4.473   2.443 -0.5255  2.5767  0.6618
 5076TIP3   OH236786   4.507   2.730   2.098  0.7706  0.3981  0.3890
 5076TIP3    H136787   4.424   2.750   2.141 -0.4151  1.6802 -2.2207
 5076TIP3    H236788   4.554   2.814   2.097  0.6765  0.4535 -0.8980
 5077TIP3   OH236789   4.404   4.666   8.192 -0.2676  0.1184 -0.3862
 5077TIP3    H136790   4.386   4.576   8.167  2.3490 -0.4363 -0.4772
 5077TIP3    H236791   4.473   4.695   8.133  1.4305  0.9823  1.8574
 5078TIP3   OH236792   0.995   5.554   8.142  0.2238 -1.0471 -0.1807
 5078TIP3    H136793   0.953   5.616   8.082 -0.2534  0.1584  1.3256
 5078TIP3    H236794   0.967   5.468   8.111  0.1105 -0.4825 -1.7436
 5079TIP3   OH236795   4.076   4.842   8.534 -0.2760 -0.3814 -0.6476
 5079TIP3    H136796   4.044   4.757   8.565  2.5554 -0.9282  1.2579
 5079TIP3    H236797   4.039   4.905   8.596  1.2279 -0.8666  0.8353
 5080TIP3   OH236798   2.420   2.174   8.075  0.2220 -0.0361 -0.3698
 5080TIP3    H136799   2.376   2.102   8.029  1.5449 -0.3098 -1.2590
 5080TIP3    H236800   2.510   2.144   8.087 -0.2706 -0.4893  3.5512
 5081TIP3   OH236801   2.489   1.370   8.007  0.8259 -0.3751  0.3074
 5081TIP3    H136802   2.402   1.376   8.046  0.2402  0.3938 -1.0685
 5081TIP3    H236803   2.479   1.311   7.933  0.9466  1.3218 -1.1392
 5082TIP3   OH236804   3.504   2.694   3.058  0.1280 -0.4958  0.3236
 5082TIP3    H136805   3.435   2.749   3.096 -0.0034 -0.3875 -0.0593
 5082TIP3    H236806   3.524   2.629   3.126 -0.7038 -0.8329  0.2634
 5083TIP3   OH236807   4.443   5.617   7.499 -0.9060 -0.0345  0.5127
 5083TIP3    H136808   4.493   5.695   7.526 -0.3963 -0.2109  0.1045
 5083TIP3    H236809   4.352   5.638   7.520 -0.9382  1.1671 -0.6756
 5084TIP3   OH236810   4.630   3.804   7.850 -0.0372 -0.3576  0.2587
 5084TIP3    H136811   4.633   3.783   7.756  1.1507 -0.1845  0.2505
 5084TIP3    H236812   4.694   3.874   7.861 -2.2456  1.7020  0.7027
 5085TIP3   OH236813   3.385   4.719   1.111  0.0235 -0.0845  0.0145
 5085TIP3    H136814   3.473   4.739   1.078 -0.6669 -0.4771 -2.2043
 5085TIP3    H236815   3.398   4.643   1.168  0.7703 -2.3683 -2.9709
 5086TIP3   OH236816   5.305   0.766   2.158  0.1804 -0.0541 -0.5384
 5086TIP3    H136817   5.338   0.787   2.070  0.7544 -1.2091 -0.6070
 5086TIP3    H236818   5.213   0.794   2.156  0.7555  2.0400 -0.7531
 5087TIP3   OH236819   3.052   6.176   2.006  0.2208  0.0820  0.9315
 5087TIP3    H136820   2.973   6.223   1.980 -0.7770 -0.7902  2.2299
 5087TIP3    H236821   3.119   6.204   1.943 -1.6089 -0.6843 -1.5455
 5088TIP3   OH236822   3.796   3.994   2.961 -0.3528  0.0525  0.3634
 5088TIP3    H136823   3.834   3.916   2.921 -1.1451 -0.7941  1.1998
 5088TIP3    H236824   3.861   4.063   2.945 -1.0592  0.0807 -3.2439
 5089TIP3   OH236825   0.345   2.960   8.277  0.2987  0.1383  0.1941
 5089TIP3    H136826   0.439   2.956   8.291  0.6055  0.5303 -1.4937
 5089TIP3    H236827   0.325   3.054   8.270 -0.4682  0.1340  1.9359
 5090TIP3   OH236828   3.425   0.844   0.214 -0.2137  0.5740 -0.1718
 5090TIP3    H136829   3.343   0.851   0.262 -0.4360  1.1418 -0.6291
 5090TIP3    H236830   3.414   0.902   0.138  1.2707  2.1054  0.7135
 5091TIP3   OH236831   5.123   5.416   1.575 -0.4445 -0.4796 -0.1054
 5091TIP3    H136832   5.154   5.455   1.493  1.1808 -0.1955  0.5997
 5091TIP3    H236833   5.107   5.492   1.632  1.7804 -0.7276  0.9477
 5092TIP3   OH236834   1.762   6.261   2.635  0.7478  0.2941  0.1043
 5092TIP3    H136835   1.737   6.178   2.674  2.6492 -1.2176 -1.6443
 5092TIP3    H236836   1.691   6.282   2.574 -0.3604  0.6565  1.4939
 5093TIP3   OH236837   3.957   1.142   7.523  0.2986  0.6648  0.2530
 5093TIP3    H136838   3.880   1.119   7.576 -0.5128 -0.4969 -1.3566
 5093TIP3    H236839   3.922   1.193   7.450  0.8972 -0.6243 -0.9766
 5094TIP3   OH236840   0.828   2.243   2.171  0.4959  0.0870  0.4292
 5094TIP3    H136841   0.819   2.307   2.100  1.8057 -1.6465 -1.4211
 5094TIP3    H236842   0.739   2.225   2.199 -0.1463  0.0985 -1.4855
 5095TIP3   OH236843   2.012   3.890   7.966 -0.2492 -0.1001 -0.5207
 5095TIP3    H136844   1.996   3.899   7.872 -2.1195  0.5149 -0.1772
 5095TIP3    H236845   1.996   3.978   8.001  0.2010 -0.3796  0.4081
 5096TIP3   OH236846   0.195   4.226   1.536 -0.4432  0.3032  0.4140
 5096TIP3    H136847   0.249   4.147   1.542 -2.0593 -0.7712  1.7144
 5096TIP3    H236848   0.128   4.204   1.471 -0.5545  0.8244  0.3526
 5097TIP3   OH236849   4.640   3.066   8.413  0.3812  0.6001  0.1185
 5097TIP3    H136850   4.721   3.032   8.450  1.4513  0.5371 -2.1578
 5097TIP3    H236851   4.662   3.089   8.323 -2.0758  0.7780 -0.5066
 5098TIP3   OH236852   1.194   4.829   7.628 -0.0713  0.8495  0.4509
 5098TIP3    H136853   1.241   4.802   7.549 -0.1987  0.7640  0.4032
 5098TIP3    H236854   1.140   4.903   7.600  1.0311  1.8222  0.8125
 5099TIP3   OH236855   0.576   1.058   8.320 -0.2138 -0.1238 -0.2804
 5099TIP3    H136856   0.578   1.149   8.350 -1.4382 -0.0819 -0.2876
 5099TIP3    H236857   0.668   1.036   8.303  0.3502  0.3985  1.8297
 5100TIP3   OH236858   1.035   4.275   2.017 -0.2309  0.0452 -0.3821
 5100TIP3    H136859   1.019   4.256   1.925  2.9559  0.2113 -1.1003
 5100TIP3    H236860   1.110   4.220   2.039  1.0765  2.2990  1.1749
 5101TIP3   OH236861   5.657   2.806   2.818 -0.3699  0.4077 -0.0047
 5101TIP3    H136862   5.749   2.800   2.841 -0.9483  0.2103  2.6060
 5101TIP3    H236863   5.631   2.893   2.848 -1.3939 -0.1749  0.8535
 5102TIP3   OH236864   0.508   2.753   7.590 -0.1759 -0.7680  0.2547
 5102TIP3    H136865   0.591   2.781   7.552 -0.3845 -0.2917  0.1408
 5102TIP3    H236866   0.443   2.770   7.521 -0.2586 -1.8513  0.0622
 5103TIP3   OH236867   2.764   5.816   8.533  0.2896 -0.3967  0.2034
 5103TIP3    H136868   2.746   5.776   8.448  1.4912 -0.7578  0.1000
 5103TIP3    H236869   2.720   5.900   8.530  1.6702  0.3182 -1.4389
 5104TIP3   OH236870   5.376   1.076   3.000  0.3134  0.4047  0.1137
 5104TIP3    H136871   5.363   1.094   2.907  1.5121  2.6706  0.3051
 5104TIP3    H236872   5.288   1.064   3.035 -0.1705 -0.1639 -1.2317
 5105TIP3   OH236873   2.051   1.462   3.083 -0.3831 -0.1905 -0.5850
 5105TIP3    H136874   1.975   1.479   3.138 -1.2735 -0.0040 -1.8281
 5105TIP3    H236875   2.083   1.549   3.059  1.3432 -0.2306  1.3690
 5106TIP3   OH236876   1.024   4.202   1.211 -0.2614 -0.4823 -0.2034
 5106TIP3    H136877   0.953   4.139   1.198  0.3901 -1.0635 -1.0698
 5106TIP3    H236878   1.072   4.201   1.128  0.7695 -0.1248  0.3728
 5107TIP3   OH236879   4.409   3.564   8.287  0.4931  0.4360  0.1015
 5107TIP3    H136880   4.402   3.651   8.248  0.2071 -0.1942 -1.3457
 5107TIP3    H236881   4.430   3.507   8.213 -1.1364 -0.9973  0.6578
 5108TIP3   OH236882   4.462   1.723   8.293 -0.1302  0.2406 -0.1633
 5108TIP3    H136883   4.459   1.729   8.388 -0.9861 -3.3435  0.1965
 5108TIP3    H236884   4.541   1.770   8.268  0.0874  1.3340  2.2563
 5109TIP3   OH236885   4.403   2.076   7.290 -0.4502 -0.1200 -0.8054
 5109TIP3    H136886   4.417   2.156   7.342  1.3717 -0.6475 -0.4035
 5109TIP3    H236887   4.313   2.049   7.311 -0.8057  1.3701 -0.3192
 5110TIP3   OH236888   6.042   0.135   1.487 -0.1346 -0.5370  0.0948
 5110TIP3    H136889   5.957   0.113   1.525 -0.5690  1.6990  0.5884
 5110TIP3    H236890   6.020   0.184   1.407  0.7598 -2.8974 -1.7154
 5111TIP3   OH236891   2.243   4.836   2.406 -0.5337  0.5459 -0.0948
 5111TIP3    H136892   2.179   4.884   2.459  0.0683  0.5837  0.6082
 5111TIP3    H236893   2.191   4.768   2.362 -1.0344  0.4473  0.6235
 5112TIP3   OH236894   6.129   2.759   0.134  0.0168 -0.1504  0.1645
 5112TIP3    H136895   6.037   2.772   0.113 -0.2376 -1.3594  0.4564
 5112TIP3    H236896   6.131   2.747   0.229  0.3084 -1.2485  0.0403
 5113TIP3   OH236897   2.653   2.221   7.600  0.0454 -0.5264 -0.4026
 5113TIP3    H136898   2.721   2.161   7.568 -0.2485 -1.3417  0.4618
 5113TIP3    H236899   2.703   2.296   7.635  0.4471 -0.5739 -0.8649
 5114TIP3   OH236900   0.480   0.951   0.191 -0.2731  0.3981  0.3312
 5114TIP3    H136901   0.567   0.915   0.175  0.4685  1.7236  1.1309
 5114TIP3    H236902   0.429   0.930   0.113  1.1366  0.6697 -0.6941
 5115TIP3   OH236903   0.948   4.426   2.422 -0.4434 -1.0232 -0.0826
 5115TIP3    H136904   0.959   4.512   2.381  0.7502 -1.0965  0.0398
 5115TIP3    H236905   0.861   4.397   2.394 -0.2614 -0.4279 -1.3555
 5116TIP3   OH236906   6.127   3.057   1.132  0.3742 -0.1244 -0.4351
 5116TIP3    H136907   6.073   2.979   1.148  0.0457 -0.2654 -2.0373
 5116TIP3    H236908   6.201   3.023   1.082  0.3770  0.5426 -0.8862
 5117TIP3   OH236909   5.051   5.362   7.847  0.1117 -0.5313 -0.0044
 5117TIP3    H136910   5.005   5.290   7.805  0.3805 -0.5920 -0.1939
 5117TIP3    H236911   5.012   5.441   7.809  0.5405 -0.5862 -0.5761
 5118TIP3   OH236912   3.927   6.023   2.027  0.0307 -0.2212  0.1510
 5118TIP3    H136913   3.991   5.983   1.968  0.2974  0.5322 -0.0821
 5118TIP3    H236914   3.950   5.989   2.114  1.5236  0.9412  0.2570
 5119TIP3   OH236915   6.832   3.798   0.867  0.3210  0.6289  0.2438
 5119TIP3    H136916   6.841   3.871   0.928  1.6558  0.9258 -0.2855
 5119TIP3    H236917   6.854   3.835   0.781  0.8026 -0.3369 -0.0642
 5120TIP3   OH236918   1.289   3.114   3.413  0.0364  0.6780  0.4568
 5120TIP3    H136919   1.378   3.132   3.442  0.0918  2.4426 -0.6534
 5120TIP3    H236920   1.242   3.197   3.425 -1.2175  0.0467  0.1683
 5121TIP3   OH236921   3.339   0.582   0.304  0.2508 -0.3499 -0.8266
 5121TIP3    H136922   3.366   0.546   0.388 -2.3221  1.0375  0.7036
 5121TIP3    H236923   3.413   0.638   0.277  0.9888 -0.5558  0.6525
 5122TIP3   OH236924   6.256   5.993   2.912  0.1707  0.5969 -0.1414
 5122TIP3    H136925   6.351   5.987   2.921 -0.0329 -0.6652  1.8239
 5122TIP3    H236926   6.238   6.087   2.906  1.5179  0.8571 -0.4378
 5123TIP3   OH236927   6.396   0.623   7.842 -0.1324  0.3028 -0.2838
 5123TIP3    H136928   6.350   0.607   7.759 -0.3376  1.0078 -0.3098
 5123TIP3    H236929   6.339   0.683   7.890  0.6154  0.9520 -0.1858
 5124TIP3   OH236930   4.942   0.598   8.551  0.0797 -0.0933 -0.0577
 5124TIP3    H136931   4.963   0.670   8.491 -2.8022  1.6773  0.8485
 5124TIP3    H236932   4.985   0.622   8.633 -1.2086  0.9069  0.3638
 5125TIP3   OH236933   2.987   4.966   2.064 -0.2368  0.2203 -0.3073
 5125TIP3    H136934   2.901   4.949   2.102  0.4905  0.6516  1.6514
 5125TIP3    H236935   3.035   4.885   2.075  0.6352  0.9421  1.6757
 5126TIP3   OH236936   3.005   3.367   8.539 -0.2215  0.2403  0.1325
 5126TIP3    H136937   3.026   3.330   8.624  0.1117  1.5709  0.6577
 5126TIP3    H236938   2.986   3.292   8.483 -0.6897 -0.6364  1.4440
 5127TIP3   OH236939   5.823   4.964   1.551  0.2120 -0.5933  0.3479
 5127TIP3    H136940   5.800   5.051   1.517  0.5520  0.3285  2.3638
 5127TIP3    H236941   5.751   4.908   1.522  0.2815  0.1885 -1.5012
 5128TIP3   OH236942   4.456   0.915   1.926  0.0129 -0.8825  0.2558
 5128TIP3    H136943   4.462   1.009   1.912 -0.0828 -0.9439 -0.2166
 5128TIP3    H236944   4.544   0.890   1.955 -0.2588 -0.4803  1.4787
 5129TIP3   OH236945   6.278   2.109   2.605 -0.0311 -0.6175 -0.2035
 5129TIP3    H136946   6.203   2.096   2.663  0.6786  0.1178  0.9103
 5129TIP3    H236947   6.335   2.035   2.624  1.1857  0.7359  1.6449
 5130TIP3   OH236948   6.838   0.946   2.510 -0.3260 -0.1438  0.1732
 5130TIP3    H136949   6.775   1.016   2.531 -1.6333 -0.8016 -1.3653
 5130TIP3    H236950   6.880   0.926   2.593  0.3594  2.7005  0.6212
 5131TIP3   OH236951   0.077   0.791   1.949 -0.2157  0.2688  0.3377
 5131TIP3    H136952  -0.002   0.770   1.899 -0.6739 -0.2866  1.2578
 5131TIP3    H236953   0.119   0.707   1.964 -0.0892  0.4270  0.8831
 5132TIP3   OH236954   1.551   6.731   1.161 -0.3467 -0.2848  0.3295
 5132TIP3    H136955   1.588   6.694   1.241  1.0397  0.3841  0.0160
 5132TIP3    H236956   1.526   6.820   1.185 -0.3059 -0.2156  0.1122
 5133TIP3   OH236957   5.833   6.625   0.723 -0.1186  0.5153 -0.0855
 5133TIP3    H136958   5.838   6.682   0.646 -0.3932 -0.1223 -0.5911
 5133TIP3    H236959   5.746   6.585   0.716  1.0840 -2.0969 -1.2986
 5134TIP3   OH236960   4.371   0.057   1.613 -0.0340  0.5050  0.5457
 5134TIP3    H136961   4.390   0.117   1.542  3.1757  0.0495  0.8709
 5134TIP3    H236962   4.355   0.114   1.689  2.8202  1.1335  0.8193
 5135TIP3   OH236963   3.017   0.259   1.045 -0.6932  0.5898 -0.0528
 5135TIP3    H136964   2.981   0.223   1.126  1.2628 -0.1039  0.5613
 5135TIP3    H236965   2.972   0.212   0.975  0.2117 -1.5179  0.7077
 5136TIP3   OH236966   5.777   4.041   1.832 -0.4909  0.1861 -0.4273
 5136TIP3    H136967   5.710   4.078   1.890 -1.2974  0.7890 -1.7077
 5136TIP3    H236968   5.763   4.085   1.748  0.9815 -0.2967 -0.9512
 5137TIP3   OH236969   1.864   4.532   7.819  0.2199  0.0476  0.4261
 5137TIP3    H136970   1.829   4.543   7.908 -0.5717 -0.5555  0.2029
 5137TIP3    H236971   1.949   4.577   7.821  0.3777 -0.2563  1.5872
 5138TIP3   OH236972   1.606   5.175   0.867  0.2266 -0.0997 -0.3385
 5138TIP3    H136973   1.520   5.191   0.828  0.2462  0.6965 -0.0680
 5138TIP3    H236974   1.618   5.247   0.929 -0.6415 -2.3524  2.6456
 5139TIP3   OH236975   2.782   0.659   2.118 -0.2851  0.0952 -0.6183
 5139TIP3    H136976   2.721   0.592   2.087 -1.2641  0.9427 -0.6044
 5139TIP3    H236977   2.726   0.724   2.160  0.6914  0.6790 -0.1747
 5140TIP3   OH236978   2.397   5.030   2.120  0.0222 -0.3944  0.4560
 5140TIP3    H136979   2.389   5.009   2.027  0.1043  0.1045  0.3313
 5140TIP3    H236980   2.470   4.976   2.150 -0.5020 -1.1388  0.4188
 5141TIP3   OH236981   2.062   4.364   8.115  0.0742 -0.2456 -0.0232
 5141TIP3    H136982   2.055   4.339   8.208  0.3413  0.3454  0.1622
 5141TIP3    H236983   1.976   4.401   8.094 -0.2979 -1.2091 -0.2777
 5142TIP3   OH236984   5.862   2.806   0.080  0.2086 -0.2250 -0.6440
 5142TIP3    H136985   5.807   2.879   0.052  0.0951 -0.6952 -1.7080
 5142TIP3    H236986   5.877   2.821   0.173 -1.2940  0.1993 -0.4447
 5143TIP3   OH236987   0.442   5.205   8.508 -0.1614 -0.3121 -0.4219
 5143TIP3    H136988   0.496   5.250   8.443 -0.0508  1.8697  1.0418
 5143TIP3    H236989   0.468   5.113   8.502 -1.8718 -0.7526 -5.0389
 5144TIP3   OH236990   4.009   5.606   1.802  0.4314  0.2749 -0.2143
 5144TIP3    H136991   4.053   5.539   1.853  1.3166  2.6945  2.4398
 5144TIP3    H236992   4.043   5.689   1.835 -2.5818  2.1822 -1.3941
 5145TIP3   OH236993   1.518   6.556   0.378  0.2741 -0.0547 -0.4227
 5145TIP3    H136994   1.426   6.556   0.351  0.5183 -0.4371 -1.2917
 5145TIP3    H236995   1.561   6.613   0.314  0.3752  1.5802  1.0138
 5146TIP3   OH236996   1.017   6.861   8.265 -0.2618 -0.2038  0.4225
 5146TIP3    H136997   1.109   6.872   8.288  0.2404 -0.9967 -1.0557
 5146TIP3    H236998   0.977   6.821   8.343 -0.4403  4.0757  2.8501
 5147TIP3   OH236999   0.200   6.509   0.020 -0.1233 -0.2328 -0.0484
 5147TIP3    H137000   0.244   6.592   0.040  0.6300 -0.4754 -0.6780
 5147TIP3    H237001   0.223   6.451   0.093  2.2355 -0.9699 -1.2834
 5148TIP3   OH237002   2.834   1.262   1.591 -0.1006  0.1229 -0.0105
 5148TIP3    H137003   2.847   1.355   1.610  1.8949  0.0508 -0.8337
 5148TIP3    H237004   2.754   1.260   1.538  0.5021  1.5395 -1.0534
 5149TIP3   OH237005   0.847   5.429   0.965 -0.6107 -0.2369  0.2835
 5149TIP3    H137006   0.822   5.520   0.952 -0.0903  0.2284  2.2705
 5149TIP3    H237007   0.934   5.422   0.926 -0.0711  0.4892  1.3320
 5150TIP3   OH237008   0.277   3.227   8.323  0.0584  0.1942  0.0484
 5150TIP3    H137009   0.327   3.308   8.314  0.0027  0.1061 -1.1782
 5150TIP3    H237010   0.216   3.245   8.395 -0.4696  1.5331 -0.6903
 5151TIP3   OH237011   1.865   0.901   1.371  0.3136 -0.1927 -0.1662
 5151TIP3    H137012   1.802   0.834   1.344  1.2043 -1.6895  1.2829
 5151TIP3    H237013   1.877   0.887   1.465  0.4936  2.0777  0.2052
 5152TIP3   OH237014   2.740   5.942   1.061 -0.8549 -0.1419  0.0029
 5152TIP3    H137015   2.687   5.864   1.076  0.2130 -0.7017  1.0773
 5152TIP3    H237016   2.743   5.952   0.966 -2.2251 -0.5252 -0.1027
 5153TIP3   OH237017   5.117   0.432   0.589 -0.1062  0.7218 -0.3789
 5153TIP3    H137018   5.107   0.517   0.632 -0.8590  1.3991 -1.8131
 5153TIP3    H237019   5.027   0.402   0.574  0.1576 -0.5258  0.4692
 5154TIP3   OH237020   2.851   1.266   2.492  0.7722 -0.2587  0.1909
 5154TIP3    H137021   2.762   1.295   2.474  0.8981 -0.5449 -0.9872
 5154TIP3    H237022   2.875   1.311   2.573 -0.7555 -0.8877  1.0417
 5155TIP3   OH237023   1.337   4.333   1.877  0.3746 -0.0639 -0.1293
 5155TIP3    H137024   1.262   4.371   1.832  0.2445 -0.9688 -0.6939
 5155TIP3    H237025   1.314   4.241   1.889  2.5186 -1.0826 -2.8573
 5156TIP3   OH237026   5.788   4.911   3.602  0.5051 -0.1958  0.5269
 5156TIP3    H137027   5.781   4.816   3.594  1.7343 -0.2307 -0.3649
 5156TIP3    H237028   5.780   4.928   3.696  1.7154 -1.3131  0.8543
 5157TIP3   OH237029   5.363   6.332   2.802  0.3249 -0.1062 -1.3955
 5157TIP3    H137030   5.328   6.414   2.837  1.0108 -0.8108  1.1176
 5157TIP3    H237031   5.443   6.357   2.757  0.9021  0.5712 -0.0423
 5158TIP3   OH237032   4.240   5.976   2.758 -0.7218 -0.0679 -0.3877
 5158TIP3    H137033   4.315   5.951   2.812  0.3615 -0.6191 -2.0683
 5158TIP3    H237034   4.166   5.980   2.819  0.2279 -1.7067  0.9501
 5159TIP3   OH237035   3.045   0.091   2.603  0.7036  0.3141 -0.0419
 5159TIP3    H137036   2.950   0.087   2.614  0.4225 -0.0064 -2.1217
 5159TIP3    H237037   3.075   0.002   2.624  0.4809  0.2533  0.0236
 5160TIP3   OH237038   4.843   2.932   1.997 -0.4682  0.0986  0.4671
 5160TIP3    H137039   4.817   2.889   2.079  2.3185 -1.3555  0.7027
 5160TIP3    H237040   4.890   2.865   1.948 -0.3299  1.5113 -1.4666
 5161TIP3   OH237041   0.236   6.595   2.101  0.0906  0.0685  0.0048
 5161TIP3    H137042   0.197   6.680   2.081 -1.5428 -0.0883  2.1640
 5161TIP3    H237043   0.190   6.534   2.044 -0.4350  0.3243  0.1498
 5162TIP3   OH237044   2.150   0.186   0.962 -0.5385 -0.4929  0.2951
 5162TIP3    H137045   2.059   0.158   0.955 -0.8231  0.0323  1.6209
 5162TIP3    H237046   2.146   0.273   1.000  0.4951 -0.1101 -0.4306
 5163TIP3   OH237047   2.496   2.728   3.340 -0.1114 -0.0756  0.0982
 5163TIP3    H137048   2.505   2.676   3.420 -0.0546  1.3085  1.0305
 5163TIP3    H237049   2.409   2.768   3.347 -0.6845 -1.0213 -1.2259
 5164TIP3   OH237050   3.931   5.676   1.548  0.0333 -0.2567  0.6839
 5164TIP3    H137051   3.878   5.754   1.567  0.9857  0.4421  0.5201
 5164TIP3    H237052   3.949   5.637   1.633  0.7620  0.5164  0.8896
 5165TIP3   OH237053   3.527   2.207   0.342  0.3280  0.1741 -0.0812
 5165TIP3    H137054   3.577   2.127   0.356  0.1880  0.0434 -0.3387
 5165TIP3    H237055   3.529   2.222   0.248  0.6179  0.6456 -0.0036
 5166TIP3   OH237056   2.795   2.887   2.693  0.0455 -0.4728  0.1051
 5166TIP3    H137057   2.834   2.890   2.780 -0.8548  0.8754  0.4979
 5166TIP3    H237058   2.855   2.833   2.641  2.8942  2.0717  0.4380
 5167TIP3   OH237059   6.556   3.369   2.237 -0.1639  0.1332 -0.1384
 5167TIP3    H137060   6.508   3.434   2.185  0.8779 -0.2264 -1.5964
 5167TIP3    H237061   6.632   3.416   2.270  1.0379 -0.4908 -1.8814
 5168TIP3   OH237062   0.617   5.650   7.432 -0.1296  0.1218  0.2736
 5168TIP3    H137063   0.597   5.674   7.341  0.3657 -0.0321  0.1192
 5168TIP3    H237064   0.533   5.621   7.469 -0.3918  0.4660 -0.0460
 5169TIP3   OH237065   2.866   3.861   2.486 -0.5878  0.4068  0.1697
 5169TIP3    H137066   2.806   3.865   2.412 -1.0680  0.5593  0.5579
 5169TIP3    H237067   2.948   3.828   2.450 -1.2078 -0.7902 -0.1745
 5170TIP3   OH237068   6.528   0.653   1.615  0.2779  0.2054 -0.2371
 5170TIP3    H137069   6.567   0.578   1.570 -1.4972 -0.3550 -0.9258
 5170TIP3    H237070   6.538   0.725   1.553  0.4966  0.1522 -0.2667
 5171TIP3   OH237071   1.371   1.998   7.969 -0.8215  0.1961  0.8796
 5171TIP3    H137072   1.384   2.080   8.017  1.9424  0.9956 -0.9551
 5171TIP3    H237073   1.368   2.024   7.877  1.7073 -1.7826  0.0998
 5172TIP3   OH237074   3.239   4.637   8.371  0.2283  0.2420  0.2195
 5172TIP3    H137075   3.188   4.566   8.332  0.6694  0.1065 -0.1080
 5172TIP3    H237076   3.197   4.652   8.456  1.4968 -1.9442  1.3042
 5173TIP3   OH237077   4.761   1.410   1.975  0.2870 -0.0575  0.5466
 5173TIP3    H137078   4.700   1.476   2.009  0.9564  0.5968  0.5057
 5173TIP3    H237079   4.753   1.417   1.880 -1.4032 -1.7167  0.5139
 5174TIP3   OH237080   3.291   2.972   1.950 -0.2418 -0.5909  0.1595
 5174TIP3    H137081   3.280   3.067   1.956 -1.6814 -0.7297  0.0610
 5174TIP3    H237082   3.204   2.939   1.930  0.3592 -1.8921 -0.4318
 5175TIP3   OH237083   5.829   4.133   0.839 -0.1119  0.4247 -0.1894
 5175TIP3    H137084   5.818   4.085   0.922 -0.7303  2.5250  1.0069
 5175TIP3    H237085   5.922   4.157   0.837 -0.3802  1.6117  0.6509
 5176TIP3   OH237086   6.067   2.538   2.645  0.1093 -0.1883  0.2932
 5176TIP3    H137087   6.077   2.498   2.558 -2.6394 -1.0239  0.2647
 5176TIP3    H237088   6.136   2.500   2.698  1.3885 -0.2156 -1.3257
 5177TIP3   OH237089   1.792   4.426   3.090  0.9976  0.2072  0.4639
 5177TIP3    H137090   1.819   4.518   3.095 -0.3857  0.6029  1.0551
 5177TIP3    H237091   1.825   4.387   3.171 -0.4385  0.7803  1.3691
 5178TIP3   OH237092   1.432   1.267   7.748  0.0292  0.0820 -0.3724
 5178TIP3    H137093   1.488   1.283   7.672  1.2519 -1.3731  0.1685
 5178TIP3    H237094   1.493   1.248   7.819 -1.1406 -1.2802  0.3156
 5179TIP3   OH237095   0.426   5.136   1.903  0.5917 -0.3131  0.7419
 5179TIP3    H137096   0.496   5.092   1.856  1.2243  0.4999  0.8946
 5179TIP3    H237097   0.466   5.218   1.933 -0.2277 -0.1535  1.4162
 5180TIP3   OH237098   3.527   4.754   0.443 -0.2900 -0.3357  0.3883
 5180TIP3    H137099   3.432   4.758   0.433 -0.0616  2.8496 -2.3571
 5180TIP3    H237100   3.543   4.783   0.533 -1.9233  1.5722  0.1354
 5181TIP3   OH237101   6.670   0.860   8.231  1.2374  0.1388 -0.4567
 5181TIP3    H137102   6.598   0.809   8.268 -0.3437  2.1270 -0.6514
 5181TIP3    H237103   6.729   0.875   8.306  0.8259 -0.4173 -0.0095
 5182TIP3   OH237104   6.311   3.627   1.592  0.2275  0.5898  0.5118
 5182TIP3    H137105   6.386   3.660   1.542 -0.7377 -1.1080 -2.3098
 5182TIP3    H237106   6.244   3.694   1.582  0.4253  0.7840  0.4924
 5183TIP3   OH237107   0.213   5.688   0.000  0.3423 -1.0136 -0.0068
 5183TIP3    H137108   0.242   5.688  -0.091 -1.4526 -2.4919 -0.6407
 5183TIP3    H237109   0.220   5.596   0.028  0.1232 -0.7145  1.1050
 5184TIP3   OH237110   4.823   4.172   1.195  0.3228  0.3886 -0.0473
 5184TIP3    H137111   4.747   4.176   1.136  0.2363  1.3185  0.1242
 5184TIP3    H237112   4.888   4.122   1.145 -0.3139 -0.2176 -0.2890
 5185TIP3   OH237113   0.630   3.593   0.835  0.4359 -0.5606 -0.0042
 5185TIP3    H137114   0.580   3.666   0.798 -1.6994 -1.0904  1.6128
 5185TIP3    H237115   0.610   3.519   0.778  2.2473 -0.0429 -1.3852
 5186TIP3   OH237116   1.891   4.119   1.369 -0.0123  0.2299 -0.3665
 5186TIP3    H137117   1.913   4.071   1.449 -0.7208 -1.5762 -1.1956
 5186TIP3    H237118   1.801   4.149   1.384 -0.1966 -0.2327 -0.5358
 5187TIP3   OH237119   0.681   6.003   2.778 -0.2095  0.6934  0.4810
 5187TIP3    H137120   0.693   6.066   2.707 -0.4444 -1.3156 -1.4236
 5187TIP3    H237121   0.591   6.015   2.806 -0.6464  0.3737 -0.7346
 5188TIP3   OH237122   1.328   4.140   0.684  0.3279  0.1146 -0.3582
 5188TIP3    H137123   1.377   4.060   0.663  0.4497 -0.0445  0.5212
 5188TIP3    H237124   1.360   4.167   0.770 -0.8446  0.2244  0.0666
 5189TIP3   OH237125   1.597   2.819   7.912  0.5123  0.2390  0.2059
 5189TIP3    H137126   1.560   2.735   7.885  0.0560 -0.1267  1.8487
 5189TIP3    H237127   1.673   2.831   7.856  0.2770 -1.0150 -0.4128
 5190TIP3   OH237128   4.787   2.763   8.113 -0.0435  0.6785  0.2645
 5190TIP3    H137129   4.879   2.772   8.139  0.0164  0.4691  0.1297
 5190TIP3    H237130   4.790   2.754   8.018  0.0325 -2.0398  0.4414
 5191TIP3   OH237131   6.248   3.862   7.887 -0.0710  0.6293 -0.0397
 5191TIP3    H137132   6.333   3.867   7.844  1.5761 -1.2028  2.6714
 5191TIP3    H237133   6.209   3.780   7.856 -0.1736  0.7351 -0.1887
 5192TIP3   OH237134   4.868   4.727   0.574  0.4121 -0.0995 -0.5043
 5192TIP3    H137135   4.824   4.716   0.658 -0.0025 -1.9082 -0.9172
 5192TIP3    H237136   4.880   4.822   0.565 -0.2963  0.1822  1.1857
 5193TIP3   OH237137   3.646   2.246   8.043 -0.6313 -0.5322  0.5007
 5193TIP3    H137138   3.687   2.230   8.128 -0.7885 -0.3096  0.6178
 5193TIP3    H237139   3.667   2.168   7.991  3.2150  1.0820 -0.7351
 5194TIP3   OH237140   4.301   1.976   0.032  0.4587 -0.2061  0.1902
 5194TIP3    H137141   4.341   2.022   0.105  1.2305  2.4705 -1.7680
 5194TIP3    H237142   4.216   2.017   0.021 -0.4644 -1.8989  0.7122
 5195TIP3   OH237143   0.499   6.242   8.318  0.1048  0.7216 -0.4934
 5195TIP3    H137144   0.560   6.303   8.359 -0.6596  1.6160 -0.6432
 5195TIP3    H237145   0.412   6.273   8.344 -0.3029 -0.4107 -0.4363
 5196TIP3   OH237146   3.217   6.137   1.515 -0.2334  0.2358 -0.0235
 5196TIP3    H137147   3.231   6.092   1.598 -0.9060  0.3355  0.1504
 5196TIP3    H237148   3.287   6.105   1.458 -0.8245 -1.2345  0.0193
 5197TIP3   OH237149   4.907   3.005   1.351 -0.0406  0.2645 -0.2872
 5197TIP3    H137150   4.985   2.955   1.331  0.2062 -0.1902  1.6977
 5197TIP3    H237151   4.842   2.940   1.376  0.0962  0.8257  1.7033
 5198TIP3   OH237152   5.115   2.089   1.472 -0.2667  0.3611  0.7151
 5198TIP3    H137153   5.205   2.059   1.459 -0.4712 -0.8111  1.8072
 5198TIP3    H237154   5.072   2.016   1.516 -1.6792  1.0301  0.4912
 5199TIP3   OH237155   1.188   3.451   8.198  0.3743  0.3110 -0.5166
 5199TIP3    H137156   1.131   3.503   8.254  1.4277 -1.0380  2.0205
 5199TIP3    H237157   1.143   3.368   8.188  1.3084 -0.3607  0.5584
 5200TIP3   OH237158   0.662   5.611   0.825 -0.3414 -0.4102  0.8145
 5200TIP3    H137159   0.738   5.612   0.767  0.0434  0.6366  1.3066
 5200TIP3    H237160   0.639   5.703   0.837 -1.5592 -0.6954  0.8532
 5201TIP3   OH237161   5.877   4.364   2.377  0.3994  0.0956 -0.0970
 5201TIP3    H137162   5.909   4.377   2.288 -2.4598 -0.3870 -1.2875
 5201TIP3    H237163   5.800   4.420   2.384  0.3754 -0.1013  1.9858
 5202TIP3   OH237164   0.989   3.889   7.835 -0.0748 -0.3494 -0.1901
 5202TIP3    H137165   1.015   3.810   7.786 -0.5295  0.0892 -1.1759
 5202TIP3    H237166   1.003   3.960   7.773  2.2913  0.6382  1.3351
 5203TIP3   OH237167   6.262   1.069   0.172 -0.1315  0.2966 -0.1791
 5203TIP3    H137168   6.183   1.030   0.135  0.2902 -2.2536  1.3622
 5203TIP3    H237169   6.302   0.998   0.222  3.7611  1.1141 -1.7981
 5204TIP3   OH237170   1.471   0.354   0.894  0.3784  0.1253  0.0398
 5204TIP3    H137171   1.507   0.433   0.854  2.0496 -0.9630 -0.7527
 5204TIP3    H237172   1.514   0.348   0.979  1.0899 -0.4708 -0.3489
 5205TIP3   OH237173   6.540   1.368   2.807  0.3360 -0.6911 -0.3838
 5205TIP3    H137174   6.572   1.294   2.755 -0.9097  0.3053 -2.7087
 5205TIP3    H237175   6.499   1.327   2.883  1.1630 -2.2920 -0.7521
 5206TIP3   OH237176   6.702   5.830   2.348  0.2920  0.2836 -0.0925
 5206TIP3    H137177   6.683   5.797   2.260  1.2874  1.9459 -0.9747
 5206TIP3    H237178   6.782   5.783   2.374 -0.8019 -1.3017  0.5952
 5207TIP3   OH237179   4.107   3.308   1.996  0.0243 -0.1645  0.1955
 5207TIP3    H137180   4.032   3.304   1.936 -0.7102  0.7847  1.0264
 5207TIP3    H237181   4.093   3.234   2.056 -1.2075  1.0097  1.4145
 5208TIP3   OH237182   1.168   0.171   0.558 -0.0628 -0.0924 -0.1129
 5208TIP3    H137183   1.240   0.180   0.620 -0.6570 -1.7898  0.9267
 5208TIP3    H237184   1.207   0.188   0.472  0.9143  1.7645  0.6547
 5209TIP3   OH237185   6.584   4.092   7.793  0.2798  0.4093  0.1373
 5209TIP3    H137186   6.639   4.114   7.718 -2.2383 -0.9359 -2.2926
 5209TIP3    H237187   6.588   3.996   7.798 -3.3110 -0.0180 -1.5891
 5210TIP3   OH237188   5.457   5.672   1.106 -0.5474 -0.1713  0.0387
 5210TIP3    H137189   5.527   5.678   1.171  0.5764  2.6341 -1.2564
 5210TIP3    H237190   5.401   5.602   1.138  0.9988 -0.2488  2.9554
 5211TIP3   OH237191   1.096   3.160   0.515 -0.1785  0.1472 -0.2614
 5211TIP3    H137192   1.057   3.106   0.584  0.2178  0.8095  0.4921
 5211TIP3    H237193   1.079   3.111   0.435 -0.4641 -0.7427  0.3231
 5212TIP3   OH237194   6.054   4.175   0.350 -0.3511 -0.4130 -0.3084
 5212TIP3    H137195   6.131   4.152   0.298 -0.3596 -2.1175  0.3723
 5212TIP3    H237196   5.994   4.102   0.338 -2.1670  1.1702 -1.3155
 5213TIP3   OH237197   2.895   6.280   8.294 -0.3649 -0.3991 -0.0619
 5213TIP3    H137198   2.943   6.347   8.344 -0.6587  0.1343 -0.4803
 5213TIP3    H237199   2.806   6.314   8.287 -0.4488 -0.6994 -0.5198
 5214TIP3   OH237200   0.912   3.523   0.779  0.0127  0.2221  0.4874
 5214TIP3    H137201   0.900   3.432   0.752  0.6816  0.4847 -0.7388
 5214TIP3    H237202   0.825   3.552   0.805 -0.5973 -0.1512 -1.0780
 5215TIP3   OH237203   6.192   2.661   8.303  0.4001  0.2011  0.1613
 5215TIP3    H137204   6.151   2.662   8.217  1.2180 -0.6247 -0.2566
 5215TIP3    H237205   6.120   2.653   8.364 -0.0757 -1.1546 -0.5525
 5216TIP3   OH237206   2.824   1.907   2.741 -0.1214  0.5451 -0.3973
 5216TIP3    H137207   2.804   1.933   2.651 -0.0318  0.7281 -0.3647
 5216TIP3    H237208   2.919   1.903   2.745 -0.1391 -0.2695 -0.5351
 5217TIP3   OH237209   1.865   2.470   2.010  0.9725  0.6687 -0.3356
 5217TIP3    H137210   1.809   2.547   2.001  1.7878  1.2502 -0.4060
 5217TIP3    H237211   1.929   2.477   1.940  1.3021  0.1311 -0.0965
 5218TIP3   OH237212   2.710   6.802   2.493 -0.1343 -0.3548  0.4110
 5218TIP3    H137213   2.759   6.852   2.428  1.7413 -1.0162  1.2591
 5218TIP3    H237214   2.714   6.855   2.573 -0.0317 -0.8295  0.7262
 5219TIP3   OH237215   0.347   0.288   0.349 -0.1770  0.0449 -0.3684
 5219TIP3    H137216   0.307   0.203   0.328  0.6635 -0.4455 -0.0132
 5219TIP3    H237217   0.441   0.271   0.350 -0.0739  0.4443  1.8957
 5220TIP3   OH237218   5.488   3.228   2.227 -0.0316  0.1962  0.3705
 5220TIP3    H137219   5.483   3.293   2.158 -1.1852  0.9410  1.1291
 5220TIP3    H237220   5.545   3.159   2.192 -0.1211  0.8382 -1.0672
 5221TIP3   OH237221   2.614   5.029   2.786  0.3152 -0.4996  0.2239
 5221TIP3    H137222   2.567   5.006   2.706 -0.2888  0.5465  0.2679
 5221TIP3    H237223   2.546   5.050   2.849  0.8222  0.5090  0.4564
 5222TIP3   OH237224   3.416   5.338   0.491 -0.1593  0.6409 -0.6125
 5222TIP3    H137225   3.402   5.361   0.399 -1.0164  3.3991  0.1304
 5222TIP3    H237226   3.333   5.299   0.519 -0.8945  2.3384 -0.3379
 5223TIP3   OH237227   0.749   2.477   1.994 -0.1723 -0.6123 -0.1389
 5223TIP3    H137228   0.686   2.547   2.014 -1.3512 -0.7231 -2.9800
 5223TIP3    H237229   0.832   2.523   1.985 -0.7045  0.2593 -0.7997
 5224TIP3   OH237230   2.403   5.251   1.800  0.5017  0.0647  0.3107
 5224TIP3    H137231   2.459   5.277   1.873 -0.3174 -0.0952  1.0034
 5224TIP3    H237232   2.341   5.323   1.790  0.4334 -0.0402 -0.0435
 5225TIP3   OH237233   3.714   5.736   0.405  0.2995  0.1541  0.1461
 5225TIP3    H137234   3.726   5.825   0.372  0.8776 -0.2652 -0.7998
 5225TIP3    H237235   3.667   5.748   0.488 -1.0078  1.2486 -0.7092
 5226TIP3   OH237236   1.843   3.548   7.808 -0.3997  0.1134 -0.1903
 5226TIP3    H137237   1.800   3.622   7.766 -1.5863 -0.2174  0.3934
 5226TIP3    H237238   1.934   3.552   7.777 -0.0458  2.6479  0.9447
 5227TIP3   OH237239   1.198   3.937   1.744 -0.2466 -0.0788  0.0978
 5227TIP3    H137240   1.188   3.942   1.649  1.9105 -1.0274 -0.2416
 5227TIP3    H237241   1.220   3.846   1.761 -0.1260  0.1812  1.4544
 5228TIP3   OH237242   3.229   5.581   2.631 -0.0075 -0.2952  0.0166
 5228TIP3    H137243   3.182   5.662   2.610  1.5562  1.3202  2.2964
 5228TIP3    H237244   3.275   5.559   2.550 -0.9968  0.6889 -0.8633
 5229TIP3   OH237245   5.919   4.402   0.330  0.0181  0.2592 -0.2769
 5229TIP3    H137246   5.955   4.314   0.338  1.1042  0.7419  0.3969
 5229TIP3    H237247   5.871   4.401   0.247  0.7313 -0.7299 -0.6971
 5230TIP3   OH237248   2.574   4.969   1.106  0.9575  0.8271  0.0745
 5230TIP3    H137249   2.534   4.967   1.194  2.5876  1.0075  0.8488
 5230TIP3    H237250   2.598   5.061   1.093  2.5995  0.4681  0.3494
 5231TIP3   OH237251   3.850   0.047   1.095  0.1447 -0.1518 -0.1680
 5231TIP3    H137252   3.878  -0.010   1.023  0.7650  0.6121 -0.5483
 5231TIP3    H237253   3.756   0.060   1.080  0.7363  2.3469 -2.5953
 5232TIP3   OH237254   6.733   4.430   8.233 -0.2398  0.0548 -0.0204
 5232TIP3    H137255   6.706   4.412   8.143 -0.2878  1.3134 -0.2660
 5232TIP3    H237256   6.828   4.416   8.233 -0.1041  0.8990 -0.4958
 5233TIP3   OH237257   2.142   3.136   8.187  0.3105 -0.2988 -0.1782
 5233TIP3    H137258   2.225   3.096   8.159  0.5882 -0.2625  0.5840
 5233TIP3    H237259   2.078   3.066   8.175  0.4968 -0.4228 -0.4848
 5234TIP3   OH237260   4.230   0.959   2.671  0.3725  0.2457  0.2129
 5234TIP3    H137261   4.278   1.041   2.656  1.6285 -0.2807  1.1684
 5234TIP3    H237262   4.293   0.891   2.650 -0.5988 -0.5053 -0.3587
 5235TIP3   OH237263   5.864   2.423   0.191 -0.0998 -0.2840  0.0117
 5235TIP3    H137264   5.875   2.335   0.228  0.5209 -0.0225  0.4447
 5235TIP3    H237265   5.860   2.481   0.266  3.0465  0.4876 -0.2726
 5236TIP3   OH237266   5.400   6.081   8.203  0.4635 -0.3584  0.3482
 5236TIP3    H137267   5.479   6.051   8.248 -0.6674 -1.4465  1.7047
 5236TIP3    H237268   5.329   6.062   8.265 -1.1208 -1.4926 -1.6970
 5237TIP3   OH237269   0.394   4.651   8.382 -0.8484  0.5025  0.2353
 5237TIP3    H137270   0.427   4.698   8.306 -1.3169  0.5847  0.0807
 5237TIP3    H237271   0.329   4.590   8.347 -0.2368 -0.2764  0.4308
 5238TIP3   OH237272   2.204   5.170   0.425 -0.0352 -0.3565 -0.2408
 5238TIP3    H137273   2.129   5.224   0.448  0.3513 -0.7856  2.2843
 5238TIP3    H237274   2.178   5.081   0.448  0.0257 -1.0639 -2.6147
 5239TIP3   OH237275   3.806   5.375   3.135  0.0303 -0.1413 -0.4531
 5239TIP3    H137276   3.795   5.421   3.218 -0.8586 -0.3425 -0.4507
 5239TIP3    H237277   3.792   5.442   3.068  0.9128  0.0578 -0.4507
 5240TIP3   OH237278   6.030   4.151   2.838 -0.0649 -0.2736  0.2465
 5240TIP3    H137279   5.984   4.199   2.907  1.3237  1.2249  0.1735
 5240TIP3    H237280   6.038   4.214   2.767  0.4401 -1.1217 -0.4658
 5241TIP3   OH237281   4.397   6.888   3.063 -0.4433  0.0094  0.4830
 5241TIP3    H137282   4.407   6.887   3.158 -1.3215  0.4084  0.5945
 5241TIP3    H237283   4.471   6.838   3.030 -1.6290 -2.5876  1.5206
 5242TIP3   OH237284   2.357   5.609   0.710  0.2063  0.2041 -0.4406
 5242TIP3    H137285   2.318   5.648   0.788  0.2672  0.0495 -0.3310
 5242TIP3    H237286   2.399   5.682   0.664  2.7854 -0.1003  1.2031
 5243TIP3   OH237287   1.898   1.554   0.847  0.4145  0.0206 -0.4411
 5243TIP3    H137288   1.831   1.609   0.807  0.4546 -0.5996 -1.3794
 5243TIP3    H237289   1.977   1.609   0.847 -0.7096  2.0618  3.6921
 5244TIP3   OH237290   2.552   2.943   7.540 -0.0173  0.4334  0.2341
 5244TIP3    H137291   2.465   2.957   7.501  1.1134  0.8260 -2.3804
 5244TIP3    H237292   2.570   3.023   7.589  0.2706  1.9742 -2.2199
 5245TIP3   OH237293   0.019   5.257   1.039  0.3398 -0.7661  0.2106
 5245TIP3    H137294  -0.000   5.349   1.057  1.8024 -0.6408  1.3329
 5245TIP3    H237295  -0.035   5.209   1.102  1.0924 -0.5735  1.0153
 5246TIP3   OH237296   3.054   1.101   0.485 -0.4148  0.5207 -0.5643
 5246TIP3    H137297   3.009   1.118   0.568  1.4666 -0.7918  0.7860
 5246TIP3    H237298   3.146   1.118   0.503  0.1330 -0.4979 -2.1630
 5247TIP3   OH237299   4.904   0.201   2.370  0.6228 -0.4627  0.0067
 5247TIP3    H137300   4.969   0.137   2.401  1.1177  0.0972  0.1474
 5247TIP3    H237301   4.936   0.226   2.283  0.0187 -0.9629 -0.3674
 5248TIP3   OH237302   1.595   6.082   8.486  0.1272  0.2360  0.3028
 5248TIP3    H137303   1.623   6.151   8.427 -0.8087  0.9985  0.7260
 5248TIP3    H237304   1.639   6.003   8.454 -1.2434  0.3745 -2.1778
 5249TIP3   OH237305   3.618   4.591   7.726  0.4975 -0.0468 -0.0075
 5249TIP3    H137306   3.564   4.643   7.666 -1.9108 -1.0494  1.1885
 5249TIP3    H237307   3.661   4.527   7.669 -0.5895 -0.0535 -0.8460
 5250TIP3   OH237308   1.717   4.773   2.823  0.4531 -0.3764  0.5070
 5250TIP3    H137309   1.796   4.724   2.798  1.7074  1.4558  0.6781
 5250TIP3    H237310   1.748   4.837   2.888 -0.9167  1.1394 -0.2601
 5251TIP3   OH237311   3.888   4.570   8.296  0.4591  0.0349  0.0403
 5251TIP3    H137312   3.950   4.530   8.357  1.6560  0.8604 -0.6098
 5251TIP3    H237313   3.838   4.631   8.350 -0.9343 -1.7585  0.9037
 5252TIP3   OH237314   5.371   5.581   8.035 -0.3769  0.3194  0.1292
 5252TIP3    H137315   5.378   5.561   7.942 -1.3070  2.2339 -0.3972
 5252TIP3    H237316   5.295   5.532   8.065 -1.2471  1.1992 -0.5920
 5253TIP3   OH237317   0.822   2.091   7.866  0.1183  0.1515 -0.5289
 5253TIP3    H137318   0.819   2.179   7.829 -1.5272 -0.1077 -1.0989
 5253TIP3    H237319   0.892   2.047   7.818  1.2986  1.2571  0.0960
 5254TIP3   OH237320   0.102   3.172   1.269 -0.7539  0.0240 -0.2693
 5254TIP3    H137321   0.063   3.099   1.222 -1.2504  0.3440 -0.3625
 5254TIP3    H237322   0.038   3.194   1.337  0.6432 -1.5045  1.6945
 5255TIP3   OH237323   3.002   1.499   0.658 -0.7505  0.4508 -0.1638
 5255TIP3    H137324   3.060   1.562   0.615 -0.7930  2.1914  2.1456
 5255TIP3    H237325   2.914   1.530   0.636 -0.7741  0.7654  0.3680
 5256TIP3   OH237326   1.588   5.872   2.045  0.1857 -0.3417  0.4152
 5256TIP3    H137327   1.682   5.863   2.055  0.2460  1.5128  2.1834
 5256TIP3    H237328   1.551   5.794   2.086  0.9342 -0.5405  0.7206
 5257TIP3   OH237329   6.574   2.548   1.788 -0.5531 -0.0350 -0.5637
 5257TIP3    H137330   6.558   2.640   1.810 -0.4902  0.2074 -1.4909
 5257TIP3    H237331   6.668   2.543   1.772 -0.2646 -0.6465  1.1747
 5258TIP3   OH237332   3.117   5.247   2.257 -0.7756 -0.3721  0.1865
 5258TIP3    H137333   3.142   5.339   2.262 -3.2943  0.3845  0.2862
 5258TIP3    H237334   3.078   5.237   2.171 -0.9413 -1.2443  0.3513
 5259TIP3   OH237335   5.662   0.396   1.112  0.2305 -0.3595  0.4522
 5259TIP3    H137336   5.594   0.398   1.179  0.2914 -3.9774  0.8611
 5259TIP3    H237337   5.616   0.418   1.031 -0.8262 -0.1252  1.0972
 5260TIP3   OH237338   6.602   0.007   8.063 -0.4538 -0.2184  0.1956
 5260TIP3    H137339   6.654   0.088   8.059  0.9129 -1.1102 -2.1145
 5260TIP3    H237340   6.620  -0.028   8.150  1.0752  0.6467  0.2743
 5261TIP3   OH237341   4.289   3.766   8.125  0.4578  0.0444  0.2172
 5261TIP3    H137342   4.266   3.856   8.146 -0.7231 -0.5664  1.7341
 5261TIP3    H237343   4.223   3.738   8.062  0.1494 -0.0870  0.5924
 5262TIP3   OH237344   3.248   2.746   2.803 -1.0776  0.3049 -0.8782
 5262TIP3    H137345   3.249   2.814   2.871 -1.9867  0.5176 -1.0753
 5262TIP3    H237346   3.263   2.793   2.722 -0.4311  0.1026 -0.8827
 5263TIP3   OH237347   3.205   0.316   2.519  1.3229  0.2039 -0.4648
 5263TIP3    H137348   3.136   0.251   2.530 -0.0029  1.5511 -0.5715
 5263TIP3    H237349   3.268   0.274   2.461 -0.2935 -0.4091 -1.8700
 5264TIP3   OH237350   5.555   2.855   8.359 -0.0843  0.2237  0.1424
 5264TIP3    H137351   5.479   2.799   8.340 -0.1196  0.8172 -1.6837
 5264TIP3    H237352   5.620   2.795   8.396 -0.5927 -0.7907 -0.5449
 5265TIP3   OH237353   1.239   1.819   2.733 -0.9980  0.3447 -0.0564
 5265TIP3    H137354   1.156   1.839   2.689 -1.3520 -0.2730  0.3171
 5265TIP3    H237355   1.225   1.846   2.824 -0.1596  1.9052 -0.3582
 5266TIP3   OH237356   5.506   3.236   0.647  0.3473 -0.8210  0.1710
 5266TIP3    H137357   5.442   3.271   0.709  1.5882 -0.9980  1.5964
 5266TIP3    H237358   5.481   3.144   0.636 -0.8539 -0.4076 -0.9252
 5267TIP3   OH237359   6.567   0.203   1.965  0.2219 -0.3103  0.4098
 5267TIP3    H137360   6.616   0.175   1.888 -0.3455 -2.2500  0.6811
 5267TIP3    H237361   6.475   0.199   1.937  0.0203 -0.8727  1.1053
 5268TIP3   OH237362   5.657   4.522   0.828 -0.2725  0.6870 -0.0082
 5268TIP3    H137363   5.731   4.514   0.768  1.1981  0.0858  1.7758
 5268TIP3    H237364   5.600   4.448   0.805  1.6616 -1.2680  1.0735
 5269TIP3   OH237365   6.640   6.068   0.442 -0.3028  0.4498  0.1130
 5269TIP3    H137366   6.600   6.056   0.356  2.4394 -1.4924 -1.0393
 5269TIP3    H237367   6.582   6.020   0.502 -1.2811  0.2853 -0.9290
 5270TIP3   OH237368   6.782   0.263   7.467 -0.6817  0.6748 -0.0021
 5270TIP3    H137369   6.805   0.209   7.391  0.2921 -0.0063  0.7567
 5270TIP3    H237370   6.727   0.333   7.431 -0.8791 -0.0695 -1.2116
 5271TIP3   OH237371   3.420   6.423   7.454 -0.4761 -0.4885 -0.3661
 5271TIP3    H137372   3.484   6.364   7.494 -0.0449 -0.1274 -0.5199
 5271TIP3    H237373   3.336   6.398   7.494  0.1534  1.0106  2.1437
 5272TIP3   OH237374   3.358   1.230   1.529 -0.0626  0.2113  0.4521
 5272TIP3    H137375   3.271   1.192   1.540 -0.6010  1.4801  0.8177
 5272TIP3    H237376   3.344   1.303   1.469  0.5880  0.9401  1.1603
 5273TIP3   OH237377   2.144   5.070   0.874 -0.1680  0.0724 -0.3694
 5273TIP3    H137378   2.059   5.109   0.892 -0.1259 -0.1888  0.4464
 5273TIP3    H237379   2.129   4.976   0.884  0.4036  0.0771  0.6246
 5274TIP3   OH237380   2.763   1.406   2.963 -0.1500  0.6117  0.6372
 5274TIP3    H137381   2.754   1.419   3.058  3.1314  0.9615  1.0204
 5274TIP3    H237382   2.714   1.326   2.945 -0.7166  0.4487  2.6724
 5275TIP3   OH237383   2.833   3.609   1.752 -0.0706  0.6963 -0.6651
 5275TIP3    H137384   2.849   3.532   1.696 -0.7418  0.7741 -0.9773
 5275TIP3    H237385   2.743   3.597   1.783  0.5161  0.3039  0.9764
 5276TIP3   OH237386   4.445   1.679   7.989 -0.0085 -0.1859  0.0617
 5276TIP3    H137387   4.454   1.661   7.895 -0.8783  2.5026 -0.6276
 5276TIP3    H237388   4.535   1.682   8.021  0.4827  1.5667 -1.3208
 5277TIP3   OH237389   3.309   2.328   2.168 -0.1427  0.1477  0.5518
 5277TIP3    H137390   3.311   2.334   2.073  1.2830 -0.1024  0.5459
 5277TIP3    H237391   3.218   2.310   2.189 -0.3362 -0.5635 -0.8191
 5278TIP3   OH237392   2.290   4.801   1.233  0.1843 -0.1692 -0.4600
 5278TIP3    H137393   2.204   4.836   1.257  0.2684  1.7054 -2.5419
 5278TIP3    H237394   2.352   4.854   1.284  0.1802 -0.8779  0.3137
 5279TIP3   OH237395   0.960   4.367   7.703  0.4309 -0.0125 -0.1835
 5279TIP3    H137396   1.008   4.435   7.751 -1.2974  0.9966  0.2135
 5279TIP3    H237397   0.995   4.371   7.614 -0.4700  2.3546 -0.5192
 5280TIP3   OH237398   1.975   3.264   0.967  0.3789 -0.1445 -0.6511
 5280TIP3    H137399   1.883   3.241   0.952  0.6932 -0.9984 -1.3050
 5280TIP3    H237400   1.989   3.341   0.911  0.1584 -0.2167 -0.8070
 5281TIP3   OH237401   2.261   1.319   7.767 -0.1205  0.3523 -0.3645
 5281TIP3    H137402   2.294   1.399   7.726  0.2387  1.1820  1.4600
 5281TIP3    H237403   2.340   1.270   7.791 -0.0400  2.0475  3.4398
 5282TIP3   OH237404   4.138   3.286   1.347 -0.2234 -0.5032 -0.1428
 5282TIP3    H137405   4.231   3.273   1.324 -0.4843 -1.3628 -0.7481
 5282TIP3    H237406   4.141   3.334   1.430  0.7620  0.1170 -0.5026
 5283TIP3   OH237407   3.687   4.885   1.774 -0.1134  0.0431 -0.5196
 5283TIP3    H137408   3.740   4.937   1.713 -1.5059  1.9196 -0.2512
 5283TIP3    H237409   3.600   4.882   1.732 -1.2966  1.9720  1.5810
 5284TIP3   OH237410   5.216   6.320   0.892 -0.2866 -0.8643  0.1935
 5284TIP3    H137411   5.133   6.272   0.902 -1.1484  0.6256  0.4028
 5284TIP3    H237412   5.190   6.407   0.864  1.1914 -0.2288  0.7252
 5285TIP3   OH237413   0.909   6.116   0.377  0.1715  0.0227 -0.0190
 5285TIP3    H137414   0.914   6.153   0.465 -0.7999  1.3638 -0.4825
 5285TIP3    H237415   0.826   6.150   0.342  0.9792  0.2943 -1.7711
 5286TIP3   OH237416   2.287   2.946   2.682 -0.3543  0.2304  0.1603
 5286TIP3    H137417   2.362   2.958   2.740 -0.4282  1.1433  0.0863
 5286TIP3    H237418   2.308   2.998   2.604 -1.3508  1.0634  0.4214
 5287TIP3   OH237419   5.680   4.961   7.628  0.6477 -0.3279 -0.7128
 5287TIP3    H137420   5.749   4.952   7.694  0.4038 -0.7027 -0.5024
 5287TIP3    H237421   5.652   4.871   7.611 -0.2878 -0.1410 -0.2505
 5288TIP3   OH237422   2.055   1.297   8.022  0.1113 -0.5034  0.1555
 5288TIP3    H137423   2.050   1.372   8.082 -0.0628  0.4317 -0.9855
 5288TIP3    H237424   2.148   1.284   8.008  0.1421  0.9234 -1.3020
 5289TIP3   OH237425   1.683   4.202   1.532 -0.0361  0.2009 -0.0379
 5289TIP3    H137426   1.655   4.256   1.607 -1.6975 -1.0549  0.2985
 5289TIP3    H237427   1.603   4.156   1.504  0.9437 -0.7102 -1.4572
 5290TIP3   OH237428   1.245   6.467   0.089 -0.5843 -0.1047 -0.8659
 5290TIP3    H137429   1.325   6.418   0.070 -0.0965  0.0953  0.5213
 5290TIP3    H237430   1.243   6.474   0.185 -1.2568  1.5729 -0.9602
 5291TIP3   OH237431   4.178   1.992   0.538 -0.0534 -0.3237  0.3490
 5291TIP3    H137432   4.164   2.086   0.529  2.5928  0.0656 -0.4894
 5291TIP3    H237433   4.138   1.954   0.460  2.1438  0.5788 -1.3225
 5292TIP3   OH237434   4.090   3.179   0.399  0.2658  0.0194 -0.0406
 5292TIP3    H137435   3.999   3.203   0.417 -0.3603 -1.5443 -0.9269
 5292TIP3    H237436   4.087   3.133   0.316  1.9220  0.1197 -0.1964
 5293TIP3   OH237437   4.464   6.766   1.940 -0.0645 -0.6820  0.0070
 5293TIP3    H137438   4.491   6.686   1.984 -2.5827 -2.1096 -0.8099
 5293TIP3    H237439   4.483   6.750   1.847  1.2576  0.5349  0.0363
 5294TIP3   OH237440   6.091   2.511   3.054  0.6050 -0.3265 -0.2309
 5294TIP3    H137441   6.164   2.450   3.056  0.0656 -0.9574  1.1515
 5294TIP3    H237442   6.119   2.584   3.109  0.1856 -0.5955  0.3497
 5295TIP3   OH237443   6.504   3.808   0.364 -0.3556 -0.3505  0.2338
 5295TIP3    H137444   6.514   3.818   0.459  0.6732 -1.9393  0.3334
 5295TIP3    H237445   6.569   3.741   0.340  0.4939  1.1014 -1.8249
 5296TIP3   OH237446   1.684   5.394   7.763  0.0813  0.1666  0.0353
 5296TIP3    H137447   1.652   5.310   7.729 -1.8488  0.4455  1.0333
 5296TIP3    H237448   1.665   5.456   7.692  1.2772 -0.1498 -0.5996
 5297TIP3   OH237449   3.220   6.168   2.972 -0.3176  0.3302 -0.0031
 5297TIP3    H137450   3.163   6.092   2.983  0.1405  0.1843  1.7087
 5297TIP3    H237451   3.288   6.139   2.912  0.5595 -1.0805  1.5762
 5298TIP3   OH237452   0.794   1.139   2.622 -0.2538  0.3367  0.3262
 5298TIP3    H137453   0.854   1.108   2.554 -0.1973 -0.7087  0.8541
 5298TIP3    H237454   0.813   1.085   2.698 -1.7175  0.1273  0.5645
 5299TIP3   OH237455   3.809   5.993   8.358 -0.0388 -0.2552  0.1829
 5299TIP3    H137456   3.841   6.015   8.445  3.3480 -0.2571 -0.9190
 5299TIP3    H237457   3.817   5.897   8.353 -0.4973 -0.2867 -0.0442
 5300TIP3   OH237458   3.746   0.861   1.065 -0.8539  0.1963 -0.0384
 5300TIP3    H137459   3.722   0.787   1.121 -1.2629 -0.2746 -0.8105
 5300TIP3    H237460   3.691   0.933   1.096 -1.3878 -0.1756 -0.1103
 5301TIP3   OH237461   5.788   4.577   1.426 -0.2988  0.2082  0.1545
 5301TIP3    H137462   5.827   4.569   1.513  1.7425 -0.2051 -0.7243
 5301TIP3    H237463   5.722   4.508   1.422 -0.2804  0.1095  1.2961
 5302TIP3   OH237464   0.433   5.618   2.416  0.0974 -0.8910  0.1164
 5302TIP3    H137465   0.379   5.687   2.376  1.6185  0.5848  0.4789
 5302TIP3    H237466   0.519   5.658   2.425  0.8399 -2.6137  1.0726
 5303TIP3   OH237467   4.509   3.887   1.482 -0.5697 -0.2228 -0.6451
 5303TIP3    H137468   4.553   3.972   1.473 -1.3624  0.2064 -0.5214
 5303TIP3    H237469   4.518   3.865   1.575 -0.2404 -0.3516 -0.7039
 5304TIP3   OH237470   3.661   3.958   1.127  0.1284 -0.4538 -0.8446
 5304TIP3    H137471   3.569   3.930   1.136  0.3175 -1.2984 -1.4327
 5304TIP3    H237472   3.696   3.953   1.216 -0.5706  0.5465 -0.4940
 5305TIP3   OH237473   3.420   1.952   7.511  0.1527 -0.4561  0.0586
 5305TIP3    H137474   3.345   1.905   7.549  1.2557 -1.8328  0.6246
 5305TIP3    H237475   3.381   2.028   7.468 -1.6829 -1.6607 -0.5370
 5306TIP3   OH237476   1.493   3.899   7.698 -0.4695  0.9586  0.1073
 5306TIP3    H137477   1.583   3.874   7.675 -0.0071  0.4034  2.2896
 5306TIP3    H237478   1.477   3.979   7.648  0.4983  0.0093 -1.8243
 5307TIP3   OH237479   2.363   4.526   1.613 -0.1706 -0.1553 -0.9407
 5307TIP3    H137480   2.431   4.541   1.548  3.1068 -0.1218  2.1602
 5307TIP3    H237481   2.326   4.613   1.630  2.2965  0.7048  0.4620
 5308TIP3   OH237482   5.435   2.818   7.260 -1.1790  0.2416 -0.2153
 5308TIP3    H137483   5.363   2.881   7.247 -0.9702  0.2336 -1.4901
 5308TIP3    H237484   5.507   2.854   7.209 -1.4400 -1.6569 -2.0408
 5309TIP3   OH237485   2.851   2.687   0.054 -0.2012  0.5242 -0.2980
 5309TIP3    H137486   2.883   2.630  -0.015  0.7037 -0.2514  0.7314
 5309TIP3    H237487   2.892   2.772   0.037 -1.4233  0.8734 -1.7361
 5310TIP3   OH237488   6.872   3.041   0.862 -0.1087  0.5542 -0.4453
 5310TIP3    H137489   6.904   3.035   0.952  2.7225 -0.3964 -1.4238
 5310TIP3    H237490   6.782   3.074   0.871  1.0117  3.3702  2.5684
 5311TIP3   OH237491   3.648   4.071   0.875 -0.5753  0.0337  0.0142
 5311TIP3    H137492   3.691   4.038   0.953  0.3201  0.3305 -0.3439
 5311TIP3    H237493   3.702   4.040   0.802 -0.1381  1.5918 -0.3728
 5312TIP3   OH237494   5.692   1.302   0.243  0.5448 -0.3334 -0.0621
 5312TIP3    H137495   5.619   1.364   0.243  1.1908  0.4930 -1.9269
 5312TIP3    H237496   5.686   1.258   0.327  0.6780  2.9907  1.8619
 5313TIP3   OH237497   5.627   2.196   3.261  0.1841 -0.1141 -0.2878
 5313TIP3    H137498   5.556   2.151   3.306 -0.0848 -0.2889 -0.8739
 5313TIP3    H237499   5.662   2.132   3.200  0.7587  0.0161 -0.0961
 5314TIP3   OH237500   6.172   0.462   2.277 -0.0584  0.0749 -0.4573
 5314TIP3    H137501   6.202   0.552   2.273 -1.1503  0.4462 -0.9025
 5314TIP3    H237502   6.087   0.463   2.232 -0.3129 -1.0785 -0.0532
 5315TIP3   OH237503   6.332   0.903   1.941  0.7888 -0.6919 -0.1635
 5315TIP3    H137504   6.248   0.933   1.975  0.8738 -0.0219 -0.5220
 5315TIP3    H237505   6.358   0.970   1.878  2.0143 -0.4223  0.5852
 5316TIP3   OH237506   2.766   3.194   2.777 -0.2569  0.0145  0.1902
 5316TIP3    H137507   2.765   3.101   2.801 -0.1251 -0.0891 -0.2019
 5316TIP3    H237508   2.858   3.213   2.760 -0.1857  0.3969  0.9437
 5317TIP3   OH237509   4.353   2.668   1.595  0.0311  0.6140 -0.3169
 5317TIP3    H137510   4.262   2.697   1.602 -0.1411  0.0742 -0.2852
 5317TIP3    H237511   4.354   2.613   1.517  0.2271  0.2472 -0.0570
 5318TIP3   OH237512   5.326   1.805   8.528 -0.0152  0.1131 -0.4681
 5318TIP3    H137513   5.400   1.832   8.581 -0.0238 -1.7135  0.5655
 5318TIP3    H237514   5.360   1.798   8.439  1.0767 -0.7346  0.0001
 5319TIP3   OH237515   1.004   1.333   2.682 -0.3442  0.2120  0.1707
 5319TIP3    H137516   0.928   1.275   2.694 -1.2294  0.9410 -1.5503
 5319TIP3    H237517   1.023   1.366   2.770 -1.7791 -0.3073  0.7045
 5320TIP3   OH237518   1.400   0.661   1.274 -0.0304 -0.5402 -0.4296
 5320TIP3    H137519   1.451   0.584   1.299 -1.5963 -1.6853 -0.6100
 5320TIP3    H237520   1.322   0.625   1.232 -0.3740  1.1913 -1.3250
 5321TIP3   OH237521   6.005   2.346   7.637  0.4261  0.2531 -0.3569
 5321TIP3    H137522   5.939   2.343   7.567 -0.9693 -2.3555  0.9190
 5321TIP3    H237523   5.956   2.332   7.717  1.8839  3.8851  1.4054
 5322TIP3   OH237524   2.579   4.267   1.707  0.4859  0.3252  0.0763
 5322TIP3    H137525   2.575   4.241   1.615  0.2667 -1.0108  0.4324
 5322TIP3    H237526   2.487   4.272   1.734  0.5377 -1.4020  0.7376
 5323TIP3   OH237527   6.106   2.245   7.347  0.0773  0.1393 -0.5319
 5323TIP3    H137528   6.157   2.228   7.268 -0.7962 -0.3696 -0.9993
 5323TIP3    H237529   6.028   2.290   7.316 -0.2325  0.0129  0.0543
 5324TIP3   OH237530   5.115   3.083   7.525 -0.6366  0.0402  0.2633
 5324TIP3    H137531   5.163   3.144   7.469 -1.0090  1.9981  1.9749
 5324TIP3    H237532   5.184   3.035   7.572 -0.2532  2.0151  1.8412
 5325TIP3   OH237533   6.044   6.380   3.125 -0.2778 -0.2729  0.2149
 5325TIP3    H137534   6.026   6.379   3.032  1.2766 -1.5821 -0.1286
 5325TIP3    H237535   6.083   6.466   3.141  0.6975 -0.5325 -0.6416
 5326TIP3   OH237536   3.797   0.831   0.809  0.6024  0.1027  0.0634
 5326TIP3    H137537   3.734   0.858   0.741  1.0962 -0.5943 -0.6952
 5326TIP3    H237538   3.753   0.851   0.892  0.1786  1.4131 -0.4519
 5327TIP3   OH237539   0.972   6.806   1.042 -0.1950  0.0484  0.2671
 5327TIP3    H137540   0.962   6.761   0.958  0.8055  0.2208  0.0441
 5327TIP3    H237541   0.922   6.752   1.104 -0.2740 -0.5236 -0.2783
 5328TIP3   OH237542   5.017   1.331   1.738  0.2683 -0.2538  0.4007
 5328TIP3    H137543   4.971   1.252   1.709  0.8919 -0.2387 -0.6726
 5328TIP3    H237544   4.991   1.398   1.675 -0.7369  0.5760  1.6522
 5329TIP3   OH237545   0.703   2.153   0.310 -0.1342 -0.0518 -0.3322
 5329TIP3    H137546   0.752   2.223   0.267 -0.1881  0.7402  0.8255
 5329TIP3    H237547   0.661   2.104   0.239  1.3260  0.0076 -1.2706
 5330TIP3   OH237548   2.336   6.304   1.492  0.5302 -0.0622  0.5939
 5330TIP3    H137549   2.404   6.246   1.527  1.7077  2.3705  2.6419
 5330TIP3    H237550   2.385   6.377   1.454 -0.7148  3.3312  4.8917
 5331TIP3   OH237551   6.482   1.484   2.110  0.0273 -0.4919  0.1049
 5331TIP3    H137552   6.466   1.509   2.019  3.7581 -0.9076 -0.8642
 5331TIP3    H237553   6.501   1.566   2.155  0.1521 -0.4453 -0.0288
 5332TIP3   OH237554   1.523   1.280   8.285 -0.2582 -0.5847 -0.0682
 5332TIP3    H137555   1.542   1.369   8.316 -1.0031 -0.3086 -0.3973
 5332TIP3    H237556   1.581   1.224   8.337  0.6474  0.1375 -0.2704
 5333TIP3   OH237557   1.577   0.718   0.578 -0.5685 -0.0257  0.0736
 5333TIP3    H137558   1.592   0.812   0.591 -0.2239 -0.3389  2.3657
 5333TIP3    H237559   1.530   0.690   0.657 -0.0128 -1.9249 -0.2175
 5334TIP3   OH237560   5.790   5.239   1.457 -0.3771 -0.1612 -0.3348
 5334TIP3    H137561   5.787   5.221   1.363 -1.0709 -1.0168 -0.1667
 5334TIP3    H237562   5.869   5.291   1.470  0.2706 -0.8971 -1.2549
 5335TIP3   OH237563   0.846   2.958   8.207  0.5252  0.1241 -0.1428
 5335TIP3    H137564   0.915   2.995   8.152  0.6987  0.1915  0.1205
 5335TIP3    H237565   0.806   2.890   8.153  0.5113  0.3798 -0.4569
 5336TIP3   OH237566   5.957   3.047   2.445 -0.1180  0.4142 -0.0396
 5336TIP3    H137567   6.034   3.037   2.388  0.6437  1.5099  0.7691
 5336TIP3    H237568   5.889   3.082   2.388  0.7144  1.7536 -0.2416
 5337TIP3   OH237569   4.252   4.987   8.318 -0.1549 -0.1295  0.2239
 5337TIP3    H137570   4.191   5.049   8.278 -0.1470 -1.0108 -1.2135
 5337TIP3    H237571   4.339   5.024   8.300 -0.1965  0.3806  1.0097
 5338TIP3   OH237572   6.737   4.200   1.135  0.8167 -0.3823 -0.8724
 5338TIP3    H137573   6.647   4.224   1.153  0.8568  0.6263 -1.9024
 5338TIP3    H237574   6.784   4.221   1.216  0.5263  1.3435 -1.1249
 5339TIP3   OH237575   3.233   6.100   0.423  0.0909 -0.4828  0.1909
 5339TIP3    H137576   3.261   6.112   0.514  2.2313  1.1424 -0.6117
 5339TIP3    H237577   3.269   6.015   0.399  1.5978  0.1132  0.2020
 5340TIP3   OH237578   1.493   4.249   6.642 -0.3745  0.2846 -0.7879
 5340TIP3    H137579   1.419   4.188   6.637 -0.1127 -0.1014 -0.0945
 5340TIP3    H237580   1.452   4.335   6.654 -0.7564  0.3041 -2.0985
 5341TIP3   OH237581   6.380   1.217   0.586  0.4018  0.3159  0.4508
 5341TIP3    H137582   6.296   1.263   0.578 -0.9269 -2.0367 -0.0152
 5341TIP3    H237583   6.424   1.233   0.503 -0.0235  0.7282  0.2971
 5342TIP3   OH237584   4.828   5.416   1.173 -0.1351  0.6287 -0.0683
 5342TIP3    H137585   4.917   5.390   1.194 -0.0671  0.3616 -0.6607
 5342TIP3    H237586   4.777   5.335   1.180  0.0036  0.3869 -1.5029
 5343TIP3   OH237587   3.417   0.120   8.538  0.0117  0.0207 -0.0206
 5343TIP3    H137588   3.356   0.069   8.591 -0.1085 -1.0714 -1.1521
 5343TIP3    H237589   3.479   0.157   8.601  0.1728 -1.6335  0.8499
 5344TIP3   OH237590   6.013   4.294   3.850  0.0892  0.1000 -0.5076
 5344TIP3    H137591   6.050   4.256   3.770 -1.1462  0.9494 -1.5113
 5344TIP3    H237592   5.941   4.235   3.874  0.1729  0.0947 -0.2646
 5345TIP3   OH237593   3.500   2.974   0.463  0.7198  0.1483  0.2465
 5345TIP3    H137594   3.429   3.007   0.408  0.8663  1.2378  0.6872
 5345TIP3    H237595   3.456   2.922   0.530  0.4543 -0.2818 -0.2512
 5346TIP3   OH237596   5.610   1.544   0.048 -0.7534 -0.0256  0.1310
 5346TIP3    H137597   5.556   1.542   0.127 -1.4817 -1.3289 -0.3607
 5346TIP3    H237598   5.659   1.625   0.054 -0.2401 -0.4500  2.2939
 5347TIP3   OH237599   5.838   5.469   0.496  0.5842  0.2719 -0.4948
 5347TIP3    H137600   5.869   5.425   0.417  1.2316  0.9326 -0.6172
 5347TIP3    H237601   5.766   5.414   0.527 -0.1784  0.3780 -1.9432
 5348TIP3   OH237602   3.788   3.632   1.282  0.3080 -0.7071 -0.1883
 5348TIP3    H137603   3.871   3.621   1.237  0.3799 -0.4419 -0.1155
 5348TIP3    H237604   3.757   3.542   1.296  0.1062 -0.7857 -1.0910
 5349TIP3   OH237605   2.051   2.315   0.823  0.0108  0.6024 -0.3778
 5349TIP3    H137606   1.978   2.279   0.772 -0.0951  1.3562 -0.7692
 5349TIP3    H237607   2.125   2.257   0.803 -0.0199  0.9114 -1.4240
 5350TIP3   OH237608   3.599   1.134   1.627  0.2988  0.1180  0.2675
 5350TIP3    H137609   3.522   1.143   1.572 -0.3408 -0.1792  1.0961
 5350TIP3    H237610   3.669   1.108   1.566  0.1326  1.8350 -0.7390
 5351TIP3   OH237611   5.191   0.141   1.632  0.1278 -0.2711  0.2736
 5351TIP3    H137612   5.187   0.053   1.671 -1.0061 -0.4376 -0.1872
 5351TIP3    H237613   5.222   0.126   1.543 -1.3509 -0.3680 -0.2421
 5352TIP3   OH237614   1.298   5.026   1.711 -0.4568  0.3461 -0.2037
 5352TIP3    H137615   1.348   5.045   1.791 -0.1132  1.4360 -0.6565
 5352TIP3    H237616   1.210   5.007   1.743 -0.0085 -0.6230  0.5293
 5353TIP3   OH237617   1.248   4.202   1.546  0.7588 -0.4721  0.1708
 5353TIP3    H137618   1.302   4.275   1.518  0.0443 -0.0856 -0.2112
 5353TIP3    H237619   1.264   4.134   1.480 -0.3103  0.1544 -0.7774
 5354TIP3   OH237620   1.429   2.965   2.837  0.0514  0.3073  0.1839
 5354TIP3    H137621   1.346   2.989   2.796  0.1981  0.5579  0.0340
 5354TIP3    H237622   1.412   2.969   2.931 -0.7548 -1.8216  0.1923
 5355TIP3   OH237623   4.161   1.281   2.578 -0.3920 -0.0074 -0.2443
 5355TIP3    H137624   4.175   1.316   2.666  0.1387 -0.8388  0.0030
 5355TIP3    H237625   4.067   1.291   2.564 -0.1605  2.3062 -0.5245
 5356TIP3   OH237626   3.864   1.222   2.567  0.5576 -0.2899  0.1385
 5356TIP3    H137627   3.862   1.127   2.576  0.4192 -0.4941 -1.7003
 5356TIP3    H237628   3.778   1.245   2.533  0.7897  0.4341  0.0150
 5357TIP3   OH237629   3.237   1.246   2.873  0.1964  1.1550 -0.4297
 5357TIP3    H137630   3.287   1.299   2.935 -0.6419 -0.4741  1.7312
 5357TIP3    H237631   3.152   1.234   2.914 -0.4537  0.1501 -1.9841
 5358TIP3   OH237632   2.491   2.008   2.920  0.4260 -0.8026 -0.1021
 5358TIP3    H137633   2.469   1.954   2.844 -0.9984  1.5264 -1.4799
 5358TIP3    H237634   2.586   2.022   2.913  0.3883 -1.0042 -1.1710
 5359TIP3   OH237635   5.801   6.336   2.608 -0.2135 -0.1691 -0.0719
 5359TIP3    H137636   5.893   6.329   2.586 -0.5197  0.0895 -1.5248
 5359TIP3    H237637   5.774   6.247   2.630 -0.0027 -0.5363 -1.2679
 5360TIP3   OH237638   3.348   4.331   1.435  0.2191  0.6890 -0.6941
 5360TIP3    H137639   3.366   4.300   1.524  0.0616  0.7605 -0.6376
 5360TIP3    H237640   3.258   4.305   1.418  0.6073 -0.3325 -1.2630
 5361TIP3   OH237641   3.836   5.079   1.700 -0.5523 -0.5585  0.3450
 5361TIP3    H137642   3.891   5.037   1.633 -0.8677 -0.5110  0.0519
 5361TIP3    H237643   3.823   5.168   1.667  0.3046 -0.1432  1.0745
 5362TIP3   OH237644   0.579   2.587   8.289 -0.4118  0.0997 -0.2102
 5362TIP3    H137645   0.589   2.613   8.380 -2.2139  0.0868  0.0237
 5362TIP3    H237646   0.665   2.602   8.250  1.0509 -2.0475  1.9843
 5363TIP3   OH237647   2.820   6.273   1.904  0.0321 -0.2661 -0.0050
 5363TIP3    H137648   2.732   6.289   1.937 -1.3891  0.1272 -3.5241
 5363TIP3    H237649   2.847   6.356   1.866  0.5575 -1.1610 -1.6895
 5364TIP3   OH237650   6.399   5.648   1.924  0.3691 -0.0561  0.5406
 5364TIP3    H137651   6.437   5.606   1.847  1.5163  0.9717  0.5124
 5364TIP3    H237652   6.311   5.674   1.897  0.2007 -1.0417  0.0811
 5365TIP3   OH237653   2.776   1.261   0.491 -0.1210  0.1373 -0.4353
 5365TIP3    H137654   2.791   1.169   0.467  0.9088  0.0376  0.5001
 5365TIP3    H237655   2.855   1.307   0.463 -0.0628  0.4939  0.2875
 5366TIP3   OH237656   5.907   2.523   2.039 -0.1667  0.2430  0.3144
 5366TIP3    H137657   5.820   2.490   2.016  0.1026  0.5977 -1.3072
 5366TIP3    H237658   5.890   2.602   2.090 -0.7826 -0.2798  0.9541
 5367TIP3   OH237659   1.281   2.176   7.765  0.8563 -0.6349 -0.2528
 5367TIP3    H137660   1.343   2.249   7.759 -0.8162  0.8888  0.1663
 5367TIP3    H237661   1.196   2.218   7.778 -0.4322 -2.5917 -1.7559
 5368TIP3   OH237662   5.715   0.731   7.327  0.6535 -0.5711  0.2456
 5368TIP3    H137663   5.677   0.817   7.344  1.8576  0.3101 -1.3134
 5368TIP3    H237664   5.786   0.723   7.391  0.7972 -0.2444  0.1236
 5369TIP3   OH237665   2.525   6.751   0.483 -0.2571  0.3916  0.1322
 5369TIP3    H137666   2.556   6.665   0.512  0.8327  0.3781 -1.0007
 5369TIP3    H237667   2.464   6.733   0.412  0.0265  0.5446 -0.1550
 5370TIP3   OH237668   4.430   4.821   8.522  0.2570 -0.0900 -0.6700
 5370TIP3    H137669   4.378   4.835   8.601  1.1209 -2.1148  0.3421
 5370TIP3    H237670   4.476   4.903   8.508 -2.5414  1.5219 -1.1620
 5371TIP3   OH237671   5.812   3.244   8.225 -0.5900 -0.0224 -0.1914
 5371TIP3    H137672   5.838   3.198   8.146 -0.0059  1.0288 -0.6234
 5371TIP3    H237673   5.863   3.325   8.224 -2.6963  1.3722 -0.2445
 5372TIP3   OH237674   5.561   2.401   1.723 -0.1210 -0.2833  0.2733
 5372TIP3    H137675   5.554   2.309   1.751  0.0293 -0.2061  0.5682
 5372TIP3    H237676   5.498   2.448   1.778 -0.9982 -0.3704 -0.6334
 5373TIP3   OH237677   3.560   0.498   1.955 -0.1138  0.1893 -0.5888
 5373TIP3    H137678   3.500   0.439   1.909 -0.5531  0.1257  0.0534
 5373TIP3    H237679   3.640   0.448   1.965  0.1035  0.3253 -1.5846
 5374TIP3   OH237680   3.446   4.828   2.917 -0.0403 -0.2609 -0.2949
 5374TIP3    H137681   3.375   4.874   2.962  1.3679  1.1889  0.5200
 5374TIP3    H237682   3.459   4.879   2.836 -1.8996 -2.2845 -2.0119
 5375TIP3   OH237683   0.752   2.878   7.496  0.2898  0.1231 -0.0326
 5375TIP3    H137684   0.797   2.815   7.551 -0.8203  0.5536  1.4313
 5375TIP3    H237685   0.820   2.938   7.467  0.7292  0.7731  2.1379
 5376TIP3   OH237686   6.615   4.588   0.943  0.1944 -0.1830  0.4381
 5376TIP3    H137687   6.638   4.581   1.036 -0.4704 -2.5023  0.4834
 5376TIP3    H237688   6.619   4.682   0.925  2.5571  0.1571  2.2170
 5377TIP3   OH237689   4.501   2.219   2.715  0.2569 -0.6565 -0.4262
 5377TIP3    H137690   4.440   2.280   2.675  0.0086 -0.2308  0.5770
 5377TIP3    H237691   4.587   2.257   2.698  0.3198 -1.5376 -2.3171
 5378TIP3   OH237692   5.906   6.757   2.667 -0.3104  0.2402 -0.4011
 5378TIP3    H137693   5.865   6.671   2.670  0.4382 -0.1492 -1.0243
 5378TIP3    H237694   5.843   6.812   2.619 -1.5647  0.5026  1.4469
 5379TIP3   OH237695   3.917   1.181   0.232 -0.1159 -0.1850 -0.5816
 5379TIP3    H137696   3.869   1.263   0.242 -1.0241 -0.7659  0.0538
 5379TIP3    H237697   3.901   1.154   0.142 -0.9049 -0.3106 -0.4123
 5380TIP3   OH237698   6.003   5.710   7.547 -0.5754  0.3095  0.0174
 5380TIP3    H137699   5.983   5.732   7.456  0.4211  1.6541  0.0865
 5380TIP3    H237700   6.095   5.687   7.546 -0.8544 -0.9060  0.5075
 5381TIP3   OH237701   1.635   0.112   7.849  0.1436 -0.6574  0.0847
 5381TIP3    H137702   1.676   0.073   7.772  0.7178 -0.6179  0.3622
 5381TIP3    H237703   1.573   0.046   7.880  1.4027 -1.5669  0.8002
 5382TIP3   OH237704   1.733   2.867   3.057 -0.3524 -0.1281 -0.4558
 5382TIP3    H137705   1.775   2.930   3.116 -0.0501 -0.0025 -0.8036
 5382TIP3    H237706   1.657   2.836   3.106 -0.2658  0.1926 -0.1119
 5383TIP3   OH237707   6.678   6.118   7.431  0.2145 -0.8482  0.2531
 5383TIP3    H137708   6.599   6.122   7.486 -0.4849 -0.0809 -0.7652
 5383TIP3    H237709   6.646   6.132   7.342  1.4555 -0.9799 -0.2321
 5384TIP3   OH237710   5.371   3.281   1.850  0.4113 -0.0046 -0.0996
 5384TIP3    H137711   5.336   3.366   1.825  2.6793  0.3799 -2.4575
 5384TIP3    H237712   5.416   3.297   1.933 -1.6781  0.3291  1.0184
 5385TIP3   OH237713   0.117   6.823   2.064  0.4551  0.2551  0.5976
 5385TIP3    H137714   0.033   6.836   2.021 -0.6634  0.2878  2.6434
 5385TIP3    H237715   0.146   6.912   2.088 -0.8057  0.0935  3.1078
 5386TIP3   OH237716   5.115   2.237   2.990  0.0810 -0.5218  0.0276
 5386TIP3    H137717   5.196   2.279   3.019  0.4374 -0.4464 -1.0377
 5386TIP3    H237718   5.048   2.305   2.999 -0.1314 -0.9431  2.0649
 5387TIP3   OH237719   5.455   2.068   8.372 -0.3570  1.0367  0.0765
 5387TIP3    H137720   5.521   2.024   8.319 -1.6681 -0.4273 -0.3911
 5387TIP3    H237721   5.373   2.054   8.326 -1.0443  2.7969  0.6619
 5388TIP3   OH237722   3.285   3.474   0.589 -0.4722 -0.2025 -0.0342
 5388TIP3    H137723   3.307   3.381   0.590  0.8992  0.1002 -0.8451
 5388TIP3    H237724   3.355   3.515   0.639 -1.7438  0.2870  1.4205
 5389TIP3   OH237725   0.261   4.238   2.014 -0.2349 -0.3653 -0.2971
 5389TIP3    H137726   0.240   4.303   1.946  0.8398 -0.1337 -0.4302
 5389TIP3    H237727   0.176   4.210   2.047 -0.7277  1.1135 -0.2316
 5390TIP3   OH237728   0.063   0.175   7.888  0.1456  0.2491 -0.3706
 5390TIP3    H137729   0.071   0.082   7.869 -2.7503 -0.0786 -0.4723
 5390TIP3    H237730   0.153   0.207   7.889  1.1681 -2.2885 -1.4919
 5391TIP3   OH237731   3.162   5.953   3.606 -0.2640  0.2447 -0.3582
 5391TIP3    H137732   3.249   5.942   3.568  0.3405 -0.7291  1.2236
 5391TIP3    H237733   3.103   5.953   3.531  0.9660 -0.5073 -1.3674
 5392TIP3   OH237734   5.056   1.672   2.975  0.0658 -0.0826 -0.8415
 5392TIP3    H137735   5.135   1.724   2.989 -0.6173  1.2114 -1.5979
 5392TIP3    H237736   4.988   1.720   3.022 -0.6189 -0.1859 -1.7138
 5393TIP3   OH237737   4.367   6.003   1.907  0.2748 -0.6731  0.1718
 5393TIP3    H137738   4.456   5.967   1.907  0.8508  0.6755 -0.1264
 5393TIP3    H237739   4.355   6.035   1.997  0.4112 -0.1563  0.0140
 5394TIP3   OH237740   1.069   2.309   0.585 -0.2889 -0.3747  0.0103
 5394TIP3    H137741   1.056   2.384   0.643 -3.2704 -0.2217 -0.7011
 5394TIP3    H237742   1.164   2.297   0.583  0.1708  2.1138  1.7072
 5395TIP3   OH237743   1.032   5.130   0.149 -0.4065  0.1692  0.5084
 5395TIP3    H137744   1.019   5.203   0.209 -0.4348 -0.9681  1.9222
 5395TIP3    H237745   0.944   5.099   0.129 -0.3515 -0.2780  0.9381
 5396TIP3   OH237746   2.565   6.141   7.866  0.1753 -0.5445  0.0808
 5396TIP3    H137747   2.546   6.094   7.784 -1.2196 -1.6142  0.9584
 5396TIP3    H237748   2.487   6.195   7.881  0.5893 -0.0526  0.5092
 5397TIP3   OH237749   3.017   5.461   0.710 -0.3263  0.3509 -0.3352
 5397TIP3    H137750   3.070   5.476   0.788  1.3067  0.8563 -1.4917
 5397TIP3    H237751   2.938   5.419   0.743  0.2155  0.7472  1.6097
 5398TIP3   OH237752   1.591   3.828   0.696  0.1390 -0.5333 -0.2300
 5398TIP3    H137753   1.538   3.851   0.619 -0.8014 -1.3113  0.1598
 5398TIP3    H237754   1.558   3.885   0.766  0.8328  0.0087 -0.3339
 5399TIP3   OH237755   0.885   0.726   0.761  0.6683  0.0737 -0.3901
 5399TIP3    H137756   0.920   0.773   0.837  1.2591  1.3110 -1.3881
 5399TIP3    H237757   0.843   0.648   0.798 -0.7117  1.5711  1.3919
 5400TIP3   OH237758   1.402   2.672   0.906  0.4186  1.1285  0.7229
 5400TIP3    H137759   1.343   2.724   0.851  1.0657  1.4607  0.3276
 5400TIP3    H237760   1.427   2.598   0.851 -0.3237  0.5006  1.2057
 5401TIP3   OH237761   5.234   6.770   1.195  0.1691  0.1656  0.0869
 5401TIP3    H137762   5.276   6.696   1.238  0.4117  1.1725  1.6464
 5401TIP3    H237763   5.163   6.731   1.144  1.7071 -1.3699 -1.0219
 5402TIP3   OH237764   2.072   6.274   3.016 -0.2382 -0.8423 -0.1897
 5402TIP3    H137765   2.063   6.214   3.091  1.9282  1.7410  2.3449
 5402TIP3    H237766   1.981   6.294   2.991 -1.0888 -1.2427  2.2660
 5403TIP3   OH237767   2.942   5.367   2.981  0.3139  0.9305  0.1415
 5403TIP3    H137768   2.857   5.324   2.976  0.1256  1.3775 -3.2213
 5403TIP3    H237769   3.005   5.297   2.968  0.1251  1.1108 -2.4105
 5404TIP3   OH237770   3.241   0.267   0.583 -0.5168 -0.0783  0.0189
 5404TIP3    H137771   3.262   0.175   0.598 -0.2803 -0.4280 -2.1725
 5404TIP3    H237772   3.160   0.266   0.533 -1.8048  1.0379  1.9423
 5405TIP3   OH237773   2.799   6.427   8.537 -0.8163 -0.0587  0.0080
 5405TIP3    H137774   2.715   6.389   8.512 -1.1264 -0.0731  1.0159
 5405TIP3    H237775   2.786   6.521   8.524 -1.3036  0.0266  0.9727
 5406TIP3   OH237776   5.688   4.188   0.150  0.0481 -0.1888  0.3946
 5406TIP3    H137777   5.634   4.163   0.225 -1.0113  0.6213 -0.0841
 5406TIP3    H237778   5.741   4.110   0.132 -0.7745 -0.9193  1.0311
 5407TIP3   OH237779   0.069   3.956   1.849 -0.8355 -0.3743 -0.5204
 5407TIP3    H137780   0.118   4.009   1.786 -0.9349  0.6475  0.2437
 5407TIP3    H237781  -0.011   4.005   1.865 -1.9915 -1.8492 -1.4716
 5408TIP3   OH237782   5.376   5.371   2.599  0.1651  0.2480  0.6491
 5408TIP3    H137783   5.467   5.345   2.604 -0.2287 -0.9372  2.8938
 5408TIP3    H237784   5.347   5.375   2.690 -1.8486  1.2542  0.0257
 5409TIP3   OH237785   0.032   6.419   8.177  0.4396 -0.0144  0.4804
 5409TIP3    H137786   0.067   6.448   8.260 -3.3314 -0.6022  2.4980
 5409TIP3    H237787   0.032   6.323   8.183 -0.3259 -0.0538  0.0637
 5410TIP3   OH237788   4.632   0.249   8.163  0.2428 -0.4317 -0.4929
 5410TIP3    H137789   4.652   0.157   8.176 -1.0929 -0.9169 -1.6036
 5410TIP3    H237790   4.536   0.253   8.166  0.2934  1.0263  0.1685
 5411TIP3   OH237791   6.696   4.939   1.397  0.2220  0.4817  0.8496
 5411TIP3    H137792   6.664   4.954   1.486 -0.5857 -0.4052  0.7295
 5411TIP3    H237793   6.640   4.868   1.364 -0.1644  1.4871 -0.7293
 5412TIP3   OH237794   2.375   0.315   1.485 -0.2876  0.0543  0.3198
 5412TIP3    H137795   2.447   0.338   1.426  1.7306 -0.0004  2.5857
 5412TIP3    H237796   2.386   0.220   1.499 -0.1066  0.2304  1.4854
 5413TIP3   OH237797   2.071   4.553   7.130 -0.0689  0.1343 -0.3134
 5413TIP3    H137798   2.136   4.622   7.117 -0.8334  0.8723 -0.3228
 5413TIP3    H237799   2.067   4.507   7.046 -0.1236  0.5817 -0.5572
 5414TIP3   OH237800   0.110   6.750   0.470 -0.2021 -0.0458 -0.3622
 5414TIP3    H137801   0.181   6.803   0.506 -1.9835  2.5584 -0.4222
 5414TIP3    H237802   0.049   6.740   0.544  0.8737 -3.7837  0.2394
 5415TIP3   OH237803   3.859   6.287   3.025  0.4876 -0.2509 -0.0202
 5415TIP3    H137804   3.948   6.252   3.035  0.7439  0.2502 -0.4653
 5415TIP3    H237805   3.802   6.219   3.060  1.0361 -0.6726  0.0670
 5416TIP3   OH237806   4.892   0.081   1.324  0.5810 -0.3220  0.1581
 5416TIP3    H137807   4.884   0.003   1.269 -1.2255  1.0253 -1.6684
 5416TIP3    H237808   4.840   0.061   1.402  1.0150 -1.3298  0.1936
 5417TIP3   OH237809   5.575   5.573   0.057 -0.0994 -0.1679  0.0638
 5417TIP3    H137810   5.583   5.576  -0.038 -0.1232 -1.1526  0.0228
 5417TIP3    H237811   5.586   5.664   0.085 -0.3241  0.1634 -0.8948
 5418TIP3   OH237812   6.641   1.543   1.612  0.2566 -0.7451  0.9085
 5418TIP3    H137813   6.702   1.469   1.602 -0.0349 -0.7077 -2.0080
 5418TIP3    H237814   6.697   1.620   1.611  0.3572 -0.8171  0.9318
 5419TIP3   OH237815   1.591   1.709   8.124  0.2815  0.2608  0.1401
 5419TIP3    H137816   1.663   1.678   8.069 -1.2049  0.9813 -2.3551
 5419TIP3    H237817   1.632   1.724   8.210  3.3151  1.4318 -1.3422
 5420TIP3   OH237818   3.097   4.062   1.683 -0.1774 -0.5467  0.4373
 5420TIP3    H137819   3.188   4.040   1.664 -0.5209 -1.1673 -0.5832
 5420TIP3    H237820   3.051   3.978   1.685 -0.5026 -0.3736  2.4070
 5421TIP3   OH237821   4.551   3.243   2.479  0.2366  0.3795  0.5989
 5421TIP3    H137822   4.630   3.241   2.533 -0.0004  0.5322  0.9517
 5421TIP3    H237823   4.483   3.277   2.537  0.0162  0.6978  0.1612
 5422TIP3   OH237824   1.751   3.288   0.828 -0.3761  0.4567  0.3832
 5422TIP3    H137825   1.679   3.265   0.887  0.1486 -1.3426  0.3778
 5422TIP3    H237826   1.751   3.218   0.762  1.3066  0.4706  0.3312
 5423TIP3   OH237827   6.864   2.633   8.007 -0.1446 -0.3385  0.4672
 5423TIP3    H137828   6.890   2.721   7.982 -1.2244 -0.2423 -0.4085
 5423TIP3    H237829   6.769   2.631   7.991  0.1666 -2.2935 -1.5032
 5424TIP3   OH237830   2.890   2.639   2.831 -0.2476 -0.3170  0.3782
 5424TIP3    H137831   2.934   2.632   2.747 -3.2830 -0.2881 -1.3886
 5424TIP3    H237832   2.933   2.712   2.875 -0.2532  1.4929 -2.3723
 5425TIP3   OH237833   3.005   2.294   1.720  0.1495  0.0932  0.1980
 5425TIP3    H137834   3.062   2.355   1.767  1.9085 -0.2518 -1.3603
 5425TIP3    H237835   3.064   2.242   1.667 -1.6125 -0.5237 -1.2723
 5426TIP3   OH237836   4.034   2.805   0.765 -0.2416  0.3582 -0.3130
 5426TIP3    H137837   4.091   2.866   0.814 -1.0254  0.6586  0.2463
 5426TIP3    H237838   4.025   2.846   0.679  1.6155 -0.4595 -0.9420
 5427TIP3   OH237839   1.916   3.346   0.225  0.3232 -0.1934  0.5018
 5427TIP3    H137840   1.952   3.337   0.137 -1.4216  1.9938 -0.5078
 5427TIP3    H237841   1.991   3.333   0.283  1.6331 -1.0266 -1.2918
 5428TIP3   OH237842   4.724   5.660   8.472 -0.1520  0.3836  0.5301
 5428TIP3    H137843   4.715   5.620   8.558  1.0198 -1.4068 -0.1214
 5428TIP3    H237844   4.719   5.587   8.410  3.2916  0.9675 -0.6478
 5429TIP3   OH237845   0.213   0.800   1.343 -0.4811 -0.0304  0.0179
 5429TIP3    H137846   0.271   0.867   1.307 -1.2311  0.4257 -0.3505
 5429TIP3    H237847   0.249   0.718   1.310  1.8346 -0.0896  2.2954
 5430TIP3   OH237848   0.872   2.672   3.404  1.1184 -0.3575  0.2421
 5430TIP3    H137849   0.848   2.738   3.340  2.8835  0.5600  0.4514
 5430TIP3    H237850   0.789   2.636   3.435  0.1763  0.6422 -1.0367
 5431TIP3   OH237851   1.436   0.039   1.547 -0.6588 -0.2944  0.4981
 5431TIP3    H137852   1.494  -0.016   1.598  1.1431  0.2630 -0.8487
 5431TIP3    H237853   1.350   0.028   1.588  0.4351 -0.8238  2.8144
 5432TIP3   OH237854   3.904   2.656   0.374 -0.3610  0.0776  0.0099
 5432TIP3    H137855   3.811   2.670   0.385  0.0491  1.3854  2.5725
 5432TIP3    H237856   3.935   2.734   0.327 -0.3845  0.1819  0.1684
 5433TIP3   OH237857   4.705   3.668   2.527 -0.3421 -0.4101 -0.2354
 5433TIP3    H137858   4.790   3.677   2.571 -1.8786  4.4614  2.6016
 5433TIP3    H237859   4.724   3.685   2.435  1.8135  0.6126  0.3176
 5434TIP3   OH237860   3.260   5.325   1.883 -0.3164  0.4292  0.1349
 5434TIP3    H137861   3.252   5.230   1.889 -0.4414  0.5348  2.2912
 5434TIP3    H237862   3.352   5.342   1.903 -0.4400  0.8004  0.3909
 5435TIP3   OH237863   6.708   1.026   1.735  0.6587  0.3638  0.0925
 5435TIP3    H137864   6.791   1.035   1.689  0.0532 -1.1536 -1.3849
 5435TIP3    H237865   6.644   1.006   1.667 -0.4639 -0.9492  1.4439
 5436TIP3   OH237866   0.568   1.307   8.450  0.2123  0.3057 -0.5061
 5436TIP3    H137867   0.636   1.317   8.517  0.2866 -1.5775 -0.2478
 5436TIP3    H237868   0.569   1.390   8.403  1.0274  1.2131  1.0153
 5437TIP3   OH237869   6.539   4.086   2.723 -0.1057  0.3365 -0.6636
 5437TIP3    H137870   6.555   4.152   2.655 -1.8194 -0.3498 -1.7751
 5437TIP3    H237871   6.445   4.088   2.737 -0.7788 -3.8650 -2.9249
 5438TIP3   OH237872   2.735   5.246   1.877  0.3373 -0.1661 -0.1707
 5438TIP3    H137873   2.795   5.232   1.950 -1.5082 -0.0309  1.4547
 5438TIP3    H237874   2.702   5.335   1.890 -1.8790 -0.9954  0.3544
 5439TIP3   OH237875   6.104   5.592   2.632  0.0930 -0.0449 -0.1298
 5439TIP3    H137876   6.115   5.664   2.570 -0.1072  1.3113  1.3530
 5439TIP3    H237877   6.022   5.549   2.604 -1.8804  2.6218  1.1103
 5440TIP3   OH237878   2.963   1.743   1.464  0.3909  0.4754  0.1811
 5440TIP3    H137879   3.047   1.729   1.419 -0.8239 -1.0067 -1.7477
 5440TIP3    H237880   2.899   1.753   1.394 -0.9083  2.9775  1.5967
 5441TIP3   OH237881   0.107   0.388   2.668 -0.2122  0.3125 -0.4211
 5441TIP3    H137882   0.070   0.301   2.649 -1.3238  0.8070 -0.5963
 5441TIP3    H237883   0.066   0.414   2.750  1.2553  0.0650  0.4375
 5442TIP3   OH237884   1.736   3.705   7.567  0.3963  0.0823  0.1251
 5442TIP3    H137885   1.813   3.690   7.511  0.0818 -0.8264 -0.0765
 5442TIP3    H237886   1.680   3.629   7.551  0.4709 -0.4093  1.9614
 5443TIP3   OH237887   2.016   1.734   8.024  0.3064 -0.3384 -0.4383
 5443TIP3    H137888   1.953   1.793   8.066  1.3126 -0.6897  1.6966
 5443TIP3    H237889   2.032   1.774   7.938 -0.4028  1.5096  0.2294
 5444TIP3   OH237890   4.807   2.019   0.363 -0.3040  0.6286 -0.5836
 5444TIP3    H137891   4.892   2.052   0.393  0.3549 -1.6964  0.3596
 5444TIP3    H237892   4.745   2.088   0.386  1.1076  1.6764  0.2371
 5445TIP3   OH237893   6.781   2.038   1.045 -0.5869 -0.1278  0.4181
 5445TIP3    H137894   6.718   2.028   1.116  0.1614  0.9263  1.2759
 5445TIP3    H237895   6.817   2.126   1.058 -0.2882  0.0004 -1.1576
 5446TIP3   OH237896   4.483   4.034   0.391  0.8234 -0.5679 -0.4672
 5446TIP3    H137897   4.514   3.946   0.370 -1.7300 -1.4566 -0.8663
 5446TIP3    H237898   4.447   4.067   0.309 -1.7796 -0.7729  0.4996
 5447TIP3   OH237899   0.617   4.423   1.935  0.5039  0.5359  0.0934
 5447TIP3    H137900   0.653   4.358   1.996 -0.3519  0.4965  0.5739
 5447TIP3    H237901   0.594   4.372   1.857  0.5196  0.3811  0.1880
 5448TIP3   OH237902   1.141   6.291   1.916 -0.7635  0.2394  0.0219
 5448TIP3    H137903   1.144   6.221   1.851 -0.2365  1.3997 -1.2716
 5448TIP3    H237904   1.213   6.271   1.976  0.4404  0.5060 -1.2771
 5449TIP3   OH237905   0.548   3.888   1.039  0.1217  0.1576  0.3642
 5449TIP3    H137906   0.517   3.889   1.129  0.1483 -1.4403  0.4267
 5449TIP3    H237907   0.625   3.944   1.039 -0.9175  1.6555  0.9043
 5450TIP3   OH237908   2.205   6.537   2.262 -0.4423  0.0820  0.0326
 5450TIP3    H137909   2.250   6.614   2.298 -1.4331  0.3360  0.7754
 5450TIP3    H237910   2.192   6.480   2.338 -0.6846 -0.3310 -0.3198
 5451TIP3   OH237911   6.139   4.154   7.273  0.6836 -0.3067  0.2314
 5451TIP3    H137912   6.112   4.167   7.364  2.0831  1.1101  0.4793
 5451TIP3    H237913   6.189   4.073   7.274 -0.1717 -0.8481  0.5035
 5452TIP3   OH237914   4.592   3.582   2.775 -0.2029  0.5456 -0.3632
 5452TIP3    H137915   4.653   3.615   2.841 -0.1637 -1.4258  0.6719
 5452TIP3    H237916   4.643   3.516   2.727 -0.4452  1.4678 -1.9418
 5453TIP3   OH237917   5.641   5.043   0.141  0.1631  0.5472 -0.1814
 5453TIP3    H137918   5.597   5.084   0.066 -0.5419  0.4696  0.1797
 5453TIP3    H237919   5.706   5.107   0.169  0.7280  0.4045 -1.1228
 5454TIP3   OH237920   4.043   2.619   0.979  0.1730  0.2116  0.1777
 5454TIP3    H137921   4.091   2.671   1.044  2.0594 -0.7495 -0.3616
 5454TIP3    H237922   4.032   2.678   0.905 -0.1703  0.6783  0.5908
 5455TIP3   OH237923   1.056   0.601   2.305  0.1482  0.0104 -0.0979
 5455TIP3    H137924   1.056   0.571   2.214 -0.6148 -0.3258  0.0051
 5455TIP3    H237925   1.125   0.550   2.347  0.0691 -0.2963 -0.3395
 5456TIP3   OH237926   1.793   2.511   8.434 -0.5797  0.3848  0.1788
 5456TIP3    H137927   1.744   2.579   8.386 -1.1796 -1.8785 -2.7008
 5456TIP3    H237928   1.885   2.534   8.421 -0.7704  0.5689 -0.9361
 5457TIP3   OH237929   4.053   3.977   1.237 -0.0165  0.3622 -0.6220
 5457TIP3    H137930   4.122   3.938   1.183  1.5423 -0.0598  1.5750
 5457TIP3    H237931   4.044   3.919   1.312 -1.4485  1.4248  0.0962
 5458TIP3   OH237932   0.177   5.103   8.369 -0.5104 -0.2623 -0.3156
 5458TIP3    H137933   0.203   5.174   8.309 -0.4798 -1.5386 -1.8870
 5458TIP3    H237934   0.229   5.119   8.448 -0.2739  1.2738 -0.7397
 5459TIP3   OH237935   5.270   4.586   8.343  0.0003  0.4608  0.5952
 5459TIP3    H137936   5.294   4.530   8.417 -0.7492 -0.2782  0.2914
 5459TIP3    H237937   5.200   4.641   8.376 -1.5783 -1.0839 -0.0277
 5460TIP3   OH237938   6.056   1.052   0.453  0.3245  0.5103  0.9207
 5460TIP3    H137939   6.104   1.134   0.451  4.0450 -1.4384 -0.4340
 5460TIP3    H237940   6.114   0.991   0.500 -0.9711 -1.9390 -0.4334
 5461TIP3   OH237941   1.274   1.020   2.474 -0.5740 -0.5142 -0.1964
 5461TIP3    H137942   1.275   0.943   2.417  2.4057  0.6221 -1.9359
 5461TIP3    H237943   1.338   1.000   2.542 -0.3852  0.1048 -0.1899
 5462TIP3   OH237944   3.660   1.104   0.850 -0.1119  0.1332 -0.5079
 5462TIP3    H137945   3.670   1.198   0.864 -0.2520  0.1993 -0.8437
 5462TIP3    H237946   3.589   1.078   0.909  2.3184 -0.4687  2.4247
 5463TIP3   OH237947   2.926   4.442   0.504  0.3332 -0.0020 -0.1222
 5463TIP3    H137948   2.901   4.535   0.510 -0.1902 -0.2119  1.2147
 5463TIP3    H237949   3.020   4.442   0.520  1.1899  0.6554 -3.9502
 5464TIP3   OH237950   1.756   4.801   8.110 -0.2564  0.1572  0.2302
 5464TIP3    H137951   1.735   4.894   8.116 -0.8828  0.0248  0.2178
 5464TIP3    H237952   1.710   4.761   8.185 -0.7905 -0.2668 -0.3075
 5465TIP3   OH237953   4.566   2.893   1.829 -0.0616 -0.1971 -0.7378
 5465TIP3    H137954   4.559   2.978   1.873 -1.0921 -2.0908  3.2323
 5465TIP3    H237955   4.657   2.867   1.841  0.2047  0.2237 -1.7759
 5466TIP3   OH237956   3.341   5.156   2.638  0.6370 -0.2215 -0.2746
 5466TIP3    H137957   3.281   5.224   2.668  1.9350  0.6597  0.4416
 5466TIP3    H237958   3.297   5.116   2.563 -1.2987 -0.3403  0.8573
 5467TIP3   OH237959   5.438   2.383   1.086 -0.4880  0.7539 -0.0539
 5467TIP3    H137960   5.412   2.314   1.025 -1.1043  0.8171  0.1361
 5467TIP3    H237961   5.455   2.337   1.168  0.1157  0.6990 -0.2046
 5468TIP3   OH237962   4.172   4.092   0.545  1.1340 -0.3684  0.5515
 5468TIP3    H137963   4.183   4.187   0.547 -1.9149  0.1403 -0.7049
 5468TIP3    H237964   4.130   4.071   0.629 -0.0511 -0.2484  0.0089
 5469TIP3   OH237965   3.461   2.165   1.318 -0.1360 -0.4683 -0.3358
 5469TIP3    H137966   3.485   2.163   1.411  1.2254 -0.9889 -0.6655
 5469TIP3    H237967   3.401   2.238   1.310  0.7480  0.4218  0.7399
 5470TIP3   OH237968   4.183   1.687   2.017 -0.5550  1.0501 -0.0541
 5470TIP3    H137969   4.146   1.625   1.954  1.7256 -0.7831  0.2731
 5470TIP3    H237970   4.255   1.728   1.970 -1.6478  3.0947 -0.0514
 5471TIP3   OH237971   4.967   3.278   1.005 -0.5242  0.2823 -0.2915
 5471TIP3    H137972   4.939   3.250   0.918  0.6013 -1.6499 -0.0892
 5471TIP3    H237973   4.887   3.277   1.057 -0.7083 -1.7334 -0.5440
 5472TIP3   OH237974   5.298   0.243   0.546 -0.1673 -0.4321 -0.0295
 5472TIP3    H137975   5.240   0.317   0.563  1.5305  1.0169 -0.3643
 5472TIP3    H237976   5.273   0.213   0.458 -0.6002 -0.0299 -0.0476
 5473TIP3   OH237977   2.665   4.257   1.431 -0.4981 -0.1117 -0.6177
 5473TIP3    H137978   2.693   4.307   1.354 -0.9814 -0.1507 -0.8228
 5473TIP3    H237979   2.571   4.247   1.420 -0.8649  1.3111  0.8071
 5474TIP3   OH237980   6.830   6.380   0.606  0.1945 -0.0019  0.1979
 5474TIP3    H137981   6.743   6.347   0.584  1.1688 -1.2947 -2.0647
 5474TIP3    H237982   6.819   6.475   0.614 -1.0064  0.1726 -2.5744
 5475TIP3   OH237983   3.672   5.156   3.033  0.8958 -0.1156 -0.1241
 5475TIP3    H137984   3.728   5.234   3.037 -0.8098  1.2573 -1.4480
 5475TIP3    H237985   3.631   5.160   2.946 -2.4362 -0.1408  1.2865
 5476TIP3   OH237986   0.187   2.805   2.102 -0.4591  0.4614  0.0361
 5476TIP3    H137987   0.228   2.889   2.081 -1.9890  1.2002 -0.0777
 5476TIP3    H237988   0.214   2.789   2.193  0.0051  0.9751 -0.0013
 5477TIP3   OH237989   5.173   3.912   1.893  0.3521  0.7410  0.4192
 5477TIP3    H137990   5.119   3.956   1.827  0.4084  1.3898  0.7999
 5477TIP3    H237991   5.109   3.866   1.949  0.4189 -3.4669 -2.5220
 5478TIP3   OH237992   5.902   6.832   0.196 -0.0122  0.1190  0.4728
 5478TIP3    H137993   5.847   6.794   0.128  1.0321 -0.0895 -0.2836
 5478TIP3    H237994   5.921   6.920   0.165  1.0226 -0.2070  0.1353
 5479TIP3   OH237995   4.105   5.726   8.521  0.0829 -0.3000 -0.1877
 5479TIP3    H137996   4.105   5.735   8.616 -1.6071 -0.9881 -0.0720
 5479TIP3    H237997   4.159   5.649   8.504  0.0407 -0.4274  0.2476
 5480TIP3   OH237998   4.825   5.780   0.456  0.3520 -0.5028 -0.1067
 5480TIP3    H137999   4.796   5.867   0.485 -2.4301 -1.1685 -0.5301
 5480TIP3    H238000   4.863   5.795   0.369 -1.9295  0.1562 -1.0774
 5481TIP3   OH238001   2.623   0.539   8.340 -1.0752  0.2100  0.3440
 5481TIP3    H138002   2.612   0.457   8.389 -1.0672 -0.6536 -1.0362
 5481TIP3    H238003   2.560   0.533   8.268  0.7776  0.1464 -1.3604
 5482TIP3   OH238004   4.672   3.415   1.122 -0.0566  0.2383 -0.0474
 5482TIP3    H138005   4.726   3.479   1.169 -0.4737 -0.3572  1.3088
 5482TIP3    H238006   4.674   3.337   1.177 -0.1152 -0.6949 -1.3390
 5483TIP3   OH238007   6.891   1.052   1.972  0.1331 -0.4870  0.1633
 5483TIP3    H138008   6.944   0.973   1.982  0.9986  0.1338  0.6889
 5483TIP3    H238009   6.804   1.021   1.947  0.6298 -1.5601 -0.2591
 5484TIP3   OH238010   0.029   0.842   2.783 -0.0201 -0.0069 -0.4123
 5484TIP3    H138011   0.095   0.802   2.727 -0.2195  0.2090 -0.8023
 5484TIP3    H238012   0.042   0.800   2.869 -0.3770 -1.0938 -0.8615
 5485TIP3   OH238013   5.524   1.935   2.620  0.3529  0.0917 -0.1561
 5485TIP3    H138014   5.603   1.902   2.663  0.2184 -1.3926 -0.9706
 5485TIP3    H238015   5.457   1.934   2.688  1.1663  2.0401  0.7274
 5486TIP3   OH238016   3.795   4.820   8.388  0.6819  0.0203  0.1004
 5486TIP3    H138017   3.824   4.867   8.467  2.0966  0.4931 -0.6629
 5486TIP3    H238018   3.803   4.884   8.318 -0.5080 -0.4185 -0.4513
 5487TIP3   OH238019   6.817   5.930   1.185 -0.3413  0.3614 -0.1481
 5487TIP3    H138020   6.761   5.974   1.249  0.1745  0.5529  0.1731
 5487TIP3    H238021   6.839   5.998   1.122  0.6547  0.6353  0.4809
 5488TIP3   OH238022   1.403   2.477   1.113 -0.0328  0.4567 -0.3919
 5488TIP3    H138023   1.415   2.558   1.064  0.9083  0.5574 -0.0085
 5488TIP3    H238024   1.428   2.407   1.052 -0.6171  0.4625 -0.6445
 5489TIP3   OH238025   2.944   6.448   0.757  0.0611 -1.0197 -0.0345
 5489TIP3    H138026   2.941   6.365   0.709 -1.7312 -1.4650  0.7368
 5489TIP3    H238027   2.911   6.513   0.695  1.6117 -0.8177 -0.6905
 5490TIP3   OH238028   1.702   4.204   8.152 -0.2797  0.1089  0.3467
 5490TIP3    H138029   1.701   4.160   8.237 -2.4935 -1.5034 -0.4176
 5490TIP3    H238030   1.764   4.153   8.099 -0.2267  0.0203  0.4941
 5491TIP3   OH238031   6.492   2.924   7.752 -0.0160  0.0663 -1.0598
 5491TIP3    H138032   6.586   2.933   7.766 -0.2066  0.2177  0.1610
 5491TIP3    H238033   6.482   2.837   7.712  0.3274 -1.7148  2.3883
 5492TIP3   OH238034   4.019   5.796   0.207  0.2050  0.5996  0.2294
 5492TIP3    H138035   4.082   5.866   0.193  1.6801 -0.5110  1.0565
 5492TIP3    H238036   4.005   5.795   0.302 -0.7880  0.5867  0.0950
 5493TIP3   OH238037   4.361   5.979   0.626  0.1678  0.4714 -0.6282
 5493TIP3    H138038   4.332   6.069   0.612 -1.6861 -0.1537 -1.1669
 5493TIP3    H238039   4.416   5.959   0.551 -2.2987  0.0757 -2.4627
 5494TIP3   OH238040   6.242   2.039   2.132 -0.0933 -0.6958  0.0836
 5494TIP3    H138041   6.147   2.029   2.120  0.0497  0.1820 -2.3121
 5494TIP3    H238042   6.280   1.981   2.067  0.9934  0.1702 -0.0784
 5495TIP3   OH238043   2.149   1.440   2.453  0.4602 -0.0454 -0.2060
 5495TIP3    H138044   2.178   1.363   2.502  0.9417  0.0309 -0.3595
 5495TIP3    H238045   2.207   1.443   2.376 -1.7328 -1.4508 -2.0058
 5496TIP3   OH238046   2.970   3.871   0.893  0.0575 -0.4096  0.0251
 5496TIP3    H138047   3.054   3.833   0.869  0.8908 -0.9084  3.3432
 5496TIP3    H238048   2.918   3.796   0.924 -0.9139  0.1797 -0.1321
 5497TIP3   OH238049   3.640   2.750   0.336 -0.4407 -0.4547  0.3969
 5497TIP3    H138050   3.566   2.741   0.277 -0.5204 -0.4318  0.4919
 5497TIP3    H238051   3.631   2.839   0.372 -0.7410 -0.6820  0.9044
 5498TIP3   OH238052   5.270   2.573   1.267  0.0454  0.0012 -0.7930
 5498TIP3    H138053   5.316   2.516   1.204 -0.9017 -0.7983 -0.7777
 5498TIP3    H238054   5.288   2.533   1.352 -0.7501 -0.3728 -0.7963
 5499TIP3   OH238055   6.030   3.889   7.530  0.0698 -0.6268 -0.2080
 5499TIP3    H138056   5.975   3.889   7.451  2.0575  0.3444 -1.7011
 5499TIP3    H238057   6.082   3.809   7.522 -0.9919 -1.5057  1.1599
 5500TIP3   OH238058   2.009   2.955   1.465 -0.0490 -0.3186 -0.4528
 5500TIP3    H138059   2.061   2.918   1.537  1.0596 -1.0101 -1.5755
 5500TIP3    H238060   2.060   2.935   1.386 -1.7510 -0.4931 -1.5385
 5501TIP3   OH238061   0.656   1.617   2.707  0.1890  0.0625 -0.0900
 5501TIP3    H138062   0.582   1.570   2.669  0.2945 -0.0100 -0.2027
 5501TIP3    H238063   0.679   1.567   2.785  0.3927 -0.1502 -0.2877
 5502TIP3   OH238064   6.528   5.741   0.795 -0.3851 -0.0816  0.7129
 5502TIP3    H138065   6.446   5.789   0.783  0.1943  0.4462 -1.6836
 5502TIP3    H238066   6.558   5.765   0.883 -2.0951  0.7807  1.0949
 5503TIP3   OH238067   2.387   2.803   0.285 -0.4209 -0.0582 -0.6727
 5503TIP3    H138068   2.451   2.779   0.218 -0.2372  0.5615 -0.7246
 5503TIP3    H238069   2.340   2.878   0.248  1.5733  2.1722  0.9778
 5504TIP3   OH238070   0.205   5.781   2.091 -0.5605 -0.2563 -0.0274
 5504TIP3    H138071   0.297   5.807   2.096 -1.3542  2.6530  1.8358
 5504TIP3    H238072   0.202   5.694   2.131  1.3262 -0.3057  0.0925
 5505TIP3   OH238073   2.032   0.642   0.858 -0.5835 -0.3992  0.6460
 5505TIP3    H138074   2.027   0.736   0.873 -1.7711 -0.7373  2.7383
 5505TIP3    H238075   1.941   0.615   0.847 -0.2144 -1.2515 -0.5664
 5506TIP3   OH238076   3.014   4.481   2.416  0.1302 -0.4899  0.1400
 5506TIP3    H138077   3.105   4.472   2.388  0.0586  0.2599 -0.3395
 5506TIP3    H238078   2.981   4.391   2.419  1.0015 -0.8069  0.7338
 5507TIP3   OH238079   3.760   0.997   3.572 -0.3968 -0.2278  0.1174
 5507TIP3    H138080   3.853   1.003   3.594 -0.2342  0.4486 -0.6883
 5507TIP3    H238081   3.747   0.907   3.542  0.1269 -0.1594 -0.3201
 5508TIP3   OH238082   3.448   2.933   8.515  0.0435 -0.1983 -0.0913
 5508TIP3    H138083   3.465   3.003   8.452 -1.9437 -0.3805 -0.9085
 5508TIP3    H238084   3.380   2.969   8.573 -1.3495 -1.5547 -0.8040
 5509TIP3   OH238085   4.939   3.301   1.399  0.3444  0.1358 -0.2740
 5509TIP3    H138086   5.028   3.310   1.433  0.6004  2.2275 -1.3584
 5509TIP3    H238087   4.929   3.207   1.386  1.0183 -0.6005  3.3006
 5510TIP3   OH238088   6.357   0.873   1.515 -0.1261  0.1740  0.2149
 5510TIP3    H138089   6.384   0.919   1.436  0.1066  0.2925  0.3605
 5510TIP3    H238090   6.348   0.941   1.581  0.8777 -0.0552  0.6031
 5511TIP3   OH238091   3.434   4.235   8.417  0.2346  0.0051  0.3956
 5511TIP3    H138092   3.469   4.309   8.466  0.8518  1.6574 -2.3409
 5511TIP3    H238093   3.497   4.164   8.431  1.0886  0.8412  0.9021
 5512TIP3   OH238094   3.086   4.339   1.277  0.4886 -0.1869  0.2520
 5512TIP3    H138095   3.031   4.285   1.220  0.7808 -0.7975  0.5395
 5512TIP3    H238096   3.113   4.413   1.222  0.9948 -0.9087 -0.4793
 5513TIP3   OH238097   3.524   0.961   7.605 -0.1321  0.1713 -0.1503
 5513TIP3    H138098   3.484   0.902   7.541  1.6657 -1.5396  0.1848
 5513TIP3    H238099   3.554   1.036   7.554  2.2081 -1.6226 -1.6322
 5514TIP3   OH238100   2.107   4.308   2.358  0.0429  0.5871  0.1394
 5514TIP3    H138101   2.073   4.277   2.442  1.6142  1.0622  0.9837
 5514TIP3    H238102   2.029   4.335   2.309 -1.0100 -0.9293  0.9070
 5515TIP3   OH238103   0.664   5.635   8.463  0.1677 -0.8111  0.2653
 5515TIP3    H138104   0.643   5.714   8.413 -0.8095 -0.6649  0.8785
 5515TIP3    H238105   0.618   5.646   8.546 -0.8416 -2.4710 -0.0253
 5516TIP3   OH238106   5.447   1.186   2.064 -0.6704 -0.0280  0.6000
 5516TIP3    H138107   5.377   1.203   2.002  0.4559 -0.7556 -0.9509
 5516TIP3    H238108   5.406   1.194   2.150 -2.4625  0.2550 -0.2392
 5517TIP3   OH238109   4.243   0.207   0.286  0.1145  0.1449 -0.3461
 5517TIP3    H138110   4.332   0.237   0.269  0.5980 -0.5380  0.8875
 5517TIP3    H238111   4.243   0.181   0.378 -0.7742 -1.8689 -0.8505
 5518TIP3   OH238112   2.119   4.119   0.686  0.7929 -0.1982  0.2396
 5518TIP3    H138113   2.120   4.157   0.774  1.6482 -2.1581  1.1318
 5518TIP3    H238114   2.035   4.074   0.680  0.1099  1.1023 -0.5354
 5519TIP3   OH238115   5.336   2.450   2.679 -0.3186 -0.0736 -0.2412
 5519TIP3    H138116   5.363   2.497   2.758  0.6832 -1.1137  0.0556
 5519TIP3    H238117   5.288   2.515   2.628 -2.1520  0.2874  1.8044
 5520TIP3   OH238118   4.943   5.712   7.752 -0.3714  0.2328 -0.0545
 5520TIP3    H138119   5.009   5.692   7.686  0.3597  1.4483  0.2661
 5520TIP3    H238120   4.864   5.669   7.721  0.4625 -0.9285 -0.6618
 5521TIP3   OH238121   2.098   4.636   2.311  0.2556  0.3242  0.0578
 5521TIP3    H138122   2.158   4.659   2.240  0.7815 -0.9335  0.0681
 5521TIP3    H238123   2.022   4.692   2.297  0.2760 -0.0031 -1.5964
 5522TIP3   OH238124   0.410   4.555   0.423 -0.2082 -0.1501  0.2639
 5522TIP3    H138125   0.484   4.551   0.362  1.1749  1.5368  1.7173
 5522TIP3    H238126   0.347   4.614   0.382 -0.9233 -1.8004 -1.1066
 5523TIP3   OH238127   4.921   2.572   7.956  0.1328 -0.3054 -0.3650
 5523TIP3    H138128   4.984   2.643   7.945  0.6705 -0.8248 -0.6875
 5523TIP3    H238129   4.927   2.549   8.048  1.4246 -1.2621 -0.6626
 5524TIP3   OH238130   0.255   2.226   7.961 -0.3984  0.3486  0.1490
 5524TIP3    H138131   0.243   2.321   7.969 -0.9982  0.2650  0.2944
 5524TIP3    H238132   0.219   2.204   7.875 -1.7446  0.0329  0.7616
 5525TIP3   OH238133   2.865   0.613   8.418  0.1644  0.2344 -0.4167
 5525TIP3    H138134   2.790   0.614   8.358 -1.2658 -1.3349  1.1969
 5525TIP3    H238135   2.837   0.668   8.491 -0.1832 -1.6529  0.9547
 5526TIP3   OH238136   0.291   4.870   2.422  0.0188  0.0405 -0.0679
 5526TIP3    H138137   0.217   4.813   2.440 -1.6086  1.6991 -1.2142
 5526TIP3    H238138   0.337   4.876   2.506 -3.0798  1.6481  1.6701
 5527TIP3   OH238139   5.704   0.548   0.124  0.0013  0.5349 -0.0093
 5527TIP3    H138140   5.646   0.518   0.194 -0.4758 -1.5214 -1.2134
 5527TIP3    H238141   5.647   0.588   0.060  0.1171  0.0783 -0.4012
 5528TIP3   OH238142   2.599   3.561   1.874  0.8930 -0.0690 -0.9003
 5528TIP3    H138143   2.582   3.617   1.949  1.1965  0.2299 -1.0501
 5528TIP3    H238144   2.544   3.599   1.804  0.3546 -0.5477 -0.7422
 5529TIP3   OH238145   2.505   3.621   0.422  0.1897  0.4149  0.4044
 5529TIP3    H138146   2.595   3.588   0.429  0.8794  1.7054 -1.6175
 5529TIP3    H238147   2.464   3.596   0.505  1.6391 -2.4139  0.3896
 5530TIP3   OH238148   6.030   1.120   3.014  0.2778  0.3059  0.4185
 5530TIP3    H138149   5.958   1.162   3.060  1.7489  3.4910  0.0855
 5530TIP3    H238150   6.081   1.077   3.083 -0.9541 -0.4767  0.8657
 5531TIP3   OH238151   3.753   2.912   0.010 -0.0471 -0.1355  0.1612
 5531TIP3    H138152   3.731   2.925   0.102  0.3614 -2.5080  0.6511
 5531TIP3    H238153   3.673   2.877  -0.029  0.2428 -0.6115 -0.0156
 5532TIP3   OH238154   2.182   2.233   2.811 -0.2231 -0.0114 -0.7834
 5532TIP3    H138155   2.206   2.165   2.874  0.9163  1.0426 -0.0424
 5532TIP3    H238156   2.198   2.316   2.857 -1.2568  0.7713 -1.7801
 5533TIP3   OH238157   6.574   2.964   7.196 -0.2142 -0.5205 -0.9063
 5533TIP3    H138158   6.641   3.029   7.174 -0.5101  0.4157  0.7675
 5533TIP3    H238159   6.567   2.968   7.291  0.7054 -4.0372 -0.5584
 5534TIP3   OH238160   4.766   1.782   3.051 -0.3462  0.1362  0.3524
 5534TIP3    H138161   4.731   1.697   3.023  0.5848 -1.1271  2.6958
 5534TIP3    H238162   4.810   1.816   2.973  0.9884 -2.5135 -0.1727
 5535TIP3   OH238163   6.807   0.273   2.069 -0.4056  0.9834  0.1964
 5535TIP3    H138164   6.714   0.262   2.047 -0.4370 -0.3125  0.8685
 5535TIP3    H238165   6.810   0.355   2.118 -0.6540  2.8033 -2.6159
 5536TIP3   OH238166   1.580   1.453   2.565 -0.1303 -1.0141 -0.0066
 5536TIP3    H138167   1.647   1.453   2.496  0.3304  2.7111  0.2136
 5536TIP3    H238168   1.508   1.504   2.528 -0.9837 -1.1854  1.3500
 5537TIP3   OH238169   1.382   1.409   2.179  0.3492  0.0290 -0.2771
 5537TIP3    H138170   1.318   1.343   2.207 -2.8150  1.8762 -2.3903
 5537TIP3    H238171   1.397   1.462   2.257 -0.8771 -0.3887  0.2764
 5538TIP3   OH238172   1.156   6.366   0.985  0.3023  1.0201  0.0123
 5538TIP3    H138173   1.211   6.428   1.032  0.1896 -1.6017  4.0695
 5538TIP3    H238174   1.193   6.281   1.005 -3.7027 -0.7305  0.9470
 5539TIP3   OH238175   5.960   1.136   1.073  0.0687  0.8104 -0.3096
 5539TIP3    H138176   5.927   1.174   0.991 -0.6671 -1.7586 -1.3200
 5539TIP3    H238177   6.045   1.099   1.049 -0.4629 -0.5826 -0.1687
 5540TIP3   OH238178   6.221   5.454   8.497  0.0528  0.4064  0.8176
 5540TIP3    H138179   6.281   5.453   8.423  1.1152 -1.1693  1.6447
 5540TIP3    H238180   6.143   5.499   8.464  0.5471 -0.1103 -1.2050
 5541TIP3   OH238181   1.540   5.605   1.688 -0.5297 -0.1354 -0.5995
 5541TIP3    H138182   1.509   5.691   1.715 -0.9908  0.5140 -3.0193
 5541TIP3    H238183   1.462   5.558   1.660 -0.1410 -0.9328 -0.3931
 5542TIP3   OH238184   1.950   5.953   1.611  0.1195  0.0194 -0.3196
 5542TIP3    H138185   2.002   5.872   1.611 -0.3905 -0.3205  0.2713
 5542TIP3    H238186   2.012   6.021   1.584  0.6154 -0.5332 -0.5938
 5543TIP3   OH238187   1.796   0.054   0.109  0.0811 -0.3782  0.0533
 5543TIP3    H138188   1.767   0.002   0.034 -1.6023 -0.0005  0.3946
 5543TIP3    H238189   1.715   0.087   0.148  0.7518 -1.8337  3.0006
 5544TIP3   OH238190   6.537   1.780   1.824  0.4398  0.3250 -0.1570
 5544TIP3    H138191   6.587   1.861   1.813 -0.1683  0.7025 -0.1938
 5544TIP3    H238192   6.597   1.711   1.798  1.7514  0.5560  1.9795
 5545TIP3   OH238193   6.723   4.436   1.340 -0.1388  0.3356  0.1466
 5545TIP3    H138194   6.633   4.466   1.355 -0.4466  0.5064 -1.7315
 5545TIP3    H238195   6.750   4.481   1.260  0.7684 -1.4802 -0.6281
 5546TIP3   OH238196   6.844   4.204   1.414 -0.2621 -0.2020 -0.5196
 5546TIP3    H138197   6.822   4.184   1.506  1.0458 -0.3932 -0.2284
 5546TIP3    H238198   6.805   4.289   1.398 -0.5988 -0.2121  0.1892
 5547TIP3   OH238199   2.098   1.002   1.754 -0.0810  0.0885  0.4088
 5547TIP3    H138200   2.021   0.947   1.746 -0.0037  0.1689 -1.2076
 5547TIP3    H238201   2.170   0.949   1.719  0.3898  0.4316  0.8276
 5548TIP3   OH238202   3.154   3.637   1.755 -0.6286  0.5024 -0.3655
 5548TIP3    H138203   3.097   3.619   1.830  0.5050  0.5223  0.5248
 5548TIP3    H238204   3.137   3.564   1.695 -1.3692  0.3514  0.0051
 5549TIP3   OH238205   3.137   0.200   0.181 -0.4799 -0.6035 -0.9316
 5549TIP3    H138206   3.074   0.250   0.130  0.2152  0.3783 -0.8656
 5549TIP3    H238207   3.097   0.190   0.267  0.1387  1.5460 -0.3283
 5550TIP3   OH238208   6.390   5.644   0.462 -0.3205  0.2548  0.3286
 5550TIP3    H138209   6.309   5.645   0.513 -1.1280  1.2149 -0.9199
 5550TIP3    H238210   6.446   5.580   0.507 -1.2317  0.6007  2.0105
 5551TIP3   OH238211   4.316   4.727   0.248  0.5318  0.6581  0.3918
 5551TIP3    H138212   4.274   4.650   0.210  0.3825  1.4033 -1.0366
 5551TIP3    H238213   4.256   4.755   0.318 -1.7878  1.9901 -1.9139
 5552TIP3   OH238214   6.235   3.344   0.535 -0.4034  0.2440 -0.0054
 5552TIP3    H138215   6.172   3.376   0.470  0.3145  0.0773 -0.7990
 5552TIP3    H238216   6.197   3.262   0.566  1.3235 -2.1705 -3.5890
 5553TIP3   OH238217   0.712   5.049   1.106  0.3095  0.2200 -0.2190
 5553TIP3    H138218   0.650   5.040   1.179 -0.6302  1.0843 -0.8914
 5553TIP3    H238219   0.779   5.110   1.138 -0.7409  1.5404 -0.4716
 5554TIP3   OH238220   1.624   0.224   2.345  0.6372 -0.0277 -0.2596
 5554TIP3    H138221   1.590   0.160   2.283 -0.6485  0.9709 -0.6306
 5554TIP3    H238222   1.600   0.190   2.431 -1.0521  0.4765 -0.4980
 5555TIP3   OH238223   1.584   3.445   7.474 -0.3987  0.2351  0.2406
 5555TIP3    H138224   1.549   3.436   7.563 -2.9483 -0.1983 -0.7350
 5555TIP3    H238225   1.630   3.363   7.458 -0.2875  0.1423  0.9988
 5556TIP3   OH238226   4.680   2.700   0.135  0.6600  0.0241 -0.3769
 5556TIP3    H138227   4.675   2.687   0.230 -0.7936 -3.5594 -0.7961
 5556TIP3    H238228   4.590   2.717   0.108  0.9349  0.2035 -1.1975
 5557TIP3   OH238229   3.113   1.867   2.702 -0.1222  0.1292 -0.3363
 5557TIP3    H138230   3.134   1.842   2.612  0.9196 -1.5912  0.3377
 5557TIP3    H238231   3.163   1.947   2.716 -0.2742  0.4016 -1.2666
 5558TIP3   OH238232   3.660   1.724   0.276 -0.3592  0.2133 -0.2432
 5558TIP3    H138233   3.748   1.723   0.312 -0.0922 -0.9570 -0.8832
 5558TIP3    H238234   3.672   1.745   0.183 -0.9038  1.5906 -0.0326
 5559TIP3   OH238235   2.877   4.596   1.083  0.1514  0.1219  0.0204
 5559TIP3    H138236   2.880   4.612   0.988 -2.1625 -0.8468 -0.2931
 5559TIP3    H238237   2.966   4.610   1.113  0.6090  2.0995 -2.0327
 5560TIP3   OH238238   3.196   5.924   1.757 -0.1317  0.1214  0.0487
 5560TIP3    H138239   3.163   5.891   1.673 -0.4642  1.4019 -0.3535
 5560TIP3    H238240   3.143   5.880   1.823  0.3429 -1.1420 -0.3755
 5561TIP3   OH238241   4.074   3.964   2.278 -0.2323  0.8930  0.7835
 5561TIP3    H138242   4.054   3.899   2.345  1.8895  0.3022  0.9182
 5561TIP3    H238243   4.131   3.918   2.216 -1.5685  1.6339 -1.0718
 5562TIP3   OH238244   6.902   4.263   0.914  0.3880  0.2203 -0.4334
 5562TIP3    H138245   6.845   4.235   0.985  2.7779 -0.6386  1.2886
 5562TIP3    H238246   6.886   4.357   0.905 -0.7484  0.1348  0.4852
 5563TIP3   OH238247   3.827   2.619   1.686  0.3942  0.0395  0.0565
 5563TIP3    H138248   3.832   2.541   1.631  0.4773  0.0588  0.0374
 5563TIP3    H238249   3.736   2.622   1.714 -0.0621  0.9463 -1.4118
 5564TIP3   OH238250   4.787   2.816   1.552  0.6214 -0.4032  0.3269
 5564TIP3    H138251   4.805   2.722   1.543 -0.8756 -1.0726  3.0900
 5564TIP3    H238252   4.851   2.847   1.615  1.1900  0.5141 -0.6664
 5565TIP3   OH238253   1.602   4.105   7.513 -0.0306 -0.4510 -0.0380
 5565TIP3    H138254   1.669   4.143   7.456  1.2660 -0.2268  1.5526
 5565TIP3    H238255   1.523   4.155   7.494  0.8961  1.0157 -0.1555
 5566TIP3   OH238256   6.103   5.263   1.079 -0.1240  0.4405 -0.0494
 5566TIP3    H138257   6.018   5.269   1.122  0.4884 -1.3701  1.5673
 5566TIP3    H238258   6.100   5.178   1.034  0.0705  1.3294 -1.8244
 5567TIP3   OH238259   4.400   6.909   7.776 -0.1449  0.5787  0.0586
 5567TIP3    H138260   4.486   6.925   7.738  0.9633 -2.0135  1.1911
 5567TIP3    H238261   4.384   6.815   7.761 -1.5945  0.4153  2.1101
 5568TIP3   OH238262   5.347   0.515   1.075  0.0836  0.1955 -0.3355
 5568TIP3    H138263   5.304   0.451   1.132 -1.2942 -1.2735 -2.8142
 5568TIP3    H238264   5.300   0.596   1.091 -1.3629 -0.5781 -0.4559
 5569TIP3   OH238265   1.504   2.543   0.670  0.0456  0.0784 -0.4367
 5569TIP3    H138266   1.574   2.523   0.733  0.6328 -1.2182 -1.4442
 5569TIP3    H238267   1.543   2.523   0.584 -1.0036  1.0124 -1.1493
 5570TIP3   OH238268   5.681   1.553   2.082  0.5009 -0.7601 -0.1212
 5570TIP3    H138269   5.620   1.611   2.128  0.9644 -0.0147 -0.4386
 5570TIP3    H238270   5.740   1.521   2.150  0.3149 -0.7764  0.0344
 5571TIP3   OH238271   4.906   1.901   8.417 -0.3866  0.4935 -0.3528
 5571TIP3    H138272   4.946   1.938   8.496 -0.3323  0.4470 -0.3590
 5571TIP3    H238273   4.830   1.957   8.401 -0.4185  0.4819 -0.2462
 5572TIP3   OH238274   4.877   6.804   1.952 -0.1939 -0.4129  0.4567
 5572TIP3    H138275   4.841   6.776   2.037 -1.5358 -0.8173 -0.2147
 5572TIP3    H238276   4.958   6.850   1.974  0.6484 -2.4057  1.8084
 5573TIP3   OH238277   3.028   3.334   3.299 -0.0490 -0.1862 -0.1184
 5573TIP3    H138278   3.000   3.417   3.260  0.4284  0.0218 -0.0266
 5573TIP3    H238279   3.121   3.328   3.277  0.0379 -0.4496  0.3155
 5574TIP3   OH238280   6.663   5.389   2.250 -0.3339  0.4780 -0.0233
 5574TIP3    H138281   6.709   5.305   2.251 -1.2188 -0.0162  0.2124
 5574TIP3    H238282   6.723   5.448   2.205 -0.0893 -0.5132 -1.0474
 5575TIP3   OH238283   5.263   6.352   3.613 -0.1330 -0.1105 -0.1564
 5575TIP3    H138284   5.318   6.282   3.579  1.6863  0.7426  0.8983
 5575TIP3    H238285   5.320   6.429   3.616 -1.5394  0.9623  0.4712
 5576TIP3   OH238286   2.278   0.546   0.524 -0.4285 -0.6166  0.4356
 5576TIP3    H138287   2.256   0.488   0.597  1.9846 -0.0979  1.6515
 5576TIP3    H238288   2.362   0.585   0.548 -1.3864  2.5508 -0.8435
 5577TIP3   OH238289   1.053   3.895   6.632  0.0033 -0.2784 -0.3183
 5577TIP3    H138290   1.047   3.854   6.545 -2.6967  0.1157 -0.4082
 5577TIP3    H238291   1.015   3.830   6.691 -0.0486  0.2717  0.2547
 5578TIP3   OH238292   3.630   3.299   0.492  0.3611  0.3549  0.0478
 5578TIP3    H138293   3.676   3.222   0.525 -0.6755  0.1183  0.9751
 5578TIP3    H238294   3.573   3.265   0.424 -0.8886  0.1082  1.1869
 5579TIP3   OH238295   5.078   6.037   0.610  0.5842  0.0152  0.2748
 5579TIP3    H138296   5.060   6.067   0.699 -0.6435 -0.4448  0.2068
 5579TIP3    H238297   5.080   5.941   0.617 -0.9908 -0.0983 -0.4157
 5580TIP3   OH238298   1.481   4.066   2.573  0.6099 -0.1778  0.0535
 5580TIP3    H138299   1.545   4.040   2.639 -0.4306  0.5856  1.4234
 5580TIP3    H238300   1.492   4.160   2.563  0.2299 -0.1643 -0.2885
 5581TIP3   OH238301   2.020   1.296   0.734  0.1614 -0.4831 -0.0444
 5581TIP3    H138302   1.954   1.272   0.799  0.4329 -1.5308 -0.1303
 5581TIP3    H238303   2.090   1.337   0.784 -0.0294 -0.4684  0.2090
 5582TIP3   OH238304   2.416   4.614   0.285 -0.3028 -0.5803 -0.0925
 5582TIP3    H138305   2.356   4.543   0.263  1.6139 -1.6392 -2.3775
 5582TIP3    H238306   2.397   4.682   0.221 -1.2686  0.5284  1.3007
 5583TIP3   OH238307   2.832   0.151   0.350 -0.3222 -0.3327  0.3487
 5583TIP3    H138308   2.878   0.081   0.304 -1.1734 -1.4144  1.0862
 5583TIP3    H238309   2.764   0.179   0.289  0.1422 -0.0036 -0.0252
 5584TIP3   OH238310   5.843   1.389   1.137  0.3077  0.3440 -0.0056
 5584TIP3    H138311   5.875   1.301   1.115 -0.3954  0.6847 -2.7433
 5584TIP3    H238312   5.861   1.398   1.231  0.7932 -2.5323  0.2707
 5585TIP3   OH238313   5.981   4.979   3.365 -0.3488 -0.8829  0.5983
 5585TIP3    H138314   6.068   4.990   3.404 -0.0257 -0.7910 -0.1309
 5585TIP3    H238315   5.943   5.066   3.366  0.1187 -0.6612 -0.3414
 5586TIP3   OH238316   0.508   1.649   1.307 -0.4767  0.2592  0.5698
 5586TIP3    H138317   0.466   1.611   1.230 -0.2508  0.1132  0.5178
 5586TIP3    H238318   0.550   1.729   1.276 -0.3566  0.1823  0.5348
 5587TIP3   OH238319   5.514   0.473   2.746  0.2726 -0.0769  0.1796
 5587TIP3    H138320   5.548   0.562   2.730 -0.6522  0.5207  1.3515
 5587TIP3    H238321   5.559   0.444   2.825 -0.9961  0.2584  1.0699
 5588TIP3   OH238322   4.457   0.973   7.827  0.0572  0.3079  0.2624
 5588TIP3    H138323   4.520   0.945   7.894  0.8110  1.1126 -0.0945
 5588TIP3    H238324   4.490   0.935   7.746  0.2438  0.9421  0.0330
 5589TIP3   OH238325   4.423   1.687   1.251 -0.2543 -0.2020 -0.4176
 5589TIP3    H138326   4.440   1.655   1.162 -0.8330 -2.5452  0.2486
 5589TIP3    H238327   4.463   1.622   1.308 -0.5886  0.8456  1.0634
 5590TIP3   OH238328   3.683   5.337   3.574  0.3762 -0.1454  0.5466
 5590TIP3    H138329   3.629   5.407   3.611  3.0795  1.4506  1.7355
 5590TIP3    H238330   3.626   5.295   3.509 -1.8008  2.3041  0.7111
 5591TIP3   OH238331   6.849   1.162   0.138  0.0529  0.2724 -0.0642
 5591TIP3    H138332   6.875   1.074   0.110  0.5848  0.3598  0.1364
 5591TIP3    H238333   6.795   1.147   0.215 -1.0239  0.0564 -0.8470
 5592TIP3   OH238334   1.003   1.521   1.428  0.3021 -0.1462 -0.0290
 5592TIP3    H138335   1.084   1.474   1.408 -0.9158 -2.9253  1.0851
 5592TIP3    H238336   1.016   1.608   1.390  3.7313 -0.4938 -0.0042
 5593TIP3   OH238337   4.440   3.636   1.392 -0.4031  0.4474  0.4866
 5593TIP3    H138338   4.534   3.632   1.376 -0.3770 -0.7198  0.7712
 5593TIP3    H238339   4.428   3.713   1.448  0.3569  0.7143  0.2884
 5594TIP3   OH238340   6.396   1.223   0.859 -0.0749 -0.6214  0.0470
 5594TIP3    H138341   6.486   1.249   0.876 -0.4572  1.1214 -0.4442
 5594TIP3    H238342   6.391   1.217   0.764 -0.0227 -2.5370  0.1313
 5595TIP3   OH238343   6.786   2.239   8.391  0.1316 -0.2786 -0.5821
 5595TIP3    H138344   6.722   2.177   8.357 -0.3890  0.0454 -0.2163
 5595TIP3    H238345   6.839   2.264   8.315 -0.0987 -0.6443 -0.8624
 5596TIP3   OH238346   2.277   5.914   1.413 -0.1109 -0.4509  0.0348
 5596TIP3    H138347   2.266   5.993   1.360 -1.5129 -0.9938 -0.5363
 5596TIP3    H238348   2.213   5.923   1.484 -1.3053 -1.6706 -0.8299
 5597TIP3   OH238349   3.693   6.571   8.503 -0.3659  0.4028  0.0752
 5597TIP3    H138350   3.777   6.572   8.456 -0.4071  1.2771 -0.0048
 5597TIP3    H238351   3.643   6.643   8.464 -1.3778 -0.4571 -0.2564
 5598TIP3   OH238352   3.038   2.718   7.635 -0.7021  0.1758 -0.3164
 5598TIP3    H138353   2.955   2.742   7.675 -1.4976  1.2327 -2.4194
 5598TIP3    H238354   3.014   2.655   7.567  0.5879 -1.5684  0.7501
 5599TIP3   OH238355   4.261   0.520   3.214  0.4168 -0.0346 -0.3337
 5599TIP3    H138356   4.206   0.478   3.280  1.0137 -0.1541  0.0910
 5599TIP3    H238357   4.226   0.488   3.131 -0.6466  0.4922 -0.1068
 5600TIP3   OH238358   6.254   0.205   1.657  0.4865  0.1670 -0.3203
 5600TIP3    H138359   6.303   0.276   1.614  3.4908 -0.5172  1.5978
 5600TIP3    H238360   6.208   0.161   1.587  2.3144  1.2051 -2.3018
 5601TIP3   OH238361   5.763   2.431   3.322 -0.4161 -0.1156 -0.1274
 5601TIP3    H138362   5.734   2.502   3.263  0.6079  0.7742  0.4087
 5601TIP3    H238363   5.708   2.357   3.298 -3.0077  1.4002  0.6716
 5602TIP3   OH238364   5.430   6.808   1.489  0.0199 -0.0887  0.0241
 5602TIP3    H138365   5.469   6.801   1.576 -1.9796 -0.8479  0.9282
 5602TIP3    H238366   5.339   6.833   1.505 -0.2238  0.4867 -1.9056
 5603TIP3   OH238367   6.489   6.141   0.747 -1.0417  0.0365  0.4009
 5603TIP3    H138368   6.549   6.112   0.815 -1.3012  0.1221  0.6707
 5603TIP3    H238369   6.490   6.071   0.682 -1.7097 -0.6247  1.0777
 5604TIP3   OH238370   1.780   0.763   2.291  0.4476 -0.0712  0.2352
 5604TIP3    H138371   1.793   0.783   2.383 -0.0663  0.0821  0.2771
 5604TIP3    H238372   1.759   0.669   2.290  0.9053 -0.1724  0.2302
 5605TIP3   OH238373   4.062   5.239   8.535 -0.0525  0.1762  0.2014
 5605TIP3    H138374   4.055   5.226   8.440 -0.1887  0.7851  0.1249
 5605TIP3    H238375   4.156   5.240   8.552 -0.0223 -1.8383  0.3528
 5606TIP3   OH238376   6.122   2.314   1.892  0.5955  0.2995 -0.0077
 5606TIP3    H138377   6.070   2.312   1.972  0.8108 -3.3508  0.2045
 5606TIP3    H238378   6.199   2.365   1.915  0.6676 -0.6808  2.1711
 5607TIP3   OH238379   3.548   5.565   3.623  0.2194  0.0050  0.5375
 5607TIP3    H138380   3.570   5.650   3.584  0.7306  1.0258  2.8706
 5607TIP3    H238381   3.460   5.545   3.588 -0.2479  1.8814  0.5393
 5608TIP3   OH238382   0.065   0.872   1.559  0.5856  0.5356  0.4611
 5608TIP3    H138383   0.069   0.807   1.628 -0.5383  1.2119  1.1960
 5608TIP3    H238384   0.114   0.834   1.486 -1.0223 -1.6473  0.4383
 5609TIP3   OH238385   4.369   2.490   0.628  0.1635 -0.2790  0.0621
 5609TIP3    H138386   4.411   2.520   0.709  0.6263  1.3545 -0.7430
 5609TIP3    H238387   4.277   2.514   0.639 -0.2396 -2.0484  0.9804
 5610TIP3   OH238388   0.325   2.798   7.363 -0.3019  0.0233  0.5955
 5610TIP3    H138389   0.383   2.854   7.311 -0.4962 -0.6157 -0.3227
 5610TIP3    H238390   0.270   2.753   7.299 -1.4873  0.2460  1.4256
 5611TIP3   OH238391   6.826   2.819   2.007  0.4035  0.4795 -0.6301
 5611TIP3    H138392   6.781   2.754   2.060 -0.1340  1.6770  0.4609
 5611TIP3    H238393   6.893   2.855   2.066  0.5715  1.0338 -1.1464
 5612TIP3   OH238394   2.506   2.926   8.564 -0.7489 -0.2951  0.1066
 5612TIP3    H138395   2.592   2.941   8.604 -0.5568 -1.1639  0.0332
 5612TIP3    H238396   2.445   2.972   8.622 -0.0760  2.1184 -0.9559
 5613TIP3   OH238397   6.595   1.179   1.972 -1.0125  0.2311 -0.9146
 5613TIP3    H138398   6.543   1.199   1.894 -0.9863  0.2337 -0.9316
 5613TIP3    H238399   6.601   1.084   1.972 -2.1970  0.1437 -0.1433
 5614TIP3   OH238400   1.895   4.802   2.282  0.6307 -0.2395  0.4545
 5614TIP3    H138401   1.852   4.853   2.350 -2.0422  1.8023 -2.4704
 5614TIP3    H238402   1.823   4.758   2.236  2.0926 -0.2658 -1.9849
 5615TIP3   OH238403   3.577   2.279   0.086 -0.1056  0.5886 -0.4212
 5615TIP3    H138404   3.594   2.238   0.001  0.0159  0.3781 -0.2957
 5615TIP3    H238405   3.643   2.348   0.093  3.0505 -2.3071  1.5201
 5616TIP3   OH238406   3.183   6.889   1.942 -0.8112 -0.6918 -0.9899
 5616TIP3    H138407   3.220   6.893   1.854  0.0634 -1.0544 -0.6537
 5616TIP3    H238408   3.238   6.826   1.988 -1.7252 -1.0650 -0.3933
 5617TIP3   OH238409   5.265   0.795   2.691 -0.4434  0.0428 -0.1382
 5617TIP3    H138410   5.294   0.705   2.672 -1.2491  0.3310 -3.1958
 5617TIP3    H238411   5.191   0.784   2.751  0.7815 -1.1322  1.2789
 5618TIP3   OH238412   1.879   3.489   2.449  0.5504  0.0277  0.1063
 5618TIP3    H138413   1.907   3.512   2.537 -3.1259  3.1027  0.7220
 5618TIP3    H238414   1.817   3.416   2.462 -0.1653  0.6312  0.1325
 5619TIP3   OH238415   4.168   1.689   0.099 -0.4764  0.5191  0.1185
 5619TIP3    H138416   4.254   1.681   0.140 -0.5419  0.2337  0.1964
 5619TIP3    H238417   4.184   1.745   0.022 -0.1853  0.3062  0.0225
 5620TIP3   OH238418   0.136   6.508   3.275 -0.2795  0.0173 -0.6507
 5620TIP3    H138419   0.104   6.598   3.270  0.1788  0.2604  0.5295
 5620TIP3    H238420   0.102   6.474   3.358 -0.2400 -0.8181 -0.9626
 5621TIP3   OH238421   6.406   4.998   0.031  0.0126  0.3613  0.7599
 5621TIP3    H138422   6.438   5.088   0.031  0.1448  0.3155  0.9803
 5621TIP3    H238423   6.313   5.005   0.009 -0.2522  0.6517  1.9137
 5622TIP3   OH238424   4.438   2.891   8.243 -0.0914 -0.0526  0.2539
 5622TIP3    H138425   4.409   2.964   8.189 -1.6214  0.0806  1.2079
 5622TIP3    H238426   4.461   2.931   8.327  1.5688 -0.3537 -0.0117
 5623TIP3   OH238427   6.828   3.140   1.951  1.2446 -0.3378 -0.2135
 5623TIP3    H138428   6.885   3.083   1.898  2.7880  0.7817  0.1711
 5623TIP3    H238429   6.779   3.191   1.887  0.9002 -1.0790 -0.5539
 5624TIP3   OH238430   5.598   6.165   8.019  0.1242  0.0816 -0.1447
 5624TIP3    H138431   5.521   6.118   8.050  0.1100  0.1399 -0.0899
 5624TIP3    H238432   5.659   6.161   8.093  0.8547 -1.4624 -0.7969
 5625TIP3   OH238433   2.135   5.092   2.905 -0.0841 -0.2953 -0.2165
 5625TIP3    H138434   2.053   5.084   2.857 -0.9567 -1.8208  1.4122
 5625TIP3    H238435   2.203   5.080   2.839 -1.0643  2.1086 -1.8089
 5626TIP3   OH238436   3.230   1.997   0.705 -0.2891 -0.1204 -0.5945
 5626TIP3    H138437   3.194   2.085   0.713  1.2529  0.4953 -0.0819
 5626TIP3    H238438   3.318   2.010   0.672  0.2467 -1.4161  0.2303
 5627TIP3   OH238439   1.798   6.428   2.210 -0.4699  0.7684 -0.2712
 5627TIP3    H138440   1.840   6.370   2.146  0.3274  1.3587 -0.2966
 5627TIP3    H238441   1.733   6.372   2.254 -0.0848  0.0014 -0.6575
 5628TIP3   OH238442   0.838   0.044   0.115  0.1377  0.0713  0.7910
 5628TIP3    H138443   0.829  -0.029   0.176  1.0719 -1.4533 -0.7910
 5628TIP3    H238444   0.929   0.038   0.085 -0.0513  1.3113 -0.0878
 5629TIP3   OH238445   1.389   2.600   2.675 -0.3579  0.2369 -0.3811
 5629TIP3    H138446   1.455   2.617   2.743  0.1284 -0.8311 -0.5675
 5629TIP3    H238447   1.313   2.569   2.724 -0.1410 -0.1578 -0.2903
 5630TIP3   OH238448   2.479   0.583   7.416  0.2263 -0.3929 -0.1750
 5630TIP3    H138449   2.574   0.575   7.404  0.1724 -0.1480 -0.7603
 5630TIP3    H238450   2.445   0.496   7.395  0.1833 -0.1082 -1.3411
 5631TIP3   OH238451   4.332   0.256   8.136  0.1683  0.2871  0.0812
 5631TIP3    H138452   4.252   0.280   8.183  0.4029 -1.9170  1.7332
 5631TIP3    H238453   4.311   0.173   8.093  1.4613 -0.1714  0.2958
 5632TIP3   OH238454   0.840   6.740   2.473 -0.5003 -0.1165 -0.6030
 5632TIP3    H138455   0.807   6.651   2.457  0.2809 -0.5099 -0.0965
 5632TIP3    H238456   0.811   6.761   2.562  0.1490 -0.2528 -0.3577
 5633TIP3   OH238457   5.065   6.883   2.327 -0.2817  0.3858  0.0128
 5633TIP3    H138458   5.019   6.806   2.361 -0.5436  0.4392 -0.2229
 5633TIP3    H238459   5.108   6.852   2.247  2.1246 -0.3205  1.4707
 5634TIP3   OH238460   1.647   0.188   1.994  0.3140 -0.1514  0.1802
 5634TIP3    H138461   1.627   0.109   2.045  2.3345 -0.0520  1.2569
 5634TIP3    H238462   1.743   0.190   1.991  0.2731  1.5311 -1.0093
 5635TIP3   OH238463   6.389   3.598   8.531 -0.0066  0.0268  0.3552
 5635TIP3    H138464   6.372   3.683   8.570  1.9959 -0.0245  1.4900
 5635TIP3    H238465   6.377   3.536   8.603  0.9842 -0.3575  0.2123
 5636TIP3   OH238466   3.120   3.761   0.252 -0.1102 -0.7229 -0.9481
 5636TIP3    H138467   3.160   3.846   0.271 -0.2497 -0.0521 -3.2716
 5636TIP3    H238468   3.027   3.781   0.243 -0.7913 -1.8696  2.1639
 5637TIP3   OH238469   4.473   2.263   0.530  0.1347  0.4345 -0.0090
 5637TIP3    H138470   4.568   2.275   0.517  0.0567 -0.2416 -1.3416
 5637TIP3    H238471   4.445   2.343   0.575  1.6158 -0.1114  2.0543
 5638TIP3   OH238472   2.986   6.613   7.686  0.3870 -0.2959 -0.4420
 5638TIP3    H138473   2.939   6.682   7.641  0.9061 -0.1399 -0.7448
 5638TIP3    H238474   2.941   6.532   7.659  0.4553 -0.1725 -0.9366
 5639TIP3   OH238475   5.786   1.247   2.521  0.0208 -0.5490 -0.1286
 5639TIP3    H138476   5.788   1.179   2.588 -0.1468 -1.3144 -0.8798
 5639TIP3    H238477   5.697   1.244   2.487 -0.1431  0.4011  0.1620
 5640TIP3   OH238478   6.338   6.485   1.591  0.8036 -0.3570 -0.6868
 5640TIP3    H138479   6.304   6.402   1.625 -0.3737  0.7184  0.9038
 5640TIP3    H238480   6.280   6.506   1.518 -0.2700  0.0991  0.2729
 5641TIP3   OH238481   5.227   0.823   7.299 -0.2213 -0.2152  0.2073
 5641TIP3    H138482   5.239   0.913   7.331  1.5722 -0.9066  1.5836
 5641TIP3    H238483   5.146   0.794   7.340 -2.6205  1.7284 -2.6887
 5642TIP3   OH238484   0.994   3.486   2.521  0.4822  0.3825  1.0837
 5642TIP3    H138485   1.038   3.496   2.605  0.0661  0.1769  1.3309
 5642TIP3    H238486   0.901   3.476   2.544  0.0414  2.6227  0.4919
 5643TIP3   OH238487   0.420   1.305   2.867  0.2793  0.2734 -0.0648
 5643TIP3    H138488   0.355   1.321   2.936  0.4687 -2.5543  0.9293
 5643TIP3    H238489   0.367   1.290   2.788 -0.2555 -0.7858  0.4659
 5644TIP3   OH238490   3.119   1.837   7.953  0.3171  0.1202  0.0363
 5644TIP3    H138491   3.171   1.791   8.020  0.1049  1.3651  1.0955
 5644TIP3    H238492   3.128   1.783   7.875  1.7910 -0.6044  0.6640
 5645TIP3   OH238493   3.953   1.882   1.083  0.5904  0.3001 -0.1533
 5645TIP3    H138494   3.930   1.974   1.088  0.4955  0.2123  1.9987
 5645TIP3    H238495   3.906   1.850   1.005 -2.6691  1.2266  1.2454
 5646TIP3   OH238496   1.236   1.321   8.193 -0.9661 -0.5390  0.3027
 5646TIP3    H138497   1.330   1.319   8.213 -0.8523  1.8485  0.3702
 5646TIP3    H238498   1.231   1.310   8.098 -0.5268  0.0991  0.1959
 5647TIP3   OH238499   5.986   5.565   8.385 -0.8217 -0.4434 -0.1273
 5647TIP3    H138500   5.957   5.518   8.306 -0.5246  0.7805 -0.9938
 5647TIP3    H238501   5.926   5.639   8.392 -2.1011 -1.5703  1.9677
 5648TIP3   OH238502   1.140   4.907   8.089 -0.0354 -0.1618 -0.2504
 5648TIP3    H138503   1.165   4.987   8.135  2.7702 -1.0394 -0.0521
 5648TIP3    H238504   1.197   4.904   8.012 -1.3985 -1.0621 -1.2900
 5649TIP3   OH238505   3.276   5.376   2.786 -0.2177  0.0704  0.2159
 5649TIP3    H138506   3.243   5.450   2.735  0.0211 -0.4708 -0.7451
 5649TIP3    H238507   3.372   5.385   2.782 -0.1865 -0.3185  0.0440
 5650TIP3   OH238508   4.682   2.046   8.358  0.1243  0.2024 -0.1451
 5650TIP3    H138509   4.677   2.139   8.336 -0.9495  0.0270 -0.7226
 5650TIP3    H238510   4.633   2.037   8.440 -1.4976 -0.1156 -1.0862
 5651TIP3   OH238511   3.229   1.970   8.161  0.2980 -0.5010  0.8340
 5651TIP3    H138512   3.278   2.050   8.146 -0.6284 -0.0809 -0.1027
 5651TIP3    H238513   3.167   1.965   8.088  0.6265 -2.2998  0.6215
 5652TIP3   OH238514   4.997   0.136   0.504 -0.2352 -0.5451  0.4168
 5652TIP3    H138515   5.042   0.090   0.574  0.2268 -0.7207  0.0099
 5652TIP3    H238516   5.063   0.198   0.471 -0.4518 -0.4587  0.1480
 5653TIP3   OH238517   5.264   0.307   1.220  0.6552  0.4749 -0.0345
 5653TIP3    H138518   5.350   0.330   1.253 -0.7405  0.6741  3.9507
 5653TIP3    H238519   5.246   0.221   1.257 -1.5219  1.2074  0.7637
 5654TIP3   OH238520   5.862   6.074   0.322  0.3292 -0.4352 -0.2017
 5654TIP3    H138521   5.950   6.042   0.301  1.0071  0.6049  0.9236
 5654TIP3    H238522   5.827   6.103   0.238  1.1159 -0.7509 -0.6552
 5655TIP3   OH238523   0.851   1.835   0.659 -0.1053  0.2969 -0.3355
 5655TIP3    H138524   0.759   1.844   0.686 -0.7883 -3.2436 -0.9728
 5655TIP3    H238525   0.849   1.846   0.564  0.0898  0.0964 -0.3632
 5656TIP3   OH238526   2.754   0.986   0.468  0.3137  0.0022 -0.5377
 5656TIP3    H138527   2.672   0.951   0.503  1.7682 -1.5704  1.5490
 5656TIP3    H238528   2.751   0.964   0.374 -1.6484  0.0469 -0.5306
 5657TIP3   OH238529   3.037   4.143   7.716 -0.5788 -0.4654 -0.0108
 5657TIP3    H138530   3.071   4.100   7.794  0.2782 -2.1792 -1.2695
 5657TIP3    H238531   2.958   4.094   7.694 -0.6609 -0.1732 -0.3808
 5658TIP3   OH238532   0.144   5.418   0.057 -0.1327  0.4264 -0.0573
 5658TIP3    H138533   0.149   5.357  -0.017  0.1569  0.6985 -0.2634
 5658TIP3    H238534   0.057   5.405   0.093  0.4718 -1.3287  0.9302
 5659TIP3   OH238535   5.902   5.801   1.683  0.0180 -0.5510  0.2530
 5659TIP3    H138536   5.849   5.881   1.692  1.5535  0.9800 -2.7674
 5659TIP3    H238537   5.843   5.739   1.640 -0.2209  0.1926 -0.5385
 5660TIP3   OH238538   0.263   6.338   1.126  0.0983  0.2334 -0.4758
 5660TIP3    H138539   0.168   6.348   1.133  0.0960 -0.5692  1.2981
 5660TIP3    H238540   0.297   6.427   1.122 -0.5962  0.6379  1.6584
 5661TIP3   OH238541   2.102   3.473   1.322 -0.1039  0.0931 -0.3750
 5661TIP3    H138542   2.072   3.550   1.370 -0.5627 -0.2696 -0.0768
 5661TIP3    H238543   2.153   3.509   1.249 -1.7238  0.7694 -1.2384
 5662TIP3   OH238544   5.696   4.889   0.559  0.8996  0.1136  0.0472
 5662TIP3    H138545   5.787   4.879   0.531  0.8166 -1.7292  0.2702
 5662TIP3    H238546   5.675   4.806   0.603 -0.3034  1.2195  1.7298
 5663TIP3   OH238547   1.142   3.845   7.193  0.5241 -0.0199  0.2818
 5663TIP3    H138548   1.202   3.772   7.177  0.6984  0.4385 -1.3605
 5663TIP3    H238549   1.195   3.909   7.240  0.4529 -0.8096  1.4798
 5664TIP3   OH238550   4.901   0.037   2.658  0.4746  0.1393  0.3801
 5664TIP3    H138551   4.922   0.051   2.750  0.2405 -0.7776  0.5844
 5664TIP3    H238552   4.960  -0.033   2.630 -0.6475 -0.8234  0.3272
 5665TIP3   OH238553   2.528   2.310   0.892  0.0535  0.3865  0.1311
 5665TIP3    H138554   2.551   2.343   0.979  1.5529 -1.3728  0.4697
 5665TIP3    H238555   2.579   2.362   0.831 -0.8421  1.4868  0.2861
 5666TIP3   OH238556   5.615   1.138   2.825  0.0871 -0.0519  0.4194
 5666TIP3    H138557   5.695   1.096   2.794 -0.1622 -1.7393  1.9152
 5666TIP3    H238558   5.544   1.080   2.797 -0.9794  2.5242 -2.8832
 5667TIP3   OH238559   4.600   2.709   0.402  0.0984 -0.2522 -0.1293
 5667TIP3    H138560   4.616   2.752   0.486  0.1617  0.2018 -0.3729
 5667TIP3    H238561   4.505   2.706   0.394 -0.0182  3.1539 -1.7586
 5668TIP3   OH238562   0.498   3.968   7.988  0.3932 -0.4656  0.5232
 5668TIP3    H138563   0.565   4.016   8.036 -0.1594  2.7780 -1.5781
 5668TIP3    H238564   0.545   3.930   7.913  0.4372 -1.2735  0.9503
 5669TIP3   OH238565   4.618   6.301   0.434  0.2806  0.8830 -0.3120
 5669TIP3    H138566   4.659   6.305   0.521 -1.4553  0.9457  0.5472
 5669TIP3    H238567   4.655   6.222   0.394  1.8077  1.3591  0.0789
 5670TIP3   OH238568   5.306   5.515   0.340 -0.5512 -0.1208 -0.4405
 5670TIP3    H138569   5.348   5.600   0.326 -0.8848 -0.1411 -1.7517
 5670TIP3    H238570   5.378   5.452   0.338 -0.3535  0.0857  0.0561
 5671TIP3   OH238571   5.531   4.548   1.843  0.6707  0.1080 -0.1029
 5671TIP3    H138572   5.478   4.591   1.910  1.4114 -0.0901  0.6265
 5671TIP3    H238573   5.470   4.491   1.797 -0.0244  0.8896 -0.1591
 5672TIP3   OH238574   0.285   1.926   7.907 -0.3439 -0.0074 -0.0539
 5672TIP3    H138575   0.217   1.937   7.840  2.1651 -1.6837 -3.1795
 5672TIP3    H238576   0.345   1.999   7.891  0.0290 -0.1323  0.7606
 5673TIP3   OH238577   6.423   6.764   2.774 -0.2130  0.5224  0.1594
 5673TIP3    H138578   6.514   6.791   2.762 -0.1117 -0.1865 -0.7658
 5673TIP3    H238579   6.372   6.835   2.735  0.0051  0.1427 -0.8387
 5674TIP3   OH238580   2.799   0.630   1.502 -0.2689 -0.3170  0.1903
 5674TIP3    H138581   2.764   0.627   1.591  0.1016  0.3964  0.3666
 5674TIP3    H238582   2.887   0.665   1.513 -0.8915  1.6232 -0.6443
 5675TIP3   OH238583   5.174   0.062   1.358  0.4608 -0.3728  0.0984
 5675TIP3    H138584   5.204   0.003   1.289 -0.7902  0.8381 -1.5701
 5675TIP3    H238585   5.078   0.061   1.350  0.3953  1.7509  0.0861
 5676TIP3   OH238586   4.703   3.736   2.252  0.6040 -0.2773 -0.0685
 5676TIP3    H138587   4.660   3.676   2.191  2.5102  1.1420 -3.0276
 5676TIP3    H238588   4.679   3.824   2.221  2.7601  0.5013  0.2994
 5677TIP3   OH238589   0.555   5.757   7.162  0.2075  0.7560 -0.6145
 5677TIP3    H138590   0.555   5.848   7.131  0.5178  1.2078  0.6298
 5677TIP3    H238591   0.467   5.744   7.197  0.3091  0.7366 -0.3625
 5678TIP3   OH238592   5.008   1.582   1.906 -0.0172 -0.5304 -0.4453
 5678TIP3    H138593   5.018   1.529   1.827  1.3460 -0.2752 -0.4640
 5678TIP3    H238594   4.935   1.542   1.953 -0.9996 -0.5535 -1.9230
 5679TIP3   OH238595   3.157   4.410   8.246 -0.3034  0.0228  0.1531
 5679TIP3    H138596   3.064   4.404   8.267 -0.5445  0.2308 -0.7861
 5679TIP3    H238597   3.180   4.322   8.216  0.1311 -0.3751  1.5972
 5680TIP3   OH238598   0.511   3.349   0.247 -0.2009 -0.4912 -0.5083
 5680TIP3    H138599   0.453   3.347   0.171  1.2579 -2.3265 -1.6708
 5680TIP3    H238600   0.452   3.340   0.322 -1.5040 -1.5415 -1.5982
 5681TIP3   OH238601   1.730   3.780   1.549  0.4734  0.2355 -0.0997
 5681TIP3    H138602   1.659   3.798   1.488  1.6459 -0.7187 -1.8416
 5681TIP3    H238603   1.689   3.737   1.624 -0.7778 -0.2617 -1.0499
 5682TIP3   OH238604   2.967   3.276   1.953 -0.0129 -0.3689 -0.3288
 5682TIP3    H138605   2.873   3.293   1.947  0.2473  0.7870 -1.8339
 5682TIP3    H238606   2.984   3.211   1.884  0.2952 -0.5859 -0.0509
 5683TIP3   OH238607   5.905   1.032   2.300  0.4918 -0.2241 -0.0014
 5683TIP3    H138608   5.852   0.955   2.279 -0.6904  0.1875  1.2837
 5683TIP3    H238609   5.844   1.105   2.291  2.1368  0.8975 -3.3993
 5684TIP3   OH238610   1.495   4.357   8.382  0.1012  0.2906  0.2458
 5684TIP3    H138611   1.589   4.371   8.380  0.7653 -3.3039 -0.0034
 5684TIP3    H238612   1.481   4.301   8.458 -1.5659 -0.7388 -0.7557
 5685TIP3   OH238613   0.823   0.222   7.788 -0.3858  0.5077  0.2105
 5685TIP3    H138614   0.743   0.185   7.752 -0.2963  1.2785 -0.8306
 5685TIP3    H238615   0.893   0.187   7.732  0.0223 -0.2100  1.1455
 5686TIP3   OH238616   5.702   2.016   1.717 -0.3681 -0.0807  0.0859
 5686TIP3    H138617   5.772   1.971   1.669 -0.3466 -0.9613  0.9031
 5686TIP3    H238618   5.644   1.945   1.745 -0.5924  0.4542  0.9963
 5687TIP3   OH238619   5.259   2.196   0.611  0.2580 -0.1449  0.2415
 5687TIP3    H138620   5.179   2.228   0.654 -0.0843 -0.1053 -0.4093
 5687TIP3    H238621   5.249   2.101   0.609  0.9956 -0.2754  1.6304
 5688TIP3   OH238622   0.372   3.264   2.985  0.1376  0.1916 -0.0093
 5688TIP3    H138623   0.359   3.169   2.988  0.6790  0.0566 -1.2938
 5688TIP3    H238624   0.464   3.276   3.011  0.4422  0.2372 -1.0517
 5689TIP3   OH238625   3.465   1.128   3.058 -0.3017 -0.2567  0.1728
 5689TIP3    H138626   3.471   1.223   3.061 -0.6279 -0.2203 -0.2434
 5689TIP3    H238627   3.497   1.099   3.143  2.3126  0.0779 -0.6120
 5690TIP3   OH238628   1.144   2.462   8.498  0.0610 -0.2429 -0.7172
 5690TIP3    H138629   1.119   2.436   8.587  1.4568 -0.0053 -0.2267
 5690TIP3    H238630   1.127   2.385   8.445  0.4483 -0.8471  0.0125
 5691TIP3   OH238631   1.632   4.608   8.283 -0.1108  1.1504 -0.5208
 5691TIP3    H138632   1.536   4.616   8.277  0.0904  2.9257 -2.4471
 5691TIP3    H238633   1.649   4.591   8.376 -2.3519 -0.8371 -0.3601
 5692TIP3   OH238634   2.727   0.459   7.357 -0.3477 -0.0793 -0.3558
 5692TIP3    H138635   2.782   0.449   7.280 -2.5586  0.9094 -2.1632
 5692TIP3    H238636   2.708   0.369   7.384 -1.0340 -0.4994 -2.1111
 5693TIP3   OH238637   1.035   0.712   1.807  0.4594 -0.3625 -0.2726
 5693TIP3    H138638   1.025   0.658   1.886  0.4453 -1.4619 -0.9987
 5693TIP3    H238639   0.982   0.790   1.824 -0.9835 -1.3925  0.0964
 5694TIP3   OH238640   6.575   1.735   8.439  0.1891 -0.2232 -0.1947
 5694TIP3    H138641   6.522   1.690   8.374  1.0425 -1.3391 -0.1497
 5694TIP3    H238642   6.625   1.665   8.481  1.1890  0.7232  0.2205
 5695TIP3   OH238643   2.769   5.092   1.357 -0.2068  0.0822 -0.1502
 5695TIP3    H138644   2.824   5.168   1.338  0.5203 -0.3924  0.0296
 5695TIP3    H238645   2.784   5.073   1.449  0.2698 -0.7899 -0.3933
 5696TIP3   OH238646   6.894   5.800   0.383 -0.3060 -0.0486 -0.0557
 5696TIP3    H138647   6.969   5.741   0.381 -0.2760 -0.0486 -2.8531
 5696TIP3    H238648   6.932   5.885   0.409  0.5787 -0.1913 -0.8113
 5697TIP3   OH238649   5.104   2.161   8.479 -0.0915 -0.3448 -0.4653
 5697TIP3    H138650   5.168   2.218   8.520 -1.6715  0.9471  0.3330
 5697TIP3    H238651   5.122   2.074   8.516  1.2594 -0.0438 -0.3771
 5698TIP3   OH238652   0.422   2.412   1.941  0.3790  0.7163 -0.5670
 5698TIP3    H138653   0.489   2.473   1.908  0.4287  0.8079 -0.2954
 5698TIP3    H238654   0.404   2.441   2.030  0.5286  0.2254 -0.3738
 5699TIP3   OH238655   6.284   2.290   0.145  0.9295  0.0040 -0.2029
 5699TIP3    H138656   6.224   2.215   0.146  1.1411 -0.1718  1.2804
 5699TIP3    H238657   6.237   2.357   0.096 -0.4596 -0.1766  0.8032
 5700TIP3   OH238658   5.550   3.078   2.516 -0.4077 -0.1872  0.4892
 5700TIP3    H138659   5.458   3.097   2.495  0.2653  1.8110 -0.9417
 5700TIP3    H238660   5.555   2.983   2.518 -2.4989 -0.3448  0.5831
 5701TIP3   OH238661   2.860   5.100   2.717 -0.0965 -0.0659  0.6851
 5701TIP3    H138662   2.771   5.088   2.748 -0.2838 -0.3418  0.0521
 5701TIP3    H238663   2.856   5.081   2.623  0.4697  0.6801  0.5006
 5702TIP3   OH238664   2.029   3.174   2.458 -0.0939 -0.1558 -0.0844
 5702TIP3    H138665   2.054   3.238   2.391 -1.6201 -0.5532 -1.0888
 5702TIP3    H238666   2.058   3.090   2.423  1.6636 -0.0941  1.1072
 5703TIP3   OH238667   1.160   3.635   0.574 -0.7758 -0.2078 -0.1727
 5703TIP3    H138668   1.194   3.625   0.663  0.9518 -2.2326 -0.9651
 5703TIP3    H238669   1.231   3.674   0.524 -1.9688  1.5598 -0.5796
 5704TIP3   OH238670   5.338   6.263   1.139 -0.7047 -0.1070  0.0420
 5704TIP3    H138671   5.407   6.210   1.099  0.5826  1.7961 -0.3785
 5704TIP3    H238672   5.289   6.299   1.066  0.2701  1.5992  0.1867
 5705TIP3   OH238673   3.753   5.183   1.960  0.0091 -0.0839  0.3058
 5705TIP3    H138674   3.755   5.104   2.014 -1.9865 -0.3622  0.0435
 5705TIP3    H238675   3.778   5.154   1.873  0.4292 -0.1846  0.4563
 5706TIP3   OH238676   1.445   3.462   8.462 -0.2152 -0.5212  0.1469
 5706TIP3    H138677   1.416   3.396   8.525 -1.6084 -1.0100 -0.9504
 5706TIP3    H238678   1.462   3.540   8.516  1.7418 -1.7860  1.4906
 5707TIP3   OH238679   1.572   3.924   8.240  1.2004  0.1275 -0.2196
 5707TIP3    H138680   1.660   3.887   8.243  1.8021  1.5403  0.5543
 5707TIP3    H238681   1.575   3.985   8.166  1.0912  0.6932  0.2405
 5708TIP3   OH238682   6.143   2.033   7.803  0.2817  0.0495 -0.4160
 5708TIP3    H138683   6.113   1.943   7.814 -1.6906  0.7974  1.0690
 5708TIP3    H238684   6.219   2.041   7.860  0.4500 -0.6733 -0.5383
 5709TIP3   OH238685   0.303   1.180   0.061 -0.1403  0.0874 -0.3729
 5709TIP3    H138686   0.264   1.228   0.135 -0.4794 -1.3590  0.4313
 5709TIP3    H238687   0.397   1.190   0.073 -0.2011  0.2768 -0.0280
 5710TIP3   OH238688   5.519   0.838   2.960  0.0775  0.3313  0.4790
 5710TIP3    H138689   5.469   0.916   2.983  0.2659 -0.0900  2.4588
 5710TIP3    H238690   5.574   0.820   3.036  1.1448 -0.8884 -0.5094
 5711TIP3   OH238691   0.119   0.336   0.532  0.1100  0.2527  0.7236
 5711TIP3    H138692   0.146   0.414   0.484 -0.8744  1.2581  1.7429
 5711TIP3    H238693   0.201   0.291   0.553  1.0478  2.6182  2.7536
 5712TIP3   OH238694   1.402   5.879   3.306  0.0212  0.7458  0.0143
 5712TIP3    H138695   1.430   5.790   3.287  3.4821  1.6136  0.4532
 5712TIP3    H238696   1.438   5.899   3.392  1.0144  3.1279 -0.8518
 5713TIP3   OH238697   4.500   1.206   8.546  0.4017  0.5200 -0.4472
 5713TIP3    H138698   4.550   1.148   8.603  0.8538  0.7777 -0.5749
 5713TIP3    H238699   4.562   1.274   8.521  0.0387  0.7395 -0.7645
 5714TIP3   OH238700   3.981   3.849   2.585 -0.2536 -0.2576 -0.0148
 5714TIP3    H138701   3.965   3.762   2.621  0.5193 -0.7281 -0.7570
 5714TIP3    H238702   4.030   3.895   2.653 -3.0198  0.6065  1.5540
 5715TIP3   OH238703   4.689   1.872   2.191 -0.0712 -0.3387  0.0349
 5715TIP3    H138704   4.784   1.878   2.187 -0.1273  0.8541  0.0541
 5715TIP3    H238705   4.664   1.930   2.263 -0.8000 -0.8480  0.2088
 5716TIP3   OH238706   4.921   0.871   8.045 -0.3389 -0.3548 -0.2079
 5716TIP3    H138707   4.988   0.855   7.979  0.8538  0.1226  0.8386
 5716TIP3    H238708   4.922   0.791   8.099 -1.2095 -0.6872 -0.6654
 5717TIP3   OH238709   3.154   4.543   1.046  0.2973 -0.4775 -0.2548
 5717TIP3    H138710   3.165   4.510   0.957  1.5515 -1.0365  0.0787
 5717TIP3    H238711   3.208   4.622   1.050 -0.0119 -0.2723 -0.0781
 5718TIP3   OH238712   1.061   6.663   0.163  0.1117  0.2650 -0.3323
 5718TIP3    H138713   1.109   6.582   0.147 -0.4213 -0.4236  1.3178
 5718TIP3    H238714   1.125   6.721   0.205  0.1735  0.2612 -0.4213
 5719TIP3   OH238715   1.046   3.260   8.569 -0.7906 -0.6042 -0.1310
 5719TIP3    H138716   1.002   3.330   8.618  0.0927  0.5331 -0.9218
 5719TIP3    H238717   1.016   3.271   8.479 -0.3130 -0.9824 -0.3395
 5720TIP3   OH238718   1.741   3.125   0.416 -0.0374 -0.2840  0.1227
 5720TIP3    H138719   1.677   3.187   0.380  1.3932  0.6163 -1.0320
 5720TIP3    H238720   1.696   3.041   0.416 -1.1391  0.2673 -0.9191
 5721TIP3   OH238721   4.771   0.892   7.707 -0.4566  0.5855  0.0291
 5721TIP3    H138722   4.858   0.921   7.678 -0.1986 -0.7846 -0.6420
 5721TIP3    H238723   4.755   0.811   7.659 -1.4340 -0.0362  1.3269
 5722TIP3   OH238724   0.297   1.964   1.756  0.3491  0.3994 -0.2289
 5722TIP3    H138725   0.348   2.015   1.818 -0.9472 -0.3629  1.5631
 5722TIP3    H238726   0.275   2.025   1.686  0.6759  1.6880  0.7708
 5723TIP3   OH238727   1.546   3.961   7.968  0.7436 -0.9792 -0.3805
 5723TIP3    H138728   1.501   4.045   7.958  2.0639 -0.2619 -0.6251
 5723TIP3    H238729   1.511   3.906   7.898 -0.2840 -0.7078 -0.0933
 5724TIP3   OH238730   0.957   4.815   2.635  0.3753 -0.1144  0.1406
 5724TIP3    H138731   0.943   4.721   2.628 -1.0334 -0.0096  1.2028
 5724TIP3    H238732   0.872   4.851   2.660  0.9868  1.3872  0.1775
 5725TIP3   OH238733   6.230   3.621   1.861  0.0076 -0.4202 -0.2620
 5725TIP3    H138734   6.145   3.659   1.840 -0.8063 -1.3879  1.1085
 5725TIP3    H238735   6.264   3.588   1.778 -0.2131  1.3700 -1.0961
 5726TIP3   OH238736   6.162   3.109   7.621 -0.6132 -0.0758  0.3915
 5726TIP3    H138737   6.219   3.081   7.549 -1.0797 -3.6543  1.2260
 5726TIP3    H238738   6.177   3.045   7.690 -6.3692 -2.1216  0.2369
 5727TIP3   OH238739   0.908   4.166   0.078  0.5666 -0.4990  0.3157
 5727TIP3    H138740   0.994   4.185   0.116 -0.0053  1.0184  0.8979
 5727TIP3    H238741   0.853   4.239   0.105 -0.6954 -1.0127 -0.7731
 5728TIP3   OH238742   1.874   4.938   1.555  0.5057  0.2495  0.2845
 5728TIP3    H138743   1.943   4.927   1.490  1.1716  1.2655  0.7880
 5728TIP3    H238744   1.921   4.938   1.639 -0.2395 -0.1477  0.7123
 5729TIP3   OH238745   2.010   1.906   0.670  0.0366 -0.1782 -0.1094
 5729TIP3    H138746   2.048   1.829   0.628 -1.3695 -0.5642 -0.7261
 5729TIP3    H238747   2.034   1.979   0.612 -0.6437 -0.4979 -0.7944
 5730TIP3   OH238748   5.050   6.332   2.058  0.1148  0.4975 -0.1200
 5730TIP3    H138749   5.064   6.308   1.966  0.7750 -1.7381  0.5143
 5730TIP3    H238750   5.100   6.268   2.108  0.0949  1.9048  1.8248
 5731TIP3   OH238751   5.639   2.847   1.789 -0.2126 -0.1853  0.2691
 5731TIP3    H138752   5.719   2.900   1.789  0.2428 -0.8323  1.2910
 5731TIP3    H238753   5.570   2.908   1.762  0.7057  0.2301 -1.2244
 5732TIP3   OH238754   6.048   2.041   7.534  0.8862 -0.0109  0.1471
 5732TIP3    H138755   6.078   2.114   7.481  0.8821 -0.1358 -0.0284
 5732TIP3    H238756   6.086   2.056   7.620 -0.9158  1.3892  0.7535
 5733TIP3   OH238757   0.515   2.223   0.491  0.3631 -0.1525 -0.0181
 5733TIP3    H138758   0.496   2.305   0.446  0.8818  1.2540  2.1811
 5733TIP3    H238759   0.592   2.188   0.446  0.3809  0.7738 -0.7342
 5734TIP3   OH238760   2.457   5.286   2.533 -0.1025  0.0324  0.4118
 5734TIP3    H138761   2.525   5.255   2.473 -1.2437 -1.0156 -0.3854
 5734TIP3    H238762   2.440   5.376   2.504 -0.1986 -0.2493 -0.4492
 5735TIP3   OH238763   3.816   4.355   7.810 -0.4393 -0.6295  0.4077
 5735TIP3    H138764   3.799   4.261   7.805  0.5623 -0.7588 -0.9036
 5735TIP3    H238765   3.789   4.379   7.899 -0.6217 -2.1598  0.7962
 5736TIP3   OH238766   3.475   4.410   2.632  0.1020 -0.4703  0.2290
 5736TIP3    H138767   3.434   4.356   2.564 -1.1441  0.7445 -0.0336
 5736TIP3    H238768   3.563   4.373   2.641  0.6144 -0.2316 -2.6110
 5737TIP3   OH238769   4.838   1.017   0.568 -0.0942  0.4429  0.1129
 5737TIP3    H138770   4.818   0.925   0.548  3.0110 -0.3181 -0.1128
 5737TIP3    H238771   4.901   1.012   0.640  0.1075  2.4166  0.1229
 5738TIP3   OH238772   3.023   1.561   8.469 -0.3690  0.2009 -0.4069
 5738TIP3    H138773   2.948   1.599   8.514 -1.4837 -0.0244 -1.9516
 5738TIP3    H238774   3.000   1.468   8.459  0.8556 -0.2257  0.4829
 5739TIP3   OH238775   0.778   0.159   7.491  0.5542  0.4002 -0.3773
 5739TIP3    H138776   0.843   0.089   7.485  1.1191  0.7035  1.4667
 5739TIP3    H238777   0.824   0.237   7.459  1.5750  0.8506  1.9459
 5740TIP3   OH238778   3.491   6.348   1.367  0.4235 -0.3745 -0.4765
 5740TIP3    H138779   3.440   6.326   1.289  0.5295 -0.7429 -0.4428
 5740TIP3    H238780   3.582   6.347   1.337  0.6123 -2.2044  0.0170
 5741TIP3   OH238781   0.896   1.786   8.083  0.3738  0.5531  0.1300
 5741TIP3    H138782   0.825   1.845   8.060  1.0105  1.4298  0.3394
 5741TIP3    H238783   0.972   1.843   8.095  1.2178 -0.3907 -0.4833
 5742TIP3   OH238784   1.117   1.466   7.457 -0.6178 -0.7385 -0.2221
 5742TIP3    H138785   1.119   1.546   7.509 -0.5865 -0.7352 -0.2283
 5742TIP3    H238786   1.167   1.487   7.378  1.1915 -1.3887  0.6724
 5743TIP3   OH238787   0.194   1.947   0.923 -0.1869 -0.1812  0.3509
 5743TIP3    H138788   0.221   1.944   0.832 -0.9844  1.4076  0.0288
 5743TIP3    H238789   0.170   1.857   0.945 -1.3846 -0.3447 -1.4567
 5744TIP3   OH238790   2.592   6.112   3.299  0.2634  0.6643 -0.3531
 5744TIP3    H138791   2.529   6.080   3.235  0.4033 -1.2027  0.3775
 5744TIP3    H238792   2.553   6.193   3.332 -1.8101 -0.4330  0.0959
 5745TIP3   OH238793   4.323   1.945   7.963 -0.4636  0.3879 -0.4541
 5745TIP3    H138794   4.360   1.857   7.954  0.5069  0.7606 -0.2813
 5745TIP3    H238795   4.329   1.963   8.057 -1.7424  0.1952 -0.3234
 5746TIP3   OH238796   5.214   6.637   1.916  0.5519  0.4476  0.6121
 5746TIP3    H138797   5.241   6.555   1.875  2.2380  0.8835  0.7734
 5746TIP3    H238798   5.142   6.613   1.974  1.1607 -0.9598  0.8160
 5747TIP3   OH238799   3.236   5.177   1.447  0.1892 -0.3319  0.1757
 5747TIP3    H138800   3.158   5.174   1.391 -0.4055  0.6356  0.9055
 5747TIP3    H238801   3.213   5.120   1.521 -0.0394  0.3557  0.6392
 5748TIP3   OH238802   0.533   2.307   8.563 -0.4673 -0.0310  0.6254
 5748TIP3    H138803   0.567   2.236   8.617  1.6359 -0.0671 -0.6196
 5748TIP3    H238804   0.549   2.387   8.614  0.1981 -0.1851  0.6650
 5749TIP3   OH238805   6.241   1.370   1.224  0.2851 -0.3490  0.0667
 5749TIP3    H138806   6.155   1.402   1.250  0.2103  0.7532 -1.4003
 5749TIP3    H238807   6.224   1.281   1.191  0.0461 -0.8782  1.5336
 5750TIP3   OH238808   1.342   1.185   0.018 -0.0284  0.6068 -0.5114
 5750TIP3    H138809   1.359   1.173  -0.076  0.3701 -0.7247 -0.2859
 5750TIP3    H238810   1.389   1.265   0.040  2.1925 -0.5094 -0.9068
 5751TIP3   OH238811   2.917   2.300   0.251 -0.5524 -0.5632  0.1522
 5751TIP3    H138812   2.989   2.363   0.253 -0.7241 -0.1230 -3.0960
 5751TIP3    H238813   2.944   2.235   0.186 -3.1024 -0.2674 -1.3308
 5752TIP3   OH238814   4.097   3.166   2.428 -0.0967 -0.7503  0.1566
 5752TIP3    H138815   4.070   3.092   2.482  2.5439 -2.1804 -0.3009
 5752TIP3    H238816   4.144   3.224   2.488  0.9295 -1.2528 -0.1402
 5753TIP3   OH238817   2.294   0.573   2.311 -0.2633  0.2723 -0.2292
 5753TIP3    H138818   2.285   0.640   2.379  0.7363 -0.2706  0.4601
 5753TIP3    H238819   2.213   0.580   2.260 -0.1354  2.1052 -0.2722
 5754TIP3   OH238820   0.693   0.648   2.669  0.0668 -0.3741  0.6186
 5754TIP3    H138821   0.678   0.731   2.625  0.5886 -1.2678 -1.3445
 5754TIP3    H238822   0.610   0.629   2.713 -0.9426 -0.0093 -1.0282
 5755TIP3   OH238823   3.611   4.195   0.403  0.3756  0.0728  0.0417
 5755TIP3    H138824   3.620   4.151   0.487  1.2964  1.2668  0.5930
 5755TIP3    H238825   3.570   4.280   0.424  0.2770  0.2316 -0.7533
 5756TIP3   OH238826   0.264   6.325   8.405 -1.0177  0.0261 -0.0651
 5756TIP3    H138827   0.260   6.379   8.485  0.3764  0.8029 -0.4964
 5756TIP3    H238828   0.191   6.264   8.414  0.0981 -1.0670  2.6337
 5757TIP3   OH238829   6.766   5.777   7.875 -0.5595  0.2573 -0.0113
 5757TIP3    H138830   6.702   5.719   7.835 -0.4980  0.3818 -0.2923
 5757TIP3    H238831   6.719   5.860   7.888 -0.5108  0.2906 -0.0447
 5758TIP3   OH238832   3.854   6.798   0.888 -0.2411  0.2517  0.0787
 5758TIP3    H138833   3.813   6.803   0.802 -1.5513  0.1426  0.6658
 5758TIP3    H238834   3.925   6.734   0.878 -3.3788 -3.6564  0.1774
 5759TIP3   OH238835   5.989   1.158   1.720 -0.0885 -0.7367 -0.2882
 5759TIP3    H138836   5.941   1.132   1.798  1.2624 -0.4853  0.6669
 5759TIP3    H238837   6.081   1.159   1.748  0.3579  0.0559 -1.6845
 5760TIP3   OH238838   4.389   0.485   8.329  0.2968 -0.3587  0.2796
 5760TIP3    H138839   4.314   0.426   8.328 -0.9400  1.1450 -0.3408
 5760TIP3    H238840   4.357   0.564   8.372  1.0914  0.8118 -1.1824
 5761TIP3   OH238841   5.908   2.216   7.109 -0.0948 -0.1174  0.5180
 5761TIP3    H138842   5.829   2.215   7.055  0.6713 -1.6088 -0.6709
 5761TIP3    H238843   5.970   2.270   7.060  0.3670 -0.8750  0.2485
 5762TIP3   OH238844   2.699   2.355   2.197  0.3485 -0.2853 -0.0896
 5762TIP3    H138845   2.771   2.397   2.243 -0.7205  1.0318  0.4548
 5762TIP3    H238846   2.731   2.344   2.107  0.6781  1.8140 -0.2886
 5763TIP3   OH238847   2.769   1.634   0.081 -0.3668  0.2816 -0.2893
 5763TIP3    H138848   2.773   1.662   0.172  1.0767 -1.3407  0.2184
 5763TIP3    H238849   2.707   1.561   0.080  0.9839 -0.9404 -0.1585
 5764TIP3   OH238850   4.822   4.018   1.663  0.1469 -0.1702  0.0826
 5764TIP3    H138851   4.763   3.951   1.697  1.4110 -1.2611  0.2438
 5764TIP3    H238852   4.771   4.065   1.597 -1.2288 -0.3211  0.9921
 5765TIP3   OH238853   1.788   6.761   2.456 -0.6793 -0.3941 -0.1126
 5765TIP3    H138854   1.778   6.847   2.414 -0.4936 -0.2685  0.0986
 5765TIP3    H238855   1.883   6.748   2.461 -0.7074 -0.7258 -0.3706
 5766TIP3   OH238856   0.219   3.488   3.098  0.0657 -0.7963  0.3799
 5766TIP3    H138857   0.158   3.523   3.033  0.8236  1.8675  1.0150
 5766TIP3    H238858   0.277   3.430   3.047  2.4394  3.2841 -2.1290
 5767TIP3   OH238859   6.675   5.517   8.551 -0.3402  0.0951 -0.1341
 5767TIP3    H138860   6.751   5.548   8.503  0.7817 -0.0154  1.4608
 5767TIP3    H238861   6.610   5.586   8.543  1.2395  1.8642  1.3640
 5768TIP3   OH238862   5.009   0.395   1.003 -0.2142 -0.0354  0.2023
 5768TIP3    H138863   4.932   0.448   0.982  0.1101  0.4567  0.2198
 5768TIP3    H238864   5.018   0.401   1.098 -0.3993 -0.4387  0.2448
 5769TIP3   OH238865   4.702   2.695   8.370  0.1039  0.1243  0.8066
 5769TIP3    H138866   4.756   2.764   8.409  0.6384  0.3059 -0.2240
 5769TIP3    H238867   4.703   2.714   8.277  0.2621 -1.2967  0.4976
 5770TIP3   OH238868   4.752   0.324   1.553  0.5732  0.3420  0.0340
 5770TIP3    H138869   4.839   0.288   1.535  0.0084 -1.3948  0.6647
 5770TIP3    H238870   4.691   0.254   1.532 -0.5449  0.7535  1.7274
 5771TIP3   OH238871   5.229   5.655   8.408  0.1485  0.1263  0.3021
 5771TIP3    H138872   5.187   5.658   8.322  1.7944 -1.9123 -0.6629
 5771TIP3    H238873   5.160   5.628   8.468 -1.0755  1.7911 -0.3034
 5772TIP3   OH238874   1.293   6.459   1.734 -0.1857 -0.0763 -0.7008
 5772TIP3    H138875   1.273   6.404   1.809  1.5141  1.3488  0.8771
 5772TIP3    H238876   1.227   6.528   1.737  0.7687  0.8109  0.4083
 5773TIP3   OH238877   2.531   3.674   7.815  0.0025 -0.6061 -0.4204
 5773TIP3    H138878   2.445   3.641   7.789 -0.1890  0.8817 -1.8503
 5773TIP3    H238879   2.537   3.761   7.774 -0.0648  1.8103  4.0807
 5774TIP3   OH238880   4.230   1.843   0.951 -0.0948  0.4174  0.6683
 5774TIP3    H138881   4.303   1.895   0.982  0.4231 -0.1338  0.3887
 5774TIP3    H238882   4.159   1.862   1.012  0.2370  1.0563  0.8604
 5775TIP3   OH238883   2.295   2.152   2.569  0.3852  0.3973 -0.2813
 5775TIP3    H138884   2.334   2.070   2.601 -2.2910 -1.9143 -2.4760
 5775TIP3    H238885   2.241   2.183   2.642 -1.3002 -1.7590 -0.5264
 5776TIP3   OH238886   0.163   1.046   0.589  0.2649  0.2611  0.1067
 5776TIP3    H138887   0.253   1.062   0.560  0.0640  0.7196 -0.2867
 5776TIP3    H238888   0.132   1.132   0.616  0.6357 -0.2299  2.3050
 5777TIP3   OH238889   6.368   6.140   1.070  0.4951  0.1002  0.1324
 5777TIP3    H138890   6.293   6.157   1.128  0.4337  0.4468 -0.0490
 5777TIP3    H238891   6.332   6.144   0.982  0.7111  0.1909  0.0466
 5778TIP3   OH238892   3.583   2.668   7.490  0.0269  0.1420  0.4531
 5778TIP3    H138893   3.573   2.574   7.505  0.8799  0.2142  1.5781
 5778TIP3    H238894   3.493   2.700   7.477 -0.0947 -1.2572 -2.9984
 5779TIP3   OH238895   2.204   6.388   1.024  0.5223  0.0270  0.5350
 5779TIP3    H138896   2.295   6.359   1.017  0.7319  0.6913  0.3839
 5779TIP3    H238897   2.201   6.469   0.973 -0.5249 -0.7556 -0.7022
 5780TIP3   OH238898   4.318   1.929   1.952  0.0607  0.1915  0.2596
 5780TIP3    H138899   4.318   2.021   1.925  0.6670  0.3914  0.8827
 5780TIP3    H238900   4.316   1.932   2.048 -0.1809 -0.4523  0.2817
 5781TIP3   OH238901   4.571   2.124   2.048 -0.2062  0.2188 -0.1554
 5781TIP3    H138902   4.573   2.179   2.127  1.1742  0.1395 -0.1047
 5781TIP3    H238903   4.499   2.063   2.063 -0.1269  0.3727  0.9343
 5782TIP3   OH238904   0.437   1.491   2.608  0.4165  0.0286  0.0390
 5782TIP3    H138905   0.441   1.490   2.512  1.9658 -2.1675  0.0475
 5782TIP3    H238906   0.346   1.470   2.629  0.3937 -0.9673 -0.9764
 5783TIP3   OH238907   5.259   4.910   1.572 -0.1445 -0.2723 -0.9126
 5783TIP3    H138908   5.214   4.956   1.501 -1.2881  0.8406  0.4826
 5783TIP3    H238909   5.210   4.829   1.583 -0.3972 -0.1224 -0.9275
 5784TIP3   OH238910   1.105   4.546   2.116 -0.3540  0.0301  0.4944
 5784TIP3    H138911   1.043   4.570   2.047 -0.4291  1.4325  1.0059
 5784TIP3    H238912   1.130   4.456   2.096 -0.1868  0.4675 -1.5128
 5785TIP3   OH238913   5.820   5.791   8.413 -0.4789  0.2796  0.4032
 5785TIP3    H138914   5.748   5.766   8.354  1.1353 -0.6079 -1.3223
 5785TIP3    H238915   5.851   5.875   8.379  0.4662 -0.2372 -0.0609
 5786TIP3   OH238916   2.399   0.093   0.430 -0.0477  0.2203 -0.6666
 5786TIP3    H138917   2.445   0.159   0.483  1.6517 -1.9381  0.7127
 5786TIP3    H238918   2.456   0.079   0.354 -1.1411  1.3336 -1.7414
 5787TIP3   OH238919   4.120   5.100   0.947 -0.4510 -0.5881  0.1098
 5787TIP3    H138920   4.120   5.194   0.933  2.8398 -0.4073  0.4944
 5787TIP3    H238921   4.108   5.090   1.042  0.7446 -0.4409  0.2859
 5788TIP3   OH238922   1.849   6.146   1.800  0.0298 -0.5454 -0.1823
 5788TIP3    H138923   1.936   6.175   1.831  0.5439 -0.0916 -1.9246
 5788TIP3    H238924   1.868   6.078   1.735 -0.9368 -0.7350 -0.2797
 5789TIP3   OH238925   4.021   3.927   1.930  0.0804  0.2426 -0.1196
 5789TIP3    H138926   3.927   3.912   1.919 -0.4924  3.9201 -1.5900
 5789TIP3    H238927   4.061   3.885   1.854  0.1167 -3.6086  1.7913
 5790TIP3   OH238928   2.573   3.197   8.273  0.1616 -0.2154  0.0981
 5790TIP3    H138929   2.557   3.225   8.364  2.2046 -0.5318  0.5896
 5790TIP3    H238930   2.536   3.268   8.220  0.8358  1.0343  1.2343
 5791TIP3   OH238931   2.357   5.592   2.083 -0.0077  0.3290 -0.2499
 5791TIP3    H138932   2.431   5.644   2.113 -1.7875  1.7175  2.1227
 5791TIP3    H238933   2.291   5.657   2.058 -1.0818 -0.8305 -0.5228
 5792TIP3   OH238934   0.279   3.100   7.516 -0.0906  0.1338 -0.2189
 5792TIP3    H138935   0.309   3.083   7.427 -0.2854  1.9877 -0.6776
 5792TIP3    H238936   0.299   3.193   7.531 -0.4421 -0.0358  1.5150
 5793TIP3   OH238937   0.281   2.769   2.662 -0.4294 -0.1133 -0.5671
 5793TIP3    H138938   0.257   2.691   2.612 -0.0297 -0.0083 -0.9275
 5793TIP3    H238939   0.229   2.763   2.742 -1.7460  0.1603 -1.3754
 5794TIP3   OH238940   1.125   5.128   3.140  0.1263 -0.5232  0.1678
 5794TIP3    H138941   1.163   5.041   3.147  0.8844 -0.3073 -1.0759
 5794TIP3    H238942   1.178   5.173   3.074 -0.4611  0.7696  0.5372
 5795TIP3   OH238943   0.212   0.528   3.148  0.3013 -0.4557  0.1855
 5795TIP3    H138944   0.223   0.527   3.243 -0.6958  2.6949  0.4537
 5795TIP3    H238945   0.119   0.513   3.134  0.5676 -1.6815 -0.3843
 5796TIP3   OH238946   4.877   6.818   8.552  0.3754  0.5750 -0.1968
 5796TIP3    H138947   4.862   6.860   8.637 -1.7369  0.7502 -0.6119
 5796TIP3    H238948   4.889   6.891   8.491 -1.9835  0.6385 -0.6826
 5797TIP3   OH238949   2.920   1.223   7.644  0.3040  0.2239 -0.2551
 5797TIP3    H138950   2.985   1.275   7.692  0.1833  0.2973 -0.1694
 5797TIP3    H238951   2.853   1.203   7.709  0.1512  0.3050 -0.3866
 5798TIP3   OH238952   0.051   3.207   8.121  0.1957 -0.3432  0.1127
 5798TIP3    H138953   0.012   3.122   8.140 -0.5493  0.1605  0.8755
 5798TIP3    H238954   0.102   3.228   8.200 -0.6570  0.4919  0.4528
 5799TIP3   OH238955   3.876   5.517   3.491 -0.0413 -0.1745  0.2424
 5799TIP3    H138956   3.813   5.550   3.428 -0.5329 -0.4390  0.5906
 5799TIP3    H238957   3.833   5.442   3.531  0.2712 -0.0240  0.8770
 5800TIP3   OH238958   4.168   1.969   2.423  0.5491 -0.3171  0.2060
 5800TIP3    H138959   4.102   2.033   2.448  1.5506  1.3842 -1.2353
 5800TIP3    H238960   4.234   1.974   2.492  0.2877 -0.3104  0.4564
 5801TIP3   OH238961   1.168   0.622   0.871 -0.7892 -0.0735 -0.1284
 5801TIP3    H138962   1.124   0.686   0.815  1.5994  2.4563  0.6661
 5801TIP3    H238963   1.206   0.559   0.810 -0.9942  0.7547 -1.1463
 5802TIP3   OH238964   0.685   5.676   7.698  0.5822 -0.1724 -0.3864
 5802TIP3    H138965   0.699   5.601   7.756 -1.0033  0.5951  1.0730
 5802TIP3    H238966   0.667   5.636   7.613 -0.9827 -1.5370  0.5092
 5803TIP3   OH238967   0.068   4.283   7.941  0.2525  0.2967 -0.0090
 5803TIP3    H138968   0.049   4.349   8.008  2.5326  1.6716 -0.6172
 5803TIP3    H238969   0.089   4.204   7.991  0.5745  0.9092  0.8509
 5804TIP3   OH238970   5.135   3.038   1.059  0.2710 -0.3348  0.2192
 5804TIP3    H138971   5.070   3.098   1.023 -0.7397 -1.4903  0.0504
 5804TIP3    H238972   5.202   3.031   0.990 -0.1208 -0.1784 -0.1795
 5805TIP3   OH238973   6.216   3.388   7.633 -0.5200 -0.3476  0.2067
 5805TIP3    H138974   6.208   3.293   7.628  1.3129 -0.5185 -0.5141
 5805TIP3    H238975   6.228   3.416   7.543 -1.1095  0.5886  0.4076
 5806TIP3   OH238976   2.163   2.217   2.221 -0.0671  0.5780 -0.1371
 5806TIP3    H138977   2.186   2.207   2.129 -1.4133  1.8199 -0.6602
 5806TIP3    H238978   2.215   2.151   2.267  1.3985  0.6116 -1.6532
 5807TIP3   OH238979   5.712   1.660   8.349 -0.0420  0.0300  0.2710
 5807TIP3    H138980   5.728   1.568   8.369  0.9068 -0.2961 -1.7302
 5807TIP3    H238981   5.785   1.706   8.388 -0.4883 -0.0561  1.2286
 5808TIP3   OH238982   2.770   0.112   8.396 -0.3565  0.4318 -0.1237
 5808TIP3    H138983   2.847   0.086   8.346 -1.5614 -2.4506 -0.7119
 5808TIP3    H238984   2.708   0.142   8.329 -0.7730 -0.1862 -0.0308
 5809TIP3   OH238985   1.358   5.014   8.429 -0.1144  0.4149  0.2077
 5809TIP3    H138986   1.342   4.973   8.514 -1.6781  0.0896 -0.2096
 5809TIP3    H238987   1.290   5.081   8.422  1.0010  1.5630 -0.1018
 5810TIP3   OH238988   2.043   2.096   8.011 -0.0434  0.0537  0.5152
 5810TIP3    H138989   2.138   2.104   8.017  0.2523 -1.9784 -0.4858
 5810TIP3    H238990   2.010   2.145   8.087  1.9404 -1.4634  2.5044
 5811TIP3   OH238991   2.023   3.621   3.300  0.1510 -0.2491 -0.0350
 5811TIP3    H138992   2.052   3.701   3.344  0.0090 -0.8803  1.2542
 5811TIP3    H238993   1.934   3.642   3.270  0.6227  0.5282 -0.9361
 5812TIP3   OH238994   4.365   6.770   7.127 -0.3571  0.2592 -0.3002
 5812TIP3    H138995   4.322   6.689   7.100 -0.9648  0.6509 -0.5189
 5812TIP3    H238996   4.333   6.786   7.216  0.6961 -0.3712  0.2215
 5813TIP3   OH238997   0.561   5.499   2.234 -0.0786  0.2941  0.1110
 5813TIP3    H138998   0.480   5.530   2.276 -0.3847  0.1567 -0.3658
 5813TIP3    H238999   0.614   5.578   2.224 -0.1044  0.3640  0.5437
 5814TIP3   OH239000   0.187   4.147   8.350 -0.3633  0.1223 -0.6253
 5814TIP3    H139001   0.252   4.083   8.377 -0.8848  0.4978  1.7430
 5814TIP3    H239002   0.170   4.199   8.429  0.7178  3.8312 -2.5644
 5815TIP3   OH239003   2.681   3.356   1.417  0.9671 -0.1852  0.5199
 5815TIP3    H139004   2.720   3.300   1.485  1.2911 -0.7684 -0.1437
 5815TIP3    H239005   2.754   3.376   1.359  0.3551 -1.0451 -0.5729
 5816TIP3   OH239006   1.176   1.643   2.016  0.2462 -0.1393 -0.4647
 5816TIP3    H139007   1.262   1.632   1.975 -0.3663 -1.2316 -1.5196
 5816TIP3    H239008   1.136   1.556   2.012 -0.4883  0.1069  1.0126
 5817TIP3   OH239009   2.918   0.246   1.609 -0.3615  0.2429 -0.4780
 5817TIP3    H139010   2.852   0.256   1.540  0.5386  0.1940 -1.3645
 5817TIP3    H239011   2.990   0.198   1.567  0.6970  1.2336  0.1606
 5818TIP3   OH239012   5.629   6.484   0.635  0.1553 -0.0272 -0.1601
 5818TIP3    H139013   5.556   6.457   0.692  1.3961 -1.1339  0.9609
 5818TIP3    H239014   5.607   6.448   0.549 -1.8943  1.9166 -0.5424
 5819TIP3   OH239015   5.232   1.393   1.247 -0.0489  0.0398  0.1448
 5819TIP3    H139016   5.233   1.331   1.320  1.4038  0.1205  0.2272
 5819TIP3    H239017   5.156   1.368   1.195  0.4643 -1.7653  0.2086
 5820TIP3   OH239018   3.044   1.512   1.652 -0.2650 -0.1353  0.2744
 5820TIP3    H139019   3.057   1.474   1.565  2.5682 -0.3527  0.6861
 5820TIP3    H239020   3.033   1.605   1.635  0.5712 -0.1288 -0.3326
 5821TIP3   OH239021   3.703   2.513   0.108 -0.1494 -0.8822  0.4223
 5821TIP3    H139022   3.649   2.585   0.139 -0.5591 -0.7219 -0.6055
 5821TIP3    H239023   3.722   2.535   0.017  1.4759 -1.0545  0.6967
 5822TIP3   OH239024   5.427   3.849   2.642  1.0988 -0.7662  0.5820
 5822TIP3    H139025   5.498   3.863   2.705 -0.4746 -1.4068  2.6375
 5822TIP3    H239026   5.381   3.933   2.639 -0.1651 -1.3510  2.1368
 5823TIP3   OH239027   0.452   1.397   1.906  0.6580  0.1058 -0.4673
 5823TIP3    H139028   0.461   1.489   1.929  0.2604  0.4106 -1.4783
 5823TIP3    H239029   0.376   1.367   1.955  0.4748  0.4541 -0.5344
 5824TIP3   OH239030   1.977   5.037   0.129  0.6755 -0.3139  0.2379
 5824TIP3    H139031   1.945   4.973   0.066  0.5573 -0.3923  0.3772
 5824TIP3    H239032   2.065   5.007   0.151  0.1850 -1.1093  1.2082
 5825TIP3   OH239033   2.782   4.222   0.542  0.4434 -0.2481  0.8431
 5825TIP3    H139034   2.831   4.303   0.531 -0.5747  0.2240 -0.4009
 5825TIP3    H239035   2.782   4.207   0.637  1.4592  0.6643  1.0112
 5826TIP3   OH239036   2.536   6.400   7.528  0.9892 -0.1619 -0.4963
 5826TIP3    H139037   2.556   6.494   7.531  0.6875 -0.1134  0.1358
 5826TIP3    H239038   2.574   6.370   7.446 -0.1039  0.7786 -1.3755
 5827TIP3   OH239039   0.699   1.905   1.957  0.0001 -0.6840  0.0742
 5827TIP3    H139040   0.693   1.992   1.917 -0.4131 -0.9818 -0.5343
 5827TIP3    H239041   0.793   1.884   1.953  0.5137  0.7598  2.5224
 5828TIP3   OH239042   5.110   2.624   7.643  0.0435 -0.0518  0.1340
 5828TIP3    H139043   5.160   2.602   7.564  0.4346  0.0505  0.3502
 5828TIP3    H239044   5.059   2.701   7.619  2.3874  1.8341  0.8467
 5829TIP3   OH239045   4.033   0.707   8.318  0.2838  0.2733 -0.5011
 5829TIP3    H139046   4.068   0.678   8.234  0.5830  0.4483 -0.4363
 5829TIP3    H239047   4.082   0.787   8.338 -0.9761  1.2195 -1.0105
 5830TIP3   OH239048   5.304   5.226   2.354 -0.4250 -0.4330 -0.6699
 5830TIP3    H139049   5.370   5.158   2.367  2.1034  2.0624  0.8404
 5830TIP3    H239050   5.313   5.283   2.430 -3.6780  0.6638 -0.9527
 5831TIP3   OH239051   5.788   4.019   3.003  0.7131  0.1790  0.0712
 5831TIP3    H139052   5.775   4.026   2.909  0.6779 -2.6464 -0.2313
 5831TIP3    H239053   5.818   4.106   3.030  0.2425  1.2058 -2.4312
 5832TIP3   OH239054   4.436   4.359   1.910 -0.4270 -0.2073 -0.7211
 5832TIP3    H139055   4.386   4.288   1.951 -1.8960  0.3352 -1.5267
 5832TIP3    H239056   4.526   4.344   1.940 -0.9184 -1.6466  0.1641
 5833TIP3   OH239057   4.200   2.259   2.278 -0.0015  0.3226 -0.3684
 5833TIP3    H139058   4.199   2.277   2.372  0.4229 -2.2763  0.2077
 5833TIP3    H239059   4.108   2.252   2.253 -0.1524 -2.3576  0.6618
 5834TIP3   OH239060   1.409   3.651   0.416 -0.4989 -0.3229 -0.3766
 5834TIP3    H139061   1.402   3.707   0.339  0.3217  0.1223 -0.1516
 5834TIP3    H239062   1.501   3.660   0.443 -0.6251 -0.9466  0.2900
 5835TIP3   OH239063   0.579   6.219   2.609 -0.3578  0.0364 -0.5660
 5835TIP3    H139064   0.594   6.159   2.536 -0.1921  0.1291 -0.6078
 5835TIP3    H239065   0.527   6.290   2.572  1.6408  1.2629 -1.1691
 5836TIP3   OH239066   2.195   1.174   3.569  0.2452 -0.1379 -0.7027
 5836TIP3    H139067   2.256   1.110   3.532 -1.1225 -0.5548 -2.3305
 5836TIP3    H239068   2.109   1.133   3.561 -0.2918  0.3044  1.8345
 5837TIP3   OH239069   0.373   6.634   8.039 -0.1691 -0.4402  0.3667
 5837TIP3    H139070   0.377   6.618   8.134 -0.1187  2.5800  0.9593
 5837TIP3    H239071   0.297   6.691   8.028  1.0002  0.8867 -1.1367
 5838TIP3   OH239072   1.421   6.460   1.484 -0.2729 -0.1794  0.3783
 5838TIP3    H139073   1.509   6.496   1.492 -0.8135  1.3823 -0.2883
 5838TIP3    H239074   1.376   6.487   1.564 -0.3088 -0.5111  0.4720
 5839TIP3   OH239075   1.669   0.847   3.360 -0.1761  0.4004 -0.1042
 5839TIP3    H139076   1.709   0.889   3.436 -1.4854 -0.8290  1.3485
 5839TIP3    H239077   1.676   0.911   3.290  3.0769  0.7650  0.3906
 5840TIP3   OH239078   5.466   2.016   7.572 -0.2094 -0.2257 -0.2522
 5840TIP3    H139079   5.510   1.935   7.545  0.7627  0.6130 -1.2352
 5840TIP3    H239080   5.494   2.082   7.509  0.7105  1.4110  1.7571
 5841TIP3   OH239081   3.215   2.894   2.527  0.1050  0.5511  0.0790
 5841TIP3    H139082   3.198   2.864   2.438 -0.4756 -0.8678  0.6408
 5841TIP3    H239083   3.305   2.926   2.524  0.9364 -1.6500 -0.4999
 5842TIP3   OH239084   6.875   1.613   0.524  0.5726  0.3848  0.5197
 5842TIP3    H139085   6.817   1.551   0.479  0.2978  0.5501  0.6383
 5842TIP3    H239086   6.839   1.620   0.613  0.4373  0.9106  0.4303
 5843TIP3   OH239087   6.198   0.365   3.063 -0.8286  0.5144 -0.0605
 5843TIP3    H139088   6.123   0.416   3.094  0.1385  0.9309  1.7769
 5843TIP3    H239089   6.274   0.422   3.077  0.0761 -0.7150  0.2594
 5844TIP3   OH239090   6.403   4.679   0.631 -0.5349  0.4047 -0.1212
 5844TIP3    H139091   6.451   4.602   0.661  1.1388  1.2510 -0.5024
 5844TIP3    H239092   6.322   4.644   0.594 -0.5673 -1.0091  1.2250
 5845TIP3   OH239093   2.423   2.479   0.199 -0.5810  0.3254 -0.3758
 5845TIP3    H139094   2.439   2.421   0.274  0.4914 -0.0767 -0.8882
 5845TIP3    H239095   2.508   2.486   0.156 -1.1583  0.6145 -1.5097
 5846TIP3   OH239096   1.165   3.684   0.043  0.3277 -0.3076  0.1958
 5846TIP3    H139097   1.255   3.707   0.063  0.8742 -0.6640 -1.7165
 5846TIP3    H239098   1.113   3.744   0.096  1.6639  0.0272  1.1870
 5847TIP3   OH239099   2.059   1.806   7.762 -0.0550 -0.1125  0.2290
 5847TIP3    H139100   2.090   1.737   7.703 -0.2459 -0.4721  0.5438
 5847TIP3    H239101   2.015   1.868   7.705 -2.2430 -1.5600  0.2051
 5848TIP3   OH239102   4.642   2.259   3.001  0.4268  0.1293 -0.2104
 5848TIP3    H139103   4.559   2.285   3.042 -0.8928 -1.0059 -1.9768
 5848TIP3    H239104   4.654   2.168   3.027  2.5607  0.9439  2.1122
 5849TIP3   OH239105   0.886   5.306   8.119 -0.2674  0.0630  0.3076
 5849TIP3    H139106   0.806   5.350   8.148 -0.1833  1.4250 -1.3625
 5849TIP3    H239107   0.872   5.287   8.027  1.5505  0.9810 -0.2251
 5850TIP3   OH239108   6.829   1.649   0.789  0.3911 -0.0003 -0.0723
 5850TIP3    H139109   6.797   1.600   0.864 -1.4052 -0.5433 -1.1509
 5850TIP3    H239110   6.772   1.726   0.785  0.6033  0.1240 -0.7707
 5851TIP3   OH239111   3.322   2.690   7.624 -0.1013 -0.5122 -0.5824
 5851TIP3    H139112   3.335   2.602   7.588  0.0556 -1.1431  0.9160
 5851TIP3    H239113   3.227   2.697   7.636 -0.1820 -0.1862 -1.3611
 5852TIP3   OH239114   2.923   4.445   1.536 -0.4026 -0.0491 -0.2577
 5852TIP3    H139115   2.964   4.431   1.450  0.5561  0.8172  0.0339
 5852TIP3    H239116   2.829   4.430   1.521 -0.2295 -0.0327 -1.4308
 5853TIP3   OH239117   4.219   1.386   2.863  0.5050 -0.0305 -0.0782
 5853TIP3    H139118   4.313   1.376   2.848  0.7207 -0.4920  1.4194
 5853TIP3    H239119   4.207   1.478   2.884  0.7097 -0.0723  0.2273
 5854TIP3   OH239120   4.507   3.258   8.561 -0.0759  0.0378 -0.2790
 5854TIP3    H139121   4.549   3.338   8.528  4.0271 -1.0001  1.6588
 5854TIP3    H239122   4.546   3.188   8.509  0.0501 -0.9618  1.1188
 5855TIP3   OH239123   3.292   2.039   0.042 -0.4967 -0.5019  0.5725
 5855TIP3    H139124   3.349   2.018  -0.032 -2.8425 -1.0199 -1.2293
 5855TIP3    H239125   3.295   1.960   0.097  0.2090 -0.6684  0.3071
 5856TIP3   OH239126   0.411   2.770   8.108  0.0218  0.6080  0.4604
 5856TIP3    H139127   0.445   2.692   8.153 -0.1375  0.5662  0.5081
 5856TIP3    H239128   0.367   2.820   8.176  1.5728  1.5796  0.7839
 5857TIP3   OH239129   0.330   5.508   0.657  0.2465 -0.1620 -0.0703
 5857TIP3    H139130   0.264   5.570   0.625  0.1478  1.1176  2.3754
 5857TIP3    H239131   0.282   5.426   0.667 -0.4535  0.2120 -0.2618
 5858TIP3   OH239132   0.557   4.435   3.164  0.4813  0.5881  0.6856
 5858TIP3    H139133   0.628   4.405   3.107  0.3940  1.6316 -0.0008
 5858TIP3    H239134   0.600   4.460   3.246  1.0553  2.0324 -0.0221
 5859TIP3   OH239135   2.880   3.983   2.023  0.1991 -0.4878 -0.8865
 5859TIP3    H139136   2.834   4.031   1.953  0.1208 -0.1643 -0.6147
 5859TIP3    H239137   2.849   3.893   2.014 -0.8258 -0.1899 -0.4346
 5860TIP3   OH239138   6.192   0.064   8.569  0.5257  0.0849 -0.5270
 5860TIP3    H139139   6.127   0.115   8.619  0.4336 -0.3664 -0.1734
 5860TIP3    H239140   6.203   0.113   8.488 -0.5761 -0.0408 -0.7760
 5861TIP3   OH239141   1.854   2.953   7.506  0.5487  0.1875 -0.1114
 5861TIP3    H139142   1.817   2.921   7.588  0.7167  3.1479  1.2446
 5861TIP3    H239143   1.927   3.009   7.532  1.6578 -0.0506 -2.3975
 5862TIP3   OH239144   0.916   1.348   0.811  0.2562  0.5740 -0.9645
 5862TIP3    H139145   0.951   1.340   0.899 -0.9150  0.8060 -0.4629
 5862TIP3    H239146   0.935   1.438   0.786 -2.0823  1.4866  0.2731
 5863TIP3   OH239147   5.124   4.352   8.022 -0.1232  0.2361  0.0028
 5863TIP3    H139148   5.086   4.354   8.110  1.8159  0.0485  0.8899
 5863TIP3    H239149   5.102   4.265   7.988  2.2024 -1.1835  1.8222
 5864TIP3   OH239150   2.956   1.165   0.013 -0.3522 -0.1112  0.1855
 5864TIP3    H139151   2.873   1.142   0.055 -0.7020 -0.3322 -0.6173
 5864TIP3    H239152   2.965   1.102  -0.059  0.5167 -0.0970  0.2732
 5865TIP3   OH239153   1.527   5.946   2.471 -0.6602  0.0868  0.2231
 5865TIP3    H139154   1.617   5.928   2.496 -1.1770 -0.3157  1.9535
 5865TIP3    H239155   1.527   6.039   2.445  0.1260  0.2562  0.7953
 5866TIP3   OH239156   0.862   4.025   1.750  0.0522 -0.1183  0.2017
 5866TIP3    H139157   0.919   4.102   1.747  0.4177 -0.2188  2.6254
 5866TIP3    H239158   0.901   3.965   1.686  0.9460  0.9315 -0.2790
 5867TIP3   OH239159   6.210   6.638   7.944 -0.0014  0.0368  0.0181
 5867TIP3    H139160   6.269   6.565   7.963  1.4319  0.8911 -0.9213
 5867TIP3    H239161   6.260   6.715   7.971 -1.2795  0.7097  0.5203
 5868TIP3   OH239162   0.489   5.307   0.210  0.1921 -0.5381  0.1770
 5868TIP3    H139163   0.581   5.334   0.209  0.2698 -0.4290  2.7079
 5868TIP3    H239164   0.472   5.276   0.122  2.0487  1.3843 -0.9491
 5869TIP3   OH239165   1.657   5.207   2.962 -0.5792  0.4555 -0.0741
 5869TIP3    H139166   1.726   5.166   3.013 -0.6137  0.0788 -0.3310
 5869TIP3    H239167   1.616   5.269   3.022  0.2324  0.9623 -0.0343
 5870TIP3   OH239168   6.612   1.724   2.185 -0.0943  0.6178 -0.0761
 5870TIP3    H139169   6.581   1.768   2.264 -0.4430 -0.0179  0.1501
 5870TIP3    H239170   6.600   1.788   2.115 -1.7623  0.4738  0.0394
 5871TIP3   OH239171   1.713   0.473   2.270  0.0962 -0.4741 -0.0791
 5871TIP3    H139172   1.625   0.501   2.243  0.4728  0.4839 -0.3381
 5871TIP3    H239173   1.699   0.387   2.310 -1.1647  0.2433  1.1224
 5872TIP3   OH239174   6.341   4.082   1.863  0.2549 -0.4822  0.2338
 5872TIP3    H139175   6.258   4.098   1.818 -0.0502 -1.1882  0.5243
 5872TIP3    H239176   6.351   3.987   1.861  1.5703 -0.3361 -0.6886
 5873TIP3   OH239177   1.389   2.795   1.510 -0.2440  0.0056  0.0834
 5873TIP3    H139178   1.343   2.761   1.434 -0.7442 -1.4931  1.0123
 5873TIP3    H239179   1.482   2.787   1.488 -0.3631 -1.4309  0.0388
 5874TIP3   OH239180   0.898   1.525   7.981  0.0545  0.3479  0.0144
 5874TIP3    H139181   0.868   1.613   8.005  0.9955  0.9881 -1.0574
 5874TIP3    H239182   0.991   1.526   8.001 -0.0941 -0.7290  0.8288
 5875TIP3   OH239183   0.486   3.500   7.941  0.4254  0.1599  0.0362
 5875TIP3    H139184   0.447   3.569   7.888 -0.3786 -1.9932 -2.3998
 5875TIP3    H239185   0.580   3.510   7.930  0.3326  1.1206  0.0901
 5876TIP3   OH239186   5.031   6.436   2.649 -0.2073  0.6776 -0.1306
 5876TIP3    H139187   5.099   6.438   2.716 -0.1208  0.7023 -0.2178
 5876TIP3    H239188   5.053   6.360   2.595 -3.0264 -2.4288  2.6845
 5877TIP3   OH239189   5.096   3.713   8.465  0.1075 -0.3866  0.1056
 5877TIP3    H139190   5.097   3.684   8.557  1.5705 -0.5912  0.0479
 5877TIP3    H239191   5.138   3.642   8.417 -1.8622 -0.9018 -0.9545
 5878TIP3   OH239192   2.294   1.066   7.946 -0.6714  0.1484  0.3639
 5878TIP3    H139193   2.380   1.093   7.914 -0.0129  0.5750  2.3580
 5878TIP3    H239194   2.246   1.041   7.867  1.1264  0.2986 -0.8361
 5879TIP3   OH239195   0.669   3.033   0.429  0.0850 -0.1759 -0.3896
 5879TIP3    H139196   0.749   2.987   0.452  0.2778  0.9804  1.5118
 5879TIP3    H239197   0.694   3.088   0.354  0.2265 -1.9920 -1.7261
 5880TIP3   OH239198   3.141   3.269   8.126  0.0277 -0.2047  0.1541
 5880TIP3    H139199   3.110   3.190   8.083  0.8713 -0.8184  0.6366
 5880TIP3    H239200   3.232   3.277   8.098 -0.4328  1.3880 -1.0108
 5881TIP3   OH239201   5.331   1.635   0.774  0.1479  0.9086  0.0191
 5881TIP3    H139202   5.359   1.666   0.861  0.7993  0.2785  0.0396
 5881TIP3    H239203   5.390   1.679   0.713  0.7107  0.1446  0.0081
 5882TIP3   OH239204   6.482   5.627   1.367  0.3299 -0.4599  0.0258
 5882TIP3    H139205   6.465   5.718   1.342 -0.4284 -0.9048 -1.1595
 5882TIP3    H239206   6.481   5.579   1.284 -1.5759 -1.8968  0.8040
 5883TIP3   OH239207   1.452   5.937   0.159 -0.1364  0.0012  0.6351
 5883TIP3    H139208   1.520   5.987   0.114 -1.4741  1.4468  0.0975
 5883TIP3    H239209   1.415   5.999   0.222 -2.0380 -0.1692 -0.2393
 5884TIP3   OH239210   4.787   3.434   2.346  0.9740 -0.7942  0.6282
 5884TIP3    H139211   4.759   3.472   2.429  2.0370 -0.2247  0.7493
 5884TIP3    H239212   4.794   3.508   2.287 -0.1393 -1.2451 -0.0987
 5885TIP3   OH239213   2.257   1.072   8.225  0.5004  0.8747 -0.2299
 5885TIP3    H139214   2.233   1.071   8.132  1.6510  1.1680 -0.5511
 5885TIP3    H239215   2.192   1.129   8.265 -1.0946 -0.6465 -0.5095
 5886TIP3   OH239216   6.846   4.981   7.421  0.3801 -0.0356  0.1315
 5886TIP3    H139217   6.777   4.963   7.486  0.7034  2.6574  1.3608
 5886TIP3    H239218   6.839   4.909   7.359 -2.3169 -0.8621  1.2191
 5887TIP3   OH239219   5.218   5.791   1.102  0.3950 -0.2625  0.0218
 5887TIP3    H139220   5.311   5.771   1.089  0.1852 -0.9249 -0.4976
 5887TIP3    H239221   5.191   5.833   1.020  0.6767  1.6767  0.8636
 5888TIP3   OH239222   2.176   3.402   2.654  0.1810 -0.2090 -0.4562
 5888TIP3    H139223   2.217   3.463   2.593 -0.3419 -0.0844 -0.6853
 5888TIP3    H239224   2.083   3.424   2.653 -0.0493 -1.1324 -0.6925
 5889TIP3   OH239225   5.049   5.033   2.438 -0.2531  0.4371  0.0584
 5889TIP3    H139226   4.987   5.097   2.402 -1.1173  0.7807  2.0217
 5889TIP3    H239227   5.133   5.078   2.437 -0.4982  0.8979 -0.3767
 5890TIP3   OH239228   1.333   2.723   3.161 -0.3323 -0.4781  0.0702
 5890TIP3    H139229   1.293   2.640   3.189 -1.5353  0.0229 -0.0874
 5890TIP3    H239230   1.302   2.787   3.225 -1.5662  0.3163 -1.2557
 5891TIP3   OH239231   5.091   2.874   7.884 -0.3227 -0.4362 -0.2246
 5891TIP3    H139232   5.074   2.967   7.904 -1.2082 -0.4217 -0.9854
 5891TIP3    H239233   5.062   2.864   7.793  0.2782 -1.3363 -0.3188
 5892TIP3   OH239234   6.488   4.316   1.233 -0.1098  0.6127  0.2138
 5892TIP3    H139235   6.460   4.397   1.274  1.0938  1.7878 -1.1566
 5892TIP3    H239236   6.407   4.274   1.204 -0.9282  0.1430  2.9035
 5893TIP3   OH239237   3.668   1.035   2.840 -0.1702  0.3177  0.0685
 5893TIP3    H139238   3.591   1.065   2.888  0.1129  0.2497  0.5731
 5893TIP3    H239239   3.633   0.991   2.763 -0.6197  0.9498 -0.1016
 5894TIP3   OH239240   3.845   5.387   8.301  0.3862 -0.2790  0.6125
 5894TIP3    H139241   3.929   5.427   8.278 -0.8109  1.2981 -1.2613
 5894TIP3    H239242   3.851   5.297   8.267  0.4709  0.5398 -1.6842
 5895TIP3   OH239243   4.303   5.512   8.492  0.8362 -0.3060 -0.5549
 5895TIP3    H139244   4.362   5.580   8.459  1.3015  0.5739  1.9161
 5895TIP3    H239245   4.358   5.434   8.498  0.9463 -0.2752 -1.0618
 5896TIP3   OH239246   0.746   6.026   3.039 -0.5331 -0.3594 -0.2251
 5896TIP3    H139247   0.692   6.011   2.961 -0.7660  0.1271 -0.1639
 5896TIP3    H239248   0.782   5.940   3.060  0.8107 -0.2271 -1.8107
 5897TIP3   OH239249   0.453   4.723   1.725  0.1697  0.6817 -0.5735
 5897TIP3    H139250   0.436   4.763   1.811 -0.1297  0.8361 -0.7047
 5897TIP3    H239251   0.543   4.692   1.731 -0.8479 -2.4172  1.0280
 5898TIP3   OH239252   1.934   1.575   8.521 -0.0223 -0.0903 -0.7832
 5898TIP3    H139253   2.021   1.595   8.488 -0.2555 -1.8649 -2.6457
 5898TIP3    H239254   1.919   1.641   8.589  3.2276 -0.4897  0.4998
 5899TIP3   OH239255   3.358   0.817   2.311  0.0037 -0.1240 -0.1487
 5899TIP3    H139256   3.400   0.744   2.266  0.0856 -0.1859  0.0290
 5899TIP3    H239257   3.425   0.850   2.371  0.2061  0.5332 -0.7148
 5900TIP3   OH239258   3.715   5.069   7.995  0.3021 -0.1319 -0.6941
 5900TIP3    H139259   3.722   5.146   7.939 -1.4330  0.5278 -0.0729
 5900TIP3    H239260   3.634   5.083   8.045 -0.4328 -2.6569 -1.0484
 5901TIP3   OH239261   3.472   1.394   2.406  0.4155 -0.2986  0.4028
 5901TIP3    H139262   3.512   1.330   2.347  1.8957  1.1801 -0.2942
 5901TIP3    H239263   3.453   1.469   2.350 -2.5834 -0.5544  0.9106
 5902TIP3   OH239264   6.531   5.255   0.033 -0.0390  0.2568  0.2684
 5902TIP3    H139265   6.512   5.342  -0.000  0.6770 -0.1740 -1.4195
 5902TIP3    H239266   6.606   5.266   0.092  0.2547  0.7515 -0.1919
 5903TIP3   OH239267   2.869   4.677   8.445 -0.1472 -0.6784 -0.3370
 5903TIP3    H139268   2.848   4.592   8.405  1.4022 -0.4337 -1.8098
 5903TIP3    H239269   2.929   4.655   8.516  1.3842 -0.7864 -1.5953
 5904TIP3   OH239270   3.716   1.418   1.941 -0.4541  0.3628  0.0933
 5904TIP3    H139271   3.774   1.375   1.878 -2.0509 -0.2950 -1.0042
 5904TIP3    H239272   3.696   1.503   1.902  0.0436  0.7557  0.6602
 5905TIP3   OH239273   5.853   1.114   1.368  0.2649  0.5727 -0.1806
 5905TIP3    H139274   5.857   1.066   1.285  2.2978  0.3971 -0.0424
 5905TIP3    H239275   5.764   1.147   1.373 -1.0121 -2.4843 -0.6825
 5906TIP3   OH239276   0.821   2.683   7.969  0.1961  0.2197  0.5147
 5906TIP3    H139277   0.820   2.591   7.996  1.6899 -0.0658 -0.2816
 5906TIP3    H239278   0.910   2.713   7.989  0.3698  0.8804 -1.1001
 5907TIP3   OH239279   2.808   3.729   2.020  0.0790 -0.2335  0.0822
 5907TIP3    H139280   2.821   3.717   1.926  1.0345  0.6324  0.0891
 5907TIP3    H239281   2.851   3.654   2.060  3.7018  1.5974  0.0061
 5908TIP3   OH239282   2.530   6.126   0.831 -0.2495  0.0445  0.1630
 5908TIP3    H139283   2.567   6.206   0.867 -0.9089  0.9674 -1.1518
 5908TIP3    H239284   2.443   6.120   0.871 -0.4592  0.3488 -0.2427
 5909TIP3   OH239285   2.777   2.837   2.342  0.4075  0.0954  0.4642
 5909TIP3    H139286   2.790   2.744   2.365  1.7102  0.5840  1.9122
 5909TIP3    H239287   2.707   2.865   2.400  0.4436  0.1577  0.4778
 5910TIP3   OH239288   5.812   5.148   0.356 -0.4336 -0.0582 -0.3465
 5910TIP3    H139289   5.864   5.071   0.333  0.4323  0.1800  0.7436
 5910TIP3    H239290   5.844   5.217   0.298  0.4351  0.0634  0.2530
 5911TIP3   OH239291   0.387   1.680   8.007 -0.3372 -0.0286  0.0272
 5911TIP3    H139292   0.318   1.615   8.015 -1.3256  0.9584 -0.1178
 5911TIP3    H239293   0.347   1.750   7.954  0.7693  0.5744 -0.0434
 5912TIP3   OH239294   1.446   1.670   1.939  0.2593 -0.2141 -0.2075
 5912TIP3    H139295   1.418   1.761   1.926 -1.4130 -0.6075  0.3727
 5912TIP3    H239296   1.482   1.668   2.028 -1.5620 -0.4931  0.5712
 5913TIP3   OH239297   3.345   6.436   2.191 -0.4217  0.1567 -0.0987
 5913TIP3    H139298   3.319   6.345   2.208  1.9929 -0.4499  0.7134
 5913TIP3    H239299   3.354   6.476   2.277 -0.0202  0.7167 -0.3890
 5914TIP3   OH239300   1.863   0.523   0.178  0.0909 -0.0637 -0.9254
 5914TIP3    H139301   1.795   0.590   0.178 -1.0227 -1.1343  0.6975
 5914TIP3    H239302   1.943   0.569   0.204 -0.7023  0.5988  0.4120
 5915TIP3   OH239303   2.305   2.191   0.782 -0.4677 -0.5197  0.0555
 5915TIP3    H139304   2.298   2.096   0.789  0.6881 -0.8494 -2.3171
 5915TIP3    H239305   2.397   2.210   0.799 -0.1188 -0.1663 -2.0052
 5916TIP3   OH239306   3.987   0.567   2.723 -0.2838 -0.0359 -0.8593
 5916TIP3    H139307   3.940   0.569   2.640 -0.4717  0.3838 -0.7430
 5916TIP3    H239308   4.080   0.566   2.698 -0.3421 -0.1033 -1.0742
 5917TIP3   OH239309   4.809   2.429   0.834  0.1242  0.1421 -0.1360
 5917TIP3    H139310   4.902   2.444   0.850 -0.0825 -0.2998  1.7654
 5917TIP3    H239311   4.769   2.516   0.839  0.5368  0.4795 -2.0524
 5918TIP3   OH239312   6.620   4.950   8.151 -0.0598 -0.3250  0.2662
 5918TIP3    H139313   6.557   4.891   8.109  0.7163 -0.3600 -0.9084
 5918TIP3    H239314   6.625   4.919   8.241 -2.0026 -0.0719  0.4957
 5919TIP3   OH239315   3.244   3.853   2.464 -0.0426 -0.3605 -0.0863
 5919TIP3    H139316   3.193   3.889   2.537  1.2817  0.0049  0.6959
 5919TIP3    H239317   3.209   3.896   2.386  0.3242  1.3357  0.6376
 5920TIP3   OH239318   2.115   5.625   0.070 -0.2241  0.2484 -0.1379
 5920TIP3    H139319   2.046   5.597   0.130  0.7211 -2.7664 -0.3026
 5920TIP3    H239320   2.068   5.668  -0.001 -1.7898 -0.1863  0.5749
 5921TIP3   OH239321   0.645   0.552   0.099  0.1652 -0.0564 -0.2439
 5921TIP3    H139322   0.673   0.640   0.125 -1.8523  1.4359 -2.6006
 5921TIP3    H239323   0.716   0.520   0.043  0.3968  0.5825 -0.3287
 5922TIP3   OH239324   2.463   3.019   0.832 -0.3250  0.0821  0.6102
 5922TIP3    H139325   2.430   3.101   0.797 -2.3184 -0.5955  0.7973
 5922TIP3    H239326   2.393   2.956   0.817  1.9339 -2.1828 -1.5092
 5923TIP3   OH239327   1.121   1.958   8.075  0.0814  0.0312  0.5119
 5923TIP3    H139328   1.197   1.977   8.019 -1.2218 -0.4369 -1.4949
 5923TIP3    H239329   1.102   2.041   8.118  1.6624  0.1757  1.0129
 5924TIP3   OH239330   4.542   0.277   0.205 -0.1011  0.5920  0.2250
 5924TIP3    H139331   4.566   0.254   0.115 -1.1330  1.5581 -0.3260
 5924TIP3    H239332   4.625   0.277   0.252  0.4456 -0.0467 -0.6953
 5925TIP3   OH239333   0.743   3.529   7.858  0.1174  0.1970  0.4218
 5925TIP3    H139334   0.725   3.534   7.764 -0.3579 -0.0734  0.5007
 5925TIP3    H239335   0.835   3.501   7.863  0.4041  1.0442  0.0350
 5926TIP3   OH239336   3.319   5.654   1.479  0.3250 -0.2333  0.1156
 5926TIP3    H139337   3.323   5.588   1.548  0.6628 -1.4676 -1.0502
 5926TIP3    H239338   3.402   5.644   1.432  0.2131  0.7748 -0.3113
 5927TIP3   OH239339   4.472   6.342   1.171 -0.4159 -0.2484 -0.2861
 5927TIP3    H139340   4.488   6.399   1.246 -1.9759 -1.8587  1.3663
 5927TIP3    H239341   4.546   6.358   1.112  0.7073  1.2797  1.4475
 5928TIP3   OH239342   0.022   2.203   8.119 -0.4526  0.6125  0.6401
 5928TIP3    H139343   0.091   2.225   8.056 -0.1593  0.3240  0.8605
 5928TIP3    H239344  -0.012   2.119   8.090  0.1498  0.1467  1.2565
 5929TIP3   OH239345   1.910   2.115   2.752 -0.3899 -0.1678 -0.0980
 5929TIP3    H139346   1.935   2.189   2.807 -0.7511 -0.7224  0.8364
 5929TIP3    H239347   1.815   2.126   2.739 -0.5003 -0.6344  0.3054
 5930TIP3   OH239348   0.879   0.797   3.213  0.5017 -0.0012  0.1548
 5930TIP3    H139349   0.897   0.795   3.307 -0.3788  0.6064  0.3508
 5930TIP3    H239350   0.956   0.839   3.175  0.0235  1.5965  0.8428
 5931TIP3   OH239351   1.085   4.152   3.059  0.6457  0.2454 -0.8493
 5931TIP3    H139352   1.146   4.223   3.036  3.0312 -1.1818  0.6479
 5931TIP3    H239353   1.051   4.176   3.145  0.2829  0.2910 -1.0039
 5932TIP3   OH239354   5.225   2.988   7.212 -0.4816 -0.8643 -0.2006
 5932TIP3    H139355   5.156   2.958   7.270 -1.0060  0.3538 -0.1554
 5932TIP3    H239356   5.185   3.061   7.163  1.1159  0.7246  0.7399
 5933TIP3   OH239357   4.911   6.576   3.122 -0.3767 -0.5078 -0.2660
 5933TIP3    H139358   4.915   6.607   3.213 -2.2041  0.1075 -0.3512
 5933TIP3    H239359   4.837   6.623   3.084  0.6234 -0.4256 -2.2227
 5934TIP3   OH239360   5.015   6.137   0.876  0.4187 -0.5887  0.4047
 5934TIP3    H139361   5.008   6.050   0.916 -1.0312  0.4623  2.5986
 5934TIP3    H239362   4.927   6.155   0.842  0.3659  0.4901  1.0658
 5935TIP3   OH239363   3.293   5.500   2.279  0.2869  0.2980 -0.1767
 5935TIP3    H139364   3.344   5.443   2.222 -0.4542 -0.1663 -0.3826
 5935TIP3    H239365   3.281   5.581   2.229  2.1286  1.0201  0.4701
 5936TIP3   OH239366   0.601   3.281   1.945 -0.7902 -0.2196 -0.0897
 5936TIP3    H139367   0.538   3.330   1.998  0.2337  0.7335  0.3014
 5936TIP3    H239368   0.684   3.328   1.958 -0.1704 -0.9637 -1.2164
 5937TIP3   OH239369   5.584   2.494   8.205 -0.4020 -0.4236 -0.2173
 5937TIP3    H139370   5.576   2.444   8.286  0.4809  0.7851  0.6434
 5937TIP3    H239371   5.669   2.537   8.211 -0.3535 -0.2450 -1.7540
 5938TIP3   OH239372   0.323   4.677   0.119  0.1876  0.0349  0.1334
 5938TIP3    H139373   0.349   4.584   0.120  1.6566  0.4083  0.8148
 5938TIP3    H239374   0.294   4.693   0.030 -1.2723 -1.3615  0.2983
 5939TIP3   OH239375   4.374   4.107   1.247  0.1700  0.0339  0.2874
 5939TIP3    H139376   4.336   4.127   1.332 -0.6139  0.3275 -0.1281
 5939TIP3    H239377   4.362   4.012   1.237  2.3092 -0.4370  1.4800
 5940TIP3   OH239378   2.099   4.172   2.000  1.0641  0.1509  0.2393
 5940TIP3    H139379   2.104   4.263   2.030  0.3111  0.6164 -0.9961
 5940TIP3    H239380   2.017   4.167   1.950  0.6975 -1.4130  0.9410
 5941TIP3   OH239381   3.373   1.481   1.429 -0.5623 -0.4601 -0.2401
 5941TIP3    H139382   3.440   1.518   1.372 -1.4790 -1.1760 -1.8298
 5941TIP3    H239383   3.305   1.548   1.434  0.0884  0.1399  1.1255
 5942TIP3   OH239384   0.033   6.863   2.788  0.3298 -0.1308  0.0812
 5942TIP3    H139385  -0.037   6.811   2.749  1.3098 -0.3519 -1.4757
 5942TIP3    H239386   0.008   6.873   2.880 -1.4818 -0.6017 -0.3288
 5943TIP3   OH239387   6.770   1.130   7.841 -0.1155 -0.3584  0.2976
 5943TIP3    H139388   6.718   1.205   7.869 -0.9090 -1.6814  2.7019
 5943TIP3    H239389   6.853   1.168   7.811 -0.6975  1.4954  0.8912
 5944TIP3   OH239390   0.382   5.713   2.773  0.7404 -0.5696  0.3751
 5944TIP3    H139391   0.478   5.718   2.770  0.6572  2.4398 -1.2730
 5944TIP3    H239392   0.362   5.623   2.749  3.1248 -1.4243  1.2585
 5945TIP3   OH239393   4.109   5.061   2.106  0.6904  0.3296  0.3481
 5945TIP3    H139394   4.127   5.000   2.178 -0.7119 -0.9374 -0.3084
 5945TIP3    H239395   4.078   5.140   2.149  2.0962  0.4508  1.2075
 5946TIP3   OH239396   3.250   3.831   8.457  0.0550 -0.6361 -0.1142
 5946TIP3    H139397   3.161   3.804   8.482 -0.9252 -0.5011 -2.9985
 5946TIP3    H239398   3.307   3.784   8.517 -1.9408 -1.1771  1.4792
 5947TIP3   OH239399   5.082   1.080   8.154 -0.3026  0.6612  0.7604
 5947TIP3    H139400   5.140   1.009   8.181 -0.4399  0.5202  0.6818
 5947TIP3    H239401   4.996   1.040   8.145  0.2838 -0.1699 -3.2636
 5948TIP3   OH239402   4.958   4.518   8.409 -0.0965  0.3769 -0.0760
 5948TIP3    H139403   4.993   4.607   8.407 -1.3857  0.9232  0.2163
 5948TIP3    H239404   4.864   4.530   8.427 -0.2174 -1.0611  0.3765
 5949TIP3   OH239405   2.470   1.430   2.989  0.3089  0.1543 -0.1821
 5949TIP3    H139406   2.542   1.489   2.967  1.1803 -0.7364  0.2146
 5949TIP3    H239407   2.480   1.356   2.930 -0.8130  0.3995 -0.7109
 5950TIP3   OH239408   6.200   5.622   1.431 -0.3573 -0.4408 -0.0322
 5950TIP3    H139409   6.165   5.711   1.429 -0.6646 -0.5278 -3.2825
 5950TIP3    H239410   6.274   5.628   1.492 -0.8339  1.8425  0.4375
 5951TIP3   OH239411   3.612   1.109   1.195 -0.0430 -0.0055  0.3684
 5951TIP3    H139412   3.597   1.202   1.180  2.3395  0.6477  1.6208
 5951TIP3    H239413   3.528   1.077   1.229 -0.7795  1.7473  0.3171
 5952TIP3   OH239414   0.597   1.692   1.817  0.6041 -0.1178 -0.5123
 5952TIP3    H139415   0.507   1.661   1.818  0.4985 -0.0594 -3.0896
 5952TIP3    H239416   0.595   1.772   1.869  0.1352 -2.2359  3.0838
 5953TIP3   OH239417   0.905   4.556   2.641 -0.2519 -0.5116  0.5234
 5953TIP3    H139418   0.901   4.510   2.557  0.0778  0.5760 -0.1062
 5953TIP3    H239419   0.829   4.523   2.690 -1.4909  0.1530 -0.8918
 5954TIP3   OH239420   3.282   3.335   1.263 -0.0380 -0.1951 -0.4892
 5954TIP3    H139421   3.358   3.282   1.289  0.3252  0.0971 -0.9428
 5954TIP3    H239422   3.207   3.289   1.301  0.4765  0.2791  1.1555
 5955TIP3   OH239423   6.334   6.863   8.024 -0.2010  0.3117  0.1877
 5955TIP3    H139424   6.426   6.866   8.050 -0.4939  0.2612  1.2596
 5955TIP3    H239425   6.321   6.942   7.972 -0.3157  1.9849  2.6289
 5956TIP3   OH239426   0.808   1.052   2.294  0.0247 -0.0379  0.2483
 5956TIP3    H139427   0.862   0.996   2.237 -0.0547  0.1146  0.0199
 5956TIP3    H239428   0.718   1.021   2.280  0.0377 -0.1972  0.5189
 5957TIP3   OH239429   6.349   1.494   7.998 -0.1411 -0.2548 -0.4200
 5957TIP3    H139430   6.302   1.452   7.926 -0.2506  0.5045 -0.7983
 5957TIP3    H239431   6.286   1.555   8.036  0.0115 -0.4388  0.1346
 5958TIP3   OH239432   4.222   5.401   0.540  0.3385 -0.6314 -0.4359
 5958TIP3    H139433   4.288   5.390   0.608 -0.6061  0.0763  0.6193
 5958TIP3    H239434   4.147   5.351   0.571 -0.4322  0.4666 -0.5005
 5959TIP3   OH239435   2.822   2.888   1.423  0.0263  0.3806 -0.3986
 5959TIP3    H139436   2.734   2.896   1.459  0.8439  0.0707  1.8397
 5959TIP3    H239437   2.875   2.944   1.479  1.3556  0.1797 -1.4070
 5960TIP3   OH239438   0.634   6.493   8.381 -0.4367 -0.2814 -0.1562
 5960TIP3    H139439   0.645   6.489   8.476  0.9483  0.0046 -0.2843
 5960TIP3    H239440   0.718   6.524   8.348 -1.0785  0.1929 -1.4403
 5961TIP3   OH239441   2.408   3.924   7.967  0.3736  0.5433 -0.4490
 5961TIP3    H139442   2.389   4.017   7.953 -2.9283 -0.0566 -0.9928
 5961TIP3    H239443   2.378   3.881   7.886  1.5322 -1.0466 -0.0901
 5962TIP3   OH239444   0.602   4.148   2.002 -0.1534 -0.0709 -0.1486
 5962TIP3    H139445   0.668   4.168   2.067 -0.6741 -0.8809  0.6482
 5962TIP3    H239446   0.518   4.162   2.047 -0.5268 -0.0851 -0.8185
 5963TIP3   OH239447   0.948   1.847   2.314  0.3044 -0.1077  0.1524
 5963TIP3    H139448   0.879   1.913   2.322  0.3270  0.1002 -1.1678
 5963TIP3    H239449   0.934   1.808   2.227  0.8997 -1.1499  0.5053
 5964TIP3   OH239450   0.596   6.338   0.989  0.0146 -0.6496  0.2160
 5964TIP3    H139451   0.513   6.365   0.951 -1.3264 -1.1714  2.5832
 5964TIP3    H239452   0.626   6.415   1.039 -0.1076 -1.1229  1.0337
 5965TIP3   OH239453   4.606   4.394   0.284 -0.3994  0.2405 -0.3856
 5965TIP3    H139454   4.700   4.376   0.283 -0.4651 -0.1155 -0.3576
 5965TIP3    H239455   4.597   4.480   0.242  0.2185  1.6262  2.0739
 5966TIP3   OH239456   4.317   0.776   1.699 -0.3284  0.0126 -0.6662
 5966TIP3    H139457   4.376   0.796   1.772  0.2502 -0.1082 -1.0958
 5966TIP3    H239458   4.374   0.739   1.632 -1.2127 -2.3373 -0.2201
 5967TIP3   OH239459   6.202   1.938   1.370 -0.4918 -0.4843 -0.0462
 5967TIP3    H139460   6.274   1.906   1.316  0.9752  0.5953  1.1787
 5967TIP3    H239461   6.229   2.027   1.396 -2.4294  0.0878  0.1751
 5968TIP3   OH239462   2.497   0.754   1.404 -0.1293 -0.2602 -0.1606
 5968TIP3    H139463   2.556   0.702   1.351 -1.1955 -0.9924 -0.6562
 5968TIP3    H239464   2.446   0.690   1.454 -1.5968  0.2657 -0.9284
 5969TIP3   OH239465   1.468   1.212   0.396 -0.1658 -0.7024  0.5485
 5969TIP3    H139466   1.372   1.205   0.394 -0.2935  0.5528  1.5591
 5969TIP3    H239467   1.498   1.137   0.344 -1.6674 -1.7841  1.1648
 5970TIP3   OH239468   5.950   4.579   3.820 -0.1873  0.1229  0.4353
 5970TIP3    H139469   5.981   4.491   3.838  1.1498  0.5378  0.3292
 5970TIP3    H239470   5.925   4.578   3.727 -1.2079 -0.4129  0.7095
 5971TIP3   OH239471   0.876   1.901   2.872 -0.3594  0.1447  0.1778
 5971TIP3    H139472   0.922   1.826   2.909 -0.8229 -0.3308 -0.1895
 5971TIP3    H239473   0.798   1.910   2.926 -0.3221  0.3383  0.1996
 5972TIP3   OH239474   6.639   3.573   0.277  0.0088 -0.7172 -0.0721
 5972TIP3    H139475   6.589   3.501   0.317 -0.4828 -0.4177 -0.1333
 5972TIP3    H239476   6.643   3.551   0.184  0.2709 -0.9020 -0.0186
 5973TIP3   OH239477   2.379   0.321   2.234  0.3152  0.1845  0.5146
 5973TIP3    H139478   2.341   0.407   2.249  0.3788  0.6177 -1.4665
 5973TIP3    H239479   2.390   0.317   2.139 -0.6394 -2.4203  0.4428
 5974TIP3   OH239480   1.055   3.663   8.361  0.2684  0.7983  0.0434
 5974TIP3    H139481   0.970   3.661   8.404  0.2141 -0.8011 -0.0608
 5974TIP3    H239482   1.118   3.674   8.433  0.0378  0.7166  0.2599
 5975TIP3   OH239483   5.444   5.736   8.242 -0.4385  0.3599  0.2041
 5975TIP3    H139484   5.395   5.743   8.323 -0.0715 -1.2550  0.6001
 5975TIP3    H239485   5.383   5.694   8.180  0.0657 -0.6778  0.3897
 5976TIP3   OH239486   1.999   0.909   8.085  0.1235  0.2078  0.1217
 5976TIP3    H139487   1.980   0.990   8.132 -0.7042  0.4540 -0.6299
 5976TIP3    H239488   1.914   0.874   8.062  0.5160  0.3678 -1.6859
 5977TIP3   OH239489   0.921   2.105   1.110 -0.6906 -0.4542 -0.0559
 5977TIP3    H139490   0.940   2.198   1.094  3.3365 -0.7371  1.8982
 5977TIP3    H239491   0.881   2.075   1.028 -0.3995  2.5500 -1.4614
 5978TIP3   OH239492   4.233   1.086   0.162  0.4933 -0.0173  0.4937
 5978TIP3    H139493   4.263   1.168   0.125  0.5959 -0.6037 -0.7709
 5978TIP3    H239494   4.139   1.083   0.141  0.3103  0.1330  1.2432
 5979TIP3   OH239495   6.430   2.786   0.939 -0.8364 -0.1336  0.3631
 5979TIP3    H139496   6.519   2.757   0.919 -0.5763  0.4199  0.6826
 5979TIP3    H239497   6.393   2.715   0.992 -1.1967 -1.1542 -1.2031
 5980TIP3   OH239498   2.327   3.324   7.863  0.0879  0.1805  0.4416
 5980TIP3    H139499   2.395   3.345   7.798  0.5575  1.9797  1.4506
 5980TIP3    H239500   2.259   3.389   7.848 -2.2257 -2.4393 -1.4957
 5981TIP3   OH239501   5.587   4.403   1.426 -0.5208 -0.4956 -0.4430
 5981TIP3    H139502   5.534   4.413   1.347 -1.4690  0.4036  0.2692
 5981TIP3    H239503   5.538   4.451   1.493  1.0301  0.0469  0.3336
 5982TIP3   OH239504   0.684   1.500   0.415  0.4217 -0.1957 -0.0431
 5982TIP3    H139505   0.642   1.563   0.358  0.1441 -0.9243 -0.6668
 5982TIP3    H239506   0.640   1.417   0.395  0.0664 -0.4084  1.4772
 5983TIP3   OH239507   5.027   0.779   2.116 -0.6715  0.0977 -0.3127
 5983TIP3    H139508   5.015   0.703   2.059 -0.1033  0.2401 -0.6259
 5983TIP3    H239509   4.974   0.759   2.193  0.9576 -1.4878  0.4624
 5984TIP3   OH239510   4.751   4.811   2.742 -0.1989  0.2846  0.0407
 5984TIP3    H139511   4.711   4.883   2.790  1.0617  1.4902 -0.6710
 5984TIP3    H239512   4.839   4.803   2.777 -0.4828 -1.3117  0.4954
 5985TIP3   OH239513   0.389   2.178   2.554  0.0723 -0.2965  0.3591
 5985TIP3    H139514   0.393   2.093   2.598  1.1427 -0.7546 -0.5875
 5985TIP3    H239515   0.415   2.241   2.621  3.0575 -1.1072  0.0955
 5986TIP3   OH239516   0.146   3.842   1.540 -0.4545  0.1677 -0.5731
 5986TIP3    H139517   0.191   3.758   1.553 -0.0501  0.1938 -1.6855
 5986TIP3    H239518   0.209   3.908   1.571 -0.5504  0.0922 -0.2159
 5987TIP3   OH239519   3.439   2.329   8.274  0.2641 -0.0641  0.0451
 5987TIP3    H139520   3.451   2.400   8.211  0.6962  0.9546  1.2544
 5987TIP3    H239521   3.528   2.298   8.291  0.3842  1.0691  1.7119
 5988TIP3   OH239522   6.062   6.355   2.514 -0.1270  0.5087  0.4976
 5988TIP3    H139523   6.141   6.324   2.559  0.2614  1.7555  0.7100
 5988TIP3    H239524   6.060   6.306   2.432  2.4557  2.3834 -0.8492
 5989TIP3   OH239525   6.087   0.559   7.672 -0.4019  0.6844  0.1554
 5989TIP3    H139526   6.034   0.575   7.594  0.1758  0.4633 -0.2921
 5989TIP3    H239527   6.178   0.563   7.641 -0.1817 -0.6619  0.5663
 5990TIP3   OH239528   1.182   2.289   2.996  0.2742 -0.0744  0.3158
 5990TIP3    H139529   1.188   2.360   2.931  1.3070 -1.3491 -1.0443
 5990TIP3    H239530   1.141   2.217   2.948  1.2615 -1.1234  1.0179
 5991TIP3   OH239531   4.887   4.544   1.019  0.1763 -0.1835  0.1914
 5991TIP3    H139532   4.826   4.499   0.962  0.8167 -0.7824 -0.0383
 5991TIP3    H239533   4.967   4.552   0.967  1.1874 -1.8387  1.3920
 5992TIP3   OH239534   2.415   5.763   2.840 -0.1903  0.0445 -0.0805
 5992TIP3    H139535   2.469   5.689   2.868 -0.4616 -0.6158 -1.2468
 5992TIP3    H239536   2.436   5.774   2.747 -2.5880 -0.7383 -0.7995
 5993TIP3   OH239537   3.495   5.410   3.340  0.4882 -0.0625  0.2958
 5993TIP3    H139538   3.428   5.464   3.381 -0.5468 -0.5099 -0.7438
 5993TIP3    H239539   3.561   5.472   3.308 -0.5905  0.6024 -0.7162
 5994TIP3   OH239540   4.728   6.611   7.412 -0.1181 -0.3126 -0.0728
 5994TIP3    H139541   4.702   6.526   7.377  0.1190  0.5609 -2.5353
 5994TIP3    H239542   4.821   6.619   7.389  0.4829 -0.2925  2.1374
 5995TIP3   OH239543   4.123   4.492   0.815  0.0273 -1.0547 -0.1505
 5995TIP3    H139544   4.107   4.575   0.860  1.2001 -0.8015 -0.1815
 5995TIP3    H239545   4.041   4.444   0.824 -0.5589 -0.0241  0.1449
 5996TIP3   OH239546   2.544   2.756   1.246 -0.3912 -0.5351 -0.4098
 5996TIP3    H139547   2.500   2.807   1.179 -0.9176  1.2835  1.2188
 5996TIP3    H239548   2.552   2.816   1.320 -1.0386 -2.8018  1.6322
 5997TIP3   OH239549   5.218   0.402   1.603  0.0567 -0.6672  0.3699
 5997TIP3    H139550   5.200   0.310   1.623 -0.2305 -0.8311 -0.6272
 5997TIP3    H239551   5.296   0.401   1.548  0.0748 -0.3060  0.3814
 5998TIP3   OH239552   3.062   0.540   1.738  0.5918  0.5373  0.2367
 5998TIP3    H139553   3.097   0.504   1.819  1.2870 -0.0998 -0.3310
 5998TIP3    H239554   3.083   0.475   1.671 -1.8346  0.0232 -0.1264
 5999TIP3   OH239555   4.757   3.881   0.187  0.0996 -0.3426  0.1790
 5999TIP3    H139556   4.784   3.794   0.218 -1.8951  0.2467  4.2656
 5999TIP3    H239557   4.662   3.876   0.181  0.0536  1.2025 -0.9388
 6000TIP3   OH239558   1.294   5.250   2.962  0.4091 -0.1412  0.6172
 6000TIP3    H139559   1.280   5.281   2.872  0.4290 -1.8724 -0.0105
 6000TIP3    H239560   1.379   5.285   2.987  0.5423  0.1000 -0.1593
 6001TIP3   OH239561   1.462   0.315   2.630 -0.6866  0.1537 -0.0425
 6001TIP3    H139562   1.373   0.307   2.597 -0.9142  3.2119 -0.4407
 6001TIP3    H239563   1.491   0.224   2.642 -2.8290 -1.0137 -2.5736
 6002TIP3   OH239564   0.354   1.751   0.087 -0.0760  0.1443  0.4783
 6002TIP3    H139565   0.305   1.830   0.066  1.5496  0.4661 -2.6082
 6002TIP3    H239566   0.302   1.680   0.050 -0.7523 -0.1217  1.8710
 6003TIP3   OH239567   6.816   1.534   2.129 -0.0399  0.3275  0.0528
 6003TIP3    H139568   6.819   1.507   2.038  0.8136  2.2757 -0.5499
 6003TIP3    H239569   6.768   1.617   2.128  2.1828  1.7152  0.9592
 6004TIP3   OH239570   1.672   4.343   7.774 -0.1400  0.0402  0.3443
 6004TIP3    H139571   1.696   4.290   7.698 -0.7679  0.8133 -0.4066
 6004TIP3    H239572   1.741   4.409   7.780 -0.2670  0.1809  0.2503
 6005TIP3   OH239573   4.277   6.270   8.127 -0.0343 -0.3652 -0.6078
 6005TIP3    H139574   4.280   6.285   8.033 -1.2634 -2.2122 -0.9851
 6005TIP3    H239575   4.186   6.247   8.145  0.2175 -0.2222  1.0113
 6006TIP3   OH239576   3.280   0.138   0.985 -0.0862  0.1706 -0.0052
 6006TIP3    H139577   3.258   0.064   0.929  2.4274  0.2490 -1.1874
 6006TIP3    H239578   3.195   0.173   1.013 -1.3855 -0.8516 -2.4538
 6007TIP3   OH239579   5.001   2.786   1.802 -0.3855 -0.1775 -0.1792
 6007TIP3    H139580   5.076   2.833   1.766 -0.3714  0.0208  0.0999
 6007TIP3    H239581   5.033   2.697   1.819 -0.4898 -0.3759 -0.9703
 6008TIP3   OH239582   2.476   3.175   2.924  0.0435 -0.0984 -0.3741
 6008TIP3    H139583   2.467   3.080   2.929  2.3017 -0.3558  0.2333
 6008TIP3    H239584   2.480   3.194   2.830  0.9004 -0.8036 -0.4986
 6009TIP3   OH239585   3.295   2.450   1.411 -0.1521 -0.0476 -0.2534
 6009TIP3    H139586   3.270   2.363   1.440 -2.1083 -0.0703 -1.7786
 6009TIP3    H239587   3.212   2.498   1.403  0.6276  1.1663 -1.7931
 6010TIP3   OH239588   4.426   0.236   2.998 -0.2759 -0.1590  0.0030
 6010TIP3    H139589   4.395   0.148   3.021 -1.4368  0.8807  2.9459
 6010TIP3    H239590   4.520   0.225   2.982 -0.9861 -2.5691 -4.2071
 6011TIP3   OH239591   5.769   4.460   0.106 -0.4746  0.2687 -0.0070
 6011TIP3    H139592   5.719   4.512   0.042 -1.1587 -1.2702 -0.7614
 6011TIP3    H239593   5.780   4.375   0.065  3.1843  0.6331 -0.0360
 6012TIP3   OH239594   3.246   6.000   1.257  0.4517  0.3556 -0.1347
 6012TIP3    H139595   3.329   5.962   1.285 -0.3796 -1.0426  0.5737
 6012TIP3    H239596   3.190   5.995   1.334 -0.6873  0.0199 -0.9505
 6013TIP3   OH239597   1.829   6.912   1.760  0.2885  0.3275  0.1908
 6013TIP3    H139598   1.819   7.003   1.734 -1.8992  0.3339  0.9208
 6013TIP3    H239599   1.890   6.914   1.834  0.3364  1.1679  0.1287
 6014TIP3   OH239600   6.043   2.721   3.334  0.2100 -0.0298  0.3914
 6014TIP3    H139601   6.114   2.716   3.269 -0.6278 -0.6460 -0.5237
 6014TIP3    H239602   6.075   2.782   3.400  1.0104  0.8269 -0.7308
 6015TIP3   OH239603   1.997   2.431   1.111  0.9131 -0.7180  1.0599
 6015TIP3    H139604   2.032   2.350   1.075  2.3738 -0.0725  0.9847
 6015TIP3    H239605   2.034   2.436   1.199  2.0793  0.6053  0.5201
 6016TIP3   OH239606   1.872   0.108   2.411  0.5582  0.0056  0.2471
 6016TIP3    H139607   1.902   0.155   2.489 -0.4902  0.3452  0.4597
 6016TIP3    H239608   1.822   0.173   2.361  0.6577 -0.3895 -0.3833
 6017TIP3   OH239609   6.452   2.462   1.528  0.4348 -0.1552  0.1396
 6017TIP3    H139610   6.383   2.399   1.546  1.2805 -1.3627 -0.6546
 6017TIP3    H239611   6.495   2.476   1.612  1.1320 -1.7674  0.0930
 6018TIP3   OH239612   6.848   3.117   0.235  0.1705  0.3854 -0.6124
 6018TIP3    H139613   6.777   3.066   0.197 -0.0875  0.3160 -0.0568
 6018TIP3    H239614   6.900   3.053   0.284 -0.5761  0.7363  0.7144
 6019TIP3   OH239615   0.752   0.782   1.288 -0.3376 -0.3538  0.0059
 6019TIP3    H139616   0.741   0.731   1.368 -2.6670  1.4218  0.9453
 6019TIP3    H239617   0.725   0.871   1.312  0.3114  0.5808 -2.3937
 6020TIP3   OH239618   2.027   3.013   0.224  0.0002 -0.2716 -0.6946
 6020TIP3    H139619   1.951   2.961   0.200 -0.9241  1.3101 -1.3888
 6020TIP3    H239620   1.994   3.103   0.228  1.5135  0.2716  0.5027
 6021TIP3   OH239621   6.090   6.180   1.158 -0.2037 -0.3137 -0.1571
 6021TIP3    H139622   6.013   6.131   1.129  0.6079 -1.1026 -1.0216
 6021TIP3    H239623   6.069   6.271   1.137 -0.7792 -0.5503 -0.6655
 6022TIP3   OH239624   2.653   4.689   2.516 -0.2541  0.2514  0.3673
 6022TIP3    H139625   2.563   4.712   2.541 -0.0055  1.5051  0.1681
 6022TIP3    H239626   2.681   4.762   2.461  0.8643 -0.1677  0.3780
 6023TIP3   OH239627   2.364   1.695   2.885 -0.2812  0.2113  0.2652
 6023TIP3    H139628   2.342   1.731   2.971 -0.2392  0.9694 -0.0360
 6023TIP3    H239629   2.459   1.696   2.882 -0.2608  2.6966 -0.7907
 6024TIP3   OH239630   3.207   4.764   0.649  0.2250 -0.1961  0.1684
 6024TIP3    H139631   3.178   4.807   0.730 -1.0050  0.3459 -0.5292
 6024TIP3    H239632   3.156   4.683   0.646  0.8641 -0.6115  0.3299
 6025TIP3   OH239633   5.518   5.730   2.993 -0.5865 -0.3846 -0.0188
 6025TIP3    H139634   5.516   5.643   3.033  3.6326 -0.6732 -0.0088
 6025TIP3    H239635   5.487   5.788   3.063 -0.9015 -1.5936  0.8890
 6026TIP3   OH239636   2.075   5.393   2.518  0.2881  0.0206 -0.6095
 6026TIP3    H139637   2.125   5.459   2.469  0.8895  2.2111  2.6297
 6026TIP3    H239638   1.984   5.422   2.511  0.4062  0.4938 -0.2430
 6027TIP3   OH239639   1.308   4.403   8.188  0.4631 -0.3572  0.0206
 6027TIP3    H139640   1.341   4.456   8.115  0.9121  0.4987  0.8312
 6027TIP3    H239641   1.384   4.387   8.243  0.1386 -1.0551  0.2819
 6028TIP3   OH239642   0.322   4.656   0.985  0.4917 -0.5132 -0.2614
 6028TIP3    H139643   0.347   4.629   0.896  0.5043 -2.4305  0.2816
 6028TIP3    H239644   0.405   4.682   1.026  0.4194  0.8985 -0.9277
 6029TIP3   OH239645   1.255   5.063   0.275 -0.3999  0.4138 -0.1854
 6029TIP3    H139646   1.183   5.104   0.227 -0.6824 -0.8830 -0.9080
 6029TIP3    H239647   1.258   4.973   0.243  2.5975  0.8212 -1.3933
 6030TIP3   OH239648   1.116   0.147   1.428  0.1324 -0.3198 -0.5926
 6030TIP3    H139649   1.126   0.065   1.381  0.4773 -2.0829  2.2847
 6030TIP3    H239650   1.042   0.132   1.487  1.4230  0.6203  1.3949
 6031TIP3   OH239651   2.041   4.591   1.377  0.1728  0.2912  0.1388
 6031TIP3    H139652   1.968   4.533   1.400  0.5910  0.0405  0.8834
 6031TIP3    H239653   2.095   4.539   1.317  0.5360 -0.1059  0.7880
 6032TIP3   OH239654   3.525   6.618   1.878 -0.2391  0.1718  0.2481
 6032TIP3    H139655   3.519   6.634   1.784 -0.2280  0.9892  0.3821
 6032TIP3    H239656   3.556   6.527   1.885 -1.5542 -0.3613 -0.5126
 6033TIP3   OH239657   0.854   3.111   1.608 -0.0945  0.1632  0.0786
 6033TIP3    H139658   0.759   3.096   1.614  0.1446 -0.9027  2.1175
 6033TIP3    H239659   0.876   3.154   1.691  1.4705 -1.3043  0.4681
 6034TIP3   OH239660   3.751   5.137   0.282  0.1951  0.6414  0.0587
 6034TIP3    H139661   3.840   5.168   0.300  0.3845 -0.0103  0.2838
 6034TIP3    H239662   3.697   5.183   0.346  0.6925 -0.6769  1.4894
 6035TIP3   OH239663   0.203   2.921   7.109  0.7043  0.2618  0.5807
 6035TIP3    H139664   0.137   2.876   7.162 -0.7406  0.1818 -1.2056
 6035TIP3    H239665   0.159   3.000   7.077  0.8731 -0.5650 -1.9245
 6036TIP3   OH239666   5.711   1.934   8.291 -0.0605 -0.0817 -0.2075
 6036TIP3    H139667   5.736   1.937   8.199 -1.1728  2.1033 -0.5034
 6036TIP3    H239668   5.686   1.843   8.306 -0.4043 -0.3654 -2.2158
 6037TIP3   OH239669   5.275   4.349   2.689  0.3900  0.3662 -0.2022
 6037TIP3    H139670   5.317   4.371   2.772  0.4750 -0.9858  0.1265
 6037TIP3    H239671   5.336   4.382   2.623  0.0723  1.9286  0.2383
 6038TIP3   OH239672   1.056   5.263   7.727  0.2388  0.4054 -0.8007
 6038TIP3    H139673   0.997   5.283   7.799  1.3103  0.2937  0.1257
 6038TIP3    H239674   1.011   5.295   7.649 -1.2465 -0.1052 -0.1785
 6039TIP3   OH239675   6.082   5.523   8.029  0.4241  0.0026  0.1302
 6039TIP3    H139676   6.093   5.529   7.934 -1.5569  2.6410 -0.0322
 6039TIP3    H239677   6.004   5.470   8.041  0.6830 -0.3436  0.3113
 6040TIP3   OH239678   4.260   4.678   1.167  0.2527 -0.3993  0.5092
 6040TIP3    H139679   4.209   4.611   1.212 -0.3728 -0.2548  0.0308
 6040TIP3    H239680   4.266   4.750   1.229 -1.5380  0.2374  0.0032
 6041TIP3   OH239681   0.008   2.345   2.739 -0.2591 -0.0031  0.3642
 6041TIP3    H139682   0.024   2.262   2.785 -1.9059 -0.3954  0.2987
 6041TIP3    H239683   0.074   2.404   2.772  0.3221 -1.0684  1.1740
 6042TIP3   OH239684   1.329   2.140   3.558  0.0904  0.1130  0.0978
 6042TIP3    H139685   1.316   2.227   3.596 -2.4229 -0.8271  1.6654
 6042TIP3    H239686   1.414   2.111   3.590  0.4670  1.5608  0.4504
 6043TIP3   OH239687   6.282   5.472   1.014  0.1534 -0.6555  0.1873
 6043TIP3    H139688   6.234   5.391   1.034 -0.4078 -0.5382 -0.6602
 6043TIP3    H239689   6.285   5.475   0.919  1.0536 -0.1821  0.2240
 6044TIP3   OH239690   6.628   4.367   8.475 -0.0958 -0.2535  0.2175
 6044TIP3    H139691   6.554   4.306   8.471 -0.7186  0.4841  0.0673
 6044TIP3    H239692   6.657   4.376   8.384  1.2346 -1.7633  0.4557
 6045TIP3   OH239693   0.917   1.745   1.126 -0.4711  0.1975  0.6868
 6045TIP3    H139694   0.992   1.804   1.124  0.3289 -0.7912  0.7300
 6045TIP3    H239695   0.841   1.803   1.131  0.2961  1.2100  0.9775
 6046TIP3   OH239696   5.884   5.492   7.661  0.0904  0.5496  0.3746
 6046TIP3    H139697   5.925   5.440   7.592  0.0490  1.8106 -0.6466
 6046TIP3    H239698   5.914   5.582   7.644 -0.2919  0.9551  1.7310
 6047TIP3   OH239699   3.130   5.555   0.420 -0.2399 -0.4042  0.0830
 6047TIP3    H139700   3.101   5.533   0.509  2.1064 -2.9259  0.3628
 6047TIP3    H239701   3.074   5.502   0.363  0.4917 -1.4550  0.3135
 6048TIP3   OH239702   1.600   6.908   2.194  0.2087 -0.2087 -0.3113
 6048TIP3    H139703   1.641   6.834   2.150 -1.9606 -0.9600 -1.1779
 6048TIP3    H239704   1.536   6.869   2.253  1.4177  0.8857  1.8590
 6049TIP3   OH239705   0.731   0.932   8.066 -0.8215 -0.0530  0.3923
 6049TIP3    H139706   0.791   0.894   8.130 -0.8043  0.9019  0.9675
 6049TIP3    H239707   0.665   0.864   8.052  0.6420 -1.3426 -0.6659
 6050TIP3   OH239708   2.457   2.749   3.075  0.2762 -0.2001  0.5914
 6050TIP3    H139709   2.367   2.718   3.074  0.0348  0.4653 -0.7993
 6050TIP3    H239710   2.481   2.749   3.168 -1.7991  1.4155  1.2173
 6051TIP3   OH239711   6.193   0.228   8.334 -0.0259  0.0609 -0.4323
 6051TIP3    H139712   6.184   0.142   8.292  1.3305  0.2190 -1.1081
 6051TIP3    H239713   6.283   0.254   8.315  0.1115  0.8883  1.1903
 6052TIP3   OH239714   3.064   6.390   0.077 -0.2909 -0.0478  0.0866
 6052TIP3    H139715   2.994   6.379   0.013 -1.3580  0.6809  1.0975
 6052TIP3    H239716   3.051   6.319   0.140  0.3045 -0.3233 -0.0913
 6053TIP3   OH239717   2.904   4.796   7.824  0.0432  0.1893 -0.2672
 6053TIP3    H139718   2.810   4.779   7.816 -0.1389  1.1909 -0.4236
 6053TIP3    H239719   2.923   4.786   7.917  0.2222 -2.0609 -0.4988
 6054TIP3   OH239720   0.609   3.993   0.644  0.0226 -0.9829 -0.3784
 6054TIP3    H139721   0.621   4.043   0.564 -0.8547 -0.1180  0.0063
 6054TIP3    H239722   0.675   4.027   0.704 -2.0697  1.5736  0.7071
 6055TIP3   OH239723   5.255   6.551   2.497  0.0124 -0.0153  0.1806
 6055TIP3    H139724   5.255   6.456   2.506 -1.6567 -0.0239  0.3748
 6055TIP3    H239725   5.243   6.566   2.404  0.9471  0.0322  0.0536
 6056TIP3   OH239726   4.064   4.747   2.488  0.2656 -0.1725  0.4849
 6056TIP3    H139727   4.093   4.752   2.579 -0.1586 -0.3816  0.6330
 6056TIP3    H239728   4.039   4.656   2.475 -0.8691  0.1119  0.5402
 6057TIP3   OH239729   1.209   0.225   0.261  0.4857 -0.0891  0.9047
 6057TIP3    H139730   1.226   0.300   0.318  1.0958  1.2444 -0.9433
 6057TIP3    H239731   1.285   0.168   0.272  0.5081  0.0620  1.5549
 6058TIP3   OH239732   0.871   4.883   0.098  0.3754 -0.2231 -0.1364
 6058TIP3    H139733   0.934   4.863   0.029  2.0890  4.1331 -0.1567
 6058TIP3    H239734   0.918   4.869   0.179 -0.3991 -1.7652  0.0761
 6059TIP3   OH239735   4.765   3.673   0.370 -0.0875 -0.3363 -0.3708
 6059TIP3    H139736   4.798   3.739   0.432 -0.9987  3.6297 -3.6389
 6059TIP3    H239737   4.670   3.675   0.381 -0.1389 -0.9550 -0.6705
 6060TIP3   OH239738   2.775   4.235   2.355 -0.0256  0.6882 -0.2958
 6060TIP3    H139739   2.699   4.205   2.404 -0.6384  0.2559 -1.4852
 6060TIP3    H239740   2.845   4.241   2.421 -0.9946  0.7891  0.7447
 6061TIP3   OH239741   3.661   6.033   8.120  0.5253  0.0440 -0.0978
 6061TIP3    H139742   3.697   6.025   8.208  0.1998  0.9569  0.1266
 6061TIP3    H239743   3.720   5.981   8.065  0.7305 -0.5255  0.6525
 6062TIP3   OH239744   2.558   1.874   2.489 -0.0092 -0.0159 -0.0230
 6062TIP3    H139745   2.632   1.822   2.458 -0.4721 -1.0797  0.5990
 6062TIP3    H239746   2.593   1.963   2.495 -0.1288  0.5450 -4.4344
 6063TIP3   OH239747   4.694   4.611   8.375 -0.7548 -0.4839 -0.1426
 6063TIP3    H139748   4.734   4.627   8.289 -0.0366  1.0208  0.4447
 6063TIP3    H239749   4.682   4.698   8.412  0.8384 -1.1580  2.1404
 6064TIP3   OH239750   0.444   5.151   0.448 -0.2558  0.1070 -0.3922
 6064TIP3    H139751   0.483   5.180   0.365 -0.4682  3.0383  0.4583
 6064TIP3    H239752   0.504   5.083   0.480 -0.0071 -0.8797 -2.7400
 6065TIP3   OH239753   0.614   4.082   1.705 -0.0450  0.2543  0.0965
 6065TIP3    H139754   0.598   4.112   1.794  0.9471 -0.7706  0.6514
 6065TIP3    H239755   0.706   4.055   1.705 -0.3807 -1.0004 -0.8533
 6066TIP3   OH239756   4.395   2.749   0.093  0.2140  0.0450 -0.2884
 6066TIP3    H139757   4.361   2.763   0.181  3.0880  2.0020  0.6576
 6066TIP3    H239758   4.332   2.794   0.036 -0.7681  0.2559  0.9198
 6067TIP3   OH239759   3.176   5.021   1.657  0.0017 -0.2168 -0.2525
 6067TIP3    H139760   3.089   5.018   1.696  0.1293  1.4244  0.2324
 6067TIP3    H239761   3.236   5.033   1.731  0.4460  0.7578 -0.7537
 6068TIP3   OH239762   6.614   3.949   2.393 -0.5482 -0.2179 -0.1275
 6068TIP3    H139763   6.667   3.919   2.466 -1.2529 -1.7162 -0.1970
 6068TIP3    H239764   6.527   3.963   2.431 -0.5949  0.3383 -0.4178
 6069TIP3   OH239765   3.206   2.350   8.399 -0.6825  0.0106  0.1094
 6069TIP3    H139766   3.289   2.340   8.353  1.1367  1.0533  2.8613
 6069TIP3    H239767   3.170   2.262   8.404  0.9239 -0.6891 -0.0960
 6070TIP3   OH239768   5.633   5.868   0.044  0.4134 -0.8381  0.2306
 6070TIP3    H139769   5.656   5.950   0.086  3.3595 -2.0344  1.1725
 6070TIP3    H239770   5.698   5.856  -0.025  0.8508 -2.9176  0.9164
 6071TIP3   OH239771   2.188   4.496   0.001 -1.0322 -0.3859 -0.4128
 6071TIP3    H139772   2.259   4.540  -0.045 -0.8760 -0.3709 -0.1588
 6071TIP3    H239773   2.232   4.440   0.065 -1.2781  0.4579  0.5082
 6072TIP3   OH239774   4.111   4.620   7.463 -0.0964 -0.0335  0.6892
 6072TIP3    H139775   4.190   4.663   7.431  1.0774 -1.7431  1.1527
 6072TIP3    H239776   4.132   4.526   7.462 -2.3331 -0.6054  0.2493
 6073TIP3   OH239777   5.644   2.073   0.518  0.0202  0.1195  0.4624
 6073TIP3    H139778   5.606   2.006   0.462  1.3718  0.6485 -1.1648
 6073TIP3    H239779   5.604   2.155   0.490  0.9125  0.4256  0.0348
 6074TIP3   OH239780   3.529   1.108   3.333  0.7096 -0.0693  0.2933
 6074TIP3    H139781   3.525   1.048   3.407  0.1713  0.1893  0.4778
 6074TIP3    H239782   3.511   1.194   3.371 -3.6288 -0.3254 -0.6287
 6075TIP3   OH239783   4.886   2.544   8.547 -0.0081  0.0641  0.3194
 6075TIP3    H139784   4.862   2.567   8.457  1.7688  2.1998  0.3347
 6075TIP3    H239785   4.810   2.572   8.599 -0.3380  0.3880 -0.3179
 6076TIP3   OH239786   3.024   1.303   0.294  0.2640 -0.5786  0.0609
 6076TIP3    H139787   3.065   1.272   0.213  0.2720 -0.2150 -0.0759
 6076TIP3    H239788   3.007   1.223   0.344 -0.0724 -0.8369 -0.4539
 6077TIP3   OH239789   3.129   5.430   1.649 -0.1030 -0.5282  0.0716
 6077TIP3    H139790   3.128   5.437   1.745 -0.2739  0.2654  0.0201
 6077TIP3    H239791   3.191   5.359   1.630  0.0434 -0.5877  0.7601
 6078TIP3   OH239792   6.301   3.148   1.334 -0.2516  0.2254  0.0972
 6078TIP3    H139793   6.240   3.179   1.401 -0.9156  0.0058 -0.4007
 6078TIP3    H239794   6.246   3.132   1.257  0.3560 -0.4603 -0.2033
 6079TIP3   OH239795   1.869   4.233   1.829  0.6214 -0.0068 -0.0510
 6079TIP3    H139796   1.870   4.171   1.756 -0.2314 -1.2329  0.9490
 6079TIP3    H239797   1.827   4.311   1.793 -2.9946 -1.7690 -0.0168
 6080TIP3   OH239798   1.196   1.739   0.950  0.2885  0.2960 -0.4236
 6080TIP3    H139799   1.169   1.716   0.861 -0.5975  1.6851 -0.5355
 6080TIP3    H239800   1.276   1.790   0.939 -0.4682  1.5004 -0.5389
 6081TIP3   OH239801   3.276   3.032   2.245  0.1369 -0.3971  0.1636
 6081TIP3    H139802   3.182   3.042   2.257  0.1527  0.3351 -0.2480
 6081TIP3    H239803   3.285   2.965   2.177 -0.0820 -0.5576  0.2936
 6082TIP3   OH239804   6.695   5.102   2.042  0.1191  1.0833  0.4439
 6082TIP3    H139805   6.670   5.010   2.043 -1.0909  1.4031  0.8317
 6082TIP3    H239806   6.631   5.146   2.098 -1.0378  2.5809 -1.8710
 6083TIP3   OH239807   3.582   3.569   0.546  0.3983 -0.0935  0.0153
 6083TIP3    H139808   3.592   3.618   0.465  0.1025  1.4703  0.8763
 6083TIP3    H239809   3.622   3.484   0.528 -0.3955 -0.0921 -2.0101
 6084TIP3   OH239810   0.736   2.380   0.720  0.1295  0.2004 -0.0454
 6084TIP3    H139811   0.815   2.433   0.725  0.2899 -0.0264 -0.1915
 6084TIP3    H239812   0.766   2.293   0.694 -0.3046  0.4523 -1.4775
 6085TIP3   OH239813   1.601   6.597   1.911 -0.0518 -0.6631  0.5284
 6085TIP3    H139814   1.668   6.612   1.977  1.7078 -1.5800 -0.9585
 6085TIP3    H239815   1.646   6.549   1.841 -1.8508  0.0914 -1.2564
 6086TIP3   OH239816   0.695   5.910   0.147  0.3772  0.2291  0.0523
 6086TIP3    H139817   0.605   5.877   0.144  0.0678  0.9189  1.1420
 6086TIP3    H239818   0.746   5.839   0.186  0.0686  0.3197  0.6205
 6087TIP3   OH239819   1.296   4.742   0.354 -0.0121 -0.4286  0.1014
 6087TIP3    H139820   1.227   4.689   0.393  0.3518 -1.1536 -0.2112
 6087TIP3    H239821   1.326   4.798   0.425  0.3341 -1.4190  0.7575
 6088TIP3   OH239822   2.122   4.794   0.878 -0.4777  0.1121 -0.0369
 6088TIP3    H139823   2.099   4.731   0.809  1.5598 -0.8901  0.1478
 6088TIP3    H239824   2.058   4.777   0.947 -1.2003 -0.3613 -0.7923
 6089TIP3   OH239825   5.243   4.163   1.513 -0.1284 -0.0925  0.0054
 6089TIP3    H139826   5.233   4.223   1.439  1.3050  1.6336  1.1222
 6089TIP3    H239827   5.305   4.097   1.483  0.2107  0.4290 -0.4543
 6090TIP3   OH239828   5.788   0.452   0.398 -0.3994  0.3822 -0.0241
 6090TIP3    H139829   5.708   0.493   0.431 -1.1463  1.2296 -2.6503
 6090TIP3    H239830   5.845   0.526   0.375  0.0383 -0.1446 -0.6663
 6091TIP3   OH239831   3.436   5.670   0.283  0.4965 -0.2031  0.1193
 6091TIP3    H139832   3.531   5.657   0.287  0.2485 -2.1111  0.7521
 6091TIP3    H239833   3.399   5.583   0.297 -1.3711  0.5488  0.1671
 6092TIP3   OH239834   5.773   0.059   1.545  0.1735 -0.0568  0.7450
 6092TIP3    H139835   5.726  -0.020   1.519  1.6919 -0.6567 -0.3743
 6092TIP3    H239836   5.721   0.096   1.616 -1.2990 -1.3143  0.3798
 6093TIP3   OH239837   0.790   6.369   0.335  0.2356 -0.2328  0.1461
 6093TIP3    H139838   0.711   6.418   0.358 -1.5430  0.6422 -5.9932
 6093TIP3    H239839   0.862   6.420   0.373 -1.9344  1.8186  1.7943
 6094TIP3   OH239840   5.963   4.375   1.880 -0.1985  0.8177 -0.5769
 6094TIP3    H139841   5.886   4.402   1.931 -1.2632  1.7780 -2.5449
 6094TIP3    H239842   6.036   4.420   1.922 -0.9190  1.0653  0.4779
 6095TIP3   OH239843   5.776   2.322   1.112  0.0451  0.4087  0.2090
 6095TIP3    H139844   5.769   2.378   1.189 -0.0298  1.6496 -0.6650
 6095TIP3    H239845   5.868   2.326   1.088  0.5135 -1.6940  1.4343
 6096TIP3   OH239846   2.439   6.851   2.064 -0.3541  0.1539 -0.1752
 6096TIP3    H139847   2.525   6.885   2.087 -0.5070  0.1913  0.3572
 6096TIP3    H239848   2.386   6.866   2.142 -0.9138  0.3703 -0.5953
 6097TIP3   OH239849   5.154   1.293   3.091 -0.1313  0.7842 -0.0859
 6097TIP3    H139850   5.069   1.337   3.102 -0.6702 -0.8532  3.9890
 6097TIP3    H239851   5.131   1.201   3.077  1.0325  0.7602 -2.2250
 6098TIP3   OH239852   5.643   4.022   1.128  0.1949  0.1349 -0.4734
 6098TIP3    H139853   5.569   4.076   1.155  0.0020 -0.3739  0.0428
 6098TIP3    H239854   5.604   3.952   1.077  0.4559  0.5379 -1.2332
 6099TIP3   OH239855   5.159   4.204   2.229  0.1920 -0.2936  0.6614
 6099TIP3    H139856   5.200   4.120   2.250  1.0152  0.2107  1.1494
 6099TIP3    H239857   5.151   4.203   2.133  1.2748 -0.4554  0.5581
 6100TIP3   OH239858   3.805   5.814   7.968 -0.4515  0.3881 -1.1115
 6100TIP3    H139859   3.759   5.861   7.898  0.0449  1.4889 -0.7142
 6100TIP3    H239860   3.872   5.764   7.923 -2.0806 -1.3653 -1.7260
 6101TIP3   OH239861   1.266   5.815   0.017 -0.0436 -0.1057  0.4053
 6101TIP3    H139862   1.336   5.852   0.070 -0.1218 -0.7991  1.0000
 6101TIP3    H239863   1.202   5.782   0.081 -0.4691 -0.3162 -0.1203
 6102TIP3   OH239864   1.338   6.196   2.417 -0.2413 -0.3610 -0.2699
 6102TIP3    H139865   1.351   6.195   2.512  0.5229 -0.7407 -0.3763
 6102TIP3    H239866   1.246   6.172   2.405  0.0586 -1.9123  0.3047
 6103TIP3   OH239867   6.853   6.708   2.316 -0.4088 -0.6686 -0.0387
 6103TIP3    H139868   6.943   6.708   2.285 -0.4859 -0.0782 -0.2820
 6103TIP3    H239869   6.805   6.758   2.250 -0.4571  1.2374  1.3606
 6104TIP3   OH239870   1.936   6.275   2.427 -0.0616 -0.2406  0.0775
 6104TIP3    H139871   1.903   6.341   2.367 -0.9969  0.5542  1.3923
 6104TIP3    H239872   1.880   6.283   2.504  1.3979 -0.8640  1.2606
 6105TIP3   OH239873   2.784   5.269   0.760  0.6966  0.4966 -0.1680
 6105TIP3    H139874   2.750   5.180   0.766  3.7925 -0.7466  0.8947
 6105TIP3    H239875   2.714   5.318   0.717 -0.6072 -2.7299 -2.1526
 6106TIP3   OH239876   0.158   1.902   2.239 -0.6836 -0.3924  0.2939
 6106TIP3    H139877   0.160   1.812   2.207  0.5619 -0.5392  0.7315
 6106TIP3    H239878   0.249   1.921   2.264 -1.1667  0.5070  1.4888
 6107TIP3   OH239879   4.800   0.528   8.181  0.3623 -0.3018 -0.0325
 6107TIP3    H139880   4.794   0.499   8.090 -1.9664 -3.1774  0.8854
 6107TIP3    H239881   4.894   0.527   8.200  1.1764  2.7073 -2.9408
 6108TIP3   OH239882   4.779   5.826   2.590  0.0411 -0.0622  0.6782
 6108TIP3    H139883   4.741   5.904   2.629 -1.1077  0.5806 -1.5991
 6108TIP3    H239884   4.874   5.838   2.598 -0.0156  2.5660 -1.3498
 6109TIP3   OH239885   3.717   0.722   3.524 -0.0726 -0.5956 -0.5023
 6109TIP3    H139886   3.669   0.692   3.448  1.3409  0.8117 -2.0524
 6109TIP3    H239887   3.776   0.650   3.545 -0.1625 -0.8299 -1.0354
 6110TIP3   OH239888   6.844   1.811   8.492 -0.1002 -0.2376 -1.0786
 6110TIP3    H139889   6.754   1.840   8.478 -0.4798 -1.0709 -0.4026
 6110TIP3    H239890   6.839   1.749   8.565  1.2592  1.0798  0.2267
 6111TIP3   OH239891   2.473   4.379   8.063 -0.5064  0.1746 -0.3712
 6111TIP3    H139892   2.561   4.406   8.035 -0.6888  0.2985 -0.8180
 6111TIP3    H239893   2.477   4.387   8.159  0.7565 -2.2207 -0.1536
 6112TIP3   OH239894   3.145   2.870   3.562 -0.9383 -0.9023 -0.2180
 6112TIP3    H139895   3.083   2.866   3.489 -0.2989  0.4110 -0.8585
 6112TIP3    H239896   3.220   2.818   3.532 -1.8565 -2.8740  0.7378
 6113TIP3   OH239897   2.745   5.522   0.967  0.5027  0.2678  0.0057
 6113TIP3    H139898   2.710   5.563   1.046  1.0245  1.6508 -0.4514
 6113TIP3    H239899   2.831   5.562   0.955  1.2156 -1.2892 -0.2470
 6114TIP3   OH239900   6.539   0.593   2.358  0.6302 -0.0449 -0.1199
 6114TIP3    H139901   6.526   0.667   2.298 -2.2410 -0.8576 -0.6837
 6114TIP3    H239902   6.464   0.536   2.341  0.5890 -1.1441  3.1034
 6115TIP3   OH239903   1.240   6.081   7.517 -0.2966  0.5773  0.5235
 6115TIP3    H139904   1.293   6.084   7.438  1.2375 -1.4453  1.3722
 6115TIP3    H239905   1.301   6.053   7.586 -1.7884  1.2692  2.2239
 6116TIP3   OH239906   4.196   1.018   1.431  0.3921  0.0255 -0.1627
 6116TIP3    H139907   4.284   0.981   1.430  0.7320  0.7395  0.8712
 6116TIP3    H239908   4.177   1.030   1.524 -0.6066  0.3107 -0.3985
 6117TIP3   OH239909   1.223   0.545   4.057 -0.8040  0.3592  0.3329
 6117TIP3    H139910   1.220   0.600   3.979  1.0411  0.0175 -0.0208
 6117TIP3    H239911   1.212   0.456   4.024 -0.5357  0.2558  0.5219
 6118TIP3   OH239912   3.135   1.971   0.359 -0.3033 -0.6023 -0.4622
 6118TIP3    H139913   3.221   1.942   0.328 -0.3670 -0.5009 -0.7400
 6118TIP3    H239914   3.153   2.050   0.409 -0.0679 -1.3725  0.7245
 6119TIP3   OH239915   5.286   3.258   0.208  0.1573 -0.9643 -0.0797
 6119TIP3    H139916   5.259   3.167   0.192 -1.6234 -0.1858 -1.9333
 6119TIP3    H239917   5.366   3.268   0.157  0.7007 -1.6329  0.6146
 6120TIP3   OH239918   6.624   5.331   0.913 -0.6854 -0.0639  0.0301
 6120TIP3    H139919   6.702   5.353   0.862 -0.7844  0.0662 -0.0657
 6120TIP3    H239920   6.627   5.391   0.988  0.3329 -1.3305  1.0646
 6121TIP3   OH239921   4.415   3.821   2.854 -0.5618  0.4148  0.4499
 6121TIP3    H139922   4.479   3.751   2.839  0.9566  1.6894  0.7888
 6121TIP3    H239923   4.451   3.897   2.809 -0.6739  1.7898  2.5490
 6122TIP3   OH239924   4.126   6.074   0.184 -0.2390 -0.4384 -0.0110
 6122TIP3    H139925   4.140   6.136   0.255 -0.6487  0.6172 -0.8306
 6122TIP3    H239926   4.194   6.094   0.120 -0.6629 -0.5177 -0.4941
 6123TIP3   OH239927   5.629   2.622   7.238  0.0085  0.0832  0.5465
 6123TIP3    H139928   5.582   2.698   7.273 -0.1500  0.5030 -0.5367
 6123TIP3    H239929   5.562   2.572   7.191  0.2897 -0.2569  0.5028
 6124TIP3   OH239930   5.822   0.522   7.777  0.0162 -0.0957 -0.0966
 6124TIP3    H139931   5.805   0.479   7.693  0.6561 -0.0221 -0.2688
 6124TIP3    H239932   5.909   0.560   7.767  0.7285 -1.3277  1.1224
 6125TIP3   OH239933   1.000   5.081   7.306  0.2402 -0.1614 -0.0683
 6125TIP3    H139934   1.065   5.055   7.241  1.4495 -0.4537  1.2086
 6125TIP3    H239935   0.933   5.129   7.256  0.8230 -0.8810 -1.5886
 6126TIP3   OH239936   3.597   4.303   0.997 -0.5164  0.4509 -0.1633
 6126TIP3    H139937   3.606   4.215   0.958  0.2842  1.3311 -2.1116
 6126TIP3    H239938   3.563   4.287   1.085  1.3136 -1.9581  0.2325
 6127TIP3   OH239939   5.895   1.228   0.795  0.4589  0.3258  0.0299
 6127TIP3    H139940   5.879   1.292   0.725 -1.8678 -0.5811 -0.3574
 6127TIP3    H239941   5.808   1.206   0.827  1.3459 -1.0764  1.6062
 6128TIP3   OH239942   0.143   5.726   0.620 -0.1601 -0.5354  0.3317
 6128TIP3    H139943   0.169   5.816   0.602 -0.2972 -0.3236  1.1339
 6128TIP3    H239944   0.054   5.733   0.657  0.7595 -0.7257  2.8111
 6129TIP3   OH239945   2.888   4.566   2.864  0.1825 -0.2492 -0.7749
 6129TIP3    H139946   2.906   4.633   2.798 -0.9234  0.1557 -0.6722
 6129TIP3    H239947   2.884   4.613   2.947  0.1543 -0.5516 -0.6033
 6130TIP3   OH239948   3.300   0.620   0.868 -0.0271  0.0010  0.4399
 6130TIP3    H139949   3.328   0.529   0.879  2.9575  0.8852  1.0511
 6130TIP3    H239950   3.257   0.621   0.783  1.2606 -1.7063 -0.3012
 6131TIP3   OH239951   4.666   6.360   2.898  0.0799  0.7714  0.3386
 6131TIP3    H139952   4.670   6.335   2.990 -0.4304 -0.6312  0.0146
 6131TIP3    H239953   4.703   6.448   2.895  0.1383  0.8291  1.8698
 6132TIP3   OH239954   5.457   3.119   8.219  0.0120 -0.6214 -0.0838
 6132TIP3    H139955   5.487   3.033   8.246  1.2494 -0.8548 -1.9872
 6132TIP3    H239956   5.505   3.137   8.138  0.5657  2.3107  0.7925
 6133TIP3   OH239957   4.371   4.187   2.911  0.8990 -0.5775 -0.1791
 6133TIP3    H139958   4.280   4.209   2.929  0.9646 -1.0306  0.8125
 6133TIP3    H239959   4.396   4.243   2.838 -0.1688 -0.4392 -0.4471
 6134TIP3   OH239960   1.522   0.992   2.281  0.1082 -0.2918 -0.5017
 6134TIP3    H139961   1.563   0.947   2.355  1.6042 -1.5151 -1.9845
 6134TIP3    H239962   1.429   0.971   2.288  0.3954 -1.3371  0.3810
 6135TIP3   OH239963   0.967   0.947   0.903 -0.2761 -0.1272 -0.8218
 6135TIP3    H139964   0.921   0.999   0.969  1.3919  0.9814 -0.4446
 6135TIP3    H239965   1.059   0.972   0.913  0.3016 -1.5151 -2.1676
 6136TIP3   OH239966   4.040   4.619   3.590 -0.2553 -0.0779  0.7223
 6136TIP3    H139967   4.003   4.653   3.509 -3.1808 -1.7951  1.1801
 6136TIP3    H239968   4.035   4.692   3.652  1.7583  1.1650 -0.4700
 6137TIP3   OH239969   2.448   3.497   1.424  0.5759 -0.0959  0.1196
 6137TIP3    H139970   2.535   3.458   1.415  0.5639 -0.0070 -0.4660
 6137TIP3    H239971   2.391   3.423   1.443  0.1901 -0.8058 -3.1026
 6138TIP3   OH239972   4.183   4.941   2.340  0.0650 -0.4705 -0.0259
 6138TIP3    H139973   4.230   4.993   2.405 -0.6319 -0.0861  0.1809
 6138TIP3    H239974   4.129   4.881   2.392 -1.7600  0.9492 -0.1760
 6139TIP3   OH239975   4.387   1.039   2.946  0.4618 -0.3946 -0.0689
 6139TIP3    H139976   4.418   1.104   3.009 -3.6517  2.1798 -0.2835
 6139TIP3    H239977   4.400   1.080   2.861 -1.9016  0.2104 -0.2255
 6140TIP3   OH239978   0.497   2.689   2.924 -0.4095  0.3211  0.4464
 6140TIP3    H139979   0.411   2.702   2.964 -0.3638 -1.4988  1.2487
 6140TIP3    H239980   0.503   2.595   2.910  1.0567  0.5292 -0.5533
 6141TIP3   OH239981   5.828   3.702   0.039 -0.0748  0.2596  0.3950
 6141TIP3    H139982   5.782   3.750   0.108 -0.2042 -0.4923  0.8492
 6141TIP3    H239983   5.871   3.630   0.085  0.6123  0.2845 -0.1865
 6142TIP3   OH239984   1.836   2.659   3.265 -0.5674 -0.1932  0.2373
 6142TIP3    H139985   1.743   2.676   3.245 -1.4793 -1.8002  2.6573
 6142TIP3    H239986   1.861   2.590   3.204 -1.0034  0.1190 -0.3088
 6143TIP3   OH239987   5.286   4.984   8.451  0.5877  0.4784  0.5468
 6143TIP3    H139988   5.295   4.892   8.477 -0.6078  0.0297 -0.5732
 6143TIP3    H239989   5.193   5.003   8.461  0.5910  1.1477 -0.5951
 6144TIP3   OH239990   4.359   0.702   1.326  0.1030  0.0731 -0.4014
 6144TIP3    H139991   4.432   0.716   1.265 -0.4915 -0.2816 -1.2042
 6144TIP3    H239992   4.361   0.779   1.383  2.0661 -0.6317  0.5970
 6145TIP3   OH239993   5.579   4.548   0.315 -0.3603  0.8165  0.6910
 6145TIP3    H139994   5.637   4.517   0.246 -0.0350  2.6607  0.0818
 6145TIP3    H239995   5.590   4.643   0.316  0.1495  0.8486  3.7273
 6146TIP3   OH239996   0.991   5.452   2.464 -0.1557  0.4624 -0.3201
 6146TIP3    H139997   0.968   5.475   2.555 -2.5223 -0.4136 -0.6329
 6146TIP3    H239998   1.086   5.462   2.461  0.0655  0.1178  2.3781
 6147TIP3   OH239999   5.348   6.554   0.379  0.1557 -0.1481  0.1510
 6147TIP3    H140000   5.439   6.582   0.378 -0.3000  1.5176 -1.3026
 6147TIP3    H240001   5.349   6.467   0.339  1.1143 -0.2391  0.3508
 6148TIP3   OH240002   5.514   0.334   1.685 -0.3685  0.5493  0.0652
 6148TIP3    H140003   5.485   0.329   1.594 -1.8164  0.4709  0.5052
 6148TIP3    H240004   5.524   0.242   1.712 -0.1428  0.5701  0.0590
 6149TIP3   OH240005   2.772   0.601   1.810  0.3518  0.1500 -0.3159
 6149TIP3    H140006   2.725   0.536   1.758  0.4214  0.2779 -0.5398
 6149TIP3    H240007   2.864   0.585   1.791  0.5476 -1.3196  1.5391
 6150TIP3   OH240008   3.356   4.045   1.031  0.0825 -0.0221 -0.0082
 6150TIP3    H140009   3.262   4.056   1.046 -0.1770 -3.4063  1.9248
 6150TIP3    H240010   3.397   4.070   1.114  0.4277 -2.0052  0.4848
 6151TIP3   OH240011   4.669   3.916   2.015  0.1460 -0.1307  0.1956
 6151TIP3    H140012   4.627   3.892   1.933  0.6095 -0.2021 -0.0263
 6151TIP3    H240013   4.714   3.998   1.997 -1.9881  1.3229  1.1398
 6152TIP3   OH240014   0.376   6.890   1.216 -0.9656  0.1359  0.1815
 6152TIP3    H140015   0.357   6.894   1.123  1.6781  0.4533 -0.4339
 6152TIP3    H240016   0.438   6.817   1.224  0.7658  1.6328  1.2372
 6153TIP3   OH240017   1.080   4.016   8.416  0.3189 -0.2527  0.3763
 6153TIP3    H140018   1.120   4.039   8.500 -0.0898 -0.4386  0.6249
 6153TIP3    H240019   1.154   3.996   8.359  0.7511  2.1940 -0.0262
 6154TIP3   OH240020   3.554   0.696   0.616  0.1026 -0.0392  0.0541
 6154TIP3    H140021   3.500   0.617   0.616  0.5456 -0.3563  1.0370
 6154TIP3    H240022   3.552   0.726   0.525 -1.4569 -0.2222 -0.0050
 6155TIP3   OH240023   5.798   4.056   2.483 -0.1066 -0.0491  0.1931
 6155TIP3    H140024   5.782   4.002   2.561 -0.8285  1.7409  1.3669
 6155TIP3    H240025   5.872   4.111   2.507  0.7890 -0.6381 -1.0857
 6156TIP3   OH240026   5.222   0.814   0.816 -0.4518  0.2484  0.1947
 6156TIP3    H140027   5.227   0.824   0.911 -0.2533  1.1197  0.1033
 6156TIP3    H240028   5.133   0.782   0.800 -0.8960  1.2499  0.5914
 6157TIP3   OH240029   5.498   4.426   8.553  0.2810 -0.6394  0.0053
 6157TIP3    H140030   5.470   4.382   8.633 -2.0595 -0.9460 -0.9155
 6157TIP3    H240031   5.477   4.365   8.483  1.4836 -0.0232 -0.9332
 6158TIP3   OH240032   5.636   3.989   0.705 -0.0726  0.2189  0.0307
 6158TIP3    H140033   5.717   4.037   0.721 -0.7798  1.3780  0.1585
 6158TIP3    H240034   5.646   3.908   0.755  1.5160 -0.2230 -0.9263
 6159TIP3   OH240035   3.826   0.388   7.984  0.2772 -0.1102 -0.5689
 6159TIP3    H140036   3.877   0.354   8.058 -0.2192  0.9642  0.2918
 6159TIP3    H240037   3.840   0.324   7.914  0.5797 -1.2707  0.5175
 6160TIP3   OH240038   0.527   1.488   8.209 -0.0817  0.0759  0.3950
 6160TIP3    H140039   0.470   1.427   8.163 -0.6868  0.1684  1.0098
 6160TIP3    H240040   0.615   1.466   8.177 -0.6288  1.6508 -2.5431
 6161TIP3   OH240041   1.057   5.762   1.824 -0.6420  0.2124  0.2329
 6161TIP3    H140042   1.056   5.795   1.914  1.6658  0.3525  0.2710
 6161TIP3    H240043   1.132   5.703   1.821  1.1304  2.3580 -2.2464
 6162TIP3   OH240044   3.074   4.829   0.897  0.1251  0.4848  0.3041
 6162TIP3    H140045   3.038   4.875   0.973 -0.5377  1.4456 -0.5728
 6162TIP3    H240046   3.004   4.769   0.870 -0.8610  2.2886 -1.3458
 6163TIP3   OH240047   3.348   1.197   0.246 -0.2502 -1.0016 -0.0754
 6163TIP3    H140048   3.419   1.217   0.186 -1.0940 -0.4793 -0.9307
 6163TIP3    H240049   3.389   1.193   0.333  0.6219  0.3727 -0.4088
 6164TIP3   OH240050   1.650   6.158   2.130  0.1935 -0.1968 -0.1673
 6164TIP3    H140051   1.607   6.178   2.047 -0.0686  0.6868  0.1712
 6164TIP3    H240052   1.682   6.068   2.119 -0.6572 -0.4307 -0.8731
 6165TIP3   OH240053   3.258   6.036   0.091 -0.5174  0.2830  0.6742
 6165TIP3    H140054   3.346   6.000   0.075 -1.1566 -1.4552  0.8151
 6165TIP3    H240055   3.230   5.995   0.173 -2.2415 -0.8368 -0.4044
 6166TIP3   OH240056   4.262   2.534   8.249 -0.0041  0.2293  0.2759
 6166TIP3    H140057   4.183   2.496   8.287 -0.1209 -1.3697 -1.4624
 6166TIP3    H240058   4.327   2.531   8.320 -1.0054  0.0391  1.2152
 6167TIP3   OH240059   6.115   6.557   2.293  0.4505 -0.1123  0.4797
 6167TIP3    H140060   6.208   6.550   2.271  0.7013 -0.1144  1.5162
 6167TIP3    H240061   6.102   6.650   2.312  0.3221 -0.1762  0.7024
 6168TIP3   OH240062   1.299   5.395   1.060 -0.1082  0.5262  0.2667
 6168TIP3    H140063   1.324   5.308   1.091 -2.1797 -1.1479 -2.3526
 6168TIP3    H240064   1.382   5.444   1.058  1.4782 -1.9537  0.0779
 6169TIP3   OH240065   6.353   0.635   7.566 -0.3733  0.1177 -0.6500
 6169TIP3    H140066   6.362   0.590   7.481  0.7849 -1.1698  0.0898
 6169TIP3    H240067   6.432   0.689   7.572  0.0303 -0.5203 -0.0187
 6170TIP3   OH240068   4.815   1.121   8.218 -0.2648 -0.3807  0.3726
 6170TIP3    H140069   4.752   1.193   8.225 -1.3763 -1.2733 -0.1541
 6170TIP3    H240070   4.778   1.052   8.273 -0.9352 -1.7311 -1.6803
 6171TIP3   OH240071   0.988   1.827   1.967  0.3321 -0.5748 -0.4031
 6171TIP3    H140072   1.043   1.755   1.999 -0.1562 -0.7828 -0.0141
 6171TIP3    H240073   1.038   1.906   1.986  0.3562 -0.7416  0.2357
 6172TIP3   OH240074   3.452   3.673   8.549 -0.0017 -0.1257 -0.0660
 6172TIP3    H140075   3.523   3.710   8.496 -1.3123  1.9351 -0.4802
 6172TIP3    H240076   3.461   3.578   8.537  2.5155  0.0652 -0.2750
 6173TIP3   OH240077   6.180   2.307   8.356  0.8161  0.0867  0.1887
 6173TIP3    H140078   6.208   2.364   8.428  0.8319 -0.3907  0.5658
 6173TIP3    H240079   6.200   2.357   8.277 -0.6737  1.2977  0.5345
 6174TIP3   OH240080   3.212   1.237   0.002  0.5270  0.3613  0.1114
 6174TIP3    H140081   3.118   1.226   0.013  0.3827 -1.2884 -2.1893
 6174TIP3    H240082   3.249   1.213   0.088 -0.9603 -2.6046  0.0386
 6175TIP3   OH240083   2.146   2.977   2.923 -0.7918 -0.3591 -0.2319
 6175TIP3    H140084   2.098   3.059   2.934 -0.1797  0.0129 -0.2508
 6175TIP3    H240085   2.165   2.972   2.830 -1.0944 -0.6822 -0.2790
 6176TIP3   OH240086   2.545   6.379   0.286  0.2273  0.1138  0.0706
 6176TIP3    H140087   2.480   6.422   0.230 -0.6650 -0.9454  0.2598
 6176TIP3    H240088   2.571   6.301   0.236  1.2200  0.4135  0.0908
 6177TIP3   OH240089   1.173   5.552   0.619  0.1260 -0.5360 -0.1334
 6177TIP3    H140090   1.243   5.610   0.648 -0.3079 -0.9442  1.8477
 6177TIP3    H240091   1.186   5.545   0.524  0.1230  2.8381 -0.4845
 6178TIP3   OH240092   2.827   6.516   1.790 -0.3941 -0.0040 -0.1840
 6178TIP3    H140093   2.800   6.593   1.840  1.0936  0.5743 -0.2164
 6178TIP3    H240094   2.902   6.546   1.738 -0.8043 -1.0580 -1.4373
 6179TIP3   OH240095   3.684   0.450   8.214  0.3358  0.7239 -0.0952
 6179TIP3    H140096   3.752   0.457   8.147  0.5125  2.6567  0.2253
 6179TIP3    H240097   3.651   0.360   8.206  1.9446  0.1900 -1.1908
 6180TIP3   OH240098   6.811   5.700   2.898 -0.1808  0.4736  0.0757
 6180TIP3    H140099   6.845   5.623   2.945  0.2710  0.9182  0.4851
 6180TIP3    H240100   6.720   5.708   2.928  0.2120  0.9776  1.1711
 6181TIP3   OH240101   0.883   2.159   7.479 -0.2862  0.0020  0.3791
 6181TIP3    H140102   0.937   2.212   7.420 -0.0765 -0.9170 -0.2902
 6181TIP3    H240103   0.795   2.194   7.469  0.0845  1.1880  1.0935
 6182TIP3   OH240104   2.300   3.833   8.212  0.3184  0.2750  0.3114
 6182TIP3    H140105   2.352   3.892   8.157 -0.7880  2.6332  1.6484
 6182TIP3    H240106   2.306   3.871   8.299 -0.4265 -1.6717  1.2574
 6183TIP3   OH240107   4.784   4.548   1.953  0.1985  0.1185 -0.0395
 6183TIP3    H140108   4.796   4.635   1.915  1.3446  0.5691  1.2908
 6183TIP3    H240109   4.720   4.561   2.023  0.5783 -0.0623  0.3374
 6184TIP3   OH240110   5.029   3.922   8.329  0.3416 -0.3021  0.8341
 6184TIP3    H140111   4.934   3.914   8.328  0.3821 -0.8540  0.9081
 6184TIP3    H240112   5.059   3.847   8.380  0.9182 -1.4349 -1.0487
 6185TIP3   OH240113   4.458   5.715   8.415 -0.5775 -0.5850 -0.2099
 6185TIP3    H140114   4.416   5.800   8.404 -0.1156 -0.3249 -0.0147
 6185TIP3    H240115   4.552   5.734   8.408 -0.4887 -1.1472 -0.6087
 6186TIP3   OH240116   5.146   2.993   0.154 -0.5365 -0.3234 -0.6043
 6186TIP3    H140117   5.206   2.978   0.227 -1.7461 -1.1957  0.2483
 6186TIP3    H240118   5.082   2.922   0.160 -1.4420  0.3529 -1.7228
 6187TIP3   OH240119   5.378   3.016   1.921  0.4787  0.2495 -0.7535
 6187TIP3    H140120   5.307   3.021   1.984  0.5679  0.6005 -0.6771
 6187TIP3    H240121   5.375   3.100   1.875  1.4567  0.6698 -0.0804
 6188TIP3   OH240122   0.629   6.562   1.791  0.0677 -0.2901  0.2163
 6188TIP3    H140123   0.627   6.593   1.700  1.7747 -0.6887  0.0130
 6188TIP3    H240124   0.663   6.472   1.784  1.3259  0.0706  1.3222
 6189TIP3   OH240125   4.595   0.530   3.395 -0.4883  0.5043  0.3572
 6189TIP3    H140126   4.663   0.569   3.339  0.0606  0.9626  1.3221
 6189TIP3    H240127   4.538   0.603   3.418  0.2031  0.6404  1.6866
 6190TIP3   OH240128   0.553   6.260   7.869 -0.2582  0.1397  0.0755
 6190TIP3    H140129   0.630   6.210   7.842 -0.6633 -1.2509  1.3379
 6190TIP3    H240130   0.570   6.349   7.840  0.8963 -0.5520 -1.4784
 6191TIP3   OH240131   6.080   3.596   1.398 -0.1525 -0.4111 -0.0469
 6191TIP3    H140132   6.113   3.684   1.379 -0.6289 -0.0860  0.6248
 6191TIP3    H240133   6.150   3.538   1.369  0.3929  0.2101 -0.0002
 6192TIP3   OH240134   4.020   5.209   0.268 -0.4718 -0.0557 -0.1578
 6192TIP3    H140135   4.031   5.187   0.176 -0.8982 -0.6256 -0.0810
 6192TIP3    H240136   4.028   5.304   0.272  1.1069 -0.1505 -0.5574
 6193TIP3   OH240137   0.717   0.407   8.009 -0.4905  0.1448  0.0119
 6193TIP3    H140138   0.644   0.376   7.955 -0.3038  0.2701 -0.3152
 6193TIP3    H240139   0.678   0.422   8.095 -1.6768  3.3948 -0.9182
 6194TIP3   OH240140   4.072   2.712   1.601 -0.2839 -0.3440 -0.2471
 6194TIP3    H140141   4.007   2.740   1.665 -0.0366 -0.0941 -0.1031
 6194TIP3    H240142   4.022   2.690   1.523 -0.5192  0.0810 -0.2154
 6195TIP3   OH240143   1.109   4.506   1.366  0.0299 -0.1166  0.0193
 6195TIP3    H140144   1.081   4.517   1.276  0.9167  0.6506 -0.1723
 6195TIP3    H240145   1.117   4.595   1.401  1.8225 -0.3035  0.1725
 6196TIP3   OH240146   6.402   3.591   2.463  0.3152  0.3812  0.3996
 6196TIP3    H140147   6.384   3.637   2.381 -2.0268 -1.2780 -0.1305
 6196TIP3    H240148   6.390   3.658   2.531 -1.4873  0.9674 -0.4177
 6197TIP3   OH240149   5.126   6.746   0.347 -0.2648  0.2707 -0.2647
 6197TIP3    H140150   5.185   6.819   0.367  0.3988 -0.4939  0.6362
 6197TIP3    H240151   5.185   6.672   0.329 -0.9395 -0.2074 -0.5384
 6198TIP3   OH240152   4.029   5.472   0.329  0.5579 -0.1573 -0.1051
 6198TIP3    H140153   4.097   5.539   0.318  0.8197 -0.0994  1.6464
 6198TIP3    H240154   4.022   5.459   0.423  1.8445 -3.9726 -0.3475
 6199TIP3   OH240155   5.229   6.784   1.692  0.2498 -0.6162  0.0882
 6199TIP3    H140156   5.165   6.727   1.650 -0.5539 -0.8602  1.5711
 6199TIP3    H240157   5.239   6.749   1.780  1.0977  0.4770  0.4600
 6200TIP3   OH240158   3.062   0.863   3.001  0.4059 -0.6487  0.3709
 6200TIP3    H140159   3.154   0.880   2.980  0.2510  0.2657  0.4182
 6200TIP3    H240160   3.033   0.803   2.932  0.6403  0.2183 -0.4994
 6201TIP3   OH240161   3.011   2.952   2.254  0.8170  0.0523 -0.6216
 6201TIP3    H140162   3.040   2.892   2.186 -1.2012 -0.3550 -1.1762
 6201TIP3    H240163   2.937   2.908   2.295  1.9473  0.2936  1.8676
 6202TIP3   OH240164   6.259   4.225   1.085 -0.1524 -0.2672 -0.2439
 6202TIP3    H140165   6.258   4.259   0.996 -0.9955 -1.9628 -0.9329
 6202TIP3    H240166   6.167   4.227   1.113 -0.0304 -0.6397  0.2117
 6203TIP3   OH240167   3.875   0.775   1.506 -0.0250 -0.2754 -0.5342
 6203TIP3    H140168   3.954   0.731   1.476 -0.3401  0.0791 -1.9703
 6203TIP3    H240169   3.855   0.838   1.436 -1.4778 -0.2456 -0.1203
 6204TIP3   OH240170   6.805   0.539   8.394  0.0932  0.2292 -0.8162
 6204TIP3    H140171   6.814   0.551   8.300  2.5791  0.0713 -0.6607
 6204TIP3    H240172   6.812   0.445   8.408 -0.8877  0.1864 -0.4841
 6205TIP3   OH240173   0.537   4.946   8.491 -0.5618  0.3295  0.0018
 6205TIP3    H140174   0.520   4.858   8.524 -3.7639  0.8456  0.0327
 6205TIP3    H240175   0.581   4.932   8.407  1.3467 -1.1545  1.1594
 6206TIP3   OH240176   1.259   6.361   7.757  0.3846 -0.6776 -0.1376
 6206TIP3    H140177   1.294   6.374   7.669 -1.2012  0.7786 -0.6112
 6206TIP3    H240178   1.237   6.449   7.788 -0.9728 -1.3285  0.8890
 6207TIP3   OH240179   4.703   0.028   2.307 -0.6426 -0.0858 -0.0525
 6207TIP3    H140180   4.779   0.075   2.340  0.2972 -1.1851 -0.5523
 6207TIP3    H240181   4.673  -0.025   2.381  0.7445 -1.6587 -0.5388
 6208TIP3   OH240182   5.610   1.199   8.404  0.0631  0.0535  0.0843
 6208TIP3    H140183   5.595   1.150   8.323  1.7883 -0.1636 -0.1339
 6208TIP3    H240184   5.639   1.285   8.374  2.2673 -0.5182  0.4070
 6209TIP3   OH240185   6.866   3.622   2.621  0.1700  0.3314  0.3260
 6209TIP3    H140186   6.781   3.615   2.665 -0.1536  1.4639 -0.0787
 6209TIP3    H240187   6.898   3.709   2.646  1.2116 -0.0919  0.4779
 6210TIP3   OH240188   6.217   3.690   7.526 -0.1315 -0.5227 -0.0456
 6210TIP3    H140189   6.249   3.632   7.595  0.1901  0.5780  0.7651
 6210TIP3    H240190   6.293   3.743   7.502 -1.1771  1.9215  1.6739
 6211TIP3   OH240191   6.406   4.114   8.468 -0.0084 -0.1028  0.1437
 6211TIP3    H140192   6.493   4.122   8.429 -0.0802 -1.1477 -0.2749
 6211TIP3    H240193   6.407   4.028   8.510 -0.5476  0.2471  0.8870
 6212TIP3   OH240194   3.616   4.793   0.995 -0.3017 -1.5591 -0.0798
 6212TIP3    H140195   3.686   4.846   1.033 -1.1773 -1.1926  1.0767
 6212TIP3    H240196   3.662   4.727   0.943  0.8671 -0.8578  0.0116
 6213TIP3   OH240197   6.024   6.746   0.881 -0.3714  0.0988 -0.2320
 6213TIP3    H140198   5.982   6.832   0.882  1.6402  1.1388 -0.3487
 6213TIP3    H240199   5.961   6.689   0.838 -0.7504  2.0684 -2.4807
 6214TIP3   OH240200   3.416   3.726   3.300  0.1350 -0.0516 -0.2665
 6214TIP3    H140201   3.467   3.791   3.250 -2.0680  0.3985 -2.0704
 6214TIP3    H240202   3.474   3.650   3.306  4.1366  2.7542  4.5880
 6215TIP3   OH240203   0.705   4.473   7.984  0.5563  0.5876 -0.4202
 6215TIP3    H140204   0.768   4.403   7.999 -1.3165 -1.7977 -2.6982
 6215TIP3    H240205   0.721   4.501   7.894 -1.0368  0.5061 -0.7564
 6216TIP3   OH240206   4.068   2.154   0.100 -0.2835  0.7132 -0.2864
 6216TIP3    H140207   4.104   2.215   0.035 -2.0644  1.0116 -1.0303
 6216TIP3    H240208   4.041   2.210   0.173 -3.4208  1.1341 -1.6251
 6217TIP3   OH240209   0.389   5.774   1.264  0.0972  0.2807  0.2160
 6217TIP3    H140210   0.374   5.852   1.211 -0.7273  1.6938  2.3852
 6217TIP3    H240211   0.308   5.763   1.314  0.8945 -0.8548  1.3364
 6218TIP3   OH240212   6.259   3.364   1.528 -0.5024  0.4422 -0.4924
 6218TIP3    H140213   6.288   3.330   1.613  0.1823 -0.1343 -0.9537
 6218TIP3    H240214   6.249   3.458   1.543 -1.8209  0.1758  0.6246
 6219TIP3   OH240215   4.013   0.851   1.185  0.2134  0.2776  0.4507
 6219TIP3    H140216   4.013   0.757   1.163  1.8150 -0.2070  2.1814
 6219TIP3    H240217   3.948   0.889   1.127  0.7630 -1.6165 -1.5885
 6220TIP3   OH240218   0.296   4.506   0.732 -0.2883  0.0509  0.8904
 6220TIP3    H140219   0.361   4.484   0.666  0.3437 -1.0870  1.8429
 6220TIP3    H240220   0.251   4.583   0.698 -2.4461 -2.4567 -2.5799
 6221TIP3   OH240221   1.373   2.350   8.337  0.4739 -0.3542 -0.2191
 6221TIP3    H140222   1.376   2.329   8.431  1.2054 -0.8142 -0.3342
 6221TIP3    H240223   1.428   2.428   8.329  2.5409 -1.7509 -0.5930
 6222TIP3   OH240224   5.500   6.318   0.888  0.2621 -0.0288 -0.0095
 6222TIP3    H140225   5.407   6.337   0.894  0.5844  1.6032  0.2881
 6222TIP3    H240226   5.507   6.249   0.822 -1.2663 -1.2160  1.0209
 6223TIP3   OH240227   0.016   6.271   8.504  0.6029  0.0109 -0.3399
 6223TIP3    H140228  -0.074   6.247   8.524  1.2530 -1.8766  0.6265
 6223TIP3    H240229   0.043   6.325   8.579  0.2589  0.6337 -0.6636
 6224TIP3   OH240230   5.703   6.169   8.284  0.0993 -0.2742 -0.7767
 6224TIP3    H140231   5.775   6.233   8.290 -0.1607 -0.1231  2.1739
 6224TIP3    H240232   5.747   6.085   8.271  0.7637 -0.0157 -0.3001
 6225TIP3   OH240233   6.164   0.798   7.840 -0.5623  0.2324 -0.2708
 6225TIP3    H140234   6.140   0.864   7.776 -1.8702  0.7101  0.6681
 6225TIP3    H240235   6.127   0.717   7.806  1.4737 -0.1814 -1.6772
 6226TIP3   OH240236   4.261   2.556   2.343  0.1675 -0.1657  0.1094
 6226TIP3    H140237   4.245   2.648   2.323  0.1830 -0.1435  0.1994
 6226TIP3    H240238   4.205   2.508   2.281  0.3456 -0.1012 -0.1020
 6227TIP3   OH240239   5.212   0.019   3.036 -0.2950 -0.0772 -0.2829
 6227TIP3    H140240   5.152  -0.055   3.025 -0.2725  0.1796 -2.4545
 6227TIP3    H240241   5.299  -0.019   3.027 -0.1879 -0.0872  0.6627
 6228TIP3   OH240242   3.378   5.893   2.792  0.0430 -0.1277 -0.7877
 6228TIP3    H140243   3.418   5.978   2.813  1.2302 -0.2886 -2.2489
 6228TIP3    H240244   3.323   5.911   2.716 -1.1529 -0.3217  0.0089
 6229TIP3   OH240245   3.742   6.534   2.586  0.4452  0.2533  0.1871
 6229TIP3    H140246   3.731   6.442   2.562  0.2779  0.2548  0.2598
 6229TIP3    H240247   3.815   6.535   2.647 -0.3282  0.0172  1.1355
 6230TIP3   OH240248   1.940   5.171   2.313 -0.0263  0.7713  0.0530
 6230TIP3    H140249   2.026   5.205   2.336 -0.3511  0.2108  2.4033
 6230TIP3    H240250   1.920   5.108   2.382 -1.1565 -1.2084 -1.9673
 6231TIP3   OH240251   0.684   0.161   2.919  0.1353  0.5714 -0.2182
 6231TIP3    H140252   0.690   0.156   3.014  1.2962 -0.6841 -0.3313
 6231TIP3    H240253   0.687   0.255   2.900  0.7829  0.8011  0.9236
 6232TIP3   OH240254   5.370   4.477   2.902 -0.6542  0.0033 -0.0683
 6232TIP3    H140255   5.383   4.496   2.994  1.9094 -0.4410 -0.2787
 6232TIP3    H240256   5.426   4.539   2.855 -1.6963  0.0451 -1.3498
 6233TIP3   OH240257   6.599   1.814   2.990 -0.6250 -0.5315 -1.2030
 6233TIP3    H140258   6.578   1.739   3.045 -0.1838  0.1185 -0.1018
 6233TIP3    H240259   6.515   1.852   2.966 -0.8237  0.0237  0.2708
 6234TIP3   OH240260   3.496   6.542   0.769 -0.1411 -0.3637 -0.2176
 6234TIP3    H140261   3.552   6.516   0.842 -1.2601 -2.2731  0.0324
 6234TIP3    H240262   3.514   6.477   0.701 -1.6196 -0.7012 -0.3230
 6235TIP3   OH240263   4.483   3.423   0.472 -0.1110  0.0017  0.7494
 6235TIP3    H140264   4.563   3.443   0.520  1.3734  0.2989 -1.6474
 6235TIP3    H240265   4.512   3.367   0.400 -2.0233  0.2933 -0.3106
 6236TIP3   OH240266   0.519   2.023   0.927 -0.6119  0.1704 -0.2810
 6236TIP3    H140267   0.543   1.954   0.865  0.1137  0.5872 -0.4729
 6236TIP3    H240268   0.469   2.086   0.876  0.4523  0.7888 -0.5907
 6237TIP3   OH240269   3.746   6.328   1.271 -0.8296 -0.2623 -0.8684
 6237TIP3    H140270   3.777   6.238   1.280  2.4432  0.9283  1.5670
 6237TIP3    H240271   3.802   6.367   1.204 -1.0542  0.4229 -0.6711
 6238TIP3   OH240272   3.717   3.376   1.374 -0.1317 -0.4639  0.5235
 6238TIP3    H140273   3.778   3.322   1.424 -1.1129 -0.2189  2.0606
 6238TIP3    H240274   3.637   3.377   1.427 -1.7353 -1.3215 -1.7464
 6239TIP3   OH240275   4.650   0.565   0.730 -0.0159 -0.0895  0.4667
 6239TIP3    H140276   4.693   0.610   0.803  2.4443 -0.2373 -0.8024
 6239TIP3    H240277   4.643   0.474   0.760 -1.0953  0.2545  1.3499
 6240TIP3   OH240278   5.530   6.119   0.688  0.1189  0.0047  0.2887
 6240TIP3    H140279   5.448   6.127   0.639 -0.4220 -0.6343  1.0573
 6240TIP3    H240280   5.597   6.147   0.627 -0.5919 -0.2427 -0.6367
 6241TIP3   OH240281   6.292   0.369   0.625 -0.1015  0.1611  0.2706
 6241TIP3    H140282   6.276   0.287   0.578 -1.6949  0.5810  0.0534
 6241TIP3    H240283   6.299   0.435   0.556  0.8014  0.2959  0.4709
 6242TIP3   OH240284   3.519   1.205   8.566 -0.0441 -0.5379 -0.4908
 6242TIP3    H140285   3.586   1.219   8.499 -1.4532 -0.1838 -1.9023
 6242TIP3    H240286   3.448   1.264   8.541 -1.0063 -1.1072  0.7898
 6243TIP3   OH240287   3.312   4.775   2.544  0.4410  0.1114  0.4515
 6243TIP3    H140288   3.319   4.857   2.495 -0.9848 -0.6057 -1.0839
 6243TIP3    H240289   3.325   4.707   2.478  0.1713 -0.8991  1.4057
 6244TIP3   OH240290   1.189   1.344   1.383  0.1112  0.1385  0.0759
 6244TIP3    H140291   1.273   1.298   1.379  1.2917  1.9215  2.1427
 6244TIP3    H240292   1.128   1.279   1.419  1.1364 -0.5659  0.5948
 6245TIP3   OH240293   4.272   2.904   1.866 -0.4085  0.0266  0.3092
 6245TIP3    H140294   4.243   2.879   1.953 -1.9930 -0.2917 -0.2767
 6245TIP3    H240295   4.262   2.999   1.863 -1.0273 -0.0405  0.2423
 6246TIP3   OH240296   0.895   0.122   0.921  0.0821 -0.5135  0.0547
 6246TIP3    H140297   0.908   0.060   0.993  1.4032  0.6812  0.9006
 6246TIP3    H240298   0.974   0.115   0.868 -0.1089 -0.1268 -0.2896
 6247TIP3   OH240299   1.408   4.756   8.211  0.2114  0.1324  0.8701
 6247TIP3    H140300   1.336   4.801   8.167 -1.2508 -1.1489  1.8716
 6247TIP3    H240301   1.467   4.827   8.237 -0.2663  1.1407 -0.6396
 6248TIP3   OH240302   3.477   4.268   1.698 -0.7906  0.1954 -0.2249
 6248TIP3    H140303   3.496   4.300   1.787  0.3902 -0.5790 -0.1746
 6248TIP3    H240304   3.521   4.183   1.693  0.2524  0.7913 -1.9814
 6249TIP3   OH240305   0.684   5.730   3.397  0.4600  0.5155 -0.3523
 6249TIP3    H140306   0.772   5.732   3.361  0.3478  1.0354 -0.6120
 6249TIP3    H240307   0.672   5.817   3.435 -0.7634  1.3141 -2.3591
 6250TIP3   OH240308   6.177   4.842   3.037  0.3120  0.2131 -0.2978
 6250TIP3    H140309   6.154   4.754   3.067  0.9964 -0.0470 -0.5163
 6250TIP3    H240310   6.117   4.859   2.965 -2.1156  1.2904  1.8490
 6251TIP3   OH240311   5.049   0.081   1.006 -0.8093  0.2717 -0.0882
 6251TIP3    H140312   5.116   0.064   0.939 -0.8086  0.3144 -0.0986
 6251TIP3    H240313   5.035   0.176   1.003 -0.5965  0.3114  0.1774
 6252TIP3   OH240314   0.014   6.717   7.396 -0.1268  0.2052  0.1866
 6252TIP3    H140315   0.085   6.718   7.331 -0.0114  0.8596  0.3109
 6252TIP3    H240316  -0.045   6.787   7.368 -0.1269  0.4272  0.7221
 6253TIP3   OH240317   4.739   4.530   1.289 -0.0194  0.3523 -0.2237
 6253TIP3    H140318   4.783   4.543   1.205  1.8539 -0.8982  0.4940
 6253TIP3    H240319   4.648   4.512   1.267 -0.0341  2.1156 -1.8422
 6254TIP3   OH240320   6.891   2.752   3.201 -0.0549  0.0803  0.1464
 6254TIP3    H140321   6.940   2.813   3.146 -1.5191  1.7229  0.5764
 6254TIP3    H240322   6.946   2.674   3.205  1.3043  0.8951 -1.4570
 6255TIP3   OH240323   5.234   3.691   0.840  0.5230 -0.0536 -0.2361
 6255TIP3    H140324   5.158   3.687   0.898  1.1382  1.2947  0.7135
 6255TIP3    H240325   5.212   3.758   0.775  1.4416  1.4784  0.9509
 6256TIP3   OH240326   2.620   0.104   1.787  0.1427 -0.4285  0.4304
 6256TIP3    H140327   2.668   0.095   1.704  1.3414  1.3634  0.8620
 6256TIP3    H240328   2.529   0.088   1.764  0.1891  1.7129 -1.6603
 6257TIP3   OH240329   5.211   2.096   2.022  0.4108 -0.2827 -0.1388
 6257TIP3    H140330   5.166   2.123   2.102 -2.2990 -1.5747 -1.1000
 6257TIP3    H240331   5.224   2.001   2.033 -0.6737 -0.6174 -1.4704
 6258TIP3   OH240332   0.393   3.730   0.191 -0.4137  0.2568  0.1352
 6258TIP3    H140333   0.336   3.661   0.159 -0.1711 -0.1415  0.5532
 6258TIP3    H240334   0.351   3.811   0.163 -0.9157 -0.0480  0.0016
 6259TIP3   OH240335   4.328   2.041   2.193  0.4744  0.3436 -0.2335
 6259TIP3    H140336   4.292   2.127   2.214 -0.4922 -0.3011  0.8312
 6259TIP3    H240337   4.323   1.992   2.274 -0.0073 -1.0720 -1.0817
 6260TIP3   OH240338   4.471   2.048   0.937  0.8284  0.1384 -0.0045
 6260TIP3    H140339   4.446   2.034   0.846  0.6115 -1.3975  0.2695
 6260TIP3    H240340   4.563   2.074   0.933  0.3905  1.7330 -0.7387
 6261TIP3   OH240341   2.133   0.968   0.077  0.0481  0.0732  0.6016
 6261TIP3    H140342   2.118   0.933   0.165 -0.3750  1.3312  1.0478
 6261TIP3    H240343   2.216   1.016   0.084  0.9801 -1.3595 -0.1830
 6262TIP3   OH240344   3.200   1.393   2.161 -0.0667  0.2460 -0.2877
 6262TIP3    H140345   3.287   1.395   2.122  0.6400  0.5734  1.2302
 6262TIP3    H240346   3.143   1.431   2.094  0.9406  0.0292 -1.3040
 6263TIP3   OH240347   6.066   0.085   2.473 -0.0187  0.4972 -0.3960
 6263TIP3    H140348   6.022   0.004   2.498  1.3625 -0.0646  0.3076
 6263TIP3    H240349   6.050   0.093   2.379 -3.2990  1.3946  0.1194
 6264TIP3   OH240350   2.959   4.219   2.150  0.1400 -0.0193 -0.4992
 6264TIP3    H140351   2.934   4.127   2.138 -0.0915 -0.0945  0.4501
 6264TIP3    H240352   2.895   4.252   2.213  0.8174  0.5301 -0.0906
 6265TIP3   OH240353   4.080   6.255   3.331  0.5365  0.2317  0.1566
 6265TIP3    H140354   4.088   6.191   3.260  0.6056  0.9164 -0.4736
 6265TIP3    H240355   4.162   6.305   3.327  0.0669  1.0082 -0.0295
 6266TIP3   OH240356   3.905   4.991   8.191  0.6533 -1.0220 -0.2941
 6266TIP3    H140357   3.957   5.070   8.205  0.2029 -0.9210  0.9567
 6266TIP3    H240358   3.862   5.005   8.107 -0.5192  0.7206  0.5363
 6267TIP3   OH240359   1.484   5.798   1.301  0.2704 -0.4898 -0.3142
 6267TIP3    H140360   1.550   5.729   1.293  1.8046  0.8108  0.5601
 6267TIP3    H240361   1.522   5.872   1.253 -0.8906  0.0664 -0.3985
 6268TIP3   OH240362   6.191   1.585   8.353  0.6046  0.1486  0.3001
 6268TIP3    H140363   6.230   1.499   8.367  1.3658  0.4590  0.1338
 6268TIP3    H240364   6.215   1.636   8.430 -2.1927 -0.5667  1.7855
 6269TIP3   OH240365   4.227   2.966   0.903 -0.6333 -0.4774  0.8314
 6269TIP3    H140366   4.139   2.969   0.942 -0.9202  2.3308  0.2230
 6269TIP3    H240367   4.275   3.035   0.949  0.1317  0.4383 -1.2274
 6270TIP3   OH240368   1.706   1.777   0.815  0.2525 -0.9880  0.1041
 6270TIP3    H140369   1.653   1.742   0.744 -1.0835  1.7604 -0.3936
 6270TIP3    H240370   1.748   1.854   0.778  1.8910 -1.1355  1.5091
 6271TIP3   OH240371   0.494   2.490   1.179  0.3153 -0.0453  0.5608
 6271TIP3    H140372   0.540   2.516   1.099 -2.3493 -0.0645 -1.0663
 6271TIP3    H240373   0.540   2.412   1.209  1.4626  0.0591 -0.8311
 6272TIP3   OH240374   3.830   4.848   2.387 -0.1282  0.0917  0.0622
 6272TIP3    H140375   3.797   4.775   2.335  0.2888 -0.0558  0.0032
 6272TIP3    H240376   3.909   4.815   2.428 -0.5329  0.1602  0.9137
 6273TIP3   OH240377   2.190   1.784   0.013  0.1908  0.0368  0.1693
 6273TIP3    H140378   2.105   1.820   0.038  0.8833  2.3096 -0.4602
 6273TIP3    H240379   2.253   1.854   0.033  1.4328 -0.0229 -2.8742
 6274TIP3   OH240380   5.857   2.680   7.542 -0.2074 -0.1103  0.1416
 6274TIP3    H140381   5.865   2.622   7.466 -2.0204  0.1141 -0.2683
 6274TIP3    H240382   5.947   2.708   7.560  0.3642 -0.8247 -1.3985
 6275TIP3   OH240383   2.542   6.609   0.933  0.4303  0.1303 -0.0136
 6275TIP3    H140384   2.505   6.545   0.872 -0.7694  1.2257 -0.4701
 6275TIP3    H240385   2.593   6.668   0.877  0.4099  0.3704  0.2208
 6276TIP3   OH240386   0.719   4.872   2.480 -0.0404 -0.4856  0.2053
 6276TIP3    H140387   0.649   4.929   2.513 -1.0710 -1.6617  0.1461
 6276TIP3    H240388   0.758   4.922   2.409 -1.8814 -0.3949 -0.8211
 6277TIP3   OH240389   4.238   3.623   0.299  0.0682  0.0235  0.0276
 6277TIP3    H140390   4.225   3.546   0.354  0.0899  0.4595  0.6595
 6277TIP3    H240391   4.159   3.627   0.245  0.5060 -0.9908 -0.7086
 6278TIP3   OH240392   1.898   1.780   3.279 -0.3866 -0.2209  0.7305
 6278TIP3    H140393   1.866   1.692   3.257  0.6282 -0.3996 -0.1410
 6278TIP3    H240394   1.858   1.836   3.213  1.3091 -0.5028 -0.6133
 6279TIP3   OH240395   3.560   2.229   1.570 -0.2012 -0.1825  0.3332
 6279TIP3    H140396   3.655   2.220   1.570 -0.1808 -0.0384 -0.9617
 6279TIP3    H240397   3.540   2.265   1.657  1.1045  1.6362 -0.0652
 6280TIP3   OH240398   5.710   5.901   8.145  0.3006  0.1555  0.1294
 6280TIP3    H140399   5.626   5.855   8.140  0.5357 -0.2001 -0.9071
 6280TIP3    H240400   5.775   5.832   8.134  0.6413  0.8315 -2.8835
 6281TIP3   OH240401   1.033   4.264   1.741  0.3718 -0.2355  0.8152
 6281TIP3    H140402   1.047   4.358   1.747  0.9762 -0.3218  0.8315
 6281TIP3    H240403   1.089   4.236   1.668  0.2005 -0.5819  0.8144
 6282TIP3   OH240404   5.213   2.647   7.396  0.1676 -0.2567 -0.4280
 6282TIP3    H140405   5.290   2.681   7.351  0.3466  3.0515  2.0728
 6282TIP3    H240406   5.139   2.678   7.343  0.4599 -0.3015 -0.8675
 6283TIP3   OH240407   2.343   1.466   2.250 -0.7640 -0.5276 -0.3381
 6283TIP3    H140408   2.430   1.461   2.212 -0.9908 -0.1466 -0.9136
 6283TIP3    H240409   2.350   1.533   2.318 -0.2756 -1.4395  0.5593
 6284TIP3   OH240410   0.623   6.555   1.179  0.2644  0.3014 -0.3922
 6284TIP3    H140411   0.680   6.519   1.247 -0.3956  2.0811  1.1786
 6284TIP3    H240412   0.633   6.650   1.187  0.5152  0.5765 -3.1354
 6285TIP3   OH240413   0.920   6.751   8.491 -0.0838  0.2625 -0.5344
 6285TIP3    H140414   0.852   6.785   8.548  0.1603  0.1610 -0.1810
 6285TIP3    H240415   0.962   6.682   8.542  0.1729  0.2121 -0.8113
 6286TIP3   OH240416   5.411   1.885   1.328 -0.0426 -0.0780  0.0678
 6286TIP3    H140417   5.485   1.832   1.302 -0.0025 -0.2628  0.5457
 6286TIP3    H240418   5.365   1.832   1.393  0.1021  0.5436  0.6902
 6287TIP3   OH240419   4.579   1.545   7.764 -0.5155 -0.3234 -0.0000
 6287TIP3    H140420   4.593   1.484   7.692 -1.2010 -0.4257 -0.0506
 6287TIP3    H240421   4.646   1.612   7.752  0.1495 -0.9781 -0.0354
 6288TIP3   OH240422   3.215   1.060   3.323  0.6155  0.2014  0.1230
 6288TIP3    H140423   3.134   1.010   3.310  0.9175 -0.9535  2.1857
 6288TIP3    H240424   3.266   1.046   3.244 -0.6327 -0.1947 -0.6329
 6289TIP3   OH240425   0.979   0.003   2.129  0.9779  0.0635  0.2253
 6289TIP3    H140426   0.999  -0.086   2.100  1.4681  0.1680  0.2405
 6289TIP3    H240427   1.056   0.030   2.179 -0.0442 -0.2976  2.0883
 6290TIP3   OH240428   4.045   0.080   8.043  0.2788  0.0299 -0.6353
 6290TIP3    H140429   3.998   0.138   8.103 -0.3438 -0.7219 -0.3823
 6290TIP3    H240430   3.978   0.021   8.010  1.3783 -2.7933  1.7250
 6291TIP3   OH240431   0.694   2.053   3.072 -0.0951 -0.3305 -0.0609
 6291TIP3    H140432   0.627   1.986   3.085 -0.0575 -0.5842 -1.1006
 6291TIP3    H240433   0.647   2.136   3.077 -0.2998 -0.4661  0.2948
 6292TIP3   OH240434   2.051   4.989   8.024 -0.1045  0.5125 -0.1878
 6292TIP3    H140435   2.023   4.946   8.105 -0.5709  0.9999 -0.0864
 6292TIP3    H240436   1.976   4.979   7.965  0.7331 -1.0808 -1.0645
 6293TIP3   OH240437   2.272   3.384   2.058 -0.2472  0.1317  0.0571
 6293TIP3    H140438   2.315   3.353   1.978 -1.5681  0.3399 -0.7468
 6293TIP3    H240439   2.291   3.315   2.123 -0.1920 -0.6352 -0.7589
 6294TIP3   OH240440   1.543   0.272   1.716  0.2644 -0.0317 -0.0118
 6294TIP3    H140441   1.453   0.288   1.688  0.1736  1.8841  1.1731
 6294TIP3    H240442   1.535   0.208   1.787 -0.1126 -0.1764 -0.1808
 6295TIP3   OH240443   3.602   4.772   1.417 -0.3034  0.3090  0.0523
 6295TIP3    H140444   3.560   4.783   1.332 -3.5723 -1.4538  1.2570
 6295TIP3    H240445   3.607   4.678   1.430  0.1000  0.5366  1.8157
 6296TIP3   OH240446   2.703   4.505   2.290  0.2411 -0.2407  0.1005
 6296TIP3    H140447   2.741   4.422   2.318 -0.8987 -0.6887  0.3405
 6296TIP3    H240448   2.687   4.553   2.371 -0.4267 -0.3828  0.0611
 6297TIP3   OH240449   5.524   5.483   0.727 -0.0140 -0.1774  0.2703
 6297TIP3    H140450   5.566   5.449   0.648  0.2234 -0.6497  0.5994
 6297TIP3    H240451   5.431   5.461   0.717  0.2076 -1.3235  0.6916
 6298TIP3   OH240452   0.518   6.592   1.525  0.3198 -0.5620 -0.2772
 6298TIP3    H140453   0.472   6.541   1.459  0.7282 -0.5599 -0.5676
 6298TIP3    H240454   0.611   6.584   1.501  0.4919 -0.7937  0.4642
 6299TIP3   OH240455   6.607   6.743   1.882 -0.5191  1.0353 -0.0950
 6299TIP3    H140456   6.557   6.717   1.805 -2.1037  1.9811  0.5716
 6299TIP3    H240457   6.668   6.671   1.897 -1.3824  0.0463 -1.1975
 6300TIP3   OH240458   5.883   5.706   8.126  0.2427 -0.2586 -0.4337
 6300TIP3    H140459   5.973   5.683   8.105  0.8822  0.1518  1.6240
 6300TIP3    H240460   5.835   5.623   8.120  1.3144 -1.0227  1.0093
 6301TIP3   OH240461   0.052   4.150   7.343  0.0031 -0.6069  0.7125
 6301TIP3    H140462  -0.016   4.119   7.282 -0.5647 -2.8011  2.3518
 6301TIP3    H240463   0.096   4.071   7.373  1.0902  0.5079  2.2166
 6302TIP3   OH240464   5.471   2.138   2.027  0.3987 -0.4549  0.2970
 6302TIP3    H140465   5.378   2.152   2.041  0.7516  0.2948  2.2628
 6302TIP3    H240466   5.488   2.168   1.937 -1.3868 -1.5099 -0.4295
 6303TIP3   OH240467   2.814   6.098   8.546  0.4064 -0.9587 -0.5836
 6303TIP3    H140468   2.859   6.115   8.629 -0.9331  1.3318 -0.2392
 6303TIP3    H240469   2.884   6.085   8.482  1.6560  2.1469 -0.0250
 6304TIP3   OH240470   5.852   4.021   2.166 -0.1058  0.1109 -0.3606
 6304TIP3    H140471   5.831   4.034   2.259 -1.3706  0.8880 -0.7389
 6304TIP3    H240472   5.786   4.072   2.119  2.2701  2.2762 -1.6373
 6305TIP3   OH240473   5.950   3.304   3.218  0.3246 -0.3135 -0.0549
 6305TIP3    H140474   5.955   3.228   3.160  0.9105  0.4428 -1.0467
 6305TIP3    H240475   5.913   3.373   3.163  0.3142  0.2604  0.6638
 6306TIP3   OH240476   6.902   5.475   2.410  0.2030  0.2496 -0.3210
 6306TIP3    H140477   6.830   5.413   2.399  1.4866 -1.0471 -2.0592
 6306TIP3    H240478   6.935   5.457   2.498  0.3972 -1.4500 -0.6919
 6307TIP3   OH240479   1.487   2.027   0.142  0.2786 -0.2084  0.2415
 6307TIP3    H140480   1.501   2.065   0.056 -2.4915  0.7077  0.1084
 6307TIP3    H240481   1.429   1.952   0.126 -1.3790  0.7728  1.4021
 6308TIP3   OH240482   1.027   3.661   6.463  0.1121  0.1034  0.3099
 6308TIP3    H140483   0.967   3.606   6.514 -0.1986  0.6547  0.5528
 6308TIP3    H240484   1.090   3.600   6.426  0.3855 -0.3095  1.4159
 6309TIP3   OH240485   0.324   4.769   2.015  0.0000  0.0789  0.5573
 6309TIP3    H140486   0.368   4.784   2.099 -0.2418 -0.1781  0.7312
 6309TIP3    H240487   0.236   4.803   2.027  0.1582  0.6382  0.1907
 6310TIP3   OH240488   3.389   3.953   0.776  0.3402  0.1925  0.0424
 6310TIP3    H140489   3.393   3.971   0.870  0.6217 -4.6286  1.2035
 6310TIP3    H240490   3.479   3.957   0.746  0.2284  1.9310 -0.1499
 6311TIP3   OH240491   2.669   6.100   2.755 -0.0168 -0.2463 -0.7597
 6311TIP3    H140492   2.634   6.103   2.844 -0.8363 -0.4867 -1.0620
 6311TIP3    H240493   2.752   6.146   2.760 -0.0977 -0.1846  0.1147
 6312TIP3   OH240494   2.103   0.072   7.491 -0.2575 -0.9702  0.0015
 6312TIP3    H140495   2.061  -0.006   7.529  0.0936 -0.6946  0.9834
 6312TIP3    H240496   2.108   0.134   7.563  1.7279 -0.9428 -0.0878
 6313TIP3   OH240497   2.442   1.681   0.282 -0.1630  0.0402 -0.0834
 6313TIP3    H140498   2.436   1.684   0.377 -0.9323  0.4557 -0.1327
 6313TIP3    H240499   2.476   1.767   0.257 -0.0370 -0.0397 -0.1931
 6314TIP3   OH240500   2.431   0.337   7.641  0.1741 -0.2599 -0.3906
 6314TIP3    H140501   2.338   0.360   7.651  1.1439  4.6245 -0.3852
 6314TIP3    H240502   2.437   0.305   7.551 -1.8624 -4.1154  0.6077
 6315TIP3   OH240503   4.717   0.995   2.404 -0.3544 -0.0040 -0.1452
 6315TIP3    H140504   4.659   0.923   2.428 -1.6357  0.5402 -1.4346
 6315TIP3    H240505   4.670   1.041   2.335  0.1746  2.3778  0.9740
 6316TIP3   OH240506   3.737   5.926   2.536 -0.6420  0.3227 -0.1728
 6316TIP3    H140507   3.666   5.862   2.539 -0.6535  0.2205 -1.7375
 6316TIP3    H240508   3.716   5.989   2.605 -2.8483  0.8992 -1.2777
 6317TIP3   OH240509   3.198   4.476   0.520 -0.0100  0.2432 -0.3939
 6317TIP3    H140510   3.215   4.381   0.526  1.4995  0.3529 -1.9915
 6317TIP3    H240511   3.233   4.501   0.434 -1.3412  2.0805 -0.4473
 6318TIP3   OH240512   5.211   3.386   1.123 -0.4191  0.0699  0.9549
 6318TIP3    H140513   5.243   3.361   1.210 -0.6922 -1.7319  0.5852
 6318TIP3    H240514   5.161   3.309   1.094  0.3888  0.2960 -1.1493
 6319TIP3   OH240515   0.389   5.653   8.351 -0.1498 -0.2527 -0.4416
 6319TIP3    H140516   0.482   5.677   8.348 -0.4815  1.1652 -0.0532
 6319TIP3    H240517   0.353   5.685   8.268 -0.4523 -0.0952 -0.2517
 6320TIP3   OH240518   2.212   3.965   8.534 -0.2545 -0.2159 -0.1300
 6320TIP3    H140519   2.196   4.030   8.466  1.0938 -1.4329 -1.7040
 6320TIP3    H240520   2.302   3.983   8.564 -0.8421  0.3326  1.4015
 6321TIP3   OH240521   3.792   0.788   1.773  0.8567  0.1868  0.4011
 6321TIP3    H140522   3.697   0.801   1.767  0.8714  1.6680  2.3601
 6321TIP3    H240523   3.824   0.802   1.684 -0.7628 -0.4728 -0.3186
 6322TIP3   OH240524   2.726   4.754   0.221  0.4302  0.1135 -0.4207
 6322TIP3    H140525   2.713   4.659   0.210 -2.2217 -0.0272  2.4159
 6322TIP3    H240526   2.683   4.793   0.145  0.2285 -0.9438 -0.8710
 6323TIP3   OH240527   4.612   5.614   2.539 -0.5965  0.0499 -0.2543
 6323TIP3    H140528   4.527   5.657   2.553 -0.9225 -1.1311  1.7696
 6323TIP3    H240529   4.676   5.678   2.571 -0.7132  0.7876 -1.4237
 6324TIP3   OH240530   1.134   6.445   8.391 -0.0943 -0.3818 -0.2201
 6324TIP3    H140531   1.069   6.377   8.406 -1.0668  0.6898  0.6024
 6324TIP3    H240532   1.172   6.462   8.478 -0.1557  0.3850 -0.3319
 6325TIP3   OH240533   1.633   3.358   0.307  0.3025  0.4986  0.0594
 6325TIP3    H140534   1.625   3.399   0.393  0.9673  0.5417  0.1109
 6325TIP3    H240535   1.704   3.406   0.264  1.6479 -1.0499  0.4221
 6326TIP3   OH240536   2.445   1.714   0.858 -0.0148 -0.4360  0.0986
 6326TIP3    H140537   2.401   1.680   0.936 -1.0562 -2.2667 -1.2215
 6326TIP3    H240538   2.499   1.787   0.891 -3.8123  1.8883  1.8795
 6327TIP3   OH240539   0.023   5.067   2.151  0.0227  0.2657  0.5706
 6327TIP3    H140540   0.084   5.136   2.127 -0.9728  0.8394 -0.4051
 6327TIP3    H240541  -0.059   5.090   2.107 -0.5983 -1.0541  0.9603
 6328TIP3   OH240542   5.661   5.940   2.909 -0.7195 -0.3788 -0.0079
 6328TIP3    H140543   5.593   6.006   2.903 -0.8466 -0.5786 -0.9493
 6328TIP3    H240544   5.619   5.866   2.953 -0.7230 -0.0298  0.5878
 6329TIP3   OH240545   1.681   3.581   0.582 -0.1333 -0.3067  0.0923
 6329TIP3    H140546   1.771   3.557   0.603  0.2672 -0.6138 -1.7918
 6329TIP3    H240547   1.668   3.665   0.625  1.4370  0.2577 -0.4698
 6330TIP3   OH240548   5.086   5.204   0.145  0.0227 -0.1916  0.2487
 6330TIP3    H140549   5.041   5.142   0.203 -3.4350 -0.3933 -2.3173
 6330TIP3    H240550   5.071   5.289   0.187  0.2507 -0.5900  1.1698
 6331TIP3   OH240551   5.034   3.113   8.185  0.1760 -0.2710  0.1067
 6331TIP3    H140552   5.117   3.067   8.175 -1.0297 -2.1850 -2.1785
 6331TIP3    H240553   5.056   3.205   8.177  2.0125 -0.7722 -1.1537
 6332TIP3   OH240554   0.351   3.968   1.990 -0.1721  0.3370  0.3622
 6332TIP3    H140555   0.331   4.062   1.990  0.0454  0.4116 -1.6933
 6332TIP3    H240556   0.291   3.931   2.055 -0.6798  1.8015  0.7685
 6333TIP3   OH240557   0.675   1.363   1.026 -0.5943  0.3709  0.7118
 6333TIP3    H140558   0.718   1.381   1.110 -1.0586 -1.0760  1.3034
 6333TIP3    H240559   0.696   1.438   0.971  0.7832  0.7547  1.7149
 6334TIP3   OH240560   2.332   2.860   2.061  0.1674  0.3921 -0.0036
 6334TIP3    H140561   2.284   2.778   2.052 -0.2393  0.7659 -1.5147
 6334TIP3    H240562   2.325   2.882   2.153 -2.9232  0.6377 -0.2025
 6335TIP3   OH240563   4.027   2.112   0.854  0.0190  0.4362  0.1054
 6335TIP3    H140564   4.085   2.046   0.817  1.1861 -0.0776  2.5863
 6335TIP3    H240565   4.070   2.137   0.936 -2.4400  1.2943  1.2269
 6336TIP3   OH240566   2.221   6.029   0.605 -0.4349 -0.7047  0.4478
 6336TIP3    H140567   2.182   5.992   0.525 -0.4994 -0.2154  0.2465
 6336TIP3    H240568   2.163   6.102   0.627  1.9203  1.9566 -1.5264
 6337TIP3   OH240569   0.520   5.082   1.339  0.4364  0.4482 -0.2314
 6337TIP3    H140570   0.474   5.055   1.418  0.7875 -0.5479 -0.3589
 6337TIP3    H240571   0.454   5.075   1.270  0.9975 -2.0259 -0.6034
 6338TIP3   OH240572   6.904   4.938   1.813  0.0986 -0.0833  0.4402
 6338TIP3    H140573   6.899   4.890   1.896  0.1719  0.1573  0.5830
 6338TIP3    H240574   6.968   4.889   1.761  2.2486  1.3544  1.5866
 6339TIP3   OH240575   4.318   0.891   3.189 -0.1294 -0.8302  0.6132
 6339TIP3    H140576   4.331   0.889   3.094  0.4219 -2.7041  0.6862
 6339TIP3    H240577   4.374   0.962   3.219  0.1359 -0.5871 -0.4028
 6340TIP3   OH240578   0.283   4.393   2.749  0.1331  0.2363  0.2504
 6340TIP3    H140579   0.265   4.309   2.707  0.5119 -0.5245  1.5350
 6340TIP3    H240580   0.197   4.428   2.770 -0.0584 -1.3297  2.4584
 6341TIP3   OH240581   2.950   1.403   2.766  0.2816 -0.1337  0.3802
 6341TIP3    H140582   2.953   1.498   2.756  2.0157 -0.2551 -0.7686
 6341TIP3    H240583   2.891   1.388   2.840 -1.5979  1.7219 -0.6241
 6342TIP3   OH240584   1.014   5.202   2.330  0.1695  0.0943  0.5489
 6342TIP3    H140585   1.030   5.285   2.377 -0.5853 -1.5292  4.0218
 6342TIP3    H240586   1.075   5.140   2.371 -1.0282 -1.6253 -0.1722
 6343TIP3   OH240587   5.412   6.784   8.074  0.8881 -0.3036  0.1911
 6343TIP3    H140588   5.409   6.771   7.979  1.9100  0.9824 -0.0585
 6343TIP3    H240589   5.321   6.783   8.102  0.6035 -1.2948 -0.7033
 6344TIP3   OH240590   3.115   2.110   2.474  0.2784  0.2829 -0.3004
 6344TIP3    H140591   3.163   2.069   2.546 -0.4209 -0.8199 -0.4388
 6344TIP3    H240592   3.180   2.123   2.406  0.1803 -2.5310 -1.0537
 6345TIP3   OH240593   5.415   6.715   7.166  0.3604 -0.4042  0.2156
 6345TIP3    H140594   5.472   6.792   7.162  1.3428 -1.1664 -0.5112
 6345TIP3    H240595   5.372   6.723   7.252  0.7247  0.7456  0.3153
 6346TIP3   OH240596   3.539   3.016   0.983  0.0305 -0.7633 -0.3092
 6346TIP3    H140597   3.555   3.048   1.072  1.2112  0.3412 -0.8847
 6346TIP3    H240598   3.627   3.002   0.947 -0.3704  0.4468 -1.8491
 6347TIP3   OH240599   2.570   5.994   2.995 -0.1779 -0.0753  0.6722
 6347TIP3    H140600   2.613   5.922   3.041 -0.6506 -0.6835  0.1810
 6347TIP3    H240601   2.486   6.003   3.038 -0.3096 -0.1339  0.4310
 6348TIP3   OH240602   4.081   0.549   7.140 -0.0541 -0.5845  0.0515
 6348TIP3    H140603   3.999   0.571   7.185  0.9351 -0.7553  2.0702
 6348TIP3    H240604   4.115   0.633   7.109  0.2593 -0.1175  1.5482
 6349TIP3   OH240605   0.326   6.218   0.501 -0.5392 -0.3344  0.1653
 6349TIP3    H140606   0.381   6.241   0.427  0.0749 -1.1949  0.3428
 6349TIP3    H240607   0.269   6.294   0.513  1.0258  0.8606  0.3820
 6350TIP3   OH240608   5.450   3.827   0.976 -0.4233 -0.6526  0.4255
 6350TIP3    H140609   5.541   3.816   0.949  0.0067  0.6710  1.2441
 6350TIP3    H240610   5.407   3.746   0.949  0.9273 -1.1757 -0.2401
 6351TIP3   OH240611   1.268   4.395   3.071 -0.2482 -0.4191  0.0773
 6351TIP3    H140612   1.356   4.404   3.106  0.1647 -2.3144 -0.4036
 6351TIP3    H240613   1.217   4.463   3.117  1.2968  0.2983  0.7984
 6352TIP3   OH240614   1.112   2.292   1.956  0.3151 -0.0808 -0.2632
 6352TIP3    H140615   1.151   2.259   1.875  2.2785  1.7499 -0.1579
 6352TIP3    H240616   1.162   2.251   2.026  0.5839  0.5807 -0.0619
 6353TIP3   OH240617   0.947   6.542   0.517 -0.3971 -0.1657  0.0047
 6353TIP3    H140618   0.960   6.552   0.611 -0.7408  0.0220  0.0346
 6353TIP3    H240619   0.974   6.627   0.481  2.6646 -1.1976 -0.3928
 6354TIP3   OH240620   2.812   0.061   2.775  0.2024 -0.4462 -0.7728
 6354TIP3    H140621   2.735   0.038   2.827  0.0871  0.6847 -0.4327
 6354TIP3    H240622   2.885   0.060   2.838 -0.1932  2.6836 -0.1022
 6355TIP3   OH240623   0.337   3.623   1.441 -0.2024  0.3758  0.0919
 6355TIP3    H140624   0.407   3.688   1.453  2.2861 -1.9166 -0.9817
 6355TIP3    H240625   0.303   3.640   1.353  0.9470 -0.2012 -0.4776
 6356TIP3   OH240626   1.032   5.669   2.157  0.3886  0.0180 -0.0276
 6356TIP3    H140627   1.000   5.718   2.233  0.5491  0.8033 -0.4535
 6356TIP3    H240628   0.983   5.587   2.158  0.5679 -0.0857  1.0636
 6357TIP3   OH240629   3.124   4.111   0.037 -0.0428  0.2886  0.7623
 6357TIP3    H140630   3.187   4.087   0.105 -0.4810 -1.4188  0.6147
 6357TIP3    H240631   3.074   4.031   0.021  1.0432  0.1320 -2.6563
 6358TIP3   OH240632   3.832   5.542   2.919  0.0484  0.1686  0.2616
 6358TIP3    H140633   3.880   5.497   2.849 -1.1386 -1.3244  0.3501
 6358TIP3    H240634   3.760   5.585   2.874 -0.0792  0.1338  0.4328
 6359TIP3   OH240635   3.161   5.165   2.933 -0.7241 -0.2840  0.0414
 6359TIP3    H140636   3.231   5.122   2.983 -0.2792  0.9564  0.5397
 6359TIP3    H240637   3.207   5.218   2.868 -1.1019  1.3843  1.0522
 6360TIP3   OH240638   3.401   5.922   1.473 -0.1270  0.1494  0.1238
 6360TIP3    H140639   3.353   5.844   1.501 -0.1407  0.2953  0.5076
 6360TIP3    H240640   3.478   5.924   1.531 -0.0002  0.2869 -0.0476
 6361TIP3   OH240641   5.242   4.859   0.374 -0.1139  0.3801  0.5552
 6361TIP3    H140642   5.302   4.848   0.449  0.4098  0.7727  0.2033
 6361TIP3    H240643   5.287   4.921   0.317  0.3409 -1.2229 -0.9468
 6362TIP3   OH240644   0.317   5.967   8.284  0.1411  0.5467  0.6532
 6362TIP3    H140645   0.277   5.884   8.260  2.5356 -0.2877 -0.7861
 6362TIP3    H240646   0.343   6.006   8.201  0.7632  1.8442  1.4282
 6363TIP3   OH240647   4.196   4.430   1.270 -0.3705 -0.2171 -0.3913
 6363TIP3    H140648   4.174   4.383   1.190  1.3955 -1.1468 -0.3883
 6363TIP3    H240649   4.167   4.372   1.341  0.3012 -0.5595 -0.3858
 6364TIP3   OH240650   5.669   6.634   7.986  0.4780 -0.0257  0.7699
 6364TIP3    H140651   5.757   6.605   7.964  0.8180  0.9201  0.8185
 6364TIP3    H240652   5.612   6.564   7.955  1.0387  0.5771 -1.8294
 6365TIP3   OH240653   5.276   2.975   8.087 -0.2133 -0.2284 -0.0703
 6365TIP3    H140654   5.339   2.924   8.035 -0.9085  0.3423 -1.5209
 6365TIP3    H240655   5.323   3.056   8.107 -1.0222  1.0552 -2.8125
 6366TIP3   OH240656   0.798   6.129   0.936  0.3622 -0.7752  0.1713
 6366TIP3    H140657   0.747   6.208   0.952 -0.8544 -1.0533 -2.0378
 6366TIP3    H240658   0.865   6.130   1.004 -1.0089  0.9476  1.5904
 6367TIP3   OH240659   3.197   6.454   0.579 -0.1121  0.0672 -0.2058
 6367TIP3    H140660   3.236   6.388   0.636  0.9360  1.0452  0.2423
 6367TIP3    H240661   3.107   6.424   0.565 -0.6547  0.1957  2.6106
 6368TIP3   OH240662   5.879   0.074   0.909 -0.9851  0.3745  0.3373
 6368TIP3    H140663   5.797   0.111   0.878 -0.3964  2.0227  0.6464
 6368TIP3    H240664   5.935   0.150   0.926 -0.2094 -0.5761  2.3758
 6369TIP3   OH240665   5.049   5.798   2.343 -0.7466 -0.0781  0.3336
 6369TIP3    H140666   5.088   5.836   2.421 -0.3321  1.1717 -0.4437
 6369TIP3    H240667   5.117   5.806   2.276 -1.8946  1.0628 -0.7468
 6370TIP3   OH240668   2.742   1.644   2.422 -0.1332 -0.1208 -0.4494
 6370TIP3    H140669   2.728   1.647   2.327  0.9320  1.8338 -0.5782
 6370TIP3    H240670   2.837   1.641   2.432 -0.1087  2.3747  0.5596
 6371TIP3   OH240671   5.473   0.529   0.351  0.2819  0.3318 -0.2677
 6371TIP3    H140672   5.451   0.585   0.277 -0.3491  1.9552  1.0861
 6371TIP3    H240673   5.422   0.564   0.424  1.3205 -0.8413  1.0925
 6372TIP3   OH240674   2.338   5.606   2.487 -0.1763 -0.0923  0.2595
 6372TIP3    H140675   2.269   5.665   2.517  0.2005  0.3365  0.2873
 6372TIP3    H240676   2.400   5.663   2.441 -0.5627 -0.6697 -1.0351
 6373TIP3   OH240677   3.815   0.443   2.003 -0.3475  0.3388  0.6883
 6373TIP3    H140678   3.831   0.423   1.911 -1.7022  2.0168  0.0224
 6373TIP3    H240679   3.861   0.525   2.018 -0.2565  0.1495  1.4652
 6374TIP3   OH240680   3.415   1.853   1.849 -0.8166 -0.4007 -0.8239
 6374TIP3    H140681   3.325   1.866   1.817 -1.8984 -2.4081  1.1430
 6374TIP3    H240682   3.434   1.931   1.901 -0.2382  1.3792 -3.4582
 6375TIP3   OH240683   2.797   2.564   2.424 -0.2636  0.5145 -0.1309
 6375TIP3    H140684   2.876   2.579   2.475 -0.4375 -2.3112  1.1751
 6375TIP3    H240685   2.734   2.529   2.487 -1.2829 -0.8428 -1.8015
 6376TIP3   OH240686   4.239   5.175   2.788 -0.6939  0.6413 -0.5115
 6376TIP3    H140687   4.331   5.153   2.799 -0.6406  0.7707 -0.7066
 6376TIP3    H240688   4.199   5.151   2.872 -0.3707  1.1685 -0.2069
 6377TIP3   OH240689   0.811   6.338   2.829 -0.5444  0.0456 -0.3942
 6377TIP3    H140690   0.807   6.250   2.792 -2.1224 -0.0494 -0.0703
 6377TIP3    H240691   0.845   6.326   2.917  0.9041 -0.0085 -0.9346
 6378TIP3   OH240692   6.608   3.159   0.797 -0.3243  0.1859  0.7348
 6378TIP3    H140693   6.516   3.184   0.805 -0.4280  0.8392 -1.6902
 6378TIP3    H240694   6.650   3.196   0.874 -2.2008 -0.8644  2.3407
 6379TIP3   OH240695   2.507   2.330   2.390  0.5065  0.3483  0.6208
 6379TIP3    H140696   2.552   2.355   2.309 -2.7100  1.5208 -1.0078
 6379TIP3    H240697   2.533   2.397   2.453  1.6446  0.5158  0.0022
 6380TIP3   OH240698   2.602   6.650   2.767  0.0391 -0.2351  0.6990
 6380TIP3    H140699   2.641   6.725   2.812 -0.8311  0.6944 -0.0500
 6380TIP3    H240700   2.523   6.686   2.726 -1.6995 -2.0659  2.2411
 6381TIP3   OH240701   2.813   2.141   1.045 -0.3638 -0.0225 -0.6496
 6381TIP3    H140702   2.880   2.181   1.101 -2.3094 -0.8636  2.5907
 6381TIP3    H240703   2.732   2.185   1.071 -1.7428 -2.2608 -0.8886
 6382TIP3   OH240704   4.283   0.879   0.585  0.6093 -0.2207  0.6147
 6382TIP3    H140705   4.340   0.804   0.568  1.1225  0.4217 -0.6200
 6382TIP3    H240706   4.200   0.840   0.614  1.0304 -1.2443  0.4867
 6383TIP3   OH240707   6.885   4.378   0.380  0.0483  0.0721  0.2149
 6383TIP3    H140708   6.813   4.438   0.398 -2.8534 -3.0953  0.3052
 6383TIP3    H240709   6.882   4.314   0.451  2.4068 -0.7055 -0.2769
 6384TIP3   OH240710   3.491   2.694   1.112  0.1466 -0.4685 -0.0611
 6384TIP3    H140711   3.459   2.759   1.049  2.0822 -0.0696 -0.6979
 6384TIP3    H240712   3.501   2.614   1.061 -0.9760 -0.9388  0.4243
 6385TIP3   OH240713   2.520   1.945   0.219 -0.3128  0.2455 -0.1834
 6385TIP3    H140714   2.608   1.920   0.191 -0.4511 -0.9023  0.3455
 6385TIP3    H240715   2.525   1.946   0.315 -0.9177 -0.0334 -0.1441
 6386TIP3   OH240716   6.877   3.494   2.180  0.6727 -0.3709 -0.3786
 6386TIP3    H140717   6.928   3.423   2.142  2.2594 -0.4170  1.6537
 6386TIP3    H240718   6.937   3.569   2.182  0.1927  0.0188  0.6450
 6387TIP3   OH240719   2.080   5.984   8.423 -0.0273  0.3614 -0.7014
 6387TIP3    H140720   2.086   5.889   8.434  0.5459  0.4572 -0.1259
 6387TIP3    H240721   1.988   6.000   8.401 -0.6223 -0.1397  1.2425
 6388TIP3   OH240722   6.867   6.057   0.244 -0.1001 -0.2895 -0.5630
 6388TIP3    H140723   6.910   6.142   0.255  1.7413 -1.1691 -0.5529
 6388TIP3    H240724   6.778   6.071   0.275 -0.4605  2.1303 -2.3295
 6389TIP3   OH240725   1.175   4.778   1.451  0.2313  0.0382  0.2249
 6389TIP3    H140726   1.207   4.861   1.416 -0.6936  0.9856  1.5057
 6389TIP3    H240727   1.080   4.790   1.459  0.0862 -1.1269  0.4701
 6390TIP3   OH240728   2.760   5.044   0.490  0.3651  0.3517  0.2128
 6390TIP3    H140729   2.848   5.067   0.519  0.5033  0.7054 -0.4674
 6390TIP3    H240730   2.714   5.127   0.484  0.5095  0.3566 -1.0939
 6391TIP3   OH240731   1.232   6.318   0.585  0.3074  0.0392 -0.4503
 6391TIP3    H140732   1.143   6.331   0.616 -0.2024 -1.6048 -1.1461
 6391TIP3    H240733   1.284   6.308   0.665 -0.4218 -0.7288 -0.0619
 6392TIP3   OH240734   2.070   4.062   0.281  0.2280  0.0165 -0.7632
 6392TIP3    H140735   2.157   4.053   0.320 -0.1382  0.9076  0.3086
 6392TIP3    H240736   2.035   4.142   0.319 -1.2467 -0.5708 -0.8149
 6393TIP3   OH240737   1.564   4.757   7.908 -0.1356  0.2290 -0.0207
 6393TIP3    H140738   1.626   4.752   7.980  0.6662  0.4144 -0.6808
 6393TIP3    H240739   1.612   4.802   7.838  0.1138 -2.3663 -1.6563
 6394TIP3   OH240740   6.010   6.337   2.843  0.1712 -0.1102  0.4273
 6394TIP3    H140741   5.952   6.279   2.794  0.2430 -0.3496  0.6213
 6394TIP3    H240742   6.098   6.303   2.829  0.1924 -0.1807  0.7183
 6395TIP3   OH240743   3.383   6.702   0.139  0.6088  0.6516 -0.3683
 6395TIP3    H140744   3.443   6.725   0.068 -1.4538  2.2716 -1.7264
 6395TIP3    H240745   3.297   6.729   0.107 -1.2023 -3.1270  0.7374
 6396TIP3   OH240746   6.174   0.174   3.259  0.4635  0.0222  0.2983
 6396TIP3    H140747   6.193   0.227   3.182  0.3432 -0.4666 -0.0721
 6396TIP3    H240748   6.089   0.206   3.290  1.4604  1.6684  1.4900
 6397TIP3   OH240749   3.178   0.285   1.934  0.1973 -0.2281  0.0720
 6397TIP3    H140750   3.086   0.274   1.910  0.1573 -0.4119  0.3085
 6397TIP3    H240751   3.185   0.247   2.021 -0.1168  2.2769  1.2847
 6398TIP3   OH240752   6.495   1.627   2.705 -0.6664 -0.0623  0.0100
 6398TIP3    H140753   6.540   1.620   2.621 -0.8769 -0.1714 -0.0937
 6398TIP3    H240754   6.524   1.550   2.754  1.7337  1.4651  1.1441
 6399TIP3   OH240755   5.017   4.113   7.934 -0.0938  0.1450  0.3854
 6399TIP3    H140756   4.945   4.050   7.936 -0.1914  0.2557  0.3921
 6399TIP3    H240757   5.088   4.070   7.981 -0.8388  0.8577  2.2841
 6400TIP3   OH240758   6.887   2.733   2.388 -0.2135 -0.2432 -0.7182
 6400TIP3    H140759   6.932   2.801   2.438  0.5777  0.1665 -1.9316
 6400TIP3    H240760   6.797   2.737   2.419  0.3321 -0.3682  1.0264
 6401TIP3   OH240761   5.431   1.735   7.709 -0.0962 -0.0269  0.1823
 6401TIP3    H140762   5.419   1.747   7.803 -1.3109  2.3635 -0.2108
 6401TIP3    H240763   5.420   1.822   7.671 -1.5988 -1.1889 -2.3689
 6402TIP3   OH240764   6.707   0.072   1.770  0.1262  0.9081  0.0331
 6402TIP3    H140765   6.684  -0.005   1.822 -0.5875  1.3563  0.4053
 6402TIP3    H240766   6.799   0.059   1.748 -0.2348 -0.5345 -0.7664
 6403TIP3   OH240767   5.131   2.000   2.857 -0.0488 -0.1254 -0.5924
 6403TIP3    H140768   5.218   1.974   2.828 -0.0403  0.1345 -0.8082
 6403TIP3    H240769   5.140   2.091   2.885 -0.3040 -0.0117 -0.8680
 6404TIP3   OH240770   0.511   2.551   7.271 -0.4714  0.2202  0.1863
 6404TIP3    H140771   0.453   2.627   7.278 -1.1511 -0.2148 -0.5958
 6404TIP3    H240772   0.489   2.511   7.187  1.0279  0.0898 -0.1768
 6405TIP3   OH240773   2.783   1.126   1.143  0.0057 -0.0116 -0.3171
 6405TIP3    H140774   2.708   1.081   1.183  0.6775 -0.5911  0.3306
 6405TIP3    H240775   2.799   1.079   1.062 -0.4909  0.2803 -0.5891
 6406TIP3   OH240776   6.449   4.789   8.021 -0.5619  0.0505  0.4451
 6406TIP3    H140777   6.357   4.814   8.030 -0.9354 -0.9451 -0.3991
 6406TIP3    H240778   6.458   4.765   7.929  0.4940 -0.0469  0.5687
 6407TIP3   OH240779   2.239   4.551   8.128 -0.0751 -0.1462  0.0075
 6407TIP3    H140780   2.186   4.475   8.102 -1.4010  0.5470  0.6201
 6407TIP3    H240781   2.178   4.609   8.173  1.0096  1.1149 -0.0892
 6408TIP3   OH240782   0.149   6.624   0.845 -0.5320  0.1021 -0.6003
 6408TIP3    H140783   0.220   6.618   0.781 -0.6807 -0.1457 -0.7431
 6408TIP3    H240784   0.108   6.708   0.827  0.3771  0.7398  0.1682
 6409TIP3   OH240785   4.525   1.184   1.466 -0.0554  0.7410 -0.2729
 6409TIP3    H140786   4.506   1.224   1.551  0.2447 -1.1480  0.7387
 6409TIP3    H240787   4.619   1.197   1.454  0.0026  0.5172 -0.0545
 6410TIP3   OH240788   1.439   1.143   1.968  0.6678 -0.0241  0.8750
 6410TIP3    H140789   1.425   1.198   2.045 -0.9382 -1.4517  1.7009
 6410TIP3    H240790   1.480   1.200   1.904  0.6881  1.6227  2.2806
 6411TIP3   OH240791   6.872   6.334   2.888 -0.2846 -0.6360  0.3174
 6411TIP3    H140792   6.915   6.415   2.914  0.4369 -1.0722  0.5018
 6411TIP3    H240793   6.843   6.350   2.798 -1.7037  0.4379  0.9375
 6412TIP3   OH240794   6.680   5.579   0.280  0.8607  0.4517 -0.3891
 6412TIP3    H140795   6.685   5.522   0.204  1.5874  0.2570 -0.2031
 6412TIP3    H240796   6.751   5.549   0.337 -0.8727 -0.7061  1.2688
 6413TIP3   OH240797   0.928   4.106   7.091  0.4062 -0.3561 -0.7565
 6413TIP3    H140798   0.953   4.014   7.088  1.0327 -0.4626  2.9976
 6413TIP3    H240799   1.011   4.154   7.099 -0.0145  0.2767  0.0398
 6414TIP3   OH240800   4.665   4.576   2.594 -0.2205 -0.0958  0.3290
 6414TIP3    H140801   4.640   4.518   2.666  1.9181  0.4845  1.6214
 6414TIP3    H240802   4.732   4.633   2.632  2.1837 -0.8077 -2.5427
 6415TIP3   OH240803   0.932   3.689   8.021 -0.3018  0.0146  0.1942
 6415TIP3    H140804   0.966   3.702   7.933 -4.1671  0.1820 -1.4908
 6415TIP3    H240805   0.915   3.777   8.054  1.0653 -0.0497  1.1627
 6416TIP3   OH240806   0.719   1.252   3.505  0.1072  0.2287 -0.2089
 6416TIP3    H140807   0.745   1.331   3.457  2.3944  0.8990  1.8951
 6416TIP3    H240808   0.634   1.274   3.542  0.1545  1.2512 -0.6759
 6417TIP3   OH240809   1.991   1.206   2.236  0.1950 -0.0910 -0.0034
 6417TIP3    H140810   1.944   1.167   2.309  0.2286 -0.1817 -0.0311
 6417TIP3    H240811   2.025   1.132   2.186  0.9163 -0.0225  0.3739
 6418TIP3   OH240812   2.734   4.055   2.852  0.9250 -0.0404 -0.4060
 6418TIP3    H140813   2.714   4.044   2.759  0.3098  0.8637 -0.3900
 6418TIP3    H240814   2.808   4.115   2.855  0.7886  0.1242 -0.3070
 6419TIP3   OH240815   5.211   1.267   7.759 -0.0378 -0.0913 -0.4172
 6419TIP3    H140816   5.210   1.189   7.814 -2.0366  0.2460  0.1283
 6419TIP3    H240817   5.149   1.248   7.688  0.4872  0.4864 -1.0479
 6420TIP3   OH240818   6.542   6.819   1.341  0.2621 -0.0992  0.0639
 6420TIP3    H140819   6.583   6.734   1.329  2.3027  0.9061 -0.5467
 6420TIP3    H240820   6.461   6.815   1.290  1.7075 -0.7590 -2.3039
 6421TIP3   OH240821   1.615   0.981   1.691 -0.1644 -0.2020 -0.6946
 6421TIP3    H140822   1.598   1.072   1.713  1.7083 -0.2349  1.2569
 6421TIP3    H240823   1.528   0.944   1.671 -1.0744  1.7232 -0.4832
 6422TIP3   OH240824   6.117   3.015   8.518 -0.5079  0.3033 -0.3913
 6422TIP3    H140825   6.099   3.064   8.438 -0.3634  1.2504  0.1304
 6422TIP3    H240826   6.046   2.952   8.524 -2.4587  2.4140  0.4325
 6423TIP3   OH240827   6.158   4.246   0.051 -0.0569 -0.3078 -0.0208
 6423TIP3    H140828   6.098   4.277  -0.017 -1.2986 -1.6716  0.3908
 6423TIP3    H240829   6.168   4.152   0.034  1.5231 -0.2224  0.2744
 6424TIP3   OH240830   6.186   3.766   0.597  0.8478  0.0076  0.6685
 6424TIP3    H140831   6.266   3.805   0.560  0.7223  1.5276  1.9057
 6424TIP3    H240832   6.180   3.680   0.555  0.0318  1.9656 -3.9051
 6425TIP3   OH240833   2.717   1.381   8.302 -0.1478  0.5605 -0.1428
 6425TIP3    H140834   2.627   1.349   8.303 -0.6393  1.8061 -1.1114
 6425TIP3    H240835   2.752   1.353   8.218  0.7175 -0.7544  0.6268
 6426TIP3   OH240836   3.566   1.660   1.279 -0.3688 -0.0739  0.4457
 6426TIP3    H140837   3.644   1.636   1.328 -0.2690 -1.0506 -0.1560
 6426TIP3    H240838   3.568   1.756   1.275  0.4553 -0.0627  0.9819
 6427TIP3   OH240839   2.714   4.376   1.169 -0.4509  0.1828  0.0707
 6427TIP3    H140840   2.760   4.457   1.150  1.1792 -0.8189 -0.4972
 6427TIP3    H240841   2.685   4.345   1.083 -0.3042 -0.2457  0.1727
 6428TIP3   OH240842   6.892   0.493   8.080  0.0533 -0.3533 -0.3021
 6428TIP3    H140843   6.950   0.499   8.004 -1.0137 -1.4850 -1.2375
 6428TIP3    H240844   6.808   0.527   8.050  0.3087  1.8417  1.2106
 6429TIP3   OH240845   5.996   2.835   1.175 -0.3560  0.5085 -0.2188
 6429TIP3    H140846   5.972   2.795   1.259 -0.6085 -0.7285 -0.8659
 6429TIP3    H240847   6.042   2.766   1.128 -0.6179  1.0432 -1.2847
 6430TIP3   OH240848   3.180   2.490   2.765  0.3684  0.2589 -0.4562
 6430TIP3    H140849   3.214   2.577   2.744 -0.0955  0.4714 -0.3313
 6430TIP3    H240850   3.253   2.446   2.809  0.0755  1.1834  1.0121
 6431TIP3   OH240851   0.655   0.772   1.041 -0.5710  0.0489  0.4562
 6431TIP3    H140852   0.686   0.796   1.128  0.5743  0.8445 -0.1407
 6431TIP3    H240853   0.579   0.827   1.026  0.4040  1.3640  0.1926
 6432TIP3   OH240854   2.522   6.124   1.590  0.4033  0.2282 -0.5468
 6432TIP3    H140855   2.544   6.071   1.514  1.4925 -1.4710  0.8479
 6432TIP3    H240856   2.606   6.156   1.622  0.3783 -1.5550  1.5689
 6433TIP3   OH240857   0.761   1.599   0.152 -0.2321 -0.3943  0.9878
 6433TIP3    H140858   0.790   1.676   0.201 -0.4398  1.8115 -2.0704
 6433TIP3    H240859   0.692   1.632   0.094  0.8616 -2.4265 -1.6831
 6434TIP3   OH240860   6.192   4.564   1.070  0.1086  0.2944  0.0750
 6434TIP3    H140861   6.272   4.596   1.112 -0.5881  1.0020  0.8945
 6434TIP3    H240862   6.139   4.529   1.141 -0.6546  0.5747 -0.3427
 6435TIP3   OH240863   4.155   5.131   7.462  0.4560 -0.0073 -0.1586
 6435TIP3    H140864   4.168   5.211   7.411 -0.1331 -0.0836 -0.4366
 6435TIP3    H240865   4.139   5.162   7.552 -1.4545  0.2967 -0.5619
 6436TIP3   OH240866   5.332   1.913   2.391 -0.0131 -0.0274 -0.3589
 6436TIP3    H140867   5.410   1.910   2.446 -1.3859  2.2266  1.9502
 6436TIP3    H240868   5.262   1.942   2.450 -2.1247  0.2597 -2.8084
 6437TIP3   OH240869   2.260   5.799   0.244 -0.4298 -0.3634  0.2213
 6437TIP3    H140870   2.223   5.742   0.177  1.2788 -1.0938 -0.1663
 6437TIP3    H240871   2.233   5.759   0.327 -1.5710 -0.1141 -0.0078
 6438TIP3   OH240872   3.408   1.368   0.870  0.9043 -0.0724  0.8055
 6438TIP3    H140873   3.379   1.277   0.874  0.0934  0.2089  2.2495
 6438TIP3    H240874   3.463   1.379   0.947  0.3249  0.8508  1.1178
 6439TIP3   OH240875   6.446   2.726   8.151 -0.3764  0.1456  0.4042
 6439TIP3    H140876   6.505   2.740   8.225  0.3574 -2.6093  0.4566
 6439TIP3    H240877   6.361   2.708   8.191 -0.2305 -0.2373  0.5502
 6440TIP3   OH240878   2.227   0.562   1.915 -0.1580  0.5355 -0.2772
 6440TIP3    H140879   2.164   0.516   1.970 -0.8807  0.6533 -0.9962
 6440TIP3    H240880   2.175   0.599   1.844  0.6402  1.1377 -0.5597
 6441TIP3   OH240881   4.195   5.655   0.953 -0.4379  0.3947 -0.5351
 6441TIP3    H140882   4.235   5.650   0.866  1.5072  3.5707  0.0035
 6441TIP3    H240883   4.128   5.723   0.945 -0.6452  0.2967  0.2989
 6442TIP3   OH240884   5.401   6.048   0.151 -0.2477 -0.5737 -0.0386
 6442TIP3    H140885   5.462   6.023   0.081  2.2536  0.9323  1.4599
 6442TIP3    H240886   5.328   6.090   0.105  0.7907 -0.6043 -1.7927
 6443TIP3   OH240887   3.682   3.141   3.456  0.4395 -0.9705 -0.1591
 6443TIP3    H140888   3.656   3.204   3.522  0.9458 -1.9179  0.9711
 6443TIP3    H240889   3.599   3.109   3.419  0.1466 -0.6270  0.1970
 6444TIP3   OH240890   1.107   4.299   2.729  0.3687 -0.1942 -0.0879
 6444TIP3    H140891   1.022   4.335   2.704  0.7091  0.7806  0.1349
 6444TIP3    H240892   1.120   4.225   2.669 -0.5250 -0.2068 -0.2756
 6445TIP3   OH240893   4.127   4.745   0.946  0.0658  0.3433  0.1934
 6445TIP3    H140894   4.049   4.786   0.982 -1.4857 -1.1329 -1.2971
 6445TIP3    H240895   4.174   4.711   1.023 -0.6747  1.3564  1.1228
 6446TIP3   OH240896   1.473   3.875   2.338 -0.4745 -0.1207 -0.2625
 6446TIP3    H140897   1.469   3.937   2.411 -1.8204  0.2712 -0.6450
 6446TIP3    H240898   1.546   3.818   2.360 -0.6996  0.1353  1.2925
 6447TIP3   OH240899   1.712   2.416   0.248 -0.2074 -0.2465 -0.0424
 6447TIP3    H140900   1.777   2.351   0.223 -1.4106 -1.7891  0.6309
 6447TIP3    H240901   1.650   2.417   0.175 -0.7413 -0.6369  0.3963
 6448TIP3   OH240902   4.004   5.767   2.781  0.0136 -0.5070  0.3734
 6448TIP3    H140903   3.912   5.789   2.765 -0.1931 -1.8604 -0.3766
 6448TIP3    H240904   4.046   5.777   2.696  0.0238 -2.3931  0.1271
 6449TIP3   OH240905   0.128   5.466   1.865  0.0588  0.2836  0.3473
 6449TIP3    H140906   0.163   5.389   1.911  1.5990 -0.5373 -2.0279
 6449TIP3    H240907   0.164   5.540   1.913  1.0056 -0.5169  0.9264
 6450TIP3   OH240908   0.825   1.518   1.801 -0.0565  0.8032  0.0876
 6450TIP3    H140909   0.772   1.591   1.834 -0.4529  0.7504 -0.4197
 6450TIP3    H240910   0.914   1.552   1.802 -0.1325  0.9981  0.6665
 6451TIP3   OH240911   3.954   4.578   0.497 -0.6869  0.0069  0.3123
 6451TIP3    H140912   3.971   4.650   0.436 -0.2132 -0.4563 -0.1083
 6451TIP3    H240913   4.028   4.519   0.487 -0.8588 -0.3362  0.9653
 6452TIP3   OH240914   2.789   1.598   1.025  0.5227 -0.8305  0.5265
 6452TIP3    H140915   2.875   1.639   1.030 -0.8135  2.6588 -1.4352
 6452TIP3    H240916   2.768   1.598   0.932 -0.7751 -3.6893  0.7133
 6453TIP3   OH240917   2.209   3.275   7.540 -0.5331  0.3750 -0.7431
 6453TIP3    H140918   2.284   3.334   7.533 -0.2409  0.1077 -0.0630
 6453TIP3    H240919   2.237   3.195   7.495 -0.7849  0.6149 -1.3338
 6454TIP3   OH240920   5.472   3.206   1.045  0.1272 -0.1359  0.5375
 6454TIP3    H140921   5.451   3.241   1.132 -1.0604 -2.6201  1.3316
 6454TIP3    H240922   5.416   3.129   1.036 -1.4533  1.2130 -3.3428
 6455TIP3   OH240923   6.752   4.140   7.586 -0.0102  0.0082  0.3102
 6455TIP3    H140924   6.680   4.185   7.541  1.3231  0.7201 -1.2184
 6455TIP3    H240925   6.831   4.183   7.553  1.1281 -0.5830  2.1198
 6456TIP3   OH240926   3.408   1.728   2.657 -0.0736  0.1416  0.1114
 6456TIP3    H140927   3.411   1.743   2.752  0.3994 -1.1276  0.3243
 6456TIP3    H240928   3.314   1.728   2.636 -0.2126 -0.2200  0.6975
 6457TIP3   OH240929   6.673   1.551   3.370  0.5225  0.3971 -0.2088
 6457TIP3    H140930   6.641   1.462   3.386  2.2493 -0.2159  0.0197
 6457TIP3    H240931   6.740   1.564   3.437 -0.6773  2.4355  0.6734
 6458TIP3   OH240932   2.841   0.161   7.234 -0.4742  0.0178 -0.0463
 6458TIP3    H140933   2.922   0.145   7.185 -0.5362  0.9154 -0.4637
 6458TIP3    H240934   2.870   0.177   7.323 -0.2755 -0.5635  0.0027
 6459TIP3   OH240935   1.474   0.687   0.847  0.3061 -0.0664 -0.0176
 6459TIP3    H140936   1.382   0.712   0.852  0.4827  0.3556  1.4269
 6459TIP3    H240937   1.517   0.735   0.917  1.2265 -2.0162  0.8521
 6460TIP3   OH240938   2.689   2.375   0.666  0.1782 -0.0155 -0.0872
 6460TIP3    H140939   2.705   2.322   0.589  0.0929 -1.5617  0.9091
 6460TIP3    H240940   2.672   2.463   0.632 -0.2956 -0.7443 -1.8332
 6461TIP3   OH240941   6.878   2.319   1.096 -0.3298 -0.4463  0.4250
 6461TIP3    H140942   6.959   2.280   1.063  0.7797  2.0367 -0.0518
 6461TIP3    H240943   6.905   2.402   1.135 -2.7033  0.8892 -0.4972
 6462TIP3   OH240944   3.939   2.399   1.508 -0.2746 -0.5217 -0.1576
 6462TIP3    H140945   3.985   2.319   1.484  0.9702  0.6768 -2.0570
 6462TIP3    H240946   3.902   2.432   1.425 -0.4731  1.0313  0.5004
 6463TIP3   OH240947   5.610   1.530   7.422  0.4708  0.3884 -0.6849
 6463TIP3    H140948   5.593   1.499   7.333 -1.5379  1.3798 -0.7171
 6463TIP3    H240949   5.667   1.463   7.460 -0.6323 -1.3756 -1.9293
 6464TIP3   OH240950   3.388   6.605   8.165  0.7490  0.2896 -0.2069
 6464TIP3    H140951   3.371   6.695   8.194  2.8483  0.9368 -0.7736
 6464TIP3    H240952   3.431   6.564   8.240  4.3625  1.3684 -1.4525
 6465TIP3   OH240953   2.240   0.752   8.123  0.0375  0.1352 -0.3428
 6465TIP3    H140954   2.154   0.792   8.108 -0.0369  0.0379 -0.1872
 6465TIP3    H240955   2.277   0.801   8.197 -0.0740 -0.1077 -0.1211
 6466TIP3   OH240956   3.146   0.413   7.942 -0.3867  0.4417  0.3110
 6466TIP3    H140957   3.202   0.343   7.975 -0.0540  0.6647  0.2217
 6466TIP3    H240958   3.100   0.373   7.868  0.8055  0.7073 -0.5923
 6467TIP3   OH240959   1.505   6.740   2.388 -0.3070 -0.3442 -0.0577
 6467TIP3    H140960   1.462   6.655   2.381  0.5777 -0.6999 -1.6422
 6467TIP3    H240961   1.598   6.722   2.373 -0.1283  0.9047 -0.6296
 6468TIP3   OH240962   0.430   2.845   1.043  0.4156  0.4519  0.1850
 6468TIP3    H140963   0.510   2.893   1.023  0.0019  0.8205 -0.6121
 6468TIP3    H240964   0.361   2.911   1.042 -0.2611 -0.2182 -1.5542
 6469TIP3   OH240965   1.115   5.774   1.512  0.2074  0.1808  0.0021
 6469TIP3    H140966   1.183   5.708   1.497  0.4932  0.3442  0.5585
 6469TIP3    H240967   1.112   5.784   1.608 -0.8304 -0.0715  0.0025
 6470TIP3   OH240968   0.183   0.080   0.223 -0.5597  0.2371 -0.1652
 6470TIP3    H140969   0.151   0.028   0.297  2.0677  0.1200  1.0009
 6470TIP3    H240970   0.206   0.015   0.157  0.6123  0.0320  0.4194
 6471TIP3   OH240971   3.418   2.405   7.814 -0.1546  0.2603 -0.2616
 6471TIP3    H140972   3.334   2.423   7.856  0.2774 -0.2716  0.8703
 6471TIP3    H240973   3.396   2.384   7.723 -1.0982  1.5953 -0.3759
 6472TIP3   OH240974   5.133   3.445   0.111 -0.2398 -0.3392  0.4124
 6472TIP3    H140975   5.092   3.393   0.042  0.9089  1.3083 -1.6132
 6472TIP3    H240976   5.189   3.383   0.158 -0.1221 -1.2559 -0.8944
 6473TIP3   OH240977   3.094   1.489   1.116 -0.3412  1.5832 -0.2950
 6473TIP3    H140978   3.154   1.522   1.050 -1.0679  1.7600 -0.8815
 6473TIP3    H240979   3.035   1.430   1.068  1.1669 -0.9608  0.7795
 6474TIP3   OH240980   3.504   2.621   1.373  0.1641  0.2448  0.2203
 6474TIP3    H140981   3.449   2.543   1.376  2.7819 -1.7591 -0.3232
 6474TIP3    H240982   3.477   2.667   1.293 -0.0772 -1.1892 -0.5431
 6475TIP3   OH240983   6.291   5.865   0.818 -0.2217 -0.6670  0.7304
 6475TIP3    H140984   6.243   5.931   0.869 -0.6421 -0.6552  0.3259
 6475TIP3    H240985   6.225   5.826   0.761  0.0427 -1.3765  0.8972
 6476TIP3   OH240986   6.581   5.773   1.093  0.1187 -0.3191  0.2882
 6476TIP3    H140987   6.659   5.792   1.144  0.8315  0.0491 -0.8946
 6476TIP3    H240988   6.516   5.837   1.123 -0.2019 -1.4719  2.2205
 6477TIP3   OH240989   2.179   1.552   8.390 -0.0425 -0.0827 -0.2298
 6477TIP3    H140990   2.240   1.507   8.448 -1.2541 -1.9326 -0.2927
 6477TIP3    H240991   2.210   1.642   8.388  0.6521 -0.1631  2.4818
 6478TIP3   OH240992   6.166   6.103   0.878 -0.5659 -0.0840  0.1878
 6478TIP3    H140993   6.074   6.089   0.900  0.0550  1.5312  4.6146
 6478TIP3    H240994   6.175   6.197   0.869  0.5656 -0.2837 -1.2130
 6479TIP3   OH240995   4.956   3.836   3.073 -0.9911  0.3845  0.2432
 6479TIP3    H140996   5.011   3.791   3.136 -0.6342 -0.7577 -0.8358
 6479TIP3    H240997   4.907   3.900   3.125  1.2131  1.3629  1.2701
 6480TIP3   OH240998   4.189   0.362   2.995 -0.1664 -0.1080 -0.0409
 6480TIP3    H140999   4.147   0.344   2.911  0.4763  1.8143 -0.8116
 6480TIP3    H241000   4.278   0.328   2.985  0.7708  2.4304 -1.1844
 6481TIP3   OH241001   5.825   1.168   7.815  0.1276 -0.2291 -0.2451
 6481TIP3    H141002   5.888   1.191   7.747  0.6644 -1.0034 -0.0351
 6481TIP3    H241003   5.749   1.135   7.767  0.4700 -0.6962 -0.4753
 6482TIP3   OH241004   2.286   5.094   7.946  0.8708  0.0848 -0.1717
 6482TIP3    H141005   2.277   5.125   7.856  0.1309  1.2336  0.2772
 6482TIP3    H241006   2.197   5.080   7.977  1.0749  0.4839  0.6360
 6483TIP3   OH241007   2.677   3.414   0.880 -0.8988  0.4583  0.3690
 6483TIP3    H141008   2.757   3.448   0.922 -1.8397 -0.0716  2.7548
 6483TIP3    H241009   2.705   3.332   0.838 -0.0078  0.7653  0.3349
 6484TIP3   OH241010   2.925   2.536   2.030  0.3234 -0.3518 -0.5419
 6484TIP3    H141011   2.847   2.590   2.012 -0.3163 -0.9687  0.2741
 6484TIP3    H241012   2.897   2.447   2.010  0.9388 -0.5411 -0.5711
 6485TIP3   OH241013   3.190   4.841   7.703 -0.2107  0.5699  0.1585
 6485TIP3    H141014   3.117   4.893   7.738  0.1040  1.3170 -0.2828
 6485TIP3    H241015   3.152   4.754   7.688 -1.4033  1.2985 -1.3386
 6486TIP3   OH241016   1.103   0.109   7.657 -0.0190  0.4885 -0.0009
 6486TIP3    H141017   1.182   0.056   7.663 -2.1564 -2.9493  0.1469
 6486TIP3    H241018   1.074   0.098   7.566 -2.3945 -1.7504  0.9091
 6487TIP3   OH241019   5.820   1.979   0.829 -0.5023  0.0759  0.3322
 6487TIP3    H141020   5.793   2.009   0.915 -1.1204 -1.2854  0.6372
 6487TIP3    H241021   5.762   1.905   0.809  2.3178 -2.4493  0.6547
 6488TIP3   OH241022   6.019   1.782   7.871 -0.5581 -0.0663  0.4761
 6488TIP3    H141023   5.987   1.696   7.846  0.2627 -0.4301  0.6486
 6488TIP3    H241024   6.066   1.768   7.953  1.9014  0.0247 -0.8181
 6489TIP3   OH241025   0.623   1.609   7.896  0.5522 -0.5184 -0.1984
 6489TIP3    H141026   0.638   1.688   7.844 -2.4601 -0.2493 -0.8319
 6489TIP3    H241027   0.547   1.630   7.951  0.8822 -2.3392  1.0444
 6490TIP3   OH241028   3.779   1.696   2.056 -0.4202  0.4363  0.2743
 6490TIP3    H141029   3.696   1.702   2.009 -0.2723  0.7289  0.0457
 6490TIP3    H241030   3.772   1.617   2.109 -0.1375 -0.5677 -1.1372
 6491TIP3   OH241031   6.857   6.651   1.012 -0.0772 -0.0880 -0.8454
 6491TIP3    H141032   6.899   6.695   1.085  0.6815  0.3533 -1.5241
 6491TIP3    H241033   6.929   6.612   0.963 -0.6063 -0.7142 -1.1404
 6492TIP3   OH241034   0.204   0.158   2.108  0.2514 -0.0268  0.0114
 6492TIP3    H141035   0.240   0.212   2.037  0.5604 -0.9837 -0.5694
 6492TIP3    H241036   0.188   0.221   2.179  1.6610  0.6653 -0.2425
 6493TIP3   OH241037   3.022   5.227   2.015  0.3985  0.2052  0.6302
 6493TIP3    H141038   3.061   5.241   1.928 -0.9043  0.8488  0.1231
 6493TIP3    H241039   3.001   5.134   2.017  1.5150 -0.0581  0.7340
 6494TIP3   OH241040   1.238   1.588   0.728 -0.0525  0.2116 -0.2626
 6494TIP3    H141041   1.331   1.580   0.747 -0.0811  0.9669  0.2455
 6494TIP3    H241042   1.222   1.527   0.656  0.3861 -1.5148  1.0517
 6495TIP3   OH241043   3.637   4.028   2.736 -0.4897  0.1598 -0.0497
 6495TIP3    H141044   3.672   4.112   2.707 -1.7254  0.5412 -0.5006
 6495TIP3    H241045   3.673   4.016   2.824 -0.3606  1.1959  0.0504
 6496TIP3   OH241046   5.469   0.050   2.140  0.8620  0.1178 -0.7876
 6496TIP3    H141047   5.467   0.018   2.230  0.7879  1.9211 -0.0948
 6496TIP3    H241048   5.387   0.019   2.101 -0.2973  1.3770  0.5671
 6497TIP3   OH241049   2.326   3.054   1.842 -0.7514  0.5197  0.2837
 6497TIP3    H141050   2.403   3.110   1.841 -1.4398  1.4948 -0.1913
 6497TIP3    H241051   2.334   3.003   1.923 -0.1105  1.3110  0.7294
 6498TIP3   OH241052   1.117   6.847   1.274  0.1794 -0.1539 -0.4751
 6498TIP3    H141053   1.155   6.768   1.311  1.1096 -0.0601 -1.1679
 6498TIP3    H241054   1.095   6.823   1.184 -1.2096 -0.1303 -0.1525
 6499TIP3   OH241055   2.107   3.500   7.684 -0.5393  0.5132  0.0953
 6499TIP3    H141056   2.058   3.545   7.615 -0.1779  1.5910  0.5246
 6499TIP3    H241057   2.138   3.420   7.643  0.7257  1.7018 -1.3972
 6500TIP3   OH241058   0.449   4.887   2.657 -0.8785 -0.1334  0.4801
 6500TIP3    H141059   0.518   4.823   2.673  0.4659  1.1438 -0.0267
 6500TIP3    H241060   0.447   4.941   2.736 -0.7366  0.3347  0.1676
 6501TIP3   OH241061   3.493   3.390   1.608  0.4477 -0.6343  0.1139
 6501TIP3    H141062   3.415   3.364   1.657  2.7532 -3.4815  2.7343
 6501TIP3    H241063   3.527   3.466   1.654 -0.6342  0.5288 -0.9533
 6502TIP3   OH241064   1.529   3.739   1.374 -0.2033  0.0773 -0.0009
 6502TIP3    H141065   1.527   3.724   1.279 -1.5961  2.3265 -0.3865
 6502TIP3    H241066   1.456   3.688   1.408  0.9537 -1.6207  0.0741
 6503TIP3   OH241067   0.532   2.816   1.500  0.7142 -0.2076  0.0361
 6503TIP3    H141068   0.549   2.896   1.450 -0.6550 -0.1987 -0.4739
 6503TIP3    H241069   0.457   2.776   1.456 -1.3389  0.3882  2.7355
 6504TIP3   OH241070   4.732   0.706   1.822 -0.5409 -0.2713  0.1715
 6504TIP3    H141071   4.783   0.626   1.808  1.0287  0.8591 -0.7865
 6504TIP3    H241072   4.679   0.687   1.900  0.4932 -1.8853  0.5279
 6505TIP3   OH241073   3.491   4.884   2.020 -0.0846  0.6217 -0.4442
 6505TIP3    H141074   3.439   4.808   1.993  0.8825 -0.4954  0.6861
 6505TIP3    H241075   3.558   4.892   1.953  1.4393 -1.2438  0.7714
 6506TIP3   OH241076   0.776   2.924   0.146 -0.0606 -0.1527  0.5715
 6506TIP3    H141077   0.777   2.847   0.203  1.2132  0.7807  1.8804
 6506TIP3    H241078   0.770   2.889   0.057  1.7956 -1.8220  1.0484
 6507TIP3   OH241079   1.555   6.318   1.087 -0.1400 -0.0871 -0.5862
 6507TIP3    H141080   1.481   6.258   1.088  0.3141 -0.6724 -1.0606
 6507TIP3    H241081   1.518   6.403   1.113 -0.9093 -0.4302 -0.5356
 6508TIP3   OH241082   3.176   5.869   8.298 -0.2896  0.2237 -0.3549
 6508TIP3    H141083   3.244   5.911   8.246  0.7634 -0.0431  0.7554
 6508TIP3    H241084   3.221   5.842   8.378 -1.5342 -0.6628  0.0688
 6509TIP3   OH241085   6.105   5.986   1.604  0.0917  0.7226 -0.0196
 6509TIP3    H141086   6.054   5.913   1.640 -0.6934  0.5838 -1.3487
 6509TIP3    H241087   6.105   6.051   1.674 -1.7181  0.6261  0.1295
 6510TIP3   OH241088   0.252   2.122   1.287 -0.2024  0.3901  0.2381
 6510TIP3    H141089   0.193   2.046   1.291  1.3951 -0.9344 -0.2109
 6510TIP3    H241090   0.255   2.145   1.194  0.0746  0.3748  0.2426
 6511TIP3   OH241091   2.319   0.054   1.802  0.5744 -0.3002  0.0235
 6511TIP3    H141092   2.256   0.040   1.872  1.3497  0.4594  0.8936
 6511TIP3    H241093   2.361  -0.030   1.789 -0.9444 -0.9690 -0.9362
 6512TIP3   OH241094   5.380   2.816   2.247  0.3523 -0.5048 -0.2644
 6512TIP3    H141095   5.443   2.860   2.190  1.1484 -1.0683  0.1613
 6512TIP3    H241096   5.367   2.730   2.207 -1.2265  0.0952 -1.1121
 6513TIP3   OH241097   2.198   3.795   0.695  0.3875  0.0225 -0.0473
 6513TIP3    H141098   2.181   3.882   0.732 -0.2580  0.1608 -0.6417
 6513TIP3    H241099   2.173   3.803   0.603 -0.6188 -1.0453  0.1080
 6514TIP3   OH241100   5.197   2.987   2.335  0.2586  0.2507 -0.3646
 6514TIP3    H141101   5.271   2.929   2.317  1.1702  1.8150 -2.0664
 6514TIP3    H241102   5.238   3.071   2.355 -1.0022  0.3169  2.3755
 6515TIP3   OH241103   5.045   5.345   1.945 -0.3208 -0.2819  0.0621
 6515TIP3    H141104   5.095   5.293   2.009 -0.7201  0.3883  0.9444
 6515TIP3    H241105   4.960   5.360   1.988 -1.0494 -0.8440 -1.1400
 6516TIP3   OH241106   4.805   2.852   7.818 -0.4826  0.1691 -0.5066
 6516TIP3    H141107   4.780   2.770   7.776 -0.0154 -0.2382  0.0119
 6516TIP3    H241108   4.722   2.896   7.836 -0.8512 -1.0679  0.9942
 6517TIP3   OH241109   3.776   0.011   0.320  0.4123 -0.2075 -0.1020
 6517TIP3    H141110   3.733   0.095   0.303 -1.7675 -1.2656 -0.1324
 6517TIP3    H241111   3.718  -0.033   0.382  1.6473 -1.6015  0.1064
 6518TIP3   OH241112   0.474   3.861   1.399  0.0100 -0.3131  0.3104
 6518TIP3    H141113   0.568   3.856   1.383 -0.1188  1.3896 -1.2932
 6518TIP3    H241114   0.459   3.949   1.432 -1.1360 -0.1970 -0.4591
 6519TIP3   OH241115   3.753   3.586   7.677  0.2427  0.6733 -0.2389
 6519TIP3    H141116   3.746   3.670   7.633  0.2347 -0.9151 -3.5618
 6519TIP3    H241117   3.824   3.540   7.631  0.2725 -1.1485  1.4707
 6520TIP3   OH241118   1.228   1.375   2.547  0.4629 -0.0103  0.0443
 6520TIP3    H141119   1.253   1.439   2.481 -0.4861 -0.3663 -0.6802
 6520TIP3    H241120   1.133   1.380   2.551  0.2057 -2.4472 -1.1957
 6521TIP3   OH241121   3.522   1.563   2.175 -0.1377 -0.0097 -0.0646
 6521TIP3    H141122   3.612   1.533   2.189  0.0020  0.4271 -0.0201
 6521TIP3    H241123   3.493   1.513   2.099  0.5991  0.7803 -0.9006
 6522TIP3   OH241124   4.752   0.084   0.870 -0.2245  1.1580  0.3436
 6522TIP3    H141125   4.689   0.066   0.940  0.3705 -0.8755  0.4089
 6522TIP3    H241126   4.838   0.067   0.910  0.1145 -0.2444 -0.9117
 6523TIP3   OH241127   0.038   5.031   1.425  0.2630  0.7997 -0.5772
 6523TIP3    H141128   0.096   4.963   1.390  0.2968  0.9960 -0.9002
 6523TIP3    H241129  -0.048   4.989   1.426  0.3101  0.6996 -0.6320
 6524TIP3   OH241130   2.232   4.306   2.641 -0.8798 -0.0335  0.3272
 6524TIP3    H141131   2.179   4.377   2.604 -0.1342  0.6557  0.5597
 6524TIP3    H241132   2.296   4.286   2.573  0.0372  0.7438  0.9372
 6525TIP3   OH241133   4.210   3.994   0.125  0.5637  0.1625 -0.0282
 6525TIP3    H141134   4.215   4.087   0.107 -1.9951  0.4180  0.2304
 6525TIP3    H241135   4.141   3.986   0.191  0.8912 -1.8947  0.1314
 6526TIP3   OH241136   5.225   5.251   1.767 -0.1315 -0.0874  0.1041
 6526TIP3    H141137   5.154   5.286   1.820  0.7412 -0.9748  1.9718
 6526TIP3    H241138   5.220   5.299   1.685 -0.9309  2.0945  1.3459
 6527TIP3   OH241139   2.140   6.888   1.469  0.1354  0.5474 -0.1564
 6527TIP3    H141140   2.095   6.941   1.404  0.3526  0.8541 -0.0614
 6527TIP3    H241141   2.233   6.912   1.459  0.3539 -0.4841 -0.7382
 6528TIP3   OH241142   6.316   4.432   2.782  0.0633  0.2203 -0.2910
 6528TIP3    H141143   6.318   4.527   2.790  1.7874  0.2041 -0.2902
 6528TIP3    H241144   6.278   4.417   2.695 -0.1082  0.9105 -0.3441
 6529TIP3   OH241145   6.621   5.163   0.634  0.3265 -0.2305 -0.1395
 6529TIP3    H141146   6.559   5.106   0.681 -1.4293 -0.4954 -2.5665
 6529TIP3    H241147   6.597   5.152   0.542  2.6951  1.2960 -1.0085
 6530TIP3   OH241148   0.167   0.299   2.360  0.1797 -0.0286 -0.1047
 6530TIP3    H141149   0.073   0.280   2.369  0.1186 -0.1224 -0.8281
 6530TIP3    H241150   0.209   0.244   2.425 -0.1987 -0.7172 -0.4279
 6531TIP3   OH241151   2.074   6.327   2.726 -0.2168  0.1457 -0.4906
 6531TIP3    H141152   2.153   6.305   2.775  0.4766  1.5115 -0.9040
 6531TIP3    H241153   2.022   6.247   2.725  1.2116 -0.8238 -0.2824
 6532TIP3   OH241154   5.021   5.050   8.512 -0.0394  0.0771 -0.7215
 6532TIP3    H141155   5.055   5.110   8.578 -1.7783 -0.4543  0.7498
 6532TIP3    H241156   4.976   5.106   8.449  0.8705  0.5221 -0.9887
 6533TIP3   OH241157   6.317   6.726   1.218  0.2747  0.0357 -0.6958
 6533TIP3    H141158   6.287   6.752   1.131 -0.8786  0.8395 -0.0897
 6533TIP3    H241159   6.252   6.762   1.278  0.1231 -1.8999  0.4149
 6534TIP3   OH241160   4.667   5.866   0.892  0.5421 -0.3566  0.4587
 6534TIP3    H141161   4.656   5.795   0.956  2.6478 -1.2061 -0.0503
 6534TIP3    H241162   4.709   5.936   0.940 -2.4159  1.0482  1.2164
 6535TIP3   OH241163   1.181   4.058   2.607  0.4359 -0.3728 -0.7845
 6535TIP3    H141164   1.266   4.062   2.563  0.8322  0.5401  0.0462
 6535TIP3    H241165   1.196   4.002   2.684  0.2846 -0.1932 -0.6242
 6536TIP3   OH241166   1.736   1.555   1.365 -0.5558  0.0612  0.1530
 6536TIP3    H141167   1.778   1.532   1.282 -1.3070 -2.0612  0.2968
 6536TIP3    H241168   1.798   1.525   1.432 -0.7470  0.1184  0.3588
 6537TIP3   OH241169   0.809   4.778   3.353  0.3650  0.1790  0.2298
 6537TIP3    H141170   0.874   4.772   3.283  1.1796 -2.0754  1.0765
 6537TIP3    H241171   0.857   4.815   3.427 -0.1075  1.2081  0.0299
 6538TIP3   OH241172   1.112   4.593   0.527 -0.0760  0.7174  0.1692
 6538TIP3    H141173   1.198   4.558   0.548  0.8507  1.7346 -1.6602
 6538TIP3    H241174   1.051   4.535   0.572  1.4397 -1.9556 -0.9888
 6539TIP3   OH241175   0.019   1.823   3.397 -0.0865  0.3177 -0.0284
 6539TIP3    H141176  -0.005   1.796   3.309  1.0627  0.4041 -0.3800
 6539TIP3    H241177   0.022   1.741   3.447 -2.0963  0.3913  0.3113
 6540TIP3   OH241178   0.111   2.063   0.518 -0.5323 -0.3848  0.0298
 6540TIP3    H141179   0.103   2.152   0.483  0.0748 -0.5934 -0.6719
 6540TIP3    H241180   0.092   2.072   0.611  0.6811  0.6909  0.2067
 6541TIP3   OH241181   1.355   1.563   1.369  0.0337  0.5920 -0.0845
 6541TIP3    H141182   1.294   1.490   1.381 -0.6281  1.1104 -0.2176
 6541TIP3    H241183   1.318   1.613   1.296  0.7055  0.8330 -0.2633
 6542TIP3   OH241184   0.929   6.740   0.778  0.2709 -0.1646  0.2223
 6542TIP3    H141185   0.851   6.768   0.730 -0.5113 -0.0518  1.4939
 6542TIP3    H241186   0.994   6.808   0.761 -0.1508  0.1237 -0.2698
 6543TIP3   OH241187   1.566   0.500   0.426 -0.3096 -0.5370 -0.0295
 6543TIP3    H141188   1.617   0.511   0.345 -0.2399 -2.8106 -0.3548
 6543TIP3    H241189   1.585   0.579   0.477  2.3415 -0.5755 -0.7932
 6544TIP3   OH241190   2.193   3.786   1.611 -0.1158  0.3027 -0.4439
 6544TIP3    H141191   2.208   3.881   1.611  1.0392  0.1922 -2.4799
 6544TIP3    H241192   2.238   3.754   1.689 -0.0689  1.3607 -0.0211
 6545TIP3   OH241193   0.023   3.688   1.872  0.1509 -0.8408 -0.1309
 6545TIP3    H141194   0.037   3.783   1.869 -0.5626 -0.6806  1.0234
 6545TIP3    H241195   0.110   3.651   1.858  0.6204  0.0015  0.4542
 6546TIP3   OH241196   1.341   5.174   0.752  0.0328 -0.2023 -0.4311
 6546TIP3    H141197   1.345   5.217   0.666 -0.7048 -0.0046 -0.3782
 6546TIP3    H241198   1.267   5.113   0.744 -0.9324  0.8065  0.4935
 6547TIP3   OH241199   0.910   6.417   1.969 -0.3248 -0.3883 -0.2633
 6547TIP3    H141200   0.927   6.509   1.987 -0.4414 -0.5569  0.7342
 6547TIP3    H241201   0.996   6.376   1.964 -0.3096 -0.5293  0.9667
 6548TIP3   OH241202   3.078   2.833   0.240  0.1751  0.2416  0.3660
 6548TIP3    H141203   3.105   2.777   0.168 -0.7674  0.8709 -0.5063
 6548TIP3    H241204   3.144   2.819   0.308  2.1664  1.0529 -1.3068
 6549TIP3   OH241205   2.369   5.487   1.465  0.8879 -0.1021  0.5053
 6549TIP3    H141206   2.413   5.534   1.536 -1.3048 -0.2309  2.0767
 6549TIP3    H241207   2.434   5.424   1.434  2.3690  0.8820  1.4618
 6550TIP3   OH241208   4.955   5.839   8.480  0.6454 -0.2696  0.0412
 6550TIP3    H141209   4.914   5.755   8.502 -1.1782  0.5715  0.0762
 6550TIP3    H241210   4.903   5.872   8.407  2.0507  0.3262 -0.7177
 6551TIP3   OH241211   0.466   4.284   2.187 -0.1424  0.3374  0.3802
 6551TIP3    H141212   0.436   4.282   2.278 -0.6516  2.6164  0.3184
 6551TIP3    H241213   0.389   4.309   2.136  0.1430 -0.8833 -0.7171
 6552TIP3   OH241214   1.059   4.128   7.522  0.3715 -0.4206 -0.8847
 6552TIP3    H141215   1.118   4.091   7.588 -1.6864 -0.6531  0.9254
 6552TIP3    H241216   1.093   4.215   7.505 -0.3998  0.6825  2.4686
 6553TIP3   OH241217   5.776   5.541   1.496 -0.7600  0.1326  0.5688
 6553TIP3    H141218   5.708   5.584   1.444  0.1771  2.1421  0.9044
 6553TIP3    H241219   5.847   5.526   1.434 -0.2591  1.0849  0.8843
 6554TIP3   OH241220   2.091   3.372   0.615  0.1109  0.2438  0.1640
 6554TIP3    H141221   2.067   3.398   0.704 -1.2779 -1.0622  0.2295
 6554TIP3    H241222   2.185   3.360   0.617  0.0694  0.0168  1.5332
 6555TIP3   OH241223   5.107   3.879   0.675 -0.4229 -0.4819  0.4510
 6555TIP3    H141224   5.069   3.967   0.676 -0.0954 -0.3259 -0.2217
 6555TIP3    H241225   5.126   3.863   0.582  0.2664 -0.9360  0.6685
 6556TIP3   OH241226   1.427   2.120   1.072  0.2473 -0.0669  0.1366
 6556TIP3    H141227   1.392   2.149   1.156 -0.6651  1.1790 -0.6290
 6556TIP3    H241228   1.519   2.148   1.073 -0.1490  1.2885  0.1466
 6557TIP3   OH241229   1.723   5.111   8.479  0.3081 -0.1799  0.6977
 6557TIP3    H141230   1.713   5.195   8.434  0.1709 -0.6012 -0.0832
 6557TIP3    H241231   1.681   5.124   8.564 -0.3700  0.3209  0.3005
 6558TIP3   OH241232   0.787   6.350   7.509 -0.6090  0.2703 -0.0303
 6558TIP3    H141233   0.759   6.275   7.562 -0.8734 -0.0133 -0.5717
 6558TIP3    H241234   0.869   6.379   7.551 -0.1265 -0.7500 -0.2316
 6559TIP3   OH241235   0.061   2.958   1.794 -0.5163  0.0793 -0.1721
 6559TIP3    H141236   0.055   2.900   1.870  3.5981 -0.2865  0.0555
 6559TIP3    H241237   0.091   2.902   1.723 -0.5530  1.1515 -1.0626
 6560TIP3   OH241238   0.608   2.531   1.739  0.2473 -0.7942  0.0057
 6560TIP3    H141239   0.691   2.483   1.748  0.2010 -0.9871 -0.5430
 6560TIP3    H241240   0.634   2.623   1.741  0.4687 -0.8527 -0.0885
 6561TIP3   OH241241   1.595   2.658   1.787  0.3972 -0.1949  0.2089
 6561TIP3    H141242   1.575   2.653   1.694  1.6322  2.7498 -0.3433
 6561TIP3    H241243   1.510   2.680   1.828 -0.2061 -1.7885 -0.1318
 6562TIP3   OH241244   1.358   1.727   7.992  0.1368  0.1140  0.4780
 6562TIP3    H141245   1.329   1.816   7.978  0.6146  0.2010  0.0311
 6562TIP3    H241246   1.428   1.734   8.057  0.9141  0.1928 -0.3463
 6563TIP3   OH241247   3.048   1.483   8.049 -0.3848  0.8004  0.0968
 6563TIP3    H141248   3.141   1.476   8.024 -0.0203  0.8310  1.3660
 6563TIP3    H241249   3.009   1.401   8.020  0.1059  0.6663 -0.1930
 6564TIP3   OH241250   5.226   4.735   2.506  0.4845  0.5247 -0.3499
 6564TIP3    H141251   5.176   4.752   2.426 -0.1030 -0.2753 -0.1636
 6564TIP3    H241252   5.173   4.673   2.555  0.7258  1.2074  0.7946
 6565TIP3   OH241253   3.708   1.394   8.386  0.0205  0.0951 -0.8528
 6565TIP3    H141254   3.661   1.474   8.366 -1.7237 -1.0042 -1.3470
 6565TIP3    H241255   3.717   1.350   8.301  2.1474  0.3480 -0.8094
 6566TIP3   OH241256   5.474   6.524   8.256  0.5117  0.4454 -0.3981
 6566TIP3    H141257   5.424   6.589   8.306  0.2661 -0.7357  0.9414
 6566TIP3    H241258   5.411   6.490   8.192  0.3153  0.7232 -0.3553
 6567TIP3   OH241259   4.286   2.959   1.354  0.7614  0.4421  0.2937
 6567TIP3    H141260   4.323   2.972   1.441  0.2919 -1.2790  0.7941
 6567TIP3    H241261   4.193   2.977   1.364  0.2514 -2.1114  0.8056
 6568TIP3   OH241262   1.898   3.865   1.155 -0.7551 -0.8841 -0.1856
 6568TIP3    H141263   1.897   3.854   1.251 -0.1074  0.1084 -0.0554
 6568TIP3    H241264   1.827   3.926   1.137 -0.9044 -1.1036 -0.3510
 6569TIP3   OH241265   0.778   4.205   2.196 -0.4600 -0.4263 -0.0305
 6569TIP3    H141266   0.829   4.155   2.260 -1.6294  0.5265  1.7262
 6569TIP3    H241267   0.843   4.251   2.143  0.5422 -0.9433  0.7266
 6570TIP3   OH241268   6.440   6.790   0.752 -0.7774 -0.1049  0.0493
 6570TIP3    H141269   6.483   6.720   0.704 -1.7705 -0.1031 -0.8761
 6570TIP3    H241270   6.493   6.801   0.831  0.3625 -0.7235 -0.6042
 6571TIP3   OH241271   3.707   1.370   7.663  0.5804 -0.2794  0.5067
 6571TIP3    H141272   3.659   1.452   7.660  2.6550  1.0024  0.0931
 6571TIP3    H241273   3.659   1.316   7.726 -1.6186  0.6851 -0.2422
 6572TIP3   OH241274   4.895   1.342   0.223  0.1130 -0.0889 -0.0835
 6572TIP3    H141275   4.806   1.345   0.259 -0.2478  0.0457 -0.9697
 6572TIP3    H241276   4.943   1.285   0.283 -0.9029 -1.2397 -0.3324
 6573TIP3   OH241277   6.571   1.623   7.775 -0.9239 -0.1282  0.1408
 6573TIP3    H141278   6.624   1.698   7.804 -2.6101  1.7511 -1.2991
 6573TIP3    H241279   6.588   1.617   7.681 -0.9579 -1.4594  0.2111
 6574TIP3   OH241280   0.191   3.000   0.664  0.0538  0.1421  0.5795
 6574TIP3    H141281   0.119   2.974   0.721  0.0309 -0.1547  0.4162
 6574TIP3    H241282   0.266   2.950   0.696  0.0991  0.1617  0.5048
 6575TIP3   OH241283   5.343   4.071   0.777  0.7012 -0.3537 -0.5497
 6575TIP3    H141284   5.374   3.998   0.832 -0.0606 -0.3971 -0.1598
 6575TIP3    H241285   5.325   4.030   0.693  0.4659 -0.5836 -0.3913
 6576TIP3   OH241286   5.023   4.660   1.233 -0.2926  0.3069  0.1567
 6576TIP3    H141287   4.971   4.631   1.308  0.0368 -2.9806 -0.7545
 6576TIP3    H241288   4.966   4.646   1.158 -0.5928  3.4969 -0.3578
 6577TIP3   OH241289   3.275   1.627   8.564 -0.2241  0.1501 -0.0841
 6577TIP3    H141290   3.296   1.668   8.480 -0.2225 -1.6734 -1.0199
 6577TIP3    H241291   3.185   1.595   8.554  0.8292 -3.0078 -0.7097
 6578TIP3   OH241292   4.714   1.654   8.116  0.2161 -0.1881  0.2468
 6578TIP3    H141293   4.803   1.640   8.082 -0.5651 -1.0578 -1.5879
 6578TIP3    H241294   4.704   1.589   8.185  0.2970 -1.5496 -0.9887
 6579TIP3   OH241295   6.101   5.966   1.331 -0.5332  0.3134 -0.4734
 6579TIP3    H141296   6.116   6.056   1.304  0.6111  0.3057  0.0747
 6579TIP3    H241297   6.104   5.969   1.427 -1.3694 -0.1660 -0.4270
 6580TIP3   OH241298   1.377   4.520   0.890  0.6209 -0.7541  0.0675
 6580TIP3    H141299   1.408   4.586   0.953 -0.5499 -0.2170  0.1054
 6580TIP3    H241300   1.387   4.562   0.805  3.1787 -1.8580 -0.2595
 6581TIP3   OH241301   2.413   0.752   1.793 -0.0009  0.7477  0.0044
 6581TIP3    H141302   2.368   0.684   1.842  0.8822 -0.9379 -1.3974
 6581TIP3    H241303   2.495   0.766   1.840  1.9575 -2.5661 -2.0095
 6582TIP3   OH241304   0.483   4.395   7.153  0.2452  0.5943  0.1577
 6582TIP3    H141305   0.481   4.342   7.073  1.0605 -0.4914  0.8285
 6582TIP3    H241306   0.400   4.375   7.197  0.6268 -0.3001  0.4976
 6583TIP3   OH241307   3.470   4.002   1.939 -0.8645 -0.0581  0.1999
 6583TIP3    H141308   3.522   3.926   1.963  1.3895  0.7486 -1.7604
 6583TIP3    H241309   3.381   3.968   1.927 -0.2671 -2.0222  1.0013
 6584TIP3   OH241310   3.416   0.236   2.326  0.2659 -0.2232 -0.0099
 6584TIP3    H141311   3.490   0.175   2.330  0.5236  0.0106 -1.0620
 6584TIP3    H241312   3.363   0.206   2.253 -1.5209 -1.2720  1.6101
 6585TIP3   OH241313   5.553   1.651   2.284 -0.0231  0.0668  0.1347
 6585TIP3    H141314   5.466   1.647   2.323 -0.2030  1.0119 -0.1480
 6585TIP3    H241315   5.595   1.725   2.328  0.7581 -0.5737  0.4968
 6586TIP3   OH241316   6.265   2.988   0.893  0.5844  0.7486 -0.4357
 6586TIP3    H141317   6.339   2.928   0.894  1.6163  1.9594  0.8974
 6586TIP3    H241318   6.301   3.070   0.927 -1.4025  1.3518  0.3503
 6587TIP3   OH241319   4.778   6.258   0.703  0.1795  0.2333  0.4865
 6587TIP3    H141320   4.709   6.285   0.763  0.2631  0.1163  0.6364
 6587TIP3    H241321   4.817   6.340   0.672  0.6901  0.2900  1.2343
 6588TIP3   OH241322   4.282   2.586   1.945  0.3139 -0.0421 -0.2992
 6588TIP3    H141323   4.335   2.520   1.989 -0.7498 -0.3484  0.5749
 6588TIP3    H241324   4.194   2.576   1.983  0.2761  2.3865  0.4706
 6589TIP3   OH241325   0.689   1.440   2.893 -0.3239  0.9174  0.0498
 6589TIP3    H141326   0.605   1.395   2.892 -0.3304  0.9224 -1.9462
 6589TIP3    H241327   0.754   1.371   2.900 -0.4235  0.7628 -0.5341
 6590TIP3   OH241328   6.237   2.732   1.516 -0.5109  0.0758 -0.4695
 6590TIP3    H141329   6.143   2.749   1.529 -0.2036  2.3662 -0.9404
 6590TIP3    H241330   6.274   2.734   1.604 -0.7900 -0.2720 -0.3366
 6591TIP3   OH241331   2.277   3.734   7.698 -0.5029 -0.0339 -0.3699
 6591TIP3    H141332   2.318   3.722   7.612  1.1971 -0.0174  0.3949
 6591TIP3    H241333   2.220   3.658   7.708 -0.7877  0.0021 -1.5260
 6592TIP3   OH241334   2.134   0.386   0.709 -0.3812  0.2251  0.6093
 6592TIP3    H141335   2.104   0.466   0.753 -3.1258 -0.8750  0.8823
 6592TIP3    H241336   2.130   0.318   0.777  0.1333 -0.5326 -0.1019
 6593TIP3   OH241337   2.079   3.216   1.528 -0.3402  0.2239 -0.0763
 6593TIP3    H141338   2.120   3.238   1.445  2.0609  0.1572  1.0246
 6593TIP3    H241339   2.068   3.121   1.526 -0.1830  0.2109 -0.2640
 6594TIP3   OH241340   5.759   2.955   7.623 -0.2977  0.2749 -0.2735
 6594TIP3    H141341   5.679   2.919   7.661 -1.1970  1.5277 -0.9116
 6594TIP3    H241342   5.807   2.879   7.592 -0.9968 -0.5389  0.5574
 6595TIP3   OH241343   1.183   0.798   0.599 -0.6833  0.1644  0.1607
 6595TIP3    H141344   1.092   0.816   0.578 -0.9674  0.3085  1.4500
 6595TIP3    H241345   1.211   0.872   0.654 -0.3517 -0.7708  1.2922
 6596TIP3   OH241346   5.570   0.864   0.576  0.2951 -0.5137  0.3659
 6596TIP3    H141347   5.650   0.816   0.598  0.9007  0.1646 -0.2549
 6596TIP3    H241348   5.556   0.923   0.650  0.4796 -0.5049  0.3940
 6597TIP3   OH241349   6.683   3.145   2.443  0.0436 -0.0839 -0.4435
 6597TIP3    H141350   6.664   3.126   2.352 -0.3706 -0.8803 -0.1989
 6597TIP3    H241351   6.737   3.224   2.440 -0.1763  0.0446 -1.3559
 6598TIP3   OH241352   0.845   5.143   8.333 -0.3657 -0.1247 -0.9843
 6598TIP3    H141353   0.788   5.203   8.381 -2.4901 -1.9301 -1.1055
 6598TIP3    H241354   0.861   5.186   8.250 -0.5279  0.9459 -0.4784
 6599TIP3   OH241355   1.553   2.937   0.838 -0.0220 -0.1921 -0.2198
 6599TIP3    H141356   1.488   2.867   0.832 -0.6523  0.3360  0.3820
 6599TIP3    H241357   1.629   2.895   0.878  0.4387 -1.0907 -1.9323
 6600TIP3   OH241358   5.575   2.965   2.104  0.2189  0.1865  0.5283
 6600TIP3    H141359   5.665   2.979   2.074 -0.1353  1.4679 -0.0060
 6600TIP3    H241360   5.522   2.977   2.025 -0.4790  0.1847  0.9873
 6601TIP3   OH241361   2.877   0.946   2.371 -0.4090 -0.4793  0.0616
 6601TIP3    H141362   2.787   0.946   2.338 -0.3633  1.2557 -0.1654
 6601TIP3    H241363   2.926   0.894   2.307 -1.4450 -2.5805  0.8881
 6602TIP3   OH241364   4.283   6.539   8.243 -0.6064  0.0010  0.5741
 6602TIP3    H141365   4.231   6.493   8.308  0.2749 -2.4875 -0.3793
 6602TIP3    H241366   4.233   6.529   8.161 -1.2885  2.3627  0.6293
 6603TIP3   OH241367   2.252   0.646   7.622 -0.7096  0.1350 -0.3197
 6603TIP3    H141368   2.238   0.551   7.620  0.8098 -0.1621  1.2417
 6603TIP3    H241369   2.330   0.660   7.567  2.1360 -0.2414  3.2732
 6604TIP3   OH241370   6.407   5.612   2.258 -0.5964 -0.6709 -0.4183
 6604TIP3    H141371   6.385   5.589   2.167 -1.3203 -2.1674  0.0986
 6604TIP3    H241372   6.375   5.538   2.310  0.7726 -0.3554  0.9602
 6605TIP3   OH241373   5.062   2.757   1.484 -0.5186  0.0107  0.0298
 6605TIP3    H141374   5.123   2.777   1.556  0.5764 -1.2208 -0.5030
 6605TIP3    H241375   5.117   2.758   1.406 -1.2939 -0.5802 -0.5341
 6606TIP3   OH241376   4.213   4.398   0.566 -0.9617  0.2200 -0.6404
 6606TIP3    H141377   4.187   4.425   0.654 -1.3347 -0.1323 -0.6375
 6606TIP3    H241378   4.308   4.404   0.566 -0.9790  0.5334 -0.3169
 6607TIP3   OH241379   1.787   6.642   1.025 -0.0559 -0.5361  0.5136
 6607TIP3    H141380   1.702   6.676   0.995 -0.3242 -1.1609  0.5502
 6607TIP3    H241381   1.835   6.719   1.054 -0.4248 -0.1159  0.0290
 6608TIP3   OH241382   1.412   0.024   8.020  1.1229 -0.0282  0.1765
 6608TIP3    H141383   1.338   0.084   8.028  0.9426 -0.4148  1.8864
 6608TIP3    H241384   1.372  -0.060   8.000  1.3612  0.3320 -2.0141
 6609TIP3   OH241385   1.216   2.064   8.528 -1.1794  0.3072  0.0171
 6609TIP3    H141386   1.174   2.131   8.581 -1.6776 -0.8041  1.0509
 6609TIP3    H241387   1.165   1.984   8.544 -0.9221 -0.2218 -1.5925
 6610TIP3   OH241388   0.206   5.772   1.715  0.1363 -0.1226  0.0896
 6610TIP3    H141389   0.177   5.705   1.653  0.1197 -0.7802  0.7868
 6610TIP3    H241390   0.287   5.738   1.751  0.0699  0.1832  0.5339
 6611TIP3   OH241391   3.009   2.875   1.851 -0.1261 -0.2612  0.3149
 6611TIP3    H141392   3.019   2.932   1.774  1.9479 -0.0003  0.7344
 6611TIP3    H241393   2.925   2.831   1.836 -0.9735  1.6049 -0.8724
 6612TIP3   OH241394   2.577   1.159   2.439 -0.1396 -0.8496  0.2366
 6612TIP3    H141395   2.661   1.115   2.426 -0.3358 -0.6572 -2.1456
 6612TIP3    H241396   2.512   1.095   2.408 -0.5623  0.3005 -1.4003
 6613TIP3   OH241397   1.571   6.709   0.112  0.1299 -0.7381 -0.0431
 6613TIP3    H141398   1.522   6.643   0.064  0.2908 -0.1483 -1.0546
 6613TIP3    H241399   1.615   6.761   0.044  0.7757 -0.1914  0.7621
 6614TIP3   OH241400   1.103   1.065   0.074  0.6136  0.3476 -0.5759
 6614TIP3    H141401   1.079   1.124   0.146  1.6884  2.0030 -1.5053
 6614TIP3    H241402   1.197   1.082   0.060  0.1426  1.1412 -3.2845
 6615TIP3   OH241403   4.360   2.711   0.877 -0.2596  0.3864 -0.4393
 6615TIP3    H141404   4.356   2.678   0.967 -0.0158  1.3382 -0.0744
 6615TIP3    H241405   4.310   2.793   0.879 -0.1291  0.4838 -1.1376
 6616TIP3   OH241406   6.386   0.612   2.842 -0.1534  0.3208 -0.0815
 6616TIP3    H141407   6.420   0.591   2.929  0.5142  0.4968 -0.2886
 6616TIP3    H241408   6.452   0.670   2.804 -0.7460  0.7536 -0.4685
 6617TIP3   OH241409   0.322   3.036   2.045  0.1837 -0.7439 -0.3864
 6617TIP3    H141410   0.371   3.039   1.963 -0.8897  0.8818 -1.0171
 6617TIP3    H241411   0.386   3.059   2.112  0.2371  2.0677 -1.2652
 6618TIP3   OH241412   0.889   4.675   2.338  0.0547  0.1279  0.0433
 6618TIP3    H141413   0.853   4.752   2.383  1.3587  1.1217 -0.5233
 6618TIP3    H241414   0.816   4.642   2.285 -0.2298  1.7031 -0.6033
 6619TIP3   OH241415   1.291   0.868   0.199  0.0313 -0.1377  0.6880
 6619TIP3    H141416   1.383   0.895   0.208 -0.1800  1.0430 -0.4084
 6619TIP3    H241417   1.283   0.840   0.108 -0.4999 -1.0864  1.0199
 6620TIP3   OH241418   6.277   2.424   2.750 -0.3227  0.4302  0.1756
 6620TIP3    H141419   6.261   2.394   2.839 -1.0073  1.0412  0.2692
 6620TIP3    H241420   6.362   2.386   2.727 -0.1991  0.1602  1.0342
 6621TIP3   OH241421   0.521   1.318   2.195  0.3645  0.3073 -0.2232
 6621TIP3    H141422   0.452   1.276   2.143  1.4141  0.7891 -2.1054
 6621TIP3    H241423   0.476   1.351   2.273 -0.7045 -3.4841  1.0056
 6622TIP3   OH241424   0.970   1.604   0.740  0.0465 -0.2806 -0.3990
 6622TIP3    H141425   1.065   1.606   0.748  0.1469  1.0574 -1.5404
 6622TIP3    H241426   0.941   1.691   0.771 -0.9748 -1.2031  1.4473
 6623TIP3   OH241427   2.865   2.695   8.154  0.3397 -0.2400  0.6043
 6623TIP3    H141428   2.834   2.770   8.103  1.0391 -0.8722 -0.8286
 6623TIP3    H241429   2.814   2.698   8.235 -1.4957  0.3013 -0.4984
 6624TIP3   OH241430   4.873   3.533   1.260 -0.3391 -0.2158 -0.7345
 6624TIP3    H141431   4.951   3.553   1.207 -0.4001 -0.8717 -1.0806
 6624TIP3    H241432   4.897   3.454   1.309 -0.9570 -0.7188 -1.2203
 6625TIP3   OH241433   4.857   1.607   8.462 -0.1600  0.4018 -0.0744
 6625TIP3    H141434   4.856   1.703   8.463  0.6633  0.4205  1.0328
 6625TIP3    H241435   4.943   1.584   8.499  0.4932 -0.7639 -2.1559
 6626TIP3   OH241436   3.434   6.285   2.530 -0.3480  0.0370  0.5509
 6626TIP3    H141437   3.341   6.269   2.541 -0.2513 -0.9696  0.0994
 6626TIP3    H241438   3.444   6.380   2.535 -1.4351  0.1735  0.2717
 6627TIP3   OH241439   2.094   0.556   3.477 -0.0080  0.1535  0.2490
 6627TIP3    H141440   2.021   0.534   3.419 -0.3729  1.7409  0.0408
 6627TIP3    H241441   2.103   0.480   3.535  0.0852 -1.2949 -1.5787
 6628TIP3   OH241442   5.454   5.147   1.812  0.0957 -0.1623  0.2997
 6628TIP3    H141443   5.514   5.195   1.755  1.5688 -0.3604  1.6376
 6628TIP3    H241444   5.367   5.167   1.777  0.9648 -1.7717 -3.1900
 6629TIP3   OH241445   1.339   1.136   3.197 -0.0030 -0.0453  0.4027
 6629TIP3    H141446   1.410   1.105   3.141  0.8292  2.0378  0.2210
 6629TIP3    H241447   1.382   1.161   3.279 -0.1541  2.7494 -0.2579
 6630TIP3   OH241448   3.536   2.100   0.870  0.2405 -0.1718 -0.4375
 6630TIP3    H141449   3.455   2.100   0.920  1.5304 -2.5049  1.9189
 6630TIP3    H241450   3.508   2.104   0.779 -2.7492 -3.4522  0.1108
 6631TIP3   OH241451   0.845   3.451   6.652 -0.2399 -0.0506  0.1210
 6631TIP3    H141452   0.920   3.393   6.664  0.1152 -0.2370 -2.4203
 6631TIP3    H241453   0.780   3.420   6.714  1.0330 -1.2012  0.9448
 6632TIP3   OH241454   5.829   5.514   2.525  0.2564 -0.0961 -0.5034
 6632TIP3    H141455   5.855   5.575   2.456  0.2453 -1.2754 -1.5839
 6632TIP3    H241456   5.781   5.569   2.588 -1.3591  0.7319 -2.3200
 6633TIP3   OH241457   0.136   4.143   2.902 -0.3247 -0.5842  0.4488
 6633TIP3    H141458   0.106   4.051   2.904  1.6364 -1.2601  1.8442
 6633TIP3    H241459   0.231   4.137   2.899 -0.1617  1.4363  0.4816
 6634TIP3   OH241460   0.692   6.785   7.258  0.6924 -0.1769 -0.4128
 6634TIP3    H141461   0.632   6.833   7.316 -1.6331  0.6158 -3.2406
 6634TIP3    H241462   0.675   6.693   7.277  0.1665  0.0673  0.3411
 6635TIP3   OH241463   6.281   6.727   1.845 -0.6002 -0.6924 -0.0843
 6635TIP3    H141464   6.363   6.706   1.800 -0.4628 -1.6567  0.5735
 6635TIP3    H241465   6.220   6.659   1.815 -1.1454 -0.0160 -0.5247
 6636TIP3   OH241466   4.207   4.341   2.501 -0.6892  1.0231  0.0402
 6636TIP3    H141467   4.267   4.408   2.469 -2.5250  2.2050 -1.0879
 6636TIP3    H241468   4.258   4.260   2.497  1.6625  2.2907  1.6098
 6637TIP3   OH241469   2.230   1.386   0.928  0.0898 -0.4883  0.0651
 6637TIP3    H141470   2.321   1.362   0.913  0.3977  1.4090 -1.5898
 6637TIP3    H241471   2.208   1.346   1.012  2.7052 -0.2911  0.9403
 6638TIP3   OH241472   0.313   0.986   8.309  0.8615 -0.5856 -0.3010
 6638TIP3    H141473   0.335   0.947   8.225  2.4124 -0.6707  0.1262
 6638TIP3    H241474   0.396   1.018   8.344  0.5785 -2.1450  1.9934
 6639TIP3   OH241475   5.299   0.808   1.589  0.3148 -0.4620  0.0503
 6639TIP3    H141476   5.388   0.831   1.561  0.2598  0.0444  0.2801
 6639TIP3    H241477   5.261   0.891   1.618  0.4644 -1.0103  1.9023
 6640TIP3   OH241478   1.782   3.467   8.474 -0.2844 -0.2164  0.2343
 6640TIP3    H141479   1.749   3.400   8.534 -1.0285  0.5014  0.6413
 6640TIP3    H241480   1.760   3.433   8.387 -4.0454  1.1131  0.4792
 6641TIP3   OH241481   6.408   5.920   1.217 -0.4726  0.0477 -0.3552
 6641TIP3    H141482   6.316   5.918   1.243 -1.1962 -0.8012 -2.7102
 6641TIP3    H241483   6.421   6.007   1.180 -0.5924 -0.1131 -0.7889
 6642TIP3   OH241484   6.251   3.478   0.191 -0.5794  0.4413 -0.3210
 6642TIP3    H141485   6.225   3.390   0.164 -1.8956  1.1579 -1.5113
 6642TIP3    H241486   6.200   3.495   0.270  0.6399 -0.3102  0.6764
 6643TIP3   OH241487   2.428   1.595   0.566  0.0599  0.3871 -0.4233
 6643TIP3    H141488   2.474   1.523   0.608 -0.2714 -0.1621 -0.9825
 6643TIP3    H241489   2.415   1.660   0.636  0.2941 -0.1190  0.0955
 6644TIP3   OH241490   3.746   2.885   3.190 -0.6027  0.1032 -0.6381
 6644TIP3    H141491   3.766   2.792   3.198 -2.8881 -0.5116 -1.3316
 6644TIP3    H241492   3.750   2.902   3.096  0.0845  0.8109 -0.4943
 6645TIP3   OH241493   1.848   6.436   0.790 -0.5307  0.4462 -0.0284
 6645TIP3    H141494   1.756   6.444   0.765 -1.1981 -2.0838  1.2792
 6645TIP3    H241495   1.850   6.459   0.882 -0.2045 -1.0716  0.3755
 6646TIP3   OH241496   6.577   2.089   8.257 -0.1508 -0.1192  0.6075
 6646TIP3    H141497   6.501   2.032   8.250  0.4094 -0.7345 -1.1773
 6646TIP3    H241498   6.640   2.052   8.195  0.6470  1.8015  0.2062
 6647TIP3   OH241499   0.991   2.516   7.389  0.0621 -0.4077 -0.5010
 6647TIP3    H141500   0.933   2.499   7.315 -0.3666  3.6595 -1.3390
 6647TIP3    H241501   1.079   2.502   7.354 -0.2216 -1.3596 -0.8581
 6648TIP3   OH241502   0.985   2.892   1.633 -0.3432 -0.2794 -0.0610
 6648TIP3    H141503   0.928   2.965   1.606 -0.0611  0.1121  0.3994
 6648TIP3    H241504   1.014   2.916   1.721  2.6392  0.8258 -1.2162
 6649TIP3   OH241505   3.107   5.508   0.959 -0.2999 -0.1329 -0.3797
 6649TIP3    H141506   3.162   5.433   0.979  1.7350  1.4017  0.0303
 6649TIP3    H241507   3.122   5.570   1.031 -2.4182  0.4668 -0.3589
 6650TIP3   OH241508   0.055   4.509   1.472  0.7099 -0.2678  0.2965
 6650TIP3    H141509   0.114   4.477   1.404  0.7547  2.6359 -1.2026
 6650TIP3    H241510  -0.032   4.484   1.442  0.7209  1.0612 -0.9555
 6651TIP3   OH241511   5.399   6.704   7.816  0.2518 -0.0531 -0.0091
 6651TIP3    H141512   5.463   6.637   7.840 -0.6763 -0.2998  2.0864
 6651TIP3    H241513   5.322   6.654   7.787  0.7374  0.2240 -1.8719
 6652TIP3   OH241514   0.297   3.956   0.044  0.0752 -0.1769 -0.0125
 6652TIP3    H141515   0.211   3.993   0.028  0.5744  1.0239 -0.0292
 6652TIP3    H241516   0.329   3.932  -0.043 -0.7884 -1.9507  0.1220
 6653TIP3   OH241517   3.961   2.231   2.498 -0.0539 -0.4620  0.0577
 6653TIP3    H141518   4.021   2.306   2.500  0.3504 -0.7905  0.2007
 6653TIP3    H241519   3.881   2.267   2.459  0.8043 -0.4359 -1.7638
 6654TIP3   OH241520   5.280   4.389   3.547 -0.3574 -0.0309 -0.5279
 6654TIP3    H141521   5.309   4.298   3.554 -1.8614 -0.3824  2.9834
 6654TIP3    H241522   5.190   4.388   3.580 -0.5930  2.6612 -0.8762
 6655TIP3   OH241523   6.253   1.091   3.189  0.2730 -0.3653 -0.6435
 6655TIP3    H141524   6.277   1.086   3.282 -2.1274 -1.0429  0.0220
 6655TIP3    H241525   6.288   1.011   3.151  1.2051 -0.1250 -0.3370
 6656TIP3   OH241526   4.464   4.154   3.658  0.3410 -0.6065 -0.0274
 6656TIP3    H141527   4.455   4.064   3.628  0.3012 -0.6329  0.0663
 6656TIP3    H241528   4.390   4.200   3.619  0.9580 -0.3838 -0.9716
 6657TIP3   OH241529   0.463   6.090   1.483  0.1458  0.1931 -0.2767
 6657TIP3    H141530   0.505   6.004   1.491  1.9374  1.0228 -0.3897
 6657TIP3    H241531   0.414   6.085   1.401 -1.2229 -1.2816  0.5623
 6658TIP3   OH241532   0.611   5.334   1.432 -0.1132  0.5270  0.8541
 6658TIP3    H141533   0.572   5.256   1.393 -0.1777 -1.0363  3.7825
 6658TIP3    H241534   0.544   5.401   1.425 -0.6659 -0.1305 -0.3242
 6659TIP3   OH241535   1.230   4.009   0.318 -0.0707 -0.1769 -0.1890
 6659TIP3    H141536   1.256   4.085   0.265 -3.7189  0.6279 -1.0873
 6659TIP3    H241537   1.165   3.964   0.264 -0.1038 -2.3214  1.5442
 6660TIP3   OH241538   2.597   4.010   8.139  0.0031 -0.0937 -0.1746
 6660TIP3    H141539   2.517   3.983   8.093  0.4646  0.2546 -1.2115
 6660TIP3    H241540   2.666   3.957   8.100  0.2294 -0.7205  1.0347
 6661TIP3   OH241541   4.277   0.112   7.079  0.2367 -0.8886 -0.4849
 6661TIP3    H141542   4.253   0.154   6.997  0.5119 -1.6781 -0.9865
 6661TIP3    H241543   4.334   0.039   7.053 -0.8820 -2.0887  0.2661
 6662TIP3   OH241544   2.053   1.759   2.976  0.0447 -0.3954 -0.0929
 6662TIP3    H141545   2.063   1.778   2.883  0.0119  0.3111  0.0446
 6662TIP3    H241546   1.960   1.768   2.992  0.2754  1.3632  0.3990
 6663TIP3   OH241547   0.516   0.700   1.470  0.7922  0.3842  0.1340
 6663TIP3    H141548   0.430   0.740   1.485  0.0148 -0.8691 -0.8081
 6663TIP3    H241549   0.573   0.742   1.534 -0.8166  0.3125  1.6999
 6664TIP3   OH241550   3.100   4.853   2.707 -0.6581  0.3887 -0.0207
 6664TIP3    H141551   3.029   4.799   2.672 -0.4444  0.4868 -0.6243
 6664TIP3    H241552   3.178   4.825   2.658 -0.7646  2.0650 -1.2275
 6665TIP3   OH241553   2.259   5.460   1.028 -0.0022 -0.0481  0.2463
 6665TIP3    H141554   2.231   5.513   0.952  0.3070  0.8954  0.7688
 6665TIP3    H241555   2.202   5.488   1.099  2.1796  2.0041  1.3713
 6666TIP3   OH241556   5.053   3.883   3.368 -0.0375 -0.5166 -0.2513
 6666TIP3    H141557   4.972   3.904   3.416 -0.2215  0.2430 -0.8767
 6666TIP3    H241558   5.061   3.788   3.376 -1.3706 -0.6984 -0.7601
 6667TIP3   OH241559   5.333   1.903   1.786  0.7731 -0.5255 -0.0179
 6667TIP3    H141560   5.383   1.869   1.859  0.4482 -1.3844 -0.1839
 6667TIP3    H241561   5.243   1.908   1.818  0.7010 -0.4930 -0.2192
 6668TIP3   OH241562   6.428   1.185   7.672  0.2116  0.1877 -0.1883
 6668TIP3    H141563   6.392   1.097   7.658  1.5510 -0.5376  0.6726
 6668TIP3    H241564   6.353   1.238   7.699 -0.7478 -0.4962 -1.3767
 6669TIP3   OH241565   3.033   0.752   1.560  0.6062  0.1741  0.2979
 6669TIP3    H141566   3.058   0.698   1.635  0.8089 -1.9399 -1.2049
 6669TIP3    H241567   3.115   0.794   1.533  0.7609  0.0520  0.5661
 6670TIP3   OH241568   0.044   3.441   7.980 -0.0088  0.2915 -0.0884
 6670TIP3    H141569   0.060   3.362   8.032  0.4149  1.0723  0.9979
 6670TIP3    H241570   0.064   3.414   7.890  0.1337 -0.8383  0.2584
 6671TIP3   OH241571   6.692   4.523   0.503 -0.3870 -0.2719  0.2919
 6671TIP3    H141572   6.644   4.586   0.448  0.3611  1.5599  1.6291
 6671TIP3    H241573   6.736   4.577   0.568  0.8322 -2.1707  1.1289
 6672TIP3   OH241574   5.698   1.843   7.093  0.0655  0.1445  0.0031
 6672TIP3    H141575   5.766   1.891   7.141  0.3292 -1.6334  1.5070
 6672TIP3    H241576   5.618   1.863   7.141  0.1778 -0.8736  0.6365
 6673TIP3   OH241577   1.549   2.762   0.316  0.2821 -0.7079  0.1217
 6673TIP3    H141578   1.467   2.808   0.333 -0.0909 -1.9608  1.9126
 6673TIP3    H241579   1.524   2.688   0.261  0.4602 -0.3124 -0.5060
 6674TIP3   OH241580   2.447   3.326   1.852  0.0572 -0.7065 -0.3862
 6674TIP3    H141581   2.392   3.374   1.790  2.2702 -0.0958 -1.9773
 6674TIP3    H241582   2.527   3.377   1.858  1.2125 -2.5128  0.3932
 6675TIP3   OH241583   2.820   3.254   3.489 -0.2358  0.1439  0.2237
 6675TIP3    H141584   2.909   3.269   3.458 -0.3468  1.8150  0.6216
 6675TIP3    H241585   2.766   3.312   3.435 -0.7148  1.3104  1.8690
 6676TIP3   OH241586   4.753   0.325   1.225 -0.1900  0.0046  0.1641
 6676TIP3    H141587   4.820   0.275   1.272  1.4502  0.2021 -1.8694
 6676TIP3    H241588   4.767   0.416   1.252  0.9300  0.1541 -0.8566
 6677TIP3   OH241589   5.640   0.507   0.639 -0.5047  0.4703 -0.3203
 6677TIP3    H141590   5.691   0.576   0.682 -0.5260  0.3160 -0.0460
 6677TIP3    H241591   5.596   0.462   0.710  2.5067 -2.3379  0.0029
 6678TIP3   OH241592   0.219   5.955   0.482  0.1974 -0.0840  0.1515
 6678TIP3    H141593   0.300   5.930   0.438 -0.6337  1.7014 -2.6867
 6678TIP3    H241594   0.227   6.050   0.494 -1.1683  0.0082  0.4983
 6679TIP3   OH241595   2.758   1.132   3.048 -0.4159  0.1702 -0.1789
 6679TIP3    H141596   2.789   1.202   3.106  0.1414  1.7224 -2.2369
 6679TIP3    H241597   2.663   1.134   3.059 -0.2918  0.0381  1.0853
 6680TIP3   OH241598   1.976   3.634   0.241 -0.1600 -0.4360  0.4657
 6680TIP3    H141599   1.948   3.558   0.191  0.7720 -0.9476  0.7032
 6680TIP3    H241600   2.065   3.614   0.268  0.4732  1.1592 -0.3048
 6681TIP3   OH241601   0.589   0.646   0.437 -0.0783  0.1477  0.1933
 6681TIP3    H141602   0.594   0.731   0.481 -0.3314  0.7491 -0.9073
 6681TIP3    H241603   0.548   0.665   0.353 -1.4095 -1.2862  0.4743
 6682TIP3   OH241604   6.446   6.274   8.172 -0.4724  0.9734  0.8008
 6682TIP3    H141605   6.466   6.238   8.258  1.7721  1.2123  0.4491
 6682TIP3    H241606   6.415   6.199   8.121 -3.0617  1.0655  2.1055
 6683TIP3   OH241607   3.953   0.982   1.910  0.1686  0.1739  0.4354
 6683TIP3    H141608   3.858   0.997   1.911  0.1936  1.4925 -2.9679
 6683TIP3    H241609   3.963   0.897   1.869  0.4627  0.5212 -0.2212
 6684TIP3   OH241610   2.162   4.573   0.528 -0.3664  0.4300 -0.8542
 6684TIP3    H141611   2.216   4.597   0.603  0.6146 -1.0026 -1.0753
 6684TIP3    H241612   2.132   4.657   0.492 -1.3244  1.1465  1.4453
 6685TIP3   OH241613   0.341   3.205   2.568 -0.1016  0.2310  0.3644
 6685TIP3    H141614   0.414   3.266   2.575 -0.4840  0.7797 -0.2923
 6685TIP3    H241615   0.277   3.236   2.631 -0.0792  0.2016  0.4015
 6686TIP3   OH241616   5.086   0.799   8.434 -0.5283  0.3090  0.2656
 6686TIP3    H141617   5.054   0.889   8.426 -1.6637 -0.1593 -0.7004
 6686TIP3    H241618   5.181   0.808   8.442 -0.7181  1.6523  1.5105
 6687TIP3   OH241619   5.994   5.556   1.194  0.2494  0.2267 -0.4568
 6687TIP3    H141620   6.085   5.585   1.194  0.1812  0.5117  0.6567
 6687TIP3    H241621   5.959   5.582   1.109  1.3500 -0.3782 -1.1181
 6688TIP3   OH241622   6.892   4.687   2.408 -0.2586  0.1536  0.5327
 6688TIP3    H141623   6.833   4.615   2.385  0.3886  0.1516 -1.3208
 6688TIP3    H241624   6.954   4.648   2.470 -1.7238 -0.0332  1.9364
 6689TIP3   OH241625   3.339   4.115   2.740  0.4716 -0.2838  0.2598
 6689TIP3    H141626   3.430   4.086   2.746  0.6221  0.2852  0.8093
 6689TIP3    H241627   3.338   4.175   2.665  0.8239  0.6932  1.0294
 6690TIP3   OH241628   6.825   0.177   0.714  0.0575  0.0364 -0.0329
 6690TIP3    H141629   6.891   0.233   0.673  0.3140  0.8642  1.4240
 6690TIP3    H241630   6.750   0.180   0.656  0.6419  0.6083 -0.7695
 6691TIP3   OH241631   4.945   2.505   8.259  0.1503 -0.0438  0.1035
 6691TIP3    H141632   5.026   2.553   8.279  0.2589 -0.4381  0.6349
 6691TIP3    H241633   4.971   2.413   8.259 -0.3058 -0.1762  0.3003
 6692TIP3   OH241634   5.152   6.516   2.905  0.0959 -0.0124  0.0873
 6692TIP3    H141635   5.122   6.471   2.984 -0.0959 -1.3510 -0.7329
 6692TIP3    H241636   5.141   6.609   2.926 -0.4181 -0.3546  1.4524
 6693TIP3   OH241637   3.170   1.686   1.282 -1.1389  0.2803 -0.2408
 6693TIP3    H141638   3.147   1.616   1.221 -1.1208  0.5818 -0.5973
 6693TIP3    H241639   3.195   1.759   1.225 -0.5824  0.3839  0.1283
 6694TIP3   OH241640   2.525   4.190   7.631  0.8123 -0.4600 -0.3596
 6694TIP3    H141641   2.432   4.211   7.636  0.6185 -0.4480 -2.9420
 6694TIP3    H241642   2.569   4.266   7.669 -0.1952 -0.1543  0.2330
 6695TIP3   OH241643   5.049   0.618   8.060 -0.4597  0.3470 -0.1362
 6695TIP3    H141644   5.140   0.638   8.080 -0.6796  0.3642  0.8778
 6695TIP3    H241645   5.051   0.585   7.970  0.8976 -1.8994  0.6388
 6696TIP3   OH241646   4.027   6.768   8.498 -0.7759  0.0293 -0.2989
 6696TIP3    H141647   3.980   6.824   8.560 -2.4538 -0.3492 -1.1725
 6696TIP3    H241648   4.048   6.689   8.548  0.4795  0.8884  0.5771
 6697TIP3   OH241649   0.401   5.575   7.788  0.0814 -0.1800  0.0463
 6697TIP3    H141650   0.494   5.569   7.811  0.0746  3.0328  1.5151
 6697TIP3    H241651   0.400   5.621   7.704 -0.1264  1.8700  1.1069
 6698TIP3   OH241652   1.746   3.244   7.405  0.5132 -0.5466  0.0082
 6698TIP3    H141653   1.836   3.273   7.415  0.6990 -1.1152  0.0251
 6698TIP3    H241654   1.741   3.212   7.315 -0.0828  0.8543 -0.4946
 6699TIP3   OH241655   2.628   4.886   1.586  0.3162  0.5506  0.6979
 6699TIP3    H141656   2.647   4.979   1.602 -2.2827  1.3142 -0.1903
 6699TIP3    H241657   2.640   4.845   1.672  0.7987  1.8475  1.2853
 6700TIP3   OH241658   1.682   1.952   7.404  0.2298  0.0613  0.2085
 6700TIP3    H141659   1.690   1.979   7.312  1.6910  1.2653  0.6374
 6700TIP3    H241660   1.670   2.033   7.452 -1.1959 -0.6164  1.0549
 6701TIP3   OH241661   2.529   2.572   2.871  0.5666  0.7818  0.6247
 6701TIP3    H141662   2.529   2.639   2.940 -1.3110 -0.1661  1.6168
 6701TIP3    H241663   2.589   2.505   2.902  2.8797  2.1277 -0.6190
 6702TIP3   OH241664   2.041   2.712   7.191  0.0350  0.0030 -0.0060
 6702TIP3    H141665   2.083   2.628   7.173  0.9918  0.4706 -0.0396
 6702TIP3    H241666   2.113   2.768   7.221 -0.5038  0.9366 -0.4257
 6703TIP3   OH241667   1.882   1.150   8.168  0.4297  0.1857 -0.3790
 6703TIP3    H141668   1.927   1.199   8.100  1.4056 -0.0110  0.0984
 6703TIP3    H241669   1.792   1.141   8.137  0.8721  0.0347 -1.6599
 6704TIP3   OH241670   2.547   6.259   8.326  0.1917 -0.8167  1.0094
 6704TIP3    H141671   2.496   6.212   8.391 -1.1088 -0.8902 -0.0197
 6704TIP3    H241672   2.593   6.191   8.277 -0.6008 -0.9432  0.4188
 6705TIP3   OH241673   4.650   1.423   0.307 -0.0823 -0.4579 -0.3435
 6705TIP3    H141674   4.667   1.400   0.398  0.9607  2.3713  0.2889
 6705TIP3    H241675   4.559   1.399   0.293  0.2247 -2.5624  0.8444
 6706TIP3   OH241676   5.829   2.438   2.948  0.2496  0.6727  0.0870
 6706TIP3    H141677   5.884   2.420   3.024  0.6357  0.3122 -0.2770
 6706TIP3    H241678   5.828   2.356   2.899 -0.1244  0.8591 -0.2232
 6707TIP3   OH241679   1.215   2.983   1.844  0.3344 -0.1149 -0.4999
 6707TIP3    H141680   1.164   2.996   1.924 -0.3094 -0.8575 -0.7880
 6707TIP3    H241681   1.261   2.900   1.858 -0.7197 -0.8679 -1.3827
 6708TIP3   OH241682   1.734   2.112   0.994 -0.1827 -0.2277  0.8377
 6708TIP3    H141683   1.740   2.021   1.022 -0.4618 -0.3965  0.3590
 6708TIP3    H241684   1.824   2.143   0.992 -0.0779 -0.5306  0.8834
 6709TIP3   OH241685   1.015   5.336   0.329 -0.0236  0.2907  0.1249
 6709TIP3    H141686   1.107   5.365   0.336 -0.1496  0.5416  0.8683
 6709TIP3    H241687   0.988   5.321   0.419 -0.4151 -0.7699 -0.1593
 6710TIP3   OH241688   0.401   1.590   1.028 -0.3801 -0.0272 -0.0637
 6710TIP3    H141689   0.476   1.626   0.982 -1.0263  1.2356 -0.1814
 6710TIP3    H241690   0.325   1.629   0.986 -1.0485  4.8926  4.5874
 6711TIP3   OH241691   4.197   6.708   2.071  0.3240  0.0103  0.4253
 6711TIP3    H141692   4.234   6.722   1.984  1.9712  0.2463  1.1266
 6711TIP3    H241693   4.132   6.777   2.082  1.0064  0.7507 -0.1362
 6712TIP3   OH241694   3.489   6.382   8.327  0.0067 -0.1368  0.2537
 6712TIP3    H141695   3.438   6.304   8.305 -0.0276 -0.4953  1.5291
 6712TIP3    H241696   3.442   6.421   8.401  0.3373  0.7923 -0.0127
 6713TIP3   OH241697   5.046   5.277   1.219  0.0604 -0.3238  0.3325
 6713TIP3    H141698   5.014   5.248   1.304  2.6459 -0.0391  1.5023
 6713TIP3    H241699   5.139   5.256   1.219  1.1122  3.4321 -0.6637
 6714TIP3   OH241700   1.813   3.903   0.321  0.3049 -1.2673  0.1959
 6714TIP3    H141701   1.873   3.946   0.261 -0.8807  0.0067 -0.1352
 6714TIP3    H241702   1.752   3.856   0.264  1.8902 -3.9828  0.5475
 6715TIP3   OH241703   2.096   5.434   7.535 -0.1716  0.1470 -0.1342
 6715TIP3    H141704   2.182   5.391   7.540  0.1593  0.7259 -0.6334
 6715TIP3    H241705   2.111   5.520   7.575 -0.5122  0.2648 -0.2603
 6716TIP3   OH241706   1.105   1.622   2.428 -0.0533 -0.1033 -0.3339
 6716TIP3    H141707   1.019   1.583   2.410 -0.5316  0.7386  0.0316
 6716TIP3    H241708   1.095   1.713   2.398  1.1111 -0.3090 -1.4267
 6717TIP3   OH241709   1.403   5.180   0.474  0.0097  0.0630 -0.1739
 6717TIP3    H141710   1.340   5.151   0.408  2.6247  0.1978 -2.9328
 6717TIP3    H241711   1.460   5.104   0.488  3.0612  1.6527 -2.7082
 6718TIP3   OH241712   3.204   0.657   0.613 -0.0966 -0.4696 -0.0863
 6718TIP3    H141713   3.230   0.658   0.521  2.0973 -0.5064  0.4631
 6718TIP3    H241714   3.143   0.731   0.622  0.6240  0.3050 -1.3246
 6719TIP3   OH241715   6.590   1.686   0.315 -0.4600  0.3529  0.8069
 6719TIP3    H141716   6.558   1.636   0.240  0.5932 -2.2341  1.9403
 6719TIP3    H241717   6.532   1.762   0.320 -0.4483  0.7661 -2.6866
 6720TIP3   OH241718   0.744   5.296   2.910  0.1518  0.5164  0.3926
 6720TIP3    H141719   0.662   5.326   2.950 -0.2092  0.2517 -0.1376
 6720TIP3    H241720   0.769   5.220   2.963 -1.4373 -1.1407 -1.1041
 6721TIP3   OH241721   1.439   5.633   0.392 -0.2433  0.1959 -0.2550
 6721TIP3    H141722   1.457   5.698   0.324 -0.5300 -0.9631 -1.4927
 6721TIP3    H241723   1.524   5.618   0.434 -0.2063  1.4518  0.1358
 6722TIP3   OH241724   1.156   3.279   1.205  0.4703  0.1873 -0.2325
 6722TIP3    H141725   1.103   3.335   1.150  1.4469 -0.3055 -1.7469
 6722TIP3    H241726   1.095   3.214   1.241 -0.4976  1.6226  0.8128
 6723TIP3   OH241727   4.083   4.819   0.365  0.7655  0.0849  0.2059
 6723TIP3    H141728   3.993   4.830   0.335 -0.1608 -0.3420  2.6321
 6723TIP3    H241729   4.111   4.907   0.389  0.9526  0.1917 -0.3863
 6724TIP3   OH241730   4.361   5.003   0.153 -0.1034 -0.2612  0.4977
 6724TIP3    H141731   4.306   5.075   0.185 -1.6877 -0.2809 -1.9283
 6724TIP3    H241732   4.357   4.937   0.222 -0.0943  1.2224  1.9836
 6725TIP3   OH241733   6.380   6.191   1.404 -0.2566  0.4394 -0.2069
 6725TIP3    H141734   6.355   6.281   1.386 -2.2462  0.2500  1.2418
 6725TIP3    H241735   6.310   6.157   1.460  1.4560 -1.3738  1.0047
 6726TIP3   OH241736   1.210   2.803   0.737 -0.0140  0.6217  0.0505
 6726TIP3    H141737   1.116   2.808   0.757  0.1807  1.1563  0.8789
 6726TIP3    H241738   1.216   2.738   0.667 -0.8430 -0.5498  1.0300
 6727TIP3   OH241739   6.643   2.903   1.832  0.8905 -0.4153 -0.0686
 6727TIP3    H141740   6.710   2.888   1.898  0.6119  1.3257  0.6717
 6727TIP3    H241741   6.693   2.921   1.752  1.2762 -0.5729  0.1329
 6728TIP3   OH241742   2.167   4.626   3.197 -0.8202 -0.3194  0.3151
 6728TIP3    H141743   2.203   4.638   3.285 -1.7688  1.2077  0.5507
 6728TIP3    H241744   2.147   4.533   3.192  1.6352 -0.9407  0.7204
 6729TIP3   OH241745   4.669   5.501   8.269  0.0680  0.6605 -0.3602
 6729TIP3    H141746   4.739   5.449   8.229  0.8221  3.0972 -2.4585
 6729TIP3    H241747   4.597   5.498   8.205  0.1645  2.1987 -0.5785
 6730TIP3   OH241748   1.713   0.680   3.703  0.2399  0.6231 -0.5517
 6730TIP3    H141749   1.663   0.751   3.745 -0.5912 -0.1319 -0.2177
 6730TIP3    H241750   1.789   0.668   3.760  0.1233  0.9145 -0.3296
 6731TIP3   OH241751   1.541   1.827   2.390  0.4135 -0.5323  0.2784
 6731TIP3    H141752   1.631   1.818   2.421  0.5521  0.0320  0.0532
 6731TIP3    H241753   1.503   1.895   2.445  0.1958 -0.6147  0.2291
 6732TIP3   OH241754   5.677   6.150   0.136 -0.4320 -0.1743 -0.2786
 6732TIP3    H141755   5.675   6.243   0.116 -2.6196 -0.0235  0.3079
 6732TIP3    H241756   5.621   6.141   0.214 -1.3331 -2.1131 -1.0701
 6733TIP3   OH241757   3.253   6.628   7.804 -0.5487 -0.3442 -0.1020
 6733TIP3    H141758   3.179   6.586   7.760 -1.0247  0.0283  0.3451
 6733TIP3    H241759   3.306   6.555   7.835 -2.1603 -0.6877  2.0478
 6734TIP3   OH241760   4.972   1.045   8.475 -0.0392 -0.7091 -0.3918
 6734TIP3    H141761   4.893   1.044   8.421 -0.2015 -0.2370 -0.1636
 6734TIP3    H241762   4.941   1.025   8.563  0.0557 -0.2623 -0.2533
 6735TIP3   OH241763   0.967   1.544   8.524 -0.3405  0.6198  0.2870
 6735TIP3    H141764   0.932   1.573   8.439 -0.0211  0.5780  0.1411
 6735TIP3    H241765   0.890   1.541   8.581 -0.9890 -1.5796 -0.6065
 6736TIP3   OH241766   4.009   5.259   0.607 -0.1814 -0.2619 -0.2952
 6736TIP3    H141767   4.001   5.170   0.641 -1.0311 -0.1699 -0.2409
 6736TIP3    H241768   3.925   5.277   0.565 -0.1117  0.6037 -0.0978
 6737TIP3   OH241769   6.404   0.351   2.381 -0.4762  0.5405  0.1457
 6737TIP3    H141770   6.406   0.399   2.464 -2.5565  1.2104 -0.1196
 6737TIP3    H241771   6.310   0.343   2.361 -0.0322  0.0773 -1.9568
 6738TIP3   OH241772   2.523   2.774   7.331 -0.0952 -0.2380 -0.0019
 6738TIP3    H141773   2.589   2.826   7.376 -0.9809  2.0415 -1.1500
 6738TIP3    H241774   2.445   2.828   7.333 -1.8182 -2.6136  0.8046
 6739TIP3   OH241775   1.812   3.895   2.527  0.5370  0.5037  0.0260
 6739TIP3    H141776   1.767   3.957   2.583 -0.0679 -1.1381  1.4552
 6739TIP3    H241777   1.893   3.939   2.502  0.4389  1.6128  1.5324
 6740TIP3   OH241778   6.423   3.828   1.837  0.0690  0.2481  0.2743
 6740TIP3    H141779   6.415   3.733   1.835 -0.5930  0.2992 -0.9731
 6740TIP3    H241780   6.488   3.847   1.769 -0.5704  0.7358 -0.2087
 6741TIP3   OH241781   4.195   4.040   8.153  0.0478  0.0497 -0.5562
 6741TIP3    H141782   4.219   4.082   8.070 -0.3305 -3.1191 -2.4612
 6741TIP3    H241783   4.114   3.993   8.133 -0.5695 -0.0764  1.9294
 6742TIP3   OH241784   1.092   0.532   2.771 -0.0112 -0.7843 -0.0951
 6742TIP3    H141785   0.997   0.535   2.783 -0.0795 -2.7047  0.2415
 6742TIP3    H241786   1.126   0.499   2.854  1.0407  0.6055  0.0479
 6743TIP3   OH241787   5.760   5.897   0.725 -0.5835 -0.7262 -0.3090
 6743TIP3    H141788   5.704   5.963   0.767 -0.2759 -0.5731 -0.1339
 6743TIP3    H241789   5.719   5.814   0.748  0.3116 -0.7368  1.4606
 6744TIP3   OH241790   6.411   5.389   2.100  0.0545  0.3739  0.3430
 6744TIP3    H141791   6.393   5.296   2.112  1.2170 -0.0057 -0.6793
 6744TIP3    H241792   6.494   5.404   2.146 -0.1003  0.9031  0.4608
 6745TIP3   OH241793   5.180   6.111   2.757 -0.1116  0.4284 -0.1931
 6745TIP3    H141794   5.122   6.140   2.687 -0.7485 -0.9779 -0.2769
 6745TIP3    H241795   5.235   6.188   2.775 -0.4335  1.0628 -1.6982
 6746TIP3   OH241796   5.341   5.984   1.639 -0.4941 -0.2037  0.2457
 6746TIP3    H141797   5.337   5.932   1.558  0.9145 -0.6528  0.4427
 6746TIP3    H241798   5.365   5.921   1.707 -2.1556  0.0778  1.1345
 6747TIP3   OH241799   3.480   0.281   1.512 -0.0880 -0.0894 -0.0966
 6747TIP3    H141800   3.451   0.277   1.603 -1.0738 -3.0863 -0.4353
 6747TIP3    H241801   3.399   0.286   1.461  0.2583 -1.8597 -0.8744
 6748TIP3   OH241802   3.255   5.221   7.286  0.0040 -0.4678  0.2599
 6748TIP3    H141803   3.342   5.262   7.285 -0.6444  0.9696 -0.7255
 6748TIP3    H241804   3.243   5.192   7.376  1.2878 -0.2062  0.5329
 6749TIP3   OH241805   4.822   6.092   8.394  0.1497 -0.2016 -0.4389
 6749TIP3    H141806   4.728   6.079   8.399  0.2326 -0.4444  1.1258
 6749TIP3    H241807   4.832   6.181   8.361 -0.5860 -0.5904 -1.7698
 6750TIP3   OH241808   2.583   1.774   3.146  0.2031  0.1037  0.5991
 6750TIP3    H141809   2.597   1.853   3.093  0.7711 -0.4131 -0.0446
 6750TIP3    H241810   2.488   1.762   3.147 -0.0112  1.5889  1.9131
 6751TIP3   OH241811   0.088   4.390   8.199 -0.4748 -0.3474  0.1175
 6751TIP3    H141812   0.138   4.323   8.247  0.6931 -0.2823 -0.9653
 6751TIP3    H241813   0.082   4.463   8.260  1.6619  0.0297 -0.0571
 6752TIP3   OH241814   1.851   1.907   0.388 -0.3276 -0.1647 -0.0492
 6752TIP3    H141815   1.870   1.992   0.427 -3.2951  0.0991  1.0558
 6752TIP3    H241816   1.832   1.849   0.462 -0.0726 -1.3576 -0.8706
 6753TIP3   OH241817   6.464   5.672   8.504  0.4219  0.5835 -0.6487
 6753TIP3    H141818   6.425   5.731   8.440 -1.5539  1.5268  1.2898
 6753TIP3    H241819   6.403   5.672   8.578  0.8428 -3.1667 -0.1114
 6754TIP3   OH241820   0.268   5.469   2.753  0.2460  0.2070 -0.6300
 6754TIP3    H141821   0.245   5.420   2.833  3.1016 -0.2402  0.0576
 6754TIP3    H241822   0.185   5.489   2.712 -1.2237 -1.9893  1.0357
 6755TIP3   OH241823   1.880   3.993   7.708 -0.0706  0.7384 -0.2101
 6755TIP3    H141824   1.868   4.062   7.642 -0.9142  0.3886 -0.4425
 6755TIP3    H241825   1.906   3.916   7.658 -0.3848  0.5606 -0.1068
 6756TIP3   OH241826   2.521   0.853   8.054  0.0125 -0.2170 -0.1060
 6756TIP3    H141827   2.441   0.903   8.040  0.3320  0.2348 -0.3394
 6756TIP3    H241828   2.559   0.844   7.967 -0.2780 -1.2774 -0.1350
 6757TIP3   OH241829   1.137   2.586   3.366  0.9116 -0.2948 -0.2052
 6757TIP3    H141830   1.188   2.666   3.377  1.0160  0.5941 -4.9577
 6757TIP3    H241831   1.049   2.609   3.398  1.4597  0.9392  0.4984
 6758TIP3   OH241832   0.819   2.412   1.424 -0.3700  0.2342  0.0707
 6758TIP3    H141833   0.742   2.355   1.428  0.1658 -0.4673  0.4822
 6758TIP3    H241834   0.787   2.497   1.455 -1.4072  0.4399 -1.4389
 6759TIP3   OH241835   0.126   3.230   0.046  0.5529 -0.0984 -0.0484
 6759TIP3    H141836   0.161   3.282   0.119 -1.0961  1.7219 -0.4470
 6759TIP3    H241837   0.056   3.177   0.085  0.7211 -0.3043 -0.0288
 6760TIP3   OH241838   2.583   0.441   1.663 -0.4227  0.7209 -0.8357
 6760TIP3    H141839   2.580   0.365   1.606 -0.1062  1.0941 -1.3580
 6760TIP3    H241840   2.580   0.405   1.752 -0.3395  0.1089 -1.0790
 6761TIP3   OH241841   0.315   6.168   2.372 -0.0706  0.0943 -0.9762
 6761TIP3    H141842   0.301   6.223   2.450  1.0063 -0.2914 -0.4964
 6761TIP3    H241843   0.227   6.143   2.345 -0.4415 -1.9800  1.7257
 6762TIP3   OH241844   1.116   4.563   2.841 -0.1357  0.0535 -0.0653
 6762TIP3    H141845   1.054   4.543   2.911  0.1384 -0.2582  0.0925
 6762TIP3    H241846   1.062   4.573   2.763 -0.3255 -0.7920 -0.0437
 6763TIP3   OH241847   5.554   2.439   0.085  0.3186 -0.3352 -0.4385
 6763TIP3    H141848   5.593   2.433   0.173  0.8603 -2.0498 -0.7605
 6763TIP3    H241849   5.581   2.525   0.053  2.0938 -0.6143  0.1851
 6764TIP3   OH241850   2.884   0.558   0.439 -0.3209  0.1658  0.1314
 6764TIP3    H141851   2.903   0.470   0.470 -1.5882 -1.0309 -2.2268
 6764TIP3    H241852   2.913   0.616   0.510  1.2917 -2.0716  1.4115
 6765TIP3   OH241853   6.228   6.382   0.138 -0.0508 -0.5395 -0.6561
 6765TIP3    H141854   6.164   6.452   0.126 -0.3397 -0.6960 -0.0622
 6765TIP3    H241855   6.228   6.365   0.232  1.2554 -0.1810 -0.5738
 6766TIP3   OH241856   5.836   4.434   0.626  0.2724  0.3056  0.6178
 6766TIP3    H141857   5.863   4.433   0.535  0.6990  0.1671  0.7460
 6766TIP3    H241858   5.909   4.397   0.674 -0.4864 -0.8958  0.8848
 6767TIP3   OH241859   6.254   5.169   0.649  0.8200 -0.3423  0.3530
 6767TIP3    H141860   6.293   5.112   0.583 -0.6541  1.9052 -2.6708
 6767TIP3    H241861   6.165   5.137   0.659 -0.2073  1.5804 -1.8028
 6768TIP3   OH241862   1.206   1.383   0.543 -0.2460 -0.8506  0.4275
 6768TIP3    H141863   1.116   1.355   0.558 -0.2315 -1.4607 -0.5834
 6768TIP3    H241864   1.210   1.403   0.450  1.0916 -2.4494  0.0958
 6769TIP3   OH241865   6.414   5.641   0.196 -0.6418 -0.5201 -1.0096
 6769TIP3    H141866   6.380   5.615   0.282 -1.2648 -0.0786 -1.1170
 6769TIP3    H241867   6.509   5.634   0.205 -0.7196 -0.9609 -0.4412
 6770TIP3   OH241868   3.767   0.904   8.059 -0.3038 -1.2665 -0.3959
 6770TIP3    H141869   3.772   0.856   8.141 -0.1804 -0.5259  0.0313
 6770TIP3    H241870   3.859   0.923   8.037 -0.4063  1.9393  1.3308
 6771TIP3   OH241871   6.005   1.867   0.271 -0.3836 -0.1421  0.1148
 6771TIP3    H141872   6.098   1.872   0.290 -0.5908  1.3726  0.9145
 6771TIP3    H241873   5.962   1.861   0.356 -1.0025 -2.4579 -0.2793
 6772TIP3   OH241874   4.354   0.839   0.156  0.2500  0.3182 -0.5756
 6772TIP3    H141875   4.297   0.770   0.190 -0.8757  0.3300 -2.2993
 6772TIP3    H241876   4.304   0.920   0.168  0.3894  0.4770 -1.0275
 6773TIP3   OH241877   3.890   0.700   0.398  0.1490  0.4115  0.3313
 6773TIP3    H141878   3.952   0.682   0.327  0.2535  0.4715  0.4070
 6773TIP3    H241879   3.941   0.749   0.462  0.1377  0.0897  0.5887
 6774TIP3   OH241880   3.379   3.131   1.474 -0.0172 -0.2125  0.1215
 6774TIP3    H141881   3.293   3.089   1.474 -0.7923  1.3023  0.4168
 6774TIP3    H241882   3.421   3.099   1.554 -0.9562  0.2889  0.8250
 6775TIP3   OH241883   4.567   3.311   2.215 -0.5327  0.5475  0.1483
 6775TIP3    H141884   4.548   3.267   2.298  0.2689 -0.4689 -0.1875
 6775TIP3    H241885   4.629   3.380   2.239  2.5963 -1.9871 -0.0193
 6776TIP3   OH241886   4.807   0.658   0.973  0.1063 -0.3648  0.5173
 6776TIP3    H141887   4.766   0.744   0.984  1.1296  0.0766  1.1044
 6776TIP3    H241888   4.824   0.628   1.062  1.4115 -0.3267  0.3093
 6777TIP3   OH241889   0.333   6.908   1.718 -0.8717 -0.3616  0.1178
 6777TIP3    H141890   0.313   7.002   1.717 -2.0576 -0.5984 -0.1365
 6777TIP3    H241891   0.404   6.898   1.655 -0.2576  0.4597  0.6553
 6778TIP3   OH241892   5.329   3.446   7.656  0.4639 -0.2359 -0.6972
 6778TIP3    H141893   5.236   3.469   7.652  0.5185 -0.0707 -1.0628
 6778TIP3    H241894   5.346   3.430   7.749  0.4047  1.1176 -0.4443
 6779TIP3   OH241895   2.696   4.751   1.228  0.5830 -0.0219  0.6150
 6779TIP3    H141896   2.660   4.818   1.171 -0.3679 -1.5274 -0.6304
 6779TIP3    H241897   2.776   4.722   1.184  0.3570 -0.5261  0.5303
 6780TIP3   OH241898   5.266   6.661   8.405 -0.2407 -0.2630 -0.4366
 6780TIP3    H141899   5.217   6.671   8.324 -0.5293  0.4409 -0.1880
 6780TIP3    H241900   5.288   6.751   8.431  0.8355 -0.5399 -0.3344
 6781TIP3   OH241901   6.607   0.573   1.985 -0.2975 -0.1524  0.2660
 6781TIP3    H141902   6.536   0.518   1.951 -1.9012  1.5280  0.7946
 6781TIP3    H241903   6.654   0.602   1.907 -1.5046  0.4486 -0.2522
 6782TIP3   OH241904   6.804   3.445   1.259  0.2289 -0.5956  0.4566
 6782TIP3    H141905   6.755   3.512   1.307 -2.2218 -1.0130 -1.3229
 6782TIP3    H241906   6.849   3.395   1.328 -2.7655 -0.9174  2.3367
 6783TIP3   OH241907   0.595   6.168   3.227  0.6526  0.0039 -0.0964
 6783TIP3    H141908   0.608   6.262   3.242  2.5172 -0.1527 -0.5064
 6783TIP3    H241909   0.653   6.147   3.154 -0.0257 -1.4045 -0.2572
 6784TIP3   OH241910   4.311   1.990   8.221 -0.2099  0.2543  0.1893
 6784TIP3    H141911   4.377   1.958   8.283 -1.6495  0.7599  2.0875
 6784TIP3    H241912   4.229   1.987   8.270 -1.4140  0.8808 -1.6679
 6785TIP3   OH241913   2.095   6.352   2.095 -0.1909  0.0776  0.1160
 6785TIP3    H141914   2.112   6.430   2.148 -1.5941  0.4991 -0.0196
 6785TIP3    H241915   2.070   6.386   2.010  0.6443 -0.5719 -0.4061
 6786TIP3   OH241916   1.457   1.999   2.139  0.6967 -0.3536  0.7747
 6786TIP3    H141917   1.404   1.928   2.174 -1.6009  1.3838  1.1014
 6786TIP3    H241918   1.433   2.004   2.046  1.4624 -0.5026  0.5627
 6787TIP3   OH241919   5.379   4.089   1.910 -0.3125 -0.1579 -0.0157
 6787TIP3    H141920   5.413   4.029   1.976 -0.4213 -0.4669 -0.2356
 6787TIP3    H241921   5.314   4.038   1.862  0.0997 -0.0967 -0.6685
 6788TIP3   OH241922   3.472   2.063   2.102  0.1594  0.1484 -0.4761
 6788TIP3    H141923   3.448   2.069   2.194  2.0484 -2.5995  0.3036
 6788TIP3    H241924   3.544   2.125   2.092 -0.3043  0.7377 -0.2396
 6789TIP3   OH241925   3.579   5.279   2.430  0.3412  0.1541  0.2314
 6789TIP3    H141926   3.543   5.297   2.517 -1.5315  1.0039 -0.6745
 6789TIP3    H241927   3.633   5.355   2.411 -0.1015  0.4703  0.2246
 6790TIP3   OH241928   5.756   3.786   0.294 -0.0462  0.1207 -0.0956
 6790TIP3    H141929   5.682   3.729   0.272  1.2819 -1.8076  0.1212
 6790TIP3    H241930   5.716   3.861   0.339 -1.7838 -1.3927  1.0484
 6791TIP3   OH241931   2.549   6.084   1.211 -0.3801 -0.5223 -0.1470
 6791TIP3    H141932   2.588   6.056   1.128  1.0111  1.5610 -0.2820
 6791TIP3    H241933   2.596   6.034   1.278 -1.8870 -2.6219 -0.5732
 6792TIP3   OH241934   3.104   6.880   0.838 -0.7561 -0.4203  0.9144
 6792TIP3    H141935   3.076   6.792   0.861  0.0927 -0.9094  0.1383
 6792TIP3    H241936   3.133   6.873   0.747 -0.6073  0.6476  0.8655
 6793TIP3   OH241937   3.573   5.085   0.538  0.0651 -0.8570  0.3579
 6793TIP3    H141938   3.509   5.042   0.481 -0.8948 -0.7765  1.3404
 6793TIP3    H241939   3.540   5.174   0.547  1.3375 -0.2636 -0.6037
 6794TIP3   OH241940   1.972   1.519   7.850 -0.4137 -0.0005  0.1076
 6794TIP3    H141941   2.033   1.584   7.886 -0.5346 -1.1345  2.5557
 6794TIP3    H241942   1.990   1.439   7.900 -0.1583 -1.9688 -2.9306
 6795TIP3   OH241943   1.085   2.337   7.728  0.6045 -0.2762  0.5126
 6795TIP3    H141944   1.156   2.345   7.664  1.7356 -3.9160  1.0892
 6795TIP3    H241945   1.006   2.360   7.680  1.4983 -2.1953 -2.0751
 6796TIP3   OH241946   1.100   1.063   2.087 -0.5158  0.4762 -0.3052
 6796TIP3    H141947   1.107   1.154   2.116  1.0867  0.6631 -1.1845
 6796TIP3    H241948   1.100   1.012   2.169  0.2924  1.1791  0.1465
 6797TIP3   OH241949   2.244   4.292   7.437  0.6293 -0.0057  0.0382
 6797TIP3    H141950   2.201   4.283   7.352  1.1406  1.2718 -0.3754
 6797TIP3    H241951   2.312   4.357   7.423 -0.7966  2.0543  1.9772
 6798TIP3   OH241952   2.433   3.959   0.498 -0.0913  0.1619  0.0279
 6798TIP3    H141953   2.352   4.011   0.495 -1.1475 -1.2542  1.6563
 6798TIP3    H241954   2.424   3.897   0.426  0.1138  0.7494 -0.5151
 6799TIP3   OH241955   6.540   0.738   0.431 -0.1869 -1.0963 -0.4630
 6799TIP3    H141956   6.566   0.762   0.520  1.5227 -3.4696 -0.2058
 6799TIP3    H241957   6.614   0.767   0.376 -1.4708  0.8636 -1.2848
 6800TIP3   OH241958   6.468   6.489   1.117  0.2711  0.7853 -0.2170
 6800TIP3    H141959   6.393   6.520   1.065 -0.4617 -0.1238  0.2843
 6800TIP3    H241960   6.458   6.533   1.201 -0.1933  0.0120  0.1429
 6801TIP3   OH241961   5.335   1.770   7.985 -0.4014  0.3420 -0.4565
 6801TIP3    H141962   5.292   1.838   8.037 -0.4881  0.1660 -0.2955
 6801TIP3    H241963   5.277   1.694   7.994 -0.7092  0.4762 -1.2736
 6802TIP3   OH241964   4.925   0.213   8.085  0.0591  0.7178  0.1970
 6802TIP3    H141965   4.952   0.147   8.021  2.3840  2.2846 -0.5704
 6802TIP3    H241966   4.834   0.232   8.064  0.0286 -0.6070 -0.9964
 6803TIP3   OH241967   2.845   3.677   2.705  0.1785 -0.5495 -0.1351
 6803TIP3    H141968   2.837   3.751   2.644  1.4091 -0.6789 -0.5007
 6803TIP3    H241969   2.902   3.711   2.775 -1.1788 -0.4211  0.9404
 6804TIP3   OH241970   1.207   0.390   3.769  0.0434 -0.3792  0.2051
 6804TIP3    H141971   1.137   0.438   3.812 -0.2152  0.0198 -0.6312
 6804TIP3    H241972   1.242   0.452   3.705 -0.9009 -1.5685 -1.5364
 6805TIP3   OH241973   3.217   3.303   1.706 -0.3327 -0.4028 -0.7090
 6805TIP3    H141974   3.216   3.306   1.802  0.4872  0.5363 -0.7178
 6805TIP3    H241975   3.169   3.223   1.684 -0.2425 -0.8029  0.4902
 6806TIP3   OH241976   0.650   5.887   0.875 -0.3881  0.2263  0.1881
 6806TIP3    H141977   0.728   5.943   0.868 -0.5727  0.4529 -0.0795
 6806TIP3    H241978   0.576   5.947   0.862 -0.5505 -0.3491 -1.9312
 6807TIP3   OH241979   0.624   1.720   3.005 -0.6264  0.4651 -0.3876
 6807TIP3    H141980   0.552   1.689   3.060 -0.0380  2.4469  1.6814
 6807TIP3    H241981   0.676   1.642   2.987 -2.2957 -0.6987 -0.4263
 6808TIP3   OH241982   2.826   4.964   0.977  0.3180  0.2483 -0.8348
 6808TIP3    H141983   2.766   4.970   1.050  1.8263  0.4269  0.4463
 6808TIP3    H241984   2.770   4.956   0.900 -1.3232  0.9142  0.2447
 6809TIP3   OH241985   2.483   3.240   8.541  0.2150  0.1650  0.5349
 6809TIP3    H141986   2.510   3.271   8.627  1.6672 -0.7108  0.4365
 6809TIP3    H241987   2.407   3.185   8.558 -1.7824  2.8162  0.8164
 6810TIP3   OH241988   4.318   4.161   8.385  0.3929  0.4329 -0.1269
 6810TIP3    H141989   4.401   4.201   8.360  0.4279 -0.2186 -1.1313
 6810TIP3    H241990   4.288   4.117   8.305 -0.7627  0.4029  0.3077
 6811TIP3   OH241991   2.582   3.057   7.907 -0.1432  0.1819 -0.3411
 6811TIP3    H141992   2.607   3.126   7.846  0.7009  1.9718  1.9215
 6811TIP3    H241993   2.493   3.033   7.879  0.1734  0.9571 -2.1961
 6812TIP3   OH241994   3.158   6.410   1.674 -0.2003  0.6433  0.2339
 6812TIP3    H141995   3.206   6.356   1.611 -2.8944 -3.1300  1.0356
 6812TIP3    H241996   3.209   6.402   1.755  0.5076  1.0486 -0.1664
 6813TIP3   OH241997   0.358   3.104   1.148  0.9150  0.3079  0.0085
 6813TIP3    H141998   0.376   3.180   1.092  2.7050  1.8528  2.4979
 6813TIP3    H241999   0.294   3.136   1.211  0.6307 -0.7065  0.2492
 6814TIP3   OH242000   4.220   0.274   1.788 -0.2074 -0.0187 -0.6585
 6814TIP3    H142001   4.164   0.342   1.752 -1.5327 -0.7237  0.0222
 6814TIP3    H242002   4.168   0.233   1.857  0.8419 -1.2186 -0.5388
 6815TIP3   OH242003   5.493   5.527   1.630  0.3351 -0.5317 -0.0755
 6815TIP3    H142004   5.549   5.562   1.699 -0.9002  1.4058  0.0163
 6815TIP3    H242005   5.523   5.437   1.618  3.9575  0.5639 -0.5428
 6816TIP3   OH242006   2.387   4.156   1.521 -0.3433  0.0603  0.3450
 6816TIP3    H142007   2.345   4.204   1.450  0.9545  0.9842  0.1746
 6816TIP3    H242008   2.387   4.065   1.491 -1.2573  0.1944 -0.1017
 6817TIP3   OH242009   6.471   2.794   7.005 -0.4025 -0.0268  0.0037
 6817TIP3    H142010   6.445   2.855   6.937 -0.2286 -0.1128 -0.1409
 6817TIP3    H242011   6.495   2.849   7.079 -0.8543  0.0587  0.0906
 6818TIP3   OH242012   1.071   5.787   2.613 -0.4406 -0.4584  0.0065
 6818TIP3    H142013   1.024   5.836   2.680 -0.4753 -0.1140 -0.2679
 6818TIP3    H242014   1.123   5.723   2.661  0.8305  0.8649  0.4593
 6819TIP3   OH242015   0.964   4.343   3.303 -1.1774  0.7270  0.0547
 6819TIP3    H142016   1.045   4.381   3.337 -1.2919 -0.5810  1.9333
 6819TIP3    H242017   0.906   4.339   3.379 -1.7788 -1.4666 -0.4585
 6820TIP3   OH242018   4.564   3.236   1.488  0.0984  0.8233  0.2312
 6820TIP3    H142019   4.496   3.185   1.531  0.7733  0.6101  1.0542
 6820TIP3    H242020   4.628   3.255   1.556  1.4275  0.0804 -0.7438
 6821TIP3   OH242021   3.191   4.281   1.989 -0.0235 -0.6096 -0.5223
 6821TIP3    H142022   3.128   4.266   2.060  0.8130  0.8869  0.5870
 6821TIP3    H242023   3.137   4.305   1.914 -0.8359 -0.5877  0.0577
 6822TIP3   OH242024   2.596   5.091   8.465 -0.4335  0.1030  0.4030
 6822TIP3    H142025   2.559   5.093   8.377  4.3300 -2.6849 -2.0785
 6822TIP3    H242026   2.646   5.173   8.471  1.0832 -0.6972 -0.5916
 6823TIP3   OH242027   2.049   2.868   0.477  0.6165  0.2862 -0.2804
 6823TIP3    H142028   2.144   2.874   0.485  0.6988  1.9907 -1.8305
 6823TIP3    H242029   2.031   2.896   0.387 -1.4358  1.2163  0.3689
 6824TIP3   OH242030   4.341   6.114   1.638  0.2353  0.1737  0.3575
 6824TIP3    H142031   4.421   6.074   1.603  0.0720 -0.5454  0.7782
 6824TIP3    H242032   4.347   6.100   1.732  0.4344  1.6480  0.5820
 6825TIP3   OH242033   3.882   2.994   7.867 -0.2401  0.5175  0.1402
 6825TIP3    H142034   3.822   2.979   7.794  0.6129 -2.1560 -0.0999
 6825TIP3    H242035   3.849   2.938   7.937  0.0445  1.6152  1.1798
 6826TIP3   OH242036   6.112   3.209   8.311  0.3097 -0.3534  0.1197
 6826TIP3    H142037   6.102   3.199   8.216  3.8148 -1.4712 -0.2974
 6826TIP3    H242038   6.146   3.298   8.322 -1.3019  0.2351  0.5081
 6827TIP3   OH242039   5.585   3.515   0.326  0.2079 -0.5427 -0.6993
 6827TIP3    H142040   5.647   3.446   0.349  0.7275 -0.1207 -0.8126
 6827TIP3    H242041   5.531   3.525   0.405  2.6387  1.6020  0.8706
 6828TIP3   OH242042   3.314   2.573   0.903  0.3806 -0.2579  0.2914
 6828TIP3    H142043   3.228   2.549   0.869  0.9003 -1.1516 -0.4479
 6828TIP3    H242044   3.356   2.489   0.922  1.6249  0.1138 -0.7141
 6829TIP3   OH242045   3.760   1.401   0.879  0.2546  0.0992  0.1785
 6829TIP3    H142046   3.836   1.437   0.925 -0.1104 -1.3356  2.0029
 6829TIP3    H242047   3.773   1.428   0.788  1.5065  2.2370  0.9102
 6830TIP3   OH242048   6.901   2.104   2.022  0.2646 -0.1635  0.3427
 6830TIP3    H142049   6.974   2.076   2.078 -0.2896 -1.3391  0.4918
 6830TIP3    H242050   6.941   2.165   1.960  1.1850 -0.0238  1.0425
 6831TIP3   OH242051   0.592   0.791   8.358  0.8874  0.5904 -0.7394
 6831TIP3    H142052   0.540   0.867   8.332 -1.0965  0.0663  1.3561
 6831TIP3    H242053   0.671   0.827   8.397  0.1014  1.5939 -0.0385
 6832TIP3   OH242054   3.347   2.747   8.231 -0.1695 -0.1981 -0.6475
 6832TIP3    H142055   3.391   2.831   8.216  0.5336 -0.4018  0.1860
 6832TIP3    H242056   3.263   2.771   8.270  0.1877  0.1128 -0.0510
 6833TIP3   OH242057   0.760   5.135   0.571  0.5286 -0.0748  0.4130
 6833TIP3    H142058   0.811   5.210   0.601  0.2696 -0.0898  0.8897
 6833TIP3    H242059   0.803   5.109   0.489 -0.6528  1.9580 -0.9612
 6834TIP3   OH242060   1.539   1.394   1.193  0.5580 -0.2949 -0.1444
 6834TIP3    H142061   1.453   1.409   1.153  1.6733  0.1890 -2.5566
 6834TIP3    H242062   1.563   1.479   1.231  0.2263 -0.2867  0.0570
 6835TIP3   OH242063   6.461   5.742   2.493 -0.6799  0.0679  0.3879
 6835TIP3    H142064   6.531   5.801   2.463 -0.2643  0.1165  1.3985
 6835TIP3    H242065   6.433   5.696   2.414 -0.3732  0.9531 -0.2567
 6836TIP3   OH242066   3.275   6.482   2.798 -0.1278 -0.5904 -0.3935
 6836TIP3    H142067   3.370   6.494   2.800  0.2154 -3.0320  0.2853
 6836TIP3    H242068   3.243   6.557   2.747  2.1664  0.1267 -0.8894
 6837TIP3   OH242069   4.074   1.969   7.066  0.3823 -0.0769  0.1593
 6837TIP3    H142070   4.033   2.055   7.070  1.7774  0.5909  0.8943
 6837TIP3    H242071   4.139   1.977   6.996  0.2916 -0.6466  0.0036
 6838TIP3   OH242072   1.528   6.490   7.324 -0.4302 -0.0005  0.7227
 6838TIP3    H142073   1.619   6.462   7.316 -0.3155  0.5787 -0.1085
 6838TIP3    H242074   1.527   6.580   7.292 -1.1458  0.3056  1.5428
 6839TIP3   OH242075   2.034   3.706   2.918 -0.1723 -0.0157 -0.2037
 6839TIP3    H142076   1.955   3.760   2.917 -0.0999  0.2017  1.6981
 6839TIP3    H242077   2.096   3.755   2.971  1.0378 -0.4917 -1.1363
 6840TIP3   OH242078   6.307   5.084   7.816  0.4188 -0.1045  0.4208
 6840TIP3    H142079   6.375   5.149   7.834 -0.4516  0.6261  1.1471
 6840TIP3    H242080   6.227   5.122   7.852 -0.3972 -0.9299 -0.4542
 6841TIP3   OH242081   3.454   5.454   8.121  0.0627 -0.1305 -0.8187
 6841TIP3    H142082   3.523   5.515   8.148  0.5305 -1.1789  0.4545
 6841TIP3    H242083   3.428   5.484   8.033 -0.2031  2.2938  0.0139
 6842TIP3   OH242084   5.075   2.164   0.396  0.4844  0.6548  0.9139
 6842TIP3    H142085   5.115   2.092   0.346 -0.6785  0.5451  0.1032
 6842TIP3    H242086   5.144   2.192   0.456  0.2737 -2.7647  3.0332
 6843TIP3   OH242087   5.532   6.822   8.385 -0.7289  1.0105  0.1534
 6843TIP3    H142088   5.468   6.821   8.457 -1.6787 -0.3455 -0.6842
 6843TIP3    H242089   5.530   6.913   8.354 -1.1916  1.3268  1.0496
 6844TIP3   OH242090   2.089   0.721   7.831 -0.5372 -0.4122  0.3311
 6844TIP3    H142091   2.151   0.678   7.771 -0.4426 -2.2625  1.6785
 6844TIP3    H242092   2.145   0.767   7.893 -0.6256  0.9610 -0.5671
 6845TIP3   OH242093   5.207   6.431   8.158 -0.5514 -0.0130  0.3410
 6845TIP3    H142094   5.192   6.337   8.172 -3.2012 -0.1642 -2.5495
 6845TIP3    H242095   5.139   6.474   8.210  0.1221  0.2943  0.9817
 6846TIP3   OH242096   6.737   4.438   2.399  0.2990  0.0090 -0.2027
 6846TIP3    H142097   6.701   4.380   2.332  1.7727  0.0582 -1.0942
 6846TIP3    H242098   6.710   4.400   2.482 -1.0665 -0.3890 -0.8121
 6847TIP3   OH242099   3.750   2.539   1.293  0.3278  0.0161  0.5401
 6847TIP3    H142100   3.737   2.448   1.268  2.0889 -0.2109  0.2823
 6847TIP3    H242101   3.668   2.565   1.334 -0.3690 -1.5425  0.2058
 6848TIP3   OH242102   5.450   1.081   1.265  0.3125 -0.7215 -0.0346
 6848TIP3    H142103   5.506   1.061   1.189  0.6247  0.4144 -0.1241
 6848TIP3    H242104   5.484   1.164   1.298 -2.1809  0.7980 -0.9598
 6849TIP3   OH242105   3.465   3.835   2.149  0.2037  0.0469  0.3332
 6849TIP3    H142106   3.534   3.778   2.184  1.0914 -0.4085 -1.9972
 6849TIP3    H242107   3.389   3.778   2.140  0.1000  0.0620  1.0150
 6850TIP3   OH242108   5.664   1.531   0.997 -0.4799 -0.0697 -0.4718
 6850TIP3    H142109   5.738   1.486   1.039  0.1425 -0.9486 -2.3868
 6850TIP3    H242110   5.592   1.519   1.058 -0.0575 -2.8231 -0.3832
 6851TIP3   OH242111   0.065   1.935   1.303 -0.1884 -0.5462  0.0035
 6851TIP3    H142112  -0.024   1.941   1.270  0.1438  1.0806 -0.7082
 6851TIP3    H242113   0.082   1.841   1.311 -1.6175 -0.8981 -0.7989
 6852TIP3   OH242114   1.973   1.830   2.731  0.2458  0.3649 -0.3039
 6852TIP3    H142115   1.884   1.847   2.764  0.4593 -0.2028  0.6077
 6852TIP3    H242116   2.000   1.912   2.691 -0.8519  0.4250 -0.9827
 6853TIP3   OH242117   4.036   4.109   0.797  0.3218  0.2678 -0.4013
 6853TIP3    H142118   3.975   4.179   0.820 -1.0736 -0.5318 -1.5198
 6853TIP3    H242119   4.004   4.032   0.844  1.0223  0.0427 -0.2700
 6854TIP3   OH242120   0.129   1.320   0.723  0.1177  0.0368  0.3601
 6854TIP3    H142121   0.167   1.368   0.649  0.4530 -0.4395  0.2172
 6854TIP3    H242122   0.204   1.299   0.779 -0.0144 -0.3787  0.3848
 6855TIP3   OH242123   1.969   2.886   3.369  0.5376 -0.3330 -0.5786
 6855TIP3    H142124   1.930   2.966   3.334  0.3572 -0.3750 -0.4785
 6855TIP3    H242125   1.924   2.815   3.322  1.9786 -0.3585 -2.0163
 6856TIP3   OH242126   5.088   3.172   8.532  0.1860 -0.0682 -0.1562
 6856TIP3    H142127   5.127   3.110   8.594  1.3366  0.7062 -0.0736
 6856TIP3    H242128   5.157   3.188   8.468 -0.5660  0.1026 -0.9435
 6857TIP3   OH242129   1.432   6.362   0.786 -0.3713  0.6618 -0.1611
 6857TIP3    H142130   1.455   6.419   0.860  0.5748 -1.9441  1.7369
 6857TIP3    H242131   1.470   6.405   0.710  2.1753  1.5349  1.4699
 6858TIP3   OH242132   1.706   6.885   8.110 -0.3017 -0.2111 -0.4279
 6858TIP3    H142133   1.657   6.924   8.037 -1.6663  1.1399  1.1122
 6858TIP3    H242134   1.726   6.959   8.167  0.5017 -1.2619  0.7093
 6859TIP3   OH242135   2.755   3.735   8.318  0.2539 -0.5827 -0.4136
 6859TIP3    H142136   2.685   3.674   8.340 -0.5904  0.5342  0.1159
 6859TIP3    H242137   2.834   3.694   8.353 -0.4564 -0.8601  0.9394
 6860TIP3   OH242138   0.141   5.135   7.398 -0.3411  0.2109  0.3203
 6860TIP3    H142139   0.061   5.083   7.391  0.0902 -0.1882 -2.4659
 6860TIP3    H242140   0.144   5.187   7.318  2.3504 -0.0226  0.1700
 6861TIP3   OH242141   1.877   3.129   0.636  0.5475  0.0068 -0.2534
 6861TIP3    H142142   1.946   3.192   0.614 -0.4489  0.6426 -1.6724
 6861TIP3    H242143   1.822   3.125   0.558 -0.4888 -1.2171  0.5028
 6862TIP3   OH242144   1.524   4.481   3.147 -0.6017 -0.7351  0.2095
 6862TIP3    H142145   1.516   4.506   3.239 -0.7527  1.1332 -0.2856
 6862TIP3    H242146   1.618   4.468   3.133 -0.2410  1.6583  0.0097
 6863TIP3   OH242147   5.333   3.617   0.042  0.2418  0.0737  0.0178
 6863TIP3    H142148   5.327   3.619  -0.053 -0.0938  0.8021  0.0552
 6863TIP3    H242149   5.276   3.544   0.068  0.5706 -0.3218 -0.3479
 6864TIP3   OH242150   5.670   5.020   0.800 -0.2409 -0.3520 -0.2178
 6864TIP3    H142151   5.671   4.948   0.863  1.5393 -0.9998 -0.9329
 6864TIP3    H242152   5.664   4.977   0.714  1.3273  0.2870 -0.6824
 6865TIP3   OH242153   4.223   6.355   1.539  0.3669  0.1646 -0.1633
 6865TIP3    H142154   4.275   6.283   1.574 -0.6631 -0.2052  0.6692
 6865TIP3    H242155   4.140   6.350   1.587 -0.3219  0.9268 -1.2289
 6866TIP3   OH242156   4.996   3.513   0.784  0.6282 -0.4257  0.0174
 6866TIP3    H142157   5.089   3.494   0.780  0.7014  0.0703 -2.4042
 6866TIP3    H242158   4.960   3.472   0.705 -0.6240  1.9878 -0.7810
 6867TIP3   OH242159   1.820   0.870   0.986 -0.6193  0.1024  1.0188
 6867TIP3    H142160   1.758   0.878   0.913 -0.5319 -0.3359  0.8921
 6867TIP3    H242161   1.893   0.927   0.960 -1.5224  1.6892  1.7882
 6868TIP3   OH242162   5.310   2.517   0.844 -0.2944 -0.1815 -0.0200
 6868TIP3    H142163   5.368   2.490   0.915 -0.4847  2.4795  1.2777
 6868TIP3    H242164   5.368   2.533   0.770  0.5779  1.5248  0.9747
 6869TIP3   OH242165   3.565   4.363   7.497  0.1124  0.3045  0.2155
 6869TIP3    H142166   3.559   4.321   7.412 -1.0221 -0.6321  0.7365
 6869TIP3    H242167   3.659   4.372   7.512  0.3508 -0.5869 -0.6149
 6870TIP3   OH242168   0.824   3.119   1.294 -0.3300 -0.5403 -0.2859
 6870TIP3    H142169   0.736   3.133   1.329  0.5081  0.8688  1.4019
 6870TIP3    H242170   0.877   3.099   1.371  1.6121  2.7221 -0.6119
 6871TIP3   OH242171   2.747   2.216   3.307  0.1522 -0.2055 -0.3153
 6871TIP3    H142172   2.821   2.172   3.267  2.3390  0.9901  2.1044
 6871TIP3    H242173   2.746   2.185   3.398 -0.2573  2.1447  0.5758
 6872TIP3   OH242174   2.337   0.552   3.247  0.6714 -0.0893 -0.0391
 6872TIP3    H142175   2.269   0.530   3.310  0.7581  0.3488  0.2162
 6872TIP3    H242176   2.375   0.633   3.281  0.3452  0.4626 -0.9426
 6873TIP3   OH242177   3.574   5.845   0.937 -0.4639 -0.4464 -0.4064
 6873TIP3    H142178   3.479   5.850   0.940 -0.4970 -0.7788 -0.7635
 6873TIP3    H242179   3.604   5.930   0.968 -0.8681 -0.5599  0.3025
 6874TIP3   OH242180   4.923   4.492   2.897  0.1157 -0.3231  0.6544
 6874TIP3    H142181   4.941   4.574   2.943  1.9870 -0.3409  0.0439
 6874TIP3    H242182   4.830   4.475   2.914 -0.9502  3.0121 -0.9345
 6875TIP3   OH242183   2.528   0.996   2.031 -0.5245  0.8944 -0.6401
 6875TIP3    H142184   2.558   0.934   2.098  0.2358 -0.1339 -1.8923
 6875TIP3    H242185   2.550   0.954   1.948 -3.2332  1.2069 -1.6140
 6876TIP3   OH242186   4.689   1.580   2.190  0.1786 -0.0088 -0.8342
 6876TIP3    H142187   4.597   1.577   2.165 -0.0123 -1.2034 -0.0945
 6876TIP3    H242188   4.705   1.672   2.211 -0.6488  0.3328 -1.6487
 6877TIP3   OH242189   5.904   2.696   2.910 -0.9466  0.2783  0.1620
 6877TIP3    H142190   5.993   2.680   2.877 -1.3693  1.8646 -1.9838
 6877TIP3    H242191   5.875   2.611   2.943  1.3033 -0.3034  0.7939
 6878TIP3   OH242192   2.788   2.070   1.574 -0.6089 -0.7176 -0.7449
 6878TIP3    H142193   2.800   2.083   1.669  0.6209  0.9695 -1.0838
 6878TIP3    H242194   2.708   2.118   1.553  0.0648  0.4055 -0.8206
 6879TIP3   OH242195   2.222   1.417   1.899  0.4661 -0.2301  0.7967
 6879TIP3    H142196   2.272   1.343   1.933 -2.2660 -2.5229  0.2590
 6879TIP3    H242197   2.159   1.437   1.969  0.1450  0.5124  0.3099
 6880TIP3   OH242198   0.259   1.659   2.127  0.3874  0.1148  0.3900
 6880TIP3    H142199   0.202   1.633   2.054  0.5722  1.0365 -0.1063
 6880TIP3    H242200   0.315   1.728   2.090  0.8098  0.2634  1.2760
 6881TIP3   OH242201   0.785   6.572   1.447 -0.2730  0.5066 -0.0946
 6881TIP3    H142202   0.838   6.498   1.477  0.7696 -0.0113 -2.9448
 6881TIP3    H242203   0.841   6.648   1.458  0.6348  0.1374 -1.8371
 6882TIP3   OH242204   4.344   3.806   3.126 -0.1016 -0.3013 -0.1343
 6882TIP3    H142205   4.376   3.803   3.036  0.6095 -0.3665  0.1186
 6882TIP3    H242206   4.408   3.858   3.173 -0.9142  0.4615  0.1709
 6883TIP3   OH242207   2.998   6.708   0.064  0.7758 -0.4803  0.1665
 6883TIP3    H142208   2.922   6.696   0.122  0.3034  0.8835 -0.1244
 6883TIP3    H242209   2.981   6.650  -0.010 -0.5088  0.4946 -0.3615
 6884TIP3   OH242210   4.503   3.856   8.327 -0.4401 -0.1897 -0.6862
 6884TIP3    H142211   4.415   3.855   8.366 -0.5925 -0.8804 -1.0197
 6884TIP3    H242212   4.493   3.903   8.244 -0.7209 -1.1256 -1.1978
 6885TIP3   OH242213   3.879   6.119   0.035  0.1700 -0.5467  0.8274
 6885TIP3    H142214   3.847   6.209   0.040  0.7042 -0.2416 -0.6184
 6885TIP3    H242215   3.970   6.125   0.064 -0.6763 -1.2562  4.0449
 6886TIP3   OH242216   3.433   2.541   8.098  0.1488 -0.0457 -0.0659
 6886TIP3    H142217   3.361   2.514   8.041  0.0713  0.2339 -0.1054
 6886TIP3    H242218   3.396   2.610   8.152  0.4394  0.2380 -0.2236
 6887TIP3   OH242219   1.682   6.257   1.571  0.6550  0.1423 -0.2346
 6887TIP3    H142220   1.747   6.296   1.513  1.2693 -0.5192 -0.0069
 6887TIP3    H242221   1.698   6.162   1.564 -0.0505 -0.0065  0.0986
 6888TIP3   OH242222   4.027   2.882   7.582  0.1958  0.2791 -0.2026
 6888TIP3    H142223   4.054   2.796   7.615 -2.0149  0.2529  1.7696
 6888TIP3    H242224   4.089   2.944   7.620  1.2449 -0.3208 -0.8923
 6889TIP3   OH242225   3.535   5.444   2.772 -0.4782  0.3598  0.0424
 6889TIP3    H142226   3.600   5.375   2.785 -0.5520  0.5184  1.4672
 6889TIP3    H242227   3.579   5.510   2.719  0.6890  0.6550  1.3281
 6890TIP3   OH242228   5.669   4.427   3.190 -0.0397 -0.5842 -0.3220
 6890TIP3    H142229   5.596   4.413   3.251  0.7718 -1.9367  0.3679
 6890TIP3    H242230   5.637   4.394   3.106 -0.9365  0.7158 -0.5330
 6891TIP3   OH242231   3.761   2.878   8.087 -0.0435  0.1035  0.2159
 6891TIP3    H142232   3.682   2.833   8.119 -0.5943  1.9654  1.7102
 6891TIP3    H242233   3.787   2.934   8.160  0.7101  2.0318 -1.4328
 6892TIP3   OH242234   4.360   3.255   0.988 -0.4870  0.2656  0.4437
 6892TIP3    H142235   4.440   3.205   0.973  0.1445  1.4661 -0.4141
 6892TIP3    H242236   4.360   3.274   1.082  0.6400  0.8711  0.3431
 6893TIP3   OH242237   6.153   5.434   2.365  0.3653  0.2720  0.1642
 6893TIP3    H142238   6.110   5.393   2.290 -1.7213  0.8740  0.9686
 6893TIP3    H242239   6.154   5.367   2.432  1.0012  0.1712  0.0668
 6894TIP3   OH242240   3.033   6.187   0.259 -0.2388 -0.0672  0.2175
 6894TIP3    H142241   3.088   6.153   0.329 -1.9132  0.4996  1.9116
 6894TIP3    H242242   3.002   6.109   0.213 -0.7817 -0.6369  1.4814
 6895TIP3   OH242243   2.606   6.619   2.350 -0.1882  0.2562  0.6492
 6895TIP3    H142244   2.651   6.671   2.416 -0.1109 -0.6012  1.2893
 6895TIP3    H242245   2.676   6.584   2.295 -0.1970  0.3206  0.5968
 6896TIP3   OH242246   2.641   5.231   2.269 -0.0266 -0.5865  0.2191
 6896TIP3    H142247   2.714   5.249   2.328 -0.2871 -0.4877  0.5183
 6896TIP3    H242248   2.644   5.137   2.254  0.1941 -0.5751  0.1831
 6897TIP3   OH242249   5.891   5.320   0.838  0.1679  0.1252 -0.1206
 6897TIP3    H142250   5.875   5.250   0.775  0.9600 -0.6823  0.5515
 6897TIP3    H242251   5.983   5.344   0.825 -0.1839  1.2968 -0.5847
 6898TIP3   OH242252   1.564   0.140   0.271 -0.1638  0.4233  0.6123
 6898TIP3    H142253   1.511   0.176   0.200  0.9260  0.4181 -0.2207
 6898TIP3    H242254   1.635   0.202   0.282  1.4169 -1.0987 -0.4401
 6899TIP3   OH242255   0.209   2.184   7.680 -0.2362  0.2585 -0.2115
 6899TIP3    H142256   0.244   2.256   7.627 -0.9325  0.2496 -0.7014
 6899TIP3    H242257   0.202   2.111   7.618 -3.0168  0.8278 -0.6754
 6900TIP3   OH242258   3.292   2.956   2.967 -0.1915  0.1908 -0.2638
 6900TIP3    H142259   3.279   2.915   3.053  2.9942  1.2250  0.8698
 6900TIP3    H242260   3.240   3.036   2.971 -0.9917 -0.3377  0.2207
 6901TIP3   OH242261   4.887   5.772   2.922  0.4143  0.0739 -0.1173
 6901TIP3    H142262   4.892   5.696   2.979 -0.0044 -1.2470 -1.7459
 6901TIP3    H242263   4.936   5.746   2.843 -0.9128  0.9347 -1.2756
 6902TIP3   OH242264   3.137   0.607   2.490  0.2555  0.0420 -0.0667
 6902TIP3    H142265   3.041   0.609   2.486  0.2748  1.0928 -0.2447
 6902TIP3    H242266   3.159   0.514   2.483 -0.7488 -0.2058 -0.0991
 6903TIP3   OH242267   6.172   4.185   1.556  0.4561  0.0994 -0.2154
 6903TIP3    H142268   6.158   4.280   1.556  0.9649  0.1824 -1.0319
 6903TIP3    H242269   6.108   4.152   1.619  0.7419  1.0498  0.6088
 6904TIP3   OH242270   1.240   5.161   2.651  0.1849  0.3453  0.3733
 6904TIP3    H142271   1.321   5.197   2.615  0.9212 -0.6069  1.0235
 6904TIP3    H242272   1.198   5.235   2.696  0.6787  0.8491  0.0178
 6905TIP3   OH242273   0.387   4.108   0.805 -0.3552  0.6571 -0.5743
 6905TIP3    H142274   0.364   4.177   0.867  1.2188 -0.0067  0.7923
 6905TIP3    H242275   0.469   4.137   0.765  0.4908 -0.5124  0.2324
 6906TIP3   OH242276   0.061   4.590   8.389 -0.2563  0.3178 -0.1956
 6906TIP3    H142277   0.065   4.684   8.376  4.9410  0.5832  0.9880
 6906TIP3    H242278   0.043   4.579   8.483 -2.4331 -0.0509 -0.6044
 6907TIP3   OH242279   4.546   0.817   2.425 -0.1752  0.4051  0.8123
 6907TIP3    H142280   4.485   0.835   2.353  1.0250  0.4214 -0.2357
 6907TIP3    H242281   4.534   0.724   2.444  0.9313 -0.1207 -0.8407
 6908TIP3   OH242282   0.055   6.857   0.782 -0.1534  0.6166  0.2206
 6908TIP3    H142283   0.127   6.854   0.718 -0.1508 -1.7312  0.2697
 6908TIP3    H242284   0.010   6.940   0.763  0.9418  0.8445 -1.6109
 6909TIP3   OH242285   6.769   3.006   8.086  0.1496  0.4252 -0.2108
 6909TIP3    H142286   6.697   3.042   8.137 -0.2389  0.7597 -0.9738
 6909TIP3    H242287   6.784   2.919   8.123 -1.8022 -0.3537 -1.1213
 6910TIP3   OH242288   6.409   2.693   2.001  0.2616 -0.2102  0.8514
 6910TIP3    H142289   6.342   2.629   1.979 -2.2916  2.2141  1.0170
 6910TIP3    H242290   6.422   2.684   2.095 -0.2378 -0.3450  0.9061
 6911TIP3   OH242291   6.785   1.867   1.744  0.5725  0.3296  0.2649
 6911TIP3    H142292   6.800   1.811   1.668 -2.6008 -0.0301 -0.2262
 6911TIP3    H242293   6.817   1.953   1.717  0.5938 -0.0661 -1.0423
 6912TIP3   OH242294   3.536   4.925   8.265 -0.0883 -0.1622 -0.3579
 6912TIP3    H142295   3.600   4.885   8.324  0.4478  0.8753 -0.2158
 6912TIP3    H242296   3.534   4.867   8.189  1.3204 -0.0093 -0.5327
 6913TIP3   OH242297   5.422   0.307   7.805 -0.1653  0.4158  0.5683
 6913TIP3    H142298   5.357   0.326   7.737 -0.0791 -0.8817  0.1066
 6913TIP3    H242299   5.494   0.264   7.758  1.0988  1.9132  1.0542
 6914TIP3   OH242300   0.778   2.075   0.889 -0.8150 -0.6577  0.3232
 6914TIP3    H142301   0.779   2.095   0.795 -1.7620  1.5688  0.6987
 6914TIP3    H242302   0.685   2.068   0.911 -0.6324 -0.5432  1.1851
 6915TIP3   OH242303   0.238   6.824   8.220  0.1696 -0.1765 -0.7621
 6915TIP3    H142304   0.293   6.898   8.194  0.0480  0.3186  0.3372
 6915TIP3    H242305   0.293   6.773   8.279 -0.8071  0.8402  1.1349
 6916TIP3   OH242306   4.720   4.779   0.836 -0.1900 -0.2758  0.2143
 6916TIP3    H142307   4.711   4.806   0.927 -1.7141  1.1590 -0.3050
 6916TIP3    H242308   4.643   4.726   0.818 -0.1626 -0.1339 -0.3675
 6917TIP3   OH242309   5.855   1.648   2.623  0.0087  0.6383 -0.0233
 6917TIP3    H142310   5.891   1.559   2.625  0.6549  0.8297 -1.6978
 6917TIP3    H242311   5.898   1.689   2.548  0.0726  2.5262  0.9974
 6918TIP3   OH242312   0.704   4.522   0.537 -0.2772  0.1896 -0.5115
 6918TIP3    H142313   0.679   4.612   0.514 -1.1681 -0.2046 -1.1557
 6918TIP3    H242314   0.637   4.493   0.598 -1.3397 -0.8042 -2.0769
 6919TIP3   OH242315   0.458   4.132   1.488  0.2058  0.5730 -0.0364
 6919TIP3    H142316   0.514   4.082   1.548  1.2778 -0.5157 -1.8322
 6919TIP3    H242317   0.502   4.217   1.480  0.9411  0.1647 -0.4685
 6920TIP3   OH242318   1.304   3.541   7.684 -0.1085  0.4778 -0.3168
 6920TIP3    H142319   1.332   3.621   7.639 -1.4440  0.2689 -1.5998
 6920TIP3    H242320   1.262   3.572   7.764  0.5530  0.9839 -0.1574
 6921TIP3   OH242321   0.044   1.505   2.336 -0.6993 -0.2231 -0.2478
 6921TIP3    H142322  -0.003   1.527   2.256 -0.1332 -1.1149 -0.8522
 6921TIP3    H242323   0.046   1.586   2.387 -1.9875  0.0869 -0.6540
 6922TIP3   OH242324   2.624   6.074   8.125  0.6490  0.4751 -0.1737
 6922TIP3    H142325   2.596   6.107   8.040 -0.0777 -2.2943 -1.1404
 6922TIP3    H242326   2.651   5.983   8.108  1.8354  0.2598  2.3184
 6923TIP3   OH242327   6.597   6.323   0.237 -0.0839  0.4545  0.0665
 6923TIP3    H142328   6.574   6.387   0.170 -1.3361 -1.3596 -1.3478
 6923TIP3    H242329   6.516   6.274   0.252  0.7501 -0.6008  1.3001
 6924TIP3   OH242330   6.683   2.241   0.229 -0.2784 -0.0290 -0.3845
 6924TIP3    H142331   6.663   2.258   0.137 -3.0122 -0.5939  0.0418
 6924TIP3    H242332   6.638   2.160   0.250  0.3521  0.0410  1.4561
 6925TIP3   OH242333   4.684   6.655   2.933 -0.7736  0.2373  0.1531
 6925TIP3    H142334   4.619   6.610   2.987 -0.5389  1.2837  1.3421
 6925TIP3    H242335   4.680   6.746   2.961  1.9699  0.1743  1.0627
 6926TIP3   OH242336   5.939   3.483   8.272 -0.1370 -0.3142  0.4309
 6926TIP3    H142337   5.962   3.475   8.364  1.1565  0.2541  0.1794
 6926TIP3    H242338   6.020   3.512   8.229 -1.3174  1.7748 -0.5299
 6927TIP3   OH242339   5.944   4.697   2.053  0.4305 -0.4434  0.1361
 6927TIP3    H142340   5.941   4.746   2.136  0.4440  1.6787 -1.0470
 6927TIP3    H242341   5.856   4.660   2.045 -0.2798  1.1400  0.1224
 6928TIP3   OH242342   6.749   2.972   7.811 -0.5831 -0.3077  0.0033
 6928TIP3    H142343   6.789   2.985   7.897  0.3547  0.7260 -0.5793
 6928TIP3    H242344   6.799   3.028   7.752 -1.7237 -0.3965 -1.0810
 6929TIP3   OH242345   1.295   3.365   3.255  0.0847  0.5594  0.1535
 6929TIP3    H142346   1.368   3.320   3.213  1.9891  1.5483  2.1485
 6929TIP3    H242347   1.322   3.457   3.257 -1.2244  0.9488  0.9607
 6930TIP3   OH242348   6.222   4.623   2.416  0.3550  0.0788  0.6743
 6930TIP3    H142349   6.234   4.623   2.321 -0.0949 -0.7317  0.6110
 6930TIP3    H242350   6.278   4.694   2.447 -0.1322  0.8950 -0.2719
 6931TIP3   OH242351   4.620   5.638   1.038 -0.3338  0.3679 -0.8813
 6931TIP3    H142352   4.539   5.642   1.089  0.5672  0.1210  0.6265
 6931TIP3    H242353   4.638   5.544   1.030  1.6218  0.3683  1.9223
 6932TIP3   OH242354   4.104   3.007   1.605 -0.4692 -0.5237  0.1835
 6932TIP3    H142355   4.078   2.915   1.597 -1.4599 -0.3038  0.6637
 6932TIP3    H242356   4.053   3.040   1.678  0.5778  0.1805  0.6227
 6933TIP3   OH242357   1.884   6.244   0.055  0.1679  0.0653  0.0957
 6933TIP3    H142358   1.845   6.313   0.000 -0.6966 -0.2324  0.3248
 6933TIP3    H242359   1.951   6.204  -0.001  0.7035  1.0917 -0.0392
 6934TIP3   OH242360   5.836   5.233   1.179 -0.1568  0.1463 -0.1280
 6934TIP3    H142361   5.817   5.139   1.175  0.0796  0.0526  0.6081
 6934TIP3    H242362   5.789   5.271   1.106 -2.4227 -0.2023  1.0689
 6935TIP3   OH242363   1.799   3.264   2.596 -0.3614 -0.5579  0.4598
 6935TIP3    H142364   1.872   3.229   2.545 -1.1046 -0.3394 -0.8118
 6935TIP3    H242365   1.793   3.207   2.673  0.7578 -0.9421  0.2730
 6936TIP3   OH242366   2.127   6.123   1.912  0.0684  0.5973  0.5319
 6936TIP3    H142367   2.114   6.191   1.977 -0.0298  1.5858 -0.4988
 6936TIP3    H242368   2.209   6.146   1.869 -0.5034  0.6721 -0.5414
 6937TIP3   OH242369   5.769   4.781   7.900  0.1298  0.0082 -0.4529
 6937TIP3    H142370   5.686   4.763   7.857 -0.3832  0.1374  0.4644
 6937TIP3    H242371   5.781   4.708   7.961  0.5480  0.1424 -0.3697
 6938TIP3   OH242372   0.010   4.752   0.357  0.4607 -0.6527  0.5751
 6938TIP3    H142373   0.082   4.815   0.358 -0.5582  0.5491  2.4882
 6938TIP3    H242374  -0.062   4.798   0.315 -0.0929 -0.7889  1.3688
 6939TIP3   OH242375   4.024   2.420   2.883  0.2091  0.7051 -0.1177
 6939TIP3    H142376   3.980   2.505   2.878 -1.5429 -0.0809  1.0030
 6939TIP3    H242377   4.028   2.400   2.977 -0.2704 -0.8542 -0.3991
 6940TIP3   OH242378   3.130   0.836   1.252 -0.1193 -0.0829 -0.7466
 6940TIP3    H142379   3.038   0.851   1.273  0.3160  0.8062  0.6359
 6940TIP3    H242380   3.174   0.834   1.337  1.1905 -0.1581 -1.4017
 6941TIP3   OH242381   0.200   0.680   8.346  0.5086  0.6940 -0.5255
 6941TIP3    H142382   0.213   0.656   8.254  0.6949  0.8989 -0.5538
 6941TIP3    H242383   0.218   0.600   8.395  3.4092  1.2976 -0.4387
 6942TIP3   OH242384   1.170   3.601   0.847 -0.2283 -0.3003 -0.0369
 6942TIP3    H142385   1.206   3.513   0.844  1.2677  0.2812 -0.3934
 6942TIP3    H242386   1.078   3.591   0.823  0.0712 -1.6665 -0.7021
 6943TIP3   OH242387   4.768   4.294   2.582 -0.1791 -0.3305  0.1185
 6943TIP3    H142388   4.695   4.343   2.621  0.3495  0.0138  0.7053
 6943TIP3    H242389   4.729   4.213   2.551 -1.1880  0.6643 -1.3500
 6944TIP3   OH242390   4.224   4.544   1.911  0.8962  0.2950 -0.6288
 6944TIP3    H142391   4.150   4.509   1.961 -0.3562  1.1880 -1.8111
 6944TIP3    H242392   4.300   4.497   1.946 -0.3182 -1.2859  0.0185
 6945TIP3   OH242393   4.658   4.201   3.461  0.3280  0.1495 -0.2645
 6945TIP3    H142394   4.595   4.229   3.394  0.3946 -3.2280 -1.9851
 6945TIP3    H242395   4.604   4.179   3.536 -0.0969  1.0224 -0.3018
 6946TIP3   OH242396   3.647   4.500   2.059  0.5133 -0.1995 -0.5680
 6946TIP3    H142397   3.604   4.415   2.071  0.4102 -0.0405  0.2731
 6946TIP3    H242398   3.705   4.487   1.984  0.8904 -1.1657 -0.1258
 6947TIP3   OH242399   0.724   2.721   0.316 -0.8253  0.0557 -0.4046
 6947TIP3    H142400   0.664   2.752   0.384 -0.1636  0.2591  0.0951
 6947TIP3    H242401   0.770   2.648   0.356 -0.0179  0.5374 -0.4145
 6948TIP3   OH242402   4.834   1.118   2.072 -0.4522  0.5152 -0.2886
 6948TIP3    H142403   4.908   1.098   2.014 -0.5666  0.1043 -0.3021
 6948TIP3    H242404   4.803   1.203   2.043  0.2346  0.8529 -0.0485
 6949TIP3   OH242405   0.849   0.919   8.349 -0.2209  0.1958  0.0315
 6949TIP3    H142406   0.848   0.829   8.318 -0.1925  0.6871 -1.4805
 6949TIP3    H242407   0.900   0.916   8.430 -0.4403 -1.1721  0.1415
 6950TIP3   OH242408   3.151   2.969   8.134  1.0677  0.9285 -0.6153
 6950TIP3    H142409   3.111   2.945   8.051  0.2488  1.7088 -0.4676
 6950TIP3    H242410   3.228   3.019   8.110  1.1926  0.6007 -0.9033
 6951TIP3   OH242411   0.645   5.350   8.394 -0.0266 -0.7106  0.2047
 6951TIP3    H142412   0.681   5.408   8.461 -1.5506  0.3481  0.1654
 6951TIP3    H242413   0.655   5.399   8.312 -0.2813 -0.9862  0.0048
 6952TIP3   OH242414   5.680   1.738   3.240 -0.1037 -0.0599 -0.4716
 6952TIP3    H142415   5.621   1.787   3.184 -0.4634 -0.2618 -0.2758
 6952TIP3    H242416   5.749   1.800   3.263 -0.6103  0.3841 -0.1402
 6953TIP3   OH242417   3.983   0.667   1.925 -0.0176  0.4931  0.1649
 6953TIP3    H142418   3.912   0.717   1.884  1.2470  2.2239 -0.0298
 6953TIP3    H242419   4.038   0.640   1.852 -0.1493 -0.3280  0.3664
 6954TIP3   OH242420   2.735   6.319   3.091  0.2718  0.1609 -0.4660
 6954TIP3    H142421   2.683   6.329   3.012 -0.6391 -0.6450  0.0039
 6954TIP3    H242422   2.677   6.348   3.162  1.2591  1.3910 -0.1297
 6955TIP3   OH242423   2.756   2.779   7.689 -0.1803 -0.0201 -0.0407
 6955TIP3    H142424   2.738   2.868   7.659 -1.2875 -0.0078  0.6268
 6955TIP3    H242425   2.682   2.727   7.658  0.1820 -0.6039  0.0559
 6956TIP3   OH242426   0.344   6.596   0.613  0.4927 -0.0458 -0.1387
 6956TIP3    H142427   0.267   6.554   0.576  0.2168  0.7295 -0.4703
 6956TIP3    H242428   0.405   6.603   0.539  0.1149  1.0990 -0.3646
 6957TIP3   OH242429   5.820   2.590   0.734 -0.3985 -0.5868 -0.0302
 6957TIP3    H142430   5.884   2.651   0.698  1.1291 -1.8287  0.4173
 6957TIP3    H242431   5.872   2.513   0.758 -1.4855 -0.4277  3.4474
 6958TIP3   OH242432   1.914   0.211   2.657  0.6292  0.0937 -0.8350
 6958TIP3    H142433   1.860   0.290   2.652  3.5401  2.3097 -0.0545
 6958TIP3    H242434   1.881   0.164   2.733 -1.3574  0.3590 -1.4812
 6959TIP3   OH242435   6.654   2.087   2.728  0.2869  0.4624  0.6889
 6959TIP3    H142436   6.739   2.042   2.730  0.6221  1.0064 -0.3426
 6959TIP3    H242437   6.590   2.017   2.720  0.7529  0.1097 -0.1815
 6960TIP3   OH242438   6.873   0.895   8.421 -0.0943  0.7322  0.4190
 6960TIP3    H142439   6.923   0.814   8.408 -0.1400  0.6597  0.6810
 6960TIP3    H242440   6.905   0.929   8.505 -1.1139  0.2243  1.0246
 6961TIP3   OH242441   1.544   4.902   0.871  0.3008  0.3842 -0.3418
 6961TIP3    H142442   1.559   4.996   0.870 -2.8800  1.0077 -0.8658
 6961TIP3    H242443   1.472   4.890   0.933  0.6564 -1.7154 -0.2567
 6962TIP3   OH242444   5.561   3.088   7.959 -0.2213  0.0519  0.3450
 6962TIP3    H142445   5.655   3.092   7.974 -0.1682 -0.8847  0.3295
 6962TIP3    H242446   5.541   3.167   7.909  0.3379  0.9157  1.4429
 6963TIP3   OH242447   1.839   6.039   0.226 -0.0171 -0.7213 -0.1453
 6963TIP3    H142448   1.851   6.119   0.175  0.5765  0.0490  1.1501
 6963TIP3    H242449   1.779   5.986   0.173  0.6798 -0.0419 -1.7026
 6964TIP3   OH242450   6.169   1.029   2.763 -0.5343 -0.3723  0.0231
 6964TIP3    H142451   6.161   1.100   2.699  2.8484 -0.7602 -1.0662
 6964TIP3    H242452   6.131   1.063   2.843  2.3059  3.4678  0.0232
 6965TIP3   OH242453   1.062   2.097   2.865  0.1869  0.3834 -0.4676
 6965TIP3    H142454   1.110   2.021   2.898  0.9518  1.3078  0.6347
 6965TIP3    H242455   0.971   2.068   2.862  0.5263 -0.7354 -0.5676
 6966TIP3   OH242456   0.368   0.376   8.383 -0.0071 -0.2739 -0.3507
 6966TIP3    H142457   0.372   0.436   8.457  0.0646  0.0811 -0.6404
 6966TIP3    H242458   0.284   0.396   8.340 -0.1549 -0.6360 -0.2331
 6967TIP3   OH242459   6.420   2.625   2.270 -0.6131 -0.0822  0.0221
 6967TIP3    H142460   6.485   2.556   2.275 -1.2380 -0.6844  0.0567
 6967TIP3    H242461   6.429   2.674   2.352  0.1262  0.1572 -0.1957
 6968TIP3   OH242462   5.291   3.248   7.402  0.4192 -0.1771 -0.5420
 6968TIP3    H142463   5.333   3.323   7.444 -0.5353  1.7820 -2.8739
 6968TIP3    H242464   5.354   3.218   7.337 -0.6736  1.1132 -2.2572
 6969TIP3   OH242465   0.445   3.671   7.711 -0.1155  0.4831 -0.0007
 6969TIP3    H142466   0.486   3.611   7.648  2.5740  0.1916  1.8280
 6969TIP3    H242467   0.430   3.751   7.661  1.7924  0.2251 -1.1243
 6970TIP3   OH242468   1.378   6.106   3.030  0.2897  0.6119  0.9607
 6970TIP3    H142469   1.442   6.098   2.960 -1.1492 -0.0548 -0.3305
 6970TIP3    H242470   1.427   6.144   3.103  1.7860  1.5103 -0.4539
 6971TIP3   OH242471   0.064   6.541   3.569  0.3901  0.4425  1.1617
 6971TIP3    H142472   0.074   6.621   3.621 -0.0338  2.5970 -1.8305
 6971TIP3    H242473  -0.030   6.533   3.555  0.5395  0.4344  0.0390
 6972TIP3   OH242474   0.818   5.047   2.218 -0.2296 -0.3102  0.0923
 6972TIP3    H142475   0.774   5.102   2.153 -2.9435 -0.8079  1.3690
 6972TIP3    H242476   0.893   5.099   2.246 -1.2930  1.6728 -0.5360
 6973TIP3   OH242477   1.493   5.658   2.261  0.5242 -0.1609 -0.4140
 6973TIP3    H142478   1.580   5.670   2.299  0.4616 -0.5325 -0.1445
 6973TIP3    H242479   1.433   5.669   2.335  0.4673 -2.1786 -0.0927
 6974TIP3   OH242480   5.061   2.768   8.162  0.5954  0.0324 -0.5104
 6974TIP3    H142481   5.151   2.742   8.183  0.7245  1.7111  1.2714
 6974TIP3    H242482   5.070   2.833   8.091  1.0788  2.0835  1.3238
 6975TIP3   OH242483   2.893   3.268   0.332  0.1851 -0.6315  0.5753
 6975TIP3    H142484   2.895   3.358   0.300 -1.5970 -0.2810  1.3427
 6975TIP3    H242485   2.953   3.267   0.407 -1.3338  0.5130  1.8827
 6976TIP3   OH242486   3.989   4.754   2.773 -0.3891 -0.2349 -0.1692
 6976TIP3    H142487   4.061   4.726   2.828  0.2413  0.2336 -0.7347
 6976TIP3    H242488   4.003   4.848   2.761 -1.0831 -0.1413 -0.2929
 6977TIP3   OH242489   6.636   0.478   7.365  0.0047 -0.1055  0.3330
 6977TIP3    H142490   6.542   0.471   7.353 -0.0583 -0.1059  0.8007
 6977TIP3    H242491   6.646   0.524   7.449  0.4054  2.9898 -1.2782
 6978TIP3   OH242492   2.140   0.788   1.364  0.1788  0.6868  0.2422
 6978TIP3    H142493   2.065   0.728   1.362  1.0794 -0.4479 -0.9189
 6978TIP3    H242494   2.106   0.870   1.329 -0.3142 -0.1116 -1.2364
 6979TIP3   OH242495   4.609   3.494   8.486 -0.0531  0.4698  0.7878
 6979TIP3    H142496   4.679   3.554   8.462 -1.0894  2.5139  2.5209
 6979TIP3    H242497   4.538   3.515   8.425 -0.7188  1.6806  1.9410
 6980TIP3   OH242498   5.497   5.905   1.361  0.7552  0.1461  0.0829
 6980TIP3    H142499   5.463   5.993   1.345  1.0021  0.2593  0.1670
 6980TIP3    H242500   5.556   5.888   1.288  0.2684 -0.1815 -0.2375
 6981TIP3   OH242501   2.723   1.546   1.517  0.6104  0.1808 -0.1951
 6981TIP3    H142502   2.815   1.548   1.493  0.8784 -0.1901  0.7322
 6981TIP3    H242503   2.678   1.510   1.441  1.2671  0.0657 -0.5327
 6982TIP3   OH242504   1.532   6.060   0.484 -0.1187 -0.0442  0.1111
 6982TIP3    H142505   1.544   6.141   0.435 -1.0119 -0.8002 -1.4359
 6982TIP3    H242506   1.484   6.087   0.563  0.0727  1.0018 -0.1161
 6983TIP3   OH242507   4.498   5.521   0.471  0.3982  0.0588 -0.3264
 6983TIP3    H142508   4.465   5.456   0.533  1.0282 -0.5962 -0.6744
 6983TIP3    H242509   4.551   5.580   0.525  2.7035 -1.7103 -0.5137
 6984TIP3   OH242510   3.103   0.085   1.505  0.6439 -0.2200 -0.2228
 6984TIP3    H142511   3.069  -0.002   1.487  1.3970 -0.2957 -1.5020
 6984TIP3    H242512   3.166   0.100   1.434 -0.4995  1.9257 -0.8731
 6985TIP3   OH242513   0.738   3.731   1.317  0.2965 -0.1116  0.0859
 6985TIP3    H142514   0.684   3.711   1.241  1.8876 -1.7612 -0.6775
 6985TIP3    H242515   0.750   3.647   1.361  1.0728  0.4573  0.9971
 6986TIP3   OH242516   2.286   3.047   7.858 -0.1084  0.1246  0.5064
 6986TIP3    H142517   2.299   3.140   7.873 -0.4779  0.1522  0.6582
 6986TIP3    H242518   2.209   3.024   7.910 -0.6809 -0.0350 -0.3806
 6987TIP3   OH242519   1.079   1.351   0.169 -0.5712 -0.2893 -0.3729
 6987TIP3    H142520   1.056   1.376   0.080  0.8436 -0.1485 -0.7198
 6987TIP3    H242521   1.010   1.389   0.224 -0.1956  1.6691 -1.1826
 6988TIP3   OH242522   3.440   5.136   8.411  0.1488  0.5233 -0.4140
 6988TIP3    H142523   3.488   5.060   8.377  0.5285  1.2537 -1.5612
 6988TIP3    H242524   3.485   5.158   8.493 -1.2245 -1.7025  1.0298
 6989TIP3   OH242525   6.886   6.341   0.222  0.0922 -0.0155  0.5965
 6989TIP3    H142526   6.790   6.342   0.226  0.0917 -0.5921  0.8954
 6989TIP3    H242527   6.912   6.427   0.255 -0.3172  0.0410  0.7828
 6990TIP3   OH242528   4.882   0.107   8.382 -0.1999 -0.0890 -0.6598
 6990TIP3    H142529   4.904   0.173   8.316  0.3292  0.7828  0.3493
 6990TIP3    H242530   4.806   0.061   8.347 -0.5705  1.0598 -1.3946
 6991TIP3   OH242531   1.271   5.395   0.386 -0.3495 -0.0161  0.6206
 6991TIP3    H142532   1.344   5.438   0.341 -0.4204 -0.5437 -0.0192
 6991TIP3    H242533   1.310   5.317   0.425 -0.7281 -0.7603 -0.4560
 6992TIP3   OH242534   4.109   2.435   1.739  0.4762  0.3955  0.2901
 6992TIP3    H142535   4.049   2.429   1.664 -0.1380  1.2038  0.6958
 6992TIP3    H242536   4.149   2.522   1.729  1.2442  0.0425  0.2747
 6993TIP3   OH242537   0.527   5.802   1.590  0.2396 -0.1787  0.4299
 6993TIP3    H142538   0.614   5.807   1.631  0.1986 -0.3309  0.5400
 6993TIP3    H242539   0.536   5.734   1.523 -0.5542 -2.3855  2.4068
 6994TIP3   OH242540   3.158   0.287   3.550  0.0454  0.0929 -0.1999
 6994TIP3    H142541   3.087   0.279   3.486 -1.8274  1.2037  1.6165
 6994TIP3    H242542   3.148   0.209   3.605  0.2611  0.2353  0.0391
 6995TIP3   OH242543   2.646   4.063   2.562 -0.8228 -0.3426  0.3977
 6995TIP3    H142544   2.553   4.061   2.585 -0.7248 -0.1749  0.8138
 6995TIP3    H242545   2.672   3.971   2.560 -0.7146 -0.3458  1.4569
 6996TIP3   OH242546   5.588   6.025   1.965  0.2053 -0.5371 -0.2751
 6996TIP3    H142547   5.549   6.112   1.958  1.4460  0.0534 -0.1356
 6996TIP3    H242548   5.585   6.004   2.058 -1.5441 -1.3594 -0.4842
 6997TIP3   OH242549   1.547   5.367   2.068  0.7424  0.1571 -0.3976
 6997TIP3    H142550   1.590   5.427   2.007  0.0487  1.3738  0.2937
 6997TIP3    H242551   1.615   5.302   2.089  1.3819  0.4641 -1.4417
 6998TIP3   OH242552   5.611   2.825   0.831 -0.3896  0.5296 -0.6106
 6998TIP3    H142553   5.664   2.820   0.911 -1.8197  1.3443  0.4269
 6998TIP3    H242554   5.639   2.750   0.779  0.8410  0.2003  0.4720
 6999TIP3   OH242555   4.333   5.757   2.551  0.2785  0.3769  0.2292
 6999TIP3    H142556   4.291   5.832   2.592 -0.5331 -0.6616  1.4066
 6999TIP3    H242557   4.325   5.687   2.617 -1.0295 -1.3818 -1.6498
 7000TIP3   OH242558   0.655   5.561   3.168  0.2898  0.1628  0.3120
 7000TIP3    H142559   0.646   5.598   3.256 -0.6546  1.3252 -0.2491
 7000TIP3    H242560   0.750   5.554   3.154  0.4456  0.2288  1.3001
 7001TIP3   OH242561   3.577   3.876   3.117 -0.2641 -0.2695 -0.0915
 7001TIP3    H142562   3.520   3.948   3.090 -2.3427 -2.0849 -0.8316
 7001TIP3    H242563   3.650   3.879   3.055 -0.2845  1.1913 -0.0792
 7002TIP3   OH242564   2.449   0.240   1.149 -0.1239  0.0026  0.0591
 7002TIP3    H142565   2.404   0.164   1.185 -1.1172  0.1726 -0.7824
 7002TIP3    H242566   2.530   0.247   1.201 -0.9610 -0.4161  1.4628
 7003TIP3   OH242567   1.320   6.763   0.828  0.2678  0.3581 -0.1225
 7003TIP3    H142568   1.260   6.704   0.782 -0.4670 -0.4034  1.6908
 7003TIP3    H242569   1.406   6.746   0.789 -0.4597  0.5339 -1.8919
 7004TIP3   OH242570   0.201   3.645   0.481  0.0395 -0.0042  0.5171
 7004TIP3    H142571   0.250   3.727   0.472 -0.1984  0.3759  2.2672
 7004TIP3    H242572   0.111   3.669   0.462  0.1052 -0.0577  0.1416
 7005TIP3   OH242573   3.416   4.625   1.931 -0.2324  0.6968 -0.3080
 7005TIP3    H142574   3.398   4.571   1.854 -2.7325 -0.9480  1.2482
 7005TIP3    H242575   3.478   4.573   1.982 -0.0941  0.8502 -0.3211
 7006TIP3   OH242576   0.443   1.038   0.710  0.5738  0.7045  0.2760
 7006TIP3    H142577   0.494   0.965   0.675  1.2783  0.7117  1.2447
 7006TIP3    H242578   0.503   1.112   0.709 -0.3874  1.5282 -1.4951
 7007TIP3   OH242579   5.019   2.499   1.993  0.2646  0.4454 -0.0586
 7007TIP3    H142580   5.085   2.494   2.062 -0.9180 -1.0143  1.0246
 7007TIP3    H242581   5.027   2.416   1.946 -0.4895  0.4637 -0.2243
 7008TIP3   OH242582   3.934   5.797   0.914  0.3610 -0.0127 -0.0654
 7008TIP3    H142583   3.920   5.738   0.841  3.1335  1.2958 -1.8480
 7008TIP3    H242584   3.920   5.885   0.877  0.0787  0.6185  1.4584
 7009TIP3   OH242585   2.581   3.927   1.860  0.8028 -0.1293  0.7708
 7009TIP3    H142586   2.557   3.871   1.934  0.1273  0.8138  1.2846
 7009TIP3    H242587   2.545   4.013   1.881  2.9136  0.8665  0.6058
 7010TIP3   OH242588   6.326   0.218   7.846  0.0843 -0.2370 -0.2043
 7010TIP3    H142589   6.239   0.249   7.821  0.4152  1.2016  0.3343
 7010TIP3    H242590   6.363   0.183   7.765 -0.9191 -0.6904 -0.4764
 7011TIP3   OH242591   4.107   6.662   0.801 -0.3858  0.7374  0.6115
 7011TIP3    H142592   4.141   6.581   0.836 -0.9939  0.7010  1.1363
 7011TIP3    H242593   4.106   6.649   0.706  1.9518  1.1113  0.4731
 7012TIP3   OH242594   3.011   2.240   3.013  0.6253  0.1902 -0.1989
 7012TIP3    H142595   3.073   2.181   2.971  2.4080  1.9819 -0.2092
 7012TIP3    H242596   2.974   2.188   3.085  2.0384 -0.9685 -0.2655
 7013TIP3   OH242597   5.560   3.607   7.586  0.2112  0.4871 -0.4235
 7013TIP3    H142598   5.543   3.678   7.647 -4.6182 -0.0717 -0.6612
 7013TIP3    H242599   5.476   3.560   7.581  2.2449 -3.4038 -2.5874
 7014TIP3   OH242600   1.312   3.618   1.472  0.0264 -0.2540  0.0266
 7014TIP3    H142601   1.216   3.617   1.469 -0.1105  2.9225 -0.0481
 7014TIP3    H242602   1.334   3.581   1.557 -1.4245  0.8293  0.9283
 7015TIP3   OH242603   3.226   0.725   7.878  0.4163 -0.2638  0.4926
 7015TIP3    H142604   3.274   0.798   7.839 -0.7190  0.8649  1.1449
 7015TIP3    H242605   3.190   0.678   7.803  0.9965 -0.0369  0.0671
 7016TIP3   OH242606   2.256   3.491   1.754 -0.1544  0.2135 -0.3444
 7016TIP3    H142607   2.262   3.551   1.680  0.9562  2.5710  1.4956
 7016TIP3    H242608   2.180   3.521   1.804  1.0202  0.8684  1.1461
 7017TIP3   OH242609   6.458   5.300   1.799 -0.0557 -0.0467  0.8543
 7017TIP3    H142610   6.443   5.315   1.892 -3.0645  1.4608  0.2304
 7017TIP3    H242611   6.378   5.330   1.756  1.6743  0.4411 -2.3418
 7018TIP3   OH242612   0.445   2.608   0.623 -0.1282 -0.7325 -0.3192
 7018TIP3    H142613   0.455   2.679   0.560 -0.4449 -0.1959  0.2343
 7018TIP3    H242614   0.359   2.622   0.663  0.6042 -0.2804  1.1901
 7019TIP3   OH242615   5.973   0.852   1.802  0.1313 -0.0960 -0.1897
 7019TIP3    H142616   6.051   0.801   1.781  0.5274 -0.1121  1.2795
 7019TIP3    H242617   5.901   0.789   1.797  0.8715 -1.5942  4.1938
 7020TIP3   OH242618   0.109   5.995   2.260 -0.4662 -0.6241 -0.3114
 7020TIP3    H142619   0.026   5.994   2.309 -1.3150 -2.6194 -1.6881
 7020TIP3    H242620   0.113   5.909   2.218  1.6422 -0.0326 -1.4262
 7021TIP3   OH242621   5.250   0.506   8.450  0.1226 -0.0061 -0.1617
 7021TIP3    H142622   5.170   0.547   8.483 -1.3184 -0.7462 -2.4867
 7021TIP3    H242623   5.219   0.436   8.392  2.4321  0.0065 -1.5498
 7022TIP3   OH242624   4.166   6.611   0.532 -0.3517 -0.2673 -0.0372
 7022TIP3    H142625   4.227   6.579   0.466 -0.1972 -1.5469  0.6980
 7022TIP3    H242626   4.110   6.672   0.485 -1.0092 -2.0392 -1.6689
 7023TIP3   OH242627   4.748   2.414   2.421 -1.0271  0.6551  0.0669
 7023TIP3    H142628   4.754   2.388   2.513 -1.7352  1.5411  0.3802
 7023TIP3    H242629   4.839   2.421   2.392 -0.8011 -0.5955  0.3996
 7024TIP3   OH242630   0.520   2.015   3.388  0.5835  0.3974  0.0113
 7024TIP3    H142631   0.502   2.101   3.425  0.0059  0.1660  0.2836
 7024TIP3    H242632   0.435   1.972   3.385  1.1913 -1.1966  2.4405
 7025TIP3   OH242633   2.413   2.240   3.024  0.1291 -0.1706  0.1779
 7025TIP3    H142634   2.321   2.238   2.997  0.4556 -0.6445 -0.9749
 7025TIP3    H242635   2.440   2.148   3.023  0.7381  0.0040  0.0703
 7026TIP3   OH242636   2.309   1.746   3.428 -0.2396  0.3054 -0.1205
 7026TIP3    H142637   2.390   1.789   3.455  0.4911 -1.7423  1.2226
 7026TIP3    H242638   2.319   1.733   3.333  1.9119 -1.5415  0.2711
 7027TIP3   OH242639   6.703   4.908   0.257  0.0169  0.2960 -0.7559
 7027TIP3    H142640   6.663   4.994   0.271 -2.6254 -0.3755 -3.3006
 7027TIP3    H242641   6.640   4.846   0.295  0.7453 -0.6413 -1.0482
 7028TIP3   OH242642   1.466   4.270   7.938 -0.0311  0.2136 -0.1725
 7028TIP3    H142643   1.486   4.309   8.023  2.5191 -1.0442 -0.0911
 7028TIP3    H242644   1.546   4.283   7.886  0.5304 -3.5275 -0.5814
 7029TIP3   OH242645   3.075   6.875   0.341  0.9148 -0.3194 -0.1876
 7029TIP3    H142646   3.160   6.917   0.326 -0.2186  1.7519 -1.2616
 7029TIP3    H242647   3.086   6.786   0.309  2.1946  0.4133 -1.9427
 7030TIP3   OH242648   5.391   1.753   1.019  0.1015  0.8985  0.1966
 7030TIP3    H142649   5.418   1.661   1.029 -0.5115  0.6239 -0.5738
 7030TIP3    H242650   5.316   1.763   1.076 -0.8538  0.4540 -0.9425
 7031TIP3   OH242651   4.041   6.539   0.063 -0.2420 -0.9107  0.1756
 7031TIP3    H142652   4.122   6.487   0.064 -1.0155 -2.2949 -1.8076
 7031TIP3    H242653   3.997   6.515   0.145  2.3461  1.7893  2.6095
 7032TIP3   OH242654   6.434   1.003   2.712  0.2906 -0.1561 -0.2650
 7032TIP3    H142655   6.348   0.997   2.755  1.9977 -0.3471  3.5116
 7032TIP3    H242656   6.458   0.913   2.694  0.9222 -0.3964  1.5663
 7033TIP3   OH242657   5.166   2.259   1.143  0.4481  0.4978  0.2168
 7033TIP3    H142658   5.138   2.329   1.202 -0.2479  1.1007 -0.7904
 7033TIP3    H242659   5.084   2.218   1.114  0.8063 -0.1876  0.1319
 7034TIP3   OH242660   5.338   0.339   8.080  0.0500  0.0348  0.1572
 7034TIP3    H142661   5.356   0.431   8.096 -0.4355  0.1475  0.0873
 7034TIP3    H242662   5.387   0.318   8.000 -0.3806  0.4124 -0.2086
 7035TIP3   OH242663   4.848   2.573   0.375 -0.3490  0.5684  0.2400
 7035TIP3    H142664   4.909   2.605   0.442  0.2258 -0.3130  0.1660
 7035TIP3    H242665   4.769   2.625   0.387 -0.9188 -0.7056  2.7778
 7036TIP3   OH242666   1.433   2.564   0.135  0.3257 -0.3969  0.2494
 7036TIP3    H142667   1.393   2.622   0.070 -1.0715 -0.1418  1.2802
 7036TIP3    H242668   1.463   2.488   0.085 -0.7539 -0.2335 -0.6984
 7037TIP3   OH242669   0.333   6.763   0.046  0.1502  0.5085  0.6717
 7037TIP3    H142670   0.392   6.813  -0.011 -0.4286 -0.9525 -1.3447
 7037TIP3    H242671   0.392   6.713   0.103  0.7417  2.2618  1.6568
 7038TIP3   OH242672   5.709   6.821   2.488 -0.1541 -0.2698  0.1230
 7038TIP3    H142673   5.613   6.820   2.483 -0.2465  1.8881  0.4324
 7038TIP3    H242674   5.736   6.743   2.441 -1.9908  0.3187 -2.0960
 7039TIP3   OH242675   4.202   1.761   1.728  0.2263  0.5483  0.1773
 7039TIP3    H142676   4.274   1.761   1.665  0.8782  1.4416  0.8996
 7039TIP3    H242677   4.224   1.830   1.790  0.7448 -1.7271  2.6877
 7040TIP3   OH242678   0.981   0.854   2.236 -0.0186 -0.1660 -0.5606
 7040TIP3    H142679   1.009   0.763   2.250  0.3162  0.1221  0.6821
 7040TIP3    H242680   0.953   0.856   2.144  1.6958 -1.0829 -1.1501
 7041TIP3   OH242681   1.829   0.812   7.865  0.1984 -0.1744 -0.5502
 7041TIP3    H142682   1.831   0.853   7.778 -3.2543 -1.2247 -1.3141
 7041TIP3    H242683   1.914   0.770   7.874  1.1371  1.0263 -2.8872
 7042TIP3   OH242684   3.787   5.777   0.070 -0.3120 -0.4671  0.2420
 7042TIP3    H142685   3.808   5.714   0.001  1.2391 -0.4807  0.6894
 7042TIP3    H242686   3.872   5.801   0.106 -1.0065  0.6677  1.1572
 7043TIP3   OH242687   5.189   4.006   8.095 -0.1999 -0.4208 -0.1422
 7043TIP3    H142688   5.136   4.001   8.174 -1.3648 -0.4073 -0.8910
 7043TIP3    H242689   5.233   3.921   8.089  1.1587  0.1320  1.3319
 7044TIP3   OH242690   2.478   4.311   0.550 -0.0396 -0.1893 -0.1359
 7044TIP3    H142691   2.490   4.406   0.538 -1.0444 -0.0809 -0.3520
 7044TIP3    H242692   2.565   4.280   0.577  0.0901  0.9363  0.8784
 7045TIP3   OH242693   2.745   2.019   2.993  0.1792  0.2991 -0.1264
 7045TIP3    H142694   2.795   2.023   3.075  0.0168 -0.9838  0.0558
 7045TIP3    H242695   2.804   2.055   2.927  0.9039 -0.1236  0.2850
 7046TIP3   OH242696   2.924   5.748   0.736 -0.1629  0.3537  0.5823
 7046TIP3    H142697   2.944   5.655   0.731  0.3792  0.5184 -0.9381
 7046TIP3    H242698   2.947   5.782   0.649 -0.9950  1.7742  0.8870
 7047TIP3   OH242699   1.751   3.140   7.157 -0.4513  0.4541 -0.4105
 7047TIP3    H142700   1.791   3.224   7.133 -0.2681  0.5085  0.0661
 7047TIP3    H242701   1.823   3.078   7.157 -0.4297  0.4776  0.0953
 7048TIP3   OH242702   5.750   6.623   1.417 -0.3611  0.4971 -0.1311
 7048TIP3    H142703   5.751   6.635   1.322 -0.1320 -0.4108 -0.2458
 7048TIP3    H242704   5.800   6.543   1.433 -1.6181 -0.1709  0.6299
 7049TIP3   OH242705   1.409   6.166   7.882 -0.2352 -0.0742  0.0424
 7049TIP3    H142706   1.354   6.223   7.828 -0.1440  0.9417  0.9897
 7049TIP3    H242707   1.412   6.083   7.834 -0.6493  0.6071 -1.1971
 7050TIP3   OH242708   6.461   4.782   1.457 -0.2103  0.1907  0.2132
 7050TIP3    H142709   6.370   4.806   1.439 -0.1780  0.2415  0.1181
 7050TIP3    H242710   6.490   4.843   1.525 -0.6617 -0.6724  1.2056
 7051TIP3   OH242711   3.796   3.546   2.497  0.8073  0.2311 -0.6008
 7051TIP3    H142712   3.872   3.565   2.552  1.7280  0.5367 -1.9389
 7051TIP3    H242713   3.827   3.481   2.434  0.3364  1.2676 -1.9554
 7052TIP3   OH242714   1.518   5.830   8.115 -0.6273  0.3219 -0.0994
 7052TIP3    H142715   1.584   5.827   8.045  0.7122  0.8741  1.0943
 7052TIP3    H242716   1.568   5.830   8.196 -2.1409 -0.0251  0.8900
 7053TIP3   OH242717   1.799   3.736   8.449 -0.8115 -0.1439 -0.3414
 7053TIP3    H142718   1.847   3.756   8.368  0.8920  0.6679  0.8168
 7053TIP3    H242719   1.778   3.643   8.441  1.8426 -0.8240 -0.5397
 7054LIG     O142720   1.513   3.318   1.850  0.1220 -0.3114  0.0345
 7054LIG     O242721   1.582   3.535   1.960 -0.0788 -0.1545  0.5380
 7054LIG     O342722   1.245   3.312   1.995  0.2078  0.1831  0.1706
 7054LIG     O442723   1.589   3.710   1.797 -0.2253 -0.5309 -0.0907
 7054LIG     O542724   1.289   3.673   1.790 -0.1842  0.1971 -0.0190
 7054LIG     O642725   1.305   3.785   2.084 -0.1725 -0.2188  0.2392
 7054LIG     O742726   1.572   3.934   2.086  0.0186 -0.0157 -0.4639
 7054LIG     O842727   1.870   3.840   1.828 -0.0774 -0.4373 -0.5024
 7054LIG     O942728   1.827   3.772   2.047 -0.4193 -0.2976  0.5168
 7054LIG      N42729   1.867   2.982   1.994  0.7242 -0.3672 -0.4156
 7054LIG     C142730   1.711   3.209   1.922  0.5419 -0.8298 -0.6415
 7054LIG     C242731   1.838   3.224   2.015 -0.0875  0.3762  0.0967
 7054LIG     C342732   1.658   3.334   1.851  0.2968 -0.8388 -0.4462
 7054LIG     C442733   1.847   3.093   2.088  0.4129  0.2011  0.2060
 7054LIG     C542734   1.725   3.091   1.824  0.7527  0.1254 -0.0789
 7054LIG     C642735   1.591   3.165   2.009 -0.0306  0.4695 -0.5822
 7054LIG     C742736   1.726   3.067   2.187 -0.0635  0.4394  0.1037
 7054LIG     C842737   1.759   2.963   1.903  0.1037  0.2975 -0.3327
 7054LIG     C942738   1.697   3.462   1.918  0.0046  0.4933 -0.3319
 7054LIG    C1042739   1.588   3.102   2.132 -0.1910  0.0364 -0.7871
 7054LIG    C1142740   1.817   3.340   2.106 -0.4513 -0.2396 -0.3018
 7054LIG    C1242741   1.481   3.238   1.963 -0.4031  0.1913  0.5438
 7054LIG    C1342742   1.754   3.449   2.057 -0.0573 -0.7707  0.7482
 7054LIG    C1442743   2.003   2.982   1.948 -0.4735  0.0598  0.2572
 7054LIG    C1542744   1.473   3.107   2.214 -0.2669 -0.5152  0.0994
 7054LIG    C1642745   1.361   3.237   2.035 -0.7225 -0.7039  0.0201
 7054LIG    C1742746   1.361   3.178   2.163 -0.2005  0.5073 -0.3922
 7054LIG    C1842747   1.516   3.602   1.853  0.4154 -0.9826  0.2363
 7054LIG    C1942748   1.381   3.660   1.901  0.2325  0.0996  0.0492
 7054LIG    C2042749   1.399   3.791   1.975  0.8389 -0.0670  0.1174
 7054LIG    C2142750   1.546   3.805   2.020  0.0636 -0.0114 -0.1767
 7054LIG    C2242751   1.638   3.803   1.896 -0.1503  0.1527 -0.6857
 7054LIG    C2342752   1.789   3.801   1.935 -0.3241 -0.2864  0.1311
 7054LIG     H142753   1.921   3.238   1.943 -1.2185 -2.8654 -2.1112
 7054LIG     H242754   1.690   3.337   1.744 -2.5628 -0.3977 -1.3811
 7054LIG     H342755   1.934   3.100   2.156 -1.0151 -0.5937  2.2172
 7054LIG     H442756   1.804   3.118   1.752  0.1851 -0.2582 -0.8577
 7054LIG     H542757   1.633   3.065   1.767  0.4637 -1.5208  1.0564
 7054LIG     H642758   1.731   3.124   2.282  0.1075 -1.7936  1.5153
 7054LIG     H742759   1.721   2.962   2.224  1.5477  0.4883  0.5068
 7054LIG     H842760   1.680   2.912   1.961 -0.6261  0.2810 -1.3137
 7054LIG     H942761   1.781   2.881   1.831  0.6105  0.5921 -0.5204
 7054LIG    H1042762   1.766   3.519   1.853  0.4944 -0.9622 -1.1073
 7054LIG    H1142763   1.886   3.352   2.191 -0.1831 -1.5749 -0.3016
 7054LIG    H1242764   1.766   3.546   2.108  1.5383 -1.0799  0.9979
 7054LIG    H1342765   2.018   3.038   1.853  1.5644 -0.4770  0.2110
 7054LIG    H1442766   2.043   2.881   1.926 -2.2726 -0.6729  0.1887
 7054LIG    H1542767   2.070   3.035   2.019 -0.6816  0.8300 -0.1064
 7054LIG    H1642768   1.484   3.077   2.317  0.0502  1.3205  0.6384
 7054LIG    H1742769   1.273   3.181   2.227  0.9810  1.1907  1.2811
 7054LIG    H1842770   1.507   3.534   1.766  0.7255 -2.0237  0.9821
 7054LIG    H1942771   1.343   3.577   1.964  0.5700  0.5089  0.7926
 7054LIG    H2042772   1.376   3.884   1.918 -1.0755  1.1976  2.7079
 7054LIG    H2142773   1.203   3.341   2.076  1.3995 -2.3698  1.8324
 7054LIG    H2242774   1.580   3.726   2.090 -0.5763  1.2460  1.6442
 7054LIG    H2342775   1.626   3.896   1.836  0.6161  1.8192  1.6114
 7054LIG    H2442776   1.270   3.584   1.760 -3.2032  0.0481  2.0094
 7054LIG    H2542777   1.310   3.873   2.122  1.3059  0.6016 -1.6793
 7054LIG    H2642778   1.545   3.921   2.177  0.3890  0.3321 -0.2988
 7054LIG    H2742779   1.964   3.830   1.847  0.0926  0.9007 -0.5311
   6.91235   6.91235   8.57018
