Title
42779
    1SAPS     N    1   1.353   2.736   8.713  1.0742 -0.2610 -0.3447
    1SAPS   HN1    2   1.326   2.836   8.713  0.7748 -0.3270  0.9686
    1SAPS   HN2    3   1.448   2.728   8.672  1.1474 -0.7319 -0.1015
    1SAPS   HN3    4   1.287   2.691   8.645  0.5080 -0.6883  0.4660
    1SAPS   C12    5   1.322   2.663   8.835 -0.4739 -0.0453  0.2349
    1SAPS  H12A    6   1.263   2.575   8.812 -1.3224  0.5206  0.2095
    1SAPS   C13    7   1.447   2.605   8.903  1.1246 -0.2311  0.4503
    1SAPS  O13A    8   1.555   2.616   8.853  0.2838 -0.1537 -0.4220
    1SAPS  O13B    9   1.434   2.545   9.014  0.3927 -0.2207  0.5913
    1SAPS   C11   10   1.238   2.753   8.929 -0.7776  1.1488  0.3721
    1SAPS  H11A   11   1.314   2.821   8.972  0.3320  0.0408  0.2042
    1SAPS  H11B   12   1.207   2.694   9.019  1.3875  1.1436  1.1603
    1SAPS     P   13   1.108   2.962   8.844 -0.0639 -0.1447 -0.0560
    1SAPS   O13   14   0.970   2.999   8.798  0.0522  0.2499 -0.3861
    1SAPS   O14   15   1.143   3.032   8.972  0.0546  0.4005 -0.4031
    1SAPS   O12   16   1.115   2.804   8.874  0.4328 -0.1514 -0.3238
    1SAPS   O11   17   1.220   2.978   8.734 -0.2061  0.3016 -0.6066
    1SAPS    C1   18   1.233   3.091   8.647 -0.5776 -0.0992 -0.0117
    1SAPS    HA   19   1.137   3.147   8.645  0.6040  2.1226  1.0350
    1SAPS    HB   20   1.285   3.169   8.708 -2.6236  1.4106 -0.0802
    1SAPS    C2   21   1.306   3.067   8.512  0.4711  0.4342  0.3300
    1SAPS    HS   22   1.295   3.151   8.440  3.1651  1.7632  1.3157
    1SAPS   O21   23   1.252   2.942   8.462  0.4633  0.2630 -0.0502
    1SAPS   C21   24   1.145   2.955   8.384  0.0986  0.8303 -0.6593
    1SAPS   O22   25   1.077   3.056   8.380  0.4844  0.2459 -0.3492
    1SAPS   C22   26   1.126   2.839   8.283 -0.5949  0.7495  0.5634
    1SAPS   H2R   27   1.104   2.744   8.336  0.7916  0.7980  1.2900
    1SAPS   H2S   28   1.047   2.873   8.213  0.7326  2.2128 -0.3043
    1SAPS    C3   29   1.463   3.058   8.530  0.1641 -0.4015  0.6860
    1SAPS    HX   30   1.478   3.004   8.626  0.6623  0.4758  1.1166
    1SAPS    HY   31   1.498   3.161   8.554  0.3318  0.6409 -3.3177
    1SAPS   O31   32   1.536   2.996   8.424  0.3296 -0.1430  0.2344
    1SAPS   C31   33   1.594   2.873   8.445  0.0158  0.5211  0.2660
    1SAPS   O32   34   1.574   2.807   8.545 -0.1018 -0.0705 -0.0201
    1SAPS   C32   35   1.675   2.841   8.320  0.1672  1.0186 -0.1965
    1SAPS   H2X   36   1.754   2.919   8.313  2.7362 -1.3749  0.3886
    1SAPS   H2Y   37   1.602   2.851   8.236 -0.2315  1.2089  0.1706
    1SAPS   C23   38   1.259   2.814   8.200  0.0917  0.2665 -0.0620
    1SAPS   H3R   39   1.341   2.780   8.267  0.1080  0.9935  0.2955
    1SAPS   H3S   40   1.300   2.906   8.153  2.3432 -1.2954 -1.3635
    1SAPS   C24   41   1.243   2.705   8.087 -0.3394  0.2214  0.3740
    1SAPS   H4R   42   1.328   2.726   8.018 -0.6606 -2.3719 -0.9547
    1SAPS   H4S   43   1.152   2.708   8.024  0.5209  0.8682 -0.8972
    1SAPS   C25   44   1.250   2.560   8.131 -0.5844  0.0381 -0.3929
    1SAPS   H5R   45   1.278   2.547   8.237  0.0756  2.9780 -0.1311
    1SAPS   C26   46   1.245   2.453   8.045 -0.2544  0.4684 -0.4159
    1SAPS   H6R   47   1.248   2.347   8.075 -1.5634  0.3152 -0.7581
    1SAPS   C27   48   1.218   2.464   7.894  0.0485  0.2715 -0.0925
    1SAPS   H7R   49   1.114   2.501   7.885 -0.6178 -1.4610  0.0582
    1SAPS   H7S   50   1.203   2.360   7.858  1.3319  0.7685 -2.2960
    1SAPS   C28   51   1.310   2.532   7.797  0.4282 -0.3387  0.2017
    1SAPS   H8R   52   1.381   2.601   7.845  1.6433 -1.2144 -0.3027
    1SAPS   C29   53   1.330   2.503   7.674  0.2083 -0.1673  0.1127
    1SAPS   H9R   54   1.394   2.572   7.617 -0.0583 -0.3071 -0.3517
    1SAPS  C210   55   1.245   2.408   7.589  0.1175  0.8692  0.2004
    1SAPS  H10R   56   1.144   2.452   7.582 -0.5381 -0.5829  0.0953
    1SAPS  H10S   57   1.219   2.319   7.651 -0.3012  1.0800  0.3322
    1SAPS  C211   58   1.314   2.374   7.460 -0.2767  0.1417  1.1185
    1SAPS  H11R   59   1.333   2.269   7.434 -1.0026  0.0815  0.7761
    1SAPS  C212   60   1.343   2.461   7.357  0.3128 -0.5067 -0.1410
    1SAPS  H12R   61   1.393   2.413   7.272  0.5200  0.1396 -0.3855
    1SAPS  C213   62   1.326   2.610   7.347 -0.4094  0.0513 -0.5530
    1SAPS  H13R   63   1.247   2.633   7.423  0.6513 -1.5520  1.1232
    1SAPS  H13S   64   1.281   2.628   7.248  1.0183  0.5299 -1.1372
    1SAPS  C214   65   1.452   2.695   7.351 -0.6663  0.0294 -0.1142
    1SAPS  H14R   66   1.536   2.650   7.297  0.4540  0.0420  1.5459
    1SAPS  C215   67   1.458   2.809   7.419 -0.7568  0.3044  0.2640
    1SAPS  H15R   68   1.551   2.867   7.410 -0.1607 -0.7764 -0.7818
    1SAPS  C216   69   1.352   2.870   7.503  0.0264  0.5586 -0.7015
    1SAPS  H16R   70   1.272   2.797   7.530  0.6502  0.9577  2.7684
    1SAPS  H16S   71   1.302   2.946   7.440  0.2795  2.9781  1.8440
    1SAPS  C217   72   1.403   2.947   7.629  0.2411 -0.1579 -0.1756
    1SAPS  H17R   73   1.458   3.037   7.592  2.0626 -1.3987 -0.6205
    1SAPS  H17S   74   1.465   2.874   7.686 -1.5043 -0.2301  1.7260
    1SAPS  C218   75   1.280   2.972   7.722 -0.2347  0.6406  0.2397
    1SAPS  H18R   76   1.248   2.871   7.755  0.8562  0.3150  0.3552
    1SAPS  H18S   77   1.208   3.021   7.653  1.3215 -0.0886 -2.0138
    1SAPS  C219   78   1.314   3.056   7.844 -0.5192  0.2768 -0.3218
    1SAPS  H19R   79   1.350   3.156   7.811  2.2071  0.2742  2.2266
    1SAPS  H19S   80   1.403   3.014   7.895 -1.1572 -1.4477 -0.5560
    1SAPS  C220   81   1.203   3.094   7.943 -0.6848 -0.2429  0.6116
    1SAPS  H20R   82   1.146   3.011   7.990 -1.9392  2.2751  3.9499
    1SAPS  H20S   83   1.129   3.146   7.878 -0.5188 -1.9158 -1.0000
    1SAPS  H20T   84   1.242   3.147   8.033  0.4754 -2.7685  1.6984
    1SAPS   C33   85   1.736   2.699   8.325  0.6096  0.0203  0.5957
    1SAPS   H3X   86   1.698   2.635   8.407 -1.6102  1.1226  0.4950
    1SAPS   H3Y   87   1.845   2.718   8.334  0.9458  0.7861 -3.1035
    1SAPS   C34   88   1.703   2.612   8.202  0.8005  0.4484  0.4351
    1SAPS   H4X   89   1.613   2.550   8.217  0.2198  0.8402 -1.2105
    1SAPS   H4Y   90   1.787   2.539   8.204  0.5966  0.2118  0.3905
    1SAPS   C35   91   1.690   2.668   8.060  0.1202 -0.6580 -0.1946
    1SAPS   H5X   92   1.774   2.740   8.052 -2.5969  2.8863  0.6493
    1SAPS   H5Y   93   1.601   2.732   8.046 -1.4982 -2.5624  0.8571
    1SAPS   C36   94   1.698   2.559   7.948 -0.4987 -0.2148  0.9653
    1SAPS   H6X   95   1.601   2.506   7.935 -0.2956 -0.4227  0.2632
    1SAPS   H6Y   96   1.775   2.482   7.971  1.5461  1.8505  1.3390
    1SAPS   C37   97   1.733   2.631   7.818 -0.2755  0.5408  0.0360
    1SAPS   H7X   98   1.830   2.683   7.833 -1.0242  2.5267 -1.4691
    1SAPS   H7Y   99   1.665   2.717   7.800 -3.8550 -2.2210 -0.8562
    1SAPS   C38  100   1.742   2.535   7.702  0.5913  0.0790 -0.0606
    1SAPS   H8X  101   1.643   2.497   7.670  0.8479  1.2205 -2.4191
    1SAPS   H8Y  102   1.807   2.448   7.728  0.5192  0.4226  1.3716
    1SAPS   C39  103   1.802   2.620   7.583 -0.0018 -0.0694 -0.0161
    1SAPS   H9X  104   1.898   2.666   7.613  1.1808 -2.1901 -0.3084
    1SAPS   H9Y  105   1.728   2.700   7.562 -1.7423 -0.9065  2.4107
    1SAPS  C310  106   1.818   2.546   7.451 -0.4775 -0.0295  0.5472
    1SAPS  H10X  107   1.720   2.504   7.420  0.2817 -1.3174 -0.2062
    1SAPS  H10Y  108   1.880   2.454   7.460  0.0915 -0.1283 -3.1843
    1SAPS  C311  109   1.891   2.627   7.345 -0.8825 -0.2900  0.8080
    1SAPS  H11X  110   2.000   2.626   7.363 -0.5291  0.2432 -1.0548
    1SAPS  H11Y  111   1.861   2.734   7.351  0.6505  0.1705  0.5411
    1SAPS  C312  112   1.862   2.566   7.199  0.3564 -0.6964  0.2215
    1SAPS  H12X  113   1.761   2.522   7.211  0.0172  0.1888  0.7347
    1SAPS  H12Y  114   1.936   2.485   7.181  2.1738  0.5519  1.7186
    1SAPS  C313  115   1.860   2.679   7.093  0.4233  0.1973 -0.6655
    1SAPS  H13X  116   1.822   2.779   7.123  2.9163  1.0930 -0.2848
    1SAPS  H13Y  117   1.792   2.649   7.011  0.4119  1.2476 -1.0519
    1SAPS  C314  118   2.001   2.705   7.036 -0.2280  0.3823 -0.4778
    1SAPS  H14X  119   2.041   2.612   6.991  2.4199  1.8722 -1.4759
    1SAPS  H14Y  120   2.065   2.734   7.122  0.6619 -0.8540 -0.7002
    1SAPS  C315  121   2.000   2.819   6.929 -0.3389 -0.0449 -0.1432
    1SAPS  H15X  122   2.096   2.820   6.873 -0.0694  1.4879  0.2984
    1SAPS  H15Y  123   1.999   2.917   6.982 -0.3107  0.4457 -1.0274
    1SAPS  C316  124   1.881   2.810   6.831 -0.4934  0.0593 -0.0532
    1SAPS  H16X  125   1.787   2.842   6.881 -0.1767 -0.0693  0.6423
    1SAPS  H16Y  126   1.848   2.708   6.801 -4.5029  1.4256 -0.8839
    1SAPS  C317  127   1.902   2.886   6.703  0.2817  0.8967 -0.1427
    1SAPS  H17X  128   2.011   2.884   6.683  0.6052  0.3693  1.5258
    1SAPS  H17Y  129   1.858   2.988   6.700 -1.9298 -0.0085 -2.3206
    1SAPS  C318  130   1.834   2.808   6.585 -0.5365 -0.4246  0.1137
    1SAPS  H18X  131   1.723   2.808   6.590 -0.5581 -2.0724  0.0335
    1SAPS  H18Y  132   1.875   2.705   6.589  2.0630  0.5671  2.6332
    1SAPS  H18Z  133   1.868   2.855   6.490  0.6880  0.0328  0.7489
    2SAPS     N  134   4.829   1.059   0.669 -0.5427  0.3582  0.0287
    2SAPS   HN1  135   4.837   1.132   0.744 -1.9489  0.9591 -0.3874
    2SAPS   HN2  136   4.911   1.057   0.604 -1.6625  1.3821 -1.4813
    2SAPS   HN3  137   4.750   1.087   0.608  0.0827 -0.7098 -1.3129
    2SAPS   C12  138   4.791   0.927   0.729  0.6987  0.7547 -0.0428
    2SAPS  H12A  139   4.877   0.879   0.773  1.1801 -0.7670 -2.4211
    2SAPS   C13  140   4.671   0.935   0.818  0.2554  0.7545 -0.1386
    2SAPS  O13A  141   4.619   1.051   0.855 -0.6444  0.1977  0.2024
    2SAPS  O13B  142   4.629   0.827   0.870 -0.1903 -0.7803  0.2611
    2SAPS   C11  143   4.746   0.828   0.622  0.1187  0.4754 -0.2531
    2SAPS  H11A  144   4.650   0.847   0.570 -0.9142  0.5441  1.6011
    2SAPS  H11B  145   4.737   0.730   0.674 -0.4425  1.5652  1.7977
    2SAPS     P  146   4.836   0.713   0.405 -0.7611 -0.5174  0.1800
    2SAPS   O13  147   4.943   0.738   0.297  0.4352 -0.1877 -0.3651
    2SAPS   O14  148   4.828   0.580   0.462 -0.1663  0.5421 -0.1623
    2SAPS   O12  149   4.848   0.814   0.520 -0.0262 -0.2908  0.1314
    2SAPS   O11  150   4.697   0.747   0.352  0.3360 -0.0670 -0.7097
    2SAPS    C1  151   4.672   0.865   0.274 -0.2732 -0.1361  0.0088
    2SAPS    HA  152   4.700   0.957   0.329 -0.5466 -0.6908  1.1064
    2SAPS    HB  153   4.742   0.854   0.189 -0.3395  2.2633 -0.4338
    2SAPS    C2  154   4.530   0.868   0.228  0.2921 -0.3103 -0.1281
    2SAPS    HS  155   4.461   0.860   0.314 -2.3879  0.3055 -2.0863
    2SAPS   O21  156   4.500   0.752   0.140  0.2862 -0.0036  0.2305
    2SAPS   C21  157   4.375   0.738   0.097 -0.0271 -0.1804 -0.5725
    2SAPS   O22  158   4.280   0.807   0.134  1.0159 -0.2306  0.5225
    2SAPS   C22  159   4.361   0.617   0.005 -0.5259 -0.0936  0.2707
    2SAPS   H2R  160   4.406   0.643  -0.093  2.7789 -1.7697  1.2037
    2SAPS   H2S  161   4.416   0.529   0.044  0.0497 -0.7850 -1.9563
    2SAPS    C3  162   4.512   1.006   0.144 -0.3138  0.2419 -1.0610
    2SAPS    HX  163   4.524   1.097   0.207  0.7707 -1.5299  1.4978
    2SAPS    HY  164   4.404   1.013   0.118 -0.8204  1.2820  1.0738
    2SAPS   O31  165   4.604   1.012   0.038 -0.4539 -0.1016 -0.5468
    2SAPS   C31  166   4.582   0.970  -0.086 -0.2883 -0.0081  0.8324
    2SAPS   O32  167   4.486   0.911  -0.135 -0.3337  0.2674 -0.6932
    2SAPS   C32  168   4.703   1.019  -0.169 -0.4538 -0.3759 -0.3168
    2SAPS   H2X  169   4.788   0.958  -0.131  0.3335  1.3282  0.7849
    2SAPS   H2Y  170   4.714   1.125  -0.135 -0.6190 -1.2487  2.6734
    2SAPS   C23  171   4.211   0.570  -0.002  0.1673  0.3764  0.8769
    2SAPS   H3R  172   4.159   0.631  -0.079  0.1475  3.0903  2.8966
    2SAPS   H3S  173   4.152   0.591   0.089  1.0707  0.6091  1.4253
    2SAPS   C24  174   4.196   0.411  -0.026  0.0395 -0.6737 -0.7341
    2SAPS   H4R  175   4.244   0.370   0.065 -0.6417 -1.3850 -0.6921
    2SAPS   H4S  176   4.260   0.382  -0.112 -1.8598  0.3359 -2.5889
    2SAPS   C25  177   4.054   0.361  -0.036  0.7912  0.3729  0.2094
    2SAPS   H5R  178   3.983   0.376   0.047  0.6382  0.9611 -0.0223
    2SAPS   C26  179   4.004   0.328  -0.160  0.7102 -0.2274  0.0657
    2SAPS   H6R  180   3.899   0.295  -0.165  0.5442  0.4697 -1.5485
    2SAPS   C27  181   4.079   0.310  -0.289  0.5718 -0.0524  0.3088
    2SAPS   H7R  182   4.049   0.219  -0.345  1.6902  0.0359 -0.4739
    2SAPS   H7S  183   4.181   0.280  -0.258  0.8031  1.5242  1.2031
    2SAPS   C28  184   4.076   0.432  -0.365  0.7178 -0.0917 -0.0664
    2SAPS   H8R  185   4.034   0.519  -0.312 -2.3022 -0.4985 -1.5756
    2SAPS   C29  186   4.126   0.453  -0.491  0.6307  0.6064 -0.7143
    2SAPS   H9R  187   4.121   0.557  -0.528  0.9838  1.1362  0.6837
    2SAPS  C210  188   4.195   0.348  -0.581  0.1425  0.6615 -1.6372
    2SAPS  H10R  189   4.116   0.297  -0.641 -2.5609  2.1023  0.4877
    2SAPS  H10S  190   4.243   0.274  -0.514 -3.1299 -0.6530 -0.5580
    2SAPS  C211  191   4.300   0.410  -0.675 -0.3292  0.0271  0.0908
    2SAPS  H11R  192   4.377   0.460  -0.614 -1.2919  1.2701  0.3281
    2SAPS  C212  193   4.311   0.409  -0.808 -0.0601 -0.2557  0.2591
    2SAPS  H12R  194   4.405   0.438  -0.858 -0.0081  0.5034  0.7716
    2SAPS  C213  195   4.208   0.360  -0.905 -0.1784 -0.0622  0.5587
    2SAPS  H13R  196   4.167   0.445  -0.963 -1.1253 -0.0187  1.2726
    2SAPS  H13S  197   4.112   0.331  -0.857  0.0512  1.3821  2.0067
    2SAPS  C214  198   4.244   0.243  -0.987 -0.2238 -0.2867 -0.1243
    2SAPS  H14R  199   4.238   0.154  -0.922  0.5493  0.7578  1.4393
    2SAPS  C215  200   4.308   0.238  -1.106  0.0514  0.2472 -0.2576
    2SAPS  H15R  201   4.351   0.141  -1.134 -0.3511 -0.0093 -0.0069
    2SAPS  C216  202   4.333   0.357  -1.194 -0.2061 -0.2019  0.4861
    2SAPS  H16R  203   4.260   0.438  -1.171 -0.1187  0.2437 -0.7503
    2SAPS  H16S  204   4.302   0.342  -1.300 -1.5390  3.5208  0.2072
    2SAPS  C217  205   4.478   0.422  -1.185  0.0854 -0.1684 -0.0948
    2SAPS  H17R  206   4.557   0.346  -1.202 -1.1461 -1.5176  0.0162
    2SAPS  H17S  207   4.482   0.458  -1.080 -1.7714  1.9168 -0.6420
    2SAPS  C218  208   4.501   0.541  -1.286 -0.5615  0.6547 -0.4782
    2SAPS  H18R  209   4.605   0.574  -1.265  0.3610 -1.7236 -1.0265
    2SAPS  H18S  210   4.423   0.616  -1.260 -2.8667 -1.1384 -1.8999
    2SAPS  C219  211   4.504   0.495  -1.431  0.1611 -0.3805 -0.4809
    2SAPS  H19R  212   4.401   0.457  -1.449  0.9105 -3.4175  1.0948
    2SAPS  H19S  213   4.572   0.407  -1.435 -0.1201 -0.7138  1.4897
    2SAPS  C220  214   4.533   0.612  -1.525  0.0125  0.2091  0.2908
    2SAPS  H20R  215   4.459   0.694  -1.511 -0.8203 -0.7399  1.8374
    2SAPS  H20S  216   4.523   0.584  -1.632  0.9032  1.2755 -0.0884
    2SAPS  H20T  217   4.634   0.655  -1.506 -1.0992  3.2294 -0.1347
    2SAPS   C33  218   4.696   1.007  -0.320 -0.8942 -0.1462 -0.1749
    2SAPS   H3X  219   4.643   0.912  -0.345 -0.7392 -0.6449  1.3030
    2SAPS   H3Y  220   4.800   1.010  -0.357 -1.6575  0.7272 -2.4940
    2SAPS   C34  221   4.610   1.122  -0.389  0.7090  0.7107  0.9437
    2SAPS   H4X  222   4.665   1.219  -0.396  0.8580  0.5130 -2.8113
    2SAPS   H4Y  223   4.530   1.145  -0.317  0.3161 -0.1493  0.7935
    2SAPS   C35  224   4.559   1.084  -0.529  0.0812  0.5934  0.0527
    2SAPS   H5X  225   4.455   1.046  -0.526  0.3926 -0.5051 -1.8947
    2SAPS   H5Y  226   4.618   1.008  -0.583 -1.1431  0.3891 -1.0283
    2SAPS   C36  227   4.563   1.202  -0.625 -0.6580  0.1800 -1.1363
    2SAPS   H6X  228   4.669   1.230  -0.638 -0.4663  0.0109 -0.0095
    2SAPS   H6Y  229   4.520   1.295  -0.581  1.4642  0.6663  0.0021
    2SAPS   C37  230   4.516   1.187  -0.768  0.1010 -0.8379  1.1339
    2SAPS   H7X  231   4.406   1.176  -0.761 -0.0167  0.0099  0.6973
    2SAPS   H7Y  232   4.564   1.094  -0.806  3.3981  1.7152 -1.6884
    2SAPS   C38  233   4.549   1.298  -0.875  0.7654  0.2308  0.2736
    2SAPS   H8X  234   4.656   1.296  -0.903  0.9207  4.2484 -0.0350
    2SAPS   H8Y  235   4.537   1.399  -0.829  1.2525  0.5613 -0.3060
    2SAPS   C39  236   4.466   1.283  -1.008 -0.5477  0.0550  0.1868
    2SAPS   H9X  237   4.357   1.280  -0.986 -0.4635  0.8709  0.7828
    2SAPS   H9Y  238   4.508   1.193  -1.056  0.5096  0.3536  0.5187
    2SAPS  C310  239   4.488   1.408  -1.094 -0.3726 -0.6686 -0.4492
    2SAPS  H10X  240   4.427   1.490  -1.051 -0.8016 -0.2830 -1.7291
    2SAPS  H10Y  241   4.438   1.394  -1.193  2.1197 -1.5277 -1.6722
    2SAPS  C311  242   4.628   1.451  -1.128 -0.2586  0.2651  0.4728
    2SAPS  H11X  243   4.682   1.354  -1.135 -0.8265 -0.0243 -0.0145
    2SAPS  H11Y  244   4.683   1.497  -1.044  2.2905  0.7875 -1.3639
    2SAPS  C312  245   4.656   1.518  -1.265 -0.0133  0.9869  0.0404
    2SAPS  H12X  246   4.603   1.615  -1.254  1.5261  1.6381  2.5217
    2SAPS  H12Y  247   4.614   1.457  -1.348  3.3398  2.1961 -2.8128
    2SAPS  C313  248   4.810   1.537  -1.283 -0.1327  0.3104  0.9143
    2SAPS  H13X  249   4.860   1.443  -1.316 -0.4409 -0.5358  2.7425
    2SAPS  H13Y  250   4.852   1.578  -1.188  1.1816  3.1683 -0.7799
    2SAPS  C314  251   4.850   1.634  -1.394 -0.1690  0.7343  0.0039
    2SAPS  H14X  252   4.799   1.732  -1.387  0.2320  0.8128  4.3121
    2SAPS  H14Y  253   4.819   1.591  -1.492  3.3803 -2.8931  0.1935
    2SAPS  C315  254   5.001   1.665  -1.399  0.4456 -0.6204  0.1271
    2SAPS  H15X  255   5.065   1.575  -1.390 -0.2273 -0.9270  2.7667
    2SAPS  H15Y  256   5.026   1.714  -1.302 -0.5085  1.2036 -0.5007
    2SAPS  C316  257   5.038   1.751  -1.517 -0.2895  0.3323  0.5962
    2SAPS  H16X  258   5.149   1.738  -1.523 -0.5157 -1.3059 -0.9216
    2SAPS  H16Y  259   5.027   1.857  -1.486 -0.2515  1.2939 -2.3789
    2SAPS  C317  260   4.987   1.705  -1.655 -0.6971  0.3074 -0.2607
    2SAPS  H17X  261   4.876   1.701  -1.646 -0.5242 -1.0769  2.1242
    2SAPS  H17Y  262   5.017   1.602  -1.682 -1.9854 -0.0770 -0.2863
    2SAPS  C318  263   5.010   1.812  -1.760 -0.3903  0.0306 -0.2899
    2SAPS  H18X  264   5.119   1.818  -1.780 -0.4713 -0.6106 -0.9730
    2SAPS  H18Y  265   4.972   1.910  -1.725  0.7809 -0.5385  2.8757
    2SAPS  H18Z  266   4.952   1.788  -1.852 -1.1018 -0.0867  0.1831
    3SAPS     N  267   3.608   0.121   0.894 -0.0791  0.1372  0.0505
    3SAPS   HN1  268   3.634   0.220   0.876  1.6515 -0.4260 -0.6937
    3SAPS   HN2  269   3.515   0.114   0.941  0.7066 -2.3077  1.3973
    3SAPS   HN3  270   3.670   0.066   0.956 -3.2018 -1.7172  1.7702
    3SAPS   C12  271   3.597   0.046   0.770 -0.4523  0.2366 -0.5476
    3SAPS  H12A  272   3.612  -0.057   0.799  2.1173  1.0030  1.2512
    3SAPS   C13  273   3.462   0.056   0.703  0.2478 -0.0404  0.2712
    3SAPS  O13A  274   3.366   0.108   0.763 -0.9565  0.4427  0.0129
    3SAPS  O13B  275   3.443   0.004   0.593  0.0447  0.4020  0.5155
    3SAPS   C11  276   3.708   0.077   0.667 -0.0936  0.3359 -0.7201
    3SAPS  H11A  277   3.686   0.175   0.619 -1.7874 -0.4081 -1.5645
    3SAPS  H11B  278   3.708  -0.002   0.589  2.5095 -1.1303  0.6468
    3SAPS     P  279   3.961   0.117   0.648  0.0901  0.2651  0.1362
    3SAPS   O13  280   3.968   0.262   0.666  0.1441  0.1094 -0.1182
    3SAPS   O14  281   4.072   0.036   0.704  0.3041  0.6862 -0.6163
    3SAPS   O12  282   3.837   0.070   0.723 -0.1373 -0.4021  0.0444
    3SAPS   O11  283   3.937   0.083   0.498 -0.2173  0.1194  0.1808
    3SAPS    C1  284   3.973  -0.056   0.461  0.3725 -0.5125 -1.1572
    3SAPS    HA  285   4.081  -0.071   0.479  0.6017  2.0246  0.0466
    3SAPS    HB  286   3.919  -0.127   0.527  1.6343  0.1058  0.6389
    3SAPS    C2  287   3.943  -0.080   0.318  0.0909 -0.0615  0.6934
    3SAPS    HS  288   3.957  -0.187   0.291  1.7579  0.3723 -0.3393
    3SAPS   O21  289   4.034   0.001   0.239 -0.4007 -0.0858 -0.2796
    3SAPS   C21  290   4.154  -0.054   0.214  0.0079 -0.5528  0.5683
    3SAPS   O22  291   4.203  -0.154   0.262  0.1091 -0.2763 -0.0945
    3SAPS   C22  292   4.221   0.029   0.093  0.0400  0.3529  0.3774
    3SAPS   H2R  293   4.155   0.115   0.071  0.0133  0.5666  1.2536
    3SAPS   H2S  294   4.313   0.070   0.140 -0.7302  3.3339 -0.5427
    3SAPS    C3  295   3.802  -0.039   0.281  0.6665  0.7014  0.0346
    3SAPS    HX  296   3.785   0.070   0.291  3.3526  1.1107  0.9714
    3SAPS    HY  297   3.741  -0.082   0.364  1.3006 -0.8442 -0.2693
    3SAPS   O31  298   3.767  -0.088   0.150 -0.0706 -0.6432  0.0698
    3SAPS   C31  299   3.640  -0.117   0.140  0.1810  0.2410 -0.5613
    3SAPS   O32  300   3.547  -0.097   0.221 -0.5586  0.3495  0.1660
    3SAPS   C32  301   3.626  -0.173  -0.005 -0.0688  0.1150 -0.6214
    3SAPS   H2X  302   3.719  -0.136  -0.054 -0.1861  1.6479  0.2369
    3SAPS   H2Y  303   3.534  -0.127  -0.047  0.9977 -0.0903 -3.4377
    3SAPS   C23  304   4.254  -0.066  -0.024 -0.1904 -0.1626  0.1076
    3SAPS   H3R  305   4.340  -0.129   0.009 -1.2555 -0.6588  2.0565
    3SAPS   H3S  306   4.292  -0.009  -0.112 -1.4468 -1.0018 -1.0206
    3SAPS   C24  307   4.144  -0.157  -0.076  0.2746 -0.3030  0.5061
    3SAPS   H4R  308   4.117  -0.223   0.009 -2.8591  1.7894  1.3157
    3SAPS   H4S  309   4.179  -0.215  -0.165 -0.3658  2.3245 -1.5724
    3SAPS   C25  310   4.019  -0.077  -0.107  0.3234  0.4032 -0.7126
    3SAPS   H5R  311   3.975  -0.029  -0.019  1.6147  0.1298  0.1215
    3SAPS   C26  312   3.973  -0.052  -0.227  0.2573 -0.4389 -0.7455
    3SAPS   H6R  313   3.886   0.016  -0.224  0.0316 -0.7743  0.6018
    3SAPS   C27  314   4.027  -0.108  -0.353  0.0241 -0.0705  0.6184
    3SAPS   H7R  315   3.939  -0.122  -0.421  1.7181  1.3601 -2.0386
    3SAPS   H7S  316   4.067  -0.211  -0.350  0.6264  0.1768  1.1795
    3SAPS   C28  317   4.131  -0.026  -0.425  0.0724 -0.1820  0.3671
    3SAPS   H8R  318   4.191   0.039  -0.360  1.0602 -0.6046 -0.1107
    3SAPS   C29  319   4.173  -0.043  -0.545  0.5234 -0.4162 -0.0020
    3SAPS   H9R  320   4.240   0.032  -0.590 -0.2999 -0.9307 -2.1807
    3SAPS  C210  321   4.123  -0.149  -0.640 -0.4699  0.7505  0.1214
    3SAPS  H10R  322   4.042  -0.218  -0.606  2.0277 -1.1444  2.6865
    3SAPS  H10S  323   4.212  -0.215  -0.647 -1.1573 -0.2053  0.2131
    3SAPS  C211  324   4.087  -0.094  -0.776 -0.1177  1.2547 -0.7304
    3SAPS  H11R  325   4.010  -0.016  -0.762  1.0847  2.2457  0.8151
    3SAPS  C212  326   4.130  -0.140  -0.895  0.4628 -1.1214 -0.6355
    3SAPS  H12R  327   4.079  -0.103  -0.985  0.8317  1.6339  0.1673
    3SAPS  C213  328   4.236  -0.245  -0.922  1.1840  0.4812  0.1549
    3SAPS  H13R  329   4.191  -0.323  -0.987  0.3898  0.2582  0.9469
    3SAPS  H13S  330   4.275  -0.290  -0.828 -3.2219  1.3633  2.6668
    3SAPS  C214  331   4.353  -0.184  -0.994  0.8776 -1.1948 -0.4410
    3SAPS  H14R  332   4.341  -0.082  -1.031  0.2051 -1.8643 -2.1498
    3SAPS  C215  333   4.467  -0.249  -1.021  0.5156 -0.5075 -0.0128
    3SAPS  H15R  334   4.546  -0.190  -1.069 -0.6369  0.4766 -0.7666
    3SAPS  C216  335   4.499  -0.392  -0.995  0.5140  1.0135 -0.9415
    3SAPS  H16R  336   4.413  -0.450  -0.955  1.5680  0.5475  0.7358
    3SAPS  H16S  337   4.583  -0.397  -0.922  0.4619 -0.7504 -0.9510
    3SAPS  C217  338   4.540  -0.465  -1.125  0.5929  0.2113 -1.1259
    3SAPS  H17R  339   4.541  -0.574  -1.102 -2.1156  0.6734  2.0302
    3SAPS  H17S  340   4.646  -0.438  -1.142  0.8543 -1.3838 -2.2460
    3SAPS  C218  341   4.450  -0.446  -1.254 -0.5035  0.1139  0.2910
    3SAPS  H18R  342   4.415  -0.340  -1.258 -1.9299 -0.3084  0.8004
    3SAPS  H18S  343   4.362  -0.510  -1.231 -1.1821  0.7872 -0.3554
    3SAPS  C219  344   4.520  -0.508  -1.381 -0.2493 -0.1403 -0.5197
    3SAPS  H19R  345   4.575  -0.599  -1.348  0.9670  0.5843 -0.4990
    3SAPS  H19S  346   4.448  -0.520  -1.465 -1.1548  0.5668  0.1373
    3SAPS  C220  347   4.630  -0.420  -1.436  0.0377  0.1593 -0.7338
    3SAPS  H20R  348   4.728  -0.442  -1.388 -0.9485 -2.3306  0.3250
    3SAPS  H20S  349   4.619  -0.309  -1.435 -0.5754  0.1018 -0.7914
    3SAPS  H20T  350   4.648  -0.442  -1.543  1.0660 -1.2426 -0.3088
    3SAPS   C33  351   3.631  -0.324  -0.013  0.3971  0.9073 -0.1237
    3SAPS   H3X  352   3.584  -0.360  -0.107 -0.2565  1.5142 -0.0357
    3SAPS   H3Y  353   3.561  -0.374   0.057  0.1006 -2.1610 -2.3970
    3SAPS   C34  354   3.768  -0.383  -0.021  0.1646 -0.2196  1.1420
    3SAPS   H4X  355   3.830  -0.357   0.068 -0.4681  0.9636  1.2554
    3SAPS   H4Y  356   3.823  -0.335  -0.104 -0.4753 -0.0672  0.8040
    3SAPS   C35  357   3.773  -0.528  -0.059 -0.1052 -0.1966  0.4410
    3SAPS   H5X  358   3.879  -0.558  -0.043  0.1007  1.2932  2.2234
    3SAPS   H5Y  359   3.726  -0.588   0.022 -1.4719 -1.5365 -1.2487
    3SAPS   C36  360   3.724  -0.576  -0.196 -0.0214 -0.1585 -0.0216
    3SAPS   H6X  361   3.614  -0.564  -0.201 -0.0448  0.6437  1.6928
    3SAPS   H6Y  362   3.732  -0.686  -0.192 -1.2160 -0.2013  2.2485
    3SAPS   C37  363   3.784  -0.505  -0.317 -0.7469  0.9013  0.0060
    3SAPS   H7X  364   3.893  -0.491  -0.299 -0.4069 -0.6763 -0.6604
    3SAPS   H7Y  365   3.743  -0.402  -0.324 -0.6131  0.9109 -0.8119
    3SAPS   C38  366   3.761  -0.587  -0.451  0.5502 -0.6233 -1.2273
    3SAPS   H8X  367   3.656  -0.621  -0.459 -0.0859  0.6923  0.8112
    3SAPS   H8Y  368   3.813  -0.685  -0.447 -2.5883 -2.3471  0.4598
    3SAPS   C39  369   3.814  -0.517  -0.576  0.0285  0.1276 -0.1901
    3SAPS   H9X  370   3.759  -0.422  -0.595 -1.9249 -0.6576  1.2520
    3SAPS   H9Y  371   3.773  -0.581  -0.658  2.3231 -0.7886 -0.7045
    3SAPS  C310  372   3.962  -0.512  -0.597  0.0922  0.0490  0.0895
    3SAPS  H10X  373   3.997  -0.617  -0.586  0.5500  0.1592 -0.2947
    3SAPS  H10Y  374   4.012  -0.449  -0.521 -0.7239 -0.2394  0.8891
    3SAPS  C311  375   3.996  -0.489  -0.742 -0.0035  0.7771  0.2006
    3SAPS  H11X  376   4.096  -0.442  -0.744 -0.4597  1.9304 -3.5880
    3SAPS  H11Y  377   3.936  -0.398  -0.764 -2.2466  0.0392  2.6994
    3SAPS  C312  378   3.980  -0.604  -0.838  0.1244 -0.7392 -1.4928
    3SAPS  H12X  379   3.871  -0.616  -0.852 -0.3594  2.9508 -1.9176
    3SAPS  H12Y  380   4.033  -0.691  -0.792 -0.3770 -1.0183 -1.4397
    3SAPS  C313  381   4.039  -0.586  -0.979  0.2428  0.3011 -0.0334
    3SAPS  H13X  382   4.146  -0.615  -0.988  0.5558 -0.0225  3.3836
    3SAPS  H13Y  383   4.031  -0.478  -1.005  3.6075  0.1199 -2.5730
    3SAPS  C314  384   3.951  -0.661  -1.085 -0.5344 -0.5200  0.0219
    3SAPS  H14X  385   3.850  -0.617  -1.070  0.2154  1.6577 -0.8396
    3SAPS  H14Y  386   3.955  -0.771  -1.073  1.5388 -0.5559 -0.5977
    3SAPS  C315  387   3.993  -0.617  -1.224  0.0248  0.0145  0.1106
    3SAPS  H15X  388   4.102  -0.637  -1.235  0.0040 -2.1910  2.7369
    3SAPS  H15Y  389   3.983  -0.507  -1.232  1.8271  0.1223 -1.4776
    3SAPS  C316  390   3.927  -0.706  -1.330  0.2354 -0.6209  0.3742
    3SAPS  H16X  391   3.817  -0.695  -1.320 -0.2282 -1.3075 -2.8672
    3SAPS  H16Y  392   3.966  -0.809  -1.315  2.6320  0.1489 -0.1870
    3SAPS  C317  393   3.968  -0.651  -1.466 -0.4595 -0.0505  0.5653
    3SAPS  H17X  394   4.074  -0.676  -1.490 -0.5804 -0.0598  0.0174
    3SAPS  H17Y  395   3.968  -0.540  -1.466 -0.2641 -0.0334 -0.5334
    3SAPS  C318  396   3.870  -0.703  -1.582 -0.1325 -0.4105  0.0674
    3SAPS  H18X  397   3.879  -0.658  -1.684 -1.0819 -0.2355  0.0449
    3SAPS  H18Y  398   3.771  -0.678  -1.538  0.0942 -2.5591  1.9501
    3SAPS  H18Z  399   3.887  -0.813  -1.586 -0.5107 -0.5507  1.7860
    4SAPS     N  400   5.342   2.929   0.041  0.5535 -0.6231  0.2065
    4SAPS   HN1  401   5.260   2.983   0.007  2.9841  2.1224 -1.7040
    4SAPS   HN2  402   5.420   2.957  -0.022 -0.8839  1.6108 -0.7063
    4SAPS   HN3  403   5.325   2.826   0.043  1.6806 -0.8406 -0.7791
    4SAPS   C12  404   5.384   2.974   0.168 -0.3396  0.5372 -0.1861
    4SAPS  H12A  405   5.400   3.081   0.169 -1.8043  0.8005  1.3800
    4SAPS   C13  406   5.288   2.958   0.287 -0.4471  0.1749 -0.4753
    4SAPS  O13A  407   5.166   2.938   0.259  0.2645  0.1418  0.4431
    4SAPS  O13B  408   5.322   3.001   0.403 -0.1879 -0.1250  0.6152
    4SAPS   C11  409   5.515   2.891   0.197  0.0752 -0.1900  0.7587
    4SAPS  H11A  410   5.553   2.908   0.299  0.4084 -1.3484  0.8450
    4SAPS  H11B  411   5.588   2.938   0.127 -0.1585  0.4185  0.9222
    4SAPS     P  412   5.636   2.666   0.143  0.4446  0.0790 -0.4106
    4SAPS   O13  413   5.736   2.691   0.253 -0.1446  0.0498 -0.4632
    4SAPS   O14  414   5.591   2.526   0.128 -0.3428  0.2868 -0.2909
    4SAPS   O12  415   5.505   2.747   0.179 -0.0302  0.8159 -0.1388
    4SAPS   O11  416   5.683   2.731   0.010  0.8020 -0.2578  0.7120
    4SAPS    C1  417   5.597   2.708  -0.110 -0.3082  0.0574  0.3087
    4SAPS    HA  418   5.488   2.700  -0.087 -0.8301 -0.1260 -2.0330
    4SAPS    HB  419   5.606   2.791  -0.183  1.1305 -0.2791  0.0930
    4SAPS    C2  420   5.650   2.588  -0.197 -0.7470  0.8646  0.1497
    4SAPS    HS  421   5.617   2.503  -0.132  0.5865  0.2590  0.0572
    4SAPS   O21  422   5.795   2.585  -0.204 -0.2802 -0.1423 -0.2707
    4SAPS   C21  423   5.852   2.472  -0.245 -0.4327 -0.1972 -0.1930
    4SAPS   O22  424   5.799   2.362  -0.233 -0.6047  0.2302  0.3378
    4SAPS   C22  425   5.992   2.502  -0.299  0.3754  0.4476 -0.9411
    4SAPS   H2R  426   5.984   2.567  -0.389  2.1567  1.5541 -0.3564
    4SAPS   H2S  427   6.040   2.554  -0.214  1.3764  0.4945 -1.5173
    4SAPS    C3  428   5.586   2.579  -0.337 -1.2494 -0.1041 -0.0219
    4SAPS    HX  429   5.615   2.672  -0.390 -3.2425 -0.1842 -1.3778
    4SAPS    HY  430   5.476   2.586  -0.322 -1.5037 -0.2034 -1.6581
    4SAPS   O31  431   5.631   2.463  -0.414 -0.5515 -0.4701 -0.3682
    4SAPS   C31  432   5.542   2.372  -0.442  0.3981 -0.4354 -0.8122
    4SAPS   O32  433   5.424   2.366  -0.410 -0.1880 -0.2558  0.0133
    4SAPS   C32  434   5.609   2.266  -0.524  0.3925  0.2086  0.1688
    4SAPS   H2X  435   5.694   2.210  -0.480  0.0903 -0.0133  0.4776
    4SAPS   H2Y  436   5.649   2.326  -0.608 -0.9718  2.4227  0.9949
    4SAPS   C23  437   6.074   2.375  -0.340  0.4460  1.1964  0.1155
    4SAPS   H3R  438   6.098   2.305  -0.256  1.3072  0.3065 -0.8449
    4SAPS   H3S  439   6.173   2.419  -0.364  0.8409  0.5519  0.5247
    4SAPS   C24  440   6.012   2.308  -0.464  0.2966 -0.3079 -0.6021
    4SAPS   H4R  441   5.979   2.390  -0.531 -2.7012  0.5152  1.6639
    4SAPS   H4S  442   5.917   2.260  -0.430  0.7367  0.0305  1.2093
    4SAPS   C25  443   6.095   2.196  -0.521  0.1035  0.2082  0.2763
    4SAPS   H5R  444   6.113   2.129  -0.436  1.7116 -1.0785 -1.0122
    4SAPS   C26  445   6.139   2.179  -0.647 -0.0922 -0.3496  0.4239
    4SAPS   H6R  446   6.181   2.079  -0.667 -0.2592 -0.2286 -0.5776
    4SAPS   C27  447   6.095   2.261  -0.770  0.3073  0.3697  0.8846
    4SAPS   H7R  448   6.169   2.332  -0.813 -0.0721  0.0677 -0.3090
    4SAPS   H7S  449   6.011   2.332  -0.755  0.5647  1.5915 -2.5879
    4SAPS   C28  450   6.065   2.157  -0.876  0.1518  0.1311 -0.1617
    4SAPS   H8R  451   5.968   2.104  -0.877 -0.0954  0.5501 -1.9338
    4SAPS   C29  452   6.147   2.119  -0.977 -1.2994  0.0981 -0.2248
    4SAPS   H9R  453   6.099   2.053  -1.051  0.1164 -0.2097 -0.9111
    4SAPS  C210  454   6.295   2.158  -0.997  0.0422  0.2372  0.1064
    4SAPS  H10R  455   6.351   2.185  -0.905  0.8580 -1.4833  0.1456
    4SAPS  H10S  456   6.301   2.255  -1.051 -0.3133 -0.3609 -1.0499
    4SAPS  C211  457   6.371   2.049  -1.067 -0.2911  0.2181  0.0780
    4SAPS  H11R  458   6.416   1.965  -1.013  0.1268 -0.1990 -0.9024
    4SAPS  C212  459   6.404   2.045  -1.196 -0.2215  0.4248 -0.0204
    4SAPS  H12R  460   6.464   1.958  -1.228 -2.2195 -0.4504 -1.6543
    4SAPS  C213  461   6.387   2.155  -1.301  0.1558 -0.3496  0.1220
    4SAPS  H13R  462   6.487   2.174  -1.345 -0.4821  0.3715 -1.0666
    4SAPS  H13S  463   6.332   2.244  -1.264  1.2661  0.3901  0.0600
    4SAPS  C214  464   6.321   2.074  -1.416 -0.0884 -0.6297  0.3386
    4SAPS  H14R  465   6.353   1.970  -1.430 -0.7645 -0.9189  0.8791
    4SAPS  C215  466   6.214   2.117  -1.488 -0.2371  0.1655  0.5930
    4SAPS  H15R  467   6.183   2.052  -1.571 -0.8050 -0.2603  1.1331
    4SAPS  C216  468   6.140   2.247  -1.470  0.0590  0.1015  0.4901
    4SAPS  H16R  469   6.147   2.304  -1.565  2.0158 -0.9888 -0.0771
    4SAPS  H16S  470   6.181   2.311  -1.390  0.0287 -0.1646  0.7224
    4SAPS  C217  471   5.999   2.218  -1.441  0.3402  0.0191 -0.4916
    4SAPS  H17R  472   5.947   2.156  -1.517 -1.9029  0.4404  0.6028
    4SAPS  H17S  473   5.946   2.316  -1.444 -1.6836 -1.0062 -0.2608
    4SAPS  C218  474   5.967   2.166  -1.302  0.1857 -0.6086 -0.1004
    4SAPS  H18R  475   6.005   2.231  -1.221  0.1053 -1.4873  0.6593
    4SAPS  H18S  476   6.024   2.071  -1.291  0.1420 -0.5390  0.7514
    4SAPS  C219  477   5.820   2.146  -1.278 -0.4003  0.0552 -0.2984
    4SAPS  H19R  478   5.798   2.038  -1.291 -1.2572  0.3866 -1.7979
    4SAPS  H19S  479   5.768   2.191  -1.365  0.6101 -0.4417 -1.1817
    4SAPS  C220  480   5.780   2.211  -1.142  0.2718 -0.1139 -0.1502
    4SAPS  H20R  481   5.796   2.152  -1.050  0.1953 -1.2030 -0.8162
    4SAPS  H20S  482   5.669   2.219  -1.144  0.2131 -0.0784  1.5297
    4SAPS  H20T  483   5.819   2.315  -1.135  1.7449 -0.7462  2.2554
    4SAPS   C33  484   5.514   2.158  -0.597 -0.0971 -0.7258  0.0172
    4SAPS   H3X  485   5.423   2.204  -0.642 -0.6184 -0.4822  1.2618
    4SAPS   H3Y  486   5.478   2.088  -0.518  0.4419 -2.6800 -1.4246
    4SAPS   C34  487   5.578   2.076  -0.703  0.8108  0.4467  0.5164
    4SAPS   H4X  488   5.664   2.017  -0.667  0.2824 -0.8203 -0.2125
    4SAPS   H4Y  489   5.630   2.146  -0.771  1.1050  1.1499  1.4523
    4SAPS   C35  490   5.479   1.984  -0.785 -0.7955  1.0996 -0.4608
    4SAPS   H5X  491   5.381   2.032  -0.807 -1.7246 -0.9451 -0.9659
    4SAPS   H5Y  492   5.469   1.891  -0.726  0.1980  0.9725 -0.4702
    4SAPS   C36  493   5.540   1.928  -0.914 -0.3970  0.3732 -0.0287
    4SAPS   H6X  494   5.560   2.011  -0.985  1.6958  0.6873  0.8585
    4SAPS   H6Y  495   5.462   1.867  -0.965  1.7290  0.1853 -3.3825
    4SAPS   C37  496   5.674   1.859  -0.901 -0.1892  0.4376 -0.4712
    4SAPS   H7X  497   5.680   1.781  -0.822  1.4185 -1.0743 -2.0161
    4SAPS   H7Y  498   5.747   1.932  -0.860  1.4156 -0.4549 -1.6651
    4SAPS   C38  499   5.728   1.820  -1.040 -0.3694  0.2507  0.6776
    4SAPS   H8X  500   5.685   1.880  -1.123  1.8995  1.2020  0.1104
    4SAPS   H8Y  501   5.701   1.717  -1.071  1.8125 -0.0842 -0.2906
    4SAPS   C39  502   5.878   1.807  -1.029  0.1916 -0.7413 -0.1763
    4SAPS   H9X  503   5.901   1.755  -0.934  1.4246 -2.3628 -1.3047
    4SAPS   H9Y  504   5.910   1.914  -1.025 -0.3852 -0.5174 -1.1833
    4SAPS  C310  505   5.938   1.709  -1.130 -0.6165  0.1505  0.3751
    4SAPS  H10X  506   5.879   1.616  -1.125  0.2067 -0.3959  0.1231
    4SAPS  H10Y  507   6.045   1.691  -1.108  0.8303 -1.4638 -5.9102
    4SAPS  C311  508   5.926   1.762  -1.269  0.5460 -0.2393  0.2766
    4SAPS  H11X  509   5.963   1.866  -1.276 -0.3778  0.0695 -0.2621
    4SAPS  H11Y  510   5.820   1.765  -1.303  0.5673  0.1549  0.2393
    4SAPS  C312  511   6.009   1.679  -1.375 -0.2248  0.0075  0.0654
    4SAPS  H12X  512   5.966   1.578  -1.385  2.4412 -1.2055 -0.0194
    4SAPS  H12Y  513   6.112   1.681  -1.333  0.1697 -1.2204 -0.7967
    4SAPS  C313  514   5.998   1.729  -1.517  0.4058 -0.9851 -0.7706
    4SAPS  H13X  515   6.041   1.830  -1.536 -1.4568  0.0137  0.1169
    4SAPS  H13Y  516   5.894   1.730  -1.557 -0.4749 -1.5783  1.3739
    4SAPS  C314  517   6.086   1.643  -1.611  0.2916  0.7434  0.7823
    4SAPS  H14X  518   6.046   1.540  -1.602  0.6749  0.4495 -0.5907
    4SAPS  H14Y  519   6.196   1.645  -1.595  0.3603 -0.8658  0.6912
    4SAPS  C315  520   6.063   1.698  -1.748 -0.1580  0.1611 -0.6051
    4SAPS  H15X  521   6.084   1.807  -1.749  3.8686 -0.4812 -1.7005
    4SAPS  H15Y  522   5.954   1.689  -1.772 -0.0990 -1.4999 -0.3991
    4SAPS  C316  523   6.144   1.633  -1.853  0.4233  0.1791  0.0580
    4SAPS  H16X  524   6.241   1.687  -1.849 -0.7703  2.4197  0.4190
    4SAPS  H16Y  525   6.102   1.653  -1.954  2.4771  2.6080 -0.4277
    4SAPS  C317  526   6.171   1.479  -1.840  0.6402  0.2024  0.0275
    4SAPS  H17X  527   6.220   1.454  -1.744  0.6867  0.3766  0.0497
    4SAPS  H17Y  528   6.249   1.461  -1.918  0.5671 -2.8156  0.5110
    4SAPS  C318  529   6.035   1.403  -1.863 -0.0675 -0.3794 -0.1719
    4SAPS  H18X  530   6.033   1.302  -1.816  0.7986 -1.5081 -2.4096
    4SAPS  H18Y  531   6.015   1.386  -1.971  0.2262  0.7884 -0.4230
    4SAPS  H18Z  532   5.949   1.461  -1.823  0.4120  1.1199 -1.2284
    5SAPS     N  533   3.888   5.939   0.628 -0.1136 -0.5000 -0.6780
    5SAPS   HN1  534   3.854   5.951   0.726 -2.3249 -1.3017 -1.2667
    5SAPS   HN2  535   3.877   6.028   0.575  0.6031 -1.0650 -1.8175
    5SAPS   HN3  536   3.845   5.859   0.576 -0.2422 -1.0790  0.2848
    5SAPS   C12  537   4.033   5.905   0.636 -0.1294 -0.4955 -0.9941
    5SAPS  H12A  538   4.078   6.003   0.637  1.2207 -1.0863  1.1067
    5SAPS   C13  539   4.074   5.836   0.773  0.7759 -0.4229  0.1891
    5SAPS  O13A  540   3.985   5.799   0.855  0.2850 -0.1615 -0.0289
    5SAPS  O13B  541   4.187   5.781   0.767  0.3827  0.3513 -0.6131
    5SAPS   C11  542   4.091   5.833   0.501  0.1006  0.2506 -0.2884
    5SAPS  H11A  543   4.117   5.726   0.518 -0.0297  0.2278 -0.2256
    5SAPS  H11B  544   4.192   5.876   0.485 -0.2655  1.1271 -0.2933
    5SAPS     P  545   3.910   5.761   0.328 -0.0017  0.1095 -0.2378
    5SAPS   O13  546   3.831   5.742   0.454 -0.0217 -0.2031 -0.6755
    5SAPS   O14  547   3.834   5.816   0.215 -0.1294 -0.4735  0.2203
    5SAPS   O12  548   4.026   5.849   0.372 -1.2647 -1.1183  0.1526
    5SAPS   O11  549   3.981   5.622   0.288 -0.4188 -0.8651 -0.6640
    5SAPS    C1  550   4.127   5.610   0.253  0.3694 -0.2198  0.3518
    5SAPS    HA  551   4.167   5.712   0.233  0.5668 -0.6884 -1.8738
    5SAPS    HB  552   4.189   5.542   0.316 -0.1429 -1.7511 -0.7358
    5SAPS    C2  553   4.142   5.548   0.112  0.0092  0.2878  0.7356
    5SAPS    HS  554   4.244   5.571   0.076 -0.3350 -0.5642 -0.8545
    5SAPS   O21  555   4.035   5.596   0.026  0.3382  0.3358 -0.0613
    5SAPS   C21  556   4.064   5.714  -0.024 -0.1627 -0.0399 -0.2799
    5SAPS   O22  557   4.162   5.785  -0.000  0.5957  0.6585  0.0599
    5SAPS   C22  558   3.947   5.744  -0.121 -0.0289  0.0489 -0.7633
    5SAPS   H2R  559   3.943   5.663  -0.197  1.6625 -0.0309 -0.7950
    5SAPS   H2S  560   3.852   5.745  -0.064  0.0500  1.1631 -0.6230
    5SAPS    C3  561   4.131   5.392   0.122 -0.6388  0.2002 -0.7454
    5SAPS    HX  562   4.033   5.373   0.171  0.0052  0.5401  0.7414
    5SAPS    HY  563   4.208   5.345   0.186 -3.2759 -2.8927  0.4473
    5SAPS   O31  564   4.134   5.339  -0.009 -0.1173  0.5034  0.2205
    5SAPS   C31  565   4.250   5.302  -0.062  0.6013  0.2474 -0.8271
    5SAPS   O32  566   4.361   5.327  -0.014 -0.2224 -0.2928 -0.2453
    5SAPS   C32  567   4.230   5.213  -0.186  0.7283  0.7772  0.1015
    5SAPS   H2X  568   4.134   5.234  -0.238  0.4711 -2.2599 -0.8524
    5SAPS   H2Y  569   4.224   5.107  -0.153  0.8864  0.9791  0.7832
    5SAPS   C23  570   3.957   5.888  -0.180 -0.1418  0.4065 -0.5254
    5SAPS   H3R  571   3.972   5.954  -0.092 -0.2228  0.8618 -0.8564
    5SAPS   H3S  572   3.860   5.911  -0.227 -0.2653 -0.5587 -0.7692
    5SAPS   C24  573   4.077   5.922  -0.267 -0.2156  0.1155  0.6852
    5SAPS   H4R  574   4.162   5.951  -0.202 -0.4222 -1.1388  1.5366
    5SAPS   H4S  575   4.046   6.014  -0.321 -0.4230 -0.0772  0.4711
    5SAPS   C25  576   4.102   5.837  -0.388 -0.2374  0.2522  0.0301
    5SAPS   H5R  577   4.021   5.827  -0.462 -0.8794 -0.7314  0.8515
    5SAPS   C26  578   4.210   5.759  -0.406 -0.0686  0.2187  0.2097
    5SAPS   H6R  579   4.220   5.704  -0.501  0.3448  0.7906 -0.0804
    5SAPS   C27  580   4.322   5.755  -0.305  0.7245  0.1669 -0.0031
    5SAPS   H7R  581   4.283   5.770  -0.202  0.7814  0.5749 -0.0366
    5SAPS   H7S  582   4.392   5.839  -0.326  1.5868 -0.8095 -1.1680
    5SAPS   C28  583   4.399   5.626  -0.305  0.0331 -0.1112  0.3337
    5SAPS   H8R  584   4.367   5.542  -0.241 -1.9557  0.5067  0.2265
    5SAPS   C29  585   4.491   5.589  -0.395  0.0422 -0.6393  0.3479
    5SAPS   H9R  586   4.533   5.488  -0.392 -2.7646 -1.9037 -0.2424
    5SAPS  C210  587   4.530   5.679  -0.511  0.3125  0.8659 -0.6626
    5SAPS  H10R  588   4.594   5.760  -0.469  2.2134 -1.7378  1.8534
    5SAPS  H10S  589   4.435   5.711  -0.559  0.1911 -0.3835 -1.2970
    5SAPS  C211  590   4.613   5.592  -0.613  0.2824  0.6027  0.0718
    5SAPS  H11R  591   4.603   5.484  -0.593 -1.0733  0.7616  0.3451
    5SAPS  C212  592   4.700   5.638  -0.707 -0.4883 -0.0390 -0.2991
    5SAPS  H12R  593   4.757   5.575  -0.777 -0.8142 -1.0479  0.3330
    5SAPS  C213  594   4.711   5.789  -0.742 -0.0058  0.1398  0.2483
    5SAPS  H13R  595   4.670   5.848  -0.657  0.5328  1.0696 -0.1253
    5SAPS  H13S  596   4.643   5.826  -0.821 -0.9660 -1.2419  0.3855
    5SAPS  C214  597   4.850   5.833  -0.777 -0.1373 -0.3477 -0.0961
    5SAPS  H14R  598   4.899   5.901  -0.706  0.7565 -2.1434  1.0790
    5SAPS  C215  599   4.909   5.807  -0.891 -0.0725  0.0690  0.3798
    5SAPS  H15R  600   5.012   5.844  -0.903 -0.5437  1.9383  1.6090
    5SAPS  C216  601   4.859   5.714  -0.996 -0.3968 -0.3460  0.6258
    5SAPS  H16R  602   4.752   5.724  -1.024  0.3953  0.5036 -2.4732
    5SAPS  H16S  603   4.863   5.607  -0.965 -2.3136 -1.6512 -3.0564
    5SAPS  C217  604   4.943   5.726  -1.130 -0.7243 -0.7481 -0.0975
    5SAPS  H17R  605   5.047   5.699  -1.104 -0.6716 -0.9083 -0.4608
    5SAPS  H17S  606   4.944   5.829  -1.172 -0.6955 -0.4322  0.6731
    5SAPS  C218  607   4.889   5.633  -1.240  0.0487 -0.3601 -0.0231
    5SAPS  H18R  608   4.786   5.667  -1.266 -0.0967 -0.0428  0.9545
    5SAPS  H18S  609   4.870   5.533  -1.195  2.3132 -1.4926 -1.4079
    5SAPS  C219  610   4.988   5.609  -1.353 -0.0548  0.3855  0.0103
    5SAPS  H19R  611   5.077   5.560  -1.308 -0.7035 -0.3658  0.4970
    5SAPS  H19S  612   5.008   5.706  -1.404  0.7156  0.3279  0.1889
    5SAPS  C220  613   4.934   5.514  -1.467 -0.0208 -0.0221 -0.3821
    5SAPS  H20R  614   4.824   5.523  -1.480 -0.0088  1.4349  0.4001
    5SAPS  H20S  615   4.957   5.408  -1.440  0.2908 -0.1918 -1.2747
    5SAPS  H20T  616   4.974   5.532  -1.569 -1.4629 -2.3208 -1.4348
    5SAPS   C33  617   4.336   5.228  -0.293 -0.9290  0.4409  0.1451
    5SAPS   H3X  618   4.431   5.197  -0.246 -0.2102  0.6911 -1.0897
    5SAPS   H3Y  619   4.360   5.331  -0.326  0.6365 -0.8654 -3.3149
    5SAPS   C34  620   4.317   5.143  -0.428  0.3250 -0.0269  0.2501
    5SAPS   H4X  621   4.234   5.199  -0.478  0.1788  0.3797  0.9408
    5SAPS   H4Y  622   4.286   5.040  -0.400  2.1595 -0.1148  2.1624
    5SAPS   C35  623   4.436   5.140  -0.525 -0.1160 -0.3172  0.7472
    5SAPS   H5X  624   4.529   5.101  -0.480 -0.3034 -0.0079  1.4164
    5SAPS   H5Y  625   4.456   5.244  -0.558  0.2667 -0.9837 -1.2433
    5SAPS   C36  626   4.403   5.045  -0.642  0.4809 -0.3328 -0.0971
    5SAPS   H6X  627   4.311   5.092  -0.682  0.3053  0.5314  1.2447
    5SAPS   H6Y  628   4.390   4.939  -0.609  1.8553  0.5954  4.0167
    5SAPS   C37  629   4.511   5.050  -0.750 -0.3730 -0.0517  0.0751
    5SAPS   H7X  630   4.607   5.036  -0.696 -0.0661 -1.5643 -0.7958
    5SAPS   H7Y  631   4.519   5.155  -0.786 -3.0514  0.2928  0.3030
    5SAPS   C38  632   4.483   4.964  -0.870  0.0926 -0.1295 -0.2595
    5SAPS   H8X  633   4.458   4.860  -0.840 -2.2329  0.5505  0.3731
    5SAPS   H8Y  634   4.574   4.962  -0.934  0.3974  0.8729  0.1308
    5SAPS   C39  635   4.360   4.993  -0.953  0.3066  0.0632  0.4429
    5SAPS   H9X  636   4.372   5.098  -0.985  1.4549 -0.3053 -0.3847
    5SAPS   H9Y  637   4.271   4.988  -0.886  0.6622  0.3499  0.9431
    5SAPS  C310  638   4.339   4.891  -1.069  0.6931  0.3302 -0.0666
    5SAPS  H10X  639   4.277   4.809  -1.028  0.5418  0.4704 -0.0119
    5SAPS  H10Y  640   4.442   4.854  -1.088  0.4666  0.7166 -2.2657
    5SAPS  C311  641   4.283   4.944  -1.200  0.2606  0.1760  0.3327
    5SAPS  H11X  642   4.332   5.039  -1.232 -0.1981  0.2650 -0.1228
    5SAPS  H11Y  643   4.180   4.977  -1.177  0.2879  1.7173 -1.4810
    5SAPS  C312  644   4.270   4.842  -1.326  0.0096 -0.4115 -0.0037
    5SAPS  H12X  645   4.217   4.750  -1.295 -0.0622 -0.1841  0.5768
    5SAPS  H12Y  646   4.371   4.819  -1.365 -0.6882 -0.0551 -2.1251
    5SAPS  C313  647   4.198   4.906  -1.444 -0.1770 -0.0031  0.0679
    5SAPS  H13X  648   4.258   4.993  -1.480 -0.4694  0.2462  0.1837
    5SAPS  H13Y  649   4.103   4.944  -1.402 -1.2264 -2.0167 -0.3424
    5SAPS  C314  650   4.176   4.811  -1.562  0.0719  0.0173 -0.2124
    5SAPS  H14X  651   4.099   4.856  -1.628 -0.2570  0.3133  0.3612
    5SAPS  H14Y  652   4.148   4.709  -1.527 -0.4827 -0.1700 -1.1751
    5SAPS  C315  653   4.304   4.785  -1.644  0.3164  0.1483  0.2334
    5SAPS  H15X  654   4.367   4.708  -1.593  0.0219 -1.0684 -1.1727
    5SAPS  H15Y  655   4.369   4.875  -1.643 -0.7550  0.9295  0.4011
    5SAPS  C316  656   4.272   4.732  -1.785 -0.5348  0.3433  0.4787
    5SAPS  H16X  657   4.373   4.709  -1.826  0.1245  0.9560  1.7026
    5SAPS  H16Y  658   4.224   4.805  -1.853 -1.6111 -0.3568  0.4730
    5SAPS  C317  659   4.182   4.606  -1.791 -0.1737 -0.1734  0.2990
    5SAPS  H17X  660   4.081   4.625  -1.747 -0.6565 -1.2483 -0.3070
    5SAPS  H17Y  661   4.232   4.535  -1.720 -3.1284 -0.5958  2.1383
    5SAPS  C318  662   4.163   4.537  -1.927  0.5099 -0.1687  0.8556
    5SAPS  H18X  663   4.107   4.605  -1.995  1.1079  0.0911  0.6133
    5SAPS  H18Y  664   4.107   4.442  -1.926 -1.4002  0.8857 -0.4685
    5SAPS  H18Z  665   4.256   4.530  -1.988 -0.2657  1.0997 -0.5520
    6SAPS     N  666   2.064   4.618   0.185 -0.3156 -0.0390  0.0557
    6SAPS   HN1  667   2.114   4.557   0.116 -0.1519  0.9887 -0.7536
    6SAPS   HN2  668   2.012   4.551   0.246 -1.2047  0.5861  0.0089
    6SAPS   HN3  669   1.993   4.666   0.127  2.2719  1.3962 -2.1397
    6SAPS   C12  670   2.142   4.709   0.261  0.5630 -0.6796  0.4475
    6SAPS  H12A  671   2.063   4.745   0.326  0.9082  1.0546 -0.0380
    6SAPS   C13  672   2.256   4.643   0.343  0.2585 -0.4670 -0.5811
    6SAPS  O13A  673   2.266   4.518   0.339 -0.0565  0.1400 -0.3459
    6SAPS  O13B  674   2.332   4.710   0.421  0.5114 -0.2542  0.2918
    6SAPS   C11  675   2.175   4.839   0.193 -0.4041 -0.6416  0.5457
    6SAPS  H11A  676   2.236   4.911   0.252 -0.0112  0.5348 -1.2014
    6SAPS  H11B  677   2.078   4.886   0.166  0.5116  1.4272  0.6682
    6SAPS     P  678   2.289   4.949  -0.012 -0.4119 -0.1294 -0.1072
    6SAPS   O13  679   2.333   5.060   0.078  0.4295 -0.0501 -0.0407
    6SAPS   O14  680   2.391   4.905  -0.115 -0.1171  0.5368 -0.4524
    6SAPS   O12  681   2.246   4.822   0.073  0.2381 -0.3319  0.0508
    6SAPS   O11  682   2.152   5.001  -0.076 -0.5835 -0.3102 -0.3545
    6SAPS    C1  683   2.050   4.921  -0.126 -1.1958  0.1093 -1.1057
    6SAPS    HA  684   2.065   4.815  -0.097 -2.8011 -0.0747 -0.8994
    6SAPS    HB  685   1.949   4.945  -0.088 -0.4788  0.1713  0.8615
    6SAPS    C2  686   2.052   4.933  -0.274  0.2041  0.2621  0.7765
    6SAPS    HS  687   2.155   4.899  -0.297  1.0238  1.4981  2.4234
    6SAPS   O21  688   2.026   5.072  -0.304  0.2611 -0.5734  0.5240
    6SAPS   C21  689   2.087   5.129  -0.402 -1.1186  0.3995  0.4273
    6SAPS   O22  690   2.170   5.075  -0.477 -0.0933  0.0137 -0.6425
    6SAPS   C22  691   2.039   5.277  -0.410 -0.4686  0.0221  0.0323
    6SAPS   H2R  692   1.938   5.278  -0.455 -0.7937  0.1205  0.7453
    6SAPS   H2S  693   2.033   5.316  -0.305  1.2914 -1.1572  0.6061
    6SAPS    C3  694   1.938   4.849  -0.342  0.2832  0.0087 -0.6684
    6SAPS    HX  695   1.842   4.897  -0.312  0.3251 -0.8544  0.9211
    6SAPS    HY  696   1.930   4.748  -0.298 -2.1329  0.3402 -0.1957
    6SAPS   O31  697   1.941   4.850  -0.484  0.3264  0.4424 -0.2001
    6SAPS   C31  698   2.019   4.770  -0.545 -0.4524 -0.3521  0.6065
    6SAPS   O32  699   2.097   4.689  -0.493 -0.4263 -0.2601  0.1512
    6SAPS   C32  700   2.008   4.787  -0.697 -0.2271 -0.2060  0.2150
    6SAPS   H2X  701   2.020   4.897  -0.710  0.2962 -0.2321  0.4433
    6SAPS   H2Y  702   1.908   4.751  -0.729  0.2677 -3.4308  1.8664
    6SAPS   C23  703   2.147   5.361  -0.480  0.2117 -0.4448  0.6619
    6SAPS   H3R  704   2.169   5.325  -0.582  1.1976 -0.7161  0.9630
    6SAPS   H3S  705   2.247   5.361  -0.432  1.6675 -1.8234 -2.1170
    6SAPS   C24  706   2.096   5.504  -0.499  0.3720 -0.6196 -0.5233
    6SAPS   H4R  707   2.078   5.546  -0.397 -2.0236 -0.0263 -1.1174
    6SAPS   H4S  708   1.994   5.514  -0.541 -0.2876  4.3167  1.4469
    6SAPS   C25  709   2.196   5.584  -0.584 -0.1997 -0.7417 -0.5098
    6SAPS   H5R  710   2.282   5.607  -0.519  0.0113 -0.8352 -0.7574
    6SAPS   C26  711   2.184   5.620  -0.716  0.3309 -0.3760 -0.3308
    6SAPS   H6R  712   2.258   5.692  -0.753  1.1772 -0.7751  0.5277
    6SAPS   C27  713   2.066   5.597  -0.802  0.2679 -0.3532 -0.3568
    6SAPS   H7R  714   2.064   5.681  -0.876 -5.0143 -0.7333 -1.0540
    6SAPS   H7S  715   1.970   5.596  -0.746 -0.8473  0.9853 -2.1232
    6SAPS   C28  716   2.064   5.466  -0.876 -0.7006  0.4594 -0.0616
    6SAPS   H8R  717   2.001   5.393  -0.824 -2.0294  1.7563  0.2324
    6SAPS   C29  718   2.129   5.438  -0.991  0.4964 -0.0922  0.3812
    6SAPS   H9R  719   2.133   5.330  -1.012 -2.2802  0.0284 -1.2651
    6SAPS  C210  720   2.198   5.540  -1.076 -0.1682  0.1316 -0.4129
    6SAPS  H10R  721   2.284   5.485  -1.120  0.7234  0.6423  0.6519
    6SAPS  H10S  722   2.242   5.617  -1.010  0.2214 -1.8007  1.7366
    6SAPS  C211  723   2.103   5.604  -1.177  0.1818  0.4497 -0.3256
    6SAPS  H11R  724   2.016   5.661  -1.141  0.5915  2.1849 -1.9159
    6SAPS  C212  725   2.104   5.571  -1.302 -0.6451 -0.4807  0.2398
    6SAPS  H12R  726   2.027   5.603  -1.373  0.0753 -1.3106 -0.9565
    6SAPS  C213  727   2.214   5.486  -1.365 -0.9613 -0.5701  0.6259
    6SAPS  H13R  728   2.164   5.430  -1.448  0.4801 -3.1232  1.3460
    6SAPS  H13S  729   2.234   5.407  -1.290  1.1680 -0.8983 -0.2032
    6SAPS  C214  730   2.354   5.538  -1.406  1.2104  0.4279  0.1248
    6SAPS  H14R  731   2.378   5.619  -1.335 -2.7611  1.5107  0.4972
    6SAPS  C215  732   2.425   5.519  -1.520 -1.1867  0.8103 -0.2142
    6SAPS  H15R  733   2.523   5.569  -1.525  0.2590 -1.8061  0.1033
    6SAPS  C216  734   2.390   5.434  -1.640  0.3674  0.2229 -0.9097
    6SAPS  H16R  735   2.306   5.363  -1.624  1.1889 -0.5320  0.2190
    6SAPS  H16S  736   2.474   5.372  -1.677  1.0670  0.6157 -0.0171
    6SAPS  C217  737   2.344   5.522  -1.753 -0.0638 -0.0749  0.5288
    6SAPS  H17R  738   2.259   5.588  -1.726 -0.4691  0.5077 -1.9895
    6SAPS  H17S  739   2.325   5.455  -1.840 -0.0639  1.4786 -0.7092
    6SAPS  C218  740   2.454   5.622  -1.798 -0.0350 -0.6101  0.1349
    6SAPS  H18R  741   2.460   5.702  -1.721  0.4189 -1.3906  0.9334
    6SAPS  H18S  742   2.415   5.679  -1.885  1.5397 -1.2166 -1.0091
    6SAPS  C219  743   2.592   5.565  -1.832 -0.6448 -0.0297 -0.1592
    6SAPS  H19R  744   2.578   5.477  -1.897 -2.0987  0.2230 -0.2234
    6SAPS  H19S  745   2.647   5.546  -1.737  1.8968  2.8154 -0.8999
    6SAPS  C220  746   2.683   5.657  -1.910  0.6070 -0.2228 -0.4724
    6SAPS  H20R  747   2.787   5.617  -1.922  0.7262 -0.0120 -0.1584
    6SAPS  H20S  748   2.686   5.755  -1.858  1.7010 -1.5054  2.0839
    6SAPS  H20T  749   2.630   5.666  -2.007 -0.0069 -0.1558 -0.1352
    6SAPS   C33  750   2.118   4.707  -0.772  0.1308 -0.4914 -0.3906
    6SAPS   H3X  751   2.099   4.601  -0.748  0.7699 -0.3100  1.0284
    6SAPS   H3Y  752   2.221   4.718  -0.732 -0.3565 -1.2626  1.1348
    6SAPS   C34  753   2.107   4.725  -0.924 -0.3162 -0.4446 -0.5037
    6SAPS   H4X  754   2.001   4.727  -0.957  0.0627 -0.9673 -1.8478
    6SAPS   H4Y  755   2.164   4.646  -0.977 -0.6176  0.2732 -1.9739
    6SAPS   C35  756   2.166   4.861  -0.982  0.2576  0.0891  0.7521
    6SAPS   H5X  757   2.272   4.873  -0.952  0.5574  1.0672 -0.6201
    6SAPS   H5Y  758   2.108   4.944  -0.936 -1.2440 -0.2087 -0.5073
    6SAPS   C36  759   2.153   4.883  -1.133  0.4980  0.5064 -0.4654
    6SAPS   H6X  760   2.171   4.991  -1.152 -2.1912  1.4414  1.6181
    6SAPS   H6Y  761   2.051   4.857  -1.166 -0.1566  0.2139  1.6555
    6SAPS   C37  762   2.254   4.801  -1.212 -0.3503 -0.7347  0.4040
    6SAPS   H7X  763   2.218   4.698  -1.230 -0.6315 -0.5200 -0.2825
    6SAPS   H7Y  764   2.347   4.792  -1.151 -0.3130  1.5611  0.7734
    6SAPS   C38  765   2.297   4.871  -1.345 -0.1164  0.3374 -0.2722
    6SAPS   H8X  766   2.401   4.837  -1.362 -0.0274 -0.0253  0.9231
    6SAPS   H8Y  767   2.303   4.977  -1.313  0.9429  0.0882  0.4123
    6SAPS   C39  768   2.178   4.848  -1.447  0.4856  0.2824 -0.0966
    6SAPS   H9X  769   2.077   4.866  -1.406 -0.0580 -1.4192 -0.5969
    6SAPS   H9Y  770   2.177   4.743  -1.484 -0.9905  0.4381 -0.5591
    6SAPS  C310  771   2.203   4.937  -1.570 -0.2303  0.1250  0.0666
    6SAPS  H10X  772   2.307   4.914  -1.599  0.1024  0.1666  1.1787
    6SAPS  H10Y  773   2.207   5.043  -1.535 -0.4793 -0.6026  2.4982
    6SAPS  C311  774   2.113   4.915  -1.685 -0.2320  0.2351 -0.5222
    6SAPS  H11X  775   2.006   4.937  -1.664 -0.9631 -1.8585 -1.8236
    6SAPS  H11Y  776   2.125   4.808  -1.711 -1.4001 -0.3307  1.0661
    6SAPS  C312  777   2.167   4.995  -1.802  0.2283 -0.0004 -0.6336
    6SAPS  H12X  778   2.273   4.965  -1.818 -0.5532 -3.0890 -0.6479
    6SAPS  H12Y  779   2.170   5.103  -1.776  0.9242 -0.0200 -0.5944
    6SAPS  C313  780   2.089   4.949  -1.928 -0.1181  0.5037 -0.1059
    6SAPS  H13X  781   2.114   4.842  -1.945  1.3103  0.4355  1.9870
    6SAPS  H13Y  782   2.126   5.003  -2.019 -0.7297 -0.4441 -0.9407
    6SAPS  C314  783   1.938   4.979  -1.918 -0.5141  0.0991  0.8170
    6SAPS  H14X  784   1.921   5.081  -1.877  0.1588  0.9517 -0.9306
    6SAPS  H14Y  785   1.895   4.911  -1.841 -2.2095 -1.2644 -1.2241
    6SAPS  C315  786   1.871   4.971  -2.062 -0.2799  0.7678  0.2274
    6SAPS  H15X  787   1.941   5.025  -2.130  2.0517 -0.0281  1.8621
    6SAPS  H15Y  788   1.766   5.002  -2.049 -1.1682 -2.1605  0.7414
    6SAPS  C316  789   1.875   4.826  -2.105  0.1794 -0.2084  0.3688
    6SAPS  H16X  790   1.832   4.758  -2.029  3.3426 -1.2515  1.3847
    6SAPS  H16Y  791   1.980   4.792  -2.121 -0.0791 -1.0846  0.4785
    6SAPS  C317  792   1.804   4.805  -2.233  0.1967  0.3672  0.4745
    6SAPS  H17X  793   1.845   4.873  -2.310 -1.9470 -0.5844 -1.6157
    6SAPS  H17Y  794   1.697   4.828  -2.219  0.5732  1.9288  1.0085
    6SAPS  C318  795   1.818   4.662  -2.289 -0.5297  0.6414 -0.3272
    6SAPS  H18X  796   1.922   4.637  -2.318  0.6916  1.7253  2.7060
    6SAPS  H18Y  797   1.747   4.657  -2.374 -0.7081  1.9706 -0.2846
    6SAPS  H18Z  798   1.794   4.604  -2.198  1.4908  2.3637  1.4347
    7SAPS     N  799   3.856   0.521   0.639 -0.2627  0.7121 -0.2701
    7SAPS   HN1  800   3.896   0.565   0.724  0.0661  0.8991 -0.5168
    7SAPS   HN2  801   3.878   0.420   0.644 -0.1901  0.6651 -1.3181
    7SAPS   HN3  802   3.903   0.569   0.559  1.0896  1.7363  1.0684
    7SAPS   C12  803   3.706   0.546   0.642 -0.2245  0.6751 -0.1290
    7SAPS  H12A  804   3.674   0.529   0.540 -0.4865 -0.8146  0.1727
    7SAPS   C13  805   3.606   0.450   0.718  0.2777  0.3179 -0.5532
    7SAPS  O13A  806   3.658   0.373   0.806 -0.1969 -0.3158 -0.7383
    7SAPS  O13B  807   3.485   0.479   0.720 -0.0911  0.4128  0.0999
    7SAPS   C11  808   3.677   0.691   0.689 -0.2931  0.0526  0.5446
    7SAPS  H11A  809   3.700   0.685   0.798  1.1257 -2.9460  0.1773
    7SAPS  H11B  810   3.568   0.704   0.668 -0.4514 -0.1646  1.2006
    7SAPS     P  811   3.697   0.924   0.562  0.2381 -0.1825  0.7044
    7SAPS   O13  812   3.564   0.951   0.620 -0.3095 -0.4417 -0.1744
    7SAPS   O14  813   3.797   1.033   0.557 -0.8241 -0.0104  0.4610
    7SAPS   O12  814   3.761   0.787   0.620  0.2629 -0.2650  0.5369
    7SAPS   O11  815   3.679   0.875   0.416  0.5461 -0.5737 -0.6910
    7SAPS    C1  816   3.749   0.779   0.341 -0.0680 -0.4384 -0.2993
    7SAPS    HA  817   3.852   0.768   0.383  0.0144 -0.8634 -0.6109
    7SAPS    HB  818   3.702   0.678   0.347  1.7146 -1.2675  1.0340
    7SAPS    C2  819   3.767   0.818   0.188  0.3900  0.2464  1.0345
    7SAPS    HS  820   3.790   0.926   0.177 -1.5473  0.5402 -0.8164
    7SAPS   O21  821   3.639   0.789   0.124  0.2193 -0.2057  0.1705
    7SAPS   C21  822   3.593   0.895   0.055  0.0579  0.4649 -0.0190
    7SAPS   O22  823   3.654   0.997   0.028 -0.2237  0.7335 -0.4055
    7SAPS   C22  824   3.456   0.868  -0.005  0.4183  0.1033  0.2744
    7SAPS   H2R  825   3.414   0.771   0.033  0.7281 -0.7292 -1.4269
    7SAPS   H2S  826   3.388   0.949   0.029  0.6358  1.5105 -2.3997
    7SAPS    C3  827   3.860   0.723   0.117  0.5245  0.5774 -0.8313
    7SAPS    HX  828   3.814   0.622   0.124  0.9010  0.4533 -0.0175
    7SAPS    HY  829   3.959   0.716   0.167 -0.1674  1.4051  0.7109
    7SAPS   O31  830   3.875   0.751  -0.021  0.0984  0.3995  0.0496
    7SAPS   C31  831   3.961   0.854  -0.038 -0.1535  0.0271  0.2975
    7SAPS   O32  832   4.003   0.934   0.044 -0.2592 -0.1608  0.3240
    7SAPS   C32  833   3.996   0.850  -0.182  0.3796 -0.2757  0.4053
    7SAPS   H2X  834   3.903   0.872  -0.238  0.5246  0.3152  0.3934
    7SAPS   H2Y  835   4.022   0.745  -0.209  0.0943 -0.0626 -0.7818
    7SAPS   C23  836   3.461   0.861  -0.158  1.1046 -0.4725  0.4432
    7SAPS   H3R  837   3.491   0.954  -0.212  1.0295 -1.4370 -1.3212
    7SAPS   H3S  838   3.354   0.842  -0.181  0.1590  2.8138  1.5012
    7SAPS   C24  839   3.533   0.731  -0.213  0.3541 -0.2111 -0.3266
    7SAPS   H4R  840   3.490   0.645  -0.157  2.0836 -1.0698 -0.2564
    7SAPS   H4S  841   3.637   0.750  -0.180 -0.3534  0.4058  1.6514
    7SAPS   C25  842   3.513   0.710  -0.363 -0.0746  0.3264 -0.3750
    7SAPS   H5R  843   3.406   0.709  -0.391  0.3104  0.8893 -1.9574
    7SAPS   C26  844   3.600   0.723  -0.459 -0.4860  0.1790  0.7925
    7SAPS   H6R  845   3.568   0.739  -0.562 -0.8818 -0.9533  0.7240
    7SAPS   C27  846   3.744   0.745  -0.440  0.2712  0.0688 -0.4187
    7SAPS   H7R  847   3.785   0.728  -0.338  2.6390  0.8394 -1.1697
    7SAPS   H7S  848   3.758   0.854  -0.458  0.2846  0.1425  0.0300
    7SAPS   C28  849   3.827   0.656  -0.535  0.9440  0.0823  0.4429
    7SAPS   H8R  850   3.864   0.567  -0.483  0.2722 -2.1476 -2.5898
    7SAPS   C29  851   3.858   0.679  -0.663 -0.5714 -0.1195  0.3303
    7SAPS   H9R  852   3.939   0.614  -0.698  1.7497  1.4305  2.4674
    7SAPS  C210  853   3.811   0.781  -0.771 -0.0545  0.1615  0.3933
    7SAPS  H10R  854   3.903   0.828  -0.810 -0.1019  1.2753  1.5506
    7SAPS  H10S  855   3.740   0.854  -0.727 -1.0148 -0.8708  0.6285
    7SAPS  C211  856   3.725   0.722  -0.883 -0.3127 -0.1294 -0.0558
    7SAPS  H11R  857   3.626   0.693  -0.846 -0.1444  0.1012  0.5847
    7SAPS  C212  858   3.754   0.694  -1.009  0.5059  0.4042 -0.5477
    7SAPS  H12R  859   3.683   0.631  -1.064  1.1681  0.3481 -1.3422
    7SAPS  C213  860   3.889   0.709  -1.081 -0.6413  0.4090  0.0846
    7SAPS  H13R  861   3.905   0.620  -1.146 -0.4664  1.1035 -0.8515
    7SAPS  H13S  862   3.971   0.701  -1.007  0.0555  1.9661 -0.4566
    7SAPS  C214  863   3.915   0.826  -1.171 -0.1938  0.0397 -0.0606
    7SAPS  H14R  864   3.912   0.920  -1.113 -0.1146 -0.8061  1.3487
    7SAPS  C215  865   3.946   0.824  -1.302  0.1730  0.1427  0.1284
    7SAPS  H15R  866   3.961   0.920  -1.353  0.1887 -0.8842 -1.8871
    7SAPS  C216  867   3.948   0.713  -1.404  0.2066  0.0712  0.2163
    7SAPS  H16R  868   3.903   0.760  -1.494 -0.2661 -0.7982 -0.0082
    7SAPS  H16S  869   3.892   0.623  -1.372 -0.9807  0.7405  0.0743
    7SAPS  C217  870   4.092   0.664  -1.435  0.2422  0.2155 -1.0496
    7SAPS  H17R  871   4.134   0.584  -1.370 -0.4858  1.2122  0.6986
    7SAPS  H17S  872   4.157   0.754  -1.441  1.3632 -0.6080 -1.6314
    7SAPS  C218  873   4.097   0.600  -1.581 -0.5274 -0.2053 -0.0904
    7SAPS  H18R  874   4.021   0.518  -1.576  0.9755 -1.5944  1.1382
    7SAPS  H18S  875   4.180   0.532  -1.610 -0.4056 -0.4676  0.8331
    7SAPS  C219  876   4.077   0.708  -1.692  0.0673 -1.0491 -0.5509
    7SAPS  H19R  877   4.123   0.805  -1.662 -0.4468 -0.9837  0.0586
    7SAPS  H19S  878   3.970   0.739  -1.686  1.2979  3.9175  0.3533
    7SAPS  C220  879   4.118   0.673  -1.830  0.7727  0.3751 -0.0671
    7SAPS  H20R  880   4.088   0.754  -1.900  1.1025 -1.1387 -2.0479
    7SAPS  H20S  881   4.056   0.585  -1.859 -1.1111  0.9964  1.8300
    7SAPS  H20T  882   4.226   0.649  -1.831  0.5476 -1.1984  2.6372
    7SAPS   C33  883   4.094   0.963  -0.223 -0.3139  0.4955  0.6346
    7SAPS   H3X  884   4.188   0.945  -0.167  0.6081  0.9840 -0.7024
    7SAPS   H3Y  885   4.058   1.057  -0.177  0.3585  0.6025  0.9605
    7SAPS   C34  886   4.115   0.976  -0.371  0.0563  0.4547  0.1283
    7SAPS   H4X  887   4.164   1.075  -0.385  0.5784  0.7012  3.1252
    7SAPS   H4Y  888   4.018   0.983  -0.424  0.6725  1.2374 -0.9351
    7SAPS   C35  889   4.184   0.852  -0.438  0.3753  0.7310  0.1259
    7SAPS   H5X  890   4.135   0.759  -0.404  1.6804  0.0497  0.2025
    7SAPS   H5Y  891   4.292   0.862  -0.412  0.3732  3.3923 -0.5514
    7SAPS   C36  892   4.157   0.870  -0.588 -0.2729 -0.1475  0.4764
    7SAPS   H6X  893   4.178   0.978  -0.602 -2.1770  0.1998  0.1166
    7SAPS   H6Y  894   4.056   0.835  -0.616  0.2827 -0.7808 -0.8523
    7SAPS   C37  895   4.264   0.787  -0.672  0.4373  0.4851 -0.1454
    7SAPS   H7X  896   4.244   0.681  -0.645 -2.6344  0.5879 -1.5144
    7SAPS   H7Y  897   4.368   0.813  -0.645  1.5223  0.3780 -3.7158
    7SAPS   C38  898   4.253   0.785  -0.822 -1.1247  0.4576  0.9940
    7SAPS   H8X  899   4.171   0.722  -0.863 -1.4250 -0.1240  2.4219
    7SAPS   H8Y  900   4.343   0.736  -0.864 -1.7493  0.1023  0.0291
    7SAPS   C39  901   4.236   0.924  -0.882  1.4951  0.5762  0.4846
    7SAPS   H9X  902   4.314   0.990  -0.836  2.6257 -0.6320  0.3687
    7SAPS   H9Y  903   4.140   0.972  -0.854  0.7522 -0.3561 -0.4354
    7SAPS  C310  904   4.254   0.947  -1.031  0.2344 -0.2842  0.1341
    7SAPS  H10X  905   4.239   1.056  -1.045  0.4320 -0.4423 -1.4374
    7SAPS  H10Y  906   4.184   0.876  -1.078 -0.5131  0.3202  0.3106
    7SAPS  C311  907   4.398   0.908  -1.077 -0.1322  0.2661  0.0510
    7SAPS  H11X  908   4.416   0.803  -1.046 -0.4814  0.4287  0.8202
    7SAPS  H11Y  909   4.472   0.970  -1.023  0.1005 -0.1592  0.2250
    7SAPS  C312  910   4.414   0.932  -1.230 -0.6199 -0.0702  0.1611
    7SAPS  H12X  911   4.397   1.038  -1.260  0.2644  0.2877  0.8826
    7SAPS  H12Y  912   4.340   0.876  -1.291  1.4169 -0.3152 -2.2634
    7SAPS  C313  913   4.554   0.901  -1.277 -0.2851  0.6931 -0.9603
    7SAPS  H13X  914   4.547   0.865  -1.382  1.1358 -0.2615 -0.7587
    7SAPS  H13Y  915   4.595   0.817  -1.217 -1.7696  1.3278  1.0488
    7SAPS  C314  916   4.647   1.027  -1.253  0.1058  0.6307  0.7292
    7SAPS  H14X  917   4.633   1.066  -1.150 -0.3944 -1.4917  1.5005
    7SAPS  H14Y  918   4.598   1.104  -1.317 -0.5901 -0.0032  0.4784
    7SAPS  C315  919   4.793   1.002  -1.284 -0.4372  0.0614  1.1775
    7SAPS  H15X  920   4.810   0.982  -1.392 -0.6109  0.0469  1.1530
    7SAPS  H15Y  921   4.821   0.912  -1.224  1.2626 -1.6134 -1.8901
    7SAPS  C316  922   4.885   1.117  -1.246  0.0378  0.2794 -0.6198
    7SAPS  H16X  923   4.864   1.149  -1.142 -2.2139  0.1427 -0.9907
    7SAPS  H16Y  924   4.861   1.209  -1.303  2.1002  1.4886  0.3556
    7SAPS  C317  925   5.036   1.094  -1.275 -0.1714  0.5625 -0.4460
    7SAPS  H17X  926   5.035   1.060  -1.381 -0.3905 -2.6463  0.4903
    7SAPS  H17Y  927   5.079   1.017  -1.209  0.6752  0.2883 -1.2846
    7SAPS  C318  928   5.129   1.212  -1.240  0.1879 -0.6954  0.3482
    7SAPS  H18X  929   5.141   1.231  -1.131  1.2963  1.5897 -0.1290
    7SAPS  H18Y  930   5.096   1.306  -1.289 -0.5918 -0.9281  0.3996
    7SAPS  H18Z  931   5.235   1.194  -1.267  0.8896  1.7099  1.2788
    8SAPS     N  932   5.514   5.505   0.876  0.3830 -0.1172  0.2688
    8SAPS   HN1  933   5.516   5.554   0.968 -1.5331  0.4060  0.0743
    8SAPS   HN2  934   5.561   5.563   0.804 -2.2920  0.4879 -1.0941
    8SAPS   HN3  935   5.414   5.495   0.851 -0.0095  0.0156  1.7156
    8SAPS   C12  936   5.570   5.365   0.889 -0.4719  0.1245 -0.1634
    8SAPS  H12A  937   5.670   5.376   0.930 -0.2376  1.6017 -1.0603
    8SAPS   C13  938   5.499   5.266   0.979 -0.0168  0.1664  0.4468
    8SAPS  O13A  939   5.397   5.305   1.043 -0.1135 -0.5636  0.9857
    8SAPS  O13B  940   5.550   5.149   0.993  0.2489  0.3587 -0.1098
    8SAPS   C11  941   5.604   5.303   0.750 -0.0432  0.3176 -0.0417
    8SAPS  H11A  942   5.633   5.197   0.762  1.0518  0.8029  2.3231
    8SAPS  H11B  943   5.689   5.366   0.717  0.9796 -0.3786  1.1718
    8SAPS     P  944   5.514   5.321   0.506  0.5021 -0.2759 -0.1085
    8SAPS   O13  945   5.602   5.211   0.454 -0.4784 -0.0847 -0.7165
    8SAPS   O14  946   5.376   5.334   0.446 -0.0036  0.4386  0.0090
    8SAPS   O12  947   5.495   5.314   0.666 -0.2869 -0.2980 -0.6262
    8SAPS   O11  948   5.589   5.458   0.498  0.3953 -0.2293 -0.3407
    8SAPS    C1  949   5.624   5.512   0.365  0.1848  0.4673 -0.0519
    8SAPS    HA  950   5.734   5.519   0.372  0.2578 -0.8200  0.3135
    8SAPS    HB  951   5.608   5.447   0.276  0.0583 -0.2167  0.4623
    8SAPS    C2  952   5.569   5.650   0.338  0.0015  0.6272  0.9650
    8SAPS    HS  953   5.566   5.705   0.435  0.5299 -0.2079  1.4717
    8SAPS   O21  954   5.439   5.628   0.285  0.5696 -0.1566  0.1056
    8SAPS   C21  955   5.355   5.733   0.286 -0.3939 -0.4957  0.1270
    8SAPS   O22  956   5.370   5.825   0.367  0.0625  0.0705 -0.4095
    8SAPS   C22  957   5.235   5.715   0.206  0.7597  0.8478 -0.0925
    8SAPS   H2R  958   5.169   5.662   0.279  0.2011 -0.1509 -1.2767
    8SAPS   H2S  959   5.196   5.817   0.187 -0.0360  0.5891  0.0755
    8SAPS    C3  960   5.658   5.728   0.237 -0.1996 -0.3922  0.1377
    8SAPS    HX  961   5.764   5.713   0.265 -0.2487 -0.4173  0.3126
    8SAPS    HY  962   5.643   5.836   0.258 -0.5231 -0.1927 -1.0861
    8SAPS   O31  963   5.659   5.690   0.097  0.1247  0.1802 -0.7019
    8SAPS   C31  964   5.591   5.764   0.013 -0.2251  0.7381 -0.1054
    8SAPS   O32  965   5.524   5.857   0.043 -0.0305 -0.6684  0.3721
    8SAPS   C32  966   5.615   5.720  -0.136 -0.1925 -0.1556 -0.3835
    8SAPS   H2X  967   5.550   5.781  -0.203 -1.6866 -1.4599 -0.1975
    8SAPS   H2Y  968   5.585   5.613  -0.138 -1.2864  0.1139  0.1887
    8SAPS   C23  969   5.241   5.627   0.076 -0.3958  1.0146  0.1717
    8SAPS   H3R  970   5.268   5.521   0.099  0.5071 -0.0954 -4.8872
    8SAPS   H3S  971   5.316   5.664   0.004 -0.6773 -0.3620 -0.8745
    8SAPS   C24  972   5.109   5.609   0.004  0.0929  0.5916  0.5002
    8SAPS   H4R  973   5.098   5.701  -0.057  0.3124  0.7657  0.7230
    8SAPS   H4S  974   5.020   5.605   0.071 -0.9644  0.2553 -0.8811
    8SAPS   C25  975   5.112   5.481  -0.080 -0.1298 -0.2499  0.4733
    8SAPS   H5R  976   5.109   5.394  -0.012 -0.7844 -0.0921  0.6502
    8SAPS   C26  977   5.110   5.468  -0.214  0.3534  0.5678  0.0875
    8SAPS   H6R  978   5.123   5.371  -0.265  0.5513  1.7795 -2.3243
    8SAPS   C27  979   5.120   5.597  -0.307  0.1472  0.1665 -0.0173
    8SAPS   H7R  980   5.224   5.609  -0.344  0.4540  1.2579  1.1203
    8SAPS   H7S  981   5.090   5.694  -0.263  0.0930  0.0042  0.3077
    8SAPS   C28  982   5.026   5.575  -0.422  0.5996 -0.0505 -0.4790
    8SAPS   H8R  983   4.935   5.518  -0.397  1.5555 -2.2161 -1.6249
    8SAPS   C29  984   5.056   5.591  -0.558 -0.4869  0.3416  0.3289
    8SAPS   H9R  985   4.986   5.559  -0.637  1.3962  1.5078 -1.9612
    8SAPS  C210  986   5.191   5.641  -0.615 -0.3739 -0.1032 -0.1730
    8SAPS  H10R  987   5.242   5.703  -0.538 -0.8651 -1.1734  1.0361
    8SAPS  H10S  988   5.173   5.720  -0.692 -0.8006  0.6189  0.6497
    8SAPS  C211  989   5.279   5.531  -0.672 -0.0442 -0.0257  0.2312
    8SAPS  H11R  990   5.253   5.432  -0.634  0.7474 -1.2759 -2.2854
    8SAPS  C212  991   5.371   5.551  -0.770  0.3039 -0.0292 -0.3535
    8SAPS  H12R  992   5.438   5.468  -0.796 -0.1503 -0.4580 -0.1771
    8SAPS  C213  993   5.406   5.688  -0.821  0.3381  0.0406  0.3518
    8SAPS  H13R  994   5.402   5.758  -0.736 -3.1154  0.0175  0.3635
    8SAPS  H13S  995   5.333   5.734  -0.891  0.8203 -1.0384 -0.9146
    8SAPS  C214  996   5.545   5.697  -0.890 -0.7313 -0.7105 -0.1141
    8SAPS  H14R  997   5.622   5.746  -0.828 -2.0834  0.5524  0.6441
    8SAPS  C215  998   5.578   5.666  -1.018  0.4194  0.1443 -0.1171
    8SAPS  H15R  999   5.678   5.692  -1.056 -0.4963  0.9901 -2.0752
    8SAPS  C216 1000   5.485   5.598  -1.113  0.2764 -0.1922 -0.1590
    8SAPS  H16R 1001   5.380   5.628  -1.093  0.8855  1.0484  1.4197
    8SAPS  H16S 1002   5.483   5.488  -1.098 -2.1747 -0.0352  1.1854
    8SAPS  C217 1003   5.515   5.622  -1.267  0.1016 -0.2626 -0.0520
    8SAPS  H17R 1004   5.623   5.615  -1.289  0.5353 -0.7723  2.0253
    8SAPS  H17S 1005   5.481   5.727  -1.285  0.3372 -0.0235  0.8189
    8SAPS  C218 1006   5.445   5.522  -1.349  0.3863  0.5311  0.7342
    8SAPS  H18R 1007   5.339   5.512  -1.318 -0.0982 -1.8450 -1.3608
    8SAPS  H18S 1008   5.492   5.422  -1.341  0.3294 -0.3294 -5.0153
    8SAPS  C219 1009   5.440   5.558  -1.505  0.7131 -0.4844  0.4862
    8SAPS  H19R 1010   5.542   5.549  -1.548  0.3558 -0.3039 -0.4343
    8SAPS  H19S 1011   5.410   5.665  -1.506 -1.6620 -1.0954  0.2913
    8SAPS  C220 1012   5.345   5.460  -1.580 -0.2004  0.0687  0.3188
    8SAPS  H20R 1013   5.405   5.369  -1.600  0.8025  0.5846  0.8594
    8SAPS  H20S 1014   5.320   5.498  -1.681  1.9053  2.3048  0.5351
    8SAPS  H20T 1015   5.257   5.429  -1.521 -0.9774  2.2689  0.3966
    8SAPS   C33 1016   5.756   5.764  -0.174 -0.6817 -0.0886  0.1519
    8SAPS   H3X 1017   5.824   5.735  -0.091  0.0176 -0.3322 -0.4839
    8SAPS   H3Y 1018   5.764   5.873  -0.191  1.6222 -0.2401 -0.1658
    8SAPS   C34 1019   5.795   5.695  -0.308 -0.6440 -0.3408 -0.1656
    8SAPS   H4X 1020   5.742   5.745  -0.392 -0.4250  0.5121  0.1963
    8SAPS   H4Y 1021   5.773   5.586  -0.300  0.5396 -0.6648 -1.0222
    8SAPS   C35 1022   5.939   5.720  -0.349  0.0556  0.0775  0.8659
    8SAPS   H5X 1023   6.007   5.673  -0.275  0.2273 -1.3538 -0.1662
    8SAPS   H5Y 1024   5.955   5.830  -0.342 -0.3725  0.0623  2.4134
    8SAPS   C36 1025   5.964   5.662  -0.488 -0.1409  0.0411  0.2772
    8SAPS   H6X 1026   6.072   5.659  -0.515 -0.4324 -2.8107 -0.9223
    8SAPS   H6Y 1027   5.910   5.713  -0.570  0.1120 -0.4427 -0.2013
    8SAPS   C37 1028   5.930   5.505  -0.503  0.6167 -0.1045 -0.3617
    8SAPS   H7X 1029   5.820   5.503  -0.514  0.6634  1.8032 -1.6788
    8SAPS   H7Y 1030   5.973   5.452  -0.415 -0.1116 -0.5962 -0.2943
    8SAPS   C38 1031   5.996   5.439  -0.623  0.1319 -0.4041 -0.4921
    8SAPS   H8X 1032   6.004   5.329  -0.611  1.6597 -0.1709  0.9129
    8SAPS   H8Y 1033   6.102   5.467  -0.641 -0.1480  0.3555 -0.9804
    8SAPS   C39 1034   5.925   5.468  -0.757 -0.9389  1.0559  0.2000
    8SAPS   H9X 1035   5.935   5.578  -0.763  0.5721  1.0181  1.4309
    8SAPS   H9Y 1036   5.819   5.439  -0.739 -1.4660  1.2865 -2.1992
    8SAPS  C310 1037   5.978   5.395  -0.889 -0.1841  0.0901  0.2389
    8SAPS  H10X 1038   5.968   5.286  -0.867 -1.8610 -0.1111 -1.3311
    8SAPS  H10Y 1039   6.080   5.435  -0.909 -0.3949  1.7046  2.0658
    8SAPS  C311 1040   5.887   5.426  -1.006 -0.0701 -0.7591  0.6716
    8SAPS  H11X 1041   5.909   5.529  -1.040 -0.2735 -0.7457  0.5837
    8SAPS  H11Y 1042   5.784   5.424  -0.966 -0.4035  1.6219  0.0728
    8SAPS  C312 1043   5.893   5.322  -1.122  0.5967  0.5775 -0.5241
    8SAPS  H12X 1044   5.845   5.228  -1.088  1.2493 -0.5925 -2.7045
    8SAPS  H12Y 1045   6.000   5.306  -1.146  0.2863  0.0431 -1.5943
    8SAPS  C313 1046   5.809   5.360  -1.242  0.2826  0.3553 -0.7066
    8SAPS  H13X 1047   5.810   5.471  -1.249 -2.4360  0.5404  0.3093
    8SAPS  H13Y 1048   5.701   5.342  -1.223 -0.0624  0.4746 -2.3866
    8SAPS  C314 1049   5.844   5.280  -1.373 -0.5726 -0.2841  1.1555
    8SAPS  H14X 1050   5.759   5.279  -1.444  0.5458  0.1137 -0.2571
    8SAPS  H14Y 1051   5.874   5.177  -1.348  3.0673  0.4683  0.5223
    8SAPS  C315 1052   5.965   5.332  -1.450 -0.4851  0.4493 -0.1837
    8SAPS  H15X 1053   6.061   5.308  -1.400 -0.2151  2.3250  0.2739
    8SAPS  H15Y 1054   5.958   5.442  -1.440  1.3354  0.7851 -1.8928
    8SAPS  C316 1055   5.946   5.292  -1.592 -0.2062 -0.2167 -0.4668
    8SAPS  H16X 1056   5.847   5.318  -1.633  0.4109  1.8876 -0.7512
    8SAPS  H16Y 1057   5.956   5.182  -1.600  0.2756 -0.2341  0.2548
    8SAPS  C317 1058   6.042   5.364  -1.693  0.2373 -0.1409  0.2923
    8SAPS  H17X 1059   6.016   5.472  -1.705  1.5508  0.0109 -1.4653
    8SAPS  H17Y 1060   6.046   5.305  -1.786  2.5613  0.3178  0.0578
    8SAPS  C318 1061   6.189   5.364  -1.644  0.2446 -0.4343  0.8602
    8SAPS  H18X 1062   6.196   5.451  -1.575  1.6860  1.6295 -1.7117
    8SAPS  H18Y 1063   6.261   5.380  -1.727 -1.1456  2.5245  0.0599
    8SAPS  H18Z 1064   6.202   5.266  -1.594 -2.3107 -1.6681 -0.6723
    9SAPS     N 1065   1.764   5.927   0.062  0.0562 -0.2674 -0.0363
    9SAPS   HN1 1066   1.849   5.897   0.010  1.7542 -0.5787  2.7430
    9SAPS   HN2 1067   1.686   5.860   0.044 -1.9683  1.4711  1.6988
    9SAPS   HN3 1068   1.736   6.015   0.014  0.4281  0.1197  0.4468
    9SAPS   C12 1069   1.794   5.954   0.200  0.2789  0.3511  0.2889
    9SAPS  H12A 1070   1.701   5.958   0.255  1.6442  2.9828  2.6943
    9SAPS   C13 1071   1.885   5.837   0.255  0.0028 -0.5214 -0.0178
    9SAPS  O13A 1072   1.968   5.774   0.181  0.3037 -0.5978 -0.1970
    9SAPS  O13B 1073   1.888   5.828   0.376  0.3582 -0.8497 -0.7225
    9SAPS   C11 1074   1.856   6.091   0.223 -0.5688  0.3176 -0.0771
    9SAPS  H11A 1075   1.948   6.081   0.161  0.4930 -0.4586  1.5458
    9SAPS  H11B 1076   1.886   6.109   0.328  0.9955 -1.7719 -0.0886
    9SAPS     P 1077   1.809   6.345   0.141 -0.3058  0.3346  0.1143
    9SAPS   O13 1078   1.748   6.435   0.242 -0.1982  0.1107 -0.8145
    9SAPS   O14 1079   1.952   6.364   0.114  0.6416  0.1141 -0.1762
    9SAPS   O12 1080   1.776   6.196   0.171  0.7772 -0.1571 -0.2545
    9SAPS   O11 1081   1.730   6.366   0.008 -0.3928  0.0877  0.6130
    9SAPS    C1 1082   1.588   6.407   0.008 -0.4297  0.2970 -0.1183
    9SAPS    HA 1083   1.551   6.455   0.101  2.0133  1.3165  0.4270
    9SAPS    HB 1084   1.557   6.472  -0.077  1.7278  0.0061 -1.2139
    9SAPS    C2 1085   1.498   6.277   0.003 -0.0671  0.2822  0.7633
    9SAPS    HS 1086   1.540   6.196   0.066  0.6365  0.3771  0.4266
    9SAPS   O21 1087   1.482   6.236  -0.138 -0.4239 -0.4631  0.0765
    9SAPS   C21 1088   1.583   6.155  -0.175  0.1860  0.0549  0.9877
    9SAPS   O22 1089   1.670   6.112  -0.106 -0.6873  1.0557 -0.0853
    9SAPS   C22 1090   1.542   6.117  -0.323  0.3935  0.2006  0.1744
    9SAPS   H2R 1091   1.464   6.041  -0.303 -0.0102  0.9699  1.7577
    9SAPS   H2S 1092   1.507   6.214  -0.364 -0.2337 -0.2440 -0.3503
    9SAPS    C3 1093   1.360   6.314   0.061  0.8971  0.7684 -0.9470
    9SAPS    HX 1094   1.365   6.331   0.170 -1.2095 -1.8401 -0.3347
    9SAPS    HY 1095   1.288   6.230   0.054 -2.3427  3.4334 -2.1351
    9SAPS   O31 1096   1.310   6.431  -0.006  0.6669 -0.3579  0.5529
    9SAPS   C31 1097   1.188   6.432  -0.054 -0.5137 -0.2666 -0.2835
    9SAPS   O32 1098   1.105   6.347  -0.033  0.1301  0.5234 -0.2962
    9SAPS   C32 1099   1.161   6.562  -0.132  0.1698 -0.1286  0.0132
    9SAPS   H2X 1100   1.232   6.643  -0.106  0.5459 -0.1879 -0.7994
    9SAPS   H2Y 1101   1.055   6.589  -0.114  0.1836 -0.5733  0.8067
    9SAPS   C23 1102   1.656   6.078  -0.417 -0.3294  0.2524 -0.0996
    9SAPS   H3R 1103   1.756   6.114  -0.388  0.6950  0.3440 -3.3300
    9SAPS   H3S 1104   1.660   6.134  -0.512  1.9531 -0.8041 -0.6871
    9SAPS   C24 1105   1.642   5.929  -0.445  0.2613  0.1147  0.9843
    9SAPS   H4R 1106   1.617   5.861  -0.361  1.0431 -1.3985  0.0261
    9SAPS   H4S 1107   1.740   5.881  -0.468 -0.2410 -0.2390 -0.5442
    9SAPS   C25 1108   1.541   5.900  -0.557  0.1452  0.6668  0.7378
    9SAPS   H5R 1109   1.436   5.888  -0.524 -0.7760  1.5366 -1.6565
    9SAPS   C26 1110   1.570   5.902  -0.691 -0.4338 -0.0874  0.0749
    9SAPS   H6R 1111   1.490   5.880  -0.763  1.8701 -0.0356 -2.6847
    9SAPS   C27 1112   1.698   5.934  -0.756 -0.0277 -0.5458  0.5167
    9SAPS   H7R 1113   1.764   5.989  -0.687  1.0872 -1.4140  0.1795
    9SAPS   H7S 1114   1.681   6.002  -0.842 -0.3748  0.5123  1.4063
    9SAPS   C28 1115   1.771   5.812  -0.813  0.1686  0.1668 -0.7933
    9SAPS   H8R 1116   1.833   5.757  -0.740  0.2986 -2.1074 -2.5201
    9SAPS   C29 1117   1.744   5.743  -0.929  0.2500 -0.2551 -0.6742
    9SAPS   H9R 1118   1.795   5.651  -0.959 -0.5924 -0.6572 -0.8979
    9SAPS  C210 1119   1.630   5.780  -1.032 -0.3834  0.2325  0.4299
    9SAPS  H10R 1120   1.635   5.891  -1.037 -0.9524  0.2428 -0.1097
    9SAPS  H10S 1121   1.529   5.775  -0.985 -1.0603  4.1407 -0.2448
    9SAPS  C211 1122   1.644   5.722  -1.176 -0.0965 -0.2713 -0.5194
    9SAPS  H11R 1123   1.582   5.633  -1.197 -0.1387 -0.0285 -1.4861
    9SAPS  C212 1124   1.728   5.754  -1.280 -0.5288  0.3718  0.2003
    9SAPS  H12R 1125   1.716   5.697  -1.374 -0.7312 -0.3083  0.6332
    9SAPS  C213 1126   1.831   5.859  -1.270  0.1327 -0.2288  0.2974
    9SAPS  H13R 1127   1.934   5.823  -1.293  1.0168  2.1616  0.2283
    9SAPS  H13S 1128   1.833   5.905  -1.169 -2.2893 -1.3974  0.9697
    9SAPS  C214 1129   1.798   5.963  -1.377 -0.3013 -0.5767 -0.2552
    9SAPS  H14R 1130   1.705   6.020  -1.364 -0.7853 -1.1857 -0.9218
    9SAPS  C215 1131   1.860   5.980  -1.494 -0.0836  0.5127  0.0465
    9SAPS  H15R 1132   1.814   6.059  -1.554 -1.5493  0.1394  0.6459
    9SAPS  C216 1133   1.983   5.908  -1.548 -0.1337 -0.2352 -0.4270
    9SAPS  H16R 1134   2.042   5.867  -1.464 -2.6440 -1.1808  0.9871
    9SAPS  H16S 1135   2.048   5.977  -1.606 -0.6870  1.2572  0.6534
    9SAPS  C217 1136   1.966   5.785  -1.638  0.5225 -0.3097  0.4396
    9SAPS  H17R 1137   1.879   5.723  -1.605  0.5999 -0.7493 -0.1694
    9SAPS  H17S 1138   2.058   5.726  -1.617  0.7411 -1.0847 -2.2757
    9SAPS  C218 1139   1.962   5.829  -1.791 -0.5848 -0.3374 -0.2753
    9SAPS  H18R 1140   2.068   5.853  -1.812 -0.2275 -1.0732  0.5829
    9SAPS  H18S 1141   1.900   5.921  -1.803 -0.2679 -0.2893 -1.6435
    9SAPS  C219 1142   1.916   5.719  -1.885 -0.2880 -1.0787  0.4996
    9SAPS  H19R 1143   1.929   5.756  -1.989 -0.6322 -3.0658 -0.3031
    9SAPS  H19S 1144   1.808   5.711  -1.861 -0.6598 -1.0683 -1.0482
    9SAPS  C220 1145   1.992   5.587  -1.883  0.1901 -0.1259 -0.1168
    9SAPS  H20R 1146   2.096   5.612  -1.916  0.2562  1.4704  1.1745
    9SAPS  H20S 1147   1.944   5.517  -1.954 -1.9450 -1.2777  2.3125
    9SAPS  H20T 1148   1.985   5.541  -1.783 -0.1575  0.6194  0.2107
    9SAPS   C33 1149   1.191   6.525  -0.280 -0.9779 -0.4269 -0.1967
    9SAPS   H3X 1150   1.162   6.617  -0.334 -2.0827 -1.0958 -0.7807
    9SAPS   H3Y 1151   1.118   6.445  -0.305 -0.1964 -0.4741 -2.5513
    9SAPS   C34 1152   1.336   6.486  -0.303 -0.6433 -1.0987  0.0171
    9SAPS   H4X 1153   1.354   6.386  -0.259 -0.3012 -0.6465  0.9404
    9SAPS   H4Y 1154   1.388   6.564  -0.243 -1.2862 -0.6639  0.0210
    9SAPS   C35 1155   1.383   6.498  -0.450 -0.6830 -0.3541 -1.1025
    9SAPS   H5X 1156   1.492   6.479  -0.447 -0.6993 -0.3629  0.0714
    9SAPS   H5Y 1157   1.381   6.604  -0.484 -1.3141  0.1584  0.4396
    9SAPS   C36 1158   1.317   6.400  -0.552  0.0994 -0.6636 -0.3241
    9SAPS   H6X 1159   1.212   6.428  -0.571  0.1886  1.2156  1.6374
    9SAPS   H6Y 1160   1.317   6.294  -0.519  2.8063 -0.3786  0.9291
    9SAPS   C37 1161   1.400   6.409  -0.680  0.3146  0.1402  0.2572
    9SAPS   H7X 1162   1.491   6.346  -0.675  1.9427  2.3551  0.1072
    9SAPS   H7Y 1163   1.441   6.512  -0.688  0.2949  0.0755 -0.6980
    9SAPS   C38 1164   1.322   6.377  -0.808  0.2709 -0.0336  0.0811
    9SAPS   H8X 1165   1.230   6.437  -0.821 -1.0235 -2.3178 -2.3873
    9SAPS   H8Y 1166   1.295   6.271  -0.785 -2.2865  0.9185  1.9579
    9SAPS   C39 1167   1.408   6.388  -0.938 -0.7245  0.3150  1.0073
    9SAPS   H9X 1168   1.507   6.340  -0.928 -0.2463  0.6245 -1.5533
    9SAPS   H9Y 1169   1.425   6.487  -0.987  0.0480 -0.3436 -0.0968
    9SAPS  C310 1170   1.336   6.311  -1.052  0.2003 -0.2132 -0.7448
    9SAPS  H10X 1171   1.231   6.346  -1.061  0.1146 -0.2077  0.2172
    9SAPS  H10Y 1172   1.335   6.204  -1.023 -0.8799  0.6641  2.9797
    9SAPS  C311 1173   1.402   6.330  -1.182 -0.1914 -0.3665  0.6104
    9SAPS  H11X 1174   1.512   6.343  -1.169 -0.4890  3.4237  0.3073
    9SAPS  H11Y 1175   1.377   6.427  -1.228  0.5090 -1.4592 -2.2827
    9SAPS  C312 1176   1.376   6.226  -1.290 -0.7737  0.5137 -0.3837
    9SAPS  H12X 1177   1.268   6.201  -1.298 -1.1660  1.2276  1.9512
    9SAPS  H12Y 1178   1.436   6.137  -1.264 -2.5762 -0.4775  0.5409
    9SAPS  C313 1179   1.406   6.291  -1.431 -0.2392 -0.4183  0.0876
    9SAPS  H13X 1180   1.509   6.329  -1.420 -0.5997  0.9822 -1.0616
    9SAPS  H13Y 1181   1.340   6.377  -1.456  1.0124  0.4114 -0.4475
    9SAPS  C314 1182   1.397   6.194  -1.544 -0.6302 -0.0706 -0.8719
    9SAPS  H14X 1183   1.472   6.112  -1.541 -0.6908 -0.3088  5.4410
    9SAPS  H14Y 1184   1.431   6.262  -1.625  0.1885  0.9068  0.2567
    9SAPS  C315 1185   1.261   6.127  -1.559  0.5469 -0.3328 -0.2198
    9SAPS  H15X 1186   1.174   6.179  -1.513  1.6632  0.9065  0.5734
    9SAPS  H15Y 1187   1.272   6.037  -1.495 -1.2993 -0.1137  0.4713
    9SAPS  C316 1188   1.233   6.068  -1.704 -0.0838  0.1058  0.0313
    9SAPS  H16X 1189   1.180   5.971  -1.704  0.2976 -0.1374 -1.7920
    9SAPS  H16Y 1190   1.340   6.052  -1.726  0.5085 -0.8099  3.0423
    9SAPS  C317 1191   1.145   6.167  -1.789 -0.0524 -0.0481 -0.2462
    9SAPS  H17X 1192   1.173   6.273  -1.777 -1.1732  0.3478 -0.9125
    9SAPS  H17Y 1193   1.047   6.152  -1.738  0.9522 -1.1964  1.4434
    9SAPS  C318 1194   1.143   6.119  -1.937 -0.2007 -0.9272  0.0344
    9SAPS  H18X 1195   1.094   6.188  -2.009 -0.9135 -2.7476 -1.3067
    9SAPS  H18Y 1196   1.091   6.020  -1.940 -1.3974 -0.3098 -0.2230
    9SAPS  H18Z 1197   1.248   6.113  -1.972  0.3757  1.6654  1.0964
   10SAPS     N 1198   1.265   5.713   0.128 -0.2297  0.7293 -0.0827
   10SAPS   HN1 1199   1.243   5.753   0.035 -0.0113 -1.9043 -1.3796
   10SAPS   HN2 1200   1.198   5.640   0.163  0.0549  0.4888 -0.0373
   10SAPS   HN3 1201   1.272   5.776   0.210  0.0433 -0.5982  0.9560
   10SAPS   C12 1202   1.402   5.653   0.120  0.1392  0.0892 -0.0500
   10SAPS  H12A 1203   1.393   5.567   0.054  0.3473 -0.4151  0.5651
   10SAPS   C13 1204   1.505   5.749   0.063 -0.4117  1.0173 -0.6377
   10SAPS  O13A 1205   1.474   5.863   0.025 -0.3011  0.0119  0.2669
   10SAPS  O13B 1206   1.620   5.697   0.031 -0.4250 -0.5000 -0.2326
   10SAPS   C11 1207   1.441   5.590   0.251 -0.4239  0.5735  0.0820
   10SAPS  H11A 1208   1.450   5.660   0.337 -2.9195 -1.1306  1.8457
   10SAPS  H11B 1209   1.546   5.559   0.232 -0.4978 -0.1280  0.7643
   10SAPS     P 1210   1.410   5.354   0.361 -0.0001  0.5869  0.0081
   10SAPS   O13 1211   1.563   5.347   0.362  0.5672 -0.1015 -0.0415
   10SAPS   O14 1212   1.351   5.328   0.492 -0.4094  0.1686  0.2226
   10SAPS   O12 1213   1.359   5.482   0.293 -0.3318 -0.2551  0.3278
   10SAPS   O11 1214   1.365   5.237   0.262  0.1974 -0.2148 -0.4531
   10SAPS    C1 1215   1.353   5.256   0.125 -0.0801 -0.7145 -0.1318
   10SAPS    HA 1216   1.294   5.172   0.082 -1.1743 -0.1770  0.2799
   10SAPS    HB 1217   1.293   5.347   0.099 -0.5065 -0.8237  0.4539
   10SAPS    C2 1218   1.492   5.269   0.053 -0.0004 -0.2743  0.0112
   10SAPS    HS 1219   1.556   5.334   0.116 -1.0915  1.3866 -0.5194
   10SAPS   O21 1220   1.462   5.325  -0.083  0.4195  0.3953  0.3965
   10SAPS   C21 1221   1.569   5.378  -0.143 -0.4842  0.2684  0.6428
   10SAPS   O22 1222   1.679   5.385  -0.100  0.4761  0.1410  0.1747
   10SAPS   C22 1223   1.527   5.416  -0.285  1.2285 -0.5320  0.7604
   10SAPS   H2R 1224   1.475   5.329  -0.329  0.6413 -0.2558  0.9006
   10SAPS   H2S 1225   1.463   5.506  -0.273  4.3595  1.8879  0.5746
   10SAPS    C3 1226   1.574   5.134   0.048 -0.7130 -0.8294  0.0629
   10SAPS    HX 1227   1.583   5.109   0.156  0.6777 -1.3685 -0.1585
   10SAPS    HY 1228   1.673   5.159   0.005  0.1173  0.7386  2.6415
   10SAPS   O31 1229   1.506   5.033  -0.025 -0.0745  0.1175 -0.4802
   10SAPS   C31 1230   1.575   4.917  -0.038 -0.5949  0.3982  0.2488
   10SAPS   O32 1231   1.682   4.887   0.019  0.8583 -1.0033  0.5814
   10SAPS   C32 1232   1.506   4.833  -0.144  0.2929 -0.0609 -0.6070
   10SAPS   H2X 1233   1.462   4.901  -0.220 -0.3567 -0.2687 -0.4206
   10SAPS   H2Y 1234   1.416   4.783  -0.102  0.7896 -2.3126 -2.0902
   10SAPS   C23 1235   1.644   5.471  -0.367  0.1178  0.1847 -0.6607
   10SAPS   H3R 1236   1.709   5.382  -0.375 -1.7075 -1.2672 -0.0591
   10SAPS   H3S 1237   1.698   5.547  -0.307 -1.2188  0.5034  0.1856
   10SAPS   C24 1238   1.604   5.531  -0.501  0.6938  0.4621  0.0706
   10SAPS   H4R 1239   1.694   5.560  -0.560 -1.7671  0.2408 -4.1887
   10SAPS   H4S 1240   1.546   5.625  -0.488 -2.7161 -1.2899 -1.1464
   10SAPS   C25 1241   1.524   5.438  -0.577 -0.0101  0.8642  0.5393
   10SAPS   H5R 1242   1.419   5.423  -0.547  0.1110 -0.9983  0.1563
   10SAPS   C26 1243   1.576   5.366  -0.679 -0.8004 -0.1615  0.7704
   10SAPS   H6R 1244   1.518   5.285  -0.725 -0.0497 -0.0718 -0.3675
   10SAPS   C27 1245   1.722   5.383  -0.724  0.8555  0.3929 -0.2104
   10SAPS   H7R 1246   1.788   5.387  -0.635  1.0523  3.0378 -0.4214
   10SAPS   H7S 1247   1.750   5.478  -0.773  2.3243  0.5525  0.8888
   10SAPS   C28 1248   1.763   5.273  -0.814  1.0976 -0.3315 -1.1404
   10SAPS   H8R 1249   1.824   5.195  -0.767 -0.5453 -1.4511 -0.8016
   10SAPS   C29 1250   1.742   5.268  -0.943 -0.0119  0.1407  0.0399
   10SAPS   H9R 1251   1.776   5.182  -1.003 -2.5171 -1.3737  0.6357
   10SAPS  C210 1252   1.677   5.376  -1.012  0.7690 -0.1954 -0.1282
   10SAPS  H10R 1253   1.760   5.439  -1.049  1.2482  0.2801  1.6758
   10SAPS  H10S 1254   1.618   5.441  -0.944  1.6704 -1.3052  1.7702
   10SAPS  C211 1255   1.583   5.342  -1.126 -0.2910  0.5966 -0.4394
   10SAPS  H11R 1256   1.480   5.363  -1.093 -0.4616 -1.5198  0.5097
   10SAPS  C212 1257   1.609   5.319  -1.252 -0.0403 -0.4256 -0.0952
   10SAPS  H12R 1258   1.534   5.289  -1.327  0.5188 -1.3246 -0.3155
   10SAPS  C213 1259   1.759   5.303  -1.308 -0.3414  0.1118  0.1135
   10SAPS  H13R 1260   1.826   5.299  -1.220 -1.3019 -0.0220  0.8611
   10SAPS  H13S 1261   1.800   5.391  -1.362  0.1372 -1.6009 -2.5170
   10SAPS  C214 1262   1.764   5.171  -1.383  0.1042 -0.1520  0.4127
   10SAPS  H14R 1263   1.759   5.073  -1.332 -2.3736 -0.8439 -1.0309
   10SAPS  C215 1264   1.801   5.157  -1.508 -0.7419  0.4221  0.2835
   10SAPS  H15R 1265   1.815   5.056  -1.549  0.3969 -0.2961  2.3222
   10SAPS  C216 1266   1.859   5.263  -1.597  0.1202 -0.7699  0.1018
   10SAPS  H16R 1267   1.931   5.216  -1.668 -1.2838 -2.7268 -0.1240
   10SAPS  H16S 1268   1.914   5.348  -1.552 -0.5090 -0.7642  0.8840
   10SAPS  C217 1269   1.751   5.335  -1.679 -1.0075  0.5088  0.5482
   10SAPS  H17R 1270   1.792   5.418  -1.740 -3.0872  1.1806 -0.0136
   10SAPS  H17S 1271   1.696   5.395  -1.603  1.7292  0.5706  2.6534
   10SAPS  C218 1272   1.658   5.248  -1.765  0.8728 -0.7494  0.3204
   10SAPS  H18R 1273   1.633   5.155  -1.709 -2.7187  0.2242  0.5876
   10SAPS  H18S 1274   1.705   5.221  -1.862  2.0462 -0.3766  0.7803
   10SAPS  C219 1275   1.528   5.323  -1.801  0.7340  0.8547  0.1892
   10SAPS  H19R 1276   1.480   5.357  -1.707  0.8018  1.7419 -0.0859
   10SAPS  H19S 1277   1.450   5.253  -1.840 -0.6625  2.4511 -0.0063
   10SAPS  C220 1278   1.524   5.437  -1.901  0.9189 -0.6458  0.1382
   10SAPS  H20R 1279   1.543   5.532  -1.845  2.7698 -1.4925  1.0379
   10SAPS  H20S 1280   1.430   5.441  -1.958  0.7259  0.8014  0.5076
   10SAPS  H20T 1281   1.600   5.417  -1.979  1.0981  0.3323  0.0500
   10SAPS   C33 1282   1.588   4.721  -0.223  0.1062 -0.4829 -0.8471
   10SAPS   H3X 1283   1.620   4.640  -0.154 -0.7679 -0.3224 -0.2395
   10SAPS   H3Y 1284   1.677   4.752  -0.282 -0.7936 -1.7430 -2.9987
   10SAPS   C34 1285   1.494   4.659  -0.331 -0.1742  0.4427  0.0216
   10SAPS   H4X 1286   1.407   4.616  -0.278  0.2056 -2.5399 -1.5812
   10SAPS   H4Y 1287   1.543   4.568  -0.371  1.4404  0.5609  1.6166
   10SAPS   C35 1288   1.451   4.759  -0.440 -1.0144 -0.2119  0.5175
   10SAPS   H5X 1289   1.540   4.825  -0.451  0.2281 -1.8584  0.1095
   10SAPS   H5Y 1290   1.360   4.821  -0.432 -0.2149  1.1227 -0.3589
   10SAPS   C36 1291   1.435   4.680  -0.570 -0.0959 -0.3408  0.3626
   10SAPS   H6X 1292   1.347   4.611  -0.567  0.4588 -1.0360  1.0129
   10SAPS   H6Y 1293   1.529   4.626  -0.596 -1.1417 -2.0452 -0.0914
   10SAPS   C37 1294   1.430   4.780  -0.698  0.4919  0.9303 -0.1700
   10SAPS   H7X 1295   1.356   4.863  -0.684  1.2954  1.3918  1.5757
   10SAPS   H7Y 1296   1.386   4.722  -0.782 -0.0265  0.1215  0.6394
   10SAPS   C38 1297   1.567   4.844  -0.739  0.1197 -0.4064  0.2007
   10SAPS   H8X 1298   1.647   4.779  -0.696  1.1105  0.9041  0.3858
   10SAPS   H8Y 1299   1.577   4.942  -0.689 -3.7759 -0.5878  1.6510
   10SAPS   C39 1300   1.604   4.842  -0.889 -0.7241 -0.0972 -0.2395
   10SAPS   H9X 1301   1.632   4.737  -0.913 -1.1354 -0.2718  0.0239
   10SAPS   H9Y 1302   1.694   4.904  -0.906 -0.4670 -0.6076 -0.7909
   10SAPS  C310 1303   1.488   4.884  -0.987  0.1004 -0.3607 -0.5394
   10SAPS  H10X 1304   1.477   4.994  -0.970  2.7321 -0.1706  0.3728
   10SAPS  H10Y 1305   1.397   4.828  -0.959  0.2852  0.7962  2.8661
   10SAPS  C311 1306   1.519   4.865  -1.138  0.4895  0.2470 -0.5821
   10SAPS  H11X 1307   1.531   4.759  -1.167 -2.2528 -1.2950  3.1831
   10SAPS  H11Y 1308   1.613   4.915  -1.170  1.4842 -0.7135  0.7300
   10SAPS  C312 1309   1.399   4.910  -1.221 -0.3703 -0.1570  0.0532
   10SAPS  H12X 1310   1.383   5.018  -1.200  1.4815  0.4238 -1.2919
   10SAPS  H12Y 1311   1.307   4.851  -1.200 -0.3767 -0.1525  0.0372
   10SAPS  C313 1312   1.426   4.897  -1.366 -0.4104  0.0755  0.0640
   10SAPS  H13X 1313   1.441   4.790  -1.392  1.2135  0.5045 -0.8577
   10SAPS  H13Y 1314   1.520   4.952  -1.385  1.7884 -2.8554  1.6667
   10SAPS  C314 1315   1.323   4.945  -1.464 -0.1256 -0.3511 -0.0006
   10SAPS  H14X 1316   1.225   4.904  -1.430  1.2732 -0.6145  4.3942
   10SAPS  H14Y 1317   1.349   4.908  -1.565  1.6448  0.0610  0.2799
   10SAPS  C315 1318   1.320   5.093  -1.476 -0.6409 -0.4571  0.6108
   10SAPS  H15X 1319   1.412   5.129  -1.526 -0.5453 -0.5479  0.7190
   10SAPS  H15Y 1320   1.329   5.144  -1.377  0.1126 -1.3389  1.0195
   10SAPS  C316 1321   1.202   5.156  -1.544 -0.1577  0.0210 -0.0403
   10SAPS  H16X 1322   1.108   5.130  -1.490  0.8898  0.1155  1.9387
   10SAPS  H16Y 1323   1.199   5.128  -1.651 -1.5378  1.0160 -0.2891
   10SAPS  C317 1324   1.208   5.310  -1.522 -0.1364  0.4472  0.4468
   10SAPS  H17X 1325   1.295   5.345  -1.582  0.1575 -1.0101 -0.0278
   10SAPS  H17Y 1326   1.227   5.315  -1.413  2.2844 -1.4439  0.1982
   10SAPS  C318 1327   1.077   5.373  -1.565 -0.3613 -0.0622  0.1534
   10SAPS  H18X 1328   1.076   5.484  -1.576  1.5926  0.0377  0.6622
   10SAPS  H18Y 1329   1.002   5.349  -1.487  0.4752  0.5108  1.1642
   10SAPS  H18Z 1330   1.057   5.338  -1.668 -1.3019 -1.3917  0.7575
   11SAPS     N 1331   2.298   5.255   4.524 -0.0434  0.2450  0.4692
   11SAPS   HN1 1332   2.249   5.310   4.598 -0.5872  0.7553 -0.2609
   11SAPS   HN2 1333   2.346   5.182   4.580  0.6367 -0.0341 -0.4455
   11SAPS   HN3 1334   2.358   5.325   4.476 -1.1614  0.5564 -0.5114
   11SAPS   C12 1335   2.200   5.185   4.439 -0.1935 -0.1407  0.7334
   11SAPS  H12A 1336   2.119   5.153   4.504 -2.2526  0.4617 -1.3770
   11SAPS   C13 1337   2.124   5.281   4.342 -0.1984  0.8200  0.0342
   11SAPS  O13A 1338   2.164   5.399   4.335  0.5422  0.3483 -0.2190
   11SAPS  O13B 1339   2.020   5.238   4.281 -0.3625 -0.2280 -0.0189
   11SAPS   C11 1340   2.280   5.077   4.348 -0.3569  0.6140 -0.7742
   11SAPS  H11A 1341   2.357   5.139   4.298 -0.4221  1.1975 -0.1594
   11SAPS  H11B 1342   2.195   5.035   4.291 -0.9522  0.0271  0.5048
   11SAPS     P 1343   2.462   4.921   4.426  0.4466 -0.2509  0.0678
   11SAPS   O13 1344   2.478   4.893   4.283 -0.5965  0.4310 -0.0865
   11SAPS   O14 1345   2.550   5.024   4.490  0.2316 -0.2885  0.0921
   11SAPS   O12 1346   2.317   4.971   4.438 -0.0830  0.1060  0.4506
   11SAPS   O11 1347   2.468   4.779   4.499 -0.2491 -0.2404 -0.2971
   11SAPS    C1 1348   2.341   4.720   4.546  0.8206  0.6773 -0.1734
   11SAPS    HA 1349   2.256   4.762   4.488  2.0996  3.2774 -0.3166
   11SAPS    HB 1350   2.346   4.609   4.532  1.3527  0.7040 -0.2174
   11SAPS    C2 1351   2.304   4.752   4.694 -0.1527 -1.2625  0.1659
   11SAPS    HS 1352   2.296   4.862   4.693 -1.6687 -1.3075  2.1787
   11SAPS   O21 1353   2.408   4.705   4.777  0.6399  0.3557  0.0519
   11SAPS   C21 1354   2.424   4.775   4.891 -0.1572  0.3804 -0.1791
   11SAPS   O22 1355   2.354   4.870   4.928 -0.5037 -0.6270  0.0199
   11SAPS   C22 1356   2.542   4.719   4.972  0.3781 -0.3833 -0.7510
   11SAPS   H2R 1357   2.542   4.608   4.963 -0.2056 -0.8309  3.0721
   11SAPS   H2S 1358   2.631   4.753   4.916 -0.2618 -0.8404 -2.0714
   11SAPS    C3 1359   2.156   4.699   4.727  0.0018  0.2085  0.2811
   11SAPS    HX 1360   2.162   4.588   4.722  1.3449  0.2610  0.4883
   11SAPS    HY 1361   2.080   4.734   4.654  0.5697  0.6624 -0.1039
   11SAPS   O31 1362   2.122   4.728   4.863  0.5270  0.4461  0.4820
   11SAPS   C31 1363   2.056   4.848   4.878 -0.1617 -0.5717  0.6693
   11SAPS   O32 1364   2.045   4.921   4.783  0.1167  0.5785  0.1013
   11SAPS   C32 1365   2.016   4.880   5.021  0.3550  0.2130  0.0017
   11SAPS   H2X 1366   2.061   4.808   5.092 -0.5165  0.0392  0.3983
   11SAPS   H2Y 1367   1.906   4.863   5.030  0.4997 -0.6199  0.2078
   11SAPS   C23 1368   2.531   4.765   5.122 -0.8154  0.0333 -0.3477
   11SAPS   H3R 1369   2.521   4.876   5.125 -1.4444 -0.0223 -0.2636
   11SAPS   H3S 1370   2.629   4.751   5.173 -0.7005  0.4707 -0.4431
   11SAPS   C24 1371   2.407   4.719   5.197  0.4530  0.5572 -0.2401
   11SAPS   H4R 1372   2.313   4.745   5.144 -0.0364 -1.0811 -0.2100
   11SAPS   H4S 1373   2.386   4.764   5.297 -1.5607  0.2249 -0.4686
   11SAPS   C25 1374   2.436   4.570   5.212  0.1424 -0.7753 -0.2126
   11SAPS   H5R 1375   2.436   4.514   5.117 -0.3611 -1.0547 -0.0496
   11SAPS   C26 1376   2.472   4.505   5.323 -0.3953 -0.4567  0.2339
   11SAPS   H6R 1377   2.501   4.400   5.310 -3.5977 -1.7412  2.3602
   11SAPS   C27 1378   2.480   4.557   5.464  0.9166  0.1810  0.6012
   11SAPS   H7R 1379   2.466   4.666   5.473 -0.6750  0.0917 -0.4331
   11SAPS   H7S 1380   2.582   4.540   5.504  1.4242 -4.4567 -1.9488
   11SAPS   C28 1381   2.380   4.482   5.550  0.5075  0.0004  0.1052
   11SAPS   H8R 1382   2.292   4.446   5.494  1.5886 -3.0000  0.1611
   11SAPS   C29 1383   2.370   4.464   5.685 -0.0946 -0.1908 -0.1067
   11SAPS   H9R 1384   2.278   4.418   5.725 -1.1246  0.8048 -1.2276
   11SAPS  C210 1385   2.482   4.502   5.776  0.1974  0.7323 -0.3377
   11SAPS  H10R 1386   2.579   4.496   5.722 -0.4293 -0.6132 -1.3782
   11SAPS  H10S 1387   2.497   4.418   5.847  0.9201  1.6044  0.5595
   11SAPS  C211 1388   2.453   4.620   5.854  0.2539 -0.3075  0.1393
   11SAPS  H11R 1389   2.380   4.690   5.811  1.5627  1.5440  0.7915
   11SAPS  C212 1390   2.530   4.667   5.956  0.4422  0.0051  0.1657
   11SAPS  H12R 1391   2.498   4.764   5.997  0.0718 -0.4300  0.9158
   11SAPS  C213 1392   2.650   4.602   6.014 -0.3119 -0.2650  0.8529
   11SAPS  H13R 1393   2.738   4.656   5.973 -1.0726  0.5676  0.2693
   11SAPS  H13S 1394   2.655   4.495   5.983 -2.4986 -0.1055 -0.2668
   11SAPS  C214 1395   2.662   4.610   6.163 -0.3343  0.1724  0.8323
   11SAPS  H14R 1396   2.627   4.519   6.215  1.8819 -0.2115  1.7733
   11SAPS  C215 1397   2.685   4.717   6.239 -0.0168  0.2189  0.4324
   11SAPS  H15R 1398   2.680   4.722   6.349  0.1042  4.2551  0.3798
   11SAPS  C216 1399   2.728   4.856   6.186  0.4810  0.6262  0.3179
   11SAPS  H16R 1400   2.755   4.854   6.078  0.0765  1.6685  0.1814
   11SAPS  H16S 1401   2.824   4.879   6.236 -0.0652  0.3025  1.5399
   11SAPS  C217 1402   2.622   4.970   6.197 -0.4608  0.1356  0.0081
   11SAPS  H17R 1403   2.526   4.921   6.168  0.5976 -0.7011 -2.3564
   11SAPS  H17S 1404   2.645   5.052   6.126  1.9064 -0.5417 -0.0720
   11SAPS  C218 1405   2.613   5.035   6.334  0.2008 -0.1347 -0.5306
   11SAPS  H18R 1406   2.625   4.954   6.409 -2.6502 -2.8089 -2.7163
   11SAPS  H18S 1407   2.517   5.087   6.359 -0.1064 -0.6697 -0.5777
   11SAPS  C219 1408   2.737   5.121   6.356 -0.2207 -0.4865  0.3900
   11SAPS  H19R 1409   2.736   5.203   6.281 -1.8286  0.4689  1.3825
   11SAPS  H19S 1410   2.833   5.067   6.340 -0.4854 -0.6225 -0.9056
   11SAPS  C220 1411   2.745   5.208   6.490 -0.2654  0.2674 -0.1557
   11SAPS  H20R 1412   2.832   5.276   6.499 -1.2502  1.6558 -0.7701
   11SAPS  H20S 1413   2.752   5.147   6.582 -1.3453  2.1273  1.2212
   11SAPS  H20T 1414   2.652   5.266   6.504  0.3560  0.5886  3.7415
   11SAPS   C33 1415   2.033   5.034   5.053  0.0235  0.1557 -0.0263
   11SAPS   H3X 1416   2.045   5.094   4.960  0.1922  0.0919 -0.0443
   11SAPS   H3Y 1417   2.128   5.032   5.110  0.5360 -3.6562 -0.7858
   11SAPS   C34 1418   1.907   5.100   5.131  0.4184  0.0638 -1.2314
   11SAPS   H4X 1419   1.816   5.090   5.067 -0.9378  0.1800  0.5764
   11SAPS   H4Y 1420   1.932   5.208   5.135  1.6288 -0.1483 -2.4232
   11SAPS   C35 1421   1.865   5.033   5.263 -0.1998 -0.0366 -0.8348
   11SAPS   H5X 1422   1.945   5.045   5.340 -0.8232 -1.7043  0.1255
   11SAPS   H5Y 1423   1.866   4.923   5.249  0.8259 -0.1959  0.2788
   11SAPS   C36 1424   1.732   5.085   5.308  0.2385  0.1766 -0.0621
   11SAPS   H6X 1425   1.659   5.057   5.229  0.6799  1.9242 -1.1556
   11SAPS   H6Y 1426   1.734   5.196   5.313  0.3439  0.2334 -1.0985
   11SAPS   C37 1427   1.675   5.024   5.435 -0.9207 -0.5509  0.0493
   11SAPS   H7X 1428   1.732   4.932   5.459  0.4668  1.2176  4.6586
   11SAPS   H7Y 1429   1.569   5.003   5.409 -0.1543 -2.2754 -1.8758
   11SAPS   C38 1430   1.698   5.116   5.563  0.2053 -0.3807  0.2475
   11SAPS   H8X 1431   1.679   5.223   5.537 -0.1598 -0.2001  1.2165
   11SAPS   H8Y 1432   1.797   5.128   5.611 -0.4791  1.7208  1.2666
   11SAPS   C39 1433   1.589   5.085   5.672 -0.5744 -0.2315  0.2761
   11SAPS   H9X 1434   1.492   5.064   5.621  0.2956 -0.2957 -1.4401
   11SAPS   H9Y 1435   1.571   5.179   5.727 -0.1069  0.3647 -0.5664
   11SAPS  C310 1436   1.628   4.966   5.755 -0.2724  0.2207  0.2179
   11SAPS  H10X 1437   1.725   4.989   5.804 -0.4875  0.9918  0.3060
   11SAPS  H10Y 1438   1.645   4.876   5.692  1.8744 -0.7438  2.0414
   11SAPS  C311 1439   1.533   4.922   5.861  0.3788 -0.2227  0.0629
   11SAPS  H11X 1440   1.575   4.825   5.892 -2.0591 -2.1825 -2.2678
   11SAPS  H11Y 1441   1.434   4.907   5.813 -0.2597  0.4649  1.1322
   11SAPS  C312 1442   1.538   5.011   5.989  0.8264  0.8051 -0.1955
   11SAPS  H12X 1443   1.451   4.993   6.056 -1.0400  2.8366 -1.9186
   11SAPS  H12Y 1444   1.524   5.117   5.957 -1.3615  0.0032 -2.1680
   11SAPS  C313 1445   1.665   5.011   6.076 -1.6187  0.1980 -0.3171
   11SAPS  H13X 1446   1.756   5.020   6.012  0.1767 -3.8787  1.2969
   11SAPS  H13Y 1447   1.674   4.907   6.113  2.7704  0.5987  0.3619
   11SAPS  C314 1448   1.653   5.104   6.196 -0.3673 -0.4388  0.5681
   11SAPS  H14X 1449   1.551   5.092   6.238  0.5348 -1.4823  2.6048
   11SAPS  H14Y 1450   1.661   5.210   6.163 -0.4403 -1.1101 -1.7991
   11SAPS  C315 1451   1.761   5.060   6.298 -0.5758  0.3408 -0.4540
   11SAPS  H15X 1452   1.855   5.026   6.248  0.8220  0.5740  1.8930
   11SAPS  H15Y 1453   1.722   4.974   6.355  1.2654  0.0646  0.4755
   11SAPS  C316 1454   1.791   5.176   6.386  0.1929  0.4127 -1.1987
   11SAPS  H16X 1455   1.814   5.270   6.331  0.8760  1.3064  0.5314
   11SAPS  H16Y 1456   1.890   5.172   6.437 -1.7869 -0.7783  2.9877
   11SAPS  C317 1457   1.687   5.213   6.490 -0.4242 -0.3995 -1.1699
   11SAPS  H17X 1458   1.646   5.121   6.537 -0.8317  0.4515  0.2112
   11SAPS  H17Y 1459   1.613   5.285   6.450 -2.0398 -0.0177  2.1573
   11SAPS  C318 1460   1.744   5.286   6.615 -0.1386  0.0130 -0.3116
   11SAPS  H18X 1461   1.817   5.223   6.671  0.5810  0.7111 -0.4551
   11SAPS  H18Y 1462   1.664   5.295   6.692 -0.7100 -0.3172 -0.8594
   11SAPS  H18Z 1463   1.798   5.378   6.585  0.7275  0.7071  2.9750
   12SAPS     N 1464   1.292   2.805   4.218 -0.0460 -0.4545 -0.2555
   12SAPS   HN1 1465   1.190   2.791   4.208 -0.0299 -2.1930  1.4111
   12SAPS   HN2 1466   1.316   2.867   4.298  1.0593 -0.1688 -0.7866
   12SAPS   HN3 1467   1.334   2.846   4.131 -2.0044  0.9769 -0.5813
   12SAPS   C12 1468   1.370   2.681   4.239  0.4441  0.0491 -0.0394
   12SAPS  H12A 1469   1.404   2.689   4.341  1.4006 -0.7257 -0.2792
   12SAPS   C13 1470   1.293   2.551   4.210 -0.0970  0.5383 -0.2502
   12SAPS  O13A 1471   1.171   2.561   4.167 -0.0391 -0.1821 -0.5901
   12SAPS  O13B 1472   1.351   2.441   4.190  0.3522 -0.2129 -0.4509
   12SAPS   C11 1473   1.498   2.687   4.145 -0.5360  0.2404 -0.9081
   12SAPS  H11A 1474   1.478   2.697   4.036  1.5768 -1.3873 -1.5232
   12SAPS  H11B 1475   1.546   2.588   4.161  1.3709  1.1444 -0.7346
   12SAPS     P 1476   1.718   2.831   4.112  0.3053 -0.2424 -0.0728
   12SAPS   O13 1477   1.765   2.703   4.065 -0.3875  0.3798 -0.1668
   12SAPS   O14 1478   1.710   2.941   4.018 -0.0635 -0.4363  0.7824
   12SAPS   O12 1479   1.580   2.811   4.184 -0.5416 -0.0021  0.4127
   12SAPS   O11 1480   1.814   2.879   4.230 -0.0373  0.2311 -0.3242
   12SAPS    C1 1481   1.789   2.822   4.361  0.8098  0.3475 -0.7337
   12SAPS    HA 1482   1.748   2.719   4.354  0.5393  0.3629  0.4301
   12SAPS    HB 1483   1.882   2.833   4.421 -1.5243 -0.0740  3.3480
   12SAPS    C2 1484   1.692   2.912   4.438 -0.1230  0.2999  0.0073
   12SAPS    HS 1485   1.622   2.960   4.366  1.9663  1.7415 -1.1502
   12SAPS   O21 1486   1.763   3.013   4.515 -0.2224  0.2695 -0.2372
   12SAPS   C21 1487   1.708   3.136   4.510  0.6097  0.6815 -0.0722
   12SAPS   O22 1488   1.604   3.160   4.457 -0.7552  0.2079 -0.5731
   12SAPS   C22 1489   1.783   3.235   4.601 -0.9569 -0.5080 -0.3892
   12SAPS   H2R 1490   1.889   3.213   4.579 -1.7072 -1.6469 -3.2767
   12SAPS   H2S 1491   1.758   3.336   4.562  1.5177  1.5930  2.9221
   12SAPS    C3 1492   1.607   2.827   4.545 -0.1642 -0.4447  0.2439
   12SAPS    HX 1493   1.683   2.773   4.605  0.9487  0.9756  0.1666
   12SAPS    HY 1494   1.559   2.748   4.482  0.5327  0.7107 -1.8521
   12SAPS   O31 1495   1.525   2.900   4.633 -0.1324  0.3307  0.1983
   12SAPS   C31 1496   1.419   2.952   4.572 -0.2691 -0.2662 -0.2911
   12SAPS   O32 1497   1.377   2.917   4.461 -0.1660 -0.1854  0.3647
   12SAPS   C32 1498   1.349   3.051   4.666 -0.8383  0.7188  0.7080
   12SAPS   H2X 1499   1.241   3.035   4.644 -0.2516 -0.2682 -1.6763
   12SAPS   H2Y 1500   1.366   3.153   4.625  0.9800 -0.2209 -1.0118
   12SAPS   C23 1501   1.746   3.227   4.751  0.2573 -0.1873 -0.2393
   12SAPS   H3R 1502   1.635   3.237   4.756  0.2232  0.2333 -1.4694
   12SAPS   H3S 1503   1.802   3.315   4.790 -0.2330  1.2461 -2.6199
   12SAPS   C24 1504   1.770   3.093   4.824 -0.8850 -0.8412 -0.5701
   12SAPS   H4R 1505   1.697   3.018   4.789 -0.0561 -1.6633 -0.5845
   12SAPS   H4S 1506   1.753   3.100   4.934 -1.3260  0.4445 -0.7050
   12SAPS   C25 1507   1.916   3.054   4.801  0.0887  0.2009  0.3048
   12SAPS   H5R 1508   1.921   3.004   4.703 -2.2258 -0.8636  0.6708
   12SAPS   C26 1509   2.027   3.109   4.860 -0.3505  0.1421 -0.2092
   12SAPS   H6R 1510   2.126   3.074   4.828  0.1823  0.6131  0.8634
   12SAPS   C27 1511   2.031   3.186   4.993 -0.6911  0.0044  0.2829
   12SAPS   H7R 1512   1.929   3.173   5.036 -1.5036 -1.3741 -1.9267
   12SAPS   H7S 1513   2.044   3.296   4.985 -2.8091  0.4024  1.5432
   12SAPS   C28 1514   2.133   3.117   5.092  0.1995  0.1836  0.8159
   12SAPS   H8R 1515   2.241   3.123   5.075  0.4869  1.0072  2.6144
   12SAPS   C29 1516   2.110   3.001   5.153 -0.3767  0.5545  0.2969
   12SAPS   H9R 1517   2.188   2.959   5.219  0.0987 -0.6595 -0.9919
   12SAPS  C210 1518   1.976   2.934   5.173 -0.5814 -0.6267 -0.2738
   12SAPS  H10R 1519   1.970   2.827   5.145 -0.5621 -0.8742  0.6494
   12SAPS  H10S 1520   1.892   2.983   5.119 -1.0805  0.6395  1.5564
   12SAPS  C211 1521   1.947   2.948   5.324  0.1304  0.2720 -0.5527
   12SAPS  H11R 1522   1.945   3.050   5.365 -0.5676  0.3285 -0.7121
   12SAPS  C212 1523   1.899   2.849   5.400  0.5025  0.6890  0.4696
   12SAPS  H12R 1524   1.877   2.876   5.504  0.9906  0.0040  0.7631
   12SAPS  C213 1525   1.871   2.704   5.367 -0.4449  0.2502 -0.2442
   12SAPS  H13R 1526   1.928   2.674   5.276  0.7419  0.8031  0.3020
   12SAPS  H13S 1527   1.765   2.681   5.346 -0.3694 -0.5060  0.1526
   12SAPS  C214 1528   1.923   2.626   5.477  0.6096 -0.7183 -0.9156
   12SAPS  H14R 1529   1.840   2.582   5.535  0.5633  4.2190  3.4479
   12SAPS  C215 1530   2.050   2.588   5.501  0.2712  0.5108 -0.2302
   12SAPS  H15R 1531   2.057   2.533   5.596 -1.6759 -0.7611 -0.7659
   12SAPS  C216 1532   2.178   2.634   5.429 -0.2893 -0.2462 -0.6417
   12SAPS  H16R 1533   2.150   2.692   5.339 -1.6956  1.3474  0.7478
   12SAPS  H16S 1534   2.229   2.542   5.394 -1.0618 -1.5956  1.5194
   12SAPS  C217 1535   2.274   2.725   5.507  0.3233  0.8374 -0.7070
   12SAPS  H17R 1536   2.314   2.663   5.590  2.8963  1.8345 -1.1236
   12SAPS  H17S 1537   2.212   2.810   5.545  1.2717  1.3745 -0.3351
   12SAPS  C218 1538   2.390   2.782   5.421 -0.4270 -0.2170  0.0861
   12SAPS  H18R 1539   2.346   2.845   5.341 -1.3064 -0.6245  0.2377
   12SAPS  H18S 1540   2.436   2.695   5.369  0.2830  1.1518 -1.6722
   12SAPS  C219 1541   2.494   2.851   5.499 -0.1859 -0.0356  0.3459
   12SAPS  H19R 1542   2.448   2.931   5.560 -0.3013  1.5058 -1.6613
   12SAPS  H19S 1543   2.555   2.904   5.424 -1.2847  1.4860  0.4779
   12SAPS  C220 1544   2.585   2.748   5.574  0.7733  0.1584 -0.4835
   12SAPS  H20R 1545   2.651   2.796   5.649 -0.3757 -1.1442  1.4765
   12SAPS  H20S 1546   2.648   2.697   5.498  0.1219  1.0090 -1.6299
   12SAPS  H20T 1547   2.526   2.674   5.632  1.0191  0.2926 -0.0629
   12SAPS   C33 1548   1.366   3.036   4.820 -0.1116 -0.3115  0.0203
   12SAPS   H3X 1549   1.474   3.024   4.843 -0.4604  1.0115  2.7816
   12SAPS   H3Y 1550   1.322   2.941   4.856  0.2887 -2.6707 -4.9642
   12SAPS   C34 1551   1.299   3.153   4.896  0.1172  0.1486 -0.5087
   12SAPS   H4X 1552   1.193   3.169   4.868 -0.3357  0.0893  1.0737
   12SAPS   H4Y 1553   1.340   3.253   4.873  0.5018  1.1040  3.5384
   12SAPS   C35 1554   1.299   3.122   5.047  0.0496  0.6759  1.2021
   12SAPS   H5X 1555   1.407   3.111   5.072  0.1842 -2.0034 -0.2279
   12SAPS   H5Y 1556   1.253   3.026   5.080 -3.2501  0.3782 -3.2543
   12SAPS   C36 1557   1.245   3.234   5.132 -0.2686 -0.0765 -0.0299
   12SAPS   H6X 1558   1.138   3.259   5.116 -0.1885  1.2314  1.2293
   12SAPS   H6Y 1559   1.314   3.320   5.117 -1.2947  0.5549 -1.3224
   12SAPS   C37 1560   1.264   3.198   5.278 -0.5696  0.2115  0.0436
   12SAPS   H7X 1561   1.366   3.156   5.289 -0.2475  1.0725  0.4086
   12SAPS   H7Y 1562   1.186   3.124   5.309 -2.2727  1.2213 -1.5747
   12SAPS   C38 1563   1.250   3.313   5.380 -0.5066 -0.1172 -0.3520
   12SAPS   H8X 1564   1.156   3.369   5.359 -1.9891 -0.8503  3.4846
   12SAPS   H8Y 1565   1.333   3.387   5.373 -1.8223  1.4295 -0.1258
   12SAPS   C39 1566   1.266   3.254   5.523  0.4738  0.4458 -0.4612
   12SAPS   H9X 1567   1.353   3.186   5.534 -0.0461  0.0279  1.5322
   12SAPS   H9Y 1568   1.170   3.201   5.539  0.9445 -0.4359 -0.5025
   12SAPS  C310 1569   1.280   3.370   5.631 -0.1252  0.7333  0.2779
   12SAPS  H10X 1570   1.190   3.436   5.628  0.6865  2.0201  2.0888
   12SAPS  H10Y 1571   1.370   3.432   5.611  0.6194 -1.3995 -3.9031
   12SAPS  C311 1572   1.293   3.315   5.772  0.1369  0.6163 -0.6225
   12SAPS  H11X 1573   1.370   3.235   5.765 -0.1145  0.4372 -1.5147
   12SAPS  H11Y 1574   1.199   3.265   5.804  0.0946  1.3684  0.4543
   12SAPS  C312 1575   1.316   3.413   5.882 -0.3325 -0.2270  0.2588
   12SAPS  H12X 1576   1.237   3.491   5.876 -1.9898 -1.7726  1.3080
   12SAPS  H12Y 1577   1.420   3.453   5.876 -0.2043 -0.2701  1.8506
   12SAPS  C313 1578   1.321   3.355   6.024 -0.1469 -0.3328 -0.2265
   12SAPS  H13X 1579   1.408   3.287   6.017  0.2767  0.2718 -1.1093
   12SAPS  H13Y 1580   1.226   3.300   6.039  0.5465 -2.3342 -2.4684
   12SAPS  C314 1581   1.360   3.452   6.139  0.3620  0.9874 -0.4478
   12SAPS  H14X 1582   1.296   3.541   6.120 -0.1035  0.7297 -0.1040
   12SAPS  H14Y 1583   1.469   3.467   6.122  0.8852 -1.4139  0.4085
   12SAPS  C315 1584   1.337   3.390   6.278 -0.3496  0.5461 -0.2055
   12SAPS  H15X 1585   1.263   3.307   6.276  2.2351 -1.9481 -3.0059
   12SAPS  H15Y 1586   1.306   3.464   6.355  1.4888  0.3915  0.7446
   12SAPS  C316 1587   1.474   3.318   6.313  0.6485 -0.0939 -0.0539
   12SAPS  H16X 1588   1.545   3.393   6.354  1.1635 -1.8929  2.6181
   12SAPS  H16Y 1589   1.501   3.266   6.219 -1.3331  0.9645 -1.2807
   12SAPS  C317 1590   1.447   3.205   6.414 -0.0575  0.2624 -0.0494
   12SAPS  H17X 1591   1.402   3.117   6.364 -1.0029  0.8684 -0.2847
   12SAPS  H17Y 1592   1.382   3.241   6.497  0.8806 -0.8389  1.2020
   12SAPS  C318 1593   1.586   3.162   6.468 -0.4978 -0.8008 -0.1443
   12SAPS  H18X 1594   1.582   3.081   6.545 -0.2102 -2.6432 -1.9828
   12SAPS  H18Y 1595   1.630   3.241   6.532  1.3291 -1.7752 -0.1124
   12SAPS  H18Z 1596   1.655   3.132   6.386 -0.3960  1.6928 -1.0544
   13SAPS     N 1597   2.320   1.091   3.608 -0.1553  0.5352  0.3987
   13SAPS   HN1 1598   2.386   1.127   3.537 -0.7748  0.1030 -0.4043
   13SAPS   HN2 1599   2.374   1.019   3.661  0.4036  0.9468  0.3968
   13SAPS   HN3 1600   2.235   1.059   3.559 -1.9344  2.4782  2.0359
   13SAPS   C12 1601   2.271   1.192   3.703 -0.4449 -0.0792  0.6191
   13SAPS  H12A 1602   2.361   1.207   3.762 -0.7168 -1.1495  1.3389
   13SAPS   C13 1603   2.230   1.322   3.639 -0.0056 -0.3976  0.0328
   13SAPS  O13A 1604   2.219   1.342   3.519  0.0583  0.1381 -0.1030
   13SAPS  O13B 1605   2.182   1.410   3.715  0.6414  0.0679  0.4687
   13SAPS   C11 1606   2.162   1.126   3.790 -0.0924 -0.0315  0.0743
   13SAPS  H11A 1607   2.077   1.120   3.718 -1.9011 -0.5029  2.1246
   13SAPS  H11B 1608   2.139   1.199   3.871  0.6003  0.3227 -0.0395
   13SAPS     P 1609   2.133   0.925   3.952 -0.5021  0.2374  0.0070
   13SAPS   O13 1610   1.986   0.916   3.934  0.1246  0.0159  0.5925
   13SAPS   O14 1611   2.199   0.797   3.976 -0.4763 -0.5700 -0.6222
   13SAPS   O12 1612   2.210   0.996   3.843 -0.0163 -0.9518  0.9185
   13SAPS   O11 1613   2.162   1.019   4.077 -0.9809 -0.5700  0.1986
   13SAPS    C1 1614   2.287   1.097   4.085  0.2724  0.4492 -0.0480
   13SAPS    HA 1615   2.375   1.030   4.069  1.0132  1.2861  0.4172
   13SAPS    HB 1616   2.301   1.180   4.013  0.6304  2.1211  1.8628
   13SAPS    C2 1617   2.312   1.144   4.230  0.3252 -0.1362  0.6004
   13SAPS    HS 1618   2.417   1.171   4.255  0.1936  0.9990  0.0173
   13SAPS   O21 1619   2.279   1.039   4.322  0.0462 -0.1065 -0.1950
   13SAPS   C21 1620   2.370   0.947   4.338 -0.1592 -0.0885 -0.0287
   13SAPS   O22 1621   2.467   0.940   4.267 -0.1734  0.3212 -0.2336
   13SAPS   C22 1622   2.312   0.840   4.433 -0.2502  0.1276 -0.8353
   13SAPS   H2R 1623   2.256   0.772   4.365  2.2054 -2.0259 -0.8563
   13SAPS   H2S 1624   2.401   0.782   4.465 -2.6383 -3.1724  0.3542
   13SAPS    C3 1625   2.229   1.281   4.254 -0.2209  0.2119  0.6262
   13SAPS    HX 1626   2.123   1.257   4.230 -0.4116  2.6655 -1.3596
   13SAPS    HY 1627   2.260   1.352   4.175 -1.1750  0.2963  0.3110
   13SAPS   O31 1628   2.255   1.345   4.382 -0.2599 -0.1326  0.0923
   13SAPS   C31 1629   2.177   1.296   4.483  0.0785 -0.3266  0.1766
   13SAPS   O32 1630   2.091   1.212   4.469 -0.0184 -0.6184  0.4023
   13SAPS   C32 1631   2.223   1.356   4.611 -0.0709 -0.0433 -1.0543
   13SAPS   H2X 1632   2.190   1.462   4.607  1.8372  0.6511 -0.0593
   13SAPS   H2Y 1633   2.334   1.346   4.610  0.0954  1.0966  0.9433
   13SAPS   C23 1634   2.232   0.889   4.558  0.8191  0.3415 -0.4494
   13SAPS   H3R 1635   2.138   0.934   4.519  0.0537 -0.5520  0.3090
   13SAPS   H3S 1636   2.296   0.967   4.606  1.2932 -0.8510  0.9135
   13SAPS   C24 1637   2.193   0.780   4.659 -0.2209 -0.3574  0.2617
   13SAPS   H4R 1638   2.162   0.833   4.752  0.0460  0.0698  0.1071
   13SAPS   H4S 1639   2.288   0.726   4.681  0.8088  0.2884 -2.2676
   13SAPS   C25 1640   2.093   0.675   4.600 -0.3522  0.5069 -0.3359
   13SAPS   H5R 1641   2.144   0.586   4.559 -1.7265 -0.1477 -0.6970
   13SAPS   C26 1642   1.959   0.687   4.609 -0.2796 -0.0527  0.6570
   13SAPS   H6R 1643   1.889   0.614   4.566 -3.8310  3.0893  0.6146
   13SAPS   C27 1644   1.879   0.798   4.675  0.5244 -0.6580  0.4014
   13SAPS   H7R 1645   1.903   0.901   4.640 -2.3492 -0.6252 -1.8829
   13SAPS   H7S 1646   1.896   0.809   4.785 -0.0824  1.3440  0.3445
   13SAPS   C28 1647   1.726   0.791   4.656 -0.2622  0.3237 -0.6998
   13SAPS   H8R 1648   1.692   0.723   4.577 -1.4814  1.6253 -1.3255
   13SAPS   C29 1649   1.631   0.847   4.725 -0.0077  0.1233 -0.1650
   13SAPS   H9R 1650   1.528   0.831   4.691  1.0143 -0.6175 -3.2716
   13SAPS  C210 1651   1.652   0.947   4.835  0.0424  0.6943 -0.5450
   13SAPS  H10R 1652   1.559   1.005   4.856 -1.0647 -0.7965 -1.1052
   13SAPS  H10S 1653   1.722   1.021   4.791  2.1419 -1.8513 -1.7267
   13SAPS  C211 1654   1.712   0.892   4.967  0.0334  0.5454  0.9655
   13SAPS  H11R 1655   1.821   0.880   4.957 -0.1192  0.6845 -1.2313
   13SAPS  C212 1656   1.645   0.875   5.080  0.9591 -0.0948 -0.8527
   13SAPS  H12R 1657   1.702   0.851   5.171 -1.9736  1.4099  1.5790
   13SAPS  C213 1658   1.497   0.900   5.101 -0.1074 -0.5362 -0.4034
   13SAPS  H13R 1659   1.452   0.987   5.050 -0.7450  0.5225  1.8223
   13SAPS  H13S 1660   1.483   0.921   5.209 -2.1536 -0.3979 -0.6642
   13SAPS  C214 1661   1.427   0.770   5.081 -0.5312  0.2046 -0.0880
   13SAPS  H14R 1662   1.405   0.742   4.977 -0.0674 -1.5865  0.2628
   13SAPS  C215 1663   1.390   0.688   5.173  0.0726  0.1558 -0.5109
   13SAPS  H15R 1664   1.335   0.601   5.134  0.5083 -0.1145 -0.5279
   13SAPS  C216 1665   1.400   0.696   5.322 -0.2476  0.1799  0.3071
   13SAPS  H16R 1666   1.499   0.737   5.353 -1.6271  4.0506  0.1793
   13SAPS  H16S 1667   1.389   0.593   5.363  0.9572 -0.3200 -0.5736
   13SAPS  C217 1668   1.293   0.776   5.394  0.3612  0.1287  0.0489
   13SAPS  H17R 1669   1.196   0.724   5.412  0.0773  0.1242 -1.3704
   13SAPS  H17S 1670   1.274   0.866   5.332 -1.0110 -0.9066 -1.1198
   13SAPS  C218 1671   1.345   0.825   5.527 -0.7642  0.8125  0.0056
   13SAPS  H18R 1672   1.277   0.911   5.545 -1.6018  0.2188 -0.2595
   13SAPS  H18S 1673   1.452   0.855   5.516  0.0104 -1.7985 -0.1812
   13SAPS  C219 1674   1.326   0.722   5.634 -0.4513  0.3388 -0.4190
   13SAPS  H19R 1675   1.399   0.638   5.623 -0.9626  0.0117 -1.4200
   13SAPS  H19S 1676   1.221   0.685   5.630  0.5972 -3.0698  0.2107
   13SAPS  C220 1677   1.355   0.773   5.776  0.3389  0.3500  0.2603
   13SAPS  H20R 1678   1.337   0.704   5.861  0.3904  1.6557  1.3782
   13SAPS  H20S 1679   1.279   0.853   5.795 -1.2620 -0.9488 -0.4443
   13SAPS  H20T 1680   1.453   0.821   5.800  0.7215  0.6383 -1.7526
   13SAPS   C33 1681   2.147   1.278   4.722 -0.2671 -0.4150  0.2504
   13SAPS   H3X 1682   2.143   1.168   4.708  1.2268 -0.1233 -3.5785
   13SAPS   H3Y 1683   2.040   1.309   4.710 -0.2999 -0.7991 -0.4750
   13SAPS   C34 1684   2.205   1.304   4.858  0.0902  0.0615  0.4648
   13SAPS   H4X 1685   2.223   1.414   4.857 -0.5587  0.1708  0.2168
   13SAPS   H4Y 1686   2.304   1.255   4.861 -0.9771 -2.1684  1.7526
   13SAPS   C35 1687   2.124   1.269   4.982  0.5191  0.7058  0.1552
   13SAPS   H5X 1688   2.035   1.336   4.984 -0.8475 -0.9595  3.0396
   13SAPS   H5Y 1689   2.168   1.298   5.080 -3.8077  1.9465  1.9762
   13SAPS   C36 1690   2.073   1.122   4.994 -0.4982  0.0611 -0.1264
   13SAPS   H6X 1691   2.161   1.058   5.016 -0.4421 -0.8915 -2.7555
   13SAPS   H6Y 1692   2.041   1.085   4.894  0.5866  0.4926 -0.6521
   13SAPS   C37 1693   1.974   1.084   5.104  0.1940 -0.4558  0.4498
   13SAPS   H7X 1694   1.953   0.975   5.097 -1.0047 -0.2340  0.4226
   13SAPS   H7Y 1695   1.877   1.131   5.080  1.4228  2.2820  0.4608
   13SAPS   C38 1696   2.020   1.131   5.244  0.6149  0.3241  0.0630
   13SAPS   H8X 1697   2.004   1.240   5.258  1.0449  0.5725 -1.1767
   13SAPS   H8Y 1698   2.130   1.115   5.249  0.8176  1.6626  0.1947
   13SAPS   C39 1699   1.952   1.048   5.354 -0.0585 -0.2704  0.3153
   13SAPS   H9X 1700   1.992   1.079   5.453 -3.0730  1.0716  1.2257
   13SAPS   H9Y 1701   1.974   0.940   5.345  0.5350 -0.1884  0.7259
   13SAPS  C310 1702   1.806   1.080   5.370 -0.3310 -0.5862 -0.0847
   13SAPS  H10X 1703   1.760   1.036   5.279  0.7253  1.2742 -1.5951
   13SAPS  H10Y 1704   1.784   1.188   5.365  0.3562 -0.4760 -1.0092
   13SAPS  C311 1705   1.732   1.030   5.497  0.5118  0.2773  0.4372
   13SAPS  H11X 1706   1.780   0.933   5.523 -0.4432 -0.1762  0.5513
   13SAPS  H11Y 1707   1.626   1.012   5.471  0.7980 -2.4889  0.7789
   13SAPS  C312 1708   1.749   1.102   5.637  0.3021  0.2141  0.6381
   13SAPS  H12X 1709   1.712   1.206   5.633 -0.7176 -0.1476  0.1734
   13SAPS  H12Y 1710   1.855   1.115   5.668  0.6632  1.7252 -1.0809
   13SAPS  C313 1711   1.688   1.030   5.755 -0.1862  0.0485  0.2083
   13SAPS  H13X 1712   1.726   0.926   5.746 -0.8135 -0.2746  1.2183
   13SAPS  H13Y 1713   1.578   1.014   5.746 -0.0176 -3.6563  2.5513
   13SAPS  C314 1714   1.735   1.094   5.885 -0.0620  0.5631  0.0590
   13SAPS  H14X 1715   1.652   1.166   5.902 -2.6554 -2.1756 -0.0619
   13SAPS  H14Y 1716   1.833   1.147   5.883 -1.0067  2.3776 -0.1279
   13SAPS  C315 1717   1.728   0.992   5.997  0.7315  0.0759 -0.3808
   13SAPS  H15X 1718   1.814   0.923   5.987  0.6434  0.0041 -0.6488
   13SAPS  H15Y 1719   1.639   0.928   5.978  2.8642 -3.0231 -0.7225
   13SAPS  C316 1720   1.730   1.043   6.139 -0.1383 -0.5946 -0.0619
   13SAPS  H16X 1721   1.696   0.958   6.202 -0.2139 -1.5817 -1.3825
   13SAPS  H16Y 1722   1.646   1.115   6.151 -1.1854 -1.1545 -3.0548
   13SAPS  C317 1723   1.874   1.094   6.183  0.1385  0.0618  0.5981
   13SAPS  H17X 1724   1.903   1.165   6.102  2.2873  1.9129  2.8360
   13SAPS  H17Y 1725   1.942   1.006   6.176 -0.0880 -0.0326 -0.8374
   13SAPS  C318 1726   1.869   1.162   6.313  0.4921  0.4491  0.2203
   13SAPS  H18X 1727   1.968   1.208   6.330  0.8741 -0.6263  0.9729
   13SAPS  H18Y 1728   1.855   1.084   6.391 -1.6100  0.3142 -0.2340
   13SAPS  H18Z 1729   1.779   1.227   6.310 -1.1378 -1.7210 -1.3093
   14SAPS     N 1730   2.126   2.391   4.270 -0.5811 -0.4558  0.4216
   14SAPS   HN1 1731   2.025   2.370   4.257 -0.5547  0.2496 -1.0815
   14SAPS   HN2 1732   2.187   2.315   4.234 -0.6986  0.0483 -0.8866
   14SAPS   HN3 1733   2.149   2.406   4.371 -0.6667  1.1790  0.2310
   14SAPS   C12 1734   2.161   2.519   4.204  0.3091  0.6075  0.5947
   14SAPS  H12A 1735   2.267   2.541   4.216  1.1854 -2.8064  0.2907
   14SAPS   C13 1736   2.147   2.527   4.052 -0.3820  0.0393  0.4019
   14SAPS  O13A 1737   2.124   2.430   3.983  0.2418 -0.1860  0.1933
   14SAPS  O13B 1738   2.168   2.639   3.990  0.2228  0.0439  0.0391
   14SAPS   C11 1739   2.085   2.651   4.256  0.7345  0.0411  1.0836
   14SAPS  H11A 1740   1.978   2.629   4.237  0.7387 -0.1009  1.2270
   14SAPS  H11B 1741   2.113   2.745   4.202  2.0005 -0.8239  0.1545
   14SAPS     P 1742   2.225   2.719   4.464 -0.0522  0.2007  0.1386
   14SAPS   O13 1743   2.329   2.619   4.441 -0.5255 -0.2819  0.2764
   14SAPS   O14 1744   2.260   2.858   4.437 -0.2704  0.0557  0.0368
   14SAPS   O12 1745   2.091   2.675   4.389  0.3388 -0.2468  0.5260
   14SAPS   O11 1746   2.188   2.700   4.616  1.0649 -0.2449  0.4604
   14SAPS    C1 1747   2.105   2.793   4.687  0.1771 -0.0396  0.7773
   14SAPS    HA 1748   2.157   2.891   4.694  0.2289  0.0075 -0.1438
   14SAPS    HB 1749   2.013   2.817   4.630  0.8586 -2.4744 -1.5941
   14SAPS    C2 1750   2.080   2.741   4.831  0.5597  0.1546 -0.4516
   14SAPS    HS 1751   2.035   2.821   4.893 -1.7155 -1.1733 -0.2945
   14SAPS   O21 1752   2.199   2.692   4.898  0.0816  0.2172  0.2094
   14SAPS   C21 1753   2.311   2.779   4.903 -0.3393  0.4113 -0.4175
   14SAPS   O22 1754   2.309   2.895   4.878 -0.5944 -1.5633 -0.4582
   14SAPS   C22 1755   2.419   2.705   4.979 -0.5859  0.0269 -0.1834
   14SAPS   H2R 1756   2.388   2.699   5.086  0.3460  1.3683  0.1824
   14SAPS   H2S 1757   2.418   2.598   4.948 -1.9173 -0.3745  1.1232
   14SAPS    C3 1758   1.982   2.619   4.827 -0.1587 -0.0396 -0.2563
   14SAPS    HX 1759   2.010   2.550   4.745  0.7189  0.1733 -0.1462
   14SAPS    HY 1760   1.878   2.651   4.806 -0.5358  0.4101  1.9591
   14SAPS   O31 1761   1.976   2.549   4.955  0.9766 -0.2021 -0.8039
   14SAPS   C31 1762   2.048   2.439   4.969  0.0403 -0.2336  0.1497
   14SAPS   O32 1763   2.107   2.383   4.875 -0.3839 -0.1209 -0.3870
   14SAPS   C32 1764   2.047   2.386   5.112  0.9123  0.5834 -0.0237
   14SAPS   H2X 1765   2.018   2.469   5.180 -2.1512 -0.7384  0.4856
   14SAPS   H2Y 1766   2.150   2.355   5.138  0.9652  0.3571 -0.4953
   14SAPS   C23 1767   2.552   2.778   4.985  0.2511 -0.6396  0.5243
   14SAPS   H3R 1768   2.529   2.880   5.023  2.1125  0.0140  0.0055
   14SAPS   H3S 1769   2.601   2.792   4.887  1.9213  0.3443  1.4463
   14SAPS   C24 1770   2.640   2.712   5.089  0.0714 -0.1246 -0.2433
   14SAPS   H4R 1771   2.581   2.713   5.183 -0.8629 -2.4015 -0.7447
   14SAPS   H4S 1772   2.729   2.774   5.111 -0.3354  0.1895  0.5386
   14SAPS   C25 1773   2.682   2.569   5.052 -0.2140  0.2787  0.3013
   14SAPS   H5R 1774   2.727   2.560   4.952  2.0071 -1.9854  1.3943
   14SAPS   C26 1775   2.679   2.461   5.130  0.9670 -0.0968 -0.6047
   14SAPS   H6R 1776   2.721   2.367   5.092 -0.1002 -0.3648 -1.1382
   14SAPS   C27 1777   2.643   2.455   5.275  0.4175 -0.2297  0.5379
   14SAPS   H7R 1778   2.678   2.542   5.334 -0.0269  0.0693  0.3627
   14SAPS   H7S 1779   2.710   2.378   5.319  0.5950  0.0366  0.7381
   14SAPS   C28 1780   2.499   2.414   5.294  0.7209  0.6868 -0.7513
   14SAPS   H8R 1781   2.436   2.412   5.204  0.4847  0.0525 -0.5798
   14SAPS   C29 1782   2.446   2.369   5.412 -1.1560  0.7935 -0.2526
   14SAPS   H9R 1783   2.343   2.331   5.409  0.0034 -3.0446  1.5937
   14SAPS  C210 1784   2.506   2.354   5.552 -0.1238 -0.1229  0.0253
   14SAPS  H10R 1785   2.435   2.392   5.629  0.3694 -0.6999  0.7786
   14SAPS  H10S 1786   2.587   2.430   5.549 -0.1134 -0.0282  1.7877
   14SAPS  C211 1787   2.574   2.229   5.587  0.2942  0.8192 -0.2511
   14SAPS  H11R 1788   2.606   2.171   5.499 -1.8369 -1.8930  0.6176
   14SAPS  C212 1789   2.582   2.158   5.703  0.2075  0.5754 -0.0179
   14SAPS  H12R 1790   2.642   2.066   5.702 -0.3101  0.2330 -0.3060
   14SAPS  C213 1791   2.518   2.204   5.837  0.0112 -0.7923  0.4624
   14SAPS  H13R 1792   2.503   2.109   5.893  0.8027 -1.8035 -0.9683
   14SAPS  H13S 1793   2.414   2.238   5.818  0.0520  1.0525  3.0216
   14SAPS  C214 1794   2.602   2.295   5.919  0.5446 -0.2797 -1.4885
   14SAPS  H14R 1795   2.710   2.276   5.920  1.1480  2.6202 -0.2308
   14SAPS  C215 1796   2.565   2.414   5.972  0.5665  0.9945 -0.4911
   14SAPS  H15R 1797   2.633   2.477   6.032  1.5785 -0.5880  0.1092
   14SAPS  C216 1798   2.440   2.487   5.959  0.2952  1.2395  0.4725
   14SAPS  H16R 1799   2.362   2.410   5.941  0.4564  1.0895  0.4200
   14SAPS  H16S 1800   2.448   2.561   5.876 -2.4475  1.7071  0.5216
   14SAPS  C217 1801   2.389   2.563   6.090  0.1053 -0.2647  0.9626
   14SAPS  H17R 1802   2.458   2.649   6.106  1.0343 -0.1997 -2.5219
   14SAPS  H17S 1803   2.396   2.494   6.176 -1.5781 -3.6927 -1.4051
   14SAPS  C218 1804   2.241   2.619   6.064  0.2011 -0.5460  0.3158
   14SAPS  H18R 1805   2.168   2.535   6.060  1.8280 -1.9685 -0.8135
   14SAPS  H18S 1806   2.246   2.667   5.964 -3.5674  1.4538  0.9111
   14SAPS  C219 1807   2.191   2.718   6.168 -0.3973  0.0782  0.0868
   14SAPS  H19R 1808   2.243   2.816   6.158  1.2387 -0.6690  0.9732
   14SAPS  H19S 1809   2.216   2.668   6.264  2.0845 -0.5108 -0.7953
   14SAPS  C220 1810   2.044   2.736   6.155 -0.1638  0.4014  0.3580
   14SAPS  H20R 1811   1.984   2.646   6.181  0.7180 -0.2456  0.1673
   14SAPS  H20S 1812   2.017   2.775   6.054 -0.2759 -2.2980 -0.7278
   14SAPS  H20T 1813   2.020   2.822   6.223 -0.3560 -1.2422  2.4711
   14SAPS   C33 1814   1.944   2.267   5.146 -0.1129 -0.6767 -0.6155
   14SAPS   H3X 1815   1.960   2.202   5.058 -0.7566 -1.8768  0.1309
   14SAPS   H3Y 1816   1.849   2.323   5.139  0.5730  0.6814  0.3403
   14SAPS   C34 1817   1.951   2.204   5.281 -0.0631  0.3094 -0.6584
   14SAPS   H4X 1818   1.861   2.139   5.282  0.1297  0.0432 -0.4594
   14SAPS   H4Y 1819   1.933   2.279   5.360  0.5582  1.1725 -1.3118
   14SAPS   C35 1820   2.090   2.139   5.315  0.1881 -0.2346 -0.0879
   14SAPS   H5X 1821   2.169   2.216   5.307 -1.5878  1.5002 -2.0992
   14SAPS   H5Y 1822   2.099   2.066   5.232 -0.9878 -0.0011 -0.4445
   14SAPS   C36 1823   2.085   2.065   5.451  0.0673  0.2000  0.2967
   14SAPS   H6X 1824   2.159   1.984   5.461 -1.5669 -1.4035 -0.0387
   14SAPS   H6Y 1825   1.988   2.014   5.467  0.7837 -0.8663  1.4075
   14SAPS   C37 1826   2.117   2.156   5.569 -0.5403 -0.0713 -0.1426
   14SAPS   H7X 1827   2.048   2.243   5.566  1.1119  1.2879  0.3027
   14SAPS   H7Y 1828   2.222   2.190   5.567 -0.3532 -0.4164  2.0490
   14SAPS   C38 1829   2.094   2.080   5.706 -0.8729 -0.4539 -0.3140
   14SAPS   H8X 1830   1.990   2.043   5.707 -0.9607 -0.6009 -3.7610
   14SAPS   H8Y 1831   2.100   2.153   5.790 -1.0697 -0.4374 -0.3139
   14SAPS   C39 1832   2.196   1.964   5.722  0.1910 -0.7226  0.3291
   14SAPS   H9X 1833   2.291   1.997   5.675  0.0349 -1.8127 -0.8128
   14SAPS   H9Y 1834   2.159   1.878   5.661 -0.0907 -1.0139  0.9037
   14SAPS  C310 1835   2.234   1.927   5.869 -0.9477 -0.0215 -0.1498
   14SAPS  H10X 1836   2.284   2.015   5.914  0.1508 -1.1429  0.9034
   14SAPS  H10Y 1837   2.301   1.838   5.859 -2.2532 -0.9220 -1.2890
   14SAPS  C311 1838   2.117   1.878   5.956 -0.2420  0.9115  0.1368
   14SAPS  H11X 1839   2.070   1.792   5.904 -1.1212  2.4250 -1.7049
   14SAPS  H11Y 1840   2.046   1.963   5.965  2.3522  2.9558  3.5067
   14SAPS  C312 1841   2.167   1.844   6.095 -0.1998 -0.2401 -0.3477
   14SAPS  H12X 1842   2.259   1.782   6.089  0.4083  0.4365  1.4021
   14SAPS  H12Y 1843   2.089   1.781   6.142 -1.7519  1.2414 -0.8634
   14SAPS  C313 1844   2.204   1.962   6.187  0.4925 -0.3654  0.5271
   14SAPS  H13X 1845   2.157   1.953   6.287  1.3169  0.0675  0.9620
   14SAPS  H13Y 1846   2.156   2.046   6.131  1.0740 -0.8825 -0.7849
   14SAPS  C314 1847   2.354   1.982   6.222 -0.1540 -0.0302  0.2195
   14SAPS  H14X 1848   2.415   1.946   6.136 -0.2260 -0.0493  0.1750
   14SAPS  H14Y 1849   2.380   1.911   6.303 -3.5855 -0.4845  1.0796
   14SAPS  C315 1850   2.391   2.117   6.275 -0.3941 -0.1710  0.1859
   14SAPS  H15X 1851   2.339   2.139   6.370  0.3282 -0.7515  0.7277
   14SAPS  H15Y 1852   2.354   2.203   6.214  0.1345  0.4304  0.6967
   14SAPS  C316 1853   2.545   2.132   6.285 -0.8391 -0.0966 -0.1489
   14SAPS  H16X 1854   2.591   2.103   6.188 -1.5756 -3.9728  0.4777
   14SAPS  H16Y 1855   2.575   2.058   6.362 -1.2434  0.3918  0.4844
   14SAPS  C317 1856   2.599   2.272   6.334 -0.1384 -0.6497  0.4396
   14SAPS  H17X 1857   2.562   2.291   6.437  2.0197 -1.2389  1.3934
   14SAPS  H17Y 1858   2.562   2.345   6.259 -0.7587  0.7313  2.0145
   14SAPS  C318 1859   2.752   2.281   6.324  0.1187 -0.3752 -0.5986
   14SAPS  H18X 1860   2.790   2.362   6.390 -1.5651 -0.9243  1.1568
   14SAPS  H18Y 1861   2.785   2.299   6.220 -3.1012 -0.2416 -1.6917
   14SAPS  H18Z 1862   2.808   2.191   6.359  2.0006  1.1839  0.6518
   15SAPS     N 1863   2.656   6.142   4.716 -0.3222 -0.1970  0.2085
   15SAPS   HN1 1864   2.734   6.181   4.659  1.0235 -2.5141  0.3443
   15SAPS   HN2 1865   2.593   6.212   4.759  0.1538  0.3274  0.0764
   15SAPS   HN3 1866   2.705   6.088   4.790 -0.0428 -0.6705 -0.3068
   15SAPS   C12 1867   2.573   6.050   4.625 -0.7820  1.0169 -0.4298
   15SAPS  H12A 1868   2.507   6.000   4.694  2.5902 -1.9223  1.0206
   15SAPS   C13 1869   2.487   6.134   4.528  0.2917 -0.1311  0.5521
   15SAPS  O13A 1870   2.499   6.258   4.532  0.4573  0.2251  0.1106
   15SAPS  O13B 1871   2.395   6.075   4.459 -0.2466 -0.2859  0.0509
   15SAPS   C11 1872   2.660   5.950   4.538 -0.5954  0.2037  0.8049
   15SAPS  H11A 1873   2.716   6.014   4.467 -1.3051 -0.5202 -0.4549
   15SAPS  H11B 1874   2.598   5.885   4.472 -1.5321  1.4843  0.3876
   15SAPS     P 1875   2.777   5.712   4.599  0.0119 -0.5653  0.3477
   15SAPS   O13 1876   2.783   5.669   4.459 -0.2719 -0.0000 -0.1877
   15SAPS   O14 1877   2.892   5.679   4.681  0.4995  0.0788 -0.2513
   15SAPS   O12 1878   2.761   5.878   4.613 -0.3972  0.0965 -0.0365
   15SAPS   O11 1879   2.648   5.652   4.664  0.4348 -0.2063  0.1959
   15SAPS    C1 1880   2.591   5.728   4.775 -0.5884  0.3624 -0.0343
   15SAPS    HA 1881   2.662   5.800   4.821  0.3015 -0.0145 -0.7760
   15SAPS    HB 1882   2.513   5.791   4.729  0.4947  1.0850 -0.9319
   15SAPS    C2 1883   2.526   5.646   4.898 -0.7182  0.3835  0.1770
   15SAPS    HS 1884   2.491   5.720   4.973 -1.6600 -1.8782  2.0863
   15SAPS   O21 1885   2.630   5.559   4.953  0.0802 -0.7497 -0.2245
   15SAPS   C21 1886   2.605   5.529   5.083 -0.3057 -0.2127  0.2240
   15SAPS   O22 1887   2.504   5.570   5.136  0.3275  0.3303  0.0237
   15SAPS   C22 1888   2.708   5.441   5.147  0.6497 -0.3402 -0.4878
   15SAPS   H2R 1889   2.729   5.366   5.068  1.5482 -1.1724  0.5091
   15SAPS   H2S 1890   2.803   5.495   5.170  0.3244 -0.6677  1.8764
   15SAPS    C3 1891   2.415   5.557   4.831 -0.3522 -0.6502 -0.5409
   15SAPS    HX 1892   2.454   5.514   4.737  0.2154  0.8807 -1.0284
   15SAPS    HY 1893   2.343   5.637   4.803  1.2687  0.6575 -1.0917
   15SAPS   O31 1894   2.350   5.452   4.910  0.4000 -0.2518  0.7908
   15SAPS   C31 1895   2.260   5.486   5.007  0.3703 -0.6615 -0.0417
   15SAPS   O32 1896   2.219   5.605   5.029 -0.2607 -0.2442  0.1772
   15SAPS   C32 1897   2.224   5.369   5.094 -0.8741  0.5135  0.6021
   15SAPS   H2X 1898   2.320   5.325   5.129 -0.4965  1.1573  0.3884
   15SAPS   H2Y 1899   2.181   5.286   5.034 -0.4180 -0.1128  1.1267
   15SAPS   C23 1900   2.662   5.385   5.286  0.7194  0.1734 -0.1794
   15SAPS   H3R 1901   2.558   5.346   5.288  0.0277  1.9096  2.5480
   15SAPS   H3S 1902   2.662   5.469   5.358 -1.0681  1.2829 -1.3964
   15SAPS   C24 1903   2.753   5.280   5.351  0.6075 -0.2020 -0.1638
   15SAPS   H4R 1904   2.739   5.184   5.296  1.4338 -1.0573  1.0524
   15SAPS   H4S 1905   2.716   5.278   5.456  1.5089 -0.8060  0.1614
   15SAPS   C25 1906   2.901   5.309   5.355  0.3373 -0.3819 -0.3278
   15SAPS   H5R 1907   2.960   5.293   5.263  1.4122 -0.6573  0.3894
   15SAPS   C26 1908   2.964   5.353   5.465  0.3380  0.6365 -0.5488
   15SAPS   H6R 1909   3.072   5.373   5.470  0.5131 -0.4327  0.5666
   15SAPS   C27 1910   2.901   5.371   5.603 -0.3800  0.4959 -0.2963
   15SAPS   H7R 1911   2.818   5.301   5.626  0.9313 -0.3162  2.3683
   15SAPS   H7S 1912   2.864   5.475   5.585  1.4834  1.2975  0.2346
   15SAPS   C28 1913   2.994   5.365   5.723  0.3542  0.1423  0.7378
   15SAPS   H8R 1914   2.992   5.462   5.775 -1.0006  0.3944  0.2741
   15SAPS   C29 1915   3.058   5.257   5.764 -0.9049  0.5368  0.4005
   15SAPS   H9R 1916   3.134   5.257   5.844 -0.0237 -2.4103 -0.3217
   15SAPS  C210 1917   3.052   5.118   5.705  0.5445 -1.4339  0.4334
   15SAPS  H10R 1918   3.024   5.122   5.597 -1.2469  2.2085  0.8716
   15SAPS  H10S 1919   2.964   5.064   5.746 -0.4776 -2.0658 -2.3620
   15SAPS  C211 1920   3.178   5.041   5.716 -0.2461  0.1998 -0.3343
   15SAPS  H11R 1921   3.249   5.052   5.632 -2.1838  1.5890 -1.9143
   15SAPS  C212 1922   3.199   4.957   5.818  0.0738  0.1432 -0.6280
   15SAPS  H12R 1923   3.286   4.891   5.813 -0.0824 -0.1065 -0.0892
   15SAPS  C213 1924   3.114   4.930   5.943 -0.1990  0.2020  0.6368
   15SAPS  H13R 1925   3.069   4.829   5.942  0.0066  0.1101  0.6470
   15SAPS  H13S 1926   3.033   5.006   5.950  0.5605  1.0395  0.6153
   15SAPS  C214 1927   3.199   4.926   6.070 -0.1597 -0.5369 -0.6099
   15SAPS  H14R 1928   3.281   4.854   6.057 -0.7056 -1.0155 -1.6048
   15SAPS  C215 1929   3.207   5.012   6.175 -0.0977 -0.6861  0.2512
   15SAPS  H15R 1930   3.282   4.993   6.252  0.4065  1.0143  0.2369
   15SAPS  C216 1931   3.111   5.123   6.209 -0.3937 -0.0366  0.5305
   15SAPS  H16R 1932   3.050   5.088   6.295 -1.3745 -1.5223 -0.7150
   15SAPS  H16S 1933   3.054   5.138   6.115  1.6903 -0.7050 -0.9213
   15SAPS  C217 1934   3.178   5.263   6.236 -0.4776  0.2860  0.4814
   15SAPS  H17R 1935   3.237   5.283   6.144 -2.5335  0.9907 -0.7794
   15SAPS  H17S 1936   3.258   5.247   6.311  0.4736 -0.2417 -0.6114
   15SAPS  C218 1937   3.079   5.374   6.266  0.2548 -0.2737 -0.2099
   15SAPS  H18R 1938   3.142   5.465   6.278 -0.2738 -0.0122  0.6420
   15SAPS  H18S 1939   3.033   5.364   6.366  0.2029  0.7059 -0.1242
   15SAPS  C219 1940   2.975   5.391   6.155  0.5697 -0.7012  0.3156
   15SAPS  H19R 1941   2.922   5.296   6.135  0.0152 -0.7776  1.9976
   15SAPS  H19S 1942   3.029   5.419   6.061 -1.6887  0.8979 -0.5892
   15SAPS  C220 1943   2.875   5.506   6.177 -0.8801  0.2117  0.2980
   15SAPS  H20R 1944   2.923   5.606   6.173  1.1804 -0.7580  0.0478
   15SAPS  H20S 1945   2.830   5.488   6.278 -0.8560 -1.3540  0.0544
   15SAPS  H20T 1946   2.791   5.500   6.105 -0.5728  0.6205 -0.0985
   15SAPS   C33 1947   2.139   5.417   5.219 -0.8465 -0.6080  0.4521
   15SAPS   H3X 1948   2.069   5.333   5.241  1.1793 -2.4744  0.1961
   15SAPS   H3Y 1949   2.073   5.505   5.203  1.3519  1.4028  1.8010
   15SAPS   C34 1950   2.223   5.437   5.341  0.4358  0.0334 -0.4021
   15SAPS   H4X 1951   2.281   5.531   5.334 -0.1073  0.3773 -0.2883
   15SAPS   H4Y 1952   2.290   5.350   5.359  0.3416  0.2616  1.1705
   15SAPS   C35 1953   2.136   5.457   5.463 -0.6278  0.2351 -0.7135
   15SAPS   H5X 1954   2.074   5.367   5.480 -1.4620  0.8956 -0.1522
   15SAPS   H5Y 1955   2.069   5.544   5.446 -0.6195  0.2504 -0.6686
   15SAPS   C36 1956   2.224   5.486   5.587  0.3784  0.6709  0.3254
   15SAPS   H6X 1957   2.284   5.576   5.564  2.6265 -0.9288 -0.5077
   15SAPS   H6Y 1958   2.303   5.411   5.610 -1.2843 -1.8222 -1.4774
   15SAPS   C37 1959   2.139   5.539   5.704  0.0253  0.1145 -0.0569
   15SAPS   H7X 1960   2.058   5.604   5.666  0.0066 -1.1003 -2.2316
   15SAPS   H7Y 1961   2.197   5.599   5.778  1.0695 -0.1513 -0.6438
   15SAPS   C38 1962   2.079   5.418   5.782  0.2269 -0.9124 -0.6231
   15SAPS   H8X 1963   2.160   5.346   5.807  1.0741 -0.1986 -1.2358
   15SAPS   H8Y 1964   2.006   5.380   5.707 -0.0205  0.1268 -0.9247
   15SAPS   C39 1965   2.011   5.459   5.913  0.6686  0.7049 -0.4349
   15SAPS   H9X 1966   1.945   5.543   5.885 -0.5119  0.0154  0.1892
   15SAPS   H9Y 1967   2.079   5.515   5.980  1.1984  0.3637 -0.6778
   15SAPS  C310 1968   1.929   5.345   5.983  0.6143  0.1443 -0.2249
   15SAPS  H10X 1969   1.880   5.281   5.906  1.0960  0.6977 -1.0165
   15SAPS  H10Y 1970   1.853   5.396   6.046 -0.8833 -0.6004 -1.3563
   15SAPS  C311 1971   2.027   5.243   6.058 -0.6248 -0.1442 -0.2801
   15SAPS  H11X 1972   2.109   5.218   5.988  0.6671 -3.2134  2.0786
   15SAPS  H11Y 1973   1.958   5.163   6.094 -0.5702  0.0240  0.2138
   15SAPS  C312 1974   2.097   5.309   6.185  0.4162 -0.3968 -0.1002
   15SAPS  H12X 1975   2.016   5.354   6.247 -0.9156 -0.4428 -1.7319
   15SAPS  H12Y 1976   2.155   5.396   6.148 -3.1316  1.1664 -2.6256
   15SAPS  C313 1977   2.188   5.206   6.265  0.0063  0.0380  1.2718
   15SAPS  H13X 1978   2.259   5.171   6.187 -1.0574  2.2299 -0.7952
   15SAPS  H13Y 1979   2.125   5.123   6.305  0.8583 -1.8447 -1.0501
   15SAPS  C314 1980   2.276   5.265   6.377  0.4232 -0.1849  0.3254
   15SAPS  H14X 1981   2.358   5.326   6.333  0.7171 -1.5961 -1.1870
   15SAPS  H14Y 1982   2.323   5.177   6.425 -1.4093  0.0733  2.7583
   15SAPS  C315 1983   2.193   5.342   6.485  0.1932  0.0418 -0.6768
   15SAPS  H15X 1984   2.125   5.269   6.533 -0.3910  0.8079 -0.3236
   15SAPS  H15Y 1985   2.141   5.425   6.432 -2.0246 -1.6063 -1.2103
   15SAPS  C316 1986   2.285   5.394   6.596  0.3650 -0.2561  0.3163
   15SAPS  H16X 1987   2.320   5.495   6.565 -0.5967  0.0890  0.3075
   15SAPS  H16Y 1988   2.378   5.337   6.616  1.3571  1.2476  0.1926
   15SAPS  C317 1989   2.210   5.392   6.729  0.3082  0.0450  0.0299
   15SAPS  H17X 1990   2.107   5.429   6.712 -0.2579 -1.5610 -0.2176
   15SAPS  H17Y 1991   2.256   5.459   6.805 -2.7251  0.3991  1.6918
   15SAPS  C318 1992   2.201   5.252   6.793 -0.3284  0.1158  0.1173
   15SAPS  H18X 1993   2.159   5.179   6.721  2.2962 -0.7367 -0.6663
   15SAPS  H18Y 1994   2.120   5.263   6.869 -0.6822 -0.7460 -0.1286
   15SAPS  H18Z 1995   2.285   5.202   6.845 -0.1674  0.1000 -0.1571
   16SAPS     N 1996   2.777   5.162   4.458  0.1747 -0.8621  0.8882
   16SAPS   HN1 1997   2.791   5.264   4.473  1.3143 -0.9543  0.5793
   16SAPS   HN2 1998   2.680   5.140   4.487 -0.2323  2.7613  2.8439
   16SAPS   HN3 1999   2.847   5.111   4.515  1.1751 -0.3854  0.1330
   16SAPS   C12 2000   2.798   5.133   4.316 -0.3259  0.6604  0.0903
   16SAPS  H12A 2001   2.770   5.030   4.299  1.8404 -0.0161  0.2219
   16SAPS   C13 2002   2.703   5.228   4.233  0.3040  0.7354 -0.1920
   16SAPS  O13A 2003   2.624   5.317   4.283  0.1026  0.0028  0.6329
   16SAPS  O13B 2004   2.708   5.212   4.108 -0.9626  0.2860  0.2394
   16SAPS   C11 2005   2.950   5.156   4.288  0.2596 -0.7974 -0.1059
   16SAPS  H11A 2006   2.991   5.248   4.334 -0.2000 -1.3326  1.4428
   16SAPS  H11B 2007   2.968   5.159   4.179  0.7738 -0.0543 -0.0047
   16SAPS     P 2008   3.180   5.051   4.308 -0.0834 -0.2714 -0.4238
   16SAPS   O13 2009   3.206   4.913   4.256  0.9717 -0.3590  0.0763
   16SAPS   O14 2010   3.218   5.166   4.218  0.3682  0.1155 -0.3191
   16SAPS   O12 2011   3.030   5.061   4.354  0.4220  0.4269 -0.0134
   16SAPS   O11 2012   3.265   5.075   4.436 -0.2787  0.1055 -0.2021
   16SAPS    C1 2013   3.213   5.125   4.558 -0.0925 -0.1410  0.1849
   16SAPS    HA 2014   3.290   5.183   4.612 -0.1818 -0.4346  0.6353
   16SAPS    HB 2015   3.124   5.190   4.545 -0.5353 -1.1743 -3.0911
   16SAPS    C2 2016   3.170   5.009   4.648  0.1684 -0.4151  0.1702
   16SAPS    HS 2017   3.090   4.958   4.591  0.7432  1.4626 -2.4827
   16SAPS   O21 2018   3.133   5.060   4.777 -0.5220  0.2462  0.4963
   16SAPS   C21 2019   3.016   5.119   4.769  0.2165 -0.0896 -0.5941
   16SAPS   O22 2020   2.940   5.120   4.674 -0.1124  0.2222  0.1108
   16SAPS   C22 2021   2.980   5.181   4.904  0.2686 -0.3986  0.6503
   16SAPS   H2R 2022   3.064   5.192   4.976  1.3637  2.4651 -0.9152
   16SAPS   H2S 2023   2.969   5.290   4.888  0.6995 -0.1492  1.9220
   16SAPS    C3 2024   3.292   4.915   4.657  0.1319  0.1511 -1.3864
   16SAPS    HX 2025   3.374   4.977   4.699  0.0829  0.0507 -1.1383
   16SAPS    HY 2026   3.321   4.880   4.556 -2.3130 -1.4463 -1.6273
   16SAPS   O31 2027   3.246   4.803   4.733 -0.3307 -0.3278 -0.3464
   16SAPS   C31 2028   3.302   4.796   4.855 -0.4736 -0.1452 -0.4459
   16SAPS   O32 2029   3.395   4.862   4.895  0.1314 -0.1889  0.2878
   16SAPS   C32 2030   3.230   4.691   4.945 -0.3247 -0.0724 -0.1508
   16SAPS   H2X 2031   3.254   4.598   4.889  0.5181  0.3542 -0.5326
   16SAPS   H2Y 2032   3.121   4.709   4.943 -0.2269  0.5908  0.1433
   16SAPS   C23 2033   2.859   5.108   4.979  0.2225 -0.1147  0.7593
   16SAPS   H3R 2034   2.766   5.133   4.924  0.7447 -3.0438 -1.7143
   16SAPS   H3S 2035   2.841   5.150   5.081 -0.6536 -0.8116  0.9127
   16SAPS   C24 2036   2.871   4.954   4.997 -0.1196  0.8610  0.6652
   16SAPS   H4R 2037   2.883   4.894   4.904 -2.9493 -0.0221  0.7576
   16SAPS   H4S 2038   2.785   4.907   5.050  0.0242  0.5738  0.6450
   16SAPS   C25 2039   3.000   4.935   5.068  0.0571  0.3114  0.5476
   16SAPS   H5R 2040   3.095   4.942   5.013  0.5522  0.1531  1.3702
   16SAPS   C26 2041   3.020   4.917   5.197  0.2284  0.6943 -0.4115
   16SAPS   H6R 2042   3.124   4.914   5.233  0.0478  0.7114  0.1284
   16SAPS   C27 2043   2.918   4.897   5.307  0.1476  0.6176 -0.5051
   16SAPS   H7R 2044   2.835   4.827   5.285  0.5525 -0.0162 -0.0535
   16SAPS   H7S 2045   2.868   4.995   5.322 -2.9840 -1.1492  1.9124
   16SAPS   C28 2046   2.987   4.859   5.437 -0.4155 -0.2534  0.2961
   16SAPS   H8R 2047   3.096   4.857   5.450 -0.0030  0.3284 -2.5634
   16SAPS   C29 2048   2.913   4.831   5.547  0.5294  0.0327 -0.2883
   16SAPS   H9R 2049   2.961   4.798   5.640 -0.5148 -1.9229 -0.3878
   16SAPS  C210 2050   2.760   4.846   5.555 -0.1467  0.2371  0.0178
   16SAPS  H10R 2051   2.721   4.766   5.488 -1.1783 -1.9413  3.0219
   16SAPS  H10S 2052   2.727   4.942   5.510  0.7769  0.9158  0.7703
   16SAPS  C211 2053   2.704   4.830   5.696 -0.1585  0.2354  0.0904
   16SAPS  H11R 2054   2.704   4.732   5.745 -1.7968  0.1587 -0.0174
   16SAPS  C212 2055   2.666   4.934   5.773 -0.0916  0.2000  0.0365
   16SAPS  H12R 2056   2.610   4.919   5.867 -1.4219  3.4186 -0.1371
   16SAPS  C213 2057   2.654   5.083   5.734  0.9329  0.0978 -0.5271
   16SAPS  H13R 2058   2.635   5.096   5.625  0.6024  1.6013 -0.3042
   16SAPS  H13S 2059   2.742   5.146   5.758 -0.1364  0.7759  1.8988
   16SAPS  C214 2060   2.555   5.162   5.810 -0.0154 -0.1843 -0.3136
   16SAPS  H14R 2061   2.593   5.206   5.903 -0.4933  1.6969 -0.9784
   16SAPS  C215 2062   2.426   5.181   5.778  0.4079  0.7998 -0.0149
   16SAPS  H15R 2063   2.365   5.254   5.834  0.8093  0.7459  0.4978
   16SAPS  C216 2064   2.354   5.127   5.654 -0.5261  0.0793  0.2970
   16SAPS  H16R 2065   2.422   5.123   5.566 -1.4557  0.5370 -0.4711
   16SAPS  H16S 2066   2.290   5.209   5.616 -0.6718 -0.7611 -1.3618
   16SAPS  C217 2067   2.286   4.991   5.668  0.0343  0.8406  0.2138
   16SAPS  H17R 2068   2.189   5.006   5.720 -0.9795 -0.5428 -1.1962
   16SAPS  H17S 2069   2.350   4.917   5.720  0.6994  0.7957 -0.6482
   16SAPS  C218 2070   2.258   4.928   5.531 -0.7555  0.1199  0.1898
   16SAPS  H18R 2071   2.342   4.866   5.495 -0.1777 -0.6685  2.6776
   16SAPS  H18S 2072   2.263   5.004   5.450  0.6653 -1.0808 -0.9017
   16SAPS  C219 2073   2.131   4.842   5.500 -0.2493 -0.0455  0.0863
   16SAPS  H19R 2074   2.042   4.905   5.522 -0.4830 -0.8872  1.6618
   16SAPS  H19S 2075   2.119   4.757   5.570 -1.2342 -0.9447 -1.1145
   16SAPS  C220 2076   2.128   4.784   5.356  0.1192 -0.5697 -0.1637
   16SAPS  H20R 2077   2.163   4.861   5.284  0.9178 -0.8276 -0.0596
   16SAPS  H20S 2078   2.029   4.740   5.333  0.3577 -2.4925  2.0657
   16SAPS  H20T 2079   2.201   4.700   5.356  2.1196  1.0994 -0.6442
   16SAPS   C33 2080   3.286   4.688   5.093 -0.0866  0.1608 -0.7300
   16SAPS   H3X 2081   3.282   4.786   5.146 -0.1911 -1.7417  3.1484
   16SAPS   H3Y 2082   3.394   4.663   5.086 -0.1152  0.2701 -1.7178
   16SAPS   C34 2083   3.207   4.586   5.180 -0.0482 -0.3599  0.2597
   16SAPS   H4X 2084   3.170   4.496   5.126 -1.0460  0.7693 -1.0274
   16SAPS   H4Y 2085   3.114   4.641   5.208 -0.1464 -0.4695  0.1469
   16SAPS   C35 2086   3.277   4.539   5.313 -0.2453  0.2217  0.4334
   16SAPS   H5X 2087   3.358   4.475   5.271 -0.3191  1.4079 -1.6943
   16SAPS   H5Y 2088   3.223   4.464   5.374 -1.0670 -2.5342 -3.2758
   16SAPS   C36 2089   3.343   4.652   5.401 -0.6190  1.1076 -0.3058
   16SAPS   H6X 2090   3.268   4.729   5.428 -1.9969  0.1737 -1.3486
   16SAPS   H6Y 2091   3.431   4.699   5.351 -0.2753 -0.2843 -1.0420
   16SAPS   C37 2092   3.375   4.596   5.547 -0.7524 -0.5553 -0.3544
   16SAPS   H7X 2093   3.429   4.676   5.602 -1.0528 -1.4116  1.2262
   16SAPS   H7Y 2094   3.452   4.517   5.544  1.6018  1.4789  1.6968
   16SAPS   C38 2095   3.248   4.564   5.624  0.1356 -0.2439 -0.3777
   16SAPS   H8X 2096   3.211   4.464   5.589  1.2487 -1.9898  3.0143
   16SAPS   H8Y 2097   3.171   4.633   5.584  0.1263 -0.3792 -0.5965
   16SAPS   C39 2098   3.257   4.566   5.778 -0.1920 -0.6969 -0.4007
   16SAPS   H9X 2099   3.265   4.672   5.811  1.2031 -0.9269  0.0588
   16SAPS   H9Y 2100   3.341   4.505   5.816  0.9341  0.1415 -1.4406
   16SAPS  C310 2101   3.125   4.504   5.826  0.3486  0.3502 -0.0734
   16SAPS  H10X 2102   3.117   4.406   5.775  0.4306  0.8259 -1.0316
   16SAPS  H10Y 2103   3.038   4.551   5.774  0.3997 -0.8586 -1.2960
   16SAPS  C311 2104   3.098   4.510   5.972 -0.0215  0.0185 -0.2727
   16SAPS  H11X 2105   3.071   4.615   5.994 -0.8686 -0.4282  1.0163
   16SAPS  H11Y 2106   3.195   4.496   6.024  0.0468  1.4339  0.0033
   16SAPS  C312 2107   2.999   4.404   6.027 -0.7807 -0.0958 -0.0810
   16SAPS  H12X 2108   3.046   4.305   6.009  1.9084  0.6115  2.2725
   16SAPS  H12Y 2109   2.895   4.410   5.988 -0.7052 -2.6693 -0.8640
   16SAPS  C313 2110   2.990   4.413   6.183 -0.3708 -0.0985  0.3278
   16SAPS  H13X 2111   2.977   4.521   6.208  0.6162  0.7478 -2.4296
   16SAPS  H13Y 2112   3.090   4.378   6.218  1.1109  2.1158 -1.3363
   16SAPS  C314 2113   2.876   4.323   6.230  0.0848  0.1777 -0.4476
   16SAPS  H14X 2114   2.911   4.226   6.188 -0.1519  0.7832 -2.0958
   16SAPS  H14Y 2115   2.775   4.348   6.192  0.4361  0.2561 -1.3438
   16SAPS  C315 2116   2.854   4.317   6.383 -0.0180 -0.1435  0.4887
   16SAPS  H15X 2117   2.813   4.413   6.421 -0.4595  0.6859 -1.9317
   16SAPS  H15Y 2118   2.948   4.292   6.437 -0.2015 -1.4337  0.2396
   16SAPS  C316 2119   2.752   4.209   6.421 -0.5786 -0.3426 -0.6555
   16SAPS  H16X 2120   2.787   4.111   6.381  2.4567 -0.8798  2.7492
   16SAPS  H16Y 2121   2.652   4.227   6.377 -0.2496 -2.0604 -2.2337
   16SAPS  C317 2122   2.741   4.188   6.575  0.4212 -0.1991  1.1057
   16SAPS  H17X 2123   2.685   4.278   6.610 -1.1969 -0.2215 -1.2191
   16SAPS  H17Y 2124   2.843   4.193   6.619  1.8026  0.5832 -1.8887
   16SAPS  C318 2125   2.665   4.061   6.609  0.4305  0.3150 -0.1232
   16SAPS  H18X 2126   2.561   4.061   6.569  0.0023  3.5155  0.6784
   16SAPS  H18Y 2127   2.659   4.051   6.719  2.4320  1.7024  0.1681
   16SAPS  H18Z 2128   2.717   3.972   6.569 -0.5856  0.1793 -1.1954
   17SAPS     N 2129   5.586   4.186   4.031 -0.3336  0.0488 -0.3263
   17SAPS   HN1 2130   5.661   4.117   4.047  1.2251  1.3322 -1.6764
   17SAPS   HN2 2131   5.497   4.136   4.012  0.2477 -1.0531 -0.1820
   17SAPS   HN3 2132   5.619   4.242   3.950  0.3298  1.7631  1.0623
   17SAPS   C12 2133   5.564   4.269   4.152  0.4919 -0.2382 -0.4698
   17SAPS  H12A 2134   5.656   4.291   4.205  0.3447  0.1743 -0.3830
   17SAPS   C13 2135   5.492   4.403   4.132 -0.1075  0.4012 -0.1457
   17SAPS  O13A 2136   5.492   4.442   4.013  0.0978 -0.2615  0.4303
   17SAPS  O13B 2137   5.479   4.486   4.228  0.1380  0.0571 -0.3120
   17SAPS   C11 2138   5.485   4.182   4.257 -0.0858  0.0491  0.7885
   17SAPS  H11A 2139   5.385   4.144   4.227  0.0580  0.4043 -0.1983
   17SAPS  H11B 2140   5.464   4.236   4.352 -2.5963  0.8599 -0.1497
   17SAPS     P 2141   5.517   3.956   4.391  0.2755 -0.0757  0.5410
   17SAPS   O13 2142   5.378   3.917   4.357 -0.4160 -0.0347  0.0125
   17SAPS   O14 2143   5.624   3.853   4.402  0.2333 -0.0274 -0.3409
   17SAPS   O12 2144   5.559   4.057   4.276 -0.3883  0.0040  0.0458
   17SAPS   O11 2145   5.510   4.046   4.524 -0.1878  0.0317 -0.1817
   17SAPS    C1 2146   5.629   4.055   4.602  0.3719 -0.0833  0.5755
   17SAPS    HA 2147   5.726   4.059   4.549  0.4551 -1.5780  0.5700
   17SAPS    HB 2148   5.632   4.153   4.654 -1.2785  0.0249  0.5260
   17SAPS    C2 2149   5.642   3.945   4.710  0.7183 -0.7432 -0.0362
   17SAPS    HS 2150   5.634   3.846   4.659  0.8911 -0.5086 -0.5223
   17SAPS   O21 2151   5.532   3.966   4.804  0.0926 -0.6931 -0.2331
   17SAPS   C21 2152   5.440   3.869   4.811 -0.4888 -0.4970  0.2808
   17SAPS   O22 2153   5.441   3.762   4.751 -0.7253 -0.0073  0.0743
   17SAPS   C22 2154   5.318   3.924   4.889  0.0830 -0.0202  0.0193
   17SAPS   H2R 2155   5.326   4.030   4.920  0.2781 -0.2872  0.9307
   17SAPS   H2S 2156   5.240   3.918   4.811 -0.1068 -0.2719  0.2289
   17SAPS    C3 2157   5.769   3.952   4.788  0.1344 -0.0380  0.2386
   17SAPS    HX 2158   5.781   4.050   4.839 -0.7184 -0.2254  0.8198
   17SAPS    HY 2159   5.849   3.960   4.712 -0.5330  2.3758 -0.2805
   17SAPS   O31 2160   5.789   3.842   4.884 -0.2874  0.2520  0.4065
   17SAPS   C31 2161   5.838   3.727   4.835 -0.3626 -0.2867 -0.4604
   17SAPS   O32 2162   5.847   3.704   4.716 -0.1758  0.2831 -0.0920
   17SAPS   C32 2163   5.865   3.626   4.946 -0.8808 -0.3518  0.1022
   17SAPS   H2X 2164   5.771   3.571   4.967 -0.0515 -1.4266  1.1353
   17SAPS   H2Y 2165   5.865   3.681   5.043 -1.6669  0.5481 -0.3870
   17SAPS   C23 2166   5.280   3.830   5.002 -0.7268 -0.3388 -0.6903
   17SAPS   H3R 2167   5.284   3.729   4.956 -0.3488  0.2591 -2.0416
   17SAPS   H3S 2168   5.179   3.865   5.032  0.1680  0.9614  0.9278
   17SAPS   C24 2169   5.384   3.840   5.120 -0.2124  0.3793 -0.1955
   17SAPS   H4R 2170   5.408   3.946   5.144  0.8141 -0.2305  1.7120
   17SAPS   H4S 2171   5.482   3.797   5.088 -0.4260  1.0612 -1.9036
   17SAPS   C25 2172   5.330   3.792   5.248  0.0860 -0.3700 -0.3120
   17SAPS   H5R 2173   5.243   3.843   5.291  1.3356  1.7656 -0.1487
   17SAPS   C26 2174   5.387   3.696   5.318  0.0159  0.2240  0.2277
   17SAPS   H6R 2175   5.334   3.665   5.409  0.9461 -0.2317  0.6321
   17SAPS   C27 2176   5.512   3.612   5.289  0.4088 -0.3850 -0.1014
   17SAPS   H7R 2177   5.534   3.614   5.180  0.1572 -1.1703 -0.1694
   17SAPS   H7S 2178   5.483   3.506   5.305 -0.9434  0.0857  0.7801
   17SAPS   C28 2179   5.632   3.655   5.367  0.4137  0.4486  0.1805
   17SAPS   H8R 2180   5.690   3.732   5.312 -2.4689  2.1009 -0.7711
   17SAPS   C29 2181   5.651   3.633   5.497 -0.4029 -0.3215  0.4750
   17SAPS   H9R 2182   5.746   3.666   5.542 -0.9169  1.1231  0.5443
   17SAPS  C210 2183   5.561   3.551   5.588  0.7381 -0.7008 -0.3440
   17SAPS  H10R 2184   5.489   3.495   5.525 -1.1212 -1.8811  2.5927
   17SAPS  H10S 2185   5.513   3.620   5.660  0.7656 -0.5142 -0.5044
   17SAPS  C211 2186   5.622   3.436   5.670 -0.0025 -0.5049  0.0933
   17SAPS  H11R 2187   5.687   3.366   5.615  2.1278  1.3165  0.1435
   17SAPS  C212 2188   5.591   3.402   5.794 -0.3874  0.0073  0.2718
   17SAPS  H12R 2189   5.649   3.319   5.837  1.8560 -0.2592 -2.9507
   17SAPS  C213 2190   5.493   3.469   5.887 -0.2044  0.2962 -0.3232
   17SAPS  H13R 2191   5.398   3.500   5.840 -0.9206 -1.5163 -0.1714
   17SAPS  H13S 2192   5.538   3.562   5.928  0.0184 -0.3093  0.8460
   17SAPS  C214 2193   5.444   3.371   5.994 -0.4283 -0.4846 -0.4860
   17SAPS  H14R 2194   5.370   3.301   5.953  0.0650 -1.9107  0.9720
   17SAPS  C215 2195   5.479   3.364   6.118 -0.5532 -0.9097 -0.5522
   17SAPS  H15R 2196   5.434   3.285   6.180 -1.7354 -2.1844 -2.9026
   17SAPS  C216 2197   5.585   3.447   6.181  0.4018  0.1069 -0.2605
   17SAPS  H16R 2198   5.633   3.533   6.129  0.1892  1.3960  1.5640
   17SAPS  H16S 2199   5.678   3.387   6.189 -0.4703 -1.4735 -1.6130
   17SAPS  C217 2200   5.545   3.504   6.319 -0.2663 -0.0616  0.1688
   17SAPS  H17R 2201   5.525   3.429   6.398  3.2258  0.3225  1.6397
   17SAPS  H17S 2202   5.453   3.566   6.319  0.9484  1.8611 -1.1847
   17SAPS  C218 2203   5.665   3.595   6.371 -0.4207 -0.2482 -0.3828
   17SAPS  H18R 2204   5.677   3.686   6.308  3.0007  1.0202  1.8124
   17SAPS  H18S 2205   5.765   3.545   6.373 -0.9465 -1.3172 -0.4291
   17SAPS  C219 2206   5.632   3.666   6.502 -1.2049 -0.3415 -0.5020
   17SAPS  H19R 2207   5.632   3.590   6.584  0.4023 -0.2009 -0.3368
   17SAPS  H19S 2208   5.530   3.709   6.505 -2.0616 -2.2726 -0.5949
   17SAPS  C220 2209   5.750   3.767   6.541  0.2021 -0.2624 -0.1528
   17SAPS  H20R 2210   5.722   3.817   6.636  2.3584 -0.0078  0.3820
   17SAPS  H20S 2211   5.763   3.846   6.464  2.6044 -0.0210  0.4397
   17SAPS  H20T 2212   5.845   3.710   6.552  1.5958  1.8406 -0.7583
   17SAPS   C33 2213   5.994   3.542   4.918  0.3581  0.2096 -0.3778
   17SAPS   H3X 2214   6.076   3.617   4.918 -0.5625  1.2755  0.7569
   17SAPS   H3Y 2215   5.997   3.483   4.824  0.8908 -2.6595  1.3219
   17SAPS   C34 2216   6.010   3.432   5.025  0.4794 -0.1938 -0.4874
   17SAPS   H4X 2217   6.118   3.410   5.041  0.2813 -0.3436  0.7667
   17SAPS   H4Y 2218   5.960   3.342   4.985  0.7515  0.0449 -1.3929
   17SAPS   C35 2219   5.944   3.443   5.164 -0.1947 -0.5225  0.9444
   17SAPS   H5X 2220   5.953   3.339   5.204  0.7697 -0.5986  0.5473
   17SAPS   H5Y 2221   5.835   3.463   5.166 -0.0703  0.1587  1.1914
   17SAPS   C36 2222   6.023   3.538   5.254  0.4428 -0.1096  0.3886
   17SAPS   H6X 2223   6.003   3.645   5.234  1.1704 -0.2546 -1.3882
   17SAPS   H6Y 2224   6.129   3.523   5.225  0.0793 -0.2316 -0.9491
   17SAPS   C37 2225   6.005   3.503   5.402  0.2182 -0.6802 -0.0534
   17SAPS   H7X 2226   6.023   3.395   5.417 -2.4170 -1.3145 -0.8840
   17SAPS   H7Y 2227   5.900   3.526   5.431  0.9460 -0.2627  2.4416
   17SAPS   C38 2228   6.090   3.587   5.497  0.6400  0.2851 -0.4046
   17SAPS   H8X 2229   6.059   3.694   5.493 -2.0139 -0.3673  0.8454
   17SAPS   H8Y 2230   6.189   3.583   5.446  1.5648  0.9972  1.2424
   17SAPS   C39 2231   6.101   3.552   5.645  0.4255 -0.0789 -0.0530
   17SAPS   H9X 2232   6.198   3.590   5.684 -0.1971  0.7300  0.7365
   17SAPS   H9Y 2233   6.094   3.442   5.661 -1.2909  0.0449  0.2582
   17SAPS  C310 2234   5.992   3.625   5.727  0.3336  0.1361  0.0754
   17SAPS  H10X 2235   5.895   3.611   5.674  1.1437 -1.0852 -1.1421
   17SAPS  H10Y 2236   6.024   3.731   5.725 -1.0286  0.5865  0.7392
   17SAPS  C311 2237   5.981   3.574   5.873  0.1986 -0.6867 -0.1168
   17SAPS  H11X 2238   5.985   3.463   5.863 -0.0949 -1.0143  2.7275
   17SAPS  H11Y 2239   5.884   3.609   5.913  0.7042  3.2737 -1.8867
   17SAPS  C312 2240   6.099   3.614   5.965 -0.3665 -0.4628 -0.1704
   17SAPS  H12X 2241   6.105   3.725   5.965 -2.2134 -0.2975  1.4906
   17SAPS  H12Y 2242   6.198   3.584   5.927 -1.1399 -1.2913 -1.6029
   17SAPS  C313 2243   6.078   3.579   6.107  0.4345  0.6822  0.2911
   17SAPS  H13X 2244   6.089   3.468   6.108  1.7779  0.7917  0.8804
   17SAPS  H13Y 2245   5.972   3.583   6.138  0.3482  1.0187 -0.0373
   17SAPS  C314 2246   6.150   3.661   6.215 -0.4145 -0.2549  0.8403
   17SAPS  H14X 2247   6.165   3.761   6.169  0.0066 -0.0675  1.3782
   17SAPS  H14Y 2248   6.250   3.613   6.213 -2.0289 -4.0009  1.4655
   17SAPS  C315 2249   6.097   3.666   6.359 -0.1630 -0.2182  0.4932
   17SAPS  H15X 2250   6.048   3.570   6.384  0.4890 -0.4716  0.8206
   17SAPS  H15Y 2251   6.016   3.742   6.367 -0.7900 -0.4999 -2.3501
   17SAPS  C316 2252   6.202   3.705   6.459 -0.3736 -0.1046 -0.5045
   17SAPS  H16X 2253   6.247   3.800   6.426 -0.6230  0.5839  1.0651
   17SAPS  H16Y 2254   6.276   3.622   6.458 -0.4711 -0.2130 -1.9234
   17SAPS  C317 2255   6.166   3.715   6.604 -0.4427 -0.3988  0.3461
   17SAPS  H17X 2256   6.109   3.626   6.639 -3.4047  0.9321 -0.7617
   17SAPS  H17Y 2257   6.116   3.811   6.628  2.6203  1.5781 -0.5421
   17SAPS  C318 2258   6.284   3.727   6.698 -0.1364  0.2734  0.2377
   17SAPS  H18X 2259   6.239   3.721   6.799  0.0088 -1.6268  0.2242
   17SAPS  H18Y 2260   6.340   3.819   6.673 -0.6883  1.2640  2.3898
   17SAPS  H18Z 2261   6.349   3.637   6.688 -1.0884 -0.4568  0.4016
   18SAPS     N 2262   3.147   2.069   4.174  0.6108 -0.0972  0.0924
   18SAPS   HN1 2263   3.202   2.090   4.260  0.1213 -0.0357  0.3944
   18SAPS   HN2 2264   3.148   2.157   4.118 -1.1291 -0.4478 -0.5479
   18SAPS   HN3 2265   3.049   2.046   4.202  1.5086 -1.3215  2.4508
   18SAPS   C12 2266   3.200   1.956   4.085  0.5321  0.1288 -0.4854
   18SAPS  H12A 2267   3.180   1.866   4.142  0.4136 -0.8198 -1.9600
   18SAPS   C13 2268   3.126   1.928   3.950  0.4854 -0.0100  0.8019
   18SAPS  O13A 2269   3.015   1.984   3.926 -0.2283  0.2658 -0.1933
   18SAPS  O13B 2270   3.157   1.823   3.892  0.0025  1.0265 -0.4087
   18SAPS   C11 2271   3.347   1.977   4.059 -0.7855 -0.1378 -0.1826
   18SAPS  H11A 2272   3.353   2.069   3.997  1.3691  0.8070  1.2882
   18SAPS  H11B 2273   3.391   1.897   3.996 -1.2210  0.9736 -1.9683
   18SAPS     P 2274   3.504   1.881   4.260 -0.0229 -0.1083 -0.3258
   18SAPS   O13 2275   3.559   1.784   4.158 -0.2561  0.0823  0.3156
   18SAPS   O14 2276   3.600   1.938   4.355  0.0659  0.4427 -0.0399
   18SAPS   O12 2277   3.433   1.998   4.177  0.3837  0.1856 -0.2877
   18SAPS   O11 2278   3.387   1.828   4.357 -0.5830  0.0129  0.4039
   18SAPS    C1 2279   3.310   1.918   4.438 -0.6866 -0.3742 -0.0440
   18SAPS    HA 2280   3.318   2.025   4.409 -1.9890 -0.3836 -0.4765
   18SAPS    HB 2281   3.205   1.893   4.412 -0.5938 -0.3204 -0.4771
   18SAPS    C2 2282   3.345   1.902   4.588  0.0826 -0.5647 -0.1991
   18SAPS    HS 2283   3.447   1.943   4.605  0.3373 -1.8309  1.4968
   18SAPS   O21 2284   3.329   1.762   4.619 -0.3730 -0.0340  0.0500
   18SAPS   C21 2285   3.420   1.713   4.707  1.8712  0.1487  0.4089
   18SAPS   O22 2286   3.497   1.784   4.764  0.3281 -0.1482 -0.3863
   18SAPS   C22 2287   3.408   1.558   4.710 -0.1602 -0.0628 -0.2132
   18SAPS   H2R 2288   3.299   1.537   4.718 -0.1640 -0.5466 -1.2715
   18SAPS   H2S 2289   3.431   1.523   4.607 -2.6619  1.0605 -1.2102
   18SAPS    C3 2290   3.262   1.989   4.689 -0.6383 -0.9463 -0.1551
   18SAPS    HX 2291   3.153   1.994   4.667 -0.7324 -0.2271  0.4072
   18SAPS    HY 2292   3.298   2.093   4.671 -0.7291 -0.6790  1.1395
   18SAPS   O31 2293   3.276   1.953   4.822  0.1243  0.0058  0.3161
   18SAPS   C31 2294   3.216   2.022   4.919  0.5575 -0.4197  0.8283
   18SAPS   O32 2295   3.139   2.115   4.900  0.0611  0.1037 -0.1276
   18SAPS   C32 2296   3.266   1.971   5.046 -0.2920 -0.0861  0.5689
   18SAPS   H2X 2297   3.367   1.926   5.035  0.3471  1.1268  1.2727
   18SAPS   H2Y 2298   3.200   1.887   5.077 -2.5544  1.8108  1.1331
   18SAPS   C23 2299   3.497   1.494   4.824 -0.3512 -0.0343 -0.0165
   18SAPS   H3R 2300   3.602   1.531   4.813 -0.3942 -0.0348 -0.4521
   18SAPS   H3S 2301   3.501   1.385   4.802 -0.6754 -0.5010  2.0369
   18SAPS   C24 2302   3.440   1.520   4.968  0.4018 -0.0745  0.5447
   18SAPS   H4R 2303   3.421   1.627   4.989  2.4053  0.0892  1.7593
   18SAPS   H4S 2304   3.521   1.490   5.037  1.1565  1.1198  0.1992
   18SAPS   C25 2305   3.319   1.435   4.989  0.1094  0.3653 -0.8258
   18SAPS   H5R 2306   3.341   1.329   4.972 -0.8716 -0.1892  1.0851
   18SAPS   C26 2307   3.194   1.463   5.025 -0.3063  0.5407  0.4276
   18SAPS   H6R 2308   3.134   1.374   5.049  0.3843 -0.2374 -0.6244
   18SAPS   C27 2309   3.135   1.599   5.051 -0.5056  0.6825 -0.5679
   18SAPS   H7R 2310   3.212   1.669   5.090 -0.2890  0.4027 -0.4921
   18SAPS   H7S 2311   3.059   1.593   5.132 -1.1179  1.5927 -1.0548
   18SAPS   C28 2312   3.081   1.671   4.931 -0.2818 -0.6137 -0.5563
   18SAPS   H8R 2313   3.132   1.652   4.835  0.0914  2.7435 -1.1545
   18SAPS   C29 2314   2.981   1.761   4.934  0.2370 -0.2005 -0.5620
   18SAPS   H9R 2315   2.958   1.799   4.834  2.7822  0.9123 -0.8161
   18SAPS  C210 2316   2.892   1.800   5.055  0.1070 -0.9233  0.6422
   18SAPS  H10R 2317   2.890   1.726   5.138  1.9172 -1.0322  0.6290
   18SAPS  H10S 2318   2.787   1.790   5.021 -0.6345  0.9393  2.2000
   18SAPS  C211 2319   2.901   1.944   5.103 -0.2840  0.1705 -0.3070
   18SAPS  H11R 2320   2.891   2.016   5.020 -0.3124  1.1800  0.5510
   18SAPS  C212 2321   2.903   1.994   5.228  0.3005 -0.4980 -0.2051
   18SAPS  H12R 2322   2.924   2.101   5.236 -1.2609 -0.3018  1.7662
   18SAPS  C213 2323   2.910   1.914   5.357 -0.1394 -0.7231  0.3846
   18SAPS  H13R 2324   2.870   1.811   5.347 -1.1875 -0.3327  0.3766
   18SAPS  H13S 2325   2.831   1.958   5.422 -0.7938 -0.0120 -0.8482
   18SAPS  C214 2326   3.037   1.921   5.441  0.3213 -0.7217 -0.0692
   18SAPS  H14R 2327   3.098   2.011   5.423 -1.1706  0.4036  0.2943
   18SAPS  C215 2328   3.053   1.841   5.553  0.0310 -0.3008  0.1190
   18SAPS  H15R 2329   3.144   1.847   5.614 -0.1672 -0.1393  0.3971
   18SAPS  C216 2330   2.957   1.745   5.614  0.5800  0.6629  0.0414
   18SAPS  H16R 2331   2.993   1.642   5.597 -2.2378 -0.2823 -0.6199
   18SAPS  H16S 2332   2.862   1.736   5.557 -0.1047 -1.8425  1.4236
   18SAPS  C217 2333   2.897   1.782   5.756  0.1196  0.4884  0.1745
   18SAPS  H17R 2334   2.871   1.890   5.760 -0.7192  0.3318 -0.6999
   18SAPS  H17S 2335   2.973   1.769   5.836  0.3734  0.7359 -0.0201
   18SAPS  C218 2336   2.777   1.696   5.802 -0.4096 -0.5437  0.1115
   18SAPS  H18R 2337   2.794   1.590   5.773 -1.0343 -1.1808  1.9385
   18SAPS  H18S 2338   2.689   1.732   5.745  0.2278 -1.3905 -1.4750
   18SAPS  C219 2339   2.745   1.691   5.955  0.1731  0.0074 -0.5423
   18SAPS  H19R 2340   2.839   1.677   6.012 -1.5515  0.0488  2.5441
   18SAPS  H19S 2341   2.671   1.609   5.971  0.4250 -0.4023 -1.4240
   18SAPS  C220 2342   2.691   1.834   5.982 -1.0775  0.7572 -0.5640
   18SAPS  H20R 2343   2.588   1.850   5.942 -0.5504 -1.5851 -3.2364
   18SAPS  H20S 2344   2.768   1.899   5.937  0.0995 -2.6760 -4.1115
   18SAPS  H20T 2345   2.682   1.856   6.090 -3.0887  2.3763 -0.9906
   18SAPS   C33 2346   3.272   2.074   5.158  0.1104  0.0577 -0.2926
   18SAPS   H3X 2347   3.171   2.102   5.194 -0.3681 -0.2864 -1.3487
   18SAPS   H3Y 2348   3.315   2.174   5.134 -1.5467  1.5656  2.4773
   18SAPS   C34 2349   3.353   2.017   5.277 -0.5649 -0.4257 -0.6121
   18SAPS   H4X 2350   3.456   1.991   5.248  0.3942  2.1286  0.2048
   18SAPS   H4Y 2351   3.325   1.917   5.316 -2.0821 -0.4053 -1.5203
   18SAPS   C35 2352   3.366   2.121   5.392 -0.0608  0.4661  0.1756
   18SAPS   H5X 2353   3.260   2.142   5.417  0.2953  1.5448  0.7963
   18SAPS   H5Y 2354   3.423   2.204   5.346  2.9435 -0.0494  2.6548
   18SAPS   C36 2355   3.438   2.052   5.504  0.4162 -0.4899 -0.4395
   18SAPS   H6X 2356   3.538   2.014   5.473  0.6148  1.3823 -2.3611
   18SAPS   H6Y 2357   3.378   1.974   5.555  0.6952  0.8878  2.1486
   18SAPS   C37 2358   3.472   2.157   5.613  0.0499 -0.8811  0.5181
   18SAPS   H7X 2359   3.381   2.214   5.640 -0.0038 -0.9324  0.4474
   18SAPS   H7Y 2360   3.539   2.235   5.572  1.6752 -2.2845  0.3666
   18SAPS   C38 2361   3.523   2.094   5.747  0.4764  0.7357  0.0562
   18SAPS   H8X 2362   3.603   2.022   5.721 -0.4159 -0.0198 -0.6770
   18SAPS   H8Y 2363   3.429   2.048   5.786  0.4453  0.0501 -0.7949
   18SAPS   C39 2364   3.569   2.200   5.841  0.1101 -0.5472  0.2058
   18SAPS   H9X 2365   3.481   2.247   5.890  1.0880  5.0728 -2.6641
   18SAPS   H9Y 2366   3.603   2.284   5.777  3.1579 -2.3040 -0.6889
   18SAPS  C310 2367   3.666   2.159   5.946 -0.0289 -0.2085 -0.3956
   18SAPS  H10X 2368   3.747   2.109   5.887  2.2538  1.2136  1.3771
   18SAPS  H10Y 2369   3.614   2.095   6.020 -2.6067  0.2298 -1.7158
   18SAPS  C311 2370   3.730   2.286   6.002 -0.1264  0.3120 -0.6097
   18SAPS  H11X 2371   3.738   2.370   5.929  1.6160  0.1774 -0.5986
   18SAPS  H11Y 2372   3.835   2.272   6.034 -0.0079  1.4794 -0.4567
   18SAPS  C312 2373   3.656   2.330   6.134  0.3376 -0.2436 -0.8292
   18SAPS  H12X 2374   3.621   2.246   6.198 -0.2251  0.7464  0.1998
   18SAPS  H12Y 2375   3.562   2.372   6.090 -1.6110 -2.4024  1.0213
   18SAPS  C313 2376   3.732   2.435   6.206  0.2401 -0.1718 -0.5175
   18SAPS  H13X 2377   3.766   2.509   6.130  1.8899  0.7993  1.0837
   18SAPS  H13Y 2378   3.823   2.389   6.250 -1.1922  0.9064  4.1667
   18SAPS  C314 2379   3.638   2.511   6.301 -0.6610  0.7482 -0.1430
   18SAPS  H14X 2380   3.697   2.564   6.379  0.5279 -2.1003  1.0297
   18SAPS  H14Y 2381   3.558   2.454   6.354 -1.6040 -0.3803 -2.6388
   18SAPS  C315 2382   3.554   2.610   6.217  0.4721  0.1354  0.1024
   18SAPS  H15X 2383   3.516   2.570   6.121  0.4147 -0.5875  0.4190
   18SAPS  H15Y 2384   3.624   2.693   6.192  1.3657 -1.3374 -2.7170
   18SAPS  C316 2385   3.424   2.652   6.292 -0.9006  0.6077 -0.3934
   18SAPS  H16X 2386   3.464   2.686   6.390 -1.5458  0.2399  0.0025
   18SAPS  H16Y 2387   3.348   2.572   6.299 -1.0163  0.7800  0.4013
   18SAPS  C317 2388   3.361   2.777   6.230  0.7718 -0.3606 -0.0465
   18SAPS  H17X 2389   3.355   2.775   6.119 -0.0121  0.1952 -0.0214
   18SAPS  H17Y 2390   3.427   2.859   6.266 -2.2450  1.3369  2.0054
   18SAPS  C318 2391   3.223   2.808   6.298  0.6157  0.0294 -0.6374
   18SAPS  H18X 2392   3.229   2.779   6.405  3.3350 -1.9110 -1.2187
   18SAPS  H18Y 2393   3.143   2.742   6.258 -0.6375  0.3015  1.2695
   18SAPS  H18Z 2394   3.193   2.915   6.298  0.5370  0.0608  1.8180
   19SAPS     N 2395   3.290   6.380   4.321 -0.2997  0.1085 -0.2621
   19SAPS   HN1 2396   3.373   6.332   4.362 -0.5999 -0.2674 -0.0901
   19SAPS   HN2 2397   3.326   6.446   4.249 -0.8580  1.4435  0.6391
   19SAPS   HN3 2398   3.241   6.429   4.399  1.6913 -0.8284  1.7002
   19SAPS   C12 2399   3.200   6.284   4.258 -0.1390  0.5483 -0.1759
   19SAPS  H12A 2400   3.122   6.343   4.211  0.6919  2.5040  0.8068
   19SAPS   C13 2401   3.259   6.198   4.141  0.8586  0.2481 -0.3404
   19SAPS  O13A 2402   3.381   6.214   4.103 -0.0501  0.8013  0.2747
   19SAPS  O13B 2403   3.182   6.116   4.087 -0.0132  0.1944 -0.0244
   19SAPS   C11 2404   3.131   6.195   4.367 -0.6460  0.4890 -0.0020
   19SAPS  H11A 2405   3.206   6.145   4.432  0.0663  1.7654  0.1729
   19SAPS  H11B 2406   3.056   6.126   4.321  0.2496 -0.2642 -0.3741
   19SAPS     P 2407   2.982   6.220   4.578  0.1834 -0.1551 -0.0509
   19SAPS   O13 2408   3.002   6.304   4.700 -0.1416 -0.1698  0.2868
   19SAPS   O14 2409   2.841   6.213   4.532 -0.4861 -0.3602  0.4622
   19SAPS   O12 2410   3.067   6.277   4.454  0.5934 -0.3728 -0.3640
   19SAPS   O11 2411   3.053   6.085   4.601 -0.5004  0.3931 -0.1364
   19SAPS    C1 2412   3.166   6.062   4.683  0.0256 -0.6075 -0.7263
   19SAPS    HA 2413   3.225   5.973   4.653 -0.5698 -1.4354  0.4670
   19SAPS    HB 2414   3.241   6.144   4.674 -1.5173  1.0177  0.5459
   19SAPS    C2 2415   3.123   6.039   4.829 -0.5214 -0.0434 -0.3596
   19SAPS    HS 2416   3.066   6.130   4.856  0.0500  0.0024  0.7969
   19SAPS   O21 2417   3.236   6.022   4.916  0.4927 -0.2738 -0.6970
   19SAPS   C21 2418   3.228   6.070   5.035  0.1719  0.4093 -0.0888
   19SAPS   O22 2419   3.136   6.139   5.081  0.0337 -0.2524  0.4528
   19SAPS   C22 2420   3.359   6.029   5.099 -0.1569  0.5821 -0.2810
   19SAPS   H2R 2421   3.364   5.919   5.111 -1.6542  0.5829  0.5888
   19SAPS   H2S 2422   3.440   6.053   5.028 -0.7261  3.3693 -0.0967
   19SAPS    C3 2423   3.032   5.913   4.832 -0.3172 -0.1188 -0.3933
   19SAPS    HX 2424   3.092   5.828   4.793  0.2575  0.5094 -0.8987
   19SAPS    HY 2425   2.952   5.921   4.756  0.4409 -0.6909 -1.2591
   19SAPS   O31 2426   2.987   5.888   4.964  0.2150  0.2482 -0.2237
   19SAPS   C31 2427   2.877   5.961   4.991 -0.2001  0.7221 -0.2459
   19SAPS   O32 2428   2.812   6.034   4.917  0.1948  0.0125 -0.3232
   19SAPS   C32 2429   2.851   5.956   5.142  0.2576 -0.2055  0.0129
   19SAPS   H2X 2430   2.781   6.034   5.180  1.1947  0.4516  0.4242
   19SAPS   H2Y 2431   2.949   5.970   5.193 -0.2468 -2.3625  1.7308
   19SAPS   C23 2432   3.379   6.102   5.235 -0.7601  0.4003 -0.4925
   19SAPS   H3R 2433   3.353   6.210   5.244  2.8667  1.2529  1.9714
   19SAPS   H3S 2434   3.488   6.089   5.250 -0.6642 -0.7427 -1.9900
   19SAPS   C24 2435   3.311   6.034   5.352 -0.3764 -0.1520 -0.4071
   19SAPS   H4R 2436   3.344   5.929   5.339  0.6956  0.2724 -1.3505
   19SAPS   H4S 2437   3.202   6.044   5.337 -1.0243 -2.7468  1.8126
   19SAPS   C25 2438   3.352   6.063   5.497 -0.5041 -0.0979  0.6554
   19SAPS   H5R 2439   3.461   6.057   5.513 -0.7311 -1.8034  1.6785
   19SAPS   C26 2440   3.281   6.097   5.601  0.3069  0.3360 -0.5298
   19SAPS   H6R 2441   3.322   6.124   5.700 -0.4521  0.0735 -0.1288
   19SAPS   C27 2442   3.130   6.116   5.586  1.2545 -0.3063 -0.3554
   19SAPS   H7R 2443   3.074   6.020   5.579 -1.0710  0.9592 -0.1758
   19SAPS   H7S 2444   3.105   6.171   5.493 -1.4469 -1.5195 -0.4267
   19SAPS   C28 2445   3.061   6.197   5.706 -0.0402 -0.1942  0.2191
   19SAPS   H8R 2446   3.041   6.303   5.688 -0.8251 -0.1945  1.0372
   19SAPS   C29 2447   3.029   6.153   5.828 -0.7539  0.5577  0.1028
   19SAPS   H9R 2448   2.986   6.223   5.901  0.2975  0.5822  0.7157
   19SAPS  C210 2449   3.034   6.015   5.890  0.8376  0.7545  0.8349
   19SAPS  H10R 2450   3.048   6.014   6.000 -0.6643 -0.0277  1.0415
   19SAPS  H10S 2451   3.127   5.970   5.851  0.4631 -0.3786  1.2154
   19SAPS  C211 2452   2.920   5.934   5.841  0.1070  0.2089  0.1186
   19SAPS  H11R 2453   2.918   5.936   5.731  2.2413 -0.3950  0.0168
   19SAPS  C212 2454   2.840   5.860   5.919  0.2659 -0.2921  0.2820
   19SAPS  H12R 2455   2.759   5.807   5.866  0.1776 -0.9501  1.0711
   19SAPS  C213 2456   2.835   5.854   6.074 -0.1774  0.0996 -0.1657
   19SAPS  H13R 2457   2.940   5.850   6.109 -0.4611 -1.0804  0.5939
   19SAPS  H13S 2458   2.792   5.755   6.099  0.1037 -0.1677 -0.7110
   19SAPS  C214 2459   2.745   5.955   6.141  0.1092 -0.1456 -0.1656
   19SAPS  H14R 2460   2.665   5.993   6.076 -0.3408  0.0336  0.4779
   19SAPS  C215 2461   2.754   6.000   6.269  0.0294  0.2181 -0.3250
   19SAPS  H15R 2462   2.679   6.074   6.300 -1.0819 -0.9199 -0.1913
   19SAPS  C216 2463   2.861   5.950   6.368 -0.0066 -0.5059  0.3622
   19SAPS  H16R 2464   2.922   6.035   6.407  2.2301 -0.7843 -2.2409
   19SAPS  H16S 2465   2.948   5.899   6.322  1.4869  0.6081  1.8321
   19SAPS  C217 2466   2.807   5.862   6.482  0.4389  0.2159  0.0629
   19SAPS  H17R 2467   2.746   5.773   6.454  2.0205 -1.2535  1.0366
   19SAPS  H17S 2468   2.750   5.911   6.563  0.7313 -1.5850  1.4275
   19SAPS  C218 2469   2.922   5.786   6.556 -0.1822  0.6981 -0.2335
   19SAPS  H18R 2470   2.888   5.751   6.656  0.4316 -2.0552 -0.9128
   19SAPS  H18S 2471   3.010   5.850   6.577 -0.7654  0.7884  2.3395
   19SAPS  C219 2472   2.975   5.658   6.492 -0.4451 -0.1066 -0.0006
   19SAPS  H19R 2473   3.023   5.696   6.400 -0.8941 -0.5877 -0.4379
   19SAPS  H19S 2474   2.883   5.599   6.473  0.4630 -1.7842  0.6042
   19SAPS  C220 2475   3.060   5.589   6.589  0.2680  0.2185  0.1824
   19SAPS  H20R 2476   3.124   5.519   6.530  1.1812  0.7605  0.5027
   19SAPS  H20S 2477   3.002   5.529   6.662 -0.0200 -0.1467 -0.3394
   19SAPS  H20T 2478   3.133   5.656   6.640 -0.6362  1.6122 -0.3374
   19SAPS   C33 2479   2.780   5.827   5.174 -0.2420 -0.3718 -1.1492
   19SAPS   H3X 2480   2.846   5.737   5.174  2.8435  1.6885  1.2098
   19SAPS   H3Y 2481   2.678   5.806   5.135 -1.0221 -1.4224  1.2574
   19SAPS   C34 2482   2.734   5.847   5.325  0.0949 -0.6349 -0.3529
   19SAPS   H4X 2483   2.652   5.921   5.333  0.7944  0.0678  0.4067
   19SAPS   H4Y 2484   2.811   5.892   5.391 -1.6197  0.5740  0.9083
   19SAPS   C35 2485   2.685   5.725   5.405  0.1206 -0.0691 -0.2541
   19SAPS   H5X 2486   2.768   5.651   5.416  0.5864  0.5262  0.3493
   19SAPS   H5Y 2487   2.611   5.665   5.348 -0.0524 -2.3314  2.1350
   19SAPS   C36 2488   2.623   5.760   5.537 -0.1410  0.4179  0.3111
   19SAPS   H6X 2489   2.524   5.806   5.515 -0.0702 -0.4591 -2.0069
   19SAPS   H6Y 2490   2.688   5.838   5.582  0.0041  1.4237 -1.5698
   19SAPS   C37 2491   2.606   5.637   5.624 -0.0838 -0.2815 -0.5393
   19SAPS   H7X 2492   2.707   5.602   5.655 -0.1118  1.3800  1.6161
   19SAPS   H7Y 2493   2.558   5.557   5.564  0.3385  0.9366 -2.6030
   19SAPS   C38 2494   2.527   5.662   5.752  0.6169 -0.1551  0.3835
   19SAPS   H8X 2495   2.423   5.685   5.717  0.7749 -0.2821 -0.1730
   19SAPS   H8Y 2496   2.558   5.760   5.795 -0.6637  0.4268  0.0494
   19SAPS   C39 2497   2.541   5.554   5.853  0.2053  0.5600 -0.3136
   19SAPS   H9X 2498   2.644   5.566   5.892 -0.0337  0.3460  0.4046
   19SAPS   H9Y 2499   2.533   5.460   5.794 -0.4907 -0.3165  1.1191
   19SAPS  C310 2500   2.445   5.559   5.971  0.1781 -0.3121 -0.6642
   19SAPS  H10X 2501   2.456   5.469   6.036  2.3359  1.1341  1.1266
   19SAPS  H10Y 2502   2.348   5.551   5.918 -0.5370  0.6823  0.4323
   19SAPS  C311 2503   2.443   5.688   6.051  0.9148  0.1969  0.0653
   19SAPS  H11X 2504   2.409   5.767   5.981 -0.3143 -0.6366 -0.3015
   19SAPS  H11Y 2505   2.543   5.705   6.097  0.4795  0.5456  0.9136
   19SAPS  C312 2506   2.338   5.681   6.169 -0.0087 -0.6150 -0.4815
   19SAPS  H12X 2507   2.362   5.595   6.234 -0.6083 -1.8658 -1.8488
   19SAPS  H12Y 2508   2.236   5.665   6.126 -2.0121  1.8275  2.8811
   19SAPS  C313 2509   2.326   5.821   6.231 -1.0819 -0.4315  0.3316
   19SAPS  H13X 2510   2.220   5.840   6.258  0.0601  0.9988  4.5956
   19SAPS  H13Y 2511   2.349   5.898   6.154  1.7053 -2.0411 -0.6060
   19SAPS  C314 2512   2.418   5.856   6.348 -1.1450  0.1659  0.3419
   19SAPS  H14X 2513   2.401   5.965   6.364  2.4034  1.0073 -0.6919
   19SAPS  H14Y 2514   2.522   5.846   6.311 -0.3062  2.6717  1.7855
   19SAPS  C315 2515   2.402   5.770   6.462  0.4474  0.2973  0.1176
   19SAPS  H15X 2516   2.437   5.667   6.438 -2.3856 -0.5817 -0.6296
   19SAPS  H15Y 2517   2.293   5.761   6.483  0.2859  1.4997 -0.1193
   19SAPS  C316 2518   2.473   5.822   6.589  0.3112 -0.8317 -0.5515
   19SAPS  H16X 2519   2.478   5.933   6.592  0.2823 -0.8514  0.6161
   19SAPS  H16Y 2520   2.573   5.773   6.588 -0.2269 -1.9539 -2.4468
   19SAPS  C317 2521   2.407   5.782   6.725  0.4328 -0.0060  0.0194
   19SAPS  H17X 2522   2.457   5.832   6.811  0.5577 -0.6940  0.3600
   19SAPS  H17Y 2523   2.427   5.673   6.739  0.4285  0.2839  2.9523
   19SAPS  C318 2524   2.258   5.802   6.732  0.1595  0.0419  0.3119
   19SAPS  H18X 2525   2.213   5.728   6.662 -0.4349  1.0781 -0.4442
   19SAPS  H18Y 2526   2.231   5.905   6.699  0.0038 -0.1975 -0.3338
   19SAPS  H18Z 2527   2.214   5.781   6.831 -1.1697 -2.1534 -0.6580
   20SAPS     N 2528   4.623   6.265   5.134  0.3352 -0.3978  0.8476
   20SAPS   HN1 2529   4.600   6.165   5.151 -0.6552 -0.4418 -0.5935
   20SAPS   HN2 2530   4.721   6.288   5.161 -0.2401  2.2262  0.9783
   20SAPS   HN3 2531   4.572   6.334   5.193 -0.2093 -0.4286  0.4187
   20SAPS   C12 2532   4.609   6.298   4.989 -0.0009  0.3532 -0.2261
   20SAPS  H12A 2533   4.678   6.232   4.940 -1.1016 -1.1167  0.1470
   20SAPS   C13 2534   4.472   6.257   4.935  1.2345  0.3253  0.1935
   20SAPS  O13A 2535   4.385   6.202   5.005  0.0077 -0.1072 -0.9963
   20SAPS  O13B 2536   4.471   6.270   4.810  0.7949 -0.0039  0.0624
   20SAPS   C11 2537   4.637   6.451   4.978 -0.1208 -0.3152 -0.1824
   20SAPS  H11A 2538   4.557   6.503   5.034  0.4525  2.1904 -1.5315
   20SAPS  H11B 2539   4.621   6.471   4.870 -2.2566 -0.1658  0.1134
   20SAPS     P 2540   4.828   6.630   5.007 -0.0873 -0.3073  0.0344
   20SAPS   O13 2541   4.911   6.658   5.121  0.6342 -0.2402 -0.3565
   20SAPS   O14 2542   4.893   6.637   4.871  0.2071  0.3510  0.0241
   20SAPS   O12 2543   4.766   6.489   5.032  0.3798 -0.0185 -0.4438
   20SAPS   O11 2544   4.701   6.724   5.019 -0.1817 -0.5397 -0.1430
   20SAPS    C1 2545   4.635   6.740   5.145 -0.3184  0.9710 -0.4502
   20SAPS    HA 2546   4.532   6.768   5.116 -0.4338  1.6282  0.5520
   20SAPS    HB 2547   4.636   6.643   5.199 -1.7350  0.5860 -1.0730
   20SAPS    C2 2548   4.699   6.845   5.243 -0.0391  1.1370 -0.2718
   20SAPS    HS 2549   4.798   6.802   5.270 -0.2948 -0.5988 -1.8577
   20SAPS   O21 2550   4.615   6.879   5.358  0.0960  0.8651  0.0715
   20SAPS   C21 2551   4.671   6.935   5.458 -0.2688  0.2580  0.5679
   20SAPS   O22 2552   4.791   6.964   5.463 -0.2108  0.4554  0.1115
   20SAPS   C22 2553   4.577   6.961   5.573 -0.6116  0.3685  0.3206
   20SAPS   H2R 2554   4.518   7.052   5.549 -2.4242 -0.9712 -0.5394
   20SAPS   H2S 2555   4.505   6.877   5.571  0.2826 -0.4722  1.6950
   20SAPS    C3 2556   4.730   6.977   5.159  0.5125 -0.5764  0.3519
   20SAPS    HX 2557   4.805   6.937   5.088  0.6577  0.8305 -0.3253
   20SAPS    HY 2558   4.790   7.050   5.218  1.4971  0.2082 -1.5451
   20SAPS   O31 2559   4.622   7.032   5.090 -0.0274  0.5244 -0.0631
   20SAPS   C31 2560   4.555   7.127   5.168 -0.1359 -0.4470 -0.5278
   20SAPS   O32 2561   4.599   7.174   5.268 -0.0556 -0.7831  0.1010
   20SAPS   C32 2562   4.427   7.165   5.089  0.0452 -0.3781  0.0931
   20SAPS   H2X 2563   4.468   7.191   4.989  1.0461 -0.7706  0.3924
   20SAPS   H2Y 2564   4.392   7.261   5.132  1.0867 -0.2647  0.7173
   20SAPS   C23 2565   4.650   6.974   5.707 -0.0654  0.5944  0.4146
   20SAPS   H3R 2566   4.572   7.019   5.773 -0.8054 -1.7359  1.2379
   20SAPS   H3S 2567   4.739   7.039   5.707  0.2926  0.1276 -0.7830
   20SAPS   C24 2568   4.692   6.841   5.764 -0.2531  0.0889  0.3434
   20SAPS   H4R 2569   4.767   6.874   5.840 -0.6417  2.6531 -0.2927
   20SAPS   H4S 2570   4.752   6.777   5.696 -2.7300 -0.8188 -1.0862
   20SAPS   C25 2571   4.578   6.752   5.801 -0.1591 -0.6538 -0.1721
   20SAPS   H5R 2572   4.521   6.717   5.713  3.5053  0.5016 -3.3063
   20SAPS   C26 2573   4.522   6.743   5.920 -0.2831 -0.0076 -0.6007
   20SAPS   H6R 2574   4.444   6.667   5.932  1.5613 -1.5615  3.2263
   20SAPS   C27 2575   4.577   6.786   6.053 -0.3755  0.7251  0.1212
   20SAPS   H7R 2576   4.624   6.886   6.042  0.0800  0.3732 -1.2694
   20SAPS   H7S 2577   4.663   6.716   6.066 -1.0255 -0.3498 -1.1625
   20SAPS   C28 2578   4.476   6.792   6.164 -0.9654  0.4744 -0.4083
   20SAPS   H8R 2579   4.389   6.854   6.142 -1.3803 -0.0794 -0.3478
   20SAPS   C29 2580   4.483   6.733   6.280 -0.2149  0.1139 -0.3796
   20SAPS   H9R 2581   4.392   6.742   6.341  0.3451  2.0328  0.2581
   20SAPS  C210 2582   4.593   6.643   6.326 -0.3083  0.8859 -1.0975
   20SAPS  H10R 2583   4.693   6.655   6.278  2.1994  2.2764  3.8578
   20SAPS  H10S 2584   4.562   6.540   6.298 -1.7431  1.3561 -1.2949
   20SAPS  C211 2585   4.613   6.652   6.474 -0.2007 -1.0287  0.4349
   20SAPS  H11R 2586   4.706   6.706   6.497 -0.0148 -0.7878 -0.7985
   20SAPS  C212 2587   4.528   6.621   6.573  0.2059 -0.8889 -0.1689
   20SAPS  H12R 2588   4.573   6.617   6.674  3.1639  0.4047 -1.2967
   20SAPS  C213 2589   4.392   6.554   6.556  0.2533  0.0250 -0.1418
   20SAPS  H13R 2590   4.396   6.459   6.613  0.5376 -1.0613 -1.8769
   20SAPS  H13S 2591   4.366   6.529   6.451  0.4857 -1.7537  0.1934
   20SAPS  C214 2592   4.292   6.642   6.622  0.0281 -0.1239  0.8540
   20SAPS  H14R 2593   4.313   6.749   6.640  1.3748  0.1568 -1.9187
   20SAPS  C215 2594   4.182   6.603   6.688  0.0154  0.6055  0.2838
   20SAPS  H15R 2595   4.122   6.683   6.735 -1.8773  0.3391 -1.5280
   20SAPS  C216 2596   4.116   6.465   6.686  0.7250 -0.1390  0.4025
   20SAPS  H16R 2597   4.117   6.419   6.787 -0.0816  1.6080  1.2599
   20SAPS  H16S 2598   4.171   6.388   6.628 -0.3734  0.4286 -1.4723
   20SAPS  C217 2599   3.975   6.467   6.616  0.1202 -0.3664  0.3489
   20SAPS  H17R 2600   3.907   6.543   6.660  1.6137 -0.0202  2.1887
   20SAPS  H17S 2601   3.927   6.367   6.628 -1.5696  0.4560  0.8148
   20SAPS  C218 2602   3.983   6.489   6.465  1.5150 -0.1650 -0.5024
   20SAPS  H18R 2603   4.089   6.470   6.438  1.2091 -1.0350 -1.1281
   20SAPS  H18S 2604   3.951   6.593   6.443  2.5778  1.2351  3.6802
   20SAPS  C219 2605   3.893   6.400   6.387  0.6666  0.5320  0.0154
   20SAPS  H19R 2606   3.798   6.403   6.443  1.1436  1.7064  0.8103
   20SAPS  H19S 2607   3.941   6.300   6.392 -1.4719 -0.5135  0.5737
   20SAPS  C220 2608   3.872   6.434   6.238  0.1437  0.5527 -0.2835
   20SAPS  H20R 2609   3.964   6.440   6.176 -0.2997  0.6420 -0.9439
   20SAPS  H20S 2610   3.826   6.532   6.214  0.6932  0.1030 -3.7258
   20SAPS  H20T 2611   3.806   6.361   6.187 -0.5319  1.5727 -0.8980
   20SAPS   C33 2612   4.325   7.053   5.085 -0.4740 -0.0979  0.7958
   20SAPS   H3X 2613   4.381   6.963   5.050  0.4037 -0.0810  2.1051
   20SAPS   H3Y 2614   4.249   7.090   5.013 -0.1474  1.3881  1.1771
   20SAPS   C34 2615   4.265   7.015   5.220  0.4941 -0.1689 -0.0593
   20SAPS   H4X 2616   4.340   6.980   5.294  1.2795  0.6744 -0.4301
   20SAPS   H4Y 2617   4.189   6.935   5.208 -0.4671  0.7907 -0.5133
   20SAPS   C35 2618   4.189   7.123   5.286  0.5678 -0.0689  0.3742
   20SAPS   H5X 2619   4.097   7.136   5.224  0.1820  3.4465  1.4622
   20SAPS   H5Y 2620   4.242   7.221   5.291  0.4773 -0.0822  1.9522
   20SAPS   C36 2621   4.146   7.086   5.433  0.9830 -0.1068 -0.0418
   20SAPS   H6X 2622   4.236   7.097   5.497 -0.4359 -1.0976  2.2710
   20SAPS   H6Y 2623   4.108   6.982   5.443 -2.0578  0.6043 -2.7724
   20SAPS   C37 2624   4.028   7.182   5.472 -0.2242 -1.1752 -0.3214
   20SAPS   H7X 2625   3.937   7.179   5.409 -0.0736  1.5853 -0.7982
   20SAPS   H7Y 2626   4.063   7.286   5.455  0.1141 -1.2639 -0.1954
   20SAPS   C38 2627   4.000   7.169   5.625  0.3379  0.1770 -0.2452
   20SAPS   H8X 2628   4.098   7.169   5.678 -0.1494 -0.6036  0.6858
   20SAPS   H8Y 2629   3.953   7.071   5.649  1.5782  0.2790  2.9644
   20SAPS   C39 2630   3.910   7.285   5.667 -0.4750  0.5922  0.5157
   20SAPS   H9X 2631   3.821   7.299   5.602  1.3784  1.3541 -2.0146
   20SAPS   H9Y 2632   3.964   7.382   5.664  1.7116 -0.5842 -1.0290
   20SAPS  C310 2633   3.869   7.261   5.812  0.4701  0.1174  0.1386
   20SAPS  H10X 2634   3.946   7.198   5.863  0.8048 -0.5801 -1.1656
   20SAPS  H10Y 2635   3.773   7.206   5.809 -0.4697  1.7240  0.1566
   20SAPS  C311 2636   3.866   7.385   5.900  0.8561  0.4499  0.7802
   20SAPS  H11X 2637   3.789   7.453   5.857  0.7937  1.4079  2.3035
   20SAPS  H11Y 2638   3.964   7.437   5.906  0.7630  0.6210  0.8389
   20SAPS  C312 2639   3.810   7.357   6.047  0.0682  0.4678  0.6088
   20SAPS  H12X 2640   3.885   7.286   6.088 -2.0189 -1.9152  0.5287
   20SAPS  H12Y 2641   3.717   7.297   6.037  1.4998 -1.6977 -0.4930
   20SAPS  C313 2642   3.791   7.486   6.120 -0.3233  0.3171  0.0975
   20SAPS  H13X 2643   3.718   7.547   6.063  0.3797  0.7155 -0.3814
   20SAPS  H13Y 2644   3.889   7.538   6.124  0.2311 -0.7503  1.0896
   20SAPS  C314 2645   3.749   7.458   6.262 -0.2664  0.7950  0.1355
   20SAPS  H14X 2646   3.820   7.381   6.297  1.0471  2.2788  0.8149
   20SAPS  H14Y 2647   3.641   7.429   6.266 -0.4738  1.4569 -0.4040
   20SAPS  C315 2648   3.748   7.574   6.352 -0.3247  0.4708 -0.0101
   20SAPS  H15X 2649   3.652   7.628   6.361  0.9302  2.6438  1.3784
   20SAPS  H15Y 2650   3.817   7.653   6.314  0.7704 -1.4965 -2.3702
   20SAPS  C316 2651   3.788   7.534   6.499  0.3237  0.4543  0.5573
   20SAPS  H16X 2652   3.806   7.626   6.559  0.6601  1.2758 -0.7578
   20SAPS  H16Y 2653   3.881   7.477   6.481 -1.1935 -1.6839 -1.1327
   20SAPS  C317 2654   3.676   7.454   6.564  0.4994  0.8674 -0.2483
   20SAPS  H17X 2655   3.655   7.367   6.499 -1.8399 -0.9109  2.6685
   20SAPS  H17Y 2656   3.579   7.508   6.562  0.4093  0.7158  0.0174
   20SAPS  C318 2657   3.711   7.398   6.697  0.8602 -0.0701 -0.1835
   20SAPS  H18X 2658   3.748   7.472   6.771  2.1895 -0.3490 -0.5573
   20SAPS  H18Y 2659   3.803   7.337   6.688  0.3191 -0.8413 -0.5271
   20SAPS  H18Z 2660   3.625   7.344   6.744  1.1268  0.0999  0.5153
   21CHL1    C3 2661   2.221   4.235   8.342 -0.1281  0.0068  0.2823
   21CHL1    H3 2662   2.111   4.217   8.339 -0.0778 -0.8786  2.2958
   21CHL1    O3 2663   2.266   4.230   8.481 -0.5270  0.2377  0.5824
   21CHL1   H3' 2664   2.191   4.258   8.533 -0.1509  3.2285 -0.2917
   21CHL1    C4 2665   2.295   4.116   8.278 -0.0400  0.1526  0.1270
   21CHL1   H4A 2666   2.403   4.106   8.299 -0.2606 -0.7227  0.9048
   21CHL1   H4B 2667   2.257   4.032   8.340  0.1088  1.9318  2.8065
   21CHL1    C5 2668   2.274   4.116   8.127  0.1228  0.4064 -0.4771
   21CHL1    C6 2669   2.222   4.007   8.065  0.8200  0.3342 -0.9906
   21CHL1    H6 2670   2.187   3.926   8.130  1.5884  0.8608  0.0995
   21CHL1    C7 2671   2.180   3.998   7.921  0.8456  0.2430 -0.7078
   21CHL1   H7A 2672   2.214   3.905   7.869  0.6273 -0.8526  1.0268
   21CHL1   H7B 2673   2.069   3.998   7.914  0.3876 -0.8777  3.7416
   21CHL1    C8 2674   2.251   4.109   7.838  0.7145 -0.0324 -0.8214
   21CHL1    H8 2675   2.354   4.067   7.827 -0.3705 -2.8391 -1.1086
   21CHL1   C14 2676   2.184   4.127   7.704 -0.3405 -0.1433 -0.8808
   21CHL1   H14 2677   2.080   4.150   7.736 -0.3073 -1.2428  0.0753
   21CHL1   C15 2678   2.174   4.007   7.614  0.0487  0.4138  0.3092
   21CHL1  H15A 2679   2.263   3.944   7.633  0.3568  0.3949 -1.1017
   21CHL1  H15B 2680   2.082   3.950   7.638 -1.2501  2.9322  1.7161
   21CHL1   C16 2681   2.166   4.067   7.471 -0.1126 -0.4098 -0.2643
   21CHL1  H16A 2682   2.244   4.024   7.404  0.0540  0.4828 -0.6637
   21CHL1  H16B 2683   2.072   4.039   7.420  1.0075  0.1122 -2.7802
   21CHL1   C17 2684   2.172   4.220   7.486  0.4436 -0.0409  0.6337
   21CHL1   H17 2685   2.068   4.259   7.500 -0.4428 -0.9960 -2.5216
   21CHL1   C13 2686   2.241   4.240   7.620 -0.1655 -0.4499 -0.0255
   21CHL1   C18 2687   2.393   4.212   7.605 -0.3707 -0.0104 -1.1005
   21CHL1  H18A 2688   2.445   4.285   7.538  0.2868 -0.1055 -0.7057
   21CHL1  H18B 2689   2.453   4.228   7.697  1.3791  2.7541 -2.5512
   21CHL1  H18C 2690   2.409   4.113   7.557  3.2415  0.2367 -0.7066
   21CHL1   C12 2691   2.214   4.370   7.692 -0.1488 -0.4753  0.2904
   21CHL1  H12A 2692   2.257   4.457   7.637  1.5187 -2.6929 -2.1834
   21CHL1  H12B 2693   2.105   4.388   7.701 -0.0523  1.2027 -1.1476
   21CHL1   C11 2694   2.268   4.370   7.835 -0.9865  0.5180 -0.6395
   21CHL1  H11A 2695   2.375   4.399   7.839 -1.0176  0.7536 -1.3088
   21CHL1  H11B 2696   2.216   4.455   7.883  1.2720  1.5148  0.1823
   21CHL1    C9 2697   2.236   4.243   7.916 -0.2476  0.0824  0.3869
   21CHL1    H9 2698   2.128   4.265   7.933 -0.4017  0.5162 -1.0552
   21CHL1   C10 2699   2.300   4.246   8.050  0.0680  0.2767 -1.0194
   21CHL1   C19 2700   2.452   4.258   8.049 -0.2950  0.5272 -0.0738
   21CHL1  H19A 2701   2.497   4.220   8.144 -2.1325 -0.0359  0.6057
   21CHL1  H19B 2702   2.493   4.198   7.965  0.4763  0.8109  0.0884
   21CHL1  H19C 2703   2.491   4.362   8.043  0.1143  0.4762  1.2437
   21CHL1    C1 2704   2.248   4.375   8.133 -0.1637 -0.1510  0.9754
   21CHL1   H1A 2705   2.300   4.466   8.097  0.9981 -0.7829  0.9966
   21CHL1   H1B 2706   2.143   4.382   8.097  0.4830  1.8900 -0.7258
   21CHL1    C2 2707   2.257   4.375   8.284 -0.0109 -0.6980 -0.5006
   21CHL1   H2A 2708   2.208   4.464   8.329 -0.9197 -0.7379 -1.3819
   21CHL1   H2B 2709   2.364   4.396   8.305  0.1706 -1.6164 -0.4927
   21CHL1   C20 2710   2.224   4.285   7.360 -0.5951  0.3343  1.3590
   21CHL1   H20 2711   2.325   4.248   7.331 -1.7772 -1.8282 -0.2211
   21CHL1   C21 2712   2.236   4.438   7.368 -0.6935 -0.8593 -0.3457
   21CHL1  H21A 2713   2.269   4.482   7.272  0.0842 -2.1244 -0.6766
   21CHL1  H21B 2714   2.324   4.462   7.432  0.4301  0.8586 -2.4017
   21CHL1  H21C 2715   2.139   4.480   7.401 -0.6882 -0.4374 -0.8547
   21CHL1   C22 2716   2.132   4.249   7.243  0.4313  0.2031 -0.7800
   21CHL1  H22A 2717   2.185   4.284   7.152 -0.2346 -1.0684 -1.6994
   21CHL1  H22B 2718   2.139   4.139   7.228 -3.6930 -0.2713 -0.3797
   21CHL1   C23 2719   1.985   4.303   7.239  0.8067 -0.1026  0.3171
   21CHL1  H23A 2720   1.924   4.265   7.323 -1.3980 -2.6117 -2.2113
   21CHL1  H23B 2721   1.995   4.413   7.252  1.0825  0.0858 -1.2755
   21CHL1   C24 2722   1.909   4.293   7.109  0.0640 -0.5010 -0.3688
   21CHL1  H24A 2723   1.893   4.190   7.070 -0.9165  0.0429 -1.4559
   21CHL1  H24B 2724   1.808   4.335   7.125 -0.3376 -2.3189  2.7774
   21CHL1   C25 2725   1.977   4.376   6.988 -0.5061 -0.0224 -0.6601
   21CHL1   H25 2726   2.088   4.366   6.996 -0.6737 -0.6584  1.2937
   21CHL1   C26 2727   1.937   4.315   6.851  0.2024  0.0235  0.1758
   21CHL1  H26A 2728   1.989   4.369   6.769 -1.8343  3.2652  0.8505
   21CHL1  H26B 2729   1.976   4.211   6.852  0.7816  0.1945 -1.5146
   21CHL1  H26C 2730   1.832   4.312   6.817  0.5999  0.5231 -1.1575
   21CHL1   C27 2731   1.937   4.525   6.992 -0.2264 -0.5943 -0.4486
   21CHL1  H27A 2732   2.000   4.577   6.917  1.6875  0.4309  1.7479
   21CHL1  H27B 2733   1.828   4.542   6.975 -0.8771 -3.1616  0.5980
   21CHL1  H27C 2734   1.974   4.557   7.091 -0.4533 -1.6441 -0.0136
   22CHL1    C3 2735   2.428   2.055   8.397 -0.0522  0.0638  1.3973
   22CHL1    H3 2736   2.496   1.967   8.399  0.1525  0.2182  1.3018
   22CHL1    O3 2737   2.384   2.090   8.529 -0.8168  0.2976 -0.0591
   22CHL1   H3' 2738   2.403   2.005   8.569  0.5331  0.8810  0.6191
   22CHL1    C4 2739   2.508   2.174   8.335 -0.3640 -0.5609  0.6851
   22CHL1   H4A 2740   2.440   2.260   8.323  3.2103  2.4579  0.1334
   22CHL1   H4B 2741   2.595   2.211   8.394  0.0476  0.8980 -0.7497
   22CHL1    C5 2742   2.557   2.135   8.194  0.5791  0.5446  0.1548
   22CHL1    C6 2743   2.682   2.148   8.159 -0.4008 -0.3000 -0.5052
   22CHL1    H6 2744   2.758   2.185   8.229  1.4276  1.2499 -3.1260
   22CHL1    C7 2745   2.724   2.111   8.022  0.9390  0.7468  0.5039
   22CHL1   H7A 2746   2.798   2.183   7.980  1.1101  1.1559  1.4775
   22CHL1   H7B 2747   2.781   2.016   8.022  1.5973  1.1320  0.0982
   22CHL1    C8 2748   2.617   2.103   7.913 -0.1123  0.3750 -0.1194
   22CHL1    H8 2749   2.588   2.206   7.885 -0.6412  1.0490  2.5894
   22CHL1   C14 2750   2.663   2.020   7.792 -0.0757 -1.0052 -0.6450
   22CHL1   H14 2751   2.681   1.916   7.828 -0.1415 -0.8964 -0.2925
   22CHL1   C15 2752   2.799   2.048   7.731  0.4902  0.1922 -0.1868
   22CHL1  H15A 2753   2.836   2.152   7.741  2.2100 -0.5378  1.6298
   22CHL1  H15B 2754   2.880   1.992   7.782  0.4630 -0.3596 -0.7318
   22CHL1   C16 2755   2.788   1.994   7.587  0.0919  0.4791 -0.9054
   22CHL1  H16A 2756   2.809   2.078   7.518  0.4487 -0.3786 -1.8507
   22CHL1  H16B 2757   2.847   1.901   7.577 -1.6358 -0.7123 -0.4472
   22CHL1   C17 2758   2.648   1.934   7.565  0.1302  0.2514 -0.0210
   22CHL1   H17 2759   2.652   1.831   7.606 -1.2150  0.4229  0.6153
   22CHL1   C13 2760   2.568   2.009   7.675  0.3067  0.7079  0.4418
   22CHL1   C18 2761   2.540   2.152   7.625  0.0952  0.2725  0.2401
   22CHL1  H18A 2762   2.456   2.146   7.553 -1.5086 -2.4378  2.1354
   22CHL1  H18B 2763   2.498   2.219   7.703 -0.2437 -1.6201  1.7583
   22CHL1  H18C 2764   2.629   2.199   7.578  0.7948 -0.0485  1.2042
   22CHL1   C12 2765   2.437   1.947   7.736 -0.0911  0.2991  0.4039
   22CHL1  H12A 2766   2.357   1.966   7.661  0.6466 -2.0845 -1.0988
   22CHL1  H12B 2767   2.458   1.840   7.755  0.0579 -0.3011 -2.6019
   22CHL1   C11 2768   2.382   2.028   7.857 -0.9473 -0.4527 -0.5257
   22CHL1  H11A 2769   2.360   2.128   7.814  1.5612  0.0251 -0.8781
   22CHL1  H11B 2770   2.282   1.988   7.886 -0.6587 -0.1468  0.9691
   22CHL1    C9 2771   2.494   2.032   7.966 -0.0173 -0.3194 -0.7677
   22CHL1    H9 2772   2.533   1.931   7.992 -0.9054 -0.0850  1.7813
   22CHL1   C10 2773   2.445   2.092   8.102  0.4275 -0.1480  0.5484
   22CHL1   C19 2774   2.366   2.220   8.059 -0.4530 -0.5262  0.3075
   22CHL1  H19A 2775   2.432   2.291   8.005  0.9868 -1.6920  0.4633
   22CHL1  H19B 2776   2.276   2.184   8.005  0.0296 -3.4924  1.2625
   22CHL1  H19C 2777   2.337   2.282   8.147  0.7289  1.2530 -0.5003
   22CHL1    C1 2778   2.342   1.992   8.168  0.1862 -0.3393  0.0653
   22CHL1   H1A 2779   2.247   2.002   8.111  0.0935  0.1706  0.2999
   22CHL1   H1B 2780   2.385   1.890   8.166  1.3918  0.1574 -0.2534
   22CHL1    C2 2781   2.310   2.030   8.310 -0.1577  1.3327 -0.2021
   22CHL1   H2A 2782   2.231   1.962   8.350  0.2005  0.9984 -0.0522
   22CHL1   H2B 2783   2.253   2.125   8.313 -0.2174  1.2743  1.3650
   22CHL1   C20 2784   2.597   1.931   7.418 -0.2970 -0.3958  0.1031
   22CHL1   H20 2785   2.582   2.038   7.391  1.1354  0.1263  1.2296
   22CHL1   C21 2786   2.465   1.852   7.411  0.2497  0.3280 -0.5301
   22CHL1  H21A 2787   2.451   1.799   7.315 -2.0625 -0.6045  0.2418
   22CHL1  H21B 2788   2.385   1.927   7.430  0.1494  0.3232 -0.9428
   22CHL1  H21C 2789   2.458   1.780   7.495  2.3870  1.2481  0.5339
   22CHL1   C22 2790   2.704   1.854   7.326 -0.0932 -0.4846 -0.1636
   22CHL1  H22A 2791   2.666   1.853   7.222 -0.7289  2.1349 -0.0192
   22CHL1  H22B 2792   2.800   1.910   7.323 -0.3500 -0.0785 -0.8031
   22CHL1   C23 2793   2.742   1.707   7.360 -0.0983 -0.0746  0.9048
   22CHL1  H23A 2794   2.796   1.704   7.457  3.7064  1.2124 -0.9823
   22CHL1  H23B 2795   2.649   1.645   7.358  1.6155 -2.8651  1.7343
   22CHL1   C24 2796   2.838   1.640   7.252 -0.2592 -0.2832  0.0559
   22CHL1  H24A 2797   2.790   1.650   7.153 -0.5371 -2.9030 -0.1545
   22CHL1  H24B 2798   2.936   1.691   7.257  0.1700 -0.9380 -1.2564
   22CHL1   C25 2799   2.841   1.485   7.265 -0.4378 -0.1087 -0.0855
   22CHL1   H25 2800   2.733   1.459   7.275 -0.2011 -0.7274  1.0358
   22CHL1   C26 2801   2.906   1.408   7.141  0.0262  0.4902  0.1183
   22CHL1  H26A 2802   3.013   1.435   7.128  0.9273 -3.2255 -1.8112
   22CHL1  H26B 2803   2.917   1.303   7.176  1.4834  0.6272  0.1128
   22CHL1  H26C 2804   2.843   1.431   7.052 -1.3336  1.1613  1.2108
   22CHL1   C27 2805   2.920   1.442   7.393  0.2556 -0.6069 -0.2429
   22CHL1  H27A 2806   3.030   1.444   7.376  0.5008 -0.0649  1.2096
   22CHL1  H27B 2807   2.888   1.507   7.477 -0.1294 -1.9758  0.7116
   22CHL1  H27C 2808   2.898   1.341   7.433  1.5586 -1.0936 -0.7213
   23CHL1    C3 2809   5.769   2.853   8.194  0.3866  0.2806  0.5519
   23CHL1    H3 2810   5.691   2.799   8.136  0.6839  0.1993  0.2190
   23CHL1    O3 2811   5.732   2.856   8.328 -0.2310 -0.2174  0.0882
   23CHL1   H3' 2812   5.809   2.830   8.379 -1.5826 -0.0709  2.3114
   23CHL1    C4 2813   5.894   2.754   8.187 -0.2636 -0.5656 -0.0923
   23CHL1   H4A 2814   5.968   2.773   8.268 -1.0812 -0.8822  0.7525
   23CHL1   H4B 2815   5.867   2.655   8.228  1.2800 -2.1904 -2.7520
   23CHL1    C5 2816   5.947   2.739   8.047 -0.8376  0.8163 -0.0633
   23CHL1    C6 2817   5.961   2.618   7.994  0.3523  1.1153 -0.1882
   23CHL1    H6 2818   5.927   2.533   8.057  0.9347 -0.4110 -1.8576
   23CHL1    C7 2819   6.002   2.593   7.852 -0.3009 -0.3621 -0.3261
   23CHL1   H7A 2820   6.079   2.513   7.841  0.1933  0.1436 -0.6607
   23CHL1   H7B 2821   5.909   2.560   7.802 -1.5149 -0.3867  1.8503
   23CHL1    C8 2822   6.060   2.723   7.792 -0.2909  0.2923  0.2280
   23CHL1    H8 2823   6.162   2.742   7.832  0.1510  0.8537 -1.1168
   23CHL1   C14 2824   6.061   2.706   7.643  0.7148 -0.7532 -0.1104
   23CHL1   H14 2825   5.959   2.682   7.606 -0.1947  1.2402  0.9791
   23CHL1   C15 2826   6.142   2.587   7.589 -0.3867  0.4785  0.2103
   23CHL1  H15A 2827   6.244   2.573   7.630  0.3999  0.1708 -1.7223
   23CHL1  H15B 2828   6.099   2.488   7.616  2.4365 -0.3614  2.1130
   23CHL1   C16 2829   6.137   2.607   7.439 -0.2245 -0.2047  0.5822
   23CHL1  H16A 2830   6.233   2.586   7.386  0.0491  1.5768  0.3355
   23CHL1  H16B 2831   6.062   2.540   7.392  0.8003 -0.1808 -1.1796
   23CHL1   C17 2832   6.099   2.757   7.419 -0.4694  0.9275 -0.1972
   23CHL1   H17 2833   5.989   2.755   7.402 -0.4277 -0.0746 -0.4036
   23CHL1   C13 2834   6.112   2.828   7.560  0.4235  0.1435 -0.2331
   23CHL1   C18 2835   6.260   2.871   7.592  0.4248  1.0227 -0.0692
   23CHL1  H18A 2836   6.326   2.795   7.545 -0.2735  0.9042 -0.8900
   23CHL1  H18B 2837   6.276   2.973   7.551  1.8037  1.1137  0.6396
   23CHL1  H18C 2838   6.284   2.875   7.700  1.0335  0.2205 -0.1650
   23CHL1   C12 2839   6.007   2.937   7.592  0.4810 -0.5374  0.8930
   23CHL1  H12A 2840   6.039   3.026   7.535  2.1864 -1.9936 -0.5635
   23CHL1  H12B 2841   5.903   2.911   7.565 -0.2882  1.7257  1.4992
   23CHL1   C11 2842   6.006   2.970   7.741  0.7174 -0.3991 -0.7384
   23CHL1  H11A 2843   6.100   3.024   7.766  0.5723 -0.8550  0.9214
   23CHL1  H11B 2844   5.922   3.041   7.758 -0.5518 -1.7971 -1.0158
   23CHL1    C9 2845   5.976   2.842   7.825 -0.5904  0.2655 -0.7225
   23CHL1    H9 2846   5.875   2.818   7.788 -1.1404  1.2436  0.0719
   23CHL1   C10 2847   5.971   2.872   7.973 -0.7821 -0.1797 -0.2642
   23CHL1   C19 2848   6.105   2.927   8.030  0.6225 -0.0920  0.9765
   23CHL1  H19A 2849   6.118   3.029   7.990 -1.1168  0.3234  1.3497
   23CHL1  H19B 2850   6.103   2.934   8.141 -0.2555  2.0275  0.8705
   23CHL1  H19C 2851   6.183   2.854   8.002  1.0450  0.5811  0.3938
   23CHL1    C1 2852   5.852   2.972   7.993 -0.4429  0.5892  0.9093
   23CHL1   H1A 2853   5.876   3.072   7.951 -1.1886  0.1557 -0.6298
   23CHL1   H1B 2854   5.770   2.934   7.929  1.4215 -0.2827 -1.0946
   23CHL1    C2 2855   5.790   2.992   8.133  0.0423  0.3110  0.1251
   23CHL1   H2A 2856   5.686   3.030   8.121 -0.0271 -0.0846 -0.6150
   23CHL1   H2B 2857   5.862   3.050   8.194  0.2968  0.3537 -0.2102
   23CHL1   C20 2858   6.171   2.828   7.291 -0.3703  0.0494 -0.0402
   23CHL1   H20 2859   6.280   2.819   7.309 -0.4948 -0.8360  0.3302
   23CHL1   C21 2860   6.116   2.976   7.278  0.7560 -0.3451 -0.1966
   23CHL1  H21A 2861   6.144   3.035   7.367 -1.9864 -0.1119  0.6034
   23CHL1  H21B 2862   6.006   2.971   7.293  0.8092 -1.6810 -0.1419
   23CHL1  H21C 2863   6.154   3.032   7.190 -0.5457  0.1128 -0.4897
   23CHL1   C22 2864   6.147   2.756   7.157 -0.6249 -0.2017  0.0855
   23CHL1  H22A 2865   6.200   2.659   7.168 -0.1458  0.2422  2.3142
   23CHL1  H22B 2866   6.039   2.737   7.136 -0.9263  2.9179 -1.7260
   23CHL1   C23 2867   6.211   2.838   7.041  0.8297  0.3236  0.9799
   23CHL1  H23A 2868   6.142   2.919   7.009 -2.4175 -1.9029  1.9385
   23CHL1  H23B 2869   6.317   2.861   7.067  2.3133  0.4798 -3.9797
   23CHL1   C24 2870   6.213   2.745   6.913 -0.4376 -0.0820 -0.1333
   23CHL1  H24A 2871   6.253   2.645   6.939  0.9240  0.0846 -1.4662
   23CHL1  H24B 2872   6.118   2.713   6.865 -0.6526 -1.4598  1.1491
   23CHL1   C25 2873   6.317   2.796   6.819  0.3084  0.1162 -0.1953
   23CHL1   H25 2874   6.417   2.797   6.868 -0.0397 -2.0190  0.6639
   23CHL1   C26 2875   6.338   2.697   6.697  0.9836 -0.3513 -0.3759
   23CHL1  H26A 2876   6.239   2.665   6.658  1.0789  1.1215 -1.8938
   23CHL1  H26B 2877   6.388   2.744   6.610 -2.1927  1.4614 -1.3851
   23CHL1  H26C 2878   6.383   2.599   6.726  0.2294 -1.3129 -2.2730
   23CHL1   C27 2879   6.281   2.931   6.766 -0.0274  0.5762 -0.0220
   23CHL1  H27A 2880   6.265   3.010   6.843 -0.7359 -0.9354  1.4271
   23CHL1  H27B 2881   6.361   2.960   6.694  1.5988 -1.4076  0.8705
   23CHL1  H27C 2882   6.185   2.923   6.712 -1.6771 -0.1003  2.8242
   24CHL1    C3 2883   2.513   5.100   7.997  0.2984 -0.4203  0.6238
   24CHL1    H3 2884   2.538   4.993   7.983  0.6026 -0.4209  1.1494
   24CHL1    O3 2885   2.464   5.104   8.128 -0.5677  0.0309  0.3812
   24CHL1   H3' 2886   2.536   5.147   8.175 -1.2900  1.7186  0.0326
   24CHL1    C4 2887   2.641   5.187   7.984 -0.0824  0.0510 -0.2362
   24CHL1   H4A 2888   2.621   5.295   7.998 -1.6209  0.0422 -2.0228
   24CHL1   H4B 2889   2.703   5.141   8.065 -0.0134 -0.1935 -0.4278
   24CHL1    C5 2890   2.703   5.155   7.847 -0.1448 -0.7717  1.1527
   24CHL1    C6 2891   2.829   5.110   7.824  0.4314  0.5043 -0.4521
   24CHL1    H6 2892   2.885   5.077   7.914 -0.3626  1.7173  0.5269
   24CHL1    C7 2893   2.889   5.097   7.682  0.2526 -0.0524  0.0247
   24CHL1   H7A 2894   2.986   5.148   7.665 -0.9950  1.6079 -2.8350
   24CHL1   H7B 2895   2.899   4.987   7.669  0.0189 -0.0113 -0.5217
   24CHL1    C8 2896   2.810   5.157   7.567  0.1832  0.2261  0.1964
   24CHL1    H8 2897   2.815   5.267   7.582 -0.8352  0.2843  0.1401
   24CHL1   C14 2898   2.862   5.123   7.424  0.6102 -0.0798 -0.0587
   24CHL1   H14 2899   2.859   5.013   7.413  2.4807 -0.8274  4.5247
   24CHL1   C15 2900   3.013   5.147   7.400 -1.0273  0.2562 -0.4757
   24CHL1  H15A 2901   3.049   5.247   7.434 -2.2855 -0.1963  2.5292
   24CHL1  H15B 2902   3.073   5.074   7.459  0.6871  1.6085 -0.4540
   24CHL1   C16 2903   3.026   5.141   7.247 -0.3852 -0.3683 -0.7999
   24CHL1  H16A 2904   3.078   5.236   7.224  0.6414 -0.4565  1.0362
   24CHL1  H16B 2905   3.083   5.051   7.216 -0.5644 -1.5547  2.0106
   24CHL1   C17 2906   2.877   5.142   7.189 -0.3373 -0.4417  0.2926
   24CHL1   H17 2907   2.852   5.038   7.159 -3.2641  0.5352 -1.0429
   24CHL1   C13 2908   2.784   5.182   7.311  0.3799 -0.2329  0.3345
   24CHL1   C18 2909   2.790   5.334   7.333  0.0540  0.2161 -0.2626
   24CHL1  H18A 2910   2.711   5.360   7.407 -1.5749 -0.6531 -1.6260
   24CHL1  H18B 2911   2.895   5.362   7.356 -0.4756 -0.2899  3.2448
   24CHL1  H18C 2912   2.765   5.392   7.241 -1.8194 -1.9379 -1.2014
   24CHL1   C12 2913   2.640   5.130   7.329  0.1167  0.3188  1.2336
   24CHL1  H12A 2914   2.581   5.166   7.242 -0.0325 -1.7399  0.4339
   24CHL1  H12B 2915   2.635   5.019   7.317 -3.6728  0.4763  0.0424
   24CHL1   C11 2916   2.575   5.168   7.467 -0.9276 -0.0069  0.9275
   24CHL1  H11A 2917   2.556   5.278   7.469  1.3357  0.4387  0.3103
   24CHL1  H11B 2918   2.477   5.115   7.471 -0.7270 -0.6774 -1.4216
   24CHL1    C9 2919   2.664   5.127   7.592  0.7848 -0.1148  0.1362
   24CHL1    H9 2920   2.659   5.016   7.589  1.0431 -0.1245 -2.7872
   24CHL1   C10 2921   2.604   5.175   7.723 -0.7992 -1.2038 -0.2474
   24CHL1   C19 2922   2.580   5.329   7.715 -0.2544 -0.4230 -0.1825
   24CHL1  H19A 2923   2.499   5.352   7.643 -0.4038 -1.2798 -0.3010
   24CHL1  H19B 2924   2.548   5.373   7.812 -0.7677 -0.7321 -0.2077
   24CHL1  H19C 2925   2.665   5.394   7.687 -1.2920  1.4440  0.7966
   24CHL1    C1 2926   2.464   5.110   7.759 -0.8220  0.1604 -0.8366
   24CHL1   H1A 2927   2.390   5.137   7.680  1.8126  1.7395 -2.9377
   24CHL1   H1B 2928   2.491   5.002   7.761 -2.0061 -0.1990 -2.2675
   24CHL1    C2 2929   2.412   5.143   7.898 -0.0565 -0.0610  0.8004
   24CHL1   H2A 2930   2.322   5.086   7.930 -0.0043 -0.1128  0.8559
   24CHL1   H2B 2931   2.392   5.251   7.910  0.5618  0.0880  0.5287
   24CHL1   C20 2932   2.872   5.225   7.054 -0.6775  0.6666  0.3621
   24CHL1   H20 2933   2.894   5.330   7.081  3.3347 -0.0692  0.5990
   24CHL1   C21 2934   2.736   5.211   6.978 -0.2325  0.1369  0.0085
   24CHL1  H21A 2935   2.713   5.106   6.951  0.7708  0.0670 -0.6466
   24CHL1  H21B 2936   2.737   5.280   6.891 -0.2955  1.0229  0.6970
   24CHL1  H21C 2937   2.649   5.240   7.041 -1.6100  1.1607 -2.2620
   24CHL1   C22 2938   2.991   5.176   6.963  0.1874 -0.0867 -0.1085
   24CHL1  H22A 2939   3.091   5.191   7.009  0.3209 -0.1830 -0.3591
   24CHL1  H22B 2940   2.985   5.068   6.935  1.0286 -0.3581  0.7090
   24CHL1   C23 2941   2.999   5.254   6.827  0.2848 -0.3519 -0.3305
   24CHL1  H23A 2942   2.919   5.233   6.753  2.5595 -0.1792 -3.0156
   24CHL1  H23B 2943   2.985   5.358   6.863  0.5413  0.2347 -1.8391
   24CHL1   C24 2944   3.132   5.250   6.760 -0.0015  1.0375  0.0626
   24CHL1  H24A 2945   3.135   5.321   6.675 -0.0767  0.2731 -0.5940
   24CHL1  H24B 2946   3.211   5.281   6.832  2.2218 -0.0765 -1.7557
   24CHL1   C25 2947   3.161   5.113   6.699 -0.1371 -1.1136  0.1737
   24CHL1   H25 2948   3.160   5.042   6.784  2.4450 -0.1421  1.1248
   24CHL1   C26 2949   3.063   5.057   6.598  0.0787  0.3944  0.5398
   24CHL1  H26A 2950   3.090   4.958   6.556 -2.2569  0.1775 -0.6459
   24CHL1  H26B 2951   2.966   5.044   6.650 -0.8555 -0.0525 -1.2230
   24CHL1  H26C 2952   3.041   5.130   6.517  0.7895  0.7391  0.6558
   24CHL1   C27 2953   3.301   5.119   6.638  0.3292  0.8491 -0.4081
   24CHL1  H27A 2954   3.321   5.205   6.570  1.1813  1.9280  1.1320
   24CHL1  H27B 2955   3.372   5.120   6.723  0.8902 -0.0851 -0.8593
   24CHL1  H27C 2956   3.317   5.024   6.584  2.7201  1.5278 -0.9845
   25CHL1    C3 2957   6.771   1.478   8.495  0.3879 -0.5512  0.4041
   25CHL1    H3 2958   6.689   1.410   8.463  0.4562  0.9606 -3.4212
   25CHL1    O3 2959   6.763   1.495   8.638  0.6754 -0.4293  0.4179
   25CHL1   H3' 2960   6.837   1.552   8.661  1.2378 -0.2646 -1.5529
   25CHL1    C4 2961   6.899   1.400   8.461 -0.4614 -0.4331 -0.3362
   25CHL1   H4A 2962   6.979   1.469   8.496 -1.9291  2.0237 -1.5734
   25CHL1   H4B 2963   6.895   1.305   8.519  0.9770 -2.0417 -2.6973
   25CHL1    C5 2964   6.899   1.378   8.309  0.4326 -0.2954  0.3092
   25CHL1    C6 2965   6.894   1.251   8.269  0.5448  0.4001 -0.0280
   25CHL1    H6 2966   6.887   1.162   8.333 -0.8370  0.5770  0.1148
   25CHL1    C7 2967   6.896   1.212   8.129  0.1635 -0.0908  0.1794
   25CHL1   H7A 2968   6.959   1.124   8.104 -2.6120 -1.7211 -1.6821
   25CHL1   H7B 2969   6.797   1.170   8.103  0.2723 -0.8329  0.9321
   25CHL1    C8 2970   6.931   1.329   8.031 -0.4380 -0.0808  0.1586
   25CHL1    H8 2971   7.040   1.348   8.044 -0.8126  0.4830  3.3234
   25CHL1   C14 2972   6.895   1.306   7.893 -0.1216  0.0389  0.1948
   25CHL1   H14 2973   6.784   1.306   7.889 -0.1736 -2.4147  0.2257
   25CHL1   C15 2974   6.951   1.171   7.835  0.8463 -0.3374 -0.5358
   25CHL1  H15A 2975   7.058   1.159   7.859  1.1295  2.7906  0.1806
   25CHL1  H15B 2976   6.897   1.076   7.856  1.0298 -0.8685 -2.2939
   25CHL1   C16 2977   6.932   1.193   7.682  0.7565  0.5615  0.8333
   25CHL1  H16A 2978   7.013   1.149   7.619 -1.5572 -1.3417 -0.9906
   25CHL1  H16B 2979   6.837   1.139   7.661  1.0105  0.7705 -1.0102
   25CHL1   C17 2980   6.910   1.344   7.657  0.4814 -0.0460  0.2984
   25CHL1   H17 2981   6.800   1.360   7.644  0.3546 -0.7927  0.3712
   25CHL1   C13 2982   6.952   1.408   7.791 -0.3007  0.2049  0.2102
   25CHL1   C18 2983   7.107   1.413   7.801  0.7291  0.2650  0.2450
   25CHL1  H18A 2984   7.139   1.498   7.738 -1.6991  1.2968  0.3251
   25CHL1  H18B 2985   7.148   1.438   7.902  1.5639  0.0041 -0.0159
   25CHL1  H18C 2986   7.149   1.321   7.755 -2.3756 -1.4835  0.6734
   25CHL1   C12 2987   6.879   1.543   7.814  0.6796  0.0783  0.3781
   25CHL1  H12A 2988   6.906   1.631   7.753 -1.0784  1.4962  1.5453
   25CHL1  H12B 2989   6.770   1.524   7.806  0.6451  0.9363 -2.2234
   25CHL1   C11 2990   6.899   1.581   7.968 -0.1896  0.3116  0.9897
   25CHL1  H11A 2991   7.004   1.608   7.990  1.2763 -3.9419  0.0961
   25CHL1  H11B 2992   6.831   1.667   7.987 -0.2948  0.4991 -0.1561
   25CHL1    C9 2993   6.868   1.465   8.068 -0.4503  0.3113  0.2588
   25CHL1    H9 2994   6.758   1.451   8.064 -0.2456 -1.1368 -1.2084
   25CHL1   C10 2995   6.899   1.508   8.224 -0.6794  0.8384 -0.4060
   25CHL1   C19 2996   7.034   1.585   8.238  0.2470  0.8600  0.0901
   25CHL1  H19A 2997   7.111   1.520   8.191 -0.7416 -0.8799  0.7806
   25CHL1  H19B 2998   7.026   1.684   8.189 -1.8504  0.3516 -0.6823
   25CHL1  H19C 2999   7.071   1.606   8.341  2.9110  0.5014 -0.7049
   25CHL1    C1 3000   6.778   1.596   8.275  0.0110 -0.1587  0.0056
   25CHL1   H1A 3001   6.795   1.692   8.221  1.0558  0.0545  0.7012
   25CHL1   H1B 3002   6.681   1.554   8.240  1.0330 -1.2829 -1.6090
   25CHL1    C2 3003   6.778   1.620   8.427  0.0107  0.4278  0.4192
   25CHL1   H2A 3004   6.692   1.678   8.466 -0.1516  0.3161  0.2330
   25CHL1   H2B 3005   6.872   1.675   8.448 -0.5274  2.5218 -2.1779
   25CHL1   C20 3006   6.984   1.403   7.532  1.1387 -0.4906  0.5536
   25CHL1   H20 3007   7.095   1.395   7.533  1.2487  0.6866  2.3112
   25CHL1   C21 3008   6.967   1.558   7.526  0.1407  0.3192  0.6164
   25CHL1  H21A 3009   6.862   1.590   7.545  0.4045  0.1410  2.6017
   25CHL1  H21B 3010   7.011   1.603   7.434  2.2130 -0.7584  1.0358
   25CHL1  H21C 3011   7.033   1.607   7.601 -0.2511  0.4256  0.8963
   25CHL1   C22 3012   6.940   1.339   7.394 -0.1839 -0.2827 -0.0225
   25CHL1  H22A 3013   6.937   1.229   7.411  0.9945 -0.4195 -0.6041
   25CHL1  H22B 3014   6.840   1.387   7.383  1.0005  2.4560  0.4796
   25CHL1   C23 3015   7.027   1.368   7.273  0.2941  0.4472 -0.6343
   25CHL1  H23A 3016   7.009   1.474   7.244  2.0125  0.9933  0.1662
   25CHL1  H23B 3017   7.134   1.358   7.302 -0.1427  0.8279  1.2417
   25CHL1   C24 3018   6.994   1.289   7.148  0.1031  0.0278  0.1258
   25CHL1  H24A 3019   7.003   1.180   7.165  1.8481  0.2712  1.0169
   25CHL1  H24B 3020   6.896   1.317   7.104  0.4495  1.1527  0.0305
   25CHL1   C25 3021   7.092   1.313   7.030  0.0650 -0.2054  0.4327
   25CHL1   H25 3022   7.191   1.332   7.078 -1.4256  0.2131  3.5594
   25CHL1   C26 3023   7.110   1.188   6.945  0.4764 -0.0817  0.1226
   25CHL1  H26A 3024   7.006   1.174   6.909 -0.4725  1.4359  2.0747
   25CHL1  H26B 3025   7.188   1.218   6.870  2.6576  0.6231  2.5132
   25CHL1  H26C 3026   7.135   1.102   7.011 -3.2469 -2.1998 -0.9814
   25CHL1   C27 3027   7.057   1.436   6.944  0.1301 -0.5559 -0.3009
   25CHL1  H27A 3028   7.128   1.441   6.858  2.1023 -3.8099  0.9779
   25CHL1  H27B 3029   6.956   1.434   6.899  0.6183  0.8087 -1.5517
   25CHL1  H27C 3030   7.059   1.531   7.002  0.2210  0.2469 -1.5757
   26CHL1    C3 3031   3.051   2.892   7.683 -0.2790  0.6352 -0.4149
   26CHL1    H3 3032   3.145   2.914   7.629 -0.0994 -2.7616 -1.7827
   26CHL1    O3 3033   3.058   2.870   7.821 -0.4310 -0.1897 -0.5087
   26CHL1   H3' 3034   2.969   2.862   7.855  0.9294  1.4281  4.2699
   26CHL1    C4 3035   2.973   3.021   7.660  0.2109  0.2988 -0.6066
   26CHL1   H4A 3036   2.873   3.016   7.709 -0.2165  0.4226 -1.4473
   26CHL1   H4B 3037   3.033   3.096   7.715 -0.2269  0.1821  0.0349
   26CHL1    C5 3038   2.969   3.064   7.515  1.1929  0.1523  0.3098
   26CHL1    C6 3039   3.006   3.180   7.463  0.6634  0.0715 -0.3228
   26CHL1    H6 3040   3.037   3.261   7.532 -1.2663  1.5432 -1.0912
   26CHL1    C7 3041   3.010   3.215   7.314 -0.1054  0.5280 -0.5275
   26CHL1   H7A 3042   2.988   3.324   7.302 -1.6781  0.3116  0.0928
   26CHL1   H7B 3043   3.110   3.195   7.271 -1.0671  1.0543 -3.2868
   26CHL1    C8 3044   2.920   3.114   7.239  0.4424  0.3090  0.0146
   26CHL1    H8 3045   2.819   3.141   7.277  1.1345  2.1176  0.6705
   26CHL1   C14 3046   2.932   3.135   7.085  0.5668 -0.0864  0.1999
   26CHL1   H14 3047   3.038   3.108   7.066  0.2796 -1.1905  0.0887
   26CHL1   C15 3048   2.933   3.281   7.031 -0.6623  0.1270 -0.4393
   26CHL1  H15A 3049   2.848   3.333   7.079 -0.2978 -0.4111  0.8342
   26CHL1  H15B 3050   3.028   3.334   7.055 -1.5149  1.3435  0.3448
   26CHL1   C16 3051   2.903   3.251   6.879 -0.1892  0.7575 -0.0242
   26CHL1  H16A 3052   2.817   3.306   6.836 -0.9272 -1.9622 -2.3091
   26CHL1  H16B 3053   2.996   3.287   6.830 -0.0844  1.7580  0.8797
   26CHL1   C17 3054   2.894   3.104   6.856  0.1350 -0.1025  0.3251
   26CHL1   H17 3055   2.999   3.069   6.841  0.1915 -0.6694  1.9230
   26CHL1   C13 3056   2.842   3.045   6.994 -1.0445 -0.2267  0.1624
   26CHL1   C18 3057   2.694   3.081   7.018  0.9401  0.2477  0.2793
   26CHL1  H18A 3058   2.672   3.188   6.999 -1.5560 -0.0319  1.2626
   26CHL1  H18B 3059   2.624   3.020   6.957  1.8950  0.6954 -1.3309
   26CHL1  H18C 3060   2.673   3.060   7.124 -0.7544  0.9041  0.0908
   26CHL1   C12 3061   2.886   2.898   7.028 -0.0014 -0.3084  0.3051
   26CHL1  H12A 3062   2.828   2.823   6.970  1.8419 -1.2192 -0.4542
   26CHL1  H12B 3063   2.988   2.888   6.985 -0.6822 -1.8622 -1.0470
   26CHL1   C11 3064   2.873   2.870   7.182  0.1114  0.5139 -0.3064
   26CHL1  H11A 3065   2.763   2.862   7.197 -0.0077  1.3958 -0.6688
   26CHL1  H11B 3066   2.916   2.767   7.187 -0.6780 -0.1586 -4.1565
   26CHL1    C9 3067   2.948   2.971   7.275 -0.3234  0.1649 -0.6028
   26CHL1    H9 3068   3.055   2.950   7.256 -0.3558 -0.3822 -0.2109
   26CHL1   C10 3069   2.917   2.940   7.425 -0.5072 -0.2750  0.8195
   26CHL1   C19 3070   2.769   2.924   7.445  0.7494  0.6175 -0.0115
   26CHL1  H19A 3071   2.737   2.830   7.396  2.1605  0.1760 -0.1328
   26CHL1  H19B 3072   2.743   2.914   7.553 -1.4260 -2.6110 -0.7079
   26CHL1  H19C 3073   2.718   3.008   7.393  0.6510  0.8379  0.4365
   26CHL1    C1 3074   2.978   2.800   7.466 -0.2577 -0.2069 -0.1601
   26CHL1   H1A 3075   2.929   2.714   7.415  2.1275 -2.1680  0.6169
   26CHL1   H1B 3076   3.080   2.790   7.423  0.3165 -0.0015  1.1209
   26CHL1    C2 3077   2.983   2.775   7.619  0.7271  0.0989 -0.1076
   26CHL1   H2A 3078   3.027   2.677   7.646  0.2093 -0.8584 -2.4431
   26CHL1   H2B 3079   2.875   2.774   7.643  0.4319 -0.8223 -1.3713
   26CHL1   C20 3080   2.814   3.048   6.728 -0.0578 -0.1053 -0.1362
   26CHL1   H20 3081   2.774   2.949   6.756  0.3353 -0.3703 -0.4946
   26CHL1   C21 3082   2.917   3.007   6.623 -0.0779 -0.1629  0.7721
   26CHL1  H21A 3083   2.860   2.961   6.540 -1.1367  1.0828  0.7645
   26CHL1  H21B 3084   2.982   2.926   6.662 -0.1520 -1.4494 -1.5902
   26CHL1  H21C 3085   2.973   3.095   6.583 -0.0688 -1.1595 -1.5424
   26CHL1   C22 3086   2.694   3.132   6.685 -0.3450  0.3696  0.6169
   26CHL1  H22A 3087   2.635   3.175   6.769 -1.3270 -0.6625  0.4867
   26CHL1  H22B 3088   2.723   3.225   6.633 -0.4625 -0.0400 -0.1865
   26CHL1   C23 3089   2.590   3.059   6.601  0.5783  0.3999  0.2704
   26CHL1  H23A 3090   2.614   3.038   6.495  1.0881  1.0399  0.2529
   26CHL1  H23B 3091   2.561   2.962   6.647 -0.9043 -0.2908 -1.9399
   26CHL1   C24 3092   2.452   3.141   6.593 -0.1158 -0.2717 -0.0010
   26CHL1  H24A 3093   2.427   3.180   6.694 -0.8847  0.5057 -0.4791
   26CHL1  H24B 3094   2.479   3.227   6.529  2.2715 -0.8674  0.0864
   26CHL1   C25 3095   2.333   3.056   6.557 -0.2305 -0.0239 -0.1948
   26CHL1   H25 3096   2.344   2.963   6.617 -0.2594 -0.3167 -0.6452
   26CHL1   C26 3097   2.202   3.124   6.598 -0.9472  0.3698  0.2036
   26CHL1  H26A 3098   2.198   3.137   6.708  1.5834  0.2446  0.3753
   26CHL1  H26B 3099   2.187   3.222   6.548  0.4145 -0.3733 -1.8113
   26CHL1  H26C 3100   2.113   3.062   6.575 -1.3151  0.0033  2.4366
   26CHL1   C27 3101   2.329   3.017   6.404  0.6495  0.4704 -0.4363
   26CHL1  H27A 3102   2.422   2.962   6.377  1.0133  0.2273  1.1757
   26CHL1  H27B 3103   2.251   2.940   6.389  0.9624  0.1819 -0.5960
   26CHL1  H27C 3104   2.318   3.109   6.343  2.3887 -0.2723 -1.9877
   27CHL1    C3 3105   5.059   2.947   8.427 -0.0598  0.4701  0.1750
   27CHL1    H3 3106   4.984   2.866   8.415 -3.8549  3.6018  0.6462
   27CHL1    O3 3107   5.032   3.023   8.551  0.5643  0.3975  0.4557
   27CHL1   H3' 3108   5.083   3.103   8.539  0.0938  0.6128 -0.2178
   27CHL1    C4 3109   5.206   2.887   8.431  0.3776 -0.5513 -0.0580
   27CHL1   H4A 3110   5.275   2.973   8.444 -0.6665  0.3512 -0.3593
   27CHL1   H4B 3111   5.214   2.822   8.521  0.0565  0.0185  0.3888
   27CHL1    C5 3112   5.248   2.815   8.304 -0.1557  0.1396 -0.4619
   27CHL1    C6 3113   5.299   2.684   8.305  0.1975 -0.3681  0.0155
   27CHL1    H6 3114   5.309   2.639   8.404  0.8631  0.9082  0.5507
   27CHL1    C7 3115   5.369   2.626   8.181 -0.2175 -0.6078  0.1991
   27CHL1   H7A 3116   5.468   2.583   8.207 -0.2394  0.1722  1.6812
   27CHL1   H7B 3117   5.306   2.541   8.147 -1.0049 -0.2800  0.8022
   27CHL1    C8 3118   5.392   2.722   8.063  0.5993  0.3978 -0.2003
   27CHL1    H8 3119   5.473   2.791   8.094 -1.3974  3.1929 -0.8288
   27CHL1   C14 3120   5.406   2.643   7.935  0.2254  0.3912 -0.4543
   27CHL1   H14 3121   5.312   2.588   7.911 -0.5960  3.0855 -4.6036
   27CHL1   C15 3122   5.521   2.541   7.935 -0.3805 -0.0418  0.1269
   27CHL1  H15A 3123   5.617   2.575   7.980 -0.5928  0.1809  0.4096
   27CHL1  H15B 3124   5.495   2.446   7.987 -1.2543  2.1542  4.0533
   27CHL1   C16 3125   5.546   2.510   7.791  0.9365  0.2362  0.1856
   27CHL1  H16A 3126   5.653   2.531   7.766  1.1493 -0.3327  0.6006
   27CHL1  H16B 3127   5.525   2.408   7.752  0.3959  0.5043 -0.2326
   27CHL1   C17 3128   5.454   2.614   7.709 -0.1930  0.3802  0.3149
   27CHL1   H17 3129   5.350   2.576   7.697 -0.5308  1.1024  0.8799
   27CHL1   C13 3130   5.432   2.727   7.814 -0.6265  0.2054  0.3798
   27CHL1   C18 3131   5.566   2.808   7.822 -0.4546 -0.3660 -0.8583
   27CHL1  H18A 3132   5.561   2.890   7.896 -0.5236  0.6387 -1.9470
   27CHL1  H18B 3133   5.651   2.747   7.859 -0.7935  0.6074  1.7397
   27CHL1  H18C 3134   5.588   2.854   7.724 -0.4970 -1.0306 -1.1864
   27CHL1   C12 3135   5.309   2.821   7.796  0.2635  0.7201  0.1990
   27CHL1  H12A 3136   5.303   2.882   7.704 -0.0219  0.0960 -0.2053
   27CHL1  H12B 3137   5.217   2.761   7.775 -0.2874  1.9155 -0.9381
   27CHL1   C11 3138   5.283   2.906   7.926  0.6143  0.1586  0.1461
   27CHL1  H11A 3139   5.365   2.980   7.929  0.7552  0.0366 -0.4787
   27CHL1  H11B 3140   5.184   2.954   7.908 -0.4879 -1.8053  0.5658
   27CHL1    C9 3141   5.270   2.820   8.050 -0.1070  0.2412 -0.6033
   27CHL1    H9 3142   5.183   2.759   8.020  0.7363 -1.4135  0.1991
   27CHL1   C10 3143   5.235   2.901   8.181  0.0181 -0.1812  0.3128
   27CHL1   C19 3144   5.342   3.013   8.200  0.6066 -0.2927 -0.2158
   27CHL1  H19A 3145   5.311   3.085   8.278 -0.4159 -0.3172 -0.5813
   27CHL1  H19B 3146   5.438   2.966   8.229 -0.1334 -0.5961  1.8624
   27CHL1  H19C 3147   5.347   3.078   8.110 -1.2896  1.3601  0.7718
   27CHL1    C1 3148   5.089   2.962   8.169 -0.7088 -0.0112 -0.3835
   27CHL1   H1A 3149   5.088   3.041   8.090 -1.7006  0.2257 -0.1466
   27CHL1   H1B 3150   5.016   2.881   8.151 -1.0671 -0.3229  2.0996
   27CHL1    C2 3151   5.043   3.034   8.300  0.5073  0.1067  0.2412
   27CHL1   H2A 3152   4.942   3.074   8.277  0.4761 -0.4039 -0.5370
   27CHL1   H2B 3153   5.097   3.128   8.323 -3.0300  2.4156 -0.1404
   27CHL1   C20 3154   5.514   2.649   7.568  0.1240  0.9075  0.1121
   27CHL1   H20 3155   5.609   2.705   7.576  1.0783 -0.5685 -0.5279
   27CHL1   C21 3156   5.412   2.742   7.499  0.4899  0.3949 -0.6428
   27CHL1  H21A 3157   5.308   2.744   7.537  0.2842 -0.5991 -1.1217
   27CHL1  H21B 3158   5.404   2.731   7.388  0.6589  0.9541 -0.7143
   27CHL1  H21C 3159   5.443   2.847   7.520  0.1220  0.4445 -0.3393
   27CHL1   C22 3160   5.547   2.521   7.481  0.8505  1.0508  0.1297
   27CHL1  H22A 3161   5.592   2.439   7.541  1.0680  0.7095 -0.4943
   27CHL1  H22B 3162   5.452   2.482   7.440  0.4988  0.8708  1.0838
   27CHL1   C23 3163   5.640   2.559   7.362 -0.8804 -0.4026 -0.2959
   27CHL1  H23A 3164   5.599   2.654   7.322  0.7443  0.6104  0.3653
   27CHL1  H23B 3165   5.736   2.580   7.414 -1.4329  2.2404 -0.2006
   27CHL1   C24 3166   5.639   2.458   7.251  0.2073  0.4131  0.7422
   27CHL1  H24A 3167   5.675   2.364   7.296  0.6611  0.5879  0.7503
   27CHL1  H24B 3168   5.533   2.445   7.220  0.5583  0.0713 -0.3549
   27CHL1   C25 3169   5.716   2.503   7.125 -0.4132  0.0324 -0.4436
   27CHL1   H25 3170   5.680   2.604   7.096  1.5059  0.0672 -3.0725
   27CHL1   C26 3171   5.863   2.524   7.157 -0.6976  0.2407 -0.3409
   27CHL1  H26A 3172   5.919   2.573   7.074 -0.3468  2.0754  0.9037
   27CHL1  H26B 3173   5.859   2.600   7.238 -1.5814  0.5106 -0.6168
   27CHL1  H26C 3174   5.905   2.430   7.197  1.2922  1.4600  0.5584
   27CHL1   C27 3175   5.709   2.399   7.009  0.2761 -0.5271 -0.1864
   27CHL1  H27A 3176   5.605   2.398   6.969  0.2809  3.6119 -0.7123
   27CHL1  H27B 3177   5.731   2.293   7.036 -0.7659 -0.8952 -0.7326
   27CHL1  H27C 3178   5.778   2.437   6.932 -0.0955  1.0847  0.2393
   28CHL1    C3 3179   3.419   4.294   8.260 -0.1332  0.5683 -0.5937
   28CHL1    H3 3180   3.519   4.338   8.238  0.9643 -1.9915 -1.0733
   28CHL1    O3 3181   3.385   4.352   8.390 -0.7695 -0.1915 -0.1036
   28CHL1   H3' 3182   3.295   4.319   8.404 -1.9059  2.6243 -0.0857
   28CHL1    C4 3183   3.322   4.342   8.147  0.3625  0.2013 -0.4618
   28CHL1   H4A 3184   3.221   4.308   8.179  0.7592 -0.3030  0.2622
   28CHL1   H4B 3185   3.326   4.453   8.158 -0.7659  0.1022  1.2745
   28CHL1    C5 3186   3.355   4.286   8.010 -0.3167  0.1041 -0.6510
   28CHL1    C6 3187   3.368   4.356   7.902 -0.5460 -0.0397 -0.3177
   28CHL1    H6 3188   3.332   4.460   7.909 -0.4162  0.2237 -2.7760
   28CHL1    C7 3189   3.394   4.307   7.759  0.1666 -0.4478 -1.3994
   28CHL1   H7A 3190   3.325   4.357   7.687 -2.3164  2.8016  2.7127
   28CHL1   H7B 3191   3.495   4.337   7.723 -0.1266 -0.5496 -2.3319
   28CHL1    C8 3192   3.390   4.154   7.742 -0.4030  0.7855 -0.6010
   28CHL1    H8 3193   3.282   4.126   7.744 -0.1893 -0.0243 -0.1630
   28CHL1   C14 3194   3.475   4.117   7.618  0.1027 -0.3855 -0.2308
   28CHL1   H14 3195   3.577   4.158   7.634  0.6695 -2.2142  1.2361
   28CHL1   C15 3196   3.427   4.178   7.485  0.4351 -0.1114 -1.1460
   28CHL1  H15A 3197   3.325   4.146   7.455 -0.7393  1.8305  0.5252
   28CHL1  H15B 3198   3.434   4.289   7.490  3.2165 -0.2636  0.9951
   28CHL1   C16 3199   3.527   4.115   7.385  0.3168  0.3524 -0.3553
   28CHL1  H16A 3200   3.478   4.095   7.288  1.2570  1.2853 -1.0476
   28CHL1  H16B 3201   3.618   4.177   7.369  0.3129  0.2160 -0.9063
   28CHL1   C17 3202   3.591   3.991   7.454 -0.3971  0.4568  0.1705
   28CHL1   H17 3203   3.689   4.022   7.496 -0.7538  1.6458  0.1502
   28CHL1   C13 3204   3.507   3.969   7.586 -0.0028  0.5239  0.7814
   28CHL1   C18 3205   3.371   3.896   7.555 -0.0890  0.2651 -0.2394
   28CHL1  H18A 3206   3.295   3.922   7.632 -1.6150 -1.1549 -1.1970
   28CHL1  H18B 3207   3.331   3.936   7.459  0.0768 -0.5152 -0.6419
   28CHL1  H18C 3208   3.382   3.786   7.542  0.4229  0.4368 -1.4216
   28CHL1   C12 3209   3.581   3.913   7.711 -0.1002 -0.6210  0.6114
   28CHL1  H12A 3210   3.587   3.803   7.709  0.6827 -0.5772 -0.1998
   28CHL1  H12B 3211   3.683   3.956   7.719 -0.4621  0.1200  1.4485
   28CHL1   C11 3212   3.504   3.939   7.846  0.4335  0.3586  0.1081
   28CHL1  H11A 3213   3.416   3.872   7.846  1.1166 -0.5827 -1.0810
   28CHL1  H11B 3214   3.572   3.903   7.927 -1.3083 -2.7461  0.3709
   28CHL1    C9 3215   3.454   4.089   7.867  0.1672 -0.1059 -0.6453
   28CHL1    H9 3216   3.555   4.135   7.878  0.8305 -1.3725 -1.1884
   28CHL1   C10 3217   3.391   4.133   8.001 -0.0719  0.2169 -0.2004
   28CHL1   C19 3218   3.258   4.061   8.012  0.6168  1.3906  0.0454
   28CHL1  H19A 3219   3.220   4.095   8.110  3.0075 -0.4347  1.7394
   28CHL1  H19B 3220   3.191   4.090   7.928 -0.7634  0.4915  0.7889
   28CHL1  H19C 3221   3.257   3.950   8.013  1.1519  1.3712 -0.6579
   28CHL1    C1 3222   3.473   4.094   8.120  0.3390 -0.4025 -0.2013
   28CHL1   H1A 3223   3.481   3.983   8.124  0.8476 -0.3455  0.8592
   28CHL1   H1B 3224   3.573   4.136   8.095  0.1089  0.0966 -0.2940
   28CHL1    C2 3225   3.428   4.140   8.267 -0.8055  0.0541  1.0139
   28CHL1   H2A 3226   3.515   4.133   8.335 -0.7269  2.0021  1.1711
   28CHL1   H2B 3227   3.328   4.103   8.300 -1.2048  0.1402 -0.0700
   28CHL1   C20 3228   3.611   3.866   7.366  0.5190 -0.5154 -0.7269
   28CHL1   H20 3229   3.514   3.822   7.335 -0.7343  0.4006  1.6343
   28CHL1   C21 3230   3.682   3.756   7.454  0.1675 -0.3731  0.3524
   28CHL1  H21A 3231   3.621   3.724   7.541  2.1589  0.0859  1.9887
   28CHL1  H21B 3232   3.774   3.804   7.493 -1.2083  0.7640  2.3659
   28CHL1  H21C 3233   3.708   3.677   7.379  2.1368  1.2843 -0.8141
   28CHL1   C22 3234   3.699   3.902   7.241  0.1917  0.6397  0.5852
   28CHL1  H22A 3235   3.634   3.973   7.185 -0.7794 -0.4480  0.3016
   28CHL1  H22B 3236   3.791   3.961   7.262  1.5483 -0.2583 -2.3484
   28CHL1   C23 3237   3.739   3.786   7.154  0.5075  0.7520  1.0080
   28CHL1  H23A 3238   3.832   3.746   7.199 -0.3126 -0.4543  1.6939
   28CHL1  H23B 3239   3.667   3.701   7.153 -1.3003  2.2269  0.9469
   28CHL1   C24 3240   3.756   3.830   7.000  0.6797 -0.6485 -0.1429
   28CHL1  H24A 3241   3.654   3.828   6.957  0.4651 -2.5035  0.3729
   28CHL1  H24B 3242   3.799   3.932   7.005 -0.7793  0.1246 -1.9789
   28CHL1   C25 3243   3.860   3.760   6.913 -0.4623 -0.0931  0.4290
   28CHL1   H25 3244   3.960   3.790   6.950  0.8716 -3.8258  0.2791
   28CHL1   C26 3245   3.851   3.606   6.932 -0.2418  0.5410  0.2777
   28CHL1  H26A 3246   3.758   3.551   6.906 -0.1202 -0.2900  1.5106
   28CHL1  H26B 3247   3.933   3.565   6.869  0.6580  1.5254  0.7711
   28CHL1  H26C 3248   3.866   3.579   7.039  0.2394  0.3843  0.1745
   28CHL1   C27 3249   3.827   3.787   6.771  0.3146 -0.0294  0.3986
   28CHL1  H27A 3250   3.773   3.881   6.749 -0.2463  0.1735  2.3849
   28CHL1  H27B 3251   3.924   3.787   6.717  0.5631  0.0901  0.8398
   28CHL1  H27C 3252   3.767   3.703   6.731  1.5154 -1.4534  1.4621
   29CHL1    C3 3253   0.322   3.240   8.183  0.2834  0.0952 -0.5349
   29CHL1    H3 3254   0.429   3.210   8.185 -0.1115 -1.6432  3.4901
   29CHL1    O3 3255   0.286   3.251   8.324 -0.2486  0.2776 -0.3718
   29CHL1   H3' 3256   0.191   3.248   8.331 -0.2480  2.6304  3.0049
   29CHL1    C4 3257   0.299   3.373   8.112  0.3588  0.1283 -0.1065
   29CHL1   H4A 3258   0.199   3.412   8.141  0.6256  0.6630  0.0979
   29CHL1   H4B 3259   0.378   3.440   8.153  0.0474  0.8302 -0.6265
   29CHL1    C5 3260   0.327   3.361   7.961  0.3956 -0.1179  0.1296
   29CHL1    C6 3261   0.418   3.443   7.901  0.3387 -0.4704  0.4502
   29CHL1    H6 3262   0.469   3.517   7.964 -0.1549  1.0260 -0.8529
   29CHL1    C7 3263   0.445   3.436   7.753  0.3162 -0.1843 -0.0602
   29CHL1   H7A 3264   0.448   3.540   7.716 -1.0468 -0.2263 -0.3577
   29CHL1   H7B 3265   0.546   3.396   7.733 -0.2112 -1.1076 -0.9891
   29CHL1    C8 3266   0.347   3.334   7.679 -0.0588 -0.2303  0.3643
   29CHL1    H8 3267   0.253   3.390   7.659  0.5601  0.6341 -0.2007
   29CHL1   C14 3268   0.400   3.287   7.542 -1.2713 -0.5503  0.3960
   29CHL1   H14 3269   0.499   3.238   7.555 -1.2979 -0.3945  1.2035
   29CHL1   C15 3270   0.434   3.410   7.452 -0.5144  1.1084 -0.1328
   29CHL1  H15A 3271   0.356   3.489   7.444 -0.2905  1.4868  1.1463
   29CHL1  H15B 3272   0.535   3.440   7.489  1.0529 -1.2679 -2.2270
   29CHL1   C16 3273   0.437   3.350   7.312  0.1809  0.1596  0.2418
   29CHL1  H16A 3274   0.352   3.402   7.262  0.8502  0.2692 -0.8082
   29CHL1  H16B 3275   0.520   3.359   7.239 -0.2394 -0.3546 -0.3079
   29CHL1   C17 3276   0.383   3.197   7.322 -0.2791 -0.7927  0.1098
   29CHL1   H17 3277   0.480   3.143   7.333  1.3351  1.7836 -0.4513
   29CHL1   C13 3278   0.316   3.194   7.464 -0.2343  0.7462 -0.2060
   29CHL1   C18 3279   0.177   3.250   7.439  0.1154  0.3570 -0.3923
   29CHL1  H18A 3280   0.121   3.175   7.380 -0.1768 -2.6607  3.3291
   29CHL1  H18B 3281   0.134   3.249   7.542  1.3569 -0.6302  0.1527
   29CHL1  H18C 3282   0.171   3.349   7.390  0.6141 -0.0441 -1.2799
   29CHL1   C12 3283   0.318   3.062   7.538 -0.1183 -0.0994 -0.8677
   29CHL1  H12A 3284   0.251   2.985   7.494  1.0847 -2.0319  0.4616
   29CHL1  H12B 3285   0.425   3.030   7.543  0.2082  0.8278 -1.6417
   29CHL1   C11 3286   0.270   3.084   7.684 -0.1836  0.0320 -0.3032
   29CHL1  H11A 3287   0.158   3.085   7.683 -0.2850 -2.1773  1.5793
   29CHL1  H11B 3288   0.297   2.989   7.734 -1.0443  0.4769  1.0669
   29CHL1    C9 3289   0.329   3.206   7.758  0.3882 -0.3701 -0.4476
   29CHL1    H9 3290   0.432   3.177   7.790  2.3199  2.1350 -3.6896
   29CHL1   C10 3291   0.255   3.243   7.889  1.0796  0.0872 -0.0469
   29CHL1   C19 3292   0.111   3.287   7.854 -0.0298 -0.0813 -1.0606
   29CHL1  H19A 3293   0.104   3.388   7.810 -1.1861 -0.3639 -1.5651
   29CHL1  H19B 3294   0.038   3.225   7.797 -4.0117  1.9599  1.3735
   29CHL1  H19C 3295   0.063   3.296   7.954  1.4400  2.6976 -0.5217
   29CHL1    C1 3296   0.256   3.118   7.973  1.2190 -0.5837 -0.3203
   29CHL1   H1A 3297   0.185   3.043   7.931 -0.8277  0.5800  0.8857
   29CHL1   H1B 3298   0.352   3.062   7.971  2.7810  1.8969  1.0597
   29CHL1    C2 3299   0.221   3.138   8.122  0.6302 -0.2443  0.1525
   29CHL1   H2A 3300   0.232   3.033   8.156  0.0474 -0.6782 -0.9618
   29CHL1   H2B 3301   0.116   3.159   8.153  0.5175  1.1579 -1.0559
   29CHL1   C20 3302   0.317   3.147   7.192  0.1734 -0.0712  0.1983
   29CHL1   H20 3303   0.230   3.208   7.159  0.2210 -1.4759 -2.8451
   29CHL1   C21 3304   0.255   3.000   7.212 -0.3006  0.6374 -0.1957
   29CHL1  H21A 3305   0.190   2.969   7.128 -1.5404  3.4927 -0.4076
   29CHL1  H21B 3306   0.200   2.998   7.309  1.6355  1.6604  0.9948
   29CHL1  H21C 3307   0.330   2.919   7.218 -1.9826 -0.8795  1.7088
   29CHL1   C22 3308   0.416   3.150   7.069  0.4087 -0.1018 -0.5064
   29CHL1  H22A 3309   0.464   3.250   7.063 -0.1867  0.1538 -1.1495
   29CHL1  H22B 3310   0.503   3.083   7.084  0.0849 -0.6314 -0.9701
   29CHL1   C23 3311   0.357   3.116   6.929 -0.1856  0.2465  0.3613
   29CHL1  H23A 3312   0.326   3.010   6.924  1.3769 -0.1804 -1.8794
   29CHL1  H23B 3313   0.261   3.169   6.909 -1.3785 -1.8102  0.3649
   29CHL1   C24 3314   0.458   3.142   6.813 -0.3488 -0.0989  0.5383
   29CHL1  H24A 3315   0.507   3.242   6.824  1.9859 -0.8645 -1.7974
   29CHL1  H24B 3316   0.535   3.062   6.825  1.0757  1.3522  1.5912
   29CHL1   C25 3317   0.398   3.120   6.676  0.5203 -0.3841  0.2323
   29CHL1   H25 3318   0.483   3.118   6.605 -1.6693 -0.0097 -2.5850
   29CHL1   C26 3319   0.321   2.985   6.654  0.1619  0.2618  0.5183
   29CHL1  H26A 3320   0.293   2.979   6.546  1.9527  2.8227 -0.1898
   29CHL1  H26B 3321   0.383   2.896   6.678 -1.6117 -0.5164  2.4692
   29CHL1  H26C 3322   0.226   2.972   6.710 -1.9267 -1.4177 -3.0120
   29CHL1   C27 3323   0.317   3.242   6.632  0.3568  0.4378 -0.2596
   29CHL1  H27A 3324   0.290   3.235   6.525 -1.7356 -0.4707  0.2896
   29CHL1  H27B 3325   0.222   3.235   6.688  0.7796  1.2444  0.5748
   29CHL1  H27C 3326   0.360   3.341   6.656  1.4955  0.5404 -2.4260
   30CHL1    C3 3327   3.238   4.925   8.084 -0.3891  0.8038  0.8289
   30CHL1    H3 3328   3.134   4.960   8.063  0.0187  0.9479 -1.2082
   30CHL1    O3 3329   3.271   4.935   8.218 -0.2466  1.1276  0.0503
   30CHL1   H3' 3330   3.351   4.883   8.227  0.4794  1.9804 -1.1938
   30CHL1    C4 3331   3.256   4.777   8.040 -0.4868 -0.3771 -0.6144
   30CHL1   H4A 3332   3.364   4.760   8.062  0.1282  2.6292 -0.9522
   30CHL1   H4B 3333   3.193   4.707   8.099 -0.0279 -0.2229  0.0815
   30CHL1    C5 3334   3.238   4.751   7.892  0.3729 -0.2825  1.1698
   30CHL1    C6 3335   3.148   4.661   7.843  0.0123 -0.5799 -0.1378
   30CHL1    H6 3336   3.079   4.603   7.906 -0.5349  0.0355 -0.1474
   30CHL1    C7 3337   3.125   4.643   7.693 -0.5227  0.1917  0.2160
   30CHL1   H7A 3338   3.103   4.537   7.668 -1.2279 -0.2862  2.6456
   30CHL1   H7B 3339   3.038   4.706   7.664 -0.0054  1.2190  0.8372
   30CHL1    C8 3340   3.238   4.695   7.597  0.0659  0.1383  0.2633
   30CHL1    H8 3341   3.309   4.611   7.611 -3.0917 -2.5863  1.0270
   30CHL1   C14 3342   3.194   4.703   7.452  0.6401  0.4761  0.0354
   30CHL1   H14 3343   3.116   4.783   7.454 -2.8205 -2.6080 -0.6282
   30CHL1   C15 3344   3.142   4.572   7.393  0.9079  0.0054 -0.8058
   30CHL1  H15A 3345   3.212   4.501   7.439 -1.2945 -1.3000  0.7062
   30CHL1  H15B 3346   3.044   4.537   7.432  2.1013 -2.6754 -0.0514
   30CHL1   C16 3347   3.150   4.593   7.245  0.4108 -0.8097  0.0387
   30CHL1  H16A 3348   3.189   4.499   7.200  0.9852 -1.7304  2.3050
   30CHL1  H16B 3349   3.042   4.588   7.217 -0.3057 -0.7867  2.4833
   30CHL1   C17 3350   3.213   4.737   7.213  0.7611  0.0285 -0.2823
   30CHL1   H17 3351   3.127   4.807   7.220  1.3527  0.8153 -0.8090
   30CHL1   C13 3352   3.295   4.755   7.350 -0.0731  0.3712  0.9342
   30CHL1   C18 3353   3.423   4.671   7.342 -0.1244 -0.2618 -0.3943
   30CHL1  H18A 3354   3.483   4.694   7.251 -0.8339 -1.6952 -1.2471
   30CHL1  H18B 3355   3.490   4.698   7.427  1.2739 -0.6357 -1.3470
   30CHL1  H18C 3356   3.403   4.563   7.332  1.8237 -0.5635 -1.5619
   30CHL1   C12 3357   3.338   4.898   7.402 -0.5193  0.2263 -0.4481
   30CHL1  H12A 3358   3.421   4.947   7.347 -1.0973 -0.4779 -1.9927
   30CHL1  H12B 3359   3.252   4.963   7.374  0.3507  1.6895  0.1441
   30CHL1   C11 3360   3.385   4.897   7.554  0.4467  0.2339 -0.0087
   30CHL1  H11A 3361   3.482   4.844   7.561  0.3199  0.1963  1.9158
   30CHL1  H11B 3362   3.415   5.000   7.582  2.0251  0.4886 -2.3297
   30CHL1    C9 3363   3.292   4.831   7.646  0.7621 -0.1761 -0.5708
   30CHL1    H9 3364   3.200   4.893   7.647  1.6397  1.2102 -2.1977
   30CHL1   C10 3365   3.330   4.841   7.802  0.6447 -0.7259 -0.0342
   30CHL1   C19 3366   3.471   4.793   7.825  0.2669  0.8008  0.4244
   30CHL1  H19A 3367   3.543   4.858   7.770 -0.1142 -0.0460 -1.1447
   30CHL1  H19B 3368   3.501   4.787   7.932 -1.5615 -2.4366  0.8889
   30CHL1  H19C 3369   3.481   4.691   7.783 -0.6467  0.7033  0.4414
   30CHL1    C1 3370   3.324   4.986   7.850 -0.5041  0.1736  0.2979
   30CHL1   H1A 3371   3.395   5.058   7.803 -2.0964  1.7419  0.1788
   30CHL1   H1B 3372   3.224   5.026   7.822 -0.5473 -1.4250 -2.1328
   30CHL1    C2 3373   3.334   5.008   8.002  0.3574 -0.0287  0.0703
   30CHL1   H2A 3374   3.302   5.114   8.016  2.0110  0.3779  1.1385
   30CHL1   H2B 3375   3.438   4.994   8.039  0.4144  1.0037  0.3376
   30CHL1   C20 3376   3.283   4.749   7.080  0.4155 -0.0605  0.0327
   30CHL1   H20 3377   3.370   4.680   7.081  2.6763  2.5199  3.0475
   30CHL1   C21 3378   3.326   4.895   7.063 -1.0473 -0.1350  0.2759
   30CHL1  H21A 3379   3.364   4.919   6.961  0.3132  2.2497  1.2385
   30CHL1  H21B 3380   3.409   4.913   7.135 -1.3904  2.5212  0.1217
   30CHL1  H21C 3381   3.244   4.965   7.088 -0.1193  0.1540  2.7809
   30CHL1   C22 3382   3.191   4.696   6.959  0.3572 -0.4039 -0.6693
   30CHL1  H22A 3383   3.240   4.733   6.866 -0.2155  0.3007 -0.6978
   30CHL1  H22B 3384   3.173   4.587   6.962 -2.9780  0.0418 -1.2759
   30CHL1   C23 3385   3.054   4.765   6.950 -0.6969 -0.0277 -0.0126
   30CHL1  H23A 3386   2.985   4.732   7.031  0.0557  0.9495  1.0501
   30CHL1  H23B 3387   3.064   4.874   6.970  4.5728 -0.7463  3.1131
   30CHL1   C24 3388   2.984   4.731   6.814 -0.0082  0.1937  0.3936
   30CHL1  H24A 3389   3.054   4.774   6.740  0.4480 -0.9349  0.1534
   30CHL1  H24B 3390   2.988   4.622   6.797  2.3086  0.4437 -1.1097
   30CHL1   C25 3391   2.836   4.795   6.786 -0.3730 -0.3499  0.6260
   30CHL1   H25 3392   2.849   4.905   6.780  0.5135 -0.5137 -1.0428
   30CHL1   C26 3393   2.783   4.761   6.644 -0.4188  0.9747  0.3674
   30CHL1  H26A 3394   2.846   4.797   6.560 -0.2299  1.2800  0.6410
   30CHL1  H26B 3395   2.769   4.651   6.638 -0.0435  0.9025  0.8568
   30CHL1  H26C 3396   2.687   4.816   6.628 -1.0657  0.3824  2.0286
   30CHL1   C27 3397   2.734   4.761   6.889 -0.2184  0.3486  0.4221
   30CHL1  H27A 3398   2.637   4.810   6.866 -0.6358 -0.2306  0.9068
   30CHL1  H27B 3399   2.730   4.650   6.888 -2.4942  0.3761  0.9426
   30CHL1  H27C 3400   2.759   4.788   6.994 -1.4421  0.5479  0.6845
   31CHL1    C3 3401   0.348   4.385   8.474 -0.0884 -0.4987 -0.2262
   31CHL1    H3 3402   0.250   4.334   8.475 -0.0388 -0.6010 -0.6690
   31CHL1    O3 3403   0.393   4.378   8.609 -0.1673 -0.3279 -0.5009
   31CHL1   H3' 3404   0.333   4.432   8.660  0.7400  0.0548  0.1938
   31CHL1    C4 3405   0.442   4.308   8.388  0.6271 -0.4369 -0.4236
   31CHL1   H4A 3406   0.548   4.331   8.409  0.1226  0.6157  1.1913
   31CHL1   H4B 3407   0.454   4.201   8.417  0.0934 -0.5580 -0.6277
   31CHL1    C5 3408   0.411   4.316   8.242  0.5759  0.0855 -0.1901
   31CHL1    C6 3409   0.397   4.210   8.161  0.0440 -0.4086 -0.3885
   31CHL1    H6 3410   0.426   4.112   8.202  0.4757 -0.4770 -0.8388
   31CHL1    C7 3411   0.402   4.215   8.013  0.2156 -0.5063 -0.3212
   31CHL1   H7A 3412   0.492   4.157   7.981  1.5112  1.1100  0.2414
   31CHL1   H7B 3413   0.317   4.168   7.959  0.2086 -2.0466  0.9583
   31CHL1    C8 3414   0.405   4.359   7.956 -0.1157 -0.8780  0.1761
   31CHL1    H8 3415   0.514   4.378   7.951  0.1786 -2.4143  0.1576
   31CHL1   C14 3416   0.334   4.365   7.823 -0.5727 -0.0501 -0.3439
   31CHL1   H14 3417   0.228   4.343   7.850 -0.3475 -0.9284 -0.1489
   31CHL1   C15 3418   0.372   4.258   7.717 -0.4527 -0.3361  1.1403
   31CHL1  H15A 3419   0.482   4.242   7.726 -0.3259  0.2803  0.8069
   31CHL1  H15B 3420   0.327   4.159   7.738  0.0629 -0.9317 -0.4293
   31CHL1   C16 3421   0.339   4.327   7.581 -0.1723  0.5788 -0.4013
   31CHL1  H16A 3422   0.425   4.346   7.513  0.2072  0.4849  0.0490
   31CHL1  H16B 3423   0.271   4.259   7.525  1.1188 -1.2689  0.1905
   31CHL1   C17 3424   0.275   4.466   7.623  0.4647  0.3810  0.2951
   31CHL1   H17 3425   0.170   4.440   7.648 -0.1941  2.7218  0.1746
   31CHL1   C13 3426   0.347   4.503   7.755 -0.1180  0.9151  0.6340
   31CHL1   C18 3427   0.496   4.539   7.739 -0.0296  0.0088  0.5656
   31CHL1  H18A 3428   0.539   4.535   7.841 -0.9331 -2.3972  0.9228
   31CHL1  H18B 3429   0.546   4.465   7.673  0.2961  0.7162  0.0133
   31CHL1  H18C 3430   0.504   4.642   7.699 -3.0741 -0.1438 -0.7427
   31CHL1   C12 3431   0.270   4.601   7.845  0.2058 -0.1065  0.0114
   31CHL1  H12A 3432   0.292   4.701   7.802 -0.4586  0.4206  0.8654
   31CHL1  H12B 3433   0.162   4.579   7.853  0.1284 -0.5620 -1.7407
   31CHL1   C11 3434   0.334   4.603   7.983  0.6136 -0.3703  0.2440
   31CHL1  H11A 3435   0.433   4.652   7.975  0.3836  0.0774  0.1528
   31CHL1  H11B 3436   0.261   4.666   8.038  0.5467  1.3579 -1.6769
   31CHL1    C9 3437   0.341   4.464   8.049 -0.5825 -0.0976 -0.3298
   31CHL1    H9 3438   0.235   4.437   8.069 -0.8069  1.5932  0.9542
   31CHL1   C10 3439   0.405   4.468   8.191 -0.2520  0.2468 -0.3055
   31CHL1   C19 3440   0.556   4.520   8.183  0.3375 -0.2961 -0.6070
   31CHL1  H19A 3441   0.609   4.508   8.280  0.3795  0.1924 -0.5702
   31CHL1  H19B 3442   0.609   4.463   8.104  0.0042 -0.6990 -0.5426
   31CHL1  H19C 3443   0.559   4.625   8.148  0.4756  0.3509  1.2176
   31CHL1    C1 3444   0.314   4.545   8.290 -0.4884  0.5905  0.0763
   31CHL1   H1A 3445   0.318   4.650   8.253 -2.9369  0.8249  0.3131
   31CHL1   H1B 3446   0.210   4.505   8.282 -0.8305  0.7018  2.9533
   31CHL1    C2 3447   0.353   4.531   8.436  0.0375 -0.1834 -0.2927
   31CHL1   H2A 3448   0.275   4.581   8.498 -1.2880  1.3805 -3.0540
   31CHL1   H2B 3449   0.450   4.580   8.460 -0.9707  1.2412  1.1605
   31CHL1   C20 3450   0.272   4.570   7.512  0.6223  0.1963  0.7150
   31CHL1   H20 3451   0.373   4.616   7.511 -0.1230  1.9538 -0.5627
   31CHL1   C21 3452   0.168   4.670   7.547 -0.0483 -0.2238 -0.4061
   31CHL1  H21A 3453   0.164   4.752   7.472  1.6291  0.5327  0.2911
   31CHL1  H21B 3454   0.187   4.716   7.646  1.0895  0.4482 -0.9210
   31CHL1  H21C 3455   0.070   4.618   7.557 -0.6422  1.1501  1.2299
   31CHL1   C22 3456   0.237   4.520   7.366 -0.9614 -0.2746 -0.0322
   31CHL1  H22A 3457   0.233   4.592   7.282  0.7827  1.8044  1.5849
   31CHL1  H22B 3458   0.317   4.447   7.341  1.0959  1.4958  1.0389
   31CHL1   C23 3459   0.099   4.436   7.356 -0.6768 -0.2638 -0.1122
   31CHL1  H23A 3460   0.091   4.364   7.440 -0.6940 -1.4008 -1.0561
   31CHL1  H23B 3461   0.024   4.518   7.358 -0.7775 -0.3563 -0.1271
   31CHL1   C24 3462   0.092   4.366   7.214  0.8190  0.1403  0.5809
   31CHL1  H24A 3463  -0.013   4.361   7.177  0.9289 -2.5659  0.4498
   31CHL1  H24B 3464   0.152   4.428   7.144  1.6634 -3.6202 -2.3814
   31CHL1   C25 3465   0.151   4.222   7.220  0.1547 -0.4273  0.3962
   31CHL1   H25 3466   0.253   4.227   7.263  0.3974 -0.2957 -0.1822
   31CHL1   C26 3467   0.052   4.135   7.296 -0.8895  0.3954 -0.4400
   31CHL1  H26A 3468   0.083   4.029   7.282 -1.9843 -0.3424  2.0918
   31CHL1  H26B 3469   0.043   4.154   7.405  0.7609  1.4477 -0.4621
   31CHL1  H26C 3470  -0.051   4.143   7.256 -0.0385  1.3483 -2.5454
   31CHL1   C27 3471   0.166   4.179   7.065  1.0590  0.3329  0.0050
   31CHL1  H27A 3472   0.067   4.180   7.014  1.0028  1.2153  0.1155
   31CHL1  H27B 3473   0.240   4.238   7.008  1.5134  0.4766  0.7324
   31CHL1  H27C 3474   0.201   4.073   7.066  0.7099  0.1500 -2.1298
   32CHL1    C3 3475   1.755   2.102   8.410  0.1377  0.4297  0.2826
   32CHL1    H3 3476   1.837   2.028   8.420  1.4608  1.8950  0.7570
   32CHL1    O3 3477   1.712   2.145   8.536 -0.1792 -0.2915  0.1690
   32CHL1   H3' 3478   1.650   2.215   8.515 -0.6617 -0.9138 -0.5547
   32CHL1    C4 3479   1.798   2.227   8.325  0.5497 -0.3481  0.4075
   32CHL1   H4A 3480   1.715   2.302   8.327  2.4986  1.9338  0.1241
   32CHL1   H4B 3481   1.882   2.279   8.375  0.6950 -1.9918  1.9855
   32CHL1    C5 3482   1.822   2.178   8.186  1.0711 -0.6195 -0.2115
   32CHL1    C6 3483   1.940   2.202   8.132  0.6538  0.4098  1.6198
   32CHL1    H6 3484   2.025   2.238   8.191  0.4788  1.4653  1.2466
   32CHL1    C7 3485   1.969   2.178   7.984 -0.4478  0.4779  0.1206
   32CHL1   H7A 3486   2.026   2.267   7.952 -0.1286  0.2033 -0.0827
   32CHL1   H7B 3487   2.033   2.089   7.966 -1.3418  0.0996 -1.3953
   32CHL1    C8 3488   1.835   2.172   7.906  0.5387 -0.2092  0.0456
   32CHL1    H8 3489   1.777   2.267   7.901 -0.8792 -1.0496  0.0542
   32CHL1   C14 3490   1.866   2.119   7.770 -0.2579  0.9895 -0.2704
   32CHL1   H14 3491   1.906   2.016   7.787 -0.3763  1.0113  0.1424
   32CHL1   C15 3492   1.968   2.188   7.678 -0.4865 -0.1359  0.2219
   32CHL1  H15A 3493   1.965   2.299   7.687  1.9326  0.1609 -1.5259
   32CHL1  H15B 3494   2.074   2.164   7.701 -0.8273  0.1644  2.2605
   32CHL1   C16 3495   1.927   2.139   7.541 -0.1355  0.3595  0.0292
   32CHL1  H16A 3496   1.905   2.222   7.470 -1.9061 -0.6342 -0.6467
   32CHL1  H16B 3497   2.010   2.089   7.487  0.8161  2.2259 -0.2884
   32CHL1   C17 3498   1.805   2.044   7.551  0.1937 -0.3838 -0.4478
   32CHL1   H17 3499   1.852   1.945   7.568 -0.3799 -0.4761  0.7015
   32CHL1   C13 3500   1.740   2.089   7.684  0.3272 -0.0241  0.0157
   32CHL1   C18 3501   1.660   2.219   7.653  0.4125 -0.2818  0.4243
   32CHL1  H18A 3502   1.571   2.186   7.595  1.2624 -0.2866 -0.9144
   32CHL1  H18B 3503   1.630   2.274   7.745  1.1544  1.8635 -0.5699
   32CHL1  H18C 3504   1.716   2.272   7.573  0.5754 -1.1469 -0.0557
   32CHL1   C12 3505   1.667   1.976   7.755 -0.4751 -0.5530  0.4750
   32CHL1  H12A 3506   1.579   1.947   7.695 -2.1471 -0.2860  2.6757
   32CHL1  H12B 3507   1.728   1.883   7.755 -0.5886 -0.6312  1.2009
   32CHL1   C11 3508   1.622   2.029   7.890  0.0826  0.4801 -0.1729
   32CHL1  H11A 3509   1.551   2.110   7.862  0.7009  0.7999 -0.8484
   32CHL1  H11B 3510   1.574   1.941   7.937 -1.4677  0.5497 -1.5239
   32CHL1    C9 3511   1.743   2.074   7.979  0.1130 -0.1245  0.9545
   32CHL1    H9 3512   1.797   1.979   7.996 -0.5794 -0.6090  0.4766
   32CHL1   C10 3513   1.698   2.119   8.113  0.7162  0.0204 -0.1816
   32CHL1   C19 3514   1.580   2.222   8.089  1.0543 -0.8235  0.2489
   32CHL1  H19A 3515   1.621   2.304   8.026  1.0618  1.0366  2.5295
   32CHL1  H19B 3516   1.485   2.176   8.053  0.6906  0.3662 -0.3402
   32CHL1  H19C 3517   1.562   2.267   8.189  1.2551  0.3646 -0.2336
   32CHL1    C1 3518   1.652   1.997   8.202 -0.1810 -0.7068  0.4703
   32CHL1   H1A 3519   1.563   1.949   8.154 -0.9290 -0.1146  1.2284
   32CHL1   H1B 3520   1.723   1.912   8.201 -2.5073 -2.7874 -1.4451
   32CHL1    C2 3521   1.628   2.031   8.353  0.2518  0.3388  0.5381
   32CHL1   H2A 3522   1.607   1.938   8.410 -0.3949  0.6940  0.8929
   32CHL1   H2B 3523   1.545   2.103   8.369  1.9382  2.3038  0.8963
   32CHL1   C20 3524   1.724   2.037   7.414  0.3250  0.4745  0.0367
   32CHL1   H20 3525   1.668   2.133   7.408  0.1125  0.4030  0.7534
   32CHL1   C21 3526   1.606   1.934   7.431 -0.0977  0.3007 -0.6042
   32CHL1  H21A 3527   1.649   1.839   7.470  1.2373  0.9819 -0.3471
   32CHL1  H21B 3528   1.562   1.903   7.333 -1.0684 -1.1617  0.2642
   32CHL1  H21C 3529   1.527   1.969   7.500 -1.1867 -2.0398 -0.5608
   32CHL1   C22 3530   1.807   2.017   7.287 -0.3591 -0.1720 -0.1348
   32CHL1  H22A 3531   1.913   2.050   7.291  0.4575 -2.6666  0.1575
   32CHL1  H22B 3532   1.807   1.906   7.282  0.0676 -0.2036  0.5237
   32CHL1   C23 3533   1.741   2.081   7.162 -0.4023  0.1097  0.0174
   32CHL1  H23A 3534   1.633   2.058   7.155 -0.2938 -0.7111  0.8819
   32CHL1  H23B 3535   1.757   2.187   7.191  1.9761 -0.4956  1.2155
   32CHL1   C24 3536   1.808   2.034   7.031 -0.4427 -0.7156 -0.5272
   32CHL1  H24A 3537   1.918   2.048   7.036 -0.6601  1.8606 -1.3913
   32CHL1  H24B 3538   1.791   1.925   7.015 -2.4657 -0.3963 -0.7667
   32CHL1   C25 3539   1.767   2.106   6.906  0.9464  0.2271 -0.4538
   32CHL1   H25 3540   1.657   2.092   6.898  0.6135  0.9178  2.1020
   32CHL1   C26 3541   1.804   2.252   6.912  0.3370 -0.1588 -0.3283
   32CHL1  H26A 3542   1.740   2.295   6.992  1.6868 -0.0986  0.7463
   32CHL1  H26B 3543   1.913   2.267   6.929  0.0834  0.2065  1.1568
   32CHL1  H26C 3544   1.772   2.289   6.813  1.2085  0.3201 -0.4422
   32CHL1   C27 3545   1.825   2.032   6.783 -0.3359  0.2697 -0.2913
   32CHL1  H27A 3546   1.936   2.027   6.785 -0.3465 -1.9357 -1.8992
   32CHL1  H27B 3547   1.788   1.928   6.772  3.2311 -1.4014  1.7878
   32CHL1  H27C 3548   1.810   2.079   6.683  1.5620  1.2975 -0.1528
   33CHL1    C3 3549   5.355   3.786   8.390 -0.2194 -0.1813  0.4671
   33CHL1    H3 3550   5.356   3.675   8.399 -0.9046 -0.2404 -0.0742
   33CHL1    O3 3551   5.352   3.850   8.520 -0.3779  0.5837 -0.1110
   33CHL1   H3' 3552   5.330   3.943   8.515 -1.1201  0.3523 -3.2255
   33CHL1    C4 3553   5.485   3.825   8.323  0.2998 -0.4583 -0.5718
   33CHL1   H4A 3554   5.492   3.936   8.333  1.2289 -0.5271 -0.3360
   33CHL1   H4B 3555   5.577   3.795   8.379  0.8529  1.8707 -0.1002
   33CHL1    C5 3556   5.489   3.781   8.179 -0.5199 -0.1518  0.2077
   33CHL1    C6 3557   5.597   3.724   8.132  0.0949  0.0611 -0.2079
   33CHL1    H6 3558   5.684   3.700   8.194 -0.1485 -1.9088 -0.5626
   33CHL1    C7 3559   5.622   3.696   7.986  0.6448  0.4309 -0.5114
   33CHL1   H7A 3560   5.728   3.709   7.956  0.8360 -0.0988 -0.0727
   33CHL1   H7B 3561   5.593   3.590   7.969  0.2793  0.5969 -0.9637
   33CHL1    C8 3562   5.530   3.771   7.892 -0.3974 -0.2500  0.9301
   33CHL1    H8 3563   5.554   3.879   7.890 -1.1829 -0.0820 -0.5233
   33CHL1   C14 3564   5.533   3.708   7.761 -0.2249  0.0252  0.4455
   33CHL1   H14 3565   5.473   3.616   7.775  2.5951 -2.1646 -0.6990
   33CHL1   C15 3566   5.663   3.651   7.686  0.0163  1.0449  0.0927
   33CHL1  H15A 3567   5.748   3.721   7.700  0.9891  0.1097 -0.9287
   33CHL1  H15B 3568   5.683   3.549   7.724  1.5877  0.9973 -0.8109
   33CHL1   C16 3569   5.624   3.641   7.541  0.1950  0.9475  0.3721
   33CHL1  H16A 3570   5.690   3.710   7.482  0.8397 -0.9956 -1.3040
   33CHL1  H16B 3571   5.637   3.539   7.498  1.1983  1.4342 -0.5452
   33CHL1   C17 3572   5.477   3.694   7.517 -0.6284  0.0320  0.0021
   33CHL1   H17 3573   5.408   3.608   7.517 -0.6850  0.0607  1.0481
   33CHL1   C13 3574   5.450   3.771   7.654  0.1936  0.1639 -0.3679
   33CHL1   C18 3575   5.489   3.926   7.632  0.2909  0.2275 -0.0040
   33CHL1  H18A 3576   5.453   3.967   7.536 -1.3508  0.4977  0.6818
   33CHL1  H18B 3577   5.455   3.991   7.716  1.5168  2.4135 -1.1280
   33CHL1  H18C 3578   5.599   3.932   7.633  0.2392  2.3011 -0.7616
   33CHL1   C12 3579   5.304   3.763   7.695  0.4251 -0.6736 -0.2652
   33CHL1  H12A 3580   5.239   3.820   7.626 -1.1425 -0.2351  1.4704
   33CHL1  H12B 3581   5.278   3.655   7.702 -1.5469 -0.1989  0.3637
   33CHL1   C11 3582   5.283   3.823   7.834  0.2442  0.2515  0.8972
   33CHL1  H11A 3583   5.287   3.933   7.817  0.4590  0.2237  0.7681
   33CHL1  H11B 3584   5.183   3.783   7.861 -0.0881  0.1445 -0.4242
   33CHL1    C9 3585   5.383   3.767   7.938  0.6501 -0.2263  0.0408
   33CHL1    H9 3586   5.355   3.660   7.950  0.5012 -0.2115 -0.1799
   33CHL1   C10 3587   5.372   3.828   8.087 -0.5104 -0.5654  0.6763
   33CHL1   C19 3588   5.379   3.983   8.072  0.0522 -0.2693 -0.1942
   33CHL1  H19A 3589   5.399   4.024   8.173 -1.1890 -0.8725  0.3177
   33CHL1  H19B 3590   5.451   4.023   7.998 -2.2006  0.0212 -2.3924
   33CHL1  H19C 3591   5.289   4.036   8.035  1.4516  2.0432 -0.4646
   33CHL1    C1 3592   5.246   3.781   8.160  0.1722  0.5154 -0.0065
   33CHL1   H1A 3593   5.152   3.797   8.103 -0.5114 -1.1089  0.5930
   33CHL1   H1B 3594   5.243   3.670   8.154 -1.7872  0.5600 -0.3795
   33CHL1    C2 3595   5.234   3.827   8.304 -0.4055  0.0044 -0.1319
   33CHL1   H2A 3596   5.143   3.775   8.339  0.1649 -1.1298 -0.2762
   33CHL1   H2B 3597   5.214   3.936   8.309 -1.5387 -0.2300  0.9772
   33CHL1   C20 3598   5.455   3.751   7.372  0.4243 -0.3909 -0.5081
   33CHL1   H20 3599   5.514   3.839   7.339 -0.6473  0.0967 -1.1419
   33CHL1   C21 3600   5.312   3.783   7.342 -0.3535 -0.6530 -0.0887
   33CHL1  H21A 3601   5.280   3.805   7.238 -2.3033 -1.2168  0.3612
   33CHL1  H21B 3602   5.291   3.874   7.402  2.4185  0.3872 -0.5151
   33CHL1  H21C 3603   5.239   3.703   7.364 -0.8930 -0.1988 -0.2201
   33CHL1   C22 3604   5.510   3.657   7.263  0.4370 -0.4769 -0.0273
   33CHL1  H22A 3605   5.488   3.706   7.166 -2.7153  2.5562  1.9687
   33CHL1  H22B 3606   5.620   3.641   7.274  0.1782 -1.5707  1.1035
   33CHL1   C23 3607   5.452   3.514   7.262  0.0242 -0.1069 -0.7489
   33CHL1  H23A 3608   5.519   3.464   7.335 -1.4782  0.0380  0.7988
   33CHL1  H23B 3609   5.347   3.510   7.296  0.3922  0.3472  0.5143
   33CHL1   C24 3610   5.464   3.440   7.127 -0.1286  0.6467  0.2087
   33CHL1  H24A 3611   5.567   3.460   7.089 -0.3861  1.4552 -0.0670
   33CHL1  H24B 3612   5.445   3.331   7.144  0.0834  0.4846 -0.5622
   33CHL1   C25 3613   5.358   3.481   7.021  0.0499 -0.0904 -0.7216
   33CHL1   H25 3614   5.361   3.592   7.024 -2.8119  0.0372 -0.5346
   33CHL1   C26 3615   5.402   3.438   6.886 -0.3243  0.3109  0.5616
   33CHL1  H26A 3616   5.489   3.500   6.855 -0.4795  0.8548  1.2017
   33CHL1  H26B 3617   5.426   3.329   6.879 -3.2840 -0.3372 -0.8884
   33CHL1  H26C 3618   5.321   3.453   6.812  0.2005 -0.1042 -0.1025
   33CHL1   C27 3619   5.214   3.438   7.061  0.2688  0.4180 -0.0436
   33CHL1  H27A 3620   5.185   3.473   7.162 -0.6309  3.5652 -1.2618
   33CHL1  H27B 3621   5.133   3.468   6.990 -0.4529  1.6842  1.2706
   33CHL1  H27C 3622   5.215   3.327   7.067  1.4641  0.4083 -0.2215
   34CHL1    C3 3623   3.603   3.355   4.975  0.1669 -0.0590  0.4158
   34CHL1    H3 3624   3.667   3.265   4.987 -2.4337 -2.0372  0.4265
   34CHL1    O3 3625   3.593   3.394   4.841  0.2169 -0.4919  0.2343
   34CHL1   H3' 3626   3.531   3.467   4.849  1.1730  0.1179  3.5047
   34CHL1    C4 3627   3.467   3.330   5.044 -0.5904 -0.3562 -0.2211
   34CHL1   H4A 3628   3.401   3.419   5.042 -2.7541 -1.8908 -0.2037
   34CHL1   H4B 3629   3.427   3.247   4.981 -1.5944  2.1734 -3.1457
   34CHL1    C5 3630   3.506   3.283   5.186  0.3399  0.4682  0.0632
   34CHL1    C6 3631   3.473   3.158   5.220 -0.0361  0.8251 -0.9363
   34CHL1    H6 3632   3.417   3.101   5.145 -1.5734  0.8942  0.0994
   34CHL1    C7 3633   3.494   3.104   5.358 -0.3462  0.1080 -0.0905
   34CHL1   H7A 3634   3.406   3.046   5.392  1.3534 -0.9369  2.8527
   34CHL1   H7B 3635   3.571   3.025   5.350  0.2375  0.7910 -1.6962
   34CHL1    C8 3636   3.525   3.214   5.464 -0.4442 -0.0051 -0.3622
   34CHL1    H8 3637   3.434   3.270   5.496 -0.5235 -0.6180  0.5116
   34CHL1   C14 3638   3.591   3.140   5.581 -0.0836 -0.7376 -0.0286
   34CHL1   H14 3639   3.690   3.102   5.547 -0.4540  0.3512 -2.6087
   34CHL1   C15 3640   3.518   3.013   5.629 -0.6229  0.4151 -0.7607
   34CHL1  H15A 3641   3.409   3.022   5.612 -0.8387 -0.7388 -0.1159
   34CHL1  H15B 3642   3.558   2.924   5.577  3.1919  2.0911 -1.0229
   34CHL1   C16 3643   3.560   3.008   5.777  0.2091 -0.3789 -0.9177
   34CHL1  H16A 3644   3.465   3.030   5.829  0.2023  0.6727 -1.3322
   34CHL1  H16B 3645   3.601   2.912   5.813  0.5833  0.1498  0.1120
   34CHL1   C17 3646   3.650   3.134   5.808  0.0605  0.7324  0.3337
   34CHL1   H17 3647   3.755   3.102   5.792 -1.2275 -3.2706 -1.3732
   34CHL1   C13 3648   3.615   3.235   5.699 -0.1893 -0.1052  0.2905
   34CHL1   C18 3649   3.484   3.306   5.743 -0.1768  0.5044 -0.2547
   34CHL1  H18A 3650   3.443   3.379   5.671 -0.1627  3.2352  2.3245
   34CHL1  H18B 3651   3.407   3.228   5.762 -1.1489  0.2684 -4.3405
   34CHL1  H18C 3652   3.504   3.369   5.832  0.4445 -0.0019 -0.0234
   34CHL1   C12 3653   3.722   3.344   5.656 -0.1721 -0.4575  0.5407
   34CHL1  H12A 3654   3.739   3.429   5.726 -1.0470  0.5904 -0.4638
   34CHL1  H12B 3655   3.812   3.280   5.645  0.5830  0.5011  1.0110
   34CHL1   C11 3656   3.682   3.419   5.517 -0.2138 -0.3170  0.6985
   34CHL1  H11A 3657   3.596   3.483   5.547  0.1619 -0.1229  1.3979
   34CHL1  H11B 3658   3.768   3.478   5.480  1.3901 -2.0258  1.5463
   34CHL1    C9 3659   3.635   3.313   5.411 -0.0781 -0.2146 -0.2651
   34CHL1    H9 3660   3.724   3.255   5.380  1.0706  0.6704  1.2688
   34CHL1   C10 3661   3.597   3.379   5.278  0.2817 -0.5777  0.3238
   34CHL1   C19 3662   3.505   3.507   5.302 -0.3372 -0.0599 -0.2722
   34CHL1  H19A 3663   3.574   3.590   5.329  1.3784 -0.4823 -2.9615
   34CHL1  H19B 3664   3.469   3.552   5.207 -1.6984 -0.0943  0.2093
   34CHL1  H19C 3665   3.425   3.498   5.378 -0.4960 -1.0279 -0.5307
   34CHL1    C1 3666   3.721   3.420   5.195  0.2001 -0.4478 -0.1366
   34CHL1   H1A 3667   3.770   3.508   5.241 -1.5496  1.0329 -0.9951
   34CHL1   H1B 3668   3.795   3.338   5.179 -0.7113 -0.8144 -3.1729
   34CHL1    C2 3669   3.689   3.464   5.051  0.2643 -0.3200  0.4512
   34CHL1   H2A 3670   3.784   3.480   4.998  0.6542  0.2266  1.2918
   34CHL1   H2B 3671   3.630   3.558   5.054 -1.0092 -0.9913 -1.5890
   34CHL1   C20 3672   3.644   3.176   5.963  0.2806 -0.4878  0.5064
   34CHL1   H20 3673   3.539   3.193   5.996 -0.5813  0.7550 -2.4819
   34CHL1   C21 3674   3.725   3.302   5.981 -0.5471 -0.5933 -0.1684
   34CHL1  H21A 3675   3.824   3.275   5.938 -0.3486 -1.2551  0.6618
   34CHL1  H21B 3676   3.741   3.333   6.087 -0.3109 -0.4814 -0.2364
   34CHL1  H21C 3677   3.679   3.388   5.928  0.0089  0.4304  0.9656
   34CHL1   C22 3678   3.700   3.058   6.041 -0.2195  0.2875  0.1160
   34CHL1  H22A 3679   3.626   2.977   6.055 -2.1295  2.4200  3.9143
   34CHL1  H22B 3680   3.792   3.023   5.989 -0.5632  0.6865 -0.7742
   34CHL1   C23 3681   3.724   3.086   6.189 -0.1089 -0.1797 -0.2405
   34CHL1  H23A 3682   3.812   3.153   6.206 -0.0244 -0.6486  1.4106
   34CHL1  H23B 3683   3.635   3.148   6.214 -0.4702 -0.4524 -0.8516
   34CHL1   C24 3684   3.745   2.962   6.274  0.5221  0.3521  0.1968
   34CHL1  H24A 3685   3.658   2.895   6.259  1.5975 -1.0212 -0.1349
   34CHL1  H24B 3686   3.842   2.912   6.253  0.7663  1.3175 -1.0976
   34CHL1   C25 3687   3.753   2.985   6.431 -0.9434 -0.0748 -0.6199
   34CHL1   H25 3688   3.664   3.032   6.476  1.1034  0.7941  2.9319
   34CHL1   C26 3689   3.777   2.855   6.509 -0.4604 -0.2390 -0.0727
   34CHL1  H26A 3690   3.879   2.816   6.492 -0.4952  0.9367 -3.9298
   34CHL1  H26B 3691   3.771   2.865   6.619  1.2889 -1.7768  0.2169
   34CHL1  H26C 3692   3.706   2.776   6.475 -0.7960 -1.5749  3.4033
   34CHL1   C27 3693   3.858   3.088   6.465 -0.7401  0.0083 -0.6223
   34CHL1  H27A 3694   3.859   3.113   6.573  1.7800 -1.3745 -0.2352
   34CHL1  H27B 3695   3.957   3.044   6.437  0.4841  0.8226  2.1537
   34CHL1  H27C 3696   3.858   3.182   6.407 -0.4084  0.8501  0.7083
   35CHL1    C3 3697   3.272   6.653   8.559  0.0863  0.4833  0.4755
   35CHL1    H3 3698   3.259   6.763   8.562  2.2508  0.8893 -1.8379
   35CHL1    O3 3699   3.234   6.592   8.683  0.6441  0.6989 -0.1492
   35CHL1   H3' 3700   3.253   6.500   8.662  1.6574  1.0438 -0.7998
   35CHL1    C4 3701   3.188   6.594   8.450  0.3532  0.7177 -0.1029
   35CHL1   H4A 3702   3.179   6.484   8.465  0.2045  0.6492 -0.6693
   35CHL1   H4B 3703   3.087   6.639   8.448  0.0136 -0.0341 -0.2264
   35CHL1    C5 3704   3.240   6.598   8.306 -0.1442 -0.1132 -0.8099
   35CHL1    C6 3705   3.159   6.629   8.204  0.2294  0.8642  0.9404
   35CHL1    H6 3706   3.051   6.641   8.217  0.5067  3.9463  1.1515
   35CHL1    C7 3707   3.207   6.624   8.064 -0.1123 -1.2602  0.5153
   35CHL1   H7A 3708   3.136   6.559   8.008 -0.3401 -2.4498  2.1108
   35CHL1   H7B 3709   3.208   6.729   8.028  0.6879 -1.4396  0.0081
   35CHL1    C8 3710   3.351   6.571   8.040  0.5923  0.1945 -0.6606
   35CHL1    H8 3711   3.349   6.460   8.039  0.4691  0.1980 -1.5085
   35CHL1   C14 3712   3.416   6.615   7.911  0.2513 -0.1658  0.5119
   35CHL1   H14 3713   3.424   6.726   7.918 -0.2882 -0.0458 -0.5070
   35CHL1   C15 3714   3.322   6.586   7.784  0.2088 -0.6662  0.2094
   35CHL1  H15A 3715   3.276   6.485   7.791 -0.8516 -0.1776  0.5290
   35CHL1  H15B 3716   3.246   6.665   7.800  0.4994 -0.6620  1.7477
   35CHL1   C16 3717   3.411   6.587   7.668 -0.5791  0.0574  0.5949
   35CHL1  H16A 3718   3.405   6.494   7.607  1.2307  0.0268  0.3988
   35CHL1  H16B 3719   3.393   6.674   7.601 -1.3936 -1.2951 -1.0387
   35CHL1   C17 3720   3.560   6.606   7.723  0.2547 -0.3916  0.4676
   35CHL1   H17 3721   3.585   6.714   7.725  0.9843 -0.5743  1.4798
   35CHL1   C13 3722   3.553   6.562   7.869  0.2591  0.3169  0.1982
   35CHL1   C18 3723   3.560   6.407   7.880  0.2333 -0.5516  0.3704
   35CHL1  H18A 3724   3.537   6.369   7.982 -1.4578  3.1293  1.5183
   35CHL1  H18B 3725   3.483   6.361   7.815  1.0621 -1.0501 -0.2738
   35CHL1  H18C 3726   3.656   6.374   7.835  0.4682  0.2691  0.2525
   35CHL1   C12 3727   3.639   6.632   7.984  0.0890 -0.1183 -0.1930
   35CHL1  H12A 3728   3.746   6.602   7.972 -0.3423 -2.0836  0.5372
   35CHL1  H12B 3729   3.639   6.743   7.975 -1.7345 -0.2297 -2.4633
   35CHL1   C11 3730   3.590   6.585   8.125  0.1450 -0.2000  0.7524
   35CHL1  H11A 3731   3.606   6.476   8.134 -2.3939 -0.5589  1.6197
   35CHL1  H11B 3732   3.659   6.623   8.204 -2.0627  0.8674  2.2832
   35CHL1    C9 3733   3.445   6.617   8.160 -0.3650 -0.4852  1.0565
   35CHL1    H9 3734   3.447   6.728   8.158 -0.0231 -0.4957  0.5724
   35CHL1   C10 3735   3.392   6.573   8.299 -0.2714  0.1169  0.6405
   35CHL1   C19 3736   3.412   6.418   8.312  0.0249 -0.3016  1.1490
   35CHL1  H19A 3737   3.353   6.371   8.230  1.9929 -0.1359 -0.4501
   35CHL1  H19B 3738   3.520   6.397   8.298 -0.0762  0.6011 -1.7025
   35CHL1  H19C 3739   3.397   6.382   8.416 -0.1186  0.4595  1.3965
   35CHL1    C1 3740   3.477   6.658   8.402  0.9104  0.6558  0.3385
   35CHL1   H1A 3741   3.584   6.628   8.394  0.7908  0.5541 -1.0974
   35CHL1   H1B 3742   3.467   6.765   8.371  0.0430  0.1820 -1.1307
   35CHL1    C2 3743   3.428   6.637   8.543 -0.6143 -0.4756 -0.8564
   35CHL1   H2A 3744   3.484   6.708   8.607 -0.7105  0.4040 -1.7116
   35CHL1   H2B 3745   3.458   6.537   8.581 -0.6090  0.4439  1.7246
   35CHL1   C20 3746   3.671   6.552   7.626 -0.3113 -0.5798  0.0797
   35CHL1   H20 3747   3.649   6.445   7.610  0.5627 -0.4891 -2.0413
   35CHL1   C21 3748   3.816   6.561   7.685 -0.2885 -0.9916 -0.1237
   35CHL1  H21A 3749   3.829   6.502   7.779 -2.8970 -1.8265 -0.2099
   35CHL1  H21B 3750   3.823   6.667   7.717 -2.2208 -0.5189 -1.1301
   35CHL1  H21C 3751   3.893   6.537   7.609  0.4118 -1.2372  0.6453
   35CHL1   C22 3752   3.659   6.618   7.490 -0.0191 -1.1308  0.9913
   35CHL1  H22A 3753   3.558   6.628   7.444  2.1647  1.1458 -3.9808
   35CHL1  H22B 3754   3.686   6.725   7.497 -0.1855 -0.9928 -0.2830
   35CHL1   C23 3755   3.740   6.551   7.378  0.4697 -1.1195 -0.5247
   35CHL1  H23A 3756   3.848   6.560   7.402  0.3240  0.6852 -0.4617
   35CHL1  H23B 3757   3.704   6.446   7.369  1.2640 -1.7159  2.3948
   35CHL1   C24 3758   3.706   6.619   7.238  0.5596 -0.0035 -0.7063
   35CHL1  H24A 3759   3.596   6.605   7.225  0.0189  2.8451  0.1585
   35CHL1  H24B 3760   3.729   6.727   7.245  0.1543 -0.0369  1.8340
   35CHL1   C25 3761   3.790   6.573   7.120 -0.6486 -0.2422 -0.3479
   35CHL1   H25 3762   3.890   6.594   7.164 -2.2672  1.1103  3.0721
   35CHL1   C26 3763   3.787   6.419   7.105 -0.4477 -0.5311 -0.6358
   35CHL1  H26A 3764   3.803   6.368   7.202  0.9594  2.1349  0.6452
   35CHL1  H26B 3765   3.687   6.381   7.076 -1.5418 -0.7614  2.9822
   35CHL1  H26C 3766   3.870   6.389   7.038 -0.5660 -1.6014 -0.3203
   35CHL1   C27 3767   3.771   6.643   6.987  0.1660  0.3749 -0.3067
   35CHL1  H27A 3768   3.863   6.637   6.924 -0.8827  2.3485 -2.1677
   35CHL1  H27B 3769   3.685   6.598   6.934  0.9894  0.5288 -1.8446
   35CHL1  H27C 3770   3.737   6.749   6.999 -1.4719 -0.3291  1.7845
   36CHL1    C3 3771   0.625   2.891   8.344 -1.2375  0.1311  0.0761
   36CHL1    H3 3772   0.552   2.810   8.320 -1.2453 -0.1478  1.0182
   36CHL1    O3 3773   0.629   2.917   8.487  0.2582 -0.4330 -0.4503
   36CHL1   H3' 3774   0.722   2.931   8.503  1.1957 -0.5745 -4.5471
   36CHL1    C4 3775   0.769   2.849   8.309 -0.1602  0.0775  0.3864
   36CHL1   H4A 3776   0.830   2.933   8.349 -0.0955  0.6940 -0.9393
   36CHL1   H4B 3777   0.797   2.755   8.362  1.2719  0.7639  0.9100
   36CHL1    C5 3778   0.787   2.831   8.161 -0.2959  0.3983  0.0817
   36CHL1    C6 3779   0.837   2.720   8.109 -0.3729 -0.1487 -0.8041
   36CHL1    H6 3780   0.877   2.641   8.175  0.7061  1.8761  1.1096
   36CHL1    C7 3781   0.865   2.693   7.960  0.9218  0.1663  0.8267
   36CHL1   H7A 3782   0.963   2.640   7.949  0.4886 -0.5762  0.4780
   36CHL1   H7B 3783   0.784   2.629   7.919  1.1030  2.3512 -3.4727
   36CHL1    C8 3784   0.854   2.824   7.875  0.0127 -0.4788  0.3957
   36CHL1    H8 3785   0.947   2.885   7.886  0.2630 -0.3238 -2.0716
   36CHL1   C14 3786   0.839   2.783   7.733  0.6246 -0.2192 -0.6032
   36CHL1   H14 3787   0.755   2.710   7.727  1.4196 -1.5963  2.6497
   36CHL1   C15 3788   0.955   2.700   7.670 -0.2831 -0.1000  0.5863
   36CHL1  H15A 3789   1.052   2.737   7.711  0.2840 -0.8813 -0.0059
   36CHL1  H15B 3790   0.959   2.591   7.691 -1.2685 -0.2052  0.2916
   36CHL1   C16 3791   0.950   2.726   7.521  0.0635 -0.5197  0.0311
   36CHL1  H16A 3792   1.050   2.762   7.490 -0.2658  0.9219  0.5348
   36CHL1  H16B 3793   0.925   2.637   7.460 -1.0130 -0.7517  0.7824
   36CHL1   C17 3794   0.829   2.826   7.507  0.6250  0.1814 -0.2039
   36CHL1   H17 3795   0.747   2.751   7.513  0.7599 -0.1029 -1.6130
   36CHL1   C13 3796   0.816   2.902   7.642  0.0251  0.0338  0.6861
   36CHL1   C18 3797   0.933   3.001   7.644  0.1141  0.0360  0.1848
   36CHL1  H18A 3798   0.970   3.032   7.745 -1.3930  0.7081  0.5596
   36CHL1  H18B 3799   1.020   2.951   7.596  0.3900  0.2103  0.4964
   36CHL1  H18C 3800   0.919   3.095   7.588  1.4196  1.2631  1.8005
   36CHL1   C12 3801   0.688   2.977   7.675  0.0614  0.2891 -0.4040
   36CHL1  H12A 3802   0.667   3.057   7.601  0.7446  0.3279 -0.5622
   36CHL1  H12B 3803   0.607   2.903   7.658  0.9800 -0.8809  0.1651
   36CHL1   C11 3804   0.701   3.026   7.818 -0.3251 -0.1792  0.0206
   36CHL1  H11A 3805   0.768   3.114   7.826 -1.5973  0.7848  0.4478
   36CHL1  H11B 3806   0.604   3.071   7.849 -1.3241 -2.4395  0.4120
   36CHL1    C9 3807   0.735   2.909   7.916  0.2555  0.2725 -0.2121
   36CHL1    H9 3808   0.645   2.844   7.905  1.7234 -2.2146  1.4562
   36CHL1   C10 3809   0.741   2.943   8.068  0.1204 -0.0726  1.4327
   36CHL1   C19 3810   0.845   3.059   8.090  0.2801  0.1692  0.4607
   36CHL1  H19A 3811   0.849   3.111   8.188  0.6255  0.7001  0.1708
   36CHL1  H19B 3812   0.950   3.024   8.082  0.4709  1.0789 -1.7412
   36CHL1  H19C 3813   0.816   3.143   8.024  0.6167 -1.7537 -2.3056
   36CHL1    C1 3814   0.599   2.994   8.127 -0.0397  0.0880  0.4806
   36CHL1   H1A 3815   0.583   3.094   8.081  0.9277  0.5718  1.1540
   36CHL1   H1B 3816   0.518   2.926   8.096  1.1914 -0.6772 -1.1819
   36CHL1    C2 3817   0.587   3.020   8.279  0.1461 -0.5225  0.1270
   36CHL1   H2A 3818   0.488   3.062   8.307  0.2229 -0.7067  0.6818
   36CHL1   H2B 3819   0.668   3.087   8.315  0.0144  0.0463 -0.6230
   36CHL1   C20 3820   0.817   2.906   7.377  0.1378 -0.5930  0.5427
   36CHL1   H20 3821   0.847   3.012   7.388 -0.7357 -0.3519  0.6238
   36CHL1   C21 3822   0.667   2.915   7.333  0.3882  0.2780  0.2209
   36CHL1  H21A 3823   0.651   2.822   7.276  1.7844  1.5492 -2.4026
   36CHL1  H21B 3824   0.649   2.998   7.261 -0.1126  1.6890  1.8836
   36CHL1  H21C 3825   0.598   2.922   7.420  1.1210 -4.1271  1.4089
   36CHL1   C22 3826   0.898   2.854   7.252  0.2038 -0.5073  0.4101
   36CHL1  H22A 3827   1.006   2.868   7.272 -0.0827  0.4513  1.4182
   36CHL1  H22B 3828   0.890   2.743   7.246 -1.3343 -0.4225  0.3505
   36CHL1   C23 3829   0.883   2.920   7.113  0.1073  0.5895 -0.0476
   36CHL1  H23A 3830   0.774   2.928   7.096  0.0250 -1.5702 -0.7594
   36CHL1  H23B 3831   0.932   3.020   7.106  1.8711 -0.1607  1.0066
   36CHL1   C24 3832   0.929   2.845   6.989 -0.2660 -0.5843  0.5218
   36CHL1  H24A 3833   1.035   2.815   7.005  0.5657  1.7479 -0.2250
   36CHL1  H24B 3834   0.867   2.759   6.957  0.3833  0.2040 -3.3031
   36CHL1   C25 3835   0.932   2.927   6.856 -0.0936  0.4475 -0.2416
   36CHL1   H25 3836   0.985   3.025   6.868  0.9361  0.0783 -1.5282
   36CHL1   C26 3837   1.008   2.848   6.747  0.0627 -0.0793 -0.6550
   36CHL1  H26A 3838   1.059   2.909   6.670 -0.0670  2.1921  0.9516
   36CHL1  H26B 3839   1.096   2.809   6.801 -0.8680 -1.3930 -0.0377
   36CHL1  H26C 3840   0.948   2.762   6.711  0.8739  0.4085 -3.3803
   36CHL1   C27 3841   0.792   2.951   6.818  0.3247  0.2283 -0.0774
   36CHL1  H27A 3842   0.741   2.856   6.791  2.1486 -1.1251  1.0353
   36CHL1  H27B 3843   0.731   3.009   6.891 -0.6447  1.5932 -1.8937
   36CHL1  H27C 3844   0.785   3.012   6.725 -1.5397 -2.3034 -1.7547
   37CHL1    C3 3845   2.153   0.853   8.266 -0.7829 -0.0697 -0.5076
   37CHL1    H3 3846   2.137   0.963   8.259 -0.0126 -0.0550 -2.7388
   37CHL1    O3 3847   2.177   0.814   8.403  0.6171 -0.2035 -0.4268
   37CHL1   H3' 3848   2.094   0.769   8.421 -0.6864  2.2227  0.0619
   37CHL1    C4 3849   2.028   0.781   8.213  0.0846  0.1582 -0.4287
   37CHL1   H4A 3850   2.013   0.673   8.235 -0.3311  0.7013  2.2881
   37CHL1   H4B 3851   1.941   0.828   8.264  0.3791  0.1215  0.1192
   37CHL1    C5 3852   2.024   0.799   8.056  0.0758  0.5483 -0.2126
   37CHL1    C6 3853   1.913   0.838   7.999  0.2203 -0.2115  0.2589
   37CHL1    H6 3854   1.826   0.854   8.064 -1.0847 -2.1929 -0.8948
   37CHL1    C7 3855   1.891   0.840   7.849 -0.1676  0.2594 -0.6473
   37CHL1   H7A 3856   1.789   0.811   7.817  0.2134  0.6726 -2.3371
   37CHL1   H7B 3857   1.897   0.945   7.811  0.8965 -0.2699 -2.0134
   37CHL1    C8 3858   1.989   0.750   7.775 -0.4737 -0.3020  0.4734
   37CHL1    H8 3859   1.961   0.646   7.802  0.2350 -0.0675  2.2411
   37CHL1   C14 3860   1.985   0.784   7.627 -0.3340 -0.0129  0.1401
   37CHL1   H14 3861   2.012   0.891   7.615 -0.2235 -0.2509 -2.3954
   37CHL1   C15 3862   1.850   0.776   7.547 -0.3702 -0.8798 -0.5562
   37CHL1  H15A 3863   1.788   0.687   7.571 -1.6130  0.5692  2.0922
   37CHL1  H15B 3864   1.790   0.864   7.578 -0.0775 -0.1126 -2.0729
   37CHL1   C16 3865   1.888   0.785   7.396 -0.0012  0.3328 -0.0616
   37CHL1  H16A 3866   1.841   0.696   7.349 -2.0617  0.9586  0.7015
   37CHL1  H16B 3867   1.848   0.873   7.341  0.6623  0.1896 -0.7864
   37CHL1   C17 3868   2.045   0.782   7.397 -0.2003 -0.2777 -0.0757
   37CHL1   H17 3869   2.083   0.886   7.397 -2.8876  0.7913 -0.3271
   37CHL1   C13 3870   2.081   0.708   7.530 -0.0068  0.0039 -0.1816
   37CHL1   C18 3871   2.045   0.559   7.538  0.2470 -0.2259  0.1683
   37CHL1  H18A 3872   2.119   0.507   7.474  1.1854 -0.2978  1.2823
   37CHL1  H18B 3873   2.046   0.520   7.642 -0.0163 -1.3458 -0.2351
   37CHL1  H18C 3874   1.941   0.545   7.503  0.8703 -2.1921 -1.0420
   37CHL1   C12 3875   2.221   0.740   7.587 -0.5861  0.2596 -0.0752
   37CHL1  H12A 3876   2.292   0.671   7.536  0.2940  0.0087  1.4405
   37CHL1  H12B 3877   2.256   0.842   7.562 -0.7583  0.3849  0.1855
   37CHL1   C11 3878   2.236   0.699   7.736 -0.8636 -0.8560 -0.3900
   37CHL1  H11A 3879   2.222   0.589   7.747 -1.4971 -0.6552  1.0426
   37CHL1  H11B 3880   2.340   0.731   7.757 -1.7764  1.9173  0.2755
   37CHL1    C9 3881   2.134   0.777   7.828  0.4222 -0.2645 -0.3321
   37CHL1    H9 3882   2.143   0.887   7.808 -2.7563 -0.2309 -2.2106
   37CHL1   C10 3883   2.145   0.753   7.981  0.3151 -0.2310  0.7102
   37CHL1   C19 3884   2.158   0.601   7.998  0.1757 -0.2345 -0.4601
   37CHL1  H19A 3885   2.261   0.578   7.963 -0.2441 -3.4137  0.0952
   37CHL1  H19B 3886   2.166   0.580   8.107  1.3805  0.6406 -0.3562
   37CHL1  H19C 3887   2.077   0.542   7.951 -1.0343  0.8922  0.1643
   37CHL1    C1 3888   2.266   0.834   8.035  0.5672  0.0981  0.0271
   37CHL1   H1A 3889   2.356   0.793   7.985 -0.5665  0.3788 -2.4202
   37CHL1   H1B 3890   2.262   0.943   8.015  2.7312  0.0827 -0.7977
   37CHL1    C2 3891   2.278   0.819   8.192  0.4089  0.2915  0.2100
   37CHL1   H2A 3892   2.351   0.897   8.222 -0.3385  0.8594  0.5805
   37CHL1   H2B 3893   2.320   0.717   8.207  0.4768  0.4930  1.4880
   37CHL1   C20 3894   2.109   0.732   7.262  0.3546 -0.4057 -0.0085
   37CHL1   H20 3895   2.088   0.623   7.262  1.6034 -0.6628  1.1006
   37CHL1   C21 3896   2.261   0.743   7.249  0.5570 -0.0790  0.2338
   37CHL1  H21A 3897   2.299   0.847   7.256 -3.9905  1.8490 -0.3709
   37CHL1  H21B 3898   2.302   0.716   7.149  1.9352 -0.8517  0.9760
   37CHL1  H21C 3899   2.316   0.684   7.326 -2.9186 -2.0945  1.4260
   37CHL1   C22 3900   2.041   0.801   7.142 -0.0032 -0.1835  0.1850
   37CHL1  H22A 3901   1.958   0.867   7.176 -1.3613 -2.1932  0.9321
   37CHL1  H22B 3902   2.112   0.875   7.100 -1.3042  1.2886  0.4851
   37CHL1   C23 3903   1.971   0.719   7.038  0.3995 -0.0683  0.1445
   37CHL1  H23A 3904   2.038   0.641   6.995  1.3077  0.7956 -0.0344
   37CHL1  H23B 3905   1.886   0.672   7.092 -0.4397 -0.1438 -1.1965
   37CHL1   C24 3906   1.904   0.806   6.930 -0.6838 -0.3405  0.4778
   37CHL1  H24A 3907   1.836   0.882   6.975 -1.2182 -1.0069  0.8198
   37CHL1  H24B 3908   1.983   0.855   6.870  0.3134 -1.1446  1.0946
   37CHL1   C25 3909   1.826   0.710   6.833  0.4506 -0.0071 -0.6262
   37CHL1   H25 3910   1.884   0.620   6.804 -1.6453 -1.2225 -1.3345
   37CHL1   C26 3911   1.695   0.660   6.894  0.4069  0.5603  0.2406
   37CHL1  H26A 3912   1.621   0.740   6.919  0.7673  0.5547  1.3731
   37CHL1  H26B 3913   1.642   0.595   6.821  0.5632 -0.4146  0.9728
   37CHL1  H26C 3914   1.708   0.608   6.992  0.6727  0.2814  0.0555
   37CHL1   C27 3915   1.799   0.791   6.708 -0.1627 -0.0729  0.5206
   37CHL1  H27A 3916   1.723   0.751   6.637  0.5872  0.0880 -0.3988
   37CHL1  H27B 3917   1.765   0.895   6.720 -0.2683  0.0293 -0.5388
   37CHL1  H27C 3918   1.897   0.804   6.657  0.0928 -0.8418  0.7886
   38CHL1    C3 3919   0.395   0.900   8.560 -0.7642 -0.8395  0.0193
   38CHL1    H3 3920   0.352   1.001   8.541  1.6108  0.5333  1.5441
   38CHL1    O3 3921   0.396   0.894   8.701  0.0991 -0.4393  0.2310
   38CHL1   H3' 3922   0.437   0.811   8.723  0.2296 -0.0260  1.6176
   38CHL1    C4 3923   0.318   0.787   8.491 -0.2849  0.3772  0.0110
   38CHL1   H4A 3924   0.361   0.689   8.520 -0.3340 -0.0393 -1.2612
   38CHL1   H4B 3925   0.214   0.785   8.532 -0.3105 -3.0480  0.1143
   38CHL1    C5 3926   0.316   0.797   8.335 -0.7722 -0.1764  0.6278
   38CHL1    C6 3927   0.202   0.792   8.267  0.1830  0.0881  0.3059
   38CHL1    H6 3928   0.104   0.776   8.314 -0.2674 -0.5808 -0.8316
   38CHL1    C7 3929   0.191   0.787   8.115 -0.2515 -0.2560 -0.4453
   38CHL1   H7A 3930   0.126   0.703   8.082  0.5949 -0.7845 -0.7974
   38CHL1   H7B 3931   0.152   0.884   8.078  0.5844  0.6701  1.0403
   38CHL1    C8 3932   0.323   0.768   8.044 -1.3812 -0.4929 -0.0909
   38CHL1    H8 3933   0.351   0.660   8.042 -0.8207 -0.3532 -2.8204
   38CHL1   C14 3934   0.322   0.817   7.897 -0.4729 -0.0567 -0.1171
   38CHL1   H14 3935   0.321   0.928   7.905  2.7717 -0.0055  0.7495
   38CHL1   C15 3936   0.198   0.771   7.808 -0.1668  0.7548 -0.6485
   38CHL1  H15A 3937   0.193   0.663   7.834 -0.1671  1.1784  1.2275
   38CHL1  H15B 3938   0.108   0.826   7.845  0.8520  3.0802 -1.4378
   38CHL1   C16 3939   0.244   0.805   7.664  0.1686 -0.4097  0.7220
   38CHL1  H16A 3940   0.231   0.721   7.593  2.0277 -2.1273  2.3039
   38CHL1  H16B 3941   0.191   0.893   7.622  0.6581 -1.2599 -1.8416
   38CHL1   C17 3942   0.399   0.832   7.669 -0.3595 -0.1776 -0.2465
   38CHL1   H17 3943   0.409   0.943   7.676  3.2986 -0.4098 -0.2286
   38CHL1   C13 3944   0.447   0.778   7.814 -0.2446 -0.0143  0.0264
   38CHL1   C18 3945   0.466   0.625   7.801 -0.0592 -0.1094  0.3368
   38CHL1  H18A 3946   0.554   0.609   7.735 -0.1433 -0.0194  0.2018
   38CHL1  H18B 3947   0.491   0.581   7.900  0.5413 -0.5119  0.0123
   38CHL1  H18C 3948   0.386   0.571   7.747  1.5843  0.3001 -2.7082
   38CHL1   C12 3949   0.572   0.843   7.885  0.0011  0.3908 -0.6617
   38CHL1  H12A 3950   0.668   0.801   7.848  0.2163  0.3496 -0.0623
   38CHL1  H12B 3951   0.573   0.953   7.869 -0.3254  0.6713  1.0811
   38CHL1   C11 3952   0.576   0.829   8.040 -0.1412 -0.1802  0.0874
   38CHL1  H11A 3953   0.623   0.732   8.066 -0.9416 -0.3625  0.9051
   38CHL1  H11B 3954   0.635   0.905   8.096  0.0962 -0.0147 -0.3848
   38CHL1    C9 3955   0.437   0.843   8.114 -0.0365 -0.8071  0.0329
   38CHL1    H9 3956   0.408   0.951   8.108 -0.2094 -0.8920 -0.8059
   38CHL1   C10 3957   0.455   0.817   8.271  0.5451  0.4401 -0.3175
   38CHL1   C19 3958   0.524   0.675   8.298  0.3131  0.1293 -0.0798
   38CHL1  H19A 3959   0.627   0.696   8.261 -0.6076  2.3705 -1.6388
   38CHL1  H19B 3960   0.536   0.651   8.405  1.8233  0.8935 -0.0432
   38CHL1  H19C 3961   0.474   0.593   8.242  1.8225 -1.5089  0.8577
   38CHL1    C1 3962   0.531   0.924   8.347  0.0170 -0.1253 -0.2503
   38CHL1   H1A 3963   0.634   0.937   8.309  0.1814  0.5724  0.4257
   38CHL1   H1B 3964   0.486   1.022   8.320 -1.6169 -0.8347 -0.2228
   38CHL1    C2 3965   0.536   0.910   8.508 -0.0687 -0.0049 -0.0416
   38CHL1   H2A 3966   0.592   0.989   8.562 -0.8671 -0.2899  1.2307
   38CHL1   H2B 3967   0.595   0.819   8.534 -1.0975 -0.9381 -0.8415
   38CHL1   C20 3968   0.466   0.791   7.533 -0.5129 -0.4663 -0.1592
   38CHL1   H20 3969   0.470   0.680   7.521  0.2956 -0.4857  0.2078
   38CHL1   C21 3970   0.609   0.846   7.528 -0.8431  0.5209 -0.1097
   38CHL1  H21A 3971   0.606   0.957   7.521  0.3171  0.5454 -0.4061
   38CHL1  H21B 3972   0.666   0.795   7.447 -2.1062  1.6798 -1.8067
   38CHL1  H21C 3973   0.663   0.813   7.619  0.1953  0.3834 -0.7660
   38CHL1   C22 3974   0.395   0.858   7.408 -0.0654 -0.6831  0.5829
   38CHL1  H22A 3975   0.293   0.813   7.400  0.2709 -1.3691  0.0694
   38CHL1  H22B 3976   0.388   0.969   7.409  0.3552 -0.5834 -1.8230
   38CHL1   C23 3977   0.469   0.814   7.274  0.0902 -0.8650  0.2090
   38CHL1  H23A 3978   0.549   0.887   7.249 -0.3338 -0.4261  0.0977
   38CHL1  H23B 3979   0.493   0.708   7.295 -1.3717 -1.6325 -1.8078
   38CHL1   C24 3980   0.381   0.827   7.147  0.1774 -0.7408 -0.2623
   38CHL1  H24A 3981   0.283   0.778   7.163  0.1525 -0.6901 -0.2612
   38CHL1  H24B 3982   0.382   0.935   7.122  2.0109  0.1446  2.9604
   38CHL1   C25 3983   0.440   0.757   7.024 -1.1216  0.6705 -0.0968
   38CHL1   H25 3984   0.456   0.652   7.056 -2.8385  0.4223  0.0545
   38CHL1   C26 3985   0.333   0.761   6.918 -0.1559 -0.0123  0.6740
   38CHL1  H26A 3986   0.378   0.723   6.823 -1.2352  1.5966 -0.5263
   38CHL1  H26B 3987   0.254   0.687   6.940  1.2655 -1.7368  0.2008
   38CHL1  H26C 3988   0.284   0.858   6.894 -1.2628 -1.1240 -1.9535
   38CHL1   C27 3989   0.581   0.828   6.994  0.2580 -1.0254  0.3897
   38CHL1  H27A 3990   0.552   0.933   6.974  0.1828 -0.6013  2.4412
   38CHL1  H27B 3991   0.659   0.817   7.073  0.0052  3.8060  1.6158
   38CHL1  H27C 3992   0.619   0.783   6.900 -0.5936 -1.9979  0.4952
   39CHL1    C3 3993   0.666   1.924   8.292  0.1116  0.6588  0.1444
   39CHL1    H3 3994   0.664   2.032   8.265  1.4275  0.5600 -0.3910
   39CHL1    O3 3995   0.665   1.936   8.437  0.6086 -0.2020  0.4687
   39CHL1   H3' 3996   0.758   1.930   8.462  1.3047 -0.9464 -2.0238
   39CHL1    C4 3997   0.543   1.841   8.247 -0.6566 -1.1756 -0.4620
   39CHL1   H4A 3998   0.543   1.743   8.298  0.4041 -1.0323 -0.1580
   39CHL1   H4B 3999   0.454   1.890   8.291  0.1640 -1.2771  1.3963
   39CHL1    C5 4000   0.545   1.846   8.095 -0.6054 -0.0621  0.5896
   39CHL1    C6 4001   0.447   1.909   8.027 -0.1784 -0.4108  0.0518
   39CHL1    H6 4002   0.363   1.964   8.071 -0.2654  0.0240 -0.6442
   39CHL1    C7 4003   0.447   1.926   7.877  0.5014  0.5111 -0.4717
   39CHL1   H7A 4004   0.342   1.912   7.843 -0.9972 -0.3750  3.9489
   39CHL1   H7B 4005   0.479   2.031   7.857 -1.4282  0.8575 -2.0887
   39CHL1    C8 4006   0.551   1.839   7.799  0.4392 -0.0323  0.6523
   39CHL1    H8 4007   0.525   1.731   7.803 -2.2204  0.5237  0.0347
   39CHL1   C14 4008   0.566   1.892   7.665 -0.8707  0.0819 -0.4965
   39CHL1   H14 4009   0.613   1.990   7.685  0.5882 -1.1621  2.7406
   39CHL1   C15 4010   0.448   1.909   7.574  0.1343 -0.1208 -0.0182
   39CHL1  H15A 4011   0.392   1.813   7.578 -1.0881  0.6205  1.3231
   39CHL1  H15B 4012   0.380   1.990   7.607  0.1222 -1.3926  3.4781
   39CHL1   C16 4013   0.507   1.928   7.435  0.1947  0.4417 -0.0443
   39CHL1  H16A 4014   0.458   1.850   7.373  1.4726  0.8838 -1.6729
   39CHL1  H16B 4015   0.483   2.014   7.369 -0.4441 -0.2954 -0.7893
   39CHL1   C17 4016   0.661   1.893   7.445 -0.0980  0.5741  0.1349
   39CHL1   H17 4017   0.707   1.994   7.451  1.2273 -0.0571  0.8186
   39CHL1   C13 4018   0.672   1.813   7.580  0.9393  0.4700  0.2579
   39CHL1   C18 4019   0.628   1.669   7.546  0.5257 -0.1263  0.4149
   39CHL1  H18A 4020   0.668   1.635   7.448 -0.0325  2.2307 -0.7244
   39CHL1  H18B 4021   0.650   1.606   7.635  1.0671  0.1912  0.5123
   39CHL1  H18C 4022   0.523   1.660   7.512  0.9064 -0.8866 -0.6161
   39CHL1   C12 4023   0.809   1.825   7.647 -0.2351  0.1727 -0.4028
   39CHL1  H12A 4024   0.884   1.753   7.606 -1.9019 -3.5305  2.4211
   39CHL1  H12B 4025   0.840   1.930   7.664  2.4839 -0.9521  2.6391
   39CHL1   C11 4026   0.805   1.784   7.798 -1.1151 -1.1079 -0.0302
   39CHL1  H11A 4027   0.797   1.674   7.808 -1.7489 -1.0394  0.2473
   39CHL1  H11B 4028   0.897   1.821   7.849 -1.5810  0.9154 -0.5743
   39CHL1    C9 4029   0.684   1.846   7.878  0.3666  0.1167  0.2201
   39CHL1    H9 4030   0.707   1.955   7.878 -0.9759  0.4312 -1.1362
   39CHL1   C10 4031   0.683   1.798   8.026  0.4333  0.0418 -0.4951
   39CHL1   C19 4032   0.669   1.649   8.029 -0.7613  0.6835  0.1769
   39CHL1  H19A 4033   0.590   1.606   7.963 -0.8502  2.4050 -0.8851
   39CHL1  H19B 4034   0.765   1.601   8.000 -1.0545  0.6407 -0.7628
   39CHL1  H19C 4035   0.660   1.613   8.133 -0.5380  0.8322  0.2482
   39CHL1    C1 4036   0.809   1.844   8.104  0.1682 -0.3022  0.0578
   39CHL1   H1A 4037   0.899   1.788   8.071 -0.1445 -1.5060  1.2009
   39CHL1   H1B 4038   0.825   1.949   8.072  0.6284 -0.3666  0.0786
   39CHL1    C2 4039   0.798   1.854   8.249  0.4143  0.2162 -0.6376
   39CHL1   H2A 4040   0.886   1.903   8.296 -0.2849  1.1372 -0.2544
   39CHL1   H2B 4041   0.798   1.753   8.294 -1.3232 -0.2025 -1.4786
   39CHL1   C20 4042   0.713   1.837   7.310 -0.1972  0.0237 -0.1493
   39CHL1   H20 4043   0.660   1.746   7.277  3.1599 -1.6505 -1.4225
   39CHL1   C21 4044   0.865   1.793   7.323  0.0907 -0.5678 -0.0038
   39CHL1  H21A 4045   0.930   1.871   7.368 -0.2821 -0.1759 -0.1362
   39CHL1  H21B 4046   0.911   1.758   7.229  0.1544  1.1971 -0.6643
   39CHL1  H21C 4047   0.873   1.704   7.390  2.8298  0.4402  1.1457
   39CHL1   C22 4048   0.689   1.935   7.188 -0.7769 -0.0172  0.1430
   39CHL1  H22A 4049   0.586   1.975   7.192 -0.0883  2.0052 -0.7878
   39CHL1  H22B 4050   0.760   2.020   7.201  0.6888 -1.0398 -0.7786
   39CHL1   C23 4051   0.710   1.880   7.045 -0.7567 -0.0473  0.1779
   39CHL1  H23A 4052   0.820   1.885   7.026 -0.8177  0.3351 -0.0850
   39CHL1  H23B 4053   0.677   1.774   7.047  0.4863 -0.4556 -0.1731
   39CHL1   C24 4054   0.650   1.962   6.932 -0.2904  0.3665  0.1049
   39CHL1  H24A 4055   0.540   1.954   6.946 -0.1440  1.2795  2.1668
   39CHL1  H24B 4056   0.682   2.067   6.945 -0.5995  0.3191  1.4436
   39CHL1   C25 4057   0.692   1.911   6.795 -0.3427 -0.2621  0.7804
   39CHL1   H25 4058   0.690   1.800   6.803 -3.5113 -0.1828  2.9518
   39CHL1   C26 4059   0.584   1.948   6.696  0.0132  0.5814  0.6925
   39CHL1  H26A 4060   0.487   1.906   6.731  0.4985 -1.3731 -0.1643
   39CHL1  H26B 4061   0.574   2.058   6.688  3.8780  0.9651 -1.4594
   39CHL1  H26C 4062   0.609   1.913   6.594 -2.6721  1.4348 -0.3527
   39CHL1   C27 4063   0.829   1.969   6.739 -0.1367  0.1786  0.0340
   39CHL1  H27A 4064   0.906   1.962   6.819  1.8562  0.3873 -1.7829
   39CHL1  H27B 4065   0.873   1.900   6.663 -2.1457  0.1488 -1.1716
   39CHL1  H27C 4066   0.819   2.070   6.695  1.6756 -0.0291 -0.9409
   40CHL1    C3 4067   3.108   5.874   8.162  0.2350 -0.3181  0.5434
   40CHL1    H3 4068   3.080   5.791   8.094  2.2017 -0.5795 -0.0148
   40CHL1    O3 4069   3.067   5.844   8.291 -0.3501 -0.2679  0.4853
   40CHL1   H3' 4070   3.094   5.922   8.341 -1.6082  1.2820 -1.1155
   40CHL1    C4 4071   3.259   5.882   8.162 -0.2500  0.0965 -0.0808
   40CHL1   H4A 4072   3.289   5.959   8.236  1.1910 -0.2028 -0.3165
   40CHL1   H4B 4073   3.303   5.789   8.204  0.6096  0.1607 -0.7936
   40CHL1    C5 4074   3.315   5.906   8.027 -0.4323  0.1449 -0.3624
   40CHL1    C6 4075   3.404   5.820   7.967  1.4127 -0.1909 -0.6317
   40CHL1    H6 4076   3.450   5.744   8.033  2.2764  1.3536  0.6116
   40CHL1    C7 4077   3.461   5.825   7.831 -0.1001 -0.0489 -0.3121
   40CHL1   H7A 4078   3.570   5.842   7.839 -0.2431  0.8970 -0.2455
   40CHL1   H7B 4079   3.447   5.739   7.762 -1.8348  0.8157 -1.1060
   40CHL1    C8 4080   3.417   5.955   7.750  0.6621 -0.0074 -0.4391
   40CHL1    H8 4081   3.491   6.032   7.784  0.9095 -1.3246  2.2888
   40CHL1   C14 4082   3.422   5.926   7.603 -0.5768  0.2469 -0.5275
   40CHL1   H14 4083   3.345   5.847   7.588 -1.2956  0.5223  1.4674
   40CHL1   C15 4084   3.555   5.871   7.551 -0.2414  0.0675 -0.3984
   40CHL1  H15A 4085   3.638   5.928   7.599 -1.9685  2.7495 -0.4121
   40CHL1  H15B 4086   3.575   5.766   7.580  0.7319  0.1246 -0.7984
   40CHL1   C16 4087   3.547   5.898   7.402 -0.3904 -0.7451 -0.2642
   40CHL1  H16A 4088   3.642   5.936   7.359 -0.1625  0.5584  1.2885
   40CHL1  H16B 4089   3.515   5.808   7.346  0.5156 -2.1782  1.4386
   40CHL1   C17 4090   3.427   5.999   7.378  0.3794  0.3160  0.5971
   40CHL1   H17 4091   3.341   5.938   7.341  1.2385  0.3399 -1.6170
   40CHL1   C13 4092   3.392   6.053   7.524  0.4953  0.7259 -0.7324
   40CHL1   C18 4093   3.479   6.182   7.555  0.2208  0.4071 -0.6045
   40CHL1  H18A 4094   3.588   6.162   7.540  0.8377  4.1947 -2.2692
   40CHL1  H18B 4095   3.457   6.265   7.485 -0.0338 -0.6554 -1.8241
   40CHL1  H18C 4096   3.460   6.231   7.653  1.0481 -0.0022 -0.2296
   40CHL1   C12 4097   3.243   6.089   7.548  0.3025  0.3433 -0.0606
   40CHL1  H12A 4098   3.219   6.185   7.496  0.7808  0.6695  0.3106
   40CHL1  H12B 4099   3.179   6.011   7.502  1.0137 -0.3229  0.0582
   40CHL1   C11 4100   3.222   6.118   7.698  0.0898 -0.4075 -0.5786
   40CHL1  H11A 4101   3.274   6.211   7.730  0.7908 -0.5471 -1.2803
   40CHL1  H11B 4102   3.113   6.134   7.709 -0.0552 -0.3710 -1.8350
   40CHL1    C9 4103   3.274   6.003   7.790 -0.1537  0.7362 -0.0549
   40CHL1    H9 4104   3.211   5.916   7.762 -0.2565  0.5020  0.8732
   40CHL1   C10 4105   3.244   6.016   7.942  1.0448  0.1760 -0.0818
   40CHL1   C19 4106   3.294   6.153   7.993 -1.1197 -0.4625  0.3576
   40CHL1  H19A 4107   3.284   6.178   8.101 -1.1609 -1.3584  0.5701
   40CHL1  H19B 4108   3.403   6.150   7.972 -1.4498 -0.5291 -1.5444
   40CHL1  H19C 4109   3.250   6.247   7.952  0.7715  1.0325  1.6067
   40CHL1    C1 4110   3.090   6.018   7.962 -0.2373 -0.1669  0.4394
   40CHL1   H1A 4111   3.038   6.101   7.909  2.2000  0.0082 -1.8915
   40CHL1   H1B 4112   3.049   5.933   7.905 -1.0449  0.0243  0.7144
   40CHL1    C2 4113   3.045   6.004   8.103 -0.3781 -0.4688 -1.0077
   40CHL1   H2A 4114   2.936   5.989   8.086 -0.4158 -1.6011  0.0650
   40CHL1   H2B 4115   3.069   6.089   8.171 -0.5127 -1.9450  0.9740
   40CHL1   C20 4116   3.463   6.107   7.264  0.1429 -0.9292 -0.1713
   40CHL1   H20 4117   3.549   6.169   7.295 -0.6975  0.1102  0.1455
   40CHL1   C21 4118   3.344   6.205   7.237 -0.4295  0.1652 -0.2396
   40CHL1  H21A 4119   3.245   6.155   7.240 -1.2304  1.6948  0.2300
   40CHL1  H21B 4120   3.343   6.242   7.132 -4.5963 -1.0072 -0.7662
   40CHL1  H21C 4121   3.346   6.298   7.299  0.2261 -0.1061  0.1568
   40CHL1   C22 4122   3.496   6.028   7.130  0.4514 -0.0011  0.3907
   40CHL1  H22A 4123   3.576   5.955   7.155 -0.1415 -0.8640 -0.1745
   40CHL1  H22B 4124   3.403   5.976   7.100 -1.1941  3.7407 -1.6322
   40CHL1   C23 4125   3.563   6.105   7.013  0.4597  0.3020 -0.3836
   40CHL1  H23A 4126   3.496   6.189   6.983 -0.9712 -0.0476  1.6229
   40CHL1  H23B 4127   3.661   6.142   7.049 -0.0004  0.0327  1.2123
   40CHL1   C24 4128   3.585   6.012   6.893 -0.0525 -0.4205  0.1369
   40CHL1  H24A 4129   3.661   5.933   6.909  0.9915  0.0099 -2.1850
   40CHL1  H24B 4130   3.493   5.957   6.865 -1.2622  2.4029 -1.9741
   40CHL1   C25 4131   3.628   6.087   6.763  0.0131  0.3039 -1.0633
   40CHL1   H25 4132   3.552   6.165   6.742 -0.0577 -0.0878 -2.3006
   40CHL1   C26 4133   3.767   6.145   6.794 -0.1479  0.3041  0.1400
   40CHL1  H26A 4134   3.836   6.064   6.826 -0.4083 -0.5545 -1.3912
   40CHL1  H26B 4135   3.813   6.172   6.696  0.1735  0.5272  0.3515
   40CHL1  H26C 4136   3.761   6.247   6.838 -1.1359 -0.4320  1.8035
   40CHL1   C27 4137   3.646   5.998   6.639 -0.7616 -0.3324 -0.0367
   40CHL1  H27A 4138   3.547   5.960   6.606 -1.6188  0.4392  1.5057
   40CHL1  H27B 4139   3.702   6.051   6.559  0.5641 -1.1589  0.3194
   40CHL1  H27C 4140   3.698   5.903   6.664 -0.1584  0.1161  0.4438
   41CHL1    C3 4141   0.807   0.370   8.304  0.2518 -0.3493 -0.3826
   41CHL1    H3 4142   0.700   0.399   8.307 -0.1476 -1.7043 -0.6688
   41CHL1    O3 4143   0.858   0.337   8.437  0.2698  0.4071  0.2263
   41CHL1   H3' 4144   0.865   0.426   8.473  1.9066  0.2757  0.3045
   41CHL1    C4 4145   0.799   0.236   8.217 -0.1126  0.4132 -0.8052
   41CHL1   H4A 4146   0.901   0.194   8.228  0.9915  2.7944 -1.4220
   41CHL1   H4B 4147   0.724   0.166   8.259 -0.0919 -0.4358 -2.1202
   41CHL1    C5 4148   0.777   0.261   8.068  0.6348  0.4064 -0.3212
   41CHL1    C6 4149   0.668   0.202   8.008  0.5850 -0.3187  0.0589
   41CHL1    H6 4150   0.604   0.135   8.067  0.0623  1.3738  1.4910
   41CHL1    C7 4151   0.636   0.218   7.866  1.4418  0.0396 -0.1142
   41CHL1   H7A 4152   0.615   0.118   7.823 -1.3861  0.6314 -0.2920
   41CHL1   H7B 4153   0.545   0.280   7.849  0.8926  0.3193  3.1709
   41CHL1    C8 4154   0.749   0.282   7.785  0.2541 -0.2059  0.2332
   41CHL1    H8 4155   0.830   0.208   7.774 -0.3768 -0.8188 -0.3750
   41CHL1   C14 4156   0.695   0.329   7.650  0.5789 -0.1352  0.0687
   41CHL1   H14 4157   0.611   0.401   7.662 -0.5282 -0.8404 -2.5587
   41CHL1   C15 4158   0.619   0.224   7.556 -0.0773 -1.4953 -0.3863
   41CHL1  H15A 4159   0.679   0.131   7.569  1.0480 -0.5326  1.7852
   41CHL1  H15B 4160   0.511   0.217   7.583  0.1940 -0.8717  0.9155
   41CHL1   C16 4161   0.623   0.294   7.412  0.8257  0.3664 -0.5392
   41CHL1  H16A 4162   0.649   0.220   7.333  1.4154  2.4463 -2.3813
   41CHL1  H16B 4163   0.522   0.338   7.402 -0.2799 -1.1641  2.4379
   41CHL1   C17 4164   0.724   0.416   7.424 -0.1793  0.3848 -0.3156
   41CHL1   H17 4165   0.661   0.503   7.450  0.4681  0.2677  1.8541
   41CHL1   C13 4166   0.797   0.393   7.559 -0.1952 -0.3099 -0.3934
   41CHL1   C18 4167   0.919   0.306   7.525 -0.0749 -0.4738  0.3453
   41CHL1  H18A 4168   0.997   0.364   7.471  0.7935 -1.4536  0.5302
   41CHL1  H18B 4169   0.973   0.271   7.616  0.9008  1.0034  0.3726
   41CHL1  H18C 4170   0.888   0.214   7.471 -1.6631 -0.9028  1.8946
   41CHL1   C12 4171   0.844   0.519   7.640 -0.5051  0.3188 -0.7768
   41CHL1  H12A 4172   0.928   0.577   7.596  0.1436  1.0517  1.2660
   41CHL1  H12B 4173   0.759   0.589   7.653 -0.4955  0.4251 -1.2914
   41CHL1   C11 4174   0.907   0.485   7.769 -0.2044  0.1089  0.3054
   41CHL1  H11A 4175   1.009   0.443   7.756 -0.0757  0.5909 -0.2834
   41CHL1  H11B 4176   0.937   0.577   7.824 -1.1906  2.4786 -2.8110
   41CHL1    C9 4177   0.813   0.400   7.860  0.0120  0.3581 -1.3459
   41CHL1    H9 4178   0.724   0.458   7.892 -0.0127 -0.6416  0.5358
   41CHL1   C10 4179   0.868   0.367   8.004 -0.2921 -0.5458  0.3343
   41CHL1   C19 4180   1.012   0.309   7.984 -0.4021 -0.0611 -0.2049
   41CHL1  H19A 4181   1.088   0.389   7.970  0.1935 -0.4117  0.9035
   41CHL1  H19B 4182   1.050   0.265   8.079  1.1848 -2.3847 -1.8111
   41CHL1  H19C 4183   1.018   0.225   7.911 -0.5458 -1.9564  1.8369
   41CHL1    C1 4184   0.871   0.494   8.088  0.0689 -0.3300 -0.0551
   41CHL1   H1A 4185   0.946   0.560   8.038  0.9343 -0.7132  0.7100
   41CHL1   H1B 4186   0.773   0.546   8.084  1.2968  2.3065  1.3253
   41CHL1    C2 4187   0.907   0.471   8.238 -0.4467  0.4044 -0.0891
   41CHL1   H2A 4188   0.903   0.566   8.296  2.9092  0.9255 -0.5216
   41CHL1   H2B 4189   1.010   0.435   8.259 -0.1796  1.2067 -0.0057
   41CHL1   C20 4190   0.802   0.452   7.295 -0.0754  0.2982  0.5473
   41CHL1   H20 4191   0.879   0.376   7.268  1.0955  0.2264  3.7404
   41CHL1   C21 4192   0.860   0.593   7.303 -0.3115  0.1194  0.1149
   41CHL1  H21A 4193   0.929   0.620   7.220  0.2525  2.1805  1.1962
   41CHL1  H21B 4194   0.931   0.597   7.388  2.4840  1.3952 -2.0836
   41CHL1  H21C 4195   0.791   0.679   7.313  0.4816  0.6845  0.8396
   41CHL1   C22 4196   0.703   0.451   7.174  0.3043  0.1440  0.1176
   41CHL1  H22A 4197   0.670   0.345   7.164  0.9776 -0.3182  2.1538
   41CHL1  H22B 4198   0.620   0.518   7.205  1.0601  0.9836  0.3806
   41CHL1   C23 4199   0.769   0.500   7.042  0.1923 -0.2760  0.1111
   41CHL1  H23A 4200   0.756   0.610   7.042  0.0464 -0.2563  2.2217
   41CHL1  H23B 4201   0.876   0.471   7.042 -0.3454 -2.5246  0.8710
   41CHL1   C24 4202   0.696   0.446   6.915  0.0621 -0.0530 -0.6079
   41CHL1  H24A 4203   0.724   0.339   6.900 -0.7816 -0.4937  0.7272
   41CHL1  H24B 4204   0.587   0.459   6.933 -0.3464 -0.8749 -2.2902
   41CHL1   C25 4205   0.738   0.504   6.778 -0.1347 -0.1271  0.2259
   41CHL1   H25 4206   0.733   0.614   6.784  1.6305  0.0309 -0.4184
   41CHL1   C26 4207   0.886   0.459   6.741  0.1347  1.3921 -0.3552
   41CHL1  H26A 4208   0.930   0.522   6.661  1.6306  0.7863 -0.0556
   41CHL1  H26B 4209   0.947   0.471   6.834 -0.3285  1.0645 -0.0047
   41CHL1  H26C 4210   0.886   0.349   6.729 -1.7732  1.2082  0.8899
   41CHL1   C27 4211   0.632   0.454   6.675 -0.3240 -0.7855  0.3886
   41CHL1  H27A 4212   0.642   0.346   6.653 -0.0963 -0.9468  1.2302
   41CHL1  H27B 4213   0.529   0.473   6.711  0.6925  0.0244  3.1861
   41CHL1  H27C 4214   0.657   0.507   6.580 -0.8867 -0.8177  0.2200
   42CHL1    C3 4215   6.232   0.024   8.816  0.6142 -0.4084 -0.6097
   42CHL1    H3 4216   6.302   0.099   8.773 -0.6753 -0.0332 -2.1623
   42CHL1    O3 4217   6.215   0.053   8.956 -0.0579 -0.1491  0.0487
   42CHL1   H3' 4218   6.162   0.132   8.954 -2.3646 -1.6247 -2.1174
   42CHL1    C4 4219   6.096   0.026   8.739 -0.0592 -0.6058 -0.1373
   42CHL1   H4A 4220   6.035  -0.052   8.789 -1.9755  0.1715 -1.1547
   42CHL1   H4B 4221   6.038   0.118   8.758 -1.9276 -0.3516 -5.4753
   42CHL1    C5 4222   6.119  -0.017   8.592  0.0348 -0.1819  0.1266
   42CHL1    C6 4223   6.068   0.058   8.494 -0.1078 -0.3815  0.0290
   42CHL1    H6 4224   6.017   0.148   8.531  1.0777 -0.1696  1.2247
   42CHL1    C7 4225   6.068   0.018   8.345  0.0272  0.5498  0.5815
   42CHL1   H7A 4226   5.967   0.031   8.300  0.6566  1.4444 -0.6317
   42CHL1   H7B 4227   6.147   0.078   8.296 -0.6858  0.1779 -1.0953
   42CHL1    C8 4228   6.105  -0.137   8.329  0.5100 -0.7437 -0.1183
   42CHL1    H8 4229   6.015  -0.188   8.368 -1.2474 -0.4072 -3.4130
   42CHL1   C14 4230   6.136  -0.164   8.183  0.2036  0.6374  0.2767
   42CHL1   H14 4231   6.223  -0.104   8.149 -0.6435  1.2836 -0.8020
   42CHL1   C15 4232   6.036  -0.123   8.080  0.7002 -0.4733  0.5037
   42CHL1  H15A 4233   5.934  -0.168   8.087  0.7091 -0.2352  2.6455
   42CHL1  H15B 4234   6.037  -0.012   8.077 -0.8071 -0.4589 -0.6918
   42CHL1   C16 4235   6.097  -0.175   7.952  0.2824  0.1502  0.2075
   42CHL1  H16A 4236   6.014  -0.214   7.890  0.7591  1.2817 -1.2158
   42CHL1  H16B 4237   6.146  -0.093   7.895  1.9058  0.1398  1.5237
   42CHL1   C17 4238   6.200  -0.286   7.988  0.6256  0.2665 -0.0883
   42CHL1   H17 4239   6.300  -0.240   7.972  1.3692 -1.4105 -0.5402
   42CHL1   C13 4240   6.175  -0.302   8.144 -0.3473  0.1089 -0.5743
   42CHL1   C18 4241   6.064  -0.403   8.169  0.9289  0.0836  0.2445
   42CHL1  H18A 4242   6.035  -0.408   8.276 -1.0679 -0.6069 -0.2915
   42CHL1  H18B 4243   5.974  -0.368   8.114  1.8224  0.9439 -0.7412
   42CHL1  H18C 4244   6.092  -0.507   8.142  1.3284 -0.3237  2.1407
   42CHL1   C12 4245   6.305  -0.323   8.228 -0.1694 -0.1574  1.1550
   42CHL1  H12A 4246   6.369  -0.412   8.214  1.1884  0.7740  1.2345
   42CHL1  H12B 4247   6.364  -0.232   8.205 -2.7220  1.8295  1.9993
   42CHL1   C11 4248   6.280  -0.313   8.377 -0.2328  0.6989 -0.0174
   42CHL1  H11A 4249   6.217  -0.396   8.414 -0.5242  1.0477  0.2750
   42CHL1  H11B 4250   6.381  -0.334   8.419 -0.0929  0.2794 -0.5498
   42CHL1    C9 4251   6.225  -0.173   8.417 -0.5850  0.5617 -0.0323
   42CHL1    H9 4252   6.302  -0.099   8.387 -1.3989  1.1279 -0.8167
   42CHL1   C10 4253   6.191  -0.156   8.568 -0.1591  0.2761 -0.7255
   42CHL1   C19 4254   6.099  -0.271   8.614  0.3165  0.0426  0.7708
   42CHL1  H19A 4255   6.153  -0.367   8.621  0.9676  0.4861  2.3607
   42CHL1  H19B 4256   6.073  -0.250   8.721  3.3929 -0.1709  1.6334
   42CHL1  H19C 4257   6.004  -0.281   8.557  1.6785 -2.0420 -1.2591
   42CHL1    C1 4258   6.317  -0.156   8.656  0.5271  0.0230 -0.0957
   42CHL1   H1A 4259   6.361  -0.258   8.659  1.6801  0.4526 -1.3478
   42CHL1   H1B 4260   6.387  -0.090   8.601 -1.1165  1.6037 -0.3855
   42CHL1    C2 4261   6.301  -0.110   8.802  0.3280 -0.5443 -0.7339
   42CHL1   H2A 4262   6.388  -0.125   8.869 -0.2084  1.0242  0.3634
   42CHL1   H2B 4263   6.229  -0.180   8.849  0.1327  0.5090  0.5744
   42CHL1   C20 4264   6.193  -0.407   7.894  0.0250  0.3466  0.4141
   42CHL1   H20 4265   6.089  -0.445   7.899 -0.0738  0.5301 -0.1331
   42CHL1   C21 4266   6.295  -0.518   7.940 -0.3743  0.1327  0.0559
   42CHL1  H21A 4267   6.305  -0.596   7.862 -0.9977  0.8034 -0.7127
   42CHL1  H21B 4268   6.254  -0.561   8.034 -2.6169 -1.3444 -1.4924
   42CHL1  H21C 4269   6.398  -0.480   7.958 -0.9926  1.6646  0.5568
   42CHL1   C22 4270   6.218  -0.373   7.746  0.1169 -0.7612 -0.0436
   42CHL1  H22A 4271   6.188  -0.269   7.720  1.2442 -0.6964 -1.1909
   42CHL1  H22B 4272   6.328  -0.385   7.732 -0.0668 -0.2062 -2.1976
   42CHL1   C23 4273   6.138  -0.462   7.664 -0.5614  0.0612 -0.1071
   42CHL1  H23A 4274   6.166  -0.567   7.685 -1.1621  0.1395  1.1485
   42CHL1  H23B 4275   6.031  -0.461   7.692 -0.5097  0.5570  0.0751
   42CHL1   C24 4276   6.154  -0.440   7.508  0.5905 -1.2862  0.5831
   42CHL1  H24A 4277   6.108  -0.341   7.487  2.5502 -0.3573  0.4138
   42CHL1  H24B 4278   6.263  -0.431   7.488  0.4088  1.6037  0.4635
   42CHL1   C25 4279   6.096  -0.551   7.425 -0.7462 -0.3029  0.1390
   42CHL1   H25 4280   6.128  -0.647   7.471  2.4541 -0.8666 -2.8262
   42CHL1   C26 4281   5.938  -0.552   7.421  0.0243  0.0621 -0.2507
   42CHL1  H26A 4282   5.915  -0.652   7.378 -2.7840 -0.2519  1.6830
   42CHL1  H26B 4283   5.903  -0.538   7.526  0.0356 -1.4418 -0.0272
   42CHL1  H26C 4284   5.897  -0.468   7.361 -0.2154 -0.1217 -0.3482
   42CHL1   C27 4285   6.158  -0.555   7.286  0.3609  0.2259  0.2030
   42CHL1  H27A 4286   6.269  -0.556   7.284  0.3912  1.3188  0.3257
   42CHL1  H27B 4287   6.123  -0.651   7.242 -0.6248  1.8232 -2.8249
   42CHL1  H27C 4288   6.113  -0.476   7.222  1.3493  0.8677  0.2754
   43CHL1    C3 4289   4.203   4.459   8.145 -0.3888  0.0012  0.0179
   43CHL1    H3 4290   4.112   4.402   8.117 -0.4475 -0.8974  1.8750
   43CHL1    O3 4291   4.181   4.498   8.280  0.0404  0.0598 -0.7231
   43CHL1   H3' 4292   4.260   4.541   8.313 -1.1431  0.3327  1.9895
   43CHL1    C4 4293   4.320   4.360   8.135 -0.1349 -0.5044 -0.5182
   43CHL1   H4A 4294   4.405   4.408   8.189  0.3981 -0.0649 -1.7137
   43CHL1   H4B 4295   4.292   4.265   8.187 -0.5033  0.2371  0.6697
   43CHL1    C5 4296   4.372   4.321   7.994 -0.8519 -0.2837  0.6192
   43CHL1    C6 4297   4.389   4.196   7.954 -0.8999 -0.1385 -0.1517
   43CHL1    H6 4298   4.384   4.111   8.024  0.0812 -0.7704 -0.8195
   43CHL1    C7 4299   4.450   4.154   7.820  0.2451 -0.0934 -0.2002
   43CHL1   H7A 4300   4.537   4.087   7.838  0.5298  1.3541  6.0014
   43CHL1   H7B 4301   4.367   4.096   7.774  0.6773  1.2250 -2.7963
   43CHL1    C8 4302   4.499   4.270   7.733 -0.0714 -0.3120 -0.7567
   43CHL1    H8 4303   4.600   4.290   7.774 -1.6226  1.8302  2.3693
   43CHL1   C14 4304   4.494   4.220   7.589  0.4925  0.0020 -0.1996
   43CHL1   H14 4305   4.387   4.205   7.562  0.1445  1.4423  0.2945
   43CHL1   C15 4306   4.570   4.090   7.543  0.1772 -0.7416  0.5783
   43CHL1  H15A 4307   4.674   4.084   7.580  0.1282  1.0545  1.0752
   43CHL1  H15B 4308   4.518   3.995   7.568  0.5497 -0.5301  2.2773
   43CHL1   C16 4309   4.579   4.102   7.388 -0.1811  0.2950 -0.2638
   43CHL1  H16A 4310   4.683   4.086   7.351 -0.6602  1.7235 -2.4236
   43CHL1  H16B 4311   4.508   4.032   7.339 -1.9194 -0.2235  2.7483
   43CHL1   C17 4312   4.531   4.247   7.359 -0.2386 -0.5757  0.2069
   43CHL1   H17 4313   4.420   4.243   7.351 -0.7907  2.8518  3.3374
   43CHL1   C13 4314   4.543   4.330   7.488  0.4304 -0.2678  0.4635
   43CHL1   C18 4315   4.692   4.368   7.512  1.2161 -0.2996 -0.3563
   43CHL1  H18A 4316   4.729   4.458   7.458  0.8123  0.3519  0.4316
   43CHL1  H18B 4317   4.707   4.395   7.619 -1.1274 -0.4045  0.0560
   43CHL1  H18C 4318   4.749   4.279   7.478 -0.3708 -1.9103  0.9881
   43CHL1   C12 4319   4.446   4.452   7.493  0.3839  0.6984  0.2295
   43CHL1  H12A 4320   4.463   4.529   7.415 -0.6543  0.7152 -0.0034
   43CHL1  H12B 4321   4.343   4.417   7.467  1.6098 -3.1219 -0.1296
   43CHL1   C11 4322   4.433   4.509   7.642 -0.6430 -0.4867 -0.2489
   43CHL1  H11A 4323   4.530   4.559   7.661 -1.2499  1.2709 -1.5076
   43CHL1  H11B 4324   4.356   4.590   7.642  0.3591  0.4860  0.3424
   43CHL1    C9 4325   4.410   4.395   7.747  0.6064 -0.3035 -0.6118
   43CHL1    H9 4326   4.313   4.349   7.716  0.0419  1.0338 -0.9081
   43CHL1   C10 4327   4.391   4.441   7.896 -0.0059  0.0833 -0.3167
   43CHL1   C19 4328   4.522   4.525   7.934  0.0151  0.2115  0.0874
   43CHL1  H19A 4329   4.527   4.539   8.045 -0.0192  0.0873  0.1045
   43CHL1  H19B 4330   4.613   4.463   7.919  0.7087  0.9534  1.0204
   43CHL1  H19C 4331   4.529   4.623   7.883  2.7665 -0.2516 -0.5827
   43CHL1    C1 4332   4.262   4.530   7.912 -0.4801 -0.1643 -0.1153
   43CHL1   H1A 4333   4.274   4.613   7.839 -0.2108  0.0372  0.1549
   43CHL1   H1B 4334   4.176   4.470   7.875  1.1038 -2.4394 -0.3160
   43CHL1    C2 4335   4.228   4.581   8.054  0.7844 -0.6021  0.2436
   43CHL1   H2A 4336   4.145   4.655   8.050  1.9012  0.6204 -2.0769
   43CHL1   H2B 4337   4.316   4.639   8.087  0.9593  0.2606 -1.6134
   43CHL1   C20 4338   4.605   4.304   7.230 -0.0524  0.7665  0.0652
   43CHL1   H20 4339   4.713   4.293   7.252 -0.0281  1.9431  0.5981
   43CHL1   C21 4340   4.567   4.448   7.207  0.2561 -0.0135  0.3802
   43CHL1  H21A 4341   4.597   4.482   7.106 -1.6396  1.1470  0.1645
   43CHL1  H21B 4342   4.610   4.523   7.276  1.7255 -2.5044  2.3613
   43CHL1  H21C 4343   4.456   4.460   7.212  0.2901  0.9601 -0.9476
   43CHL1   C22 4344   4.568   4.220   7.107  0.0664 -0.1923  0.2611
   43CHL1  H22A 4345   4.571   4.113   7.139  1.8033 -0.4147 -0.5376
   43CHL1  H22B 4346   4.464   4.241   7.074 -0.1039 -1.0551  0.2082
   43CHL1   C23 4347   4.657   4.224   6.985  0.0064  0.0804 -0.2013
   43CHL1  H23A 4348   4.640   4.325   6.941  1.0397  0.3886  0.0833
   43CHL1  H23B 4349   4.764   4.216   7.015 -0.9776 -1.4516  3.4566
   43CHL1   C24 4350   4.610   4.116   6.883  0.5591 -0.2069  0.4064
   43CHL1  H24A 4351   4.615   4.013   6.925 -2.5635  0.1611  1.9906
   43CHL1  H24B 4352   4.501   4.134   6.874  0.3310 -1.3092  0.7591
   43CHL1   C25 4353   4.674   4.114   6.746 -0.2341  0.5663 -0.3113
   43CHL1   H25 4354   4.780   4.141   6.761 -0.1201 -1.1509  2.6616
   43CHL1   C26 4355   4.660   3.974   6.680  0.1830  0.1239 -0.7930
   43CHL1  H26A 4356   4.553   3.960   6.654 -0.3689  0.5008  1.1201
   43CHL1  H26B 4357   4.718   3.982   6.586  0.2599  1.0569 -0.6709
   43CHL1  H26C 4358   4.680   3.897   6.758 -0.9705  1.2604  0.6945
   43CHL1   C27 4359   4.606   4.218   6.650 -0.3272  0.2553 -0.0440
   43CHL1  H27A 4360   4.501   4.204   6.617 -0.2263 -0.0272 -0.2472
   43CHL1  H27B 4361   4.620   4.313   6.706  3.7600  0.0274 -0.4179
   43CHL1  H27C 4362   4.663   4.219   6.555 -2.4061 -0.4811 -1.3544
   44CHL1    C3 4363   0.235   2.580   8.110 -0.8521 -1.0808  0.2422
   44CHL1    H3 4364   0.128   2.561   8.087 -0.6102 -2.9731  0.5394
   44CHL1    O3 4365   0.242   2.606   8.249 -0.7986  0.2401  0.1130
   44CHL1   H3' 4366   0.255   2.701   8.251 -1.6640  0.3572  0.7296
   44CHL1    C4 4367   0.319   2.461   8.064 -0.0461 -0.0202 -0.7194
   44CHL1   H4A 4368   0.419   2.494   8.101  0.7576  0.7976 -3.3795
   44CHL1   H4B 4369   0.297   2.369   8.121  2.6401  1.1670  2.5397
   44CHL1    C5 4370   0.326   2.440   7.915 -0.4056  0.5941  0.5076
   44CHL1    C6 4371   0.305   2.324   7.846 -0.3735  0.6232  0.3509
   44CHL1    H6 4372   0.276   2.240   7.911  1.5164 -0.0480  0.3893
   44CHL1    C7 4373   0.320   2.303   7.697  0.7851 -0.1626  0.1431
   44CHL1   H7A 4374   0.378   2.217   7.658 -0.1129  0.5016 -2.9954
   44CHL1   H7B 4375   0.219   2.300   7.650  1.8430  2.3994 -2.6238
   44CHL1    C8 4376   0.384   2.418   7.623  0.1890  0.8373  0.4660
   44CHL1    H8 4377   0.495   2.414   7.632  0.3707 -1.9395 -1.6067
   44CHL1   C14 4378   0.367   2.404   7.474 -0.3551 -0.0451 -0.5057
   44CHL1   H14 4379   0.258   2.403   7.454  0.0791  0.3408 -3.1954
   44CHL1   C15 4380   0.417   2.273   7.408  0.0882  0.0095 -0.6913
   44CHL1  H15A 4381   0.509   2.228   7.450 -0.8082 -2.7924 -1.4892
   44CHL1  H15B 4382   0.342   2.191   7.418  1.8769 -1.7063 -0.8507
   44CHL1   C16 4383   0.439   2.311   7.264 -0.4525 -0.2615 -0.0676
   44CHL1  H16A 4384   0.548   2.301   7.242 -0.1110  0.5524  1.1420
   44CHL1  H16B 4385   0.377   2.256   7.190 -0.0561  1.2563 -1.5965
   44CHL1   C17 4386   0.407   2.463   7.252  0.4666 -0.0721 -0.0171
   44CHL1   H17 4387   0.297   2.455   7.233  0.1316 -2.4699  2.4466
   44CHL1   C13 4388   0.430   2.521   7.396 -0.1704  0.2587 -0.4243
   44CHL1   C18 4389   0.579   2.544   7.429  0.1198  0.5722  0.6004
   44CHL1  H18A 4390   0.602   2.581   7.531  1.9840  0.4428  0.2605
   44CHL1  H18B 4391   0.632   2.448   7.410  0.4279  0.9502 -0.5403
   44CHL1  H18C 4392   0.605   2.626   7.358 -1.5814  1.6660  1.1645
   44CHL1   C12 4393   0.350   2.648   7.437 -0.5764  0.5873  0.1501
   44CHL1  H12A 4394   0.401   2.731   7.384  0.0660 -0.2023 -0.4900
   44CHL1  H12B 4395   0.245   2.630   7.405 -0.7370  0.0849  0.9364
   44CHL1   C11 4396   0.355   2.675   7.592  0.0117  0.3299 -0.3017
   44CHL1  H11A 4397   0.449   2.728   7.618  0.2057  0.9700 -2.1503
   44CHL1  H11B 4398   0.283   2.752   7.629  1.7442  2.1676 -0.6024
   44CHL1    C9 4399   0.333   2.549   7.675  0.0363  0.1807 -0.6500
   44CHL1    H9 4400   0.223   2.537   7.681  0.2001 -0.7381  2.2796
   44CHL1   C10 4401   0.365   2.561   7.826 -0.0442 -0.6439  0.5700
   44CHL1   C19 4402   0.513   2.594   7.840 -0.1126 -0.6151  0.4561
   44CHL1  H19A 4403   0.539   2.686   7.784 -0.3917  0.3641  1.8849
   44CHL1  H19B 4404   0.544   2.613   7.945 -1.7958 -2.8664  1.4622
   44CHL1  H19C 4405   0.584   2.512   7.814 -1.6193 -1.3427 -1.6166
   44CHL1    C1 4406   0.274   2.676   7.881 -0.7124 -0.2811 -0.2673
   44CHL1   H1A 4407   0.309   2.769   7.832 -0.5606 -0.1703  0.0499
   44CHL1   H1B 4408   0.170   2.657   7.849 -0.0454 -0.3291 -2.5980
   44CHL1    C2 4409   0.273   2.701   8.032 -0.4004 -0.8164 -0.3819
   44CHL1   H2A 4410   0.200   2.781   8.057  0.3583  0.0055 -0.7274
   44CHL1   H2B 4411   0.375   2.743   8.049 -0.8438 -0.3730  1.3165
   44CHL1   C20 4412   0.470   2.535   7.136  0.2545 -0.0240 -0.7504
   44CHL1   H20 4413   0.575   2.565   7.157  0.3649 -0.6329 -0.3989
   44CHL1   C21 4414   0.390   2.668   7.118 -0.9028  0.2899  0.7763
   44CHL1  H21A 4415   0.386   2.700   7.012 -0.4393  0.4670  0.8096
   44CHL1  H21B 4416   0.433   2.752   7.177 -0.6952  0.6978  0.0572
   44CHL1  H21C 4417   0.283   2.669   7.148 -1.2748 -0.4834 -0.4423
   44CHL1   C22 4418   0.463   2.448   7.008 -0.2253  0.0073  0.0256
   44CHL1  H22A 4419   0.497   2.344   7.027  1.5033  0.3696 -0.8924
   44CHL1  H22B 4420   0.358   2.439   6.974 -0.9865 -1.1667  2.4621
   44CHL1   C23 4421   0.554   2.498   6.893 -0.4036 -0.1990  0.8718
   44CHL1  H23A 4422   0.504   2.582   6.839  1.2515 -2.0803 -4.1794
   44CHL1  H23B 4423   0.645   2.530   6.948  0.1355  1.0548 -0.6330
   44CHL1   C24 4424   0.561   2.390   6.779 -0.5455 -0.3348  0.7053
   44CHL1  H24A 4425   0.617   2.306   6.825  0.1264 -0.9607 -1.1548
   44CHL1  H24B 4426   0.455   2.376   6.749 -0.1519  0.4821 -1.2521
   44CHL1   C25 4427   0.650   2.437   6.653  0.5280 -0.1923 -0.6894
   44CHL1   H25 4428   0.640   2.348   6.587 -1.5847 -2.9718  2.9470
   44CHL1   C26 4429   0.606   2.562   6.585 -0.1871  0.0870  0.1947
   44CHL1  H26A 4430   0.592   2.643   6.660 -1.6850  0.3846 -0.3547
   44CHL1  H26B 4431   0.680   2.593   6.507  1.1213 -1.2050  0.8781
   44CHL1  H26C 4432   0.507   2.554   6.535 -0.1374  3.6349 -0.8013
   44CHL1   C27 4433   0.794   2.457   6.697  0.1198  0.0454  0.4861
   44CHL1  H27A 4434   0.799   2.536   6.774 -1.5212  1.7902 -1.0846
   44CHL1  H27B 4435   0.823   2.363   6.749  0.6704  0.1454  0.3653
   44CHL1  H27C 4436   0.865   2.476   6.614 -0.6524 -1.7443 -0.6500
   45CHL1    C3 4437   6.596   2.613   8.300  0.6579  0.1285  0.0092
   45CHL1    H3 4438   6.706   2.619   8.319  0.4811  0.4926  1.0381
   45CHL1    O3 4439   6.539   2.626   8.438 -0.2450  0.0107 -0.1739
   45CHL1   H3' 4440   6.584   2.700   8.478 -0.7438 -0.6133  1.6287
   45CHL1    C4 4441   6.541   2.719   8.216  0.3554 -0.8747  0.1944
   45CHL1   H4A 4442   6.431   2.719   8.205  0.3614  1.1618 -0.2726
   45CHL1   H4B 4443   6.574   2.812   8.266  0.9027  0.4756 -2.4903
   45CHL1    C5 4444   6.593   2.706   8.072 -0.0956 -0.6718  0.2533
   45CHL1    C6 4445   6.670   2.803   8.019 -0.1794 -0.1342  0.2317
   45CHL1    H6 4446   6.693   2.894   8.077  1.3289  0.0901 -0.6727
   45CHL1    C7 4447   6.716   2.817   7.870 -0.9687  0.0033 -0.6951
   45CHL1   H7A 4448   6.674   2.916   7.842 -0.4280  0.4899  0.1982
   45CHL1   H7B 4449   6.825   2.829   7.853 -1.0900  1.3468 -0.6480
   45CHL1    C8 4450   6.651   2.708   7.796 -0.1818  0.0847  0.1664
   45CHL1    H8 4451   6.543   2.735   7.789  0.0732  1.1432  0.1398
   45CHL1   C14 4452   6.718   2.693   7.660 -0.8440  0.5100 -0.1692
   45CHL1   H14 4453   6.823   2.670   7.687 -0.6662  0.1882 -1.1083
   45CHL1   C15 4454   6.726   2.809   7.561 -0.0760 -0.4516  0.2091
   45CHL1  H15A 4455   6.623   2.848   7.549  0.7769  1.9451 -0.0176
   45CHL1  H15B 4456   6.776   2.897   7.607 -1.7919  0.2016  0.9157
   45CHL1   C16 4457   6.769   2.746   7.434  0.1327 -0.3736 -0.5939
   45CHL1  H16A 4458   6.701   2.789   7.357  0.8125  0.4901 -0.7285
   45CHL1  H16B 4459   6.871   2.775   7.402  0.6115 -0.4044  0.8534
   45CHL1   C17 4460   6.765   2.591   7.449 -0.6474  0.1112 -0.2415
   45CHL1   H17 4461   6.867   2.565   7.485 -0.9480  1.1878  1.4872
   45CHL1   C13 4462   6.670   2.570   7.572 -0.8075 -0.1953  0.2138
   45CHL1   C18 4463   6.533   2.585   7.527 -0.3161 -0.1934 -0.3345
   45CHL1  H18A 4464   6.462   2.615   7.608  0.3270  1.1063 -0.2368
   45CHL1  H18B 4465   6.508   2.668   7.457 -2.3998 -0.9369 -0.5459
   45CHL1  H18C 4466   6.511   2.485   7.483  1.5531 -1.0281  0.5319
   45CHL1   C12 4467   6.699   2.445   7.655  0.0574  0.7022 -0.3236
   45CHL1  H12A 4468   6.677   2.356   7.592  1.6178  0.4481 -0.5529
   45CHL1  H12B 4469   6.808   2.435   7.674  0.2527  1.7837 -0.7804
   45CHL1   C11 4470   6.621   2.449   7.787 -0.2836 -0.2517  0.5447
   45CHL1  H11A 4471   6.514   2.446   7.757 -0.0361 -0.7905 -0.3262
   45CHL1  H11B 4472   6.641   2.355   7.842  1.9201  0.2061  0.6414
   45CHL1    C9 4473   6.654   2.574   7.873 -0.2319  0.0165  0.1186
   45CHL1    H9 4474   6.758   2.560   7.910 -0.7417  1.4856  2.3374
   45CHL1   C10 4475   6.565   2.578   8.003  0.0686  0.5250 -0.0675
   45CHL1   C19 4476   6.415   2.570   7.977 -0.3564 -0.1872 -0.2545
   45CHL1  H19A 4477   6.359   2.554   8.071  0.5299  0.2467  0.3669
   45CHL1  H19B 4478   6.364   2.659   7.936 -1.1312  0.7703  2.5701
   45CHL1  H19C 4479   6.396   2.480   7.915  3.4936 -1.9618  0.7741
   45CHL1    C1 4480   6.613   2.467   8.101  0.1501  0.2917  0.4039
   45CHL1   H1A 4481   6.577   2.369   8.063  0.9419  0.8927 -2.0970
   45CHL1   H1B 4482   6.723   2.462   8.099  0.1754 -0.6024  2.2867
   45CHL1    C2 4483   6.563   2.474   8.247  0.3810 -0.3241  0.0348
   45CHL1   H2A 4484   6.612   2.391   8.302  0.7862 -0.6974 -0.8690
   45CHL1   H2B 4485   6.452   2.475   8.239  0.4955  0.3626 -2.1065
   45CHL1   C20 4486   6.722   2.527   7.312 -0.6070  0.3298 -0.3585
   45CHL1   H20 4487   6.618   2.555   7.288 -1.4636 -1.4635  1.0334
   45CHL1   C21 4488   6.734   2.374   7.317  0.5997 -0.6773 -0.5848
   45CHL1  H21A 4489   6.697   2.327   7.224  0.3420 -0.4108 -0.6194
   45CHL1  H21B 4490   6.664   2.333   7.392  0.2442 -0.7876 -0.9734
   45CHL1  H21C 4491   6.838   2.347   7.348 -0.1290 -1.5208  1.2716
   45CHL1   C22 4492   6.815   2.577   7.200 -0.7203  0.5241  0.8723
   45CHL1  H22A 4493   6.852   2.679   7.220  0.2510  0.3813 -0.1135
   45CHL1  H22B 4494   6.906   2.514   7.195 -0.3353  1.1181  0.2705
   45CHL1   C23 4495   6.746   2.568   7.063  0.1252 -0.3823 -0.2691
   45CHL1  H23A 4496   6.694   2.470   7.051 -2.3943  0.7678  0.5657
   45CHL1  H23B 4497   6.659   2.636   7.051  0.7627  0.7143  0.9931
   45CHL1   C24 4498   6.860   2.583   6.957  0.0289 -0.8205 -0.3883
   45CHL1  H24A 4499   6.903   2.685   6.971 -0.0746 -0.3573 -2.8810
   45CHL1  H24B 4500   6.935   2.501   6.956  1.5894  0.5382 -0.3757
   45CHL1   C25 4501   6.804   2.606   6.816  0.0831  0.0701 -0.3726
   45CHL1   H25 4502   6.733   2.692   6.811 -0.1276 -0.0935 -0.2387
   45CHL1   C26 4503   6.920   2.638   6.721  0.5932  0.3823 -0.4936
   45CHL1  H26A 4504   6.881   2.644   6.617 -0.8470 -1.4551 -0.1060
   45CHL1  H26B 4505   6.974   2.730   6.753 -3.0744  3.3659 -2.1333
   45CHL1  H26C 4506   6.998   2.560   6.739  1.2136  1.6076  2.7352
   45CHL1   C27 4507   6.737   2.483   6.768 -0.2735  0.0540 -0.1020
   45CHL1  H27A 4508   6.634   2.467   6.805  0.3726 -1.4485  1.1513
   45CHL1  H27B 4509   6.728   2.495   6.658  2.9697  1.2312 -0.3657
   45CHL1  H27C 4510   6.804   2.398   6.794 -1.6458 -0.5290  1.6913
   46CHL1    C3 4511   0.397   6.639   8.603  0.1197  0.0391  0.0508
   46CHL1    H3 4512   0.352   6.544   8.637 -0.0091  0.1726  0.2493
   46CHL1    O3 4513   0.426   6.710   8.721 -0.7014 -0.5288  0.9636
   46CHL1   H3' 4514   0.484   6.665   8.782  0.0998 -0.7973  0.0143
   46CHL1    C4 4515   0.508   6.605   8.513 -0.2865  0.4330 -0.6972
   46CHL1   H4A 4516   0.575   6.693   8.505 -1.3036  1.5090  1.4061
   46CHL1   H4B 4517   0.567   6.527   8.565 -1.3109 -1.4036 -2.1742
   46CHL1    C5 4518   0.488   6.561   8.368 -0.2196  0.2028 -0.6813
   46CHL1    C6 4519   0.556   6.451   8.323  0.3183 -0.0251  0.5129
   46CHL1    H6 4520   0.628   6.399   8.388  1.2548  0.1077 -0.3878
   46CHL1    C7 4521   0.544   6.402   8.183 -0.0024 -0.1138 -0.7034
   46CHL1   H7A 4522   0.646   6.393   8.140 -0.1568  1.2457 -1.4147
   46CHL1   H7B 4523   0.491   6.305   8.176 -0.0212  0.0116 -2.8419
   46CHL1    C8 4524   0.470   6.506   8.087 -0.1929  0.3376  0.6270
   46CHL1    H8 4525   0.541   6.588   8.064 -0.2788  0.6025  1.2814
   46CHL1   C14 4526   0.435   6.438   7.954  0.1959  0.5725  0.1837
   46CHL1   H14 4527   0.370   6.353   7.984  1.1867  0.1430  1.1743
   46CHL1   C15 4528   0.551   6.371   7.876  0.2530 -0.1029 -0.5479
   46CHL1  H15A 4529   0.633   6.444   7.856  0.1119  0.0791 -0.4604
   46CHL1  H15B 4530   0.583   6.276   7.924  1.7983  0.2511 -0.8012
   46CHL1   C16 4531   0.481   6.334   7.745  0.3547 -1.0779 -0.0217
   46CHL1  H16A 4532   0.545   6.375   7.663  1.6031 -2.6952  0.0857
   46CHL1  H16B 4533   0.466   6.226   7.723 -1.8572 -0.5650 -1.3077
   46CHL1   C17 4534   0.339   6.412   7.742 -0.2681 -0.1295 -0.1285
   46CHL1   H17 4535   0.255   6.348   7.775  1.2563 -0.9037  2.5937
   46CHL1   C13 4536   0.354   6.515   7.856  0.5704  0.0680  0.1694
   46CHL1   C18 4537   0.438   6.633   7.806  0.0591 -0.2782 -0.0573
   46CHL1  H18A 4538   0.367   6.709   7.769  0.5391  0.0655 -0.2874
   46CHL1  H18B 4539   0.487   6.677   7.896  0.2330  1.0825 -0.7828
   46CHL1  H18C 4540   0.519   6.603   7.736 -0.6253 -4.1001  0.5433
   46CHL1   C12 4541   0.232   6.571   7.933  0.3576  0.2766  0.4426
   46CHL1  H12A 4542   0.168   6.636   7.869  1.0490  0.5439  0.0099
   46CHL1  H12B 4543   0.178   6.479   7.962  1.0030 -0.9171 -1.9128
   46CHL1   C11 4544   0.263   6.649   8.065 -0.4471 -0.2585  0.3143
   46CHL1  H11A 4545   0.309   6.743   8.029  0.0743 -0.2533  0.9757
   46CHL1  H11B 4546   0.161   6.672   8.102 -0.6750  0.0969 -0.5197
   46CHL1    C9 4547   0.349   6.563   8.165 -1.1132 -0.8532  0.0006
   46CHL1    H9 4548   0.282   6.481   8.197 -0.9890 -0.6297  0.8512
   46CHL1   C10 4549   0.384   6.643   8.294 -0.1610  0.4926  0.1745
   46CHL1   C19 4550   0.456   6.773   8.263 -0.8426  0.5871  0.2781
   46CHL1  H19A 4551   0.384   6.855   8.244 -0.4548  1.3003  1.7067
   46CHL1  H19B 4552   0.512   6.823   8.345 -2.2529  0.6440  1.2435
   46CHL1  H19C 4553   0.519   6.768   8.172 -2.5050  2.1396 -1.0242
   46CHL1    C1 4554   0.264   6.651   8.390 -0.2969 -0.0103  0.1122
   46CHL1   H1A 4555   0.194   6.724   8.344  0.3615  0.7561  0.2950
   46CHL1   H1B 4556   0.199   6.564   8.409 -2.3162  0.6847 -2.8878
   46CHL1    C2 4557   0.294   6.727   8.521 -0.5445 -0.3055 -0.5966
   46CHL1   H2A 4558   0.195   6.727   8.571 -0.1760 -1.1606  0.1690
   46CHL1   H2B 4559   0.330   6.830   8.502  0.6259 -0.8378 -1.3930
   46CHL1   C20 4560   0.306   6.450   7.599  0.2839  0.5481  0.5393
   46CHL1   H20 4561   0.373   6.525   7.554 -1.2564  1.2525 -0.6680
   46CHL1   C21 4562   0.168   6.516   7.599 -0.0114 -0.2158 -0.0707
   46CHL1  H21A 4563   0.174   6.613   7.653  0.2425 -0.5337  0.4809
   46CHL1  H21B 4564   0.092   6.453   7.649  0.5978 -0.7793  0.1613
   46CHL1  H21C 4565   0.125   6.533   7.498 -0.8325 -1.0686  0.1188
   46CHL1   C22 4566   0.297   6.314   7.517 -0.3006 -0.4741  0.3379
   46CHL1  H22A 4567   0.354   6.230   7.559  0.4292  0.0934  0.4980
   46CHL1  H22B 4568   0.190   6.287   7.530  0.0169 -1.5602  0.7975
   46CHL1   C23 4569   0.308   6.318   7.365 -0.2441  0.7466  1.0374
   46CHL1  H23A 4570   0.210   6.348   7.321  1.4065  0.8762 -2.9595
   46CHL1  H23B 4571   0.391   6.379   7.323 -0.4361 -0.9325 -2.0985
   46CHL1   C24 4572   0.313   6.176   7.304 -0.1656 -0.5589  0.3645
   46CHL1  H24A 4573   0.403   6.124   7.344 -0.6942  0.5136  3.1287
   46CHL1  H24B 4574   0.227   6.117   7.342 -0.1187 -1.3477 -0.6881
   46CHL1   C25 4575   0.320   6.178   7.149  0.3790 -0.0311 -0.4823
   46CHL1   H25 4576   0.225   6.227   7.120 -0.0832 -1.0016 -0.6341
   46CHL1   C26 4577   0.447   6.251   7.088  0.1847 -0.0432  0.5320
   46CHL1  H26A 4578   0.440   6.358   7.115 -1.8356  0.6405 -2.2612
   46CHL1  H26B 4579   0.535   6.200   7.132  0.1670 -1.1017 -0.6028
   46CHL1  H26C 4580   0.454   6.246   6.978  2.5569 -3.4603  0.6682
   46CHL1   C27 4581   0.305   6.040   7.095  0.3009  0.1955  0.1327
   46CHL1  H27A 4582   0.267   6.049   6.991  2.6978  0.5845 -0.7777
   46CHL1  H27B 4583   0.407   5.998   7.091 -0.0483 -0.5711 -1.2237
   46CHL1  H27C 4584   0.247   5.971   7.160  3.4678 -3.1515 -0.2676
   47CHL1    C3 4585   2.682   5.836   8.251  0.2371 -0.2317  0.4864
   47CHL1    H3 4586   2.774   5.899   8.253  0.7403 -0.9410  2.6737
   47CHL1    O3 4587   2.654   5.815   8.392 -0.3405 -0.3911  0.0225
   47CHL1   H3' 4588   2.587   5.747   8.399  0.3781 -0.9256  4.8298
   47CHL1    C4 4589   2.568   5.905   8.176  0.2074  0.4810 -0.3436
   47CHL1   H4A 4590   2.478   5.840   8.186 -0.0838  0.8508 -0.5736
   47CHL1   H4B 4591   2.545   5.995   8.237  0.2727  1.7961 -2.1974
   47CHL1    C5 4592   2.601   5.922   8.033 -0.2859  0.2386 -0.2224
   47CHL1    C6 4593   2.626   6.042   7.983  0.3334  0.0598 -0.2391
   47CHL1    H6 4594   2.626   6.126   8.054 -0.4650  0.0523 -0.2204
   47CHL1    C7 4595   2.661   6.083   7.839 -0.3908  0.6096  0.7992
   47CHL1   H7A 4596   2.593   6.162   7.801 -1.6316 -1.4209 -1.4509
   47CHL1   H7B 4597   2.764   6.123   7.830 -0.0419 -0.6844 -2.2666
   47CHL1    C8 4598   2.653   5.961   7.745  0.0179  0.0517 -0.3196
   47CHL1    H8 4599   2.545   5.961   7.718  0.6427  1.1375 -3.1939
   47CHL1   C14 4600   2.746   5.984   7.630 -0.2039  0.6900  0.6463
   47CHL1   H14 4601   2.847   5.965   7.672 -0.1889 -1.1256 -0.1210
   47CHL1   C15 4602   2.753   6.120   7.558  0.2292 -1.2002 -0.7726
   47CHL1  H15A 4603   2.654   6.169   7.541  1.0197  0.2677 -1.3132
   47CHL1  H15B 4604   2.816   6.184   7.623 -0.0050 -2.4901  0.8139
   47CHL1   C16 4605   2.806   6.089   7.425 -0.8429 -0.5778 -0.1406
   47CHL1  H16A 4606   2.737   6.123   7.345  0.3324  3.3061  0.2851
   47CHL1  H16B 4607   2.903   6.142   7.412 -0.8237 -0.5562  0.0846
   47CHL1   C17 4608   2.830   5.935   7.416 -1.4147  0.6457 -0.1513
   47CHL1   H17 4609   2.930   5.904   7.450 -1.6410 -0.2561 -0.2897
   47CHL1   C13 4610   2.731   5.881   7.515 -0.0695 -0.3984  0.1877
   47CHL1   C18 4611   2.595   5.896   7.446 -0.2352 -0.1219  0.2892
   47CHL1  H18A 4612   2.515   5.883   7.522  1.4414  0.1720  2.1853
   47CHL1  H18B 4613   2.578   5.995   7.398  2.2748 -0.2817 -1.0656
   47CHL1  H18C 4614   2.591   5.818   7.368  0.4263  0.4333 -0.3145
   47CHL1   C12 4615   2.763   5.739   7.579  0.3110  0.7604 -0.1822
   47CHL1  H12A 4616   2.757   5.649   7.514  1.5832  0.2566  0.3595
   47CHL1  H12B 4617   2.868   5.733   7.616  0.4955 -1.8125 -0.9517
   47CHL1   C11 4618   2.681   5.706   7.702 -0.0608  0.2212 -0.5630
   47CHL1  H11A 4619   2.578   5.671   7.679  0.5510 -0.9933 -1.5559
   47CHL1  H11B 4620   2.729   5.621   7.755  0.4396  1.3343  0.8494
   47CHL1    C9 4621   2.691   5.827   7.806  0.4844  0.8025 -1.1204
   47CHL1    H9 4622   2.800   5.830   7.825  0.3031  0.0101  0.1552
   47CHL1   C10 4623   2.629   5.793   7.953  0.3294 -0.9467 -0.1818
   47CHL1   C19 4624   2.490   5.729   7.935  0.2501 -0.4651 -0.3487
   47CHL1  H19A 4625   2.429   5.730   8.027 -0.5409 -0.9056 -0.8572
   47CHL1  H19B 4626   2.439   5.786   7.855 -1.4699 -3.1730 -1.3197
   47CHL1  H19C 4627   2.493   5.627   7.889  0.9084 -0.7106  0.2259
   47CHL1    C1 4628   2.727   5.707   8.034 -0.3206 -0.3735  0.2489
   47CHL1   H1A 4629   2.724   5.605   7.990 -0.6987  0.0558 -0.7623
   47CHL1   H1B 4630   2.821   5.755   8.002 -2.6253  2.6033 -2.8319
   47CHL1    C2 4631   2.704   5.698   8.186  0.0286 -0.2776  0.2770
   47CHL1   H2A 4632   2.804   5.668   8.224  0.8347  0.9976 -0.7414
   47CHL1   H2B 4633   2.625   5.621   8.193 -1.5140  1.0723 -1.3106
   47CHL1   C20 4634   2.836   5.880   7.266 -0.1358  0.1694  0.6894
   47CHL1   H20 4635   2.740   5.897   7.213  0.4095 -0.2252 -0.4513
   47CHL1   C21 4636   2.849   5.725   7.270 -0.4357 -0.2337  0.0888
   47CHL1  H21A 4637   2.928   5.697   7.344  0.7611 -1.6305 -1.6293
   47CHL1  H21B 4638   2.888   5.680   7.176 -1.5050  1.2227 -1.0889
   47CHL1  H21C 4639   2.755   5.673   7.297 -1.6066  2.0269  0.5691
   47CHL1   C22 4640   2.947   5.956   7.188  0.4052  0.7536  0.3208
   47CHL1  H22A 4641   2.940   6.066   7.204  1.5304  1.0579 -1.0875
   47CHL1  H22B 4642   3.046   5.920   7.225  0.1014  0.7123  1.1078
   47CHL1   C23 4643   2.947   5.934   7.039 -0.0791  0.0006  0.1297
   47CHL1  H23A 4644   2.954   5.824   7.029 -0.9039 -0.0495  0.0410
   47CHL1  H23B 4645   2.850   5.969   6.999  0.8056  3.1550  0.4044
   47CHL1   C24 4646   3.068   6.009   6.969  0.5479  0.1575 -0.1047
   47CHL1  H24A 4647   3.074   6.117   6.997  2.2537 -0.5195  2.5473
   47CHL1  H24B 4648   3.161   5.954   6.996  0.0650 -0.3408  0.5726
   47CHL1   C25 4649   3.062   5.999   6.818  0.6631 -0.2809 -0.3763
   47CHL1   H25 4650   3.049   5.890   6.798 -0.0047 -0.6244  1.6550
   47CHL1   C26 4651   2.942   6.085   6.769 -0.7246  0.1736  0.0568
   47CHL1  H26A 4652   2.840   6.049   6.792 -1.4925  0.7304 -2.1738
   47CHL1  H26B 4653   2.960   6.178   6.826  0.5861 -0.4903  0.7848
   47CHL1  H26C 4654   2.952   6.097   6.659  0.0519  1.1040  0.2103
   47CHL1   C27 4655   3.196   6.042   6.752  0.6720 -0.3963  0.5230
   47CHL1  H27A 4656   3.205   6.004   6.648 -1.6107 -1.1254  0.5236
   47CHL1  H27B 4657   3.206   6.153   6.754 -2.7415  0.1176 -1.5048
   47CHL1  H27C 4658   3.276   5.985   6.803  1.0492  0.6031  1.0625
   48CHL1    C3 4659   0.066   5.844   8.850 -0.0749 -0.4641  0.4012
   48CHL1    H3 4660   0.092   5.947   8.816  1.4288 -0.8529  0.3093
   48CHL1    O3 4661   0.063   5.850   8.993 -0.0357  0.3484  0.3037
   48CHL1   H3' 4662  -0.029   5.853   9.021 -0.0089 -2.3896  0.9720
   48CHL1    C4 4663  -0.064   5.793   8.803  0.2896  0.2917  0.4379
   48CHL1   H4A 4664  -0.079   5.689   8.841 -0.5983  0.2712  0.0626
   48CHL1   H4B 4665  -0.153   5.844   8.846 -1.0178 -0.8281 -0.8229
   48CHL1    C5 4666  -0.058   5.788   8.652 -0.8779  1.0407 -0.1285
   48CHL1    C6 4667  -0.134   5.866   8.577  0.4889 -0.3079  0.3938
   48CHL1    H6 4668  -0.207   5.930   8.628 -1.3902 -1.2254 -1.0183
   48CHL1    C7 4669  -0.131   5.864   8.421 -0.5416 -0.2752 -0.2452
   48CHL1   H7A 4670  -0.235   5.870   8.383 -1.0854  1.7594  1.3827
   48CHL1   H7B 4671  -0.081   5.955   8.381 -0.1438 -0.1579  0.5043
   48CHL1    C8 4672  -0.057   5.744   8.364  0.1852  0.1496  0.3284
   48CHL1    H8 4673  -0.116   5.653   8.387 -0.1305  0.5683  1.2281
   48CHL1   C14 4674  -0.035   5.753   8.213 -0.2360  0.1981  0.2579
   48CHL1   H14 4675   0.025   5.847   8.206  0.7686 -0.2941  1.8104
   48CHL1   C15 4676  -0.157   5.776   8.119  0.2863 -0.2389  0.1386
   48CHL1  H15A 4677  -0.244   5.710   8.143  0.4964 -0.6448 -0.1976
   48CHL1  H15B 4678  -0.187   5.883   8.124 -1.1999 -0.6799  2.7164
   48CHL1   C16 4679  -0.109   5.731   7.982 -0.1352  1.1488 -0.3191
   48CHL1  H16A 4680  -0.180   5.650   7.955 -0.2567  0.5790  1.5842
   48CHL1  H16B 4681  -0.123   5.809   7.904 -3.3741  1.8130  0.7643
   48CHL1   C17 4682   0.036   5.683   8.001 -0.4375  0.5670  0.4181
   48CHL1   H17 4683   0.103   5.771   7.987 -0.7942  1.0551  1.6125
   48CHL1   C13 4684   0.046   5.641   8.148  0.5570  0.6591  0.4998
   48CHL1   C18 4685  -0.026   5.503   8.169  0.2043  0.3097  0.6337
   48CHL1  H18A 4686  -0.004   5.465   8.271  0.9890  2.9680  1.5373
   48CHL1  H18B 4687  -0.136   5.516   8.157  0.2850  1.9055  1.2851
   48CHL1  H18C 4688   0.017   5.442   8.087 -2.3245  2.1168 -2.2711
   48CHL1   C12 4689   0.180   5.652   8.212 -0.2678  0.0016 -0.5495
   48CHL1  H12A 4690   0.254   5.584   8.165  0.1070 -0.8254  1.1673
   48CHL1  H12B 4691   0.221   5.752   8.186  0.3702 -0.4632 -1.3803
   48CHL1   C11 4692   0.171   5.628   8.366  0.2726 -0.1080  0.1985
   48CHL1  H11A 4693   0.147   5.520   8.373  0.5430 -0.4221 -2.5308
   48CHL1  H11B 4694   0.271   5.638   8.413  0.9698  1.5003 -1.4935
   48CHL1    C9 4695   0.078   5.729   8.436 -0.8128  0.3580  0.1860
   48CHL1    H9 4696   0.127   5.828   8.421  2.2616 -0.8867  1.1693
   48CHL1   C10 4697   0.061   5.703   8.589  0.2130 -0.4063 -0.2386
   48CHL1   C19 4698   0.025   5.556   8.614 -0.0181 -0.0881  0.3304
   48CHL1  H19A 4699   0.016   5.524   8.720  2.2131 -3.1635 -0.2733
   48CHL1  H19B 4700  -0.072   5.536   8.565  1.2304 -0.4550 -2.1554
   48CHL1  H19C 4701   0.107   5.491   8.576 -0.4515 -0.2935 -0.2691
   48CHL1    C1 4702   0.196   5.753   8.656  0.9606 -0.4393  0.3494
   48CHL1   H1A 4703   0.280   5.686   8.627  1.7136  0.4177  0.4987
   48CHL1   H1B 4704   0.208   5.856   8.615 -0.3998  0.7603  2.7165
   48CHL1    C2 4705   0.190   5.769   8.812 -0.2451  0.5285  0.2743
   48CHL1   H2A 4706   0.286   5.795   8.859 -0.8633 -0.2074  2.0048
   48CHL1   H2B 4707   0.167   5.664   8.840  0.5216  0.1547 -0.4525
   48CHL1   C20 4708   0.073   5.579   7.892  0.1692  0.0805 -0.1780
   48CHL1   H20 4709   0.009   5.490   7.908  2.0984 -1.5626 -1.1339
   48CHL1   C21 4710   0.220   5.535   7.901  0.0878 -0.3998  0.0677
   48CHL1  H21A 4711   0.290   5.621   7.891  1.1247 -1.2345 -0.1088
   48CHL1  H21B 4712   0.238   5.481   7.997  0.3966 -0.4353 -0.0079
   48CHL1  H21C 4713   0.250   5.460   7.824 -0.1065 -0.9435  0.5124
   48CHL1   C22 4714   0.045   5.634   7.750 -0.1161 -0.0684 -0.3573
   48CHL1  H22A 4715  -0.048   5.695   7.741 -0.4225 -0.4011  0.4772
   48CHL1  H22B 4716   0.122   5.713   7.739  0.0907 -0.4177 -1.5213
   48CHL1   C23 4717   0.044   5.532   7.641 -0.3341  0.1796 -0.3296
   48CHL1  H23A 4718   0.138   5.473   7.630  0.5661  1.1472  1.6781
   48CHL1  H23B 4719  -0.031   5.457   7.673  1.2374 -2.6738 -2.7818
   48CHL1   C24 4720  -0.016   5.602   7.523  0.0158  0.2700 -0.0177
   48CHL1  H24A 4721  -0.113   5.655   7.528 -0.5704 -0.8836  1.5303
   48CHL1  H24B 4722   0.062   5.676   7.495  2.1388 -1.3034  1.3875
   48CHL1   C25 4723  -0.031   5.502   7.408 -0.1027  0.0317  0.5755
   48CHL1   H25 4724  -0.099   5.421   7.441 -2.1027  1.0061 -0.9366
   48CHL1   C26 4725  -0.093   5.571   7.285  0.2125  1.1201  0.1696
   48CHL1  H26A 4726  -0.024   5.651   7.251  1.7939  0.7123  2.1870
   48CHL1  H26B 4727  -0.108   5.496   7.204  1.4888  0.6979  0.3006
   48CHL1  H26C 4728  -0.194   5.613   7.300  0.4844  1.8549 -0.0392
   48CHL1   C27 4729   0.101   5.432   7.375 -0.4687 -0.3095  0.4571
   48CHL1  H27A 4730   0.162   5.382   7.455  3.1817  0.6035 -1.5237
   48CHL1  H27B 4731   0.075   5.351   7.304 -1.3746  0.2749  0.1082
   48CHL1  H27C 4732   0.173   5.504   7.330 -1.2648 -0.0193 -0.3683
   49CHL1    C3 4733   2.013   6.008   5.098  0.6059  0.8622  0.4528
   49CHL1    H3 4734   2.122   6.032   5.096  0.9624 -0.0530  3.6845
   49CHL1    O3 4735   1.965   5.981   4.967  0.1244 -0.0731  0.0841
   49CHL1   H3' 4736   1.986   5.891   4.941  1.1787  0.3021 -0.3964
   49CHL1    C4 4737   1.974   5.880   5.175 -0.1777 -0.3324  0.2335
   49CHL1   H4A 4738   1.866   5.866   5.154 -0.2398  1.3757 -0.7342
   49CHL1   H4B 4739   2.025   5.786   5.145 -1.3524 -2.1084  3.3343
   49CHL1    C5 4740   2.000   5.920   5.324  0.0432  0.8209  1.0063
   49CHL1    C6 4741   2.094   5.851   5.388 -0.5484  0.1160 -0.1520
   49CHL1    H6 4742   2.148   5.768   5.340  0.5198 -1.0363  2.8036
   49CHL1    C7 4743   2.112   5.877   5.536  0.0469 -0.1069 -0.1580
   49CHL1   H7A 4744   2.132   5.777   5.580 -0.3100  0.9635  2.6128
   49CHL1   H7B 4745   2.196   5.947   5.556 -0.1130  0.2979 -0.8379
   49CHL1    C8 4746   1.981   5.939   5.597  0.1482  0.3334  0.4320
   49CHL1    H8 4747   1.892   5.872   5.596  0.4100 -0.1264  2.4304
   49CHL1   C14 4748   1.995   5.966   5.752 -0.9053  0.2772  0.5046
   49CHL1   H14 4749   2.079   6.038   5.765 -0.9795  0.8901 -1.9310
   49CHL1   C15 4750   2.023   5.843   5.849  0.2273  0.3161  0.2959
   49CHL1  H15A 4751   1.960   5.757   5.819 -0.3985  1.1715 -0.9208
   49CHL1  H15B 4752   2.134   5.831   5.847  0.2233  0.2031 -2.2905
   49CHL1   C16 4753   1.975   5.903   5.985 -1.4094  0.3438  0.3958
   49CHL1  H16A 4754   1.911   5.834   6.044  2.4330 -3.6745  0.4059
   49CHL1  H16B 4755   2.070   5.902   6.042 -0.7042 -0.2858 -0.7637
   49CHL1   C17 4756   1.914   6.044   5.960 -0.0050  0.3490  0.4982
   49CHL1   H17 4757   2.001   6.113   5.964 -1.0337  1.8010 -0.9487
   49CHL1   C13 4758   1.876   6.042   5.810 -0.2542 -0.4108 -0.2887
   49CHL1   C18 4759   1.745   5.961   5.801 -0.6912 -0.5256 -0.2564
   49CHL1  H18A 4760   1.651   6.015   5.825  0.5753  2.6710 -1.9356
   49CHL1  H18B 4761   1.728   5.927   5.696  0.4527  0.0435 -0.6452
   49CHL1  H18C 4762   1.754   5.859   5.845  1.9358 -0.7869 -1.2202
   49CHL1   C12 4763   1.866   6.180   5.749  0.1324 -0.7044  0.5425
   49CHL1  H12A 4764   1.794   6.241   5.808  1.1865  1.9768 -0.7725
   49CHL1  H12B 4765   1.967   6.224   5.769  0.2695 -0.8677  0.2066
   49CHL1   C11 4766   1.834   6.165   5.599  0.0785  0.0991 -0.2885
   49CHL1  H11A 4767   1.732   6.122   5.593  0.3686 -0.6907  0.2676
   49CHL1  H11B 4768   1.829   6.257   5.538 -3.3991 -0.8136 -1.6265
   49CHL1    C9 4769   1.936   6.067   5.526  0.1088 -0.5161  0.3562
   49CHL1    H9 4770   2.034   6.118   5.527  0.1162 -0.5301  0.8787
   49CHL1   C10 4771   1.910   6.032   5.377 -0.1846  0.4446  0.1947
   49CHL1   C19 4772   1.760   5.994   5.365 -0.3662 -0.1584  0.0540
   49CHL1  H19A 4773   1.695   6.083   5.382 -1.6664 -0.9920 -0.3834
   49CHL1  H19B 4774   1.733   5.943   5.270 -2.0015  1.1541 -0.2380
   49CHL1  H19C 4775   1.737   5.916   5.440  0.7367 -0.4007  0.1483
   49CHL1    C1 4776   1.956   6.159   5.303  0.0549 -0.0385 -0.3904
   49CHL1   H1A 4777   1.905   6.253   5.335  1.1608  0.6254 -0.5498
   49CHL1   H1B 4778   2.065   6.177   5.311 -0.3042  1.3337  3.5626
   49CHL1    C2 4779   1.933   6.135   5.151 -0.1347 -0.7845 -0.1056
   49CHL1   H2A 4780   1.975   6.222   5.096  1.5861 -2.1995 -1.1549
   49CHL1   H2B 4781   1.823   6.127   5.137 -0.0495 -2.6947 -0.0184
   49CHL1   C20 4782   1.809   6.092   6.060  0.0508  0.5549  0.0970
   49CHL1   H20 4783   1.730   6.142   6.000 -1.6820  0.3432  2.0650
   49CHL1   C21 4784   1.874   6.206   6.143 -0.3865  0.4411 -0.3747
   49CHL1  H21A 4785   1.901   6.297   6.086  1.3105  0.2158  0.0138
   49CHL1  H21B 4786   1.971   6.167   6.180 -0.9824 -1.9096 -1.0625
   49CHL1  H21C 4787   1.809   6.231   6.230 -2.2601  2.1186 -2.1477
   49CHL1   C22 4788   1.737   5.991   6.156  0.0608  0.5403  0.8013
   49CHL1  H22A 4789   1.640   6.035   6.185 -1.3563 -2.0791  0.3002
   49CHL1  H22B 4790   1.713   5.892   6.112 -2.1526  0.7462  1.4278
   49CHL1   C23 4791   1.808   5.959   6.286 -0.2431  0.2228  0.0544
   49CHL1  H23A 4792   1.905   5.916   6.253 -2.1818 -3.0796 -1.8522
   49CHL1  H23B 4793   1.825   6.054   6.341 -1.4840  1.0546 -0.9444
   49CHL1   C24 4794   1.731   5.855   6.375  0.3296 -0.5178  0.1326
   49CHL1  H24A 4795   1.636   5.901   6.409  2.2954  2.5894  1.9612
   49CHL1  H24B 4796   1.690   5.767   6.321 -2.0497  0.3904  0.3509
   49CHL1   C25 4797   1.801   5.840   6.516  0.2266  0.8581  0.1534
   49CHL1   H25 4798   1.819   5.945   6.547 -2.8470  1.2128  1.0092
   49CHL1   C26 4799   1.697   5.776   6.616  0.0266 -0.3752 -0.2746
   49CHL1  H26A 4800   1.666   5.678   6.573  1.1583 -0.7360 -0.2892
   49CHL1  H26B 4801   1.737   5.749   6.717 -1.9976  0.9282  0.9477
   49CHL1  H26C 4802   1.610   5.842   6.635 -0.7217 -1.4190  0.0330
   49CHL1   C27 4803   1.934   5.762   6.504  0.6589 -0.2229 -0.5908
   49CHL1  H27A 4804   2.006   5.794   6.427  0.0089 -0.1445 -1.1697
   49CHL1  H27B 4805   1.989   5.779   6.599  0.2557  1.2671 -0.6100
   49CHL1  H27C 4806   1.910   5.654   6.494 -2.9108  0.3507  0.2155
   50CHL1    C3 4807   1.823   0.183   4.729  0.1717  0.3276  0.3311
   50CHL1    H3 4808   1.715   0.208   4.725  0.9247  4.0731 -2.8412
   50CHL1    O3 4809   1.870   0.132   4.605  0.0246 -0.2624  0.2012
   50CHL1   H3' 4810   1.965   0.134   4.615 -0.0770 -0.3067  1.2450
   50CHL1    C4 4811   1.910   0.307   4.760 -0.5456 -0.2490  0.3934
   50CHL1   H4A 4812   2.018   0.285   4.746  0.0951  1.3328  2.3694
   50CHL1   H4B 4813   1.892   0.388   4.685  2.1410  0.7853  0.7561
   50CHL1    C5 4814   1.889   0.360   4.900  0.1681  0.9243  0.2042
   50CHL1    C6 4815   1.834   0.475   4.925  0.2907 -0.2031  0.6022
   50CHL1    H6 4816   1.794   0.536   4.842 -0.8477 -2.1261 -0.3273
   50CHL1    C7 4817   1.786   0.521   5.054 -0.3224  0.8350 -0.0003
   50CHL1   H7A 4818   1.815   0.627   5.064  1.7361  0.1745  1.7515
   50CHL1   H7B 4819   1.678   0.502   5.076 -1.0515  0.6215 -3.3012
   50CHL1    C8 4820   1.873   0.462   5.170  0.1876  0.8876 -0.1177
   50CHL1    H8 4821   1.977   0.499   5.158  0.4246 -0.2880 -1.9490
   50CHL1   C14 4822   1.818   0.489   5.313 -0.2494 -0.4396  0.2995
   50CHL1   H14 4823   1.725   0.429   5.318 -0.8230  0.1835 -1.7901
   50CHL1   C15 4824   1.764   0.627   5.338  0.5164 -0.4377  0.8060
   50CHL1  H15A 4825   1.838   0.701   5.302  0.2992 -0.6891 -0.1726
   50CHL1  H15B 4826   1.661   0.635   5.297  0.4406 -3.4792  0.2298
   50CHL1   C16 4827   1.760   0.630   5.491  0.1503 -0.2430 -0.7545
   50CHL1  H16A 4828   1.839   0.701   5.523 -0.7344 -0.2274  1.5697
   50CHL1  H16B 4829   1.667   0.661   5.544  1.1054  2.0673 -0.3136
   50CHL1   C17 4830   1.811   0.493   5.545 -0.5773  0.1323  0.4869
   50CHL1   H17 4831   1.725   0.423   5.558 -1.0410  0.7608  0.8594
   50CHL1   C13 4832   1.895   0.439   5.431 -0.2391  0.4887  0.0452
   50CHL1   C18 4833   2.029   0.517   5.435  0.4332 -0.0195  1.0845
   50CHL1  H18A 4834   2.092   0.482   5.520 -2.2924 -2.6393  2.1830
   50CHL1  H18B 4835   2.085   0.502   5.340 -0.0699  1.1548  0.5743
   50CHL1  H18C 4836   2.010   0.627   5.439  1.3825  0.3373 -1.7961
   50CHL1   C12 4837   1.901   0.284   5.426  0.2691 -0.2893  0.3104
   50CHL1  H12A 4838   1.983   0.241   5.488  1.1094 -1.4547 -1.5291
   50CHL1  H12B 4839   1.800   0.251   5.458 -0.3053  0.0227 -1.0855
   50CHL1   C11 4840   1.947   0.233   5.283  0.0793 -0.5083 -0.1368
   50CHL1  H11A 4841   2.055   0.254   5.269 -0.4714  1.9967 -1.0940
   50CHL1  H11B 4842   1.934   0.122   5.280  1.1694 -0.7542  2.0428
   50CHL1    C9 4843   1.876   0.309   5.159 -0.6150 -0.4177  0.5405
   50CHL1    H9 4844   1.771   0.273   5.167 -0.7753 -0.0905 -0.0656
   50CHL1   C10 4845   1.914   0.259   5.010  0.1666 -0.1755 -0.3084
   50CHL1   C19 4846   2.068   0.203   5.019 -0.1395 -0.7766  0.5863
   50CHL1  H19A 4847   2.132   0.283   5.061  0.2679  0.3943 -2.0690
   50CHL1  H19B 4848   2.076   0.115   5.085  1.3233  1.4310  3.5819
   50CHL1  H19C 4849   2.093   0.193   4.911 -2.4548 -0.0171 -0.0992
   50CHL1    C1 4850   1.824   0.134   4.980  0.2884  0.1174  0.3072
   50CHL1   H1A 4851   1.842   0.054   5.055  0.9216 -1.0447 -1.0373
   50CHL1   H1B 4852   1.719   0.165   4.997  0.1832 -1.4130  2.9331
   50CHL1    C2 4853   1.846   0.070   4.840  0.1792  0.1267  0.6514
   50CHL1   H2A 4854   1.782  -0.020   4.839 -0.7278  0.4922  4.9768
   50CHL1   H2B 4855   1.950   0.031   4.834  0.9534  1.3442  3.8983
   50CHL1   C20 4856   1.870   0.507   5.692  0.2678 -0.4016  0.6104
   50CHL1   H20 4857   1.941   0.592   5.684  0.2661 -0.5561 -1.6038
   50CHL1   C21 4858   1.939   0.372   5.729  0.2418 -0.0509  0.1047
   50CHL1  H21A 4859   2.012   0.347   5.649 -1.2290  1.7348 -1.8999
   50CHL1  H21B 4860   1.863   0.290   5.732 -0.3897  0.5394  2.6870
   50CHL1  H21C 4861   1.983   0.373   5.831  0.1179 -1.9346  0.2195
   50CHL1   C22 4862   1.772   0.545   5.803  0.8086  0.1409  0.3864
   50CHL1  H22A 4863   1.733   0.648   5.789  0.3834 -0.1355 -0.5109
   50CHL1  H22B 4864   1.688   0.472   5.808  2.6254 -1.9841  2.0973
   50CHL1   C23 4865   1.827   0.540   5.948  0.2787  0.7313  0.2672
   50CHL1  H23A 4866   1.870   0.443   5.980  1.9193  0.5320 -2.3062
   50CHL1  H23B 4867   1.909   0.615   5.941 -0.6285  1.7826  0.6522
   50CHL1   C24 4868   1.730   0.599   6.046 -0.3314 -0.2723  0.3019
   50CHL1  H24A 4869   1.700   0.704   6.028 -0.9055 -0.4486  0.2129
   50CHL1  H24B 4870   1.637   0.539   6.031 -1.2352  1.2872 -0.5794
   50CHL1   C25 4871   1.781   0.587   6.194  0.4540  0.0648 -0.3770
   50CHL1   H25 4872   1.823   0.484   6.195  2.2080  0.7372  1.2243
   50CHL1   C26 4873   1.901   0.686   6.231  0.7840  0.2071 -0.3161
   50CHL1  H26A 4874   1.950   0.643   6.321  0.5852 -0.6908 -0.6203
   50CHL1  H26B 4875   1.982   0.692   6.156  1.5657  1.7415  0.6117
   50CHL1  H26C 4876   1.860   0.782   6.267 -0.4771 -0.4442  0.0552
   50CHL1   C27 4877   1.663   0.605   6.297  0.1581  0.5542  0.6895
   50CHL1  H27A 4878   1.611   0.509   6.317 -1.4574  1.6190  1.8390
   50CHL1  H27B 4879   1.703   0.656   6.387 -0.4201  0.3570  1.0600
   50CHL1  H27C 4880   1.590   0.668   6.242  1.2460 -0.3185 -1.9219
   51CHL1    C3 4881   6.540   2.412   5.050 -0.7665  0.3082 -0.2703
   51CHL1    H3 4882   6.503   2.327   5.110 -1.4582  0.6227 -0.2330
   51CHL1    O3 4883   6.557   2.366   4.921  0.6366  0.0446  0.0780
   51CHL1   H3' 4884   6.564   2.434   4.853 -1.2530 -1.2631 -1.5390
   51CHL1    C4 4885   6.438   2.525   5.054  0.0720  0.1041  0.1372
   51CHL1   H4A 4886   6.472   2.594   4.974 -1.5186  0.2800 -0.4130
   51CHL1   H4B 4887   6.342   2.483   5.016  0.7820  0.6998 -2.5326
   51CHL1    C5 4888   6.415   2.592   5.188 -0.2974 -0.4270  0.4704
   51CHL1    C6 4889   6.296   2.607   5.248 -0.5629 -0.0702  0.7279
   51CHL1    H6 4890   6.205   2.570   5.198 -0.0087  0.9177 -1.1014
   51CHL1    C7 4891   6.277   2.686   5.376  0.0097 -0.3204 -0.6534
   51CHL1   H7A 4892   6.203   2.767   5.361 -1.1412 -1.0802  0.6851
   51CHL1   H7B 4893   6.234   2.619   5.454 -0.8813 -0.0191 -0.8753
   51CHL1    C8 4894   6.401   2.750   5.434  1.1397 -0.6246  0.6371
   51CHL1    H8 4895   6.406   2.848   5.382  0.4480 -0.9280 -0.0103
   51CHL1   C14 4896   6.387   2.765   5.581 -0.5707  0.4656 -0.3497
   51CHL1   H14 4897   6.393   2.666   5.631  1.4038  0.2999 -0.8334
   51CHL1   C15 4898   6.258   2.825   5.644 -0.2429  0.1649  0.3050
   51CHL1  H15A 4899   6.248   2.924   5.595  1.8044  0.3297  0.1356
   51CHL1  H15B 4900   6.171   2.761   5.618 -0.8471  1.0327  0.1391
   51CHL1   C16 4901   6.297   2.847   5.787 -0.1280  0.6907 -0.1127
   51CHL1  H16A 4902   6.246   2.934   5.832 -0.4733 -0.5740  2.0756
   51CHL1  H16B 4903   6.262   2.773   5.862  0.1334  1.8089  1.1545
   51CHL1   C17 4904   6.455   2.852   5.790 -0.2745  0.1366  0.6843
   51CHL1   H17 4905   6.480   2.761   5.847  0.1415  0.8390  1.6531
   51CHL1   C13 4906   6.505   2.845   5.643 -1.4280 -0.8626  0.8156
   51CHL1   C18 4907   6.514   2.996   5.590 -0.1701  0.6812  0.3930
   51CHL1  H18A 4908   6.504   2.999   5.479  0.6698  0.2982  0.2995
   51CHL1  H18B 4909   6.443   3.071   5.630  2.6604  3.1016  1.1556
   51CHL1  H18C 4910   6.616   3.037   5.603  1.0213 -0.8258 -3.0571
   51CHL1   C12 4911   6.635   2.766   5.622  0.0905 -0.2837  0.6758
   51CHL1  H12A 4912   6.731   2.806   5.662  0.1117 -0.0249  0.3700
   51CHL1  H12B 4913   6.608   2.671   5.672 -3.7904 -1.0983 -2.4896
   51CHL1   C11 4914   6.659   2.738   5.473  0.4841  0.0005 -0.0815
   51CHL1  H11A 4915   6.694   2.822   5.409  1.7883 -2.3793 -2.7450
   51CHL1  H11B 4916   6.746   2.670   5.470 -1.9795 -3.5447  1.3894
   51CHL1    C9 4917   6.530   2.668   5.408  0.3187 -0.0880  0.6481
   51CHL1    H9 4918   6.513   2.572   5.461 -0.9259  0.3309  1.0466
   51CHL1   C10 4919   6.551   2.639   5.251  1.0641  0.6617 -0.6417
   51CHL1   C19 4920   6.602   2.764   5.182  0.0155  0.4078 -0.3295
   51CHL1  H19A 4921   6.541   2.849   5.219 -1.1289 -0.6198  0.1879
   51CHL1  H19B 4922   6.711   2.776   5.199  0.7467 -0.5956 -3.6638
   51CHL1  H19C 4923   6.583   2.746   5.075 -0.9581 -0.2627 -0.0574
   51CHL1    C1 4924   6.655   2.522   5.245  0.1251 -0.1109 -0.0604
   51CHL1   H1A 4925   6.745   2.576   5.284  1.4478 -1.8120 -0.6540
   51CHL1   H1B 4926   6.622   2.453   5.325 -0.0614 -0.7482 -0.6790
   51CHL1    C2 4927   6.672   2.464   5.105 -0.0673 -0.4796  0.1091
   51CHL1   H2A 4928   6.743   2.379   5.101 -1.5320 -1.7119 -1.5895
   51CHL1   H2B 4929   6.711   2.543   5.037  0.2589 -1.6832 -1.1654
   51CHL1   C20 4930   6.503   2.963   5.878 -0.1258 -0.1990 -0.2858
   51CHL1   H20 4931   6.483   3.066   5.843 -2.6467 -0.2660  0.7804
   51CHL1   C21 4932   6.654   2.941   5.893  0.2472  0.0428 -0.4541
   51CHL1  H21A 4933   6.677   2.835   5.915 -0.5694 -0.9312 -3.7332
   51CHL1  H21B 4934   6.698   3.010   5.969  0.4603 -0.4603 -0.1155
   51CHL1  H21C 4935   6.707   2.968   5.799  1.4110  3.1338  0.9495
   51CHL1   C22 4936   6.428   2.971   6.026  0.0057  0.3305  0.1178
   51CHL1  H22A 4937   6.318   2.968   6.015  0.2092  0.6537 -2.7756
   51CHL1  H22B 4938   6.459   2.883   6.087 -0.6796  0.1542  0.2210
   51CHL1   C23 4939   6.460   3.091   6.117 -0.5864  0.2300  0.1508
   51CHL1  H23A 4940   6.571   3.090   6.129 -0.4185 -1.1526 -1.2230
   51CHL1  H23B 4941   6.428   3.180   6.058 -0.7094 -0.5171 -0.9225
   51CHL1   C24 4942   6.381   3.077   6.251 -0.4132 -0.1174  0.5155
   51CHL1  H24A 4943   6.280   3.052   6.212 -0.2461  0.6780 -0.4788
   51CHL1  H24B 4944   6.416   2.983   6.300 -2.3306 -1.3548 -0.3596
   51CHL1   C25 4945   6.385   3.195   6.350 -1.1811  0.7328  0.1817
   51CHL1   H25 4946   6.491   3.208   6.381 -0.8088  1.2082 -1.2138
   51CHL1   C26 4947   6.345   3.326   6.290 -0.4049  0.3732  0.2753
   51CHL1  H26A 4948   6.392   3.344   6.191 -0.2224  2.1296  0.6462
   51CHL1  H26B 4949   6.237   3.325   6.265 -0.3105  1.2319 -0.1839
   51CHL1  H26C 4950   6.361   3.412   6.357  1.3104  0.1866  0.1501
   51CHL1   C27 4951   6.311   3.173   6.481 -0.0937  0.0949  0.3679
   51CHL1  H27A 4952   6.332   3.243   6.566  0.8426 -0.5446  0.6773
   51CHL1  H27B 4953   6.202   3.180   6.458  0.0943  0.3200 -0.4541
   51CHL1  H27C 4954   6.327   3.074   6.528 -0.7862 -0.3986 -0.4248
   52CHL1    C3 4955   1.335   4.880   5.101  0.4172  0.0496  0.0526
   52CHL1    H3 4956   1.392   4.960   5.153 -0.2564 -0.1819  1.1788
   52CHL1    O3 4957   1.354   4.899   4.965 -0.0557 -0.1150  0.3081
   52CHL1   H3' 4958   1.349   4.808   4.932 -0.7021 -0.2642  0.8092
   52CHL1    C4 4959   1.386   4.742   5.149 -0.3522  0.1732 -0.1287
   52CHL1   H4A 4960   1.332   4.672   5.082  0.4740 -1.1428  0.5534
   52CHL1   H4B 4961   1.495   4.738   5.130 -0.5836  0.6395 -1.7264
   52CHL1    C5 4962   1.359   4.707   5.296 -0.0176 -0.1372 -0.5629
   52CHL1    C6 4963   1.455   4.679   5.387 -0.4895 -0.8099  0.0763
   52CHL1    H6 4964   1.560   4.692   5.357 -0.9908  0.3658 -1.2708
   52CHL1    C7 4965   1.433   4.649   5.537 -0.5425 -0.6134  0.3725
   52CHL1   H7A 4966   1.485   4.555   5.564  1.7554 -0.3581 -2.6798
   52CHL1   H7B 4967   1.463   4.737   5.598 -2.2130 -0.7384  1.4524
   52CHL1    C8 4968   1.285   4.626   5.569 -0.1096  0.4733 -0.7310
   52CHL1    H8 4969   1.253   4.527   5.532 -1.2115  0.6011 -0.1529
   52CHL1   C14 4970   1.260   4.642   5.718  0.0965  0.1758 -0.3015
   52CHL1   H14 4971   1.281   4.751   5.729  0.0069  0.2611 -0.9662
   52CHL1   C15 4972   1.346   4.569   5.822 -0.0216  0.9876  0.2094
   52CHL1  H15A 4973   1.378   4.469   5.786  1.0232  1.1427  0.6455
   52CHL1  H15B 4974   1.431   4.641   5.831  0.4372  0.9720 -2.8121
   52CHL1   C16 4975   1.264   4.556   5.951  0.7083 -0.0745  0.6174
   52CHL1  H16A 4976   1.262   4.446   5.967  2.7139 -0.0007  1.6186
   52CHL1  H16B 4977   1.315   4.587   6.044 -1.0802  0.1001  1.5940
   52CHL1   C17 4978   1.128   4.624   5.918  0.2027  0.0113 -0.0307
   52CHL1   H17 4979   1.130   4.730   5.950 -1.4682 -0.7082  2.8122
   52CHL1   C13 4980   1.113   4.626   5.757 -0.1697 -1.0275  0.2544
   52CHL1   C18 4981   1.056   4.484   5.707  0.6025 -0.6780  0.0512
   52CHL1  H18A 4982   1.056   4.496   5.597 -1.5946  2.5827  0.2625
   52CHL1  H18B 4983   1.131   4.407   5.735  0.2962 -1.5936 -1.5228
   52CHL1  H18C 4984   0.952   4.472   5.746  1.0984 -2.4696  0.9735
   52CHL1   C12 4985   1.039   4.749   5.700 -0.0720  0.7696 -0.3333
   52CHL1  H12A 4986   0.930   4.740   5.714 -0.0910 -1.8639 -1.6318
   52CHL1  H12B 4987   1.077   4.834   5.761  1.8441  0.5963 -1.1901
   52CHL1   C11 4988   1.059   4.767   5.548 -0.7041 -0.1764  0.5645
   52CHL1  H11A 4989   0.986   4.702   5.495  0.9299 -1.0690 -0.6533
   52CHL1  H11B 4990   1.032   4.875   5.536 -1.8752 -0.3162  1.6290
   52CHL1    C9 4991   1.205   4.740   5.492  0.2878  0.0280 -0.0292
   52CHL1    H9 4992   1.255   4.838   5.508 -1.1473  0.9788 -1.1793
   52CHL1   C10 4993   1.213   4.734   5.336 -0.2012  0.4485  0.0315
   52CHL1   C19 4994   1.118   4.616   5.286  0.2749 -0.0004  1.4609
   52CHL1  H19A 4995   1.008   4.632   5.293 -0.1855 -1.8744 -0.4714
   52CHL1  H19B 4996   1.141   4.586   5.182  2.4260  0.8217  1.6464
   52CHL1  H19C 4997   1.145   4.530   5.352  1.5606 -2.2444 -1.7139
   52CHL1    C1 4998   1.155   4.863   5.278  0.2666  0.8613  0.5139
   52CHL1   H1A 4999   1.044   4.863   5.275  0.1468 -1.8579 -4.2621
   52CHL1   H1B 5000   1.196   4.951   5.333 -1.5617  2.8581 -1.1218
   52CHL1    C2 5001   1.184   4.890   5.128  0.2831  0.0214 -0.1500
   52CHL1   H2A 5002   1.134   4.979   5.086  1.0548 -0.3753 -2.0341
   52CHL1   H2B 5003   1.131   4.805   5.078  0.4063 -0.0639 -0.1371
   52CHL1   C20 5004   1.013   4.556   5.997  0.2323 -0.6065 -0.2194
   52CHL1   H20 5005   1.008   4.449   5.969  1.6144 -1.3969  2.2900
   52CHL1   C21 5006   0.870   4.607   5.967 -0.2365 -0.2987 -0.0556
   52CHL1  H21A 5007   0.799   4.524   5.984  0.6753 -0.4535  4.2527
   52CHL1  H21B 5008   0.863   4.634   5.860  2.2140  0.5297 -0.0641
   52CHL1  H21C 5009   0.833   4.693   6.028  1.1642  0.9687 -0.9270
   52CHL1   C22 5010   1.041   4.563   6.143  0.4798 -0.7686 -0.6320
   52CHL1  H22A 5011   1.147   4.545   6.170  1.2692 -0.4333 -3.1935
   52CHL1  H22B 5012   1.020   4.667   6.178 -1.0700 -1.1584 -0.3637
   52CHL1   C23 5013   0.950   4.474   6.232  0.0217 -0.3465  0.3898
   52CHL1  H23A 5014   0.844   4.506   6.221  0.5878  1.1111 -1.3773
   52CHL1  H23B 5015   0.947   4.367   6.200 -1.1443  0.3154 -2.0109
   52CHL1   C24 5016   1.006   4.489   6.375 -0.4334 -0.4682  0.0101
   52CHL1  H24A 5017   1.107   4.442   6.378  0.0176  0.4944  0.4234
   52CHL1  H24B 5018   1.008   4.592   6.418 -0.5389  0.6686 -2.5695
   52CHL1   C25 5019   0.916   4.400   6.472  0.3113 -0.3220 -0.3727
   52CHL1   H25 5020   0.812   4.439   6.467 -0.6318 -2.5131  0.7427
   52CHL1   C26 5021   0.914   4.252   6.436 -0.4742 -0.0386  0.1438
   52CHL1  H26A 5022   0.854   4.200   6.513  1.1020  2.3337  3.2068
   52CHL1  H26B 5023   0.869   4.239   6.335  1.2984 -3.6479 -0.3648
   52CHL1  H26C 5024   1.020   4.220   6.428  0.1349  1.6705  1.0088
   52CHL1   C27 5025   0.955   4.418   6.623 -0.2589 -0.4848  0.7074
   52CHL1  H27A 5026   0.896   4.503   6.662 -0.6583 -1.2366  1.7771
   52CHL1  H27B 5027   0.938   4.324   6.680  2.0332 -1.2863  0.2036
   52CHL1  H27C 5028   1.063   4.446   6.625 -0.7808  2.0848 -1.4317
   53CHL1    C3 5029   6.003   5.596   5.514  0.2714 -0.0779 -0.8750
   53CHL1    H3 5030   5.962   5.501   5.474 -1.5431  0.2590  0.0518
   53CHL1    O3 5031   6.051   5.688   5.414  0.2073  0.6602  0.2822
   53CHL1   H3' 5032   6.142   5.665   5.396 -0.7088 -1.3836 -2.3170
   53CHL1    C4 5033   5.876   5.681   5.564  0.3810 -0.6530 -0.2632
   53CHL1   H4A 5034   5.908   5.785   5.590 -1.2207 -0.3828  0.7692
   53CHL1   H4B 5035   5.808   5.699   5.478 -0.4162  1.8113  0.7860
   53CHL1    C5 5036   5.811   5.628   5.690 -0.0890  0.5363 -0.0554
   53CHL1    C6 5037   5.678   5.596   5.689 -0.2080 -0.2480 -0.0155
   53CHL1    H6 5038   5.619   5.630   5.603  0.1016  0.9317  0.2104
   53CHL1    C7 5039   5.600   5.544   5.804  0.2111 -0.4408  0.4235
   53CHL1   H7A 5040   5.517   5.616   5.815 -1.6767 -2.4623  0.1837
   53CHL1   H7B 5041   5.563   5.441   5.783 -3.0033  0.7764 -0.4568
   53CHL1    C8 5042   5.686   5.548   5.924  0.5263 -0.3261  0.1570
   53CHL1    H8 5043   5.678   5.648   5.973  0.5326 -1.7858  3.4014
   53CHL1   C14 5044   5.619   5.452   6.027  0.0715 -0.0009  0.0320
   53CHL1   H14 5045   5.623   5.350   5.982  0.7241  0.8053 -1.8154
   53CHL1   C15 5046   5.467   5.466   6.068 -0.5336 -0.0538 -0.4494
   53CHL1  H15A 5047   5.453   5.572   6.098 -3.5561 -0.2872 -0.6838
   53CHL1  H15B 5048   5.402   5.456   5.978  0.2913 -0.3438 -1.0150
   53CHL1   C16 5049   5.453   5.372   6.184  0.4040  0.2468  0.7059
   53CHL1  H16A 5050   5.405   5.427   6.268  2.2180  2.0058  0.6491
   53CHL1  H16B 5051   5.391   5.283   6.160  0.3621 -0.1495  2.1728
   53CHL1   C17 5052   5.597   5.330   6.229 -0.2881  0.6933  0.2816
   53CHL1   H17 5053   5.619   5.239   6.169 -1.3495  1.2724 -1.0176
   53CHL1   C13 5054   5.693   5.436   6.167 -0.5524  0.8494 -0.2479
   53CHL1   C18 5055   5.683   5.570   6.241 -0.3578  0.2553  0.6069
   53CHL1  H18A 5056   5.721   5.652   6.175 -1.3205 -0.8972 -1.4701
   53CHL1  H18B 5057   5.583   5.587   6.286 -0.2361 -3.5636  2.6950
   53CHL1  H18C 5058   5.753   5.561   6.327  1.7538  0.5826 -0.9761
   53CHL1   C12 5059   5.842   5.388   6.145  0.1996  0.0334  0.3410
   53CHL1  H12A 5060   5.898   5.375   6.240  0.2965  2.9566  0.7635
   53CHL1  H12B 5061   5.843   5.286   6.101 -2.1774 -0.2007  0.6542
   53CHL1   C11 5062   5.910   5.484   6.046 -0.8591 -0.5223  0.5317
   53CHL1  H11A 5063   5.905   5.578   6.104 -0.0582 -0.9383  1.2877
   53CHL1  H11B 5064   6.016   5.457   6.025 -0.8547  0.5012 -0.8537
   53CHL1    C9 5065   5.831   5.504   5.906 -0.0701 -0.0872 -0.2550
   53CHL1    H9 5066   5.822   5.407   5.853 -2.3134 -0.3293  0.4841
   53CHL1   C10 5067   5.906   5.593   5.806 -0.8042 -0.6807 -0.3083
   53CHL1   C19 5068   5.947   5.721   5.881 -0.1813 -0.0018 -0.1844
   53CHL1  H19A 5069   5.862   5.785   5.910 -0.1817  0.0970 -0.3987
   53CHL1  H19B 5070   6.014   5.705   5.968 -0.1767  3.6104  0.6421
   53CHL1  H19C 5071   6.007   5.778   5.806 -0.2096  1.7319  1.0454
   53CHL1    C1 5072   6.038   5.519   5.759 -0.6183  1.0091  0.3293
   53CHL1   H1A 5073   6.115   5.514   5.839 -1.6506  0.1595  1.3062
   53CHL1   H1B 5074   6.005   5.415   5.737 -0.1799  0.6627  1.2557
   53CHL1    C2 5075   6.102   5.571   5.631 -0.4364  0.7204 -0.4779
   53CHL1   H2A 5076   6.192   5.514   5.598 -0.2322  0.3792  0.6330
   53CHL1   H2B 5077   6.144   5.671   5.654  1.5372  0.2709 -1.8322
   53CHL1   C20 5078   5.623   5.279   6.371 -0.2493 -0.2044 -0.2912
   53CHL1   H20 5079   5.734   5.269   6.374 -0.2859 -0.6349 -0.2476
   53CHL1   C21 5080   5.543   5.140   6.377 -0.3055  0.4397 -0.1520
   53CHL1  H21A 5081   5.435   5.162   6.363 -0.1369  2.5418  1.3943
   53CHL1  H21B 5082   5.560   5.079   6.468  0.0872 -0.8262 -1.0529
   53CHL1  H21C 5083   5.573   5.067   6.300  0.9239  2.1797 -1.4049
   53CHL1   C22 5084   5.586   5.371   6.495 -0.0358  0.0027  0.9723
   53CHL1  H22A 5085   5.643   5.467   6.498  1.3211 -0.7886  1.5473
   53CHL1  H22B 5086   5.479   5.400   6.491 -1.2155 -3.9018 -0.0503
   53CHL1   C23 5087   5.622   5.306   6.635  0.0397  0.2613  0.1793
   53CHL1  H23A 5088   5.596   5.199   6.647  0.5960  0.1094  0.0577
   53CHL1  H23B 5089   5.732   5.318   6.643  0.3479 -2.4636  1.0077
   53CHL1   C24 5090   5.551   5.380   6.747  0.3074 -0.3024 -0.7869
   53CHL1  H24A 5091   5.577   5.488   6.752  0.5460 -0.4140  1.2243
   53CHL1  H24B 5092   5.442   5.370   6.728  0.0025 -0.0671  0.7155
   53CHL1   C25 5093   5.583   5.320   6.888  0.0442 -0.0272 -0.2165
   53CHL1   H25 5094   5.542   5.217   6.899  1.8821 -0.6741  1.2203
   53CHL1   C26 5095   5.736   5.308   6.916 -0.1210  0.5029  0.3678
   53CHL1  H26A 5096   5.740   5.250   7.010 -1.5124 -0.5908 -0.2003
   53CHL1  H26B 5097   5.788   5.255   6.833 -1.6555 -0.8000  0.1910
   53CHL1  H26C 5098   5.784   5.408   6.909  0.4723  0.1229 -2.3759
   53CHL1   C27 5099   5.514   5.398   7.001  0.2038 -0.4964  0.6875
   53CHL1  H27A 5100   5.526   5.348   7.100  0.3259 -2.1726 -0.1434
   53CHL1  H27B 5101   5.543   5.505   7.011  1.3466 -0.5830 -1.2732
   53CHL1  H27C 5102   5.406   5.406   6.975  1.0024  2.5518 -2.4099
   54CHL1    C3 5103   0.711   5.185   5.517 -0.0549 -0.8588 -0.1563
   54CHL1    H3 5104   0.801   5.120   5.517  0.1786 -0.5466 -0.7873
   54CHL1    O3 5105   0.679   5.219   5.383  0.2085  1.0766  0.0736
   54CHL1   H3' 5106   0.585   5.215   5.364 -0.3734 -0.7727  2.7135
   54CHL1    C4 5107   0.599   5.103   5.580 -0.2212  0.5312  0.7253
   54CHL1   H4A 5108   0.504   5.160   5.573 -1.9106 -2.1145  0.9155
   54CHL1   H4B 5109   0.572   5.010   5.526 -0.1399  1.5821 -1.2033
   54CHL1    C5 5110   0.639   5.072   5.725  0.7177 -0.2899  0.7123
   54CHL1    C6 5111   0.650   4.943   5.771 -0.0924 -0.4269 -0.1229
   54CHL1    H6 5112   0.635   4.862   5.698  0.2288  0.5958 -1.3464
   54CHL1    C7 5113   0.689   4.912   5.912  0.5457 -0.1945  0.1420
   54CHL1   H7A 5114   0.643   4.818   5.949 -1.5921  1.2060  1.2345
   54CHL1   H7B 5115   0.798   4.890   5.923  1.3136  2.2366 -1.6750
   54CHL1    C8 5116   0.654   5.031   6.007 -0.4386  0.4187  0.2720
   54CHL1    H8 5117   0.544   5.038   5.994 -0.3977 -2.1499 -2.6121
   54CHL1   C14 5118   0.698   4.999   6.153  0.0479 -0.8598  0.4017
   54CHL1   H14 5119   0.809   5.001   6.146  0.0567 -0.1880  0.6128
   54CHL1   C15 5120   0.648   4.874   6.223 -0.1486  0.3180 -0.4270
   54CHL1  H15A 5121   0.539   4.868   6.206 -0.0239 -0.0016 -1.1523
   54CHL1  H15B 5122   0.710   4.787   6.192  1.2271  0.3969  1.8630
   54CHL1   C16 5123   0.671   4.904   6.375 -0.2623 -0.3606  0.1545
   54CHL1  H16A 5124   0.576   4.872   6.425 -0.9054  0.3967 -0.5543
   54CHL1  H16B 5125   0.750   4.833   6.407 -1.1762 -1.7068 -0.4220
   54CHL1   C17 5126   0.717   5.051   6.378 -0.1845 -0.2080 -0.3841
   54CHL1   H17 5127   0.827   5.061   6.365 -0.2195  1.0215  0.1316
   54CHL1   C13 5128   0.669   5.115   6.248  0.5181 -0.4650 -0.2875
   54CHL1   C18 5129   0.516   5.142   6.261 -0.5156  0.1695  0.5054
   54CHL1  H18A 5130   0.445   5.061   6.292 -1.4316  2.0926  3.9081
   54CHL1  H18B 5131   0.492   5.228   6.327  0.6102  0.8552  0.0459
   54CHL1  H18C 5132   0.473   5.173   6.163 -1.2264  0.3821  0.8815
   54CHL1   C12 5133   0.749   5.239   6.200  0.5133  0.4453 -0.5883
   54CHL1  H12A 5134   0.711   5.321   6.266  0.7002 -1.1320  1.5705
   54CHL1  H12B 5135   0.856   5.219   6.221 -0.0146  0.9676  3.4640
   54CHL1   C11 5136   0.710   5.278   6.061 -0.2505 -0.3384 -0.0220
   54CHL1  H11A 5137   0.607   5.319   6.066  0.0002  0.4088 -0.8285
   54CHL1  H11B 5138   0.768   5.358   6.011  0.4065 -2.1923 -2.4362
   54CHL1    C9 5139   0.726   5.158   5.954  0.6226 -0.5608  1.1646
   54CHL1    H9 5140   0.836   5.147   5.947  0.4451 -1.1209 -2.2926
   54CHL1   C10 5141   0.670   5.196   5.809 -0.4293  0.2703 -0.0961
   54CHL1   C19 5142   0.533   5.274   5.822  0.2748  0.1145 -0.6437
   54CHL1  H19A 5143   0.554   5.375   5.863  2.4875 -0.2362 -0.8173
   54CHL1  H19B 5144   0.486   5.314   5.730 -0.8938  1.5510  0.5293
   54CHL1  H19C 5145   0.461   5.218   5.886 -0.2343  0.7562 -0.6419
   54CHL1    C1 5146   0.775   5.291   5.743 -0.0098 -0.5871 -0.0710
   54CHL1   H1A 5147   0.794   5.381   5.805  1.2427 -1.9666  1.6565
   54CHL1   H1B 5148   0.875   5.241   5.738  0.4646  0.3155  0.2506
   54CHL1    C2 5149   0.743   5.315   5.594  0.6825  0.0747 -0.5656
   54CHL1   H2A 5150   0.832   5.362   5.546 -0.1214  0.0617 -2.1524
   54CHL1   H2B 5151   0.659   5.386   5.574  0.5802  0.3890  0.8435
   54CHL1   C20 5152   0.673   5.118   6.514 -0.4179  0.5979 -0.0420
   54CHL1   H20 5153   0.562   5.116   6.528 -0.4260  2.7338  0.5892
   54CHL1   C21 5154   0.708   5.258   6.520  0.5580  0.2286 -0.7115
   54CHL1  H21A 5155   0.639   5.319   6.458 -0.6119  0.1103  0.4100
   54CHL1  H21B 5156   0.811   5.280   6.486  0.2370  0.7544 -1.3631
   54CHL1  H21C 5157   0.695   5.290   6.626  0.6081  0.4770 -0.7807
   54CHL1   C22 5158   0.746   5.037   6.619  0.5011  0.0564 -0.9663
   54CHL1  H22A 5159   0.724   4.928   6.620  2.5185 -0.4007 -0.7474
   54CHL1  H22B 5160   0.855   5.042   6.595  0.9400 -1.3096  0.5461
   54CHL1   C23 5161   0.720   5.093   6.765 -0.5265  0.2605 -0.6982
   54CHL1  H23A 5162   0.778   5.185   6.791 -1.5629  1.1520 -1.4531
   54CHL1  H23B 5163   0.611   5.109   6.775 -0.9881 -3.2696  1.6519
   54CHL1   C24 5164   0.747   4.988   6.875 -0.4552  0.1126  0.0493
   54CHL1  H24A 5165   0.695   4.893   6.852 -0.3923 -0.1590  0.9565
   54CHL1  H24B 5166   0.855   4.969   6.892 -0.4595 -1.9099 -1.8367
   54CHL1   C25 5167   0.704   5.022   7.023  0.5697  0.4011  0.1885
   54CHL1   H25 5168   0.705   4.926   7.079 -0.8010  1.1127  1.5106
   54CHL1   C26 5169   0.800   5.110   7.095  0.1569 -1.0057 -0.3867
   54CHL1  H26A 5170   0.766   5.130   7.199 -2.0474 -3.2646 -0.5888
   54CHL1  H26B 5171   0.895   5.052   7.104  0.6259  0.0391  2.4198
   54CHL1  H26C 5172   0.826   5.203   7.040  0.3033 -0.6735  0.2366
   54CHL1   C27 5173   0.565   5.075   7.044  0.0919 -0.0097 -0.1450
   54CHL1  H27A 5174   0.533   5.077   7.150  1.0533  3.1433  0.1854
   54CHL1  H27B 5175   0.575   5.181   7.011 -0.6230  0.5722  1.4124
   54CHL1  H27C 5176   0.494   5.019   6.979  2.1606  0.1882 -2.7503
   55CHL1    C3 5177   2.794   4.371   4.788  0.3303 -0.6463  0.0095
   55CHL1    H3 5178   2.689   4.389   4.818  0.7574  1.5937  0.3299
   55CHL1    O3 5179   2.808   4.394   4.647 -0.0250  0.4289  0.0274
   55CHL1   H3' 5180   2.773   4.483   4.635 -0.7745  0.2610  0.8797
   55CHL1    C4 5181   2.880   4.463   4.875 -0.8058 -0.3044  0.2866
   55CHL1   H4A 5182   2.979   4.457   4.826 -1.5932 -1.3071 -1.2801
   55CHL1   H4B 5183   2.845   4.567   4.855 -0.5548 -0.2996 -0.1535
   55CHL1    C5 5184   2.885   4.432   5.019  0.8034  0.2921  0.0936
   55CHL1    C6 5185   2.860   4.525   5.109  0.8422  0.2688 -0.7834
   55CHL1    H6 5186   2.841   4.629   5.078  0.9485  0.3598 -0.5508
   55CHL1    C7 5187   2.872   4.506   5.264 -0.6382 -0.1901  0.2571
   55CHL1   H7A 5188   2.938   4.586   5.304 -3.1883  2.4624 -0.5133
   55CHL1   H7B 5189   2.773   4.522   5.311  0.2603  2.3058  1.4728
   55CHL1    C8 5190   2.923   4.365   5.297  0.1466  0.2144 -0.2375
   55CHL1    H8 5191   3.034   4.365   5.293  0.1351 -1.0048 -2.5699
   55CHL1   C14 5192   2.870   4.332   5.438 -0.3853  0.0074  0.3047
   55CHL1   H14 5193   2.762   4.314   5.422 -0.5782  0.0642  1.4621
   55CHL1   C15 5194   2.884   4.430   5.553 -0.1349 -0.1404  0.3840
   55CHL1  H15A 5195   2.990   4.464   5.553 -0.7629  2.4306 -3.6352
   55CHL1  H15B 5196   2.824   4.522   5.536 -0.1131 -0.3999 -1.1759
   55CHL1   C16 5197   2.836   4.350   5.670  0.0333 -0.2560  0.0082
   55CHL1  H16A 5198   2.894   4.372   5.762  1.4934 -0.3088 -0.8661
   55CHL1  H16B 5199   2.726   4.359   5.678  0.0149 -1.4324  1.5141
   55CHL1   C17 5200   2.856   4.193   5.637 -0.3897 -0.6213  0.2343
   55CHL1   H17 5201   2.759   4.156   5.599  0.7038 -1.1658 -2.2887
   55CHL1   C13 5202   2.925   4.195   5.497  0.1117  0.0779 -0.2482
   55CHL1   C18 5203   3.086   4.191   5.515 -0.4864 -0.2372  0.1522
   55CHL1  H18A 5204   3.123   4.279   5.573 -2.6030  0.3067  0.7692
   55CHL1  H18B 5205   3.110   4.094   5.564 -0.1603 -0.7327 -0.9551
   55CHL1  H18C 5206   3.129   4.204   5.414 -1.0671  0.6938  0.0167
   55CHL1   C12 5207   2.885   4.093   5.396 -0.3618 -0.4062 -0.4989
   55CHL1  H12A 5208   2.923   3.992   5.422 -2.8071 -0.8514  1.6949
   55CHL1  H12B 5209   2.775   4.078   5.395 -0.4312 -0.7767  2.8284
   55CHL1   C11 5210   2.933   4.120   5.251  0.1624 -0.0918  0.7298
   55CHL1  H11A 5211   3.044   4.114   5.251  0.2118  0.7164  0.4914
   55CHL1  H11B 5212   2.884   4.042   5.188 -3.6547  2.2228  0.4775
   55CHL1    C9 5213   2.878   4.255   5.204  0.0107 -0.0853  0.6586
   55CHL1    H9 5214   2.768   4.247   5.207 -0.1157  0.6214 -0.9756
   55CHL1   C10 5215   2.911   4.290   5.055  0.2591 -0.5219  0.2208
   55CHL1   C19 5216   3.064   4.252   5.025 -0.1903  0.1285  0.0425
   55CHL1  H19A 5217   3.090   4.285   4.922  2.4696 -3.0658 -0.4644
   55CHL1  H19B 5218   3.133   4.308   5.092 -1.1238  0.6564  0.5850
   55CHL1  H19C 5219   3.093   4.146   5.041  0.6729  0.0637 -1.6932
   55CHL1    C1 5220   2.821   4.199   4.975 -0.2989 -0.1163 -0.6117
   55CHL1   H1A 5221   2.834   4.089   4.987  1.4309 -0.2085 -2.7248
   55CHL1   H1B 5222   2.718   4.237   4.994  0.5494  1.3542  1.3725
   55CHL1    C2 5223   2.829   4.231   4.823 -0.2433  0.4636  0.4888
   55CHL1   H2A 5224   2.764   4.162   4.766  0.1260  0.2915  0.2669
   55CHL1   H2B 5225   2.924   4.190   4.781 -0.7672 -0.2310 -0.0431
   55CHL1   C20 5226   2.900   4.102   5.744  0.4803  0.0689  0.1401
   55CHL1   H20 5227   3.002   4.131   5.778 -0.6057  2.6988  1.4183
   55CHL1   C21 5228   2.915   3.958   5.697 -0.0154 -0.4045  0.4677
   55CHL1  H21A 5229   2.990   3.942   5.617 -0.7255  2.5953 -0.9311
   55CHL1  H21B 5230   2.818   3.914   5.663 -1.3692 -0.9681  4.5256
   55CHL1  H21C 5231   2.950   3.899   5.784  2.3002  0.8687  0.4607
   55CHL1   C22 5232   2.827   4.101   5.878 -0.1157 -0.0206 -0.9048
   55CHL1  H22A 5233   2.888   4.034   5.943  1.6934  0.9074 -1.5801
   55CHL1  H22B 5234   2.808   4.195   5.934  2.2250 -0.0785  0.0934
   55CHL1   C23 5235   2.688   4.027   5.874 -0.1216  0.0517  0.1900
   55CHL1  H23A 5236   2.626   4.057   5.787 -1.7482 -1.6389  0.7019
   55CHL1  H23B 5237   2.700   3.918   5.855  1.6903  0.1474  0.6394
   55CHL1   C24 5238   2.586   4.040   5.987 -0.0522 -0.3168 -0.6793
   55CHL1  H24A 5239   2.570   4.148   6.010  0.6075 -0.6567  1.6680
   55CHL1  H24B 5240   2.493   4.006   5.936 -0.5053  1.6022 -1.2379
   55CHL1   C25 5241   2.616   3.963   6.119 -0.4079 -0.0424  0.9651
   55CHL1   H25 5242   2.712   4.004   6.158  0.4877 -0.2778 -0.8795
   55CHL1   C26 5243   2.507   3.994   6.214  0.1821 -0.5341  0.1455
   55CHL1  H26A 5244   2.505   4.098   6.254 -0.5574 -0.1545 -0.8360
   55CHL1  H26B 5245   2.411   3.967   6.165 -0.2028 -2.3200  1.7505
   55CHL1  H26C 5246   2.523   3.947   6.313  0.5525  0.0191  0.3559
   55CHL1   C27 5247   2.631   3.813   6.106 -0.3187  0.2478  0.2748
   55CHL1  H27A 5248   2.530   3.767   6.105 -0.3562  0.2859  1.1649
   55CHL1  H27B 5249   2.690   3.779   6.018  1.6582 -0.0783  1.6328
   55CHL1  H27C 5250   2.675   3.760   6.194 -1.0752 -0.3187  0.3208
   56CHL1    C3 5251   2.655   0.728   7.993  0.1468 -0.5838 -0.6604
   56CHL1    H3 5252   2.575   0.792   7.949  1.3407  0.8366 -0.8168
   56CHL1    O3 5253   2.639   0.717   8.135 -0.1222  0.5467 -0.0653
   56CHL1   H3' 5254   2.642   0.624   8.161 -0.6172  0.4033 -0.4866
   56CHL1    C4 5255   2.642   0.586   7.923 -0.1303  0.1137 -0.4834
   56CHL1   H4A 5256   2.715   0.532   7.988  0.6624  1.9907  0.2623
   56CHL1   H4B 5257   2.537   0.549   7.926 -0.7196  1.7920  1.7486
   56CHL1    C5 5258   2.695   0.576   7.778  0.3665  0.5617 -0.0760
   56CHL1    C6 5259   2.610   0.519   7.689  0.1287  0.9339 -0.6897
   56CHL1    H6 5260   2.513   0.478   7.722  0.5393 -0.8037 -1.5101
   56CHL1    C7 5261   2.629   0.497   7.542  0.3459 -0.5948 -0.1862
   56CHL1   H7A 5262   2.614   0.389   7.521  0.5262 -0.9826  1.5396
   56CHL1   H7B 5263   2.572   0.580   7.495  1.9117  1.0043  0.6317
   56CHL1    C8 5264   2.777   0.522   7.516  0.0870 -0.1821  0.1756
   56CHL1    H8 5265   2.837   0.434   7.546 -0.3559 -0.4670  0.2287
   56CHL1   C14 5266   2.794   0.551   7.366  0.4345 -0.3715 -0.1375
   56CHL1   H14 5267   2.731   0.641   7.349 -0.6530 -0.8207  1.3869
   56CHL1   C15 5268   2.738   0.451   7.261 -1.2334 -0.3808 -0.4326
   56CHL1  H15A 5269   2.740   0.349   7.305  2.2195 -1.0368 -1.8054
   56CHL1  H15B 5270   2.637   0.483   7.227 -1.7210 -0.6173  0.7498
   56CHL1   C16 5271   2.835   0.463   7.137 -0.3123 -0.4495 -0.1544
   56CHL1  H16A 5272   2.884   0.364   7.136 -1.4099 -1.0011 -0.9016
   56CHL1  H16B 5273   2.775   0.476   7.045 -0.2003  0.5629 -0.1048
   56CHL1   C17 5274   2.930   0.585   7.167 -0.3126 -0.2923  0.2328
   56CHL1   H17 5275   2.871   0.676   7.145  0.8746  0.1525 -1.2909
   56CHL1   C13 5276   2.935   0.583   7.323  0.0798 -0.0521 -0.5853
   56CHL1   C18 5277   3.030   0.473   7.369  0.3817 -0.2176  0.6461
   56CHL1  H18A 5278   3.002   0.374   7.326  0.2710 -0.1610  0.5867
   56CHL1  H18B 5279   3.135   0.494   7.338  0.0453 -1.9346 -2.0769
   56CHL1  H18C 5280   3.024   0.456   7.478 -1.2983  2.7175  1.1141
   56CHL1   C12 5281   2.977   0.716   7.394  0.0724 -0.3115  0.5103
   56CHL1  H12A 5282   3.083   0.738   7.366 -0.4015 -1.3216 -2.4333
   56CHL1  H12B 5283   2.909   0.798   7.364  0.1546  0.6765  2.7899
   56CHL1   C11 5284   2.969   0.709   7.550  0.3955  0.8853  0.1052
   56CHL1  H11A 5285   3.050   0.646   7.591 -1.0711 -0.0727  1.6904
   56CHL1  H11B 5286   2.984   0.810   7.594 -0.1179  1.7124 -1.5368
   56CHL1    C9 5287   2.830   0.645   7.593  0.3442 -0.7131  0.0951
   56CHL1    H9 5288   2.765   0.729   7.563 -0.3905 -0.8332  1.2891
   56CHL1   C10 5289   2.825   0.631   7.748 -0.3163  0.1057  0.7417
   56CHL1   C19 5290   2.933   0.527   7.794 -0.7018 -0.4462  0.8680
   56CHL1  H19A 5291   2.921   0.496   7.900  1.1477  0.8621  1.5113
   56CHL1  H19B 5292   2.940   0.443   7.723  1.0068  0.2635  0.1455
   56CHL1  H19C 5293   3.034   0.574   7.796 -0.6304 -0.5592  0.1803
   56CHL1    C1 5294   2.836   0.775   7.821  0.4266 -0.5713  1.3331
   56CHL1   H1A 5295   2.938   0.816   7.805  0.0870  0.9153  2.6285
   56CHL1   H1B 5296   2.762   0.844   7.775  1.8865  0.9525  1.1333
   56CHL1    C2 5297   2.802   0.784   7.973  0.2186 -0.4854 -0.1464
   56CHL1   H2A 5298   2.807   0.889   8.009  0.4031 -0.9549  1.2569
   56CHL1   H2B 5299   2.871   0.707   8.013  0.5839 -0.4548 -0.7088
   56CHL1   C20 5300   3.062   0.592   7.086 -0.7701  0.1764  1.0067
   56CHL1   H20 5301   3.149   0.640   7.135  0.8797 -1.9708  0.3496
   56CHL1   C21 5302   3.024   0.675   6.962  0.1521 -0.0904 -0.8029
   56CHL1  H21A 5303   2.996   0.778   6.993 -2.9894 -0.7917 -1.0205
   56CHL1  H21B 5304   2.932   0.632   6.919  1.2060 -0.5416 -2.7124
   56CHL1  H21C 5305   3.101   0.661   6.883  0.5005  1.5074 -0.7903
   56CHL1   C22 5306   3.122   0.455   7.039  0.1688 -0.2567  0.6654
   56CHL1  H22A 5307   3.148   0.404   7.134  1.1330 -0.2527  0.4173
   56CHL1  H22B 5308   3.049   0.399   6.977 -1.9363  2.6221  0.3476
   56CHL1   C23 5309   3.254   0.464   6.959 -0.2232 -0.5663  0.5640
   56CHL1  H23A 5310   3.220   0.476   6.854 -0.3381  0.8331  0.7407
   56CHL1  H23B 5311   3.307   0.557   6.987  0.2595 -0.7434  0.2392
   56CHL1   C24 5312   3.350   0.349   6.975 -0.3354  0.1167  0.2608
   56CHL1  H24A 5313   3.378   0.353   7.083  2.3856  1.5550 -0.3891
   56CHL1  H24B 5314   3.288   0.258   6.963  0.9537 -0.7593 -0.0324
   56CHL1   C25 5315   3.475   0.327   6.886  0.0645 -0.6155 -0.6928
   56CHL1   H25 5316   3.521   0.424   6.913 -1.4528 -0.7693  2.9575
   56CHL1   C26 5317   3.557   0.210   6.926  0.3218 -0.2430  0.1875
   56CHL1  H26A 5318   3.585   0.230   7.032  0.2957 -0.3451  0.2139
   56CHL1  H26B 5319   3.502   0.114   6.921  2.0972 -1.4023  1.6952
   56CHL1  H26C 5320   3.646   0.195   6.861  0.3872  2.1125 -0.3642
   56CHL1   C27 5321   3.439   0.315   6.742 -0.0375  0.7828 -0.1044
   56CHL1  H27A 5322   3.385   0.220   6.722  0.6396 -0.1716  2.2141
   56CHL1  H27B 5323   3.383   0.401   6.701  0.5718  1.4131  0.3757
   56CHL1  H27C 5324   3.537   0.303   6.690 -0.0178  0.2030  0.0606
   57CHL1    C3 5325   4.375   0.778   5.475 -0.2839 -0.2120 -0.6317
   57CHL1    H3 5326   4.284   0.842   5.473  1.9928  3.3155 -2.0067
   57CHL1    O3 5327   4.420   0.767   5.341 -0.8476  0.3766 -0.4089
   57CHL1   H3' 5328   4.493   0.706   5.355  0.0971  1.2799 -1.2287
   57CHL1    C4 5329   4.475   0.853   5.566  0.0393 -0.1819 -0.6104
   57CHL1   H4A 5330   4.571   0.796   5.563 -0.0452 -0.5000  1.1944
   57CHL1   H4B 5331   4.510   0.947   5.520  1.8667 -1.8126 -2.7541
   57CHL1    C5 5332   4.438   0.868   5.713 -0.2099 -0.5062  0.6090
   57CHL1    C6 5333   4.432   0.990   5.762 -0.7522 -0.5943  0.0717
   57CHL1    H6 5334   4.450   1.080   5.700 -3.4868  0.5712  0.8371
   57CHL1    C7 5335   4.410   1.019   5.906  0.0513 -0.1687  0.3391
   57CHL1   H7A 5336   4.479   1.098   5.942  1.5806 -1.1169 -0.4048
   57CHL1   H7B 5337   4.308   1.062   5.913  0.1976  0.6497 -1.7226
   57CHL1    C8 5338   4.415   0.886   5.989 -0.4846 -0.5007  0.3181
   57CHL1    H8 5339   4.523   0.866   6.006  0.2302  0.8092 -2.2434
   57CHL1   C14 5340   4.348   0.909   6.121  0.3297 -0.0806 -0.5977
   57CHL1   H14 5341   4.242   0.934   6.100  0.5529 -0.8419 -2.9077
   57CHL1   C15 5342   4.402   1.027   6.212  0.0653 -0.2987 -0.2386
   57CHL1  H15A 5343   4.511   1.048   6.208  0.2039 -1.0070 -0.2515
   57CHL1  H15B 5344   4.355   1.123   6.182  2.0162  0.1770 -2.0350
   57CHL1   C16 5345   4.372   0.981   6.358 -0.2581  0.1291  0.3200
   57CHL1  H16A 5346   4.466   0.953   6.411 -0.2500 -1.6219 -0.5360
   57CHL1  H16B 5347   4.315   1.058   6.414  2.1439  1.9774  0.3618
   57CHL1   C17 5348   4.293   0.845   6.341  0.3527 -0.2168 -0.1667
   57CHL1   H17 5349   4.185   0.871   6.332  0.7287  1.6061  0.2746
   57CHL1   C13 5350   4.352   0.791   6.212 -0.0866  0.1876 -0.0426
   57CHL1   C18 5351   4.498   0.748   6.233  0.2590  0.2164  0.1954
   57CHL1  H18A 5352   4.534   0.711   6.134 -0.7008 -2.4858  0.7828
   57CHL1  H18B 5353   4.558   0.824   6.287 -1.4696  0.6158  1.6254
   57CHL1  H18C 5354   4.514   0.659   6.297 -0.5016  0.5781  0.9042
   57CHL1   C12 5355   4.279   0.669   6.142 -0.3954 -0.1311 -0.0482
   57CHL1  H12A 5356   4.299   0.583   6.209 -1.1998  0.1464  0.5687
   57CHL1  H12B 5357   4.171   0.696   6.133 -0.1259  0.9352 -0.2108
   57CHL1   C11 5358   4.337   0.634   6.008  0.1613 -0.0436 -0.4491
   57CHL1  H11A 5359   4.436   0.585   6.023 -0.2038 -0.9784 -1.0300
   57CHL1  H11B 5360   4.266   0.573   5.949  1.2243 -1.5462 -0.2317
   57CHL1    C9 5361   4.345   0.764   5.919 -0.0486 -0.3119 -0.4298
   57CHL1    H9 5362   4.238   0.792   5.919  0.0218 -0.0319 -0.4072
   57CHL1   C10 5363   4.406   0.741   5.780 -0.3578  0.0022 -0.0687
   57CHL1   C19 5364   4.544   0.667   5.791 -0.1964 -0.1397  0.2464
   57CHL1  H19A 5365   4.591   0.629   5.698 -0.6786  0.2879 -0.1836
   57CHL1  H19B 5366   4.624   0.723   5.843 -0.0258  0.2969 -0.4680
   57CHL1  H19C 5367   4.518   0.580   5.855  0.2037 -0.4186  0.0303
   57CHL1    C1 5368   4.312   0.655   5.693  0.6379 -0.5509 -0.0039
   57CHL1   H1A 5369   4.290   0.554   5.734  2.1477 -0.8901  0.0339
   57CHL1   H1B 5370   4.217   0.713   5.692  1.3437  0.6185 -1.2649
   57CHL1    C2 5371   4.359   0.644   5.543 -0.4665  0.4197  0.4891
   57CHL1   H2A 5372   4.276   0.588   5.494 -1.7781  2.1071  0.7000
   57CHL1   H2B 5373   4.456   0.591   5.530 -0.8325 -0.0630 -0.3497
   57CHL1   C20 5374   4.303   0.761   6.464 -1.1150  0.3099 -0.0586
   57CHL1   H20 5375   4.409   0.734   6.486 -1.1974 -2.0978 -2.0325
   57CHL1   C21 5376   4.217   0.635   6.465  0.0412  0.3048  0.3260
   57CHL1  H21A 5377   4.249   0.567   6.383 -1.4541  0.9565 -0.8354
   57CHL1  H21B 5378   4.111   0.662   6.446 -0.1907 -0.6414  0.1876
   57CHL1  H21C 5379   4.231   0.588   6.565 -0.5031  2.1419  1.3121
   57CHL1   C22 5380   4.267   0.843   6.588 -0.1692  0.4568  0.1983
   57CHL1  H22A 5381   4.220   0.939   6.559 -1.1376 -0.6563 -2.1400
   57CHL1  H22B 5382   4.190   0.785   6.643 -0.0498  0.5945  0.5136
   57CHL1   C23 5383   4.380   0.868   6.684 -0.1378 -0.2203 -0.5172
   57CHL1  H23A 5384   4.430   0.775   6.719 -1.4347 -0.8746 -0.3436
   57CHL1  H23B 5385   4.470   0.921   6.644 -0.6404  0.8255 -0.2898
   57CHL1   C24 5386   4.332   0.930   6.815 -0.1130  0.6105 -0.3344
   57CHL1  H24A 5387   4.269   1.021   6.798 -1.0008  0.2205  0.7073
   57CHL1  H24B 5388   4.257   0.860   6.857  2.0691 -2.2654 -0.9596
   57CHL1   C25 5389   4.436   0.967   6.925 -0.0669 -0.3512 -0.4617
   57CHL1   H25 5390   4.512   1.043   6.897 -0.0616 -0.7919 -1.7273
   57CHL1   C26 5391   4.356   1.003   7.054  0.6601  0.1911  0.1177
   57CHL1  H26A 5392   4.295   1.093   7.030  0.0778 -0.5056 -1.0816
   57CHL1  H26B 5393   4.284   0.919   7.061 -0.0810  0.8623  0.8003
   57CHL1  H26C 5394   4.405   1.021   7.152 -0.0519  0.9210  0.3488
   57CHL1   C27 5395   4.524   0.840   6.964 -0.1778 -0.5978  0.1892
   57CHL1  H27A 5396   4.603   0.821   6.888  0.7499 -1.2069  1.2600
   57CHL1  H27B 5397   4.587   0.866   7.052 -0.5790  3.3920 -0.5202
   57CHL1  H27C 5398   4.469   0.744   6.969 -0.6621 -0.2771  1.3150
   58CHL1    C3 5399   2.443   6.322   4.983 -0.1386 -0.0461  0.4295
   58CHL1    H3 5400   2.468   6.430   4.991 -1.3217  0.5041 -2.0778
   58CHL1    O3 5401   2.446   6.289   4.845  0.0546 -0.4267  0.1176
   58CHL1   H3' 5402   2.359   6.252   4.827 -0.5436 -0.3835  2.6260
   58CHL1    C4 5403   2.550   6.233   5.047  0.3522 -0.0405 -0.0149
   58CHL1   H4A 5404   2.524   6.126   5.029 -0.5047  0.1561  0.0118
   58CHL1   H4B 5405   2.650   6.253   5.003 -0.0782  1.3452 -0.3907
   58CHL1    C5 5406   2.554   6.236   5.202  0.2207  0.2239 -0.3415
   58CHL1    C6 5407   2.665   6.274   5.275  0.5644 -0.2234  0.2475
   58CHL1    H6 5408   2.755   6.302   5.218  0.7618 -1.9146 -0.3139
   58CHL1    C7 5409   2.678   6.270   5.423  0.0425  0.5355 -0.1344
   58CHL1   H7A 5410   2.766   6.209   5.454  0.5038  0.4795 -1.4748
   58CHL1   H7B 5411   2.691   6.373   5.464 -1.0125  0.3213  0.7910
   58CHL1    C8 5412   2.543   6.219   5.486 -0.2352 -0.4516  0.1059
   58CHL1    H8 5413   2.557   6.109   5.487  1.4846 -0.2729 -0.0578
   58CHL1   C14 5414   2.547   6.264   5.628  0.2913 -0.1520 -0.1572
   58CHL1   H14 5415   2.541   6.375   5.625  0.3105  0.0240  3.0068
   58CHL1   C15 5416   2.671   6.232   5.714  0.0813 -0.6029 -0.5264
   58CHL1  H15A 5417   2.694   6.125   5.696  1.0144 -0.1500 -2.2076
   58CHL1  H15B 5418   2.765   6.287   5.692 -0.5175  0.6215 -0.0907
   58CHL1   C16 5419   2.617   6.248   5.854 -0.2459  0.5541 -0.0683
   58CHL1  H16A 5420   2.653   6.168   5.923  0.1829 -1.9916 -3.0024
   58CHL1  H16B 5421   2.657   6.340   5.900  2.8114 -0.6167 -0.0970
   58CHL1   C17 5422   2.468   6.262   5.849 -0.7056 -0.0736 -0.5556
   58CHL1   H17 5423   2.456   6.372   5.846  1.9196  0.2826  0.0820
   58CHL1   C13 5424   2.424   6.218   5.712  0.4128 -0.0955 -0.1496
   58CHL1   C18 5425   2.401   6.063   5.717 -0.0607 -0.5137  0.0933
   58CHL1  H18A 5426   2.476   6.034   5.793  0.5733  1.5115  0.3191
   58CHL1  H18B 5427   2.296   6.057   5.753  0.1836  1.7861  1.3890
   58CHL1  H18C 5428   2.404   6.011   5.619 -1.0837 -0.1484 -0.1490
   58CHL1   C12 5429   2.305   6.299   5.654 -0.0869 -0.1994  0.2218
   58CHL1  H12A 5430   2.212   6.267   5.707 -0.7736  0.1277 -0.7625
   58CHL1  H12B 5431   2.313   6.409   5.664 -3.5164  0.1268  0.4501
   58CHL1   C11 5432   2.301   6.251   5.503 -0.0020  0.1205 -0.6474
   58CHL1  H11A 5433   2.286   6.141   5.513  1.3111 -0.0506 -0.4649
   58CHL1  H11B 5434   2.208   6.300   5.466 -0.2118  1.4277  1.4642
   58CHL1    C9 5435   2.423   6.272   5.416 -0.2043 -0.3614 -0.5571
   58CHL1    H9 5436   2.436   6.382   5.414  1.1246 -0.3776  2.5859
   58CHL1   C10 5437   2.410   6.220   5.270 -0.1671 -0.0759  0.0605
   58CHL1   C19 5438   2.362   6.070   5.276  0.3680 -0.0302 -0.5017
   58CHL1  H19A 5439   2.416   6.011   5.354 -1.1041 -0.6355  0.0880
   58CHL1  H19B 5440   2.255   6.068   5.306  0.6067 -1.5041  0.3732
   58CHL1  H19C 5441   2.380   6.022   5.177 -1.7949 -0.6591 -0.6233
   58CHL1    C1 5442   2.307   6.303   5.191 -0.4185  0.4475 -0.2313
   58CHL1   H1A 5443   2.205   6.271   5.222  0.8685 -3.0377  0.8157
   58CHL1   H1B 5444   2.329   6.408   5.218  1.6246 -0.3612  1.5324
   58CHL1    C2 5445   2.303   6.296   5.037  0.2464  0.0550  0.4972
   58CHL1   H2A 5446   2.230   6.374   5.004 -1.2353 -1.5499 -0.1366
   58CHL1   H2B 5447   2.266   6.197   5.003  0.0007  0.0579  0.7497
   58CHL1   C20 5448   2.390   6.203   5.972 -1.4660 -0.3759 -0.8149
   58CHL1   H20 5449   2.395   6.093   5.962  1.8704 -0.3194 -0.7837
   58CHL1   C21 5450   2.242   6.247   5.983 -0.2272  0.0227  0.1491
   58CHL1  H21A 5451   2.204   6.198   6.075  0.4175 -0.1380  0.3336
   58CHL1  H21B 5452   2.181   6.197   5.905  0.3455  0.7654 -0.8021
   58CHL1  H21C 5453   2.221   6.356   5.976  1.0171  0.2617 -0.1768
   58CHL1   C22 5454   2.472   6.244   6.107 -0.0930 -0.5586  1.3655
   58CHL1  H22A 5455   2.412   6.191   6.184 -0.8523 -0.0593  1.1323
   58CHL1  H22B 5456   2.577   6.210   6.112  0.1625 -0.4789 -1.6388
   58CHL1   C23 5457   2.479   6.399   6.145  0.2612 -0.1553  0.1461
   58CHL1  H23A 5458   2.530   6.451   6.061  0.4567 -1.2009 -0.3939
   58CHL1  H23B 5459   2.375   6.436   6.151  0.8351  1.7476 -0.7932
   58CHL1   C24 5460   2.553   6.429   6.276  0.1170  0.9447  0.2276
   58CHL1  H24A 5461   2.661   6.419   6.250 -0.2337 -1.0204 -0.6445
   58CHL1  H24B 5462   2.529   6.535   6.300  2.0645  1.5650 -0.3734
   58CHL1   C25 5463   2.521   6.330   6.391 -0.1748 -0.2461  0.7477
   58CHL1   H25 5464   2.531   6.226   6.355 -1.4958  0.6216 -2.5428
   58CHL1   C26 5465   2.628   6.349   6.495  0.4184 -0.1527 -0.0205
   58CHL1  H26A 5466   2.727   6.319   6.455  1.6400  4.1979 -0.7167
   58CHL1  H26B 5467   2.645   6.455   6.522  2.0909 -0.2170 -0.6833
   58CHL1  H26C 5468   2.612   6.296   6.592  1.4331  0.5137  0.5281
   58CHL1   C27 5469   2.384   6.355   6.449  0.5124  0.4150 -0.7994
   58CHL1  H27A 5470   2.367   6.286   6.535 -1.9026  0.0260 -1.5095
   58CHL1  H27B 5471   2.375   6.455   6.496 -0.7501  0.5119 -1.2152
   58CHL1  H27C 5472   2.307   6.333   6.372  1.1678 -2.4215 -0.7778
   59CHL1    C3 5473   2.563   0.852   5.073  0.0528 -0.2899 -0.5514
   59CHL1    H3 5474   2.576   0.747   5.108  1.2089 -0.6972 -2.0919
   59CHL1    O3 5475   2.611   0.864   4.940  0.0735  0.2136 -0.5041
   59CHL1   H3' 5476   2.561   0.800   4.889  1.0210 -0.3480 -0.7505
   59CHL1    C4 5477   2.424   0.897   5.087  0.2405 -0.1592 -0.1205
   59CHL1   H4A 5478   2.403   0.999   5.047  0.9371 -0.7823 -2.2101
   59CHL1   H4B 5479   2.359   0.824   5.034  1.4158  1.0588 -3.4962
   59CHL1    C5 5480   2.382   0.885   5.226 -0.4816  0.3100  0.3601
   59CHL1    C6 5481   2.291   0.794   5.274  0.2875 -0.2394  0.1403
   59CHL1    H6 5482   2.241   0.733   5.197 -0.2426  0.4469 -0.0761
   59CHL1    C7 5483   2.243   0.784   5.415  0.2514 -0.1624  0.1755
   59CHL1   H7A 5484   2.133   0.783   5.422  0.2280  1.6849  0.5432
   59CHL1   H7B 5485   2.280   0.695   5.470 -0.2591  0.7641  2.1405
   59CHL1    C8 5486   2.289   0.900   5.510  0.1354 -0.2758 -0.8074
   59CHL1    H8 5487   2.234   0.995   5.489 -0.7239 -0.3061  1.0979
   59CHL1   C14 5488   2.284   0.864   5.659  0.3858  0.0391 -0.5240
   59CHL1   H14 5489   2.355   0.779   5.670  0.8526  0.4588 -0.2664
   59CHL1   C15 5490   2.144   0.806   5.714  0.1064 -0.1975 -0.5800
   59CHL1  H15A 5491   2.057   0.864   5.676 -0.9800 -0.6639  1.0631
   59CHL1  H15B 5492   2.130   0.698   5.691 -0.2727 -0.5953  1.3337
   59CHL1   C16 5493   2.165   0.818   5.870  0.3988  0.1830 -0.1372
   59CHL1  H16A 5494   2.078   0.873   5.913  0.2881 -0.2686  0.2249
   59CHL1  H16B 5495   2.185   0.718   5.913  0.1728 -0.0742 -0.6113
   59CHL1   C17 5496   2.299   0.900   5.889 -0.2335  0.0099  0.0451
   59CHL1   H17 5497   2.375   0.819   5.893  1.1089  1.1096 -2.0370
   59CHL1   C13 5498   2.329   0.965   5.758  0.4329 -0.5926 -0.0926
   59CHL1   C18 5499   2.254   1.099   5.756  0.7291  0.0921 -0.2494
   59CHL1  H18A 5500   2.312   1.171   5.817  1.1740 -0.6350  0.2044
   59CHL1  H18B 5501   2.244   1.139   5.653 -0.5349 -3.3651 -1.6192
   59CHL1  H18C 5502   2.148   1.079   5.782  0.1915  3.0696  0.1504
   59CHL1   C12 5503   2.480   0.997   5.728  0.0125  0.2350 -0.5057
   59CHL1  H12A 5504   2.519   1.076   5.795  1.8923 -0.8475 -0.2764
   59CHL1  H12B 5505   2.533   0.901   5.742  1.2493  0.9751 -0.0051
   59CHL1   C11 5506   2.495   1.040   5.574 -0.0587 -0.0351 -0.3838
   59CHL1  H11A 5507   2.446   1.139   5.567 -0.0544 -0.1186 -1.8623
   59CHL1  H11B 5508   2.604   1.043   5.553  0.2332  0.6158  1.0607
   59CHL1    C9 5509   2.440   0.932   5.476  0.0117 -1.1402  0.8967
   59CHL1    H9 5510   2.493   0.835   5.491  4.8301  0.8989 -1.0626
   59CHL1   C10 5511   2.467   0.974   5.325  0.5075 -0.5743  1.0760
   59CHL1   C19 5512   2.424   1.119   5.302 -0.1898 -0.1313 -0.4682
   59CHL1  H19A 5513   2.477   1.197   5.361 -0.9006 -0.0945  0.1414
   59CHL1  H19B 5514   2.436   1.153   5.197  1.2225  0.1934 -0.2249
   59CHL1  H19C 5515   2.318   1.120   5.333  0.6868 -1.3202  3.0255
   59CHL1    C1 5516   2.612   0.961   5.306 -0.8395  0.3195  1.2814
   59CHL1   H1A 5517   2.666   1.052   5.338 -1.1708  0.9700  0.0591
   59CHL1   H1B 5518   2.655   0.869   5.351 -2.6208 -2.4348 -2.1014
   59CHL1    C2 5519   2.652   0.953   5.159  0.1737 -0.1764  0.1873
   59CHL1   H2A 5520   2.757   0.932   5.131  0.1508  0.8323 -0.6900
   59CHL1   H2B 5521   2.626   1.054   5.120  0.7856 -0.5580 -1.2723
   59CHL1   C20 5522   2.305   0.971   6.023  0.2538  0.3570 -0.0871
   59CHL1   H20 5523   2.238   1.059   6.025  0.5667  0.6225 -0.8926
   59CHL1   C21 5524   2.454   1.017   6.046  0.4463  0.1732 -0.6324
   59CHL1  H21A 5525   2.537   0.945   6.032  0.5277  0.4753 -1.8965
   59CHL1  H21B 5526   2.448   1.070   6.143  0.0593 -1.8219  0.4834
   59CHL1  H21C 5527   2.464   1.099   5.971  0.4569 -0.5133 -1.3959
   59CHL1   C22 5528   2.257   0.887   6.140  0.5274  0.0192 -0.7675
   59CHL1  H22A 5529   2.152   0.851   6.127  0.2829 -0.1389  1.3183
   59CHL1  H22B 5530   2.313   0.792   6.148 -1.2973 -1.0962 -0.4913
   59CHL1   C23 5531   2.249   0.957   6.279 -0.4196  0.3470  0.4450
   59CHL1  H23A 5532   2.336   1.024   6.296 -0.4044  0.2131  0.9125
   59CHL1  H23B 5533   2.160   1.024   6.280 -1.0920 -0.4370 -1.3743
   59CHL1   C24 5534   2.244   0.846   6.389 -0.5297 -0.5125 -0.0666
   59CHL1  H24A 5535   2.152   0.787   6.368 -0.4774 -0.8017  0.5065
   59CHL1  H24B 5536   2.336   0.785   6.384 -0.0499  0.0297  1.4985
   59CHL1   C25 5537   2.239   0.897   6.535  0.6422 -0.7968 -0.4058
   59CHL1   H25 5538   2.339   0.944   6.550  0.3166  0.2033 -1.2039
   59CHL1   C26 5539   2.125   1.003   6.553  0.1709  0.4149 -0.2843
   59CHL1  H26A 5540   2.106   1.023   6.661 -0.4226 -3.3742  0.4571
   59CHL1  H26B 5541   2.135   1.105   6.510  0.5529  0.0985 -0.9589
   59CHL1  H26C 5542   2.036   0.956   6.506 -0.8857  1.3543  0.7091
   59CHL1   C27 5543   2.214   0.778   6.628 -0.3969 -0.3087  0.2083
   59CHL1  H27A 5544   2.300   0.707   6.622  0.4705  0.7457 -0.1174
   59CHL1  H27B 5545   2.227   0.818   6.731  0.9252  1.6349 -0.6455
   59CHL1  H27C 5546   2.115   0.730   6.611 -0.0614 -1.1969  0.6966
   60CHL1    C3 5547   4.085   6.659   5.521 -0.8884 -0.6745 -0.5082
   60CHL1    H3 5548   4.054   6.752   5.470 -0.6191 -0.0487  0.4482
   60CHL1    O3 5549   4.116   6.588   5.397 -0.0070  0.2262 -0.0103
   60CHL1   H3' 5550   4.120   6.494   5.418  1.4597  0.0088 -1.0960
   60CHL1    C4 5551   4.210   6.683   5.610 -0.5233  0.4347  0.8217
   60CHL1   H4A 5552   4.249   6.582   5.635  3.3494  1.5047 -0.3223
   60CHL1   H4B 5553   4.286   6.728   5.543 -3.7180  1.7729 -2.2460
   60CHL1    C5 5554   4.174   6.764   5.734 -0.2496 -0.4712 -0.2805
   60CHL1    C6 5555   4.233   6.879   5.754  0.8638  0.2810  0.4369
   60CHL1    H6 5556   4.292   6.933   5.679  0.1616 -0.2637 -0.5373
   60CHL1    C7 5557   4.206   6.960   5.880  0.9919  0.2508 -0.0051
   60CHL1   H7A 5558   4.300   7.002   5.922  2.3949 -0.8224 -1.8985
   60CHL1   H7B 5559   4.141   7.045   5.849  0.5763 -0.6811 -1.8177
   60CHL1    C8 5560   4.136   6.888   5.997 -0.5452 -0.9581 -0.4937
   60CHL1    H8 5561   4.212   6.822   6.043  0.3286 -1.4808 -2.6044
   60CHL1   C14 5562   4.091   6.982   6.105 -0.5608 -0.6411  0.2996
   60CHL1   H14 5563   4.017   7.049   6.056 -0.8550  0.8614  2.6779
   60CHL1   C15 5564   4.186   7.094   6.162 -0.5832  0.3283  0.3042
   60CHL1  H15A 5565   4.289   7.059   6.185 -0.0514  1.8051  0.2978
   60CHL1  H15B 5566   4.198   7.184   6.098 -0.7019  0.0848 -0.0622
   60CHL1   C16 5567   4.114   7.133   6.295 -0.3063  0.2998 -0.2464
   60CHL1  H16A 5568   4.188   7.135   6.379 -0.6620 -1.6121  0.1608
   60CHL1  H16B 5569   4.082   7.239   6.290 -1.3464 -0.0347 -0.9877
   60CHL1   C17 5570   3.991   7.038   6.307  0.2597 -0.2964 -0.0360
   60CHL1   H17 5571   3.910   7.091   6.251  0.9537  0.6009 -0.2242
   60CHL1   C13 5572   4.026   6.911   6.224 -0.4789  0.3855 -0.2825
   60CHL1   C18 5573   4.121   6.817   6.306  0.2216 -0.3126  0.1253
   60CHL1  H18A 5574   4.165   6.733   6.248  0.1143 -0.5467  0.3812
   60CHL1  H18B 5575   4.202   6.884   6.343  0.5864 -1.0018  0.5808
   60CHL1  H18C 5576   4.075   6.778   6.399 -1.1289 -2.0508 -1.2132
   60CHL1   C12 5577   3.899   6.839   6.176  0.1661 -0.3626 -0.7376
   60CHL1  H12A 5578   3.839   6.801   6.261  0.7256  1.0779  0.3366
   60CHL1  H12B 5579   3.832   6.918   6.137 -1.3494 -0.7499  0.9829
   60CHL1   C11 5580   3.931   6.744   6.061  0.6933  0.2108 -0.3705
   60CHL1  H11A 5581   4.002   6.672   6.109  1.2843  0.1071 -1.3587
   60CHL1  H11B 5582   3.837   6.696   6.028  1.0046  0.6507 -1.9711
   60CHL1    C9 5583   4.016   6.805   5.947 -0.2266 -0.0716  0.1568
   60CHL1    H9 5584   3.958   6.877   5.886  0.7964 -0.3913 -1.2496
   60CHL1   C10 5585   4.064   6.708   5.827  0.4544 -0.4410  0.5832
   60CHL1   C19 5586   4.118   6.570   5.888  0.6149  1.0551 -0.2444
   60CHL1  H19A 5587   4.158   6.498   5.813  0.6535  2.4403 -1.6079
   60CHL1  H19B 5588   4.205   6.590   5.953  2.5110 -2.2049 -1.5307
   60CHL1  H19C 5589   4.037   6.521   5.945  0.8958  1.3352  0.4005
   60CHL1    C1 5590   3.945   6.669   5.728 -0.2354 -0.1031 -0.3486
   60CHL1   H1A 5591   3.866   6.603   5.770 -1.7212 -0.5428 -3.5194
   60CHL1   H1B 5592   3.900   6.770   5.716  0.9562  0.3414 -1.1384
   60CHL1    C2 5593   3.969   6.596   5.593  0.9162  0.0826 -0.5644
   60CHL1   H2A 5594   3.882   6.602   5.525  0.3410  2.1770  0.2865
   60CHL1   H2B 5595   3.986   6.487   5.605 -0.1435 -0.0985 -0.5973
   60CHL1   C20 5596   3.935   7.014   6.448  0.3923 -0.0389 -0.1842
   60CHL1   H20 5597   3.866   6.927   6.449  0.7427 -0.3549  2.3357
   60CHL1   C21 5598   3.835   7.128   6.483 -0.4779  0.0232  0.4198
   60CHL1  H21A 5599   3.774   7.102   6.573 -1.3522  2.5769  0.6720
   60CHL1  H21B 5600   3.759   7.140   6.403  1.0709 -1.6022 -1.3727
   60CHL1  H21C 5601   3.886   7.225   6.503  2.3018 -1.3506  0.4183
   60CHL1   C22 5602   4.037   6.995   6.566 -0.1386  0.3815  0.7694
   60CHL1  H22A 5603   4.121   6.923   6.559  0.5664  0.9358  2.7612
   60CHL1  H22B 5604   4.084   7.094   6.585 -2.0141  1.4666 -0.0464
   60CHL1   C23 5605   3.973   6.977   6.699 -0.4651  0.3907  0.5549
   60CHL1  H23A 5606   3.897   7.057   6.713  0.0543  0.8427  0.8323
   60CHL1  H23B 5607   3.911   6.886   6.686 -0.9273  0.5801  1.3536
   60CHL1   C24 5608   4.070   6.970   6.820 -0.0779 -0.9186  0.4343
   60CHL1  H24A 5609   4.130   6.878   6.808 -0.0666 -0.9048  0.3835
   60CHL1  H24B 5610   4.143   7.051   6.839  0.8084 -1.0880 -1.9924
   60CHL1   C25 5611   3.999   6.955   6.952 -0.2564 -0.1939  0.2128
   60CHL1   H25 5612   3.906   6.897   6.931  0.2672 -1.6055  1.5739
   60CHL1   C26 5613   4.089   6.882   7.053  0.2070 -0.3076 -0.0230
   60CHL1  H26A 5614   4.142   6.797   7.007  0.0101  0.8800 -2.5848
   60CHL1  H26B 5615   4.176   6.944   7.084 -0.0092  0.5585 -1.0727
   60CHL1  H26C 5616   4.030   6.843   7.139 -1.5817  0.0065 -1.0450
   60CHL1   C27 5617   3.951   7.095   7.000 -0.5549  0.7186 -0.0249
   60CHL1  H27A 5618   3.876   7.076   7.080  0.4323 -2.7507  0.2186
   60CHL1  H27B 5619   4.030   7.153   7.051  0.6276 -1.3841  0.6250
   60CHL1  H27C 5620   3.914   7.156   6.914  1.6978  3.5175  0.8360
   61CHL1    C3 5621   2.546   3.389   4.761  0.4686  0.3291 -0.2780
   61CHL1    H3 5622   2.649   3.348   4.753  0.5344  0.6236 -0.9510
   61CHL1    O3 5623   2.481   3.397   4.637 -0.2977 -0.2419  0.4443
   61CHL1   H3' 5624   2.413   3.465   4.638  0.5958  0.6903  0.0295
   61CHL1    C4 5625   2.458   3.298   4.857  0.6090  0.3112 -0.1379
   61CHL1   H4A 5626   2.352   3.329   4.851 -0.0811 -1.8281  0.3524
   61CHL1   H4B 5627   2.459   3.195   4.815  1.6342  0.0892  0.3937
   61CHL1    C5 5628   2.510   3.302   4.999  0.1504 -0.0416 -0.3026
   61CHL1    C6 5629   2.522   3.188   5.071 -0.4382 -0.1278  0.1526
   61CHL1    H6 5630   2.502   3.095   5.017  2.4447 -1.0462  0.5106
   61CHL1    C7 5631   2.554   3.175   5.213  0.2081 -0.5080  0.1840
   61CHL1   H7A 5632   2.480   3.107   5.259 -2.9357  0.9038 -2.3709
   61CHL1   H7B 5633   2.652   3.127   5.230  0.3823 -0.9914 -1.8735
   61CHL1    C8 5634   2.546   3.310   5.291  0.5026 -0.3144 -0.1233
   61CHL1    H8 5635   2.440   3.336   5.311  0.6076  0.1015 -0.1093
   61CHL1   C14 5636   2.626   3.301   5.419 -0.4026 -0.1441  0.1152
   61CHL1   H14 5637   2.729   3.282   5.382 -0.2054  0.4892  0.3270
   61CHL1   C15 5638   2.601   3.187   5.512 -0.2381  0.6549  0.4016
   61CHL1  H15A 5639   2.492   3.182   5.536  0.1792 -2.5637  2.2182
   61CHL1  H15B 5640   2.628   3.085   5.478 -1.6019  0.8256 -1.3699
   61CHL1   C16 5641   2.663   3.230   5.650  0.7772 -0.4953  0.4554
   61CHL1  H16A 5642   2.586   3.230   5.730  0.0551  0.2830 -0.2186
   61CHL1  H16B 5643   2.740   3.154   5.676 -0.6617 -2.4052 -0.6585
   61CHL1   C17 5644   2.724   3.377   5.629 -0.1677  0.3504 -0.1289
   61CHL1   H17 5645   2.830   3.368   5.597 -0.1740 -0.9437  0.1506
   61CHL1   C13 5646   2.639   3.426   5.505 -0.2868  0.0692 -0.8680
   61CHL1   C18 5647   2.498   3.467   5.550  0.3472  0.2177 -0.2598
   61CHL1  H18A 5648   2.413   3.459   5.479 -0.0600  0.2216  0.2246
   61CHL1  H18B 5649   2.469   3.410   5.640  0.6849  1.2132  0.4968
   61CHL1  H18C 5650   2.505   3.573   5.584  0.2514 -0.2961  1.4391
   61CHL1   C12 5651   2.705   3.529   5.410  0.9589 -0.4261 -0.1270
   61CHL1  H12A 5652   2.724   3.623   5.467  0.3751  0.0458 -0.7079
   61CHL1  H12B 5653   2.803   3.483   5.385  0.5501 -1.3585 -0.0556
   61CHL1   C11 5654   2.622   3.558   5.286  0.3230 -0.9783  0.2968
   61CHL1  H11A 5655   2.522   3.587   5.322 -0.5461 -2.2361 -0.9788
   61CHL1  H11B 5656   2.666   3.640   5.225 -0.6455 -0.3134  0.4743
   61CHL1    C9 5657   2.602   3.430   5.201  0.1144  0.5081 -0.7479
   61CHL1    H9 5658   2.707   3.407   5.173  0.6150  0.4863  1.0535
   61CHL1   C10 5659   2.535   3.441   5.063  0.0017 -0.6993 -0.2118
   61CHL1   C19 5660   2.393   3.498   5.081  0.1636  0.1768  0.1123
   61CHL1  H19A 5661   2.322   3.428   5.131  1.0156 -0.1525  0.8960
   61CHL1  H19B 5662   2.395   3.588   5.146 -1.6399  0.5610 -0.3271
   61CHL1  H19C 5663   2.341   3.539   4.992 -2.1619  3.0687  2.5804
   61CHL1    C1 5664   2.612   3.540   4.968  0.6047  0.6344  0.2649
   61CHL1   H1A 5665   2.597   3.643   5.007 -0.9533  0.1688  0.9739
   61CHL1   H1B 5666   2.722   3.527   4.961  0.2877 -1.7858 -1.7047
   61CHL1    C2 5667   2.553   3.532   4.824 -0.7106 -0.0825 -0.6608
   61CHL1   H2A 5668   2.623   3.595   4.765 -1.1674  0.6412 -0.4429
   61CHL1   H2B 5669   2.447   3.563   4.812 -1.0539 -1.4097 -1.2140
   61CHL1   C20 5670   2.727   3.462   5.759  0.3564  0.1678  0.0773
   61CHL1   H20 5671   2.625   3.474   5.800 -0.3409 -0.7910 -1.2805
   61CHL1   C21 5672   2.801   3.600   5.733  0.5745 -0.2099 -0.1004
   61CHL1  H21A 5673   2.898   3.583   5.681  1.1838  0.1192  0.8922
   61CHL1  H21B 5674   2.823   3.657   5.826  1.0980 -2.0820  1.0036
   61CHL1  H21C 5675   2.733   3.664   5.674  1.4694  0.7967 -0.0571
   61CHL1   C22 5676   2.796   3.381   5.875 -0.4785  0.2398 -0.8493
   61CHL1  H22A 5677   2.798   3.446   5.965  0.2313  0.4378 -1.0063
   61CHL1  H22B 5678   2.729   3.298   5.907 -1.4495  1.5594  0.7520
   61CHL1   C23 5679   2.941   3.331   5.851  0.2416 -0.0667 -0.3476
   61CHL1  H23A 5680   2.950   3.275   5.756  0.7653 -2.2659  0.9313
   61CHL1  H23B 5681   2.999   3.425   5.837  0.9779 -0.7119 -1.9038
   61CHL1   C24 5682   2.991   3.256   5.966 -0.8874  0.3511 -0.7031
   61CHL1  H24A 5683   2.993   3.323   6.054 -2.5686 -0.8631  0.3120
   61CHL1  H24B 5684   2.937   3.162   5.992  0.7249  0.2726  2.9810
   61CHL1   C25 5685   3.140   3.209   5.949  0.2179 -0.3698 -0.2183
   61CHL1   H25 5686   3.195   3.304   5.930  1.4883 -1.0893 -0.2928
   61CHL1   C26 5687   3.201   3.156   6.085 -0.5569  0.0587 -0.7924
   61CHL1  H26A 5688   3.191   3.230   6.168 -0.6405 -0.5922 -0.2115
   61CHL1  H26B 5689   3.147   3.065   6.121 -0.5370  0.0482 -0.7892
   61CHL1  H26C 5690   3.309   3.128   6.077 -0.4238  0.8975 -2.3191
   61CHL1   C27 5691   3.161   3.105   5.842 -0.9713 -0.3798  0.2418
   61CHL1  H27A 5692   3.098   3.014   5.852  2.1023 -2.7281 -0.3303
   61CHL1  H27B 5693   3.156   3.161   5.746 -2.7876  1.5118  1.3286
   61CHL1  H27C 5694   3.265   3.069   5.850 -0.7835 -0.0988 -0.8193
   62CHL1    C3 5695   3.939   1.331   5.057 -0.4615 -0.5720  0.5692
   62CHL1    H3 5696   4.034   1.376   5.091 -0.6012 -0.7980  1.2633
   62CHL1    O3 5697   3.921   1.352   4.919 -0.4073  0.5576  0.2585
   62CHL1   H3' 5698   3.828   1.335   4.904 -0.3271 -0.9826  1.2318
   62CHL1    C4 5699   3.933   1.179   5.080  0.3167 -0.5655  0.3037
   62CHL1   H4A 5700   3.833   1.146   5.046 -0.2461  1.1169  0.2142
   62CHL1   H4B 5701   4.014   1.136   5.017 -0.4675  0.9679 -1.8267
   62CHL1    C5 5702   3.932   1.143   5.229 -0.1497 -0.2575  0.2877
   62CHL1    C6 5703   4.021   1.052   5.275  0.4004 -0.2014 -0.6359
   62CHL1    H6 5704   4.094   1.006   5.206 -2.2274 -3.0658 -1.7304
   62CHL1    C7 5705   4.024   1.000   5.418  0.6031 -0.4139 -0.2059
   62CHL1   H7A 5706   4.009   0.890   5.426 -0.6498 -0.1174  4.4055
   62CHL1   H7B 5707   4.121   1.025   5.467  0.5009 -3.4786  1.8034
   62CHL1    C8 5708   3.905   1.061   5.508 -0.0775 -0.1537 -0.8942
   62CHL1    H8 5709   3.816   0.995   5.510 -0.9738  1.0370  0.4670
   62CHL1   C14 5710   3.946   1.054   5.656 -1.2599  0.2322 -0.4405
   62CHL1   H14 5711   4.036   1.119   5.665 -1.1186 -0.1963  1.7849
   62CHL1   C15 5712   3.992   0.921   5.723 -0.1920 -1.1587 -0.1214
   62CHL1  H15A 5713   3.927   0.833   5.701  0.4091 -1.3706 -1.1220
   62CHL1  H15B 5714   4.088   0.900   5.671 -1.2297  1.3506 -3.3592
   62CHL1   C16 5715   3.995   0.964   5.869 -0.7003 -0.1914 -0.1342
   62CHL1  H16A 5716   3.949   0.874   5.915 -0.8827  0.6292  1.3161
   62CHL1  H16B 5717   4.098   0.977   5.908 -0.5779 -0.8214 -0.2387
   62CHL1   C17 5718   3.918   1.094   5.887  0.0278 -0.6486 -0.6775
   62CHL1   H17 5719   3.989   1.179   5.892 -0.0229 -0.4030 -2.8904
   62CHL1   C13 5720   3.845   1.117   5.750  0.4941  0.0818 -0.3887
   62CHL1   C18 5721   3.712   1.039   5.755  0.0128 -0.3227  0.2961
   62CHL1  H18A 5722   3.725   0.934   5.788 -1.4886 -0.5038  0.3822
   62CHL1  H18B 5723   3.632   1.084   5.819 -0.6199  0.6393 -1.1103
   62CHL1  H18C 5724   3.674   1.020   5.653 -0.4286  0.8558  0.2176
   62CHL1   C12 5725   3.821   1.260   5.711  0.1051 -0.6178 -0.4785
   62CHL1  H12A 5726   3.745   1.309   5.775  1.1203 -1.1062  1.1563
   62CHL1  H12B 5727   3.912   1.319   5.734  0.9553 -2.5863  1.5828
   62CHL1   C11 5728   3.770   1.273   5.559 -0.3078  0.3503  0.5430
   62CHL1  H11A 5729   3.664   1.241   5.558 -1.0840  2.7879  0.5873
   62CHL1  H11B 5730   3.762   1.382   5.544  0.3391  0.3584  0.1723
   62CHL1    C9 5731   3.866   1.208   5.462 -0.2675  0.1652 -0.1338
   62CHL1    H9 5732   3.959   1.268   5.467 -0.5017  0.4315  1.4829
   62CHL1   C10 5733   3.821   1.219   5.314  0.0400 -0.2428  0.2261
   62CHL1   C19 5734   3.673   1.170   5.296 -0.1578 -0.2141 -0.0184
   62CHL1  H19A 5735   3.605   1.226   5.363  2.0036  1.9641  0.4705
   62CHL1  H19B 5736   3.638   1.181   5.191 -1.7537  0.3580  0.5382
   62CHL1  H19C 5737   3.658   1.065   5.329  0.9224  0.2220  2.0408
   62CHL1    C1 5738   3.832   1.376   5.275  0.2160 -0.9567 -0.3846
   62CHL1   H1A 5739   3.763   1.434   5.341 -2.6521 -2.1960 -2.1036
   62CHL1   H1B 5740   3.923   1.413   5.328  0.3124 -1.2875 -0.3167
   62CHL1    C2 5741   3.824   1.402   5.128  0.2425 -0.9124 -0.8534
   62CHL1   H2A 5742   3.838   1.510   5.109  3.5332 -1.3310 -1.3316
   62CHL1   H2B 5743   3.723   1.369   5.096 -0.2909  0.3283 -0.5354
   62CHL1   C20 5744   3.827   1.090   6.007  0.1325 -0.3891  0.9492
   62CHL1   H20 5745   3.745   1.015   6.000  0.6139 -0.8386 -0.0337
   62CHL1   C21 5746   3.753   1.222   6.027 -0.3768  0.3816 -0.3894
   62CHL1  H21A 5747   3.665   1.241   5.963 -1.2495  1.1901  1.0099
   62CHL1  H21B 5748   3.816   1.313   6.029  0.2049  0.0778  4.0278
   62CHL1  H21C 5749   3.697   1.223   6.123 -1.0609  0.6280 -0.7887
   62CHL1   C22 5750   3.899   1.057   6.141 -1.0755  0.5328  0.4387
   62CHL1  H22A 5751   3.822   1.050   6.221  0.8253 -2.8278  2.1345
   62CHL1  H22B 5752   3.941   0.955   6.129 -0.7158  0.8528 -1.3280
   62CHL1   C23 5753   4.011   1.150   6.189  0.5797 -0.6600  0.4443
   62CHL1  H23A 5754   4.089   1.155   6.109  0.6850  0.9665  0.6155
   62CHL1  H23B 5755   3.964   1.249   6.173  1.4909 -0.3094 -0.1365
   62CHL1   C24 5756   4.061   1.140   6.330  0.5212  0.2609 -0.7418
   62CHL1  H24A 5757   4.092   1.035   6.351  1.3542 -0.3809 -4.4613
   62CHL1  H24B 5758   4.145   1.210   6.352 -0.8091  1.2805  1.3681
   62CHL1   C25 5759   3.959   1.172   6.443  0.2683 -0.7315  0.0887
   62CHL1   H25 5760   3.874   1.103   6.428 -0.0013 -0.1299 -1.3359
   62CHL1   C26 5761   4.005   1.132   6.583 -0.3205 -0.7828  0.2471
   62CHL1  H26A 5762   3.924   1.144   6.658 -2.4343 -1.6366 -1.8112
   62CHL1  H26B 5763   4.027   1.023   6.582  0.5696 -0.6220  0.8571
   62CHL1  H26C 5764   4.090   1.196   6.615 -0.7844  0.1553 -0.3470
   62CHL1   C27 5765   3.902   1.311   6.436  0.1906  0.1663 -0.0476
   62CHL1  H27A 5766   3.849   1.339   6.343 -1.6340  0.3767  1.0029
   62CHL1  H27B 5767   3.838   1.334   6.524  0.4580  1.2133 -0.1060
   62CHL1  H27C 5768   3.988   1.381   6.445 -0.2747  0.7031  0.2819
   63CHL1    C3 5769   4.508   1.234   5.297 -0.4052 -0.8850  0.1644
   63CHL1    H3 5770   4.509   1.144   5.362  0.3031 -1.3220 -0.4420
   63CHL1    O3 5771   4.516   1.195   5.163 -0.5925 -0.0427 -0.0265
   63CHL1   H3' 5772   4.603   1.221   5.134 -0.9085  0.2059 -0.7766
   63CHL1    C4 5773   4.376   1.314   5.317 -0.1792  0.4198 -0.5762
   63CHL1   H4A 5774   4.381   1.404   5.252 -1.9951  1.1194  0.1917
   63CHL1   H4B 5775   4.299   1.243   5.280  0.9507 -1.0925 -0.1202
   63CHL1    C5 5776   4.359   1.349   5.458  0.2857 -0.1969 -0.4888
   63CHL1    C6 5777   4.248   1.307   5.520 -0.0579 -0.0671  0.0068
   63CHL1    H6 5778   4.177   1.244   5.464  1.5247 -2.1853  0.2508
   63CHL1    C7 5779   4.220   1.336   5.665 -0.2824  0.2046  0.0733
   63CHL1   H7A 5780   4.117   1.376   5.671 -0.1403  0.3987  1.6887
   63CHL1   H7B 5781   4.225   1.239   5.720 -0.3951 -0.8350 -1.6867
   63CHL1    C8 5782   4.320   1.434   5.726 -0.3212 -0.0548 -0.2496
   63CHL1    H8 5783   4.297   1.540   5.705  2.3256  0.7879  0.7120
   63CHL1   C14 5784   4.311   1.410   5.882 -0.4482  0.0401  0.4670
   63CHL1   H14 5785   4.339   1.306   5.911  0.5000  0.8911  2.8053
   63CHL1   C15 5786   4.172   1.432   5.951 -0.6311  0.3573  0.0469
   63CHL1  H15A 5787   4.114   1.522   5.920  1.2434  1.5256 -0.2179
   63CHL1  H15B 5788   4.115   1.337   5.940 -0.2380  0.1795 -0.4902
   63CHL1   C16 5789   4.207   1.454   6.103 -0.0421 -0.9229 -0.2802
   63CHL1  H16A 5790   4.155   1.545   6.141 -0.1089 -0.2636 -1.8727
   63CHL1  H16B 5791   4.179   1.370   6.169 -2.7111  1.1141  1.4028
   63CHL1   C17 5792   4.367   1.473   6.105 -0.0789 -0.5370 -0.3364
   63CHL1   H17 5793   4.408   1.374   6.135  2.1385  0.5735  0.5432
   63CHL1   C13 5794   4.408   1.500   5.964  0.2914  0.2798  0.1124
   63CHL1   C18 5795   4.372   1.649   5.941 -0.7311  0.3710  0.0018
   63CHL1  H18A 5796   4.270   1.678   5.974 -1.1500 -0.7141 -0.3093
   63CHL1  H18B 5797   4.445   1.703   6.005 -2.5338 -1.8583  4.3922
   63CHL1  H18C 5798   4.385   1.683   5.836 -0.0060  0.8586  0.2415
   63CHL1   C12 5799   4.551   1.457   5.923 -0.4594  0.3131  0.0905
   63CHL1  H12A 5800   4.636   1.518   5.960  0.7484 -1.0105 -0.4266
   63CHL1  H12B 5801   4.563   1.349   5.947  1.0269 -0.0242 -1.8654
   63CHL1   C11 5802   4.563   1.475   5.769 -1.2573 -0.0614  0.2630
   63CHL1  H11A 5803   4.569   1.584   5.752 -3.1307  0.0434  0.0470
   63CHL1  H11B 5804   4.667   1.444   5.746 -1.4536 -1.1093  0.7239
   63CHL1    C9 5805   4.460   1.409   5.678 -0.5349 -0.1259  0.0488
   63CHL1    H9 5806   4.480   1.302   5.701  0.3620  0.3120  1.4248
   63CHL1   C10 5807   4.479   1.422   5.526  0.1321 -0.2054  0.4466
   63CHL1   C19 5808   4.470   1.567   5.483 -0.4401 -0.2349  0.4859
   63CHL1  H19A 5809   4.541   1.630   5.541 -0.9578  0.7468  0.0821
   63CHL1  H19B 5810   4.502   1.584   5.377 -1.9058 -0.2257  0.0214
   63CHL1  H19C 5811   4.371   1.610   5.509 -0.4470 -0.2726  0.5203
   63CHL1    C1 5812   4.617   1.349   5.486 -0.8674  0.1507 -0.8464
   63CHL1   H1A 5813   4.686   1.432   5.513 -3.0888  1.4028  1.5166
   63CHL1   H1B 5814   4.631   1.262   5.554 -2.5109  2.1721  2.3531
   63CHL1    C2 5815   4.630   1.324   5.340 -0.0739  0.0370 -0.6075
   63CHL1   H2A 5816   4.722   1.268   5.315 -0.0520 -0.5904  0.7816
   63CHL1   H2B 5817   4.621   1.413   5.275  0.3913 -1.1006 -2.2754
   63CHL1   C20 5818   4.405   1.574   6.220  0.4851  0.3475  1.1838
   63CHL1   H20 5819   4.371   1.674   6.187  0.0743 -0.7368 -1.9784
   63CHL1   C21 5820   4.557   1.587   6.215 -0.2535  0.1420 -0.4456
   63CHL1  H21A 5821   4.609   1.490   6.224 -0.8572 -0.1223  0.2395
   63CHL1  H21B 5822   4.587   1.649   6.302 -2.4480  1.0936 -0.2881
   63CHL1  H21C 5823   4.594   1.635   6.121 -0.8715 -0.1724 -0.8563
   63CHL1   C22 5824   4.357   1.540   6.359  0.2135 -0.1150  0.2327
   63CHL1  H22A 5825   4.389   1.629   6.417  1.6892 -1.2707  1.2844
   63CHL1  H22B 5826   4.246   1.533   6.359  0.2516 -0.8512  0.4470
   63CHL1   C23 5827   4.398   1.405   6.421 -0.2600 -0.4710  1.0898
   63CHL1  H23A 5828   4.371   1.318   6.358 -0.5500  0.4589 -0.0938
   63CHL1  H23B 5829   4.508   1.415   6.433  0.3608 -2.4130 -1.9610
   63CHL1   C24 5830   4.333   1.391   6.562 -0.0777 -0.3489 -0.6851
   63CHL1  H24A 5831   4.302   1.489   6.604  3.6825  0.6622  0.0565
   63CHL1  H24B 5832   4.245   1.322   6.558 -0.2818 -0.1685  0.3667
   63CHL1   C25 5833   4.421   1.337   6.672  0.3500  0.5236 -0.4573
   63CHL1   H25 5834   4.505   1.409   6.683  1.2583 -0.1798 -2.2499
   63CHL1   C26 5835   4.342   1.337   6.803 -0.7161  0.1723  0.4985
   63CHL1  H26A 5836   4.408   1.300   6.885 -0.9280 -1.0439  0.1519
   63CHL1  H26B 5837   4.313   1.441   6.827  2.3947  1.5231 -1.1379
   63CHL1  H26C 5838   4.255   1.267   6.805  1.6236 -3.0228 -0.2190
   63CHL1   C27 5839   4.473   1.202   6.639  0.4027 -0.0791  0.6214
   63CHL1  H27A 5840   4.530   1.211   6.543 -0.3921  1.5197  0.2541
   63CHL1  H27B 5841   4.555   1.166   6.705  1.8351 -0.6053 -1.3372
   63CHL1  H27C 5842   4.392   1.127   6.637  0.3132 -0.1086  3.1336
   64CHL1    C3 5843   5.731   6.031   5.465  0.2416  0.1439 -0.3702
   64CHL1    H3 5844   5.759   5.925   5.482 -1.5672 -0.5495 -1.4305
   64CHL1    O3 5845   5.703   6.028   5.328  0.0420 -0.2079 -0.6094
   64CHL1   H3' 5846   5.627   5.970   5.328  0.5547 -0.8981 -0.9983
   64CHL1    C4 5847   5.618   6.074   5.565 -0.1581 -0.1476  0.9283
   64CHL1   H4A 5848   5.577   6.170   5.528  1.2944  0.3636  0.5936
   64CHL1   H4B 5849   5.533   6.004   5.548 -2.5375  2.9014 -0.7429
   64CHL1    C5 5850   5.668   6.075   5.708  0.0439  0.5208  0.1685
   64CHL1    C6 5851   5.603   6.006   5.805 -0.9898 -0.6713  0.1630
   64CHL1    H6 5852   5.524   5.935   5.778 -0.7977 -1.4842  1.6491
   64CHL1    C7 5853   5.639   6.020   5.952  0.3365 -0.4371  0.3435
   64CHL1   H7A 5854   5.541   6.026   6.002 -0.2046  1.6870 -0.8180
   64CHL1   H7B 5855   5.699   5.930   5.975  1.7907  0.5408  0.5562
   64CHL1    C8 5856   5.727   6.136   5.984 -0.6107 -0.1160  0.2553
   64CHL1    H8 5857   5.665   6.228   5.983 -0.4730 -0.0094  1.1689
   64CHL1   C14 5858   5.791   6.130   6.124  0.7788 -0.1018  0.1532
   64CHL1   H14 5859   5.861   6.044   6.118 -0.0385 -0.7675 -0.0439
   64CHL1   C15 5860   5.696   6.083   6.228 -1.1325 -0.3798 -0.0783
   64CHL1  H15A 5861   5.599   6.137   6.219 -0.6269  0.4643 -0.4954
   64CHL1  H15B 5862   5.671   5.976   6.249 -0.3855 -0.2849  1.4259
   64CHL1   C16 5863   5.756   6.153   6.355 -0.0893  0.2018  0.0791
   64CHL1  H16A 5864   5.682   6.216   6.409 -1.5447 -2.3537  1.2830
   64CHL1  H16B 5865   5.787   6.073   6.426  0.0571  0.7853  0.6874
   64CHL1   C17 5866   5.890   6.229   6.315  0.2482 -0.4549 -0.0600
   64CHL1   H17 5867   5.974   6.156   6.313  1.5997  1.0320  0.6455
   64CHL1   C13 5868   5.865   6.261   6.166 -0.3991  0.5983  0.2621
   64CHL1   C18 5869   5.780   6.393   6.157 -0.0189  0.1967  0.2511
   64CHL1  H18A 5870   5.849   6.478   6.177  0.6154  0.0859 -1.3511
   64CHL1  H18B 5871   5.753   6.419   6.053  2.3927  3.4586  0.2754
   64CHL1  H18C 5872   5.694   6.396   6.227  1.2507  1.4437  1.8646
   64CHL1   C12 5873   5.981   6.275   6.069  0.9724 -0.0258  0.3301
   64CHL1  H12A 5874   6.019   6.376   6.093 -2.8014  0.8896  3.2107
   64CHL1  H12B 5875   6.049   6.191   6.097 -1.8840 -2.3044  0.8816
   64CHL1   C11 5876   5.942   6.267   5.918 -0.6483 -0.5552  0.5370
   64CHL1  H11A 5877   5.900   6.368   5.900  1.2555  0.7801  2.9177
   64CHL1  H11B 5878   6.036   6.254   5.862 -0.2764 -0.4095  1.1195
   64CHL1    C9 5879   5.843   6.153   5.883  0.1667 -0.2941  0.0749
   64CHL1    H9 5880   5.893   6.054   5.893  1.7401  0.1422 -2.4795
   64CHL1   C10 5881   5.793   6.163   5.739 -0.4374 -0.3224 -0.2187
   64CHL1   C19 5882   5.764   6.307   5.702  0.3052 -0.3546  0.0644
   64CHL1  H19A 5883   5.692   6.350   5.775  0.3833 -0.9415  0.4937
   64CHL1  H19B 5884   5.857   6.367   5.702  0.6816 -0.8655 -1.9376
   64CHL1  H19C 5885   5.714   6.324   5.605  0.0943  0.8419  0.3567
   64CHL1    C1 5886   5.905   6.119   5.641 -0.1059  0.0583  0.1645
   64CHL1   H1A 5887   6.001   6.174   5.650  0.9448 -1.5150 -0.8996
   64CHL1   H1B 5888   5.929   6.013   5.667 -0.9598  0.1327  1.3490
   64CHL1    C2 5889   5.852   6.126   5.496 -0.4975 -0.0561  0.0521
   64CHL1   H2A 5890   5.940   6.088   5.440 -0.3008  0.5609 -0.0639
   64CHL1   H2B 5891   5.839   6.232   5.465  2.1878 -0.2252 -2.0162
   64CHL1   C20 5892   5.928   6.334   6.425  0.3969  0.0533 -0.1184
   64CHL1   H20 5893   5.878   6.433   6.415  1.9675  0.8411 -0.4590
   64CHL1   C21 5894   6.075   6.369   6.394  0.2484  0.7189  0.0881
   64CHL1  H21A 5895   6.085   6.408   6.290 -0.9834 -2.8957 -1.5546
   64CHL1  H21B 5896   6.156   6.293   6.406  0.1549  0.2670 -1.8101
   64CHL1  H21C 5897   6.101   6.448   6.468  0.6551 -0.9783  1.8534
   64CHL1   C22 5898   5.904   6.270   6.568 -0.3225 -0.4350 -0.7100
   64CHL1  H22A 5899   5.795   6.250   6.584 -0.9550  2.4723 -0.9251
   64CHL1  H22B 5900   5.964   6.179   6.589  0.4402  0.6926  2.3691
   64CHL1   C23 5901   5.947   6.370   6.679 -0.7764 -0.1292 -0.3527
   64CHL1  H23A 5902   6.055   6.348   6.689 -1.0487 -1.5513 -0.3769
   64CHL1  H23B 5903   5.928   6.476   6.649 -1.2094  0.3250  1.4249
   64CHL1   C24 5904   5.877   6.351   6.816 -0.6022  0.1414 -0.3894
   64CHL1  H24A 5905   5.890   6.440   6.880 -1.2820 -0.0735  0.0700
   64CHL1  H24B 5906   5.768   6.372   6.805 -0.4690  1.5707  0.7991
   64CHL1   C25 5907   5.911   6.213   6.887 -0.1795  0.2741  0.1370
   64CHL1   H25 5908   5.841   6.139   6.842 -0.5870  0.5507  0.3058
   64CHL1   C26 5909   6.058   6.173   6.874  0.1645  1.4280  0.1079
   64CHL1  H26A 5910   6.120   6.264   6.882  1.3590  0.6819 -0.3695
   64CHL1  H26B 5911   6.089   6.101   6.953  0.8616  0.3496 -1.1060
   64CHL1  H26C 5912   6.077   6.133   6.772 -2.3583  1.8418 -0.5959
   64CHL1   C27 5913   5.872   6.215   7.035 -0.1684 -0.3399  0.2953
   64CHL1  H27A 5914   5.902   6.313   7.078 -1.3413 -0.1611  0.7377
   64CHL1  H27B 5915   5.761   6.213   7.049 -0.3203  1.5000 -0.4644
   64CHL1  H27C 5916   5.904   6.133   7.103 -2.3586 -2.0296 -0.5792
   65CHL1    C3 5917   5.720   4.332   5.022  0.2878  0.2865 -0.2992
   65CHL1    H3 5918   5.674   4.427   5.056 -0.8992 -0.2839 -0.2623
   65CHL1    O3 5919   5.762   4.343   4.890 -0.4094  0.3263 -0.6649
   65CHL1   H3' 5920   5.684   4.348   4.833 -0.5764  2.3855 -0.3136
   65CHL1    C4 5921   5.839   4.297   5.109 -0.0539 -0.2317 -0.0149
   65CHL1   H4A 5922   5.888   4.204   5.074  0.3120  0.6737 -2.0820
   65CHL1   H4B 5923   5.917   4.374   5.093  1.1203 -1.3012  0.4539
   65CHL1    C5 5924   5.804   4.275   5.251 -0.4426 -0.2227 -0.1650
   65CHL1    C6 5925   5.865   4.342   5.349  0.2452 -0.0531 -0.7998
   65CHL1    H6 5926   5.945   4.413   5.323 -0.2133  0.5442 -0.6165
   65CHL1    C7 5927   5.841   4.325   5.499 -0.0657 -0.0156  0.6161
   65CHL1   H7A 5928   5.940   4.333   5.550  0.8895 -1.6750 -0.9002
   65CHL1   H7B 5929   5.774   4.402   5.545 -3.7332 -2.4900 -0.1500
   65CHL1    C8 5930   5.775   4.187   5.522 -0.1335 -0.0205 -0.2290
   65CHL1    H8 5931   5.853   4.108   5.512  3.3813  2.9290  1.6454
   65CHL1   C14 5932   5.722   4.172   5.664 -0.0287  0.0370 -0.4083
   65CHL1   H14 5933   5.646   4.251   5.681 -0.8549 -0.6006 -1.0573
   65CHL1   C15 5934   5.827   4.188   5.776 -0.6447 -0.1544  0.4041
   65CHL1  H15A 5935   5.912   4.126   5.738 -1.3329 -1.1459  0.4396
   65CHL1  H15B 5936   5.860   4.291   5.802  0.2616 -0.3335  0.0248
   65CHL1   C16 5937   5.764   4.128   5.895 -0.6669  0.3690 -0.2048
   65CHL1  H16A 5938   5.833   4.045   5.919 -0.8787  0.9290  2.6687
   65CHL1  H16B 5939   5.756   4.196   5.982 -1.6380  2.3241 -1.7136
   65CHL1   C17 5940   5.629   4.070   5.848 -1.0586  0.4339 -0.8695
   65CHL1   H17 5941   5.554   4.152   5.853 -1.5272  0.0203 -1.1140
   65CHL1   C13 5942   5.651   4.043   5.701 -0.3748  0.1147  0.1226
   65CHL1   C18 5943   5.739   3.916   5.674 -0.3910  0.5400 -0.8425
   65CHL1  H18A 5944   5.682   3.823   5.691  0.7748 -0.4747 -2.3008
   65CHL1  H18B 5945   5.763   3.905   5.566 -1.4993  0.8163 -1.1323
   65CHL1  H18C 5946   5.831   3.918   5.737 -1.2495 -1.7590  0.5948
   65CHL1   C12 5947   5.528   4.033   5.610  0.2188 -0.1034  0.3490
   65CHL1  H12A 5948   5.472   3.945   5.647 -0.3253  0.0205 -0.1701
   65CHL1  H12B 5949   5.468   4.125   5.627  0.3791  0.2222 -0.7291
   65CHL1   C11 5950   5.565   4.041   5.458  0.0741 -0.5465  0.5492
   65CHL1  H11A 5951   5.605   3.942   5.428  0.3691 -0.2080 -0.2310
   65CHL1  H11B 5952   5.470   4.050   5.402  1.1673 -0.6908 -1.4464
   65CHL1    C9 5953   5.666   4.155   5.427  0.4526  0.1901  0.7975
   65CHL1    H9 5954   5.613   4.250   5.446  1.7125  0.9521  0.6214
   65CHL1   C10 5955   5.704   4.161   5.274 -0.1981  0.6261 -0.1356
   65CHL1   C19 5956   5.752   4.020   5.231  0.0669 -0.2539  0.0096
   65CHL1  H19A 5957   5.668   3.948   5.243 -1.7657  1.8406  0.4782
   65CHL1  H19B 5958   5.777   4.031   5.124 -2.4941  0.8286 -0.5625
   65CHL1  H19C 5959   5.841   3.990   5.291 -1.4773 -1.1074  1.9895
   65CHL1    C1 5960   5.575   4.188   5.188  0.0458  0.9471  0.5918
   65CHL1   H1A 5961   5.509   4.098   5.195  0.0838  0.9575  1.1243
   65CHL1   H1B 5962   5.530   4.281   5.228 -1.0505  0.8445 -0.3414
   65CHL1    C2 5963   5.610   4.223   5.040  0.3079  0.1401  0.2374
   65CHL1   H2A 5964   5.525   4.271   4.988  0.9224  0.7931 -0.1724
   65CHL1   H2B 5965   5.630   4.138   4.971  0.4485  1.7054 -1.7297
   65CHL1   C20 5966   5.599   3.952   5.948 -0.4765 -0.5018  0.2900
   65CHL1   H20 5967   5.682   3.879   5.954  0.2287  0.1190 -1.3671
   65CHL1   C21 5968   5.468   3.884   5.906  0.4535  0.2973  1.1155
   65CHL1  H21A 5969   5.469   3.823   5.813 -0.6038 -1.1320  2.0184
   65CHL1  H21B 5970   5.392   3.965   5.897 -1.5872 -1.5813  0.7401
   65CHL1  H21C 5971   5.441   3.814   5.987 -0.0477 -0.4652  0.3070
   65CHL1   C22 5972   5.597   3.997   6.096  0.6117 -0.0832 -0.4397
   65CHL1  H22A 5973   5.587   3.906   6.159 -0.5187 -0.8088 -1.6272
   65CHL1  H22B 5974   5.687   4.053   6.131  0.0557 -0.3807  1.5939
   65CHL1   C23 5975   5.470   4.078   6.137  0.4606 -0.1794  0.9520
   65CHL1  H23A 5976   5.458   4.156   6.058  0.1423 -0.3785  0.8033
   65CHL1  H23B 5977   5.379   4.014   6.133 -0.1143  0.6141  0.9269
   65CHL1   C24 5978   5.462   4.141   6.280  0.4046 -0.1393  0.1868
   65CHL1  H24A 5979   5.554   4.201   6.296 -0.3560  1.0500  0.2137
   65CHL1  H24B 5980   5.366   4.196   6.285 -0.2401 -1.2687  4.0172
   65CHL1   C25 5981   5.465   4.031   6.395 -0.1416 -0.5130  0.0847
   65CHL1   H25 5982   5.543   3.961   6.356 -0.9956 -0.0558 -2.6976
   65CHL1   C26 5983   5.536   4.086   6.524 -0.9235 -0.0344  0.0695
   65CHL1  H26A 5984   5.640   4.122   6.505 -1.7403  0.9806 -3.0837
   65CHL1  H26B 5985   5.479   4.170   6.570  0.9027  0.0892  2.2773
   65CHL1  H26C 5986   5.537   4.010   6.605  0.6482 -2.2307 -1.8796
   65CHL1   C27 5987   5.336   3.957   6.426 -0.2740 -0.5358 -0.1112
   65CHL1  H27A 5988   5.349   3.890   6.514  0.0527  1.2469  1.2565
   65CHL1  H27B 5989   5.258   4.031   6.456 -0.9136 -1.4410  0.5106
   65CHL1  H27C 5990   5.297   3.897   6.341 -1.5966  1.4352 -0.9719
   66CHL1    C3 5991   4.803   1.039   5.714  0.6317  0.0434  0.0863
   66CHL1    H3 5992   4.695   1.067   5.723  0.3742 -0.6766 -0.6039
   66CHL1    O3 5993   4.834   1.033   5.573  0.8944 -0.3399 -0.1883
   66CHL1   H3' 5994   4.923   0.998   5.569  0.4453 -1.8882  1.7421
   66CHL1    C4 5995   4.890   1.146   5.773 -0.1784 -0.0994  0.3224
   66CHL1   H4A 5996   4.997   1.119   5.764  0.5175  2.6073 -0.5003
   66CHL1   H4B 5997   4.880   1.249   5.732 -0.2965 -0.7852 -1.4339
   66CHL1    C5 5998   4.867   1.153   5.920 -0.7085 -0.1675 -0.8394
   66CHL1    C6 5999   4.819   1.262   5.983  0.7740 -0.1582 -0.3516
   66CHL1    H6 6000   4.805   1.352   5.921  0.2269  0.5517  0.7746
   66CHL1    C7 6001   4.803   1.267   6.132 -0.0815 -0.1023 -0.4146
   66CHL1   H7A 6002   4.850   1.361   6.166 -1.3542 -0.4750  2.6776
   66CHL1   H7B 6003   4.695   1.271   6.157 -0.3855  2.0378 -1.8084
   66CHL1    C8 6004   4.873   1.157   6.221  0.8176  0.0355  0.4471
   66CHL1    H8 6005   4.983   1.163   6.207  0.5777 -0.9890 -2.7780
   66CHL1   C14 6006   4.830   1.165   6.372 -0.4397  0.3776 -0.2667
   66CHL1   H14 6007   4.721   1.141   6.370 -0.5130  0.5818  0.9221
   66CHL1   C15 6008   4.852   1.297   6.448 -0.3540 -0.7246  0.3190
   66CHL1  H15A 6009   4.951   1.342   6.424 -1.3113  1.0458 -0.5538
   66CHL1  H15B 6010   4.768   1.360   6.411 -0.4999 -0.5380  0.9621
   66CHL1   C16 6011   4.836   1.264   6.592 -0.6743  0.5687  0.4394
   66CHL1  H16A 6012   4.918   1.300   6.658  0.4165 -1.2535  0.1599
   66CHL1  H16B 6013   4.742   1.306   6.634 -2.0641 -1.6389 -0.2561
   66CHL1   C17 6014   4.844   1.109   6.600 -0.3339  0.7042  0.1611
   66CHL1   H17 6015   4.738   1.075   6.602 -0.5886  1.5030  0.5444
   66CHL1   C13 6016   4.902   1.067   6.461  0.1659 -0.1069  0.3555
   66CHL1   C18 6017   5.051   1.087   6.464 -0.2469 -0.5078  0.5436
   66CHL1  H18A 6018   5.099   1.088   6.364  0.9500  2.0156  1.0817
   66CHL1  H18B 6019   5.072   1.185   6.512  0.8491 -0.1092 -0.7137
   66CHL1  H18C 6020   5.099   1.019   6.537  0.8100  1.4694  1.7797
   66CHL1   C12 6021   4.878   0.920   6.405  0.8725 -0.4852 -0.5190
   66CHL1  H12A 6022   4.962   0.864   6.451  0.0655 -0.6389  0.8228
   66CHL1  H12B 6023   4.778   0.887   6.442  0.7539  1.1082  0.6483
   66CHL1   C11 6024   4.897   0.902   6.253  0.0466  0.0098 -0.9452
   66CHL1  H11A 6025   5.007   0.898   6.238  0.2951  0.7088  0.5223
   66CHL1  H11B 6026   4.855   0.802   6.229 -1.0093 -0.1017  1.1652
   66CHL1    C9 6027   4.843   1.018   6.158 -0.0970 -0.4292  0.4489
   66CHL1    H9 6028   4.732   1.011   6.150  0.0079 -1.6562 -0.3354
   66CHL1   C10 6029   4.890   1.017   6.001  0.6910 -0.8579  0.2924
   66CHL1   C19 6030   5.044   0.995   6.001 -0.1711  0.4000 -0.1611
   66CHL1  H19A 6031   5.093   0.977   5.903  0.2269  0.5115  0.0175
   66CHL1  H19B 6032   5.093   1.084   6.044  0.3084 -0.1259  0.3954
   66CHL1  H19C 6033   5.064   0.902   6.058  1.7380  2.1467  2.1711
   66CHL1    C1 6034   4.809   0.903   5.926 -0.0302 -0.9239 -0.2433
   66CHL1   H1A 6035   4.812   0.809   5.985  0.8875 -0.0704  1.1394
   66CHL1   H1B 6036   4.703   0.936   5.931 -0.0518 -0.1836 -3.4393
   66CHL1    C2 6037   4.826   0.902   5.773  0.1516  0.8714 -0.7542
   66CHL1   H2A 6038   4.744   0.842   5.729 -1.0467  0.5063  1.8068
   66CHL1   H2B 6039   4.933   0.875   5.755 -0.2231 -0.7508 -0.7040
   66CHL1   C20 6040   4.918   1.057   6.723  0.0194  0.0594 -0.5929
   66CHL1   H20 6041   5.026   1.079   6.708  0.1670 -0.8745 -0.9286
   66CHL1   C21 6042   4.892   0.908   6.736 -0.4812 -0.0071 -0.5312
   66CHL1  H21A 6043   4.944   0.872   6.827 -1.3968 -1.8458 -0.6891
   66CHL1  H21B 6044   4.933   0.840   6.659 -2.4039 -2.1887  0.2682
   66CHL1  H21C 6045   4.783   0.885   6.737 -0.1328 -1.9065 -1.4753
   66CHL1   C22 6046   4.875   1.119   6.862  0.2196 -0.3716  0.3117
   66CHL1  H22A 6047   4.874   1.229   6.851  2.7756 -0.3568 -0.4358
   66CHL1  H22B 6048   4.770   1.086   6.879 -0.5502  2.1960  0.9957
   66CHL1   C23 6049   4.965   1.102   6.981 -0.1837  0.7937 -0.1343
   66CHL1  H23A 6050   4.944   0.997   7.013 -0.5703  0.8398 -0.2355
   66CHL1  H23B 6051   5.074   1.109   6.959  0.7123 -1.2120  2.9553
   66CHL1   C24 6052   4.956   1.216   7.081  0.3413  0.0110  0.3858
   66CHL1  H24A 6053   5.031   1.223   7.163 -1.6740  1.3694  2.2239
   66CHL1  H24B 6054   4.969   1.315   7.031 -1.2017  0.6767  1.2307
   66CHL1   C25 6055   4.818   1.229   7.146 -0.0533  0.3516 -0.7553
   66CHL1   H25 6056   4.750   1.249   7.061 -0.5702  1.6203 -0.0684
   66CHL1   C26 6057   4.769   1.101   7.218 -0.5495  0.1183 -0.2743
   66CHL1  H26A 6058   4.732   1.031   7.140 -1.2884 -0.1345  0.2945
   66CHL1  H26B 6059   4.847   1.056   7.282 -0.4166  3.3638  2.0970
   66CHL1  H26C 6060   4.675   1.127   7.272  0.3263  0.9781  0.8801
   66CHL1   C27 6061   4.809   1.348   7.243  0.2825  0.3602  0.0569
   66CHL1  H27A 6062   4.709   1.369   7.287  1.1613  1.4309  1.6345
   66CHL1  H27B 6063   4.848   1.441   7.195  0.2928 -0.4613 -1.6263
   66CHL1  H27C 6064   4.887   1.337   7.320  0.8627 -4.4087 -0.9327
   67CHL1    C3 6065   4.284   6.244   5.605  0.0238 -0.6513 -0.1155
   67CHL1    H3 6066   4.277   6.352   5.630  1.3857 -0.9958  1.9653
   67CHL1    O3 6067   4.301   6.242   5.464  0.2648 -0.0913 -0.5752
   67CHL1   H3' 6068   4.325   6.150   5.450 -2.3190 -0.7389 -1.2861
   67CHL1    C4 6069   4.412   6.193   5.678  0.1834  0.1526  0.9435
   67CHL1   H4A 6070   4.448   6.093   5.645 -0.9055  0.0575 -0.0648
   67CHL1   H4B 6071   4.494   6.262   5.649 -0.6951  1.1470  0.7512
   67CHL1    C5 6072   4.385   6.192   5.828 -0.1485  1.0641  0.1811
   67CHL1    C6 6073   4.449   6.268   5.913  0.8301 -0.4280 -0.0731
   67CHL1    H6 6074   4.538   6.325   5.883  0.5397 -0.4116 -0.9563
   67CHL1    C7 6075   4.419   6.274   6.059  0.5855  0.3787  0.1764
   67CHL1   H7A 6076   4.523   6.286   6.097  0.1358 -0.3876  1.7528
   67CHL1   H7B 6077   4.360   6.364   6.086  0.7809 -0.2614  3.1345
   67CHL1    C8 6078   4.339   6.144   6.101 -0.2225 -1.2313  0.1852
   67CHL1    H8 6079   4.405   6.055   6.091  0.0152 -0.9512 -0.7552
   67CHL1   C14 6080   4.298   6.172   6.244  0.1391 -0.2360 -0.0102
   67CHL1   H14 6081   4.229   6.259   6.238  0.7133  0.3763  1.6384
   67CHL1   C15 6082   4.406   6.208   6.349  0.1683 -0.1416  0.2206
   67CHL1  H15A 6083   4.500   6.157   6.319 -1.4217 -1.3189 -3.2777
   67CHL1  H15B 6084   4.434   6.316   6.349 -1.0127  0.1759  0.8928
   67CHL1   C16 6085   4.344   6.169   6.477  0.0055  0.1233 -0.5065
   67CHL1  H16A 6086   4.417   6.094   6.517 -0.1859 -0.7949 -1.8228
   67CHL1  H16B 6087   4.345   6.252   6.551 -0.0701 -0.3494  0.0342
   67CHL1   C17 6088   4.199   6.113   6.463 -0.3681  0.1614 -0.1336
   67CHL1   H17 6089   4.131   6.201   6.461 -0.3950  0.2155  1.6016
   67CHL1   C13 6090   4.202   6.062   6.315 -0.3309 -0.3388  0.0906
   67CHL1   C18 6091   4.279   5.934   6.319 -0.2358  0.3472 -0.1907
   67CHL1  H18A 6092   4.299   5.895   6.217  1.9037  0.5839  0.0976
   67CHL1  H18B 6093   4.381   5.943   6.362 -0.6786  3.4359  0.4359
   67CHL1  H18C 6094   4.211   5.856   6.362 -0.0917 -0.7098 -1.8018
   67CHL1   C12 6095   4.071   6.057   6.235 -0.4630 -0.0836  1.0588
   67CHL1  H12A 6096   4.023   5.962   6.265 -0.2279 -1.0368 -1.3565
   67CHL1  H12B 6097   4.008   6.147   6.255 -1.0429  0.0638 -1.2048
   67CHL1   C11 6098   4.096   6.032   6.083 -0.2160 -0.7420  0.2088
   67CHL1  H11A 6099   4.131   5.927   6.069 -0.4963 -0.8640  0.4119
   67CHL1  H11B 6100   4.006   6.048   6.019  0.0867 -0.2301 -0.0885
   67CHL1    C9 6101   4.207   6.125   6.013 -0.1993  0.1337 -0.6398
   67CHL1    H9 6102   4.165   6.227   6.027  1.9302  0.7308  2.3589
   67CHL1   C10 6103   4.256   6.109   5.869 -0.2894 -0.2149  0.0127
   67CHL1   C19 6104   4.271   5.954   5.846  0.0749 -0.2319 -0.4880
   67CHL1  H19A 6105   4.170   5.909   5.839 -0.5598  0.6121  2.2054
   67CHL1  H19B 6106   4.323   5.937   5.749 -0.4168 -0.6826 -0.6779
   67CHL1  H19C 6107   4.320   5.903   5.932 -2.4243 -1.1380  0.4926
   67CHL1    C1 6108   4.126   6.158   5.787  0.2754 -0.0582  0.0265
   67CHL1   H1A 6109   4.031   6.100   5.794  0.2572 -0.3488 -2.0546
   67CHL1   H1B 6110   4.096   6.260   5.820 -2.0383 -0.6396 -0.0721
   67CHL1    C2 6111   4.156   6.164   5.637  0.1274 -0.2408  0.2955
   67CHL1   H2A 6112   4.075   6.216   5.582  3.0338  2.1080 -2.1007
   67CHL1   H2B 6113   4.170   6.063   5.592 -0.6418  0.7624 -2.3938
   67CHL1   C20 6114   4.150   6.012   6.572  0.2721 -0.4784  0.2512
   67CHL1   H20 6115   4.189   5.908   6.558  2.9409  0.3440  0.9474
   67CHL1   C21 6116   4.000   6.009   6.566 -0.9353  0.6218  0.2407
   67CHL1  H21A 6117   3.962   6.113   6.568 -0.4016  0.8289  2.6877
   67CHL1  H21B 6118   3.955   5.963   6.657  1.3347  0.7036  1.4719
   67CHL1  H21C 6119   3.967   5.956   6.474  1.7764 -0.5583 -0.1460
   67CHL1   C22 6120   4.198   6.061   6.709  0.4730  0.7324 -0.5338
   67CHL1  H22A 6121   4.303   6.027   6.708 -0.7524 -3.7000  0.4681
   67CHL1  H22B 6122   4.199   6.172   6.722  0.7621  0.5689  0.9605
   67CHL1   C23 6123   4.153   5.986   6.837  0.2935  0.1590  0.3562
   67CHL1  H23A 6124   4.044   6.005   6.843  0.0910  0.3951 -2.6762
   67CHL1  H23B 6125   4.175   5.879   6.819  0.2903  0.2695 -0.3371
   67CHL1   C24 6126   4.230   6.043   6.964  0.8170 -0.1910  0.1112
   67CHL1  H24A 6127   4.335   6.065   6.935  0.3815  1.1616 -0.5417
   67CHL1  H24B 6128   4.177   6.136   6.991  2.5013  0.8045  0.1472
   67CHL1   C25 6129   4.242   5.951   7.080 -0.4323 -0.2592  0.4705
   67CHL1   H25 6130   4.141   5.921   7.115  0.2235 -1.0949  1.7569
   67CHL1   C26 6131   4.327   5.823   7.047 -0.2846 -0.0327  0.8123
   67CHL1  H26A 6132   4.305   5.763   6.956  0.4341 -3.2219  2.5801
   67CHL1  H26B 6133   4.435   5.845   7.042 -0.6589  1.7379 -1.4726
   67CHL1  H26C 6134   4.305   5.743   7.121 -3.0427 -1.2712 -1.1484
   67CHL1   C27 6135   4.290   6.016   7.207  0.2133  0.3431 -0.9213
   67CHL1  H27A 6136   4.400   6.027   7.204  0.3981 -0.5415  1.0841
   67CHL1  H27B 6137   4.247   6.117   7.228 -0.4332  0.1409 -1.2362
   67CHL1  H27C 6138   4.261   5.946   7.288  2.4118  1.1177  0.6215
   68CHL1    C3 6139   2.444   6.676   4.777 -0.0624  0.6620  0.1338
   68CHL1    H3 6140   2.414   6.574   4.809 -1.6737  0.7880 -0.8714
   68CHL1    O3 6141   2.401   6.710   4.647  0.6306 -0.2935 -0.0945
   68CHL1   H3' 6142   2.459   6.767   4.596  0.6173 -0.1078  0.0963
   68CHL1    C4 6143   2.383   6.784   4.865 -0.7207 -0.1951 -0.1099
   68CHL1   H4A 6144   2.404   6.887   4.829  0.8505 -1.0543 -1.7980
   68CHL1   H4B 6145   2.272   6.783   4.854 -0.6873 -0.1835 -0.4626
   68CHL1    C5 6146   2.441   6.766   5.006 -0.1067  0.4100 -0.6087
   68CHL1    C6 6147   2.354   6.749   5.106  0.1963  0.4516 -0.1123
   68CHL1    H6 6148   2.250   6.733   5.074 -0.2653  1.7049  0.7009
   68CHL1    C7 6149   2.396   6.720   5.245  0.3932 -0.0466  0.2508
   68CHL1   H7A 6150   2.342   6.788   5.315 -1.2510  0.2889 -1.2827
   68CHL1   H7B 6151   2.371   6.614   5.266 -1.4169 -0.1565 -2.0412
   68CHL1    C8 6152   2.541   6.753   5.269  0.1831  0.1690  0.7753
   68CHL1    H8 6153   2.560   6.861   5.288 -0.5000  0.1165  1.8345
   68CHL1   C14 6154   2.592   6.692   5.402  0.0297  0.3730  0.4795
   68CHL1   H14 6155   2.586   6.582   5.389  2.3703  0.3909 -1.5719
   68CHL1   C15 6156   2.510   6.719   5.528  0.9942  0.5002  0.3699
   68CHL1  H15A 6157   2.488   6.828   5.529  3.3386  1.0550  2.5519
   68CHL1  H15B 6158   2.417   6.658   5.529  1.8517 -0.9089  2.5413
   68CHL1   C16 6159   2.605   6.683   5.646 -0.2703  0.5056 -0.1550
   68CHL1  H16A 6160   2.615   6.770   5.715 -3.7359  1.1185 -0.2575
   68CHL1  H16B 6161   2.561   6.592   5.694  0.8753 -1.3039 -2.3555
   68CHL1   C17 6162   2.743   6.657   5.580 -0.1628 -0.1800  0.0403
   68CHL1   H17 6163   2.748   6.547   5.566  0.6891 -0.1636  0.1933
   68CHL1   C13 6164   2.737   6.728   5.446 -0.2891 -0.0274 -0.7631
   68CHL1   C18 6165   2.761   6.874   5.467  0.3581  0.2657  0.0873
   68CHL1  H18A 6166   2.681   6.916   5.531  0.5167 -0.2483  0.6371
   68CHL1  H18B 6167   2.855   6.897   5.522 -1.4529  2.3428  2.5538
   68CHL1  H18C 6168   2.762   6.934   5.373 -2.6409 -0.6665 -0.6379
   68CHL1   C12 6169   2.826   6.671   5.333  0.6547 -0.3575  0.2503
   68CHL1  H12A 6170   2.935   6.690   5.347  0.2886  0.5687  2.2543
   68CHL1  H12B 6171   2.798   6.564   5.324 -1.8318  0.2775 -0.3121
   68CHL1   C11 6172   2.792   6.725   5.188  0.6131  0.1200 -0.6130
   68CHL1  H11A 6173   2.819   6.833   5.197 -0.6659  0.4393 -0.4825
   68CHL1  H11B 6174   2.849   6.665   5.113  0.2451 -1.0990  0.0616
   68CHL1    C9 6175   2.639   6.711   5.155 -0.6059 -0.0047  0.2304
   68CHL1    H9 6176   2.628   6.601   5.157  1.6352 -0.2711  0.4435
   68CHL1   C10 6177   2.598   6.767   5.020  0.2701  0.7538 -0.2899
   68CHL1   C19 6178   2.635   6.915   5.009 -0.0701  0.1559  0.0673
   68CHL1  H19A 6179   2.744   6.930   5.028  0.1033 -0.3270 -0.5093
   68CHL1  H19B 6180   2.616   6.952   4.906 -0.0558 -0.4612 -0.1640
   68CHL1  H19C 6181   2.574   6.973   5.081 -1.2400 -2.3677  1.2511
   68CHL1    C1 6182   2.655   6.670   4.911 -0.4905  0.1176  0.0497
   68CHL1   H1A 6183   2.761   6.703   4.915 -0.3492 -0.4188  0.8554
   68CHL1   H1B 6184   2.656   6.561   4.935  1.6642 -0.3150 -1.5843
   68CHL1    C2 6185   2.595   6.692   4.772  0.7762 -0.2258 -0.3621
   68CHL1   H2A 6186   2.647   6.619   4.706 -0.3569  0.6554 -2.3261
   68CHL1   H2B 6187   2.624   6.795   4.743  0.1393  0.5837  1.6435
   68CHL1   C20 6188   2.856   6.672   5.680 -0.2657 -1.1577 -0.0881
   68CHL1   H20 6189   2.859   6.779   5.710 -0.2375 -0.3954 -2.6258
   68CHL1   C21 6190   2.993   6.660   5.613 -0.6467  0.3555 -0.6660
   68CHL1  H21A 6191   3.065   6.667   5.697 -1.1406 -0.2801 -0.1753
   68CHL1  H21B 6192   3.014   6.735   5.534 -1.0702  1.3056  0.1138
   68CHL1  H21C 6193   2.981   6.563   5.559 -2.5026  0.3238 -0.2685
   68CHL1   C22 6194   2.833   6.576   5.807  0.0953 -0.3041  0.1443
   68CHL1  H22A 6195   2.758   6.634   5.864 -0.3000 -0.1634 -0.5076
   68CHL1  H22B 6196   2.791   6.482   5.766 -2.8704  3.0497 -5.9498
   68CHL1   C23 6197   2.950   6.560   5.903 -0.3603 -0.0703 -0.0470
   68CHL1  H23A 6198   3.023   6.498   5.848  0.2039 -0.1524  0.7849
   68CHL1  H23B 6199   3.009   6.648   5.934  1.8448 -2.0345  1.6898
   68CHL1   C24 6200   2.903   6.494   6.031 -0.5974  0.6387  0.3349
   68CHL1  H24A 6201   2.814   6.541   6.078 -0.3380 -0.0240  1.5322
   68CHL1  H24B 6202   2.869   6.390   6.010  2.7972 -0.9008  1.7015
   68CHL1   C25 6203   3.015   6.474   6.119  0.1079  0.6034  0.4643
   68CHL1   H25 6204   3.102   6.439   6.060 -0.3617  0.5463 -0.2120
   68CHL1   C26 6205   3.057   6.606   6.187 -0.0511  0.0276  0.2519
   68CHL1  H26A 6206   3.109   6.670   6.112  0.3641 -1.2995 -0.6307
   68CHL1  H26B 6207   2.962   6.661   6.206  0.9910  1.4559  1.6007
   68CHL1  H26C 6208   3.105   6.591   6.286 -0.3188 -0.6362  0.2849
   68CHL1   C27 6209   2.977   6.375   6.231  0.0103 -0.0127 -0.4529
   68CHL1  H27A 6210   2.962   6.276   6.183 -1.0089  0.1181 -0.4361
   68CHL1  H27B 6211   3.056   6.367   6.309  1.4635  1.5538 -1.6925
   68CHL1  H27C 6212   2.879   6.389   6.282 -0.2964 -0.4956 -0.9017
   69CHL1    C3 6213   5.488   6.695   5.531 -0.3218 -0.2258  0.5970
   69CHL1    H3 6214   5.379   6.712   5.545 -0.2249 -0.3984  1.6414
   69CHL1    O3 6215   5.519   6.659   5.401 -0.0127  0.4603  0.1699
   69CHL1   H3' 6216   5.606   6.622   5.419  0.4513  2.0912  1.6048
   69CHL1    C4 6217   5.556   6.831   5.557 -0.0903 -0.3123 -0.8519
   69CHL1   H4A 6218   5.662   6.813   5.527 -0.8902 -1.1444 -3.4050
   69CHL1   H4B 6219   5.501   6.907   5.498 -1.0613  0.8200  1.3952
   69CHL1    C5 6220   5.553   6.873   5.706  0.1166  0.4074 -0.3771
   69CHL1    C6 6221   5.520   6.997   5.741 -0.1284 -0.0491 -0.0685
   69CHL1    H6 6222   5.503   7.073   5.663  2.3479  0.6764  0.0227
   69CHL1    C7 6223   5.525   7.053   5.878  0.0188  0.3968 -0.6834
   69CHL1   H7A 6224   5.589   7.144   5.880  2.8125 -1.4452  1.0877
   69CHL1   H7B 6225   5.423   7.093   5.899  0.4137  1.2924 -0.4447
   69CHL1    C8 6226   5.572   6.961   5.985 -0.0042  0.8092  0.0629
   69CHL1    H8 6227   5.683   6.968   5.991  0.1035  0.7133 -1.3736
   69CHL1   C14 6228   5.511   7.003   6.117 -0.3075 -0.2230  0.2233
   69CHL1   H14 6229   5.401   6.994   6.100 -0.1036 -2.1226 -0.3391
   69CHL1   C15 6230   5.533   7.149   6.164  0.7416 -0.5411 -0.3171
   69CHL1  H15A 6231   5.637   7.183   6.147  0.5847  0.2159  0.1868
   69CHL1  H15B 6232   5.463   7.216   6.110 -2.1508 -2.9684  0.1413
   69CHL1   C16 6233   5.494   7.150   6.312 -0.2016 -0.2991 -0.1974
   69CHL1  H16A 6234   5.557   7.209   6.382  0.5029 -1.3368  0.0698
   69CHL1  H16B 6235   5.388   7.183   6.321 -0.4121 -1.3528  1.5228
   69CHL1   C17 6236   5.480   7.002   6.357 -0.0788  0.5720 -0.3107
   69CHL1   H17 6237   5.374   6.978   6.334  0.2571 -1.1134 -0.1815
   69CHL1   C13 6238   5.555   6.918   6.244 -0.1491 -0.3029  0.2670
   69CHL1   C18 6239   5.711   6.922   6.265  0.6773 -0.7947  0.0984
   69CHL1  H18A 6240   5.776   6.895   6.179 -1.2052 -2.0754 -1.0061
   69CHL1  H18B 6241   5.739   7.022   6.304  0.1081  0.5385 -2.6639
   69CHL1  H18C 6242   5.730   6.845   6.343 -0.0913  0.1863  1.2758
   69CHL1   C12 6243   5.504   6.774   6.216  0.3874  0.2653  0.0106
   69CHL1  H12A 6244   5.535   6.705   6.297 -0.0753 -2.9696 -2.3784
   69CHL1  H12B 6245   5.396   6.765   6.192  0.5975 -1.0276 -0.5327
   69CHL1   C11 6246   5.560   6.720   6.085 -0.6764  0.0863  0.5068
   69CHL1  H11A 6247   5.670   6.717   6.099 -0.9273  0.0832  2.9973
   69CHL1  H11B 6248   5.519   6.619   6.064 -0.7585  0.0827  0.6812
   69CHL1    C9 6249   5.528   6.809   5.955 -0.0897 -0.7896  0.7319
   69CHL1    H9 6250   5.418   6.809   5.943  0.0647  0.3672 -0.9185
   69CHL1   C10 6251   5.581   6.766   5.812  0.5016 -0.7990 -0.1450
   69CHL1   C19 6252   5.738   6.753   5.814  0.1641  0.0901  0.0041
   69CHL1  H19A 6253   5.764   6.685   5.730  0.2821 -0.2405  0.3012
   69CHL1  H19B 6254   5.782   6.855   5.807 -3.0574  1.5524 -0.5469
   69CHL1  H19C 6255   5.787   6.707   5.903  1.4322 -1.2592 -1.3311
   69CHL1    C1 6256   5.513   6.631   5.767  0.6562 -0.0485  0.5830
   69CHL1   H1A 6257   5.558   6.560   5.839  1.1660 -0.7458 -0.4025
   69CHL1   H1B 6258   5.403   6.633   5.785  0.4188  0.2612 -0.8397
   69CHL1    C2 6259   5.536   6.584   5.623  0.2216 -0.2653 -0.4333
   69CHL1   H2A 6260   5.479   6.491   5.606 -1.3347  0.3762  0.9290
   69CHL1   H2B 6261   5.644   6.565   5.604 -0.1962 -0.4896 -2.9427
   69CHL1   C20 6262   5.505   6.968   6.499  0.8819 -0.5210 -0.7611
   69CHL1   H20 6263   5.530   6.860   6.509  1.9333 -0.1470  1.2694
   69CHL1   C21 6264   5.365   6.977   6.576  0.7737  0.0254  0.1661
   69CHL1  H21A 6265   5.325   7.080   6.566 -0.4316 -0.3854  0.6676
   69CHL1  H21B 6266   5.375   6.960   6.685 -0.9495  0.1873  0.3688
   69CHL1  H21C 6267   5.295   6.907   6.527  1.0690  1.1271 -1.9757
   69CHL1   C22 6268   5.614   7.051   6.569  0.6015  0.3823 -0.2869
   69CHL1  H22A 6269   5.696   7.068   6.495  0.3101 -4.4216 -2.0660
   69CHL1  H22B 6270   5.571   7.150   6.597 -0.5855  0.3129 -1.7538
   69CHL1   C23 6271   5.680   6.986   6.690 -0.4045  0.3948  0.3290
   69CHL1  H23A 6272   5.604   6.940   6.757 -0.2570  1.0755  0.9696
   69CHL1  H23B 6273   5.730   6.898   6.644 -0.0315  0.1494  1.1989
   69CHL1   C24 6274   5.783   7.069   6.771  0.2389  0.2336  0.0851
   69CHL1  H24A 6275   5.853   7.123   6.704 -0.1155 -0.2203 -0.6730
   69CHL1  H24B 6276   5.721   7.138   6.831 -1.1459  0.4555 -1.4965
   69CHL1   C25 6277   5.870   6.985   6.869  0.5592 -0.1302 -0.1343
   69CHL1   H25 6278   5.883   6.888   6.816 -0.8126 -0.0042 -0.7390
   69CHL1   C26 6279   5.999   7.056   6.903 -0.3007 -0.3398  0.1140
   69CHL1  H26A 6280   6.064   7.083   6.817 -0.0939 -1.5710 -0.1293
   69CHL1  H26B 6281   5.991   7.156   6.951  2.4789  0.0300 -0.0469
   69CHL1  H26C 6282   6.068   6.999   6.968  0.1241  0.4515  0.3801
   69CHL1   C27 6283   5.796   6.947   6.998 -0.1992 -0.4718  0.6542
   69CHL1  H27A 6284   5.736   6.858   6.970  0.7984 -1.5530  1.8850
   69CHL1  H27B 6285   5.873   6.910   7.068  2.0078 -0.2929 -1.5458
   69CHL1  H27C 6286   5.744   7.039   7.035  3.2459  1.0612  2.0719
   70CHL1    C3 6287   6.502   3.417   5.051 -0.1239  0.0675  0.8206
   70CHL1    H3 6288   6.592   3.482   5.043  0.2352 -0.6100 -1.0999
   70CHL1    O3 6289   6.458   3.378   4.920 -0.2781  0.6921 -0.2705
   70CHL1   H3' 6290   6.450   3.282   4.919  1.0489  0.5561 -1.5719
   70CHL1    C4 6291   6.532   3.300   5.136 -0.3550 -0.3095 -0.0673
   70CHL1   H4A 6292   6.455   3.220   5.138 -0.8147  0.1315 -0.1485
   70CHL1   H4B 6293   6.617   3.243   5.092 -0.9628  0.6502 -2.6395
   70CHL1    C5 6294   6.579   3.330   5.275  0.3817 -0.2163  0.2504
   70CHL1    C6 6295   6.690   3.278   5.331  0.4716  0.2808 -0.2736
   70CHL1    H6 6296   6.742   3.205   5.267 -0.9495 -0.3036 -0.8010
   70CHL1    C7 6297   6.734   3.301   5.473 -0.9983  0.6860 -0.0624
   70CHL1   H7A 6298   6.772   3.209   5.521 -1.8090  0.8212  0.8695
   70CHL1   H7B 6299   6.817   3.374   5.462 -0.5824  0.3043  0.4858
   70CHL1    C8 6300   6.620   3.359   5.560 -0.6217 -0.4930 -1.0407
   70CHL1    H8 6301   6.551   3.277   5.591  0.4719 -0.4299  1.8714
   70CHL1   C14 6302   6.689   3.417   5.687 -0.5609  0.0763  0.1395
   70CHL1   H14 6303   6.749   3.505   5.654  1.4200 -1.0105  0.6525
   70CHL1   C15 6304   6.798   3.334   5.758  0.0224  0.4813 -0.4760
   70CHL1  H15A 6305   6.772   3.227   5.774 -0.6683  0.9693  2.3249
   70CHL1  H15B 6306   6.895   3.334   5.704  0.0884 -2.6578 -0.5336
   70CHL1   C16 6307   6.804   3.402   5.894 -0.7109 -0.7010 -0.4646
   70CHL1  H16A 6308   6.803   3.335   5.982  0.9459  0.5550  0.5691
   70CHL1  H16B 6309   6.901   3.456   5.900 -1.3047  0.4200 -0.6918
   70CHL1   C17 6310   6.685   3.506   5.911  0.1523 -0.0852 -1.0567
   70CHL1   H17 6311   6.723   3.606   5.883 -0.1043  0.7885  1.4064
   70CHL1   C13 6312   6.588   3.463   5.795 -0.5031  0.9228  0.2657
   70CHL1   C18 6313   6.503   3.345   5.845  0.9105 -1.0180 -0.1154
   70CHL1  H18A 6314   6.442   3.305   5.762  1.7382 -3.6806  0.4684
   70CHL1  H18B 6315   6.568   3.270   5.894  1.7173 -0.3400 -0.1251
   70CHL1  H18C 6316   6.438   3.374   5.931  0.0266 -0.0758 -1.0782
   70CHL1   C12 6317   6.503   3.584   5.730  0.1198 -0.0308  0.1694
   70CHL1  H12A 6318   6.419   3.615   5.796 -0.1088  1.7008 -0.8606
   70CHL1  H12B 6319   6.565   3.676   5.723  1.8584 -1.1682  0.0891
   70CHL1   C11 6320   6.435   3.539   5.597 -0.1683  0.0420  0.1995
   70CHL1  H11A 6321   6.358   3.466   5.628 -0.5195  0.1340 -0.4443
   70CHL1  H11B 6322   6.379   3.620   5.545  1.8675  0.9569 -0.7166
   70CHL1    C9 6323   6.539   3.478   5.493  0.0066  0.6827 -0.2626
   70CHL1    H9 6324   6.617   3.547   5.456 -0.8485  0.0416 -3.5827
   70CHL1   C10 6325   6.483   3.424   5.349  0.3286 -1.1035  0.7505
   70CHL1   C19 6326   6.354   3.338   5.383  0.1617 -0.5336  0.8139
   70CHL1  H19A 6327   6.276   3.390   5.442 -1.3084  0.2818 -1.6670
   70CHL1  H19B 6328   6.301   3.314   5.288  0.5500 -0.4685  0.5764
   70CHL1  H19C 6329   6.385   3.241   5.428  1.3020  0.8846  3.2674
   70CHL1    C1 6330   6.446   3.541   5.263  0.2450 -0.1725 -0.1532
   70CHL1   H1A 6331   6.371   3.609   5.310 -0.0169 -1.4116  1.2976
   70CHL1   H1B 6332   6.534   3.605   5.242 -1.1203  1.5812 -0.8314
   70CHL1    C2 6333   6.398   3.507   5.123 -0.1718  0.5741 -0.6288
   70CHL1   H2A 6334   6.384   3.597   5.060 -5.0698 -0.0115 -0.7491
   70CHL1   H2B 6335   6.300   3.454   5.129  0.1235  0.1443  0.6784
   70CHL1   C20 6336   6.626   3.510   6.054 -0.0509 -0.1614  0.4085
   70CHL1   H20 6337   6.594   3.404   6.067  0.5005 -1.1519 -4.3550
   70CHL1   C21 6338   6.501   3.603   6.063 -0.2247 -0.1970 -0.3237
   70CHL1  H21A 6339   6.408   3.551   6.032  0.2865 -0.7314 -0.9929
   70CHL1  H21B 6340   6.522   3.696   6.006 -2.5691  1.9440  2.0169
   70CHL1  H21C 6341   6.482   3.633   6.169 -1.8191  0.2544 -0.7097
   70CHL1   C22 6342   6.722   3.552   6.159 -0.0011  0.5149 -0.8748
   70CHL1  H22A 6343   6.817   3.497   6.145 -0.0765 -0.5332  2.1774
   70CHL1  H22B 6344   6.731   3.663   6.153 -1.1087  0.6433 -0.4807
   70CHL1   C23 6345   6.678   3.509   6.306  0.5729 -0.2633 -0.3979
   70CHL1  H23A 6346   6.584   3.562   6.331 -0.8795 -2.2215 -1.4777
   70CHL1  H23B 6347   6.662   3.399   6.308 -1.2515 -0.0250  0.5976
   70CHL1   C24 6348   6.793   3.527   6.406 -0.1633  0.4453  0.0934
   70CHL1  H24A 6349   6.884   3.479   6.365  0.6687  1.0621  1.1734
   70CHL1  H24B 6350   6.812   3.637   6.407 -0.4450  0.5242 -1.2319
   70CHL1   C25 6351   6.768   3.457   6.545 -0.5043  0.0343 -0.5252
   70CHL1   H25 6352   6.748   3.350   6.520 -3.1187  0.4200 -0.3404
   70CHL1   C26 6353   6.876   3.481   6.653 -0.5118  0.1332 -0.1660
   70CHL1  H26A 6354   6.869   3.586   6.688 -0.5354 -0.1462  0.6766
   70CHL1  H26B 6355   6.880   3.406   6.735 -0.0874  1.9206  1.5265
   70CHL1  H26C 6356   6.972   3.475   6.598 -0.8940 -3.9998 -0.7264
   70CHL1   C27 6357   6.635   3.517   6.607  0.7448  0.0691  0.9602
   70CHL1  H27A 6358   6.548   3.469   6.556  0.5289  1.2437  0.1629
   70CHL1  H27B 6359   6.629   3.474   6.709 -2.1353 -1.1763  0.3545
   70CHL1  H27C 6360   6.634   3.625   6.633 -0.5450  0.3954 -0.3153
   71CHL1    C3 6361   0.616   1.968   4.856  0.5535  0.0664  0.9343
   71CHL1    H3 6362   0.515   1.929   4.881 -0.1353  2.2922  1.9175
   71CHL1    O3 6363   0.599   2.022   4.729  0.0542  0.2747 -0.1481
   71CHL1   H3' 6364   0.686   2.043   4.696 -0.4037  1.4080 -0.7123
   71CHL1    C4 6365   0.660   2.068   4.960  0.1925  0.3676 -0.4382
   71CHL1   H4A 6366   0.758   2.110   4.930  1.0712 -0.5987  0.9621
   71CHL1   H4B 6367   0.581   2.147   4.960  0.2787  0.4840  1.1040
   71CHL1    C5 6368   0.677   1.997   5.099 -0.5522  0.6257  0.5216
   71CHL1    C6 6369   0.606   2.038   5.202 -0.4849 -0.3660 -0.3199
   71CHL1    H6 6370   0.542   2.126   5.185  0.8042  0.4153 -1.3535
   71CHL1    C7 6371   0.601   1.974   5.340 -0.7589  0.0953  0.3578
   71CHL1   H7A 6372   0.618   2.053   5.416  1.6947 -0.8997  0.9478
   71CHL1   H7B 6373   0.506   1.922   5.366 -1.0209 -1.0934 -2.5717
   71CHL1    C8 6374   0.716   1.868   5.351 -0.8686  0.0079  0.2073
   71CHL1    H8 6375   0.810   1.927   5.344 -0.5840 -0.6504 -2.5951
   71CHL1   C14 6376   0.691   1.779   5.473  0.7908  0.1790  0.0767
   71CHL1   H14 6377   0.599   1.723   5.446 -0.0876  0.6907  1.8394
   71CHL1   C15 6378   0.662   1.851   5.610  0.5885  0.0822 -0.0461
   71CHL1  H15A 6379   0.728   1.939   5.622  0.2956  0.1424  1.1803
   71CHL1  H15B 6380   0.556   1.885   5.612  0.4434 -0.4023  0.6630
   71CHL1   C16 6381   0.683   1.747   5.718 -0.0239 -0.1243 -0.0092
   71CHL1  H16A 6382   0.760   1.778   5.792  2.5002 -2.1422 -1.5812
   71CHL1  H16B 6383   0.582   1.732   5.762 -0.1913 -0.9101 -0.6249
   71CHL1   C17 6384   0.747   1.628   5.643  0.4582  0.1391 -0.1785
   71CHL1   H17 6385   0.663   1.560   5.615 -0.8188  2.1475 -1.4640
   71CHL1   C13 6386   0.799   1.677   5.501 -0.1878  0.8596 -0.0910
   71CHL1   C18 6387   0.943   1.743   5.525  0.4150  0.0994  0.6319
   71CHL1  H18A 6388   1.020   1.674   5.566  1.6802  2.4720  2.5133
   71CHL1  H18B 6389   0.989   1.783   5.432 -0.9939 -1.0404 -0.5821
   71CHL1  H18C 6390   0.935   1.822   5.603 -0.5920 -0.6108  1.2583
   71CHL1   C12 6391   0.808   1.582   5.379  0.1346 -0.1967  0.2979
   71CHL1  H12A 6392   0.896   1.514   5.385 -0.4895 -1.1489 -0.9738
   71CHL1  H12B 6393   0.716   1.521   5.371  0.0451  0.1267 -1.6402
   71CHL1   C11 6394   0.827   1.658   5.242 -0.3459 -0.8642 -0.5950
   71CHL1  H11A 6395   0.934   1.687   5.240 -0.3366 -0.6648  1.0859
   71CHL1  H11B 6396   0.810   1.594   5.153 -0.0309  1.2990 -2.3000
   71CHL1    C9 6397   0.730   1.777   5.224  0.6608 -0.2241  0.1833
   71CHL1    H9 6398   0.627   1.737   5.214  0.2629  0.2973  1.8180
   71CHL1   C10 6399   0.755   1.859   5.096  0.6189 -0.4095 -0.2658
   71CHL1   C19 6400   0.904   1.898   5.076 -0.0788 -0.7006  0.5000
   71CHL1  H19A 6401   0.918   1.964   4.987 -2.3012  1.1529  1.4132
   71CHL1  H19B 6402   0.944   1.954   5.163 -0.0313 -0.3304  0.2413
   71CHL1  H19C 6403   0.959   1.804   5.054 -2.9253 -2.1124 -1.1842
   71CHL1    C1 6404   0.718   1.769   4.978 -0.1314 -0.5259 -0.4193
   71CHL1   H1A 6405   0.790   1.686   4.961 -0.5874 -0.9703 -0.2261
   71CHL1   H1B 6406   0.614   1.734   5.000  0.2936 -0.7981  1.3074
   71CHL1    C2 6407   0.705   1.845   4.848 -0.0261 -0.3915  0.6851
   71CHL1   H2A 6408   0.667   1.772   4.773  2.1827 -0.4858 -0.4391
   71CHL1   H2B 6409   0.807   1.870   4.809 -0.8685 -1.6389 -2.6448
   71CHL1   C20 6410   0.833   1.541   5.729  0.4351  0.1200 -0.8046
   71CHL1   H20 6411   0.916   1.607   5.764 -0.1443 -0.4500  1.8678
   71CHL1   C21 6412   0.899   1.420   5.652 -0.3764 -0.1726 -0.0005
   71CHL1  H21A 6413   0.982   1.383   5.716  0.0289 -0.2463 -0.5640
   71CHL1  H21B 6414   0.966   1.453   5.570  0.3184 -0.0805  0.5854
   71CHL1  H21C 6415   0.829   1.341   5.617  0.0666 -1.0222  0.9509
   71CHL1   C22 6416   0.769   1.482   5.858  0.2046 -0.1190 -0.7073
   71CHL1  H22A 6417   0.684   1.546   5.889  0.0847  1.8207 -4.4571
   71CHL1  H22B 6418   0.728   1.381   5.836  0.9784 -0.5044 -0.4213
   71CHL1   C23 6419   0.877   1.473   5.971  0.4832 -0.0396 -0.2713
   71CHL1  H23A 6420   0.852   1.390   6.040 -0.6429  0.2240 -0.3476
   71CHL1  H23B 6421   0.969   1.442   5.917  0.6007  2.3312 -1.5712
   71CHL1   C24 6422   0.911   1.587   6.054  0.6419 -0.9812  0.0555
   71CHL1  H24A 6423   0.944   1.671   5.989 -1.0954  0.9215  1.4801
   71CHL1  H24B 6424   0.822   1.630   6.105  1.8409 -0.4272  1.7564
   71CHL1   C25 6425   1.034   1.587   6.157 -0.1653 -0.7081  0.2696
   71CHL1   H25 6426   1.129   1.565   6.102  0.6103 -3.6038  2.5250
   71CHL1   C26 6427   1.037   1.718   6.236  0.1073 -0.3159 -0.6216
   71CHL1  H26A 6428   0.952   1.707   6.307  2.3039  0.6134  2.3704
   71CHL1  H26B 6429   1.132   1.728   6.293  0.0103  1.6087 -0.7228
   71CHL1  H26C 6430   1.030   1.808   6.171  3.8154  0.5666 -0.0683
   71CHL1   C27 6431   1.024   1.477   6.256 -0.3569 -0.5216  0.2912
   71CHL1  H27A 6432   1.050   1.379   6.209  1.1602 -0.7044  1.4346
   71CHL1  H27B 6433   1.100   1.493   6.335 -1.6947  1.2138  1.2804
   71CHL1  H27C 6434   0.918   1.473   6.287 -0.7391  1.1633 -0.6869
   72CHL1    C3 6435   4.711   5.253   5.775 -0.1783 -0.1548  0.5152
   72CHL1    H3 6436   4.716   5.142   5.786  0.3451 -0.3513 -1.4007
   72CHL1    O3 6437   4.673   5.271   5.640  0.1389  0.5698  0.4775
   72CHL1   H3' 6438   4.738   5.226   5.586  0.7410 -0.4071  1.9492
   72CHL1    C4 6439   4.605   5.296   5.881 -0.4538  0.8705  0.0337
   72CHL1   H4A 6440   4.581   5.401   5.854 -2.3471  1.0223  2.0332
   72CHL1   H4B 6441   4.505   5.251   5.867 -0.4395  1.4093 -2.1076
   72CHL1    C5 6442   4.649   5.271   6.024  0.2927  0.2281 -0.1052
   72CHL1    C6 6443   4.586   5.195   6.114 -0.1065  0.4853 -0.0683
   72CHL1    H6 6444   4.492   5.145   6.088 -1.3787  2.8508 -0.2945
   72CHL1    C7 6445   4.629   5.175   6.256 -0.3623  1.0902  0.2535
   72CHL1   H7A 6446   4.542   5.181   6.324 -0.7879 -0.9009 -0.0532
   72CHL1   H7B 6447   4.670   5.072   6.272  2.2922  2.1655  0.8717
   72CHL1    C8 6448   4.733   5.277   6.297  0.3506  0.4373  0.0358
   72CHL1    H8 6449   4.679   5.372   6.317 -1.3665  0.4242 -3.7162
   72CHL1   C14 6450   4.797   5.219   6.425 -1.0250 -0.2229  0.3613
   72CHL1   H14 6451   4.854   5.129   6.395  1.9415  1.3631  0.7627
   72CHL1   C15 6452   4.709   5.171   6.535  0.4200 -0.9160  0.0940
   72CHL1  H15A 6453   4.628   5.244   6.557  0.4888 -1.5067  2.7273
   72CHL1  H15B 6454   4.655   5.076   6.515 -0.8078 -0.2393  0.1155
   72CHL1   C16 6455   4.805   5.172   6.658  0.4910  0.5343 -0.9557
   72CHL1  H16A 6456   4.773   5.245   6.735  0.8638 -0.5292  0.2348
   72CHL1  H16B 6457   4.819   5.070   6.701 -0.0317  0.0130 -1.9614
   72CHL1   C17 6458   4.942   5.220   6.610 -0.2456 -0.5514 -0.5163
   72CHL1   H17 6459   4.993   5.126   6.580 -1.0571 -0.9824 -0.5722
   72CHL1   C13 6460   4.910   5.312   6.489 -0.3652  0.1013  0.6679
   72CHL1   C18 6461   4.844   5.450   6.523 -0.1604 -1.0870  0.2055
   72CHL1  H18A 6462   4.907   5.515   6.588  0.7422  0.4731 -2.0690
   72CHL1  H18B 6463   4.817   5.518   6.439 -2.7005 -1.4074  0.6956
   72CHL1  H18C 6464   4.750   5.441   6.580  1.2042 -2.0355  2.4357
   72CHL1   C12 6465   5.014   5.325   6.384 -0.1201  0.1316  0.7713
   72CHL1  H12A 6466   5.086   5.401   6.423 -0.9510  2.3036 -1.6521
   72CHL1  H12B 6467   5.063   5.227   6.367  0.4008  0.6769 -1.0722
   72CHL1   C11 6468   4.967   5.370   6.240  0.2257  0.0913 -0.1193
   72CHL1  H11A 6469   4.937   5.477   6.248 -2.2627 -0.4260 -1.5837
   72CHL1  H11B 6470   5.057   5.368   6.175 -0.8114 -2.7719 -1.6382
   72CHL1    C9 6471   4.840   5.288   6.190 -1.0511 -0.6445 -0.2249
   72CHL1    H9 6472   4.882   5.187   6.171  2.4149  0.5677  0.3584
   72CHL1   C10 6473   4.784   5.331   6.056 -0.1136  0.4891  0.2749
   72CHL1   C19 6474   4.776   5.492   6.060 -0.4587 -0.1580 -0.3999
   72CHL1  H19A 6475   4.730   5.531   6.153 -1.8908 -1.2486 -0.6160
   72CHL1  H19B 6476   4.873   5.545   6.052 -0.7767  0.1607 -2.9043
   72CHL1  H19C 6477   4.714   5.538   5.981  0.5272  0.7923 -0.6550
   72CHL1    C1 6478   4.882   5.298   5.944 -0.4848  0.1425  0.4960
   72CHL1   H1A 6479   4.981   5.349   5.949  0.9017 -2.3497  0.2203
   72CHL1   H1B 6480   4.907   5.190   5.954 -0.7580 -0.0290 -0.5995
   72CHL1    C2 6481   4.837   5.328   5.798  0.0502 -0.4797 -0.5249
   72CHL1   H2A 6482   4.911   5.300   5.720  0.9445  1.2330 -0.3424
   72CHL1   H2B 6483   4.841   5.439   5.789  2.0258 -0.5560 -1.1369
   72CHL1   C20 6484   5.026   5.273   6.720 -0.7440 -0.0584  0.2552
   72CHL1   H20 6485   5.003   5.380   6.740 -1.2376 -0.2231  0.5797
   72CHL1   C21 6486   5.178   5.263   6.675  0.6813 -0.7708  0.0629
   72CHL1  H21A 6487   5.256   5.272   6.753 -0.6087 -0.7767  1.3747
   72CHL1  H21B 6488   5.200   5.331   6.590 -1.6905 -0.1533 -0.1039
   72CHL1  H21C 6489   5.202   5.163   6.632 -2.0048 -1.2766 -0.4442
   72CHL1   C22 6490   5.018   5.194   6.853 -0.1261 -0.0841  0.2957
   72CHL1  H22A 6491   4.912   5.196   6.884 -0.0316 -1.6728  0.8139
   72CHL1  H22B 6492   5.066   5.094   6.853 -1.4771 -0.7912 -1.4743
   72CHL1   C23 6493   5.083   5.279   6.970  0.3910  0.2189  0.1529
   72CHL1  H23A 6494   5.189   5.246   6.972 -0.3294 -2.4360 -0.7306
   72CHL1  H23B 6495   5.079   5.385   6.939 -0.1476  0.1242 -0.1095
   72CHL1   C24 6496   5.025   5.249   7.109 -0.1503 -0.1173  0.5544
   72CHL1  H24A 6497   5.071   5.326   7.175 -0.6835  0.3412  0.3949
   72CHL1  H24B 6498   4.915   5.259   7.111 -0.2655 -1.1161 -0.1792
   72CHL1   C25 6499   5.071   5.112   7.163  0.7180  0.1410 -0.5435
   72CHL1   H25 6500   5.164   5.074   7.116  0.9785  0.6891 -0.4819
   72CHL1   C26 6501   5.097   5.119   7.309  0.1770  0.6243 -0.8957
   72CHL1  H26A 6502   5.137   5.020   7.341  0.5322  0.5621 -1.5114
   72CHL1  H26B 6503   5.173   5.198   7.328 -0.2189  2.2539 -4.9909
   72CHL1  H26C 6504   5.009   5.145   7.371 -0.7679 -1.7666 -1.1295
   72CHL1   C27 6505   4.966   4.999   7.144 -0.2616 -0.4558 -0.6217
   72CHL1  H27A 6506   4.871   5.012   7.201  0.2093  0.7597 -0.0760
   72CHL1  H27B 6507   4.934   4.998   7.038 -4.9529  0.3197  0.5337
   72CHL1  H27C 6508   5.012   4.906   7.182 -1.0267 -0.3847  0.5443
   73CHL1    C3 6509   6.741   1.407   5.118  0.2797 -0.5902 -0.7455
   73CHL1    H3 6510   6.847   1.411   5.150 -0.1769 -0.3785  0.8579
   73CHL1    O3 6511   6.722   1.378   4.979 -0.1143 -0.4605 -0.4728
   73CHL1   H3' 6512   6.636   1.415   4.959 -1.5717 -3.1024  0.3853
   73CHL1    C4 6513   6.654   1.304   5.198 -0.3556 -0.0868  0.2310
   73CHL1   H4A 6514   6.547   1.311   5.168 -0.7476 -1.8678  1.0445
   73CHL1   H4B 6515   6.687   1.201   5.169  2.1140  1.0524 -1.3088
   73CHL1    C5 6516   6.682   1.326   5.341  0.0827  0.3109 -0.1112
   73CHL1    C6 6517   6.742   1.230   5.415 -0.9538 -0.6187 -0.2430
   73CHL1    H6 6518   6.768   1.132   5.372 -2.3414 -1.0028 -0.2351
   73CHL1    C7 6519   6.758   1.248   5.567 -0.0782  0.2287  0.2186
   73CHL1   H7A 6520   6.730   1.149   5.608  0.4167 -0.3208 -0.7443
   73CHL1   H7B 6521   6.862   1.253   5.605 -0.1062 -0.3698  0.3855
   73CHL1    C8 6522   6.674   1.360   5.627 -0.2472  0.6268  0.2266
   73CHL1    H8 6523   6.569   1.327   5.611  0.3103 -1.3063  0.3071
   73CHL1   C14 6524   6.714   1.383   5.770 -0.0906 -0.1976  0.8320
   73CHL1   H14 6525   6.820   1.412   5.779 -0.2358  0.1764  1.3970
   73CHL1   C15 6526   6.686   1.271   5.868  0.0024  0.3631  0.2063
   73CHL1  H15A 6527   6.592   1.218   5.840  1.3728 -2.1786  0.0607
   73CHL1  H15B 6528   6.769   1.199   5.883  0.6567  1.0975  0.1273
   73CHL1   C16 6529   6.684   1.344   6.005  0.7799  0.3303 -0.1441
   73CHL1  H16A 6530   6.593   1.312   6.061 -0.3198  2.1758 -0.7718
   73CHL1  H16B 6531   6.775   1.327   6.066 -0.3583  0.4118  1.6507
   73CHL1   C17 6532   6.675   1.503   5.976 -0.6688  0.8116 -0.2554
   73CHL1   H17 6533   6.777   1.546   5.985  0.2381 -0.1079 -4.2737
   73CHL1   C13 6534   6.642   1.509   5.830 -0.6587  0.0675  0.4216
   73CHL1   C18 6535   6.489   1.505   5.816 -0.2926  0.1494 -0.1090
   73CHL1  H18A 6536   6.453   1.599   5.862  1.6115  0.9966 -0.2661
   73CHL1  H18B 6537   6.453   1.500   5.711 -2.9312  0.6976  0.7127
   73CHL1  H18C 6538   6.447   1.412   5.860 -0.4208 -0.1609 -0.8655
   73CHL1   C12 6539   6.693   1.638   5.755 -0.0128 -0.4099  0.5838
   73CHL1  H12A 6540   6.641   1.719   5.810 -1.0497 -0.2660 -0.5700
   73CHL1  H12B 6541   6.802   1.652   5.772  0.4940 -0.7376 -2.0480
   73CHL1   C11 6542   6.661   1.629   5.610 -0.1949  0.3931 -0.0871
   73CHL1  H11A 6543   6.552   1.637   5.596 -0.3007 -2.7092 -1.7174
   73CHL1  H11B 6544   6.702   1.719   5.559  1.7383  0.0226  0.7024
   73CHL1    C9 6545   6.702   1.487   5.539  0.8261  0.3552 -0.0460
   73CHL1    H9 6546   6.812   1.500   5.525  0.7694  1.3765  0.3781
   73CHL1   C10 6547   6.639   1.462   5.401 -0.1836 -0.5542 -0.0038
   73CHL1   C19 6548   6.494   1.467   5.407 -0.1809 -0.7498 -0.2287
   73CHL1  H19A 6549   6.447   1.562   5.440  0.8170  0.0910 -1.1705
   73CHL1  H19B 6550   6.439   1.447   5.313 -2.0172  0.6868  0.4903
   73CHL1  H19C 6551   6.442   1.393   5.472  0.6404  0.7018  2.1980
   73CHL1    C1 6552   6.691   1.575   5.314  0.0086 -0.0092  0.1847
   73CHL1   H1A 6553   6.642   1.669   5.347 -0.5812 -0.5399  0.8535
   73CHL1   H1B 6554   6.799   1.585   5.338  0.5023  0.8359 -2.1127
   73CHL1    C2 6555   6.684   1.552   5.161  0.8217  0.2448 -0.0347
   73CHL1   H2A 6556   6.747   1.630   5.113 -0.9666  1.5816 -0.3240
   73CHL1   H2B 6557   6.583   1.557   5.116  0.2185 -3.4859  0.5767
   73CHL1   C20 6558   6.600   1.583   6.090  0.0754  0.2851 -0.6734
   73CHL1   H20 6559   6.493   1.558   6.071  0.1936 -2.2326  1.4152
   73CHL1   C21 6560   6.631   1.732   6.074  0.2450  0.2227 -0.0507
   73CHL1  H21A 6561   6.738   1.754   6.054  0.0784  2.3304  1.1098
   73CHL1  H21B 6562   6.604   1.782   6.169  0.0628  1.2136 -0.6098
   73CHL1  H21C 6563   6.571   1.774   5.990 -2.0302 -0.8505  0.9658
   73CHL1   C22 6564   6.642   1.545   6.237 -0.3306 -0.5407  0.1324
   73CHL1  H22A 6565   6.574   1.605   6.301  0.4088  1.3487 -0.7746
   73CHL1  H22B 6566   6.623   1.437   6.255  1.8642 -0.7845  1.2496
   73CHL1   C23 6567   6.787   1.568   6.280  0.7316  0.0716 -0.1010
   73CHL1  H23A 6568   6.835   1.499   6.207 -0.7369  0.1419 -1.1764
   73CHL1  H23B 6569   6.823   1.671   6.258  2.5586 -0.8749 -1.9831
   73CHL1   C24 6570   6.817   1.533   6.425  0.3396 -0.0259  0.0959
   73CHL1  H24A 6571   6.755   1.443   6.444 -2.1586  1.5618 -0.1227
   73CHL1  H24B 6572   6.925   1.510   6.434  0.4976 -0.3340 -1.9723
   73CHL1   C25 6573   6.770   1.639   6.529 -1.1066  0.4695  0.0791
   73CHL1   H25 6574   6.661   1.648   6.511 -1.3223  1.2695  1.5769
   73CHL1   C26 6575   6.780   1.596   6.670  0.3928 -0.0880  0.0048
   73CHL1  H26A 6576   6.719   1.667   6.730 -2.1415 -1.8283 -0.3606
   73CHL1  H26B 6577   6.752   1.489   6.672 -4.3899  0.9355  1.5120
   73CHL1  H26C 6578   6.882   1.610   6.711  0.5478 -2.0345  0.3671
   73CHL1   C27 6579   6.853   1.768   6.510 -0.4872 -0.2911  0.9069
   73CHL1  H27A 6580   6.964   1.760   6.512 -0.5531 -1.2996  0.6595
   73CHL1  H27B 6581   6.827   1.817   6.413 -1.1497 -0.9542  0.7472
   73CHL1  H27C 6582   6.820   1.840   6.588 -4.3785 -0.0077 -0.7692
   74CHL1    C3 6583   6.606   6.293   5.625  0.4406 -0.1138 -0.0321
   74CHL1    H3 6584   6.498   6.321   5.616 -0.1236 -1.8020  1.0294
   74CHL1    O3 6585   6.663   6.261   5.500 -0.1259  0.3429 -0.3748
   74CHL1   H3' 6586   6.609   6.306   5.434  1.3616 -2.4408 -3.8528
   74CHL1    C4 6587   6.686   6.402   5.695  0.0298  0.2724 -0.3945
   74CHL1   H4A 6588   6.786   6.358   5.711  0.4600  1.5942  0.7688
   74CHL1   H4B 6589   6.690   6.491   5.628  0.8151 -0.8701 -1.9183
   74CHL1    C5 6590   6.632   6.443   5.828  0.1361  0.6799 -0.4088
   74CHL1    C6 6591   6.592   6.570   5.849 -0.1232 -0.6169  0.3729
   74CHL1    H6 6592   6.586   6.645   5.769  0.0305 -0.5321  0.4410
   74CHL1    C7 6593   6.549   6.623   5.983 -0.1200  0.5929 -0.1391
   74CHL1   H7A 6594   6.616   6.706   6.013 -0.4712  0.8667 -0.1077
   74CHL1   H7B 6595   6.447   6.664   5.992 -0.0269  0.7094  0.4143
   74CHL1    C8 6596   6.578   6.518   6.091  0.2912 -0.0196  0.2771
   74CHL1    H8 6597   6.680   6.532   6.132  0.5454 -0.3585 -0.2368
   74CHL1   C14 6598   6.487   6.553   6.198 -0.0917  0.2457 -0.1288
   74CHL1   H14 6599   6.384   6.527   6.165  0.3582  0.3625 -1.7068
   74CHL1   C15 6600   6.485   6.699   6.258 -1.0238  0.3375 -0.3327
   74CHL1  H15A 6601   6.588   6.738   6.274 -0.9617 -0.9189  3.2639
   74CHL1  H15B 6602   6.420   6.763   6.195 -0.9926  1.5329  0.7991
   74CHL1   C16 6603   6.417   6.689   6.402  0.3189  0.5754  0.7394
   74CHL1  H16A 6604   6.473   6.748   6.477  0.9684 -0.2292  0.8927
   74CHL1  H16B 6605   6.310   6.721   6.405 -0.2509 -1.0388 -0.6535
   74CHL1   C17 6606   6.408   6.536   6.431 -0.0944 -0.4351  0.0376
   74CHL1   H17 6607   6.311   6.501   6.390  0.9173  1.5802 -4.7133
   74CHL1   C13 6608   6.501   6.465   6.333 -0.8291 -0.3724  0.8077
   74CHL1   C18 6609   6.646   6.479   6.392  0.6067 -0.4192 -0.0867
   74CHL1  H18A 6610   6.655   6.414   6.482 -1.6818  1.2813  1.5062
   74CHL1  H18B 6611   6.724   6.442   6.322 -0.4727 -1.6632 -0.6705
   74CHL1  H18C 6612   6.664   6.584   6.421 -3.5218  0.2225  0.8222
   74CHL1   C12 6613   6.472   6.323   6.291 -0.1142  0.0345 -0.0065
   74CHL1  H12A 6614   6.490   6.253   6.376 -1.0222 -2.1351 -1.4974
   74CHL1  H12B 6615   6.362   6.313   6.276 -0.1942 -0.0887  0.6020
   74CHL1   C11 6616   6.559   6.282   6.169 -0.7951  0.9302 -0.4304
   74CHL1  H11A 6617   6.665   6.285   6.201 -0.7066  1.9446 -0.7874
   74CHL1  H11B 6618   6.534   6.176   6.146 -0.8881  0.8588 -0.0138
   74CHL1    C9 6619   6.543   6.367   6.052  0.8099 -0.1436  0.6233
   74CHL1    H9 6620   6.439   6.351   6.017  0.7480  0.0785  0.7109
   74CHL1   C10 6621   6.628   6.327   5.931  0.6468 -0.0902  0.5299
   74CHL1   C19 6622   6.775   6.305   5.975  0.5108  0.6031  0.3333
   74CHL1  H19A 6623   6.775   6.206   6.027 -0.8893 -0.6604 -1.8997
   74CHL1  H19B 6624   6.848   6.298   5.891  0.8781 -1.4871  0.7760
   74CHL1  H19C 6625   6.814   6.391   6.033 -0.5206  2.0036 -0.9588
   74CHL1    C1 6626   6.560   6.203   5.856  0.4135  0.3341 -0.9946
   74CHL1   H1A 6627   6.569   6.109   5.914 -1.5251  0.5173 -0.3121
   74CHL1   H1B 6628   6.450   6.218   5.862  0.9160  5.3697  0.9819
   74CHL1    C2 6629   6.611   6.168   5.712  0.5186  0.2916 -0.6904
   74CHL1   H2A 6630   6.553   6.086   5.666  0.8001 -0.6848  0.6149
   74CHL1   H2B 6631   6.715   6.133   5.723  1.2207  2.2879 -0.5846
   74CHL1   C20 6632   6.406   6.509   6.581  0.2769 -0.3781 -0.2696
   74CHL1   H20 6633   6.499   6.540   6.633 -1.1372  0.5948  1.8242
   74CHL1   C21 6634   6.393   6.361   6.619  0.7023 -0.3283 -0.0725
   74CHL1  H21A 6635   6.300   6.314   6.579 -1.4231  3.5791 -0.2168
   74CHL1  H21B 6636   6.387   6.336   6.727  0.0391 -1.1229 -0.2812
   74CHL1  H21C 6637   6.486   6.312   6.583  0.0943 -0.0495 -2.1794
   74CHL1   C22 6638   6.296   6.595   6.647  0.2462  0.6545 -0.2819
   74CHL1  H22A 6639   6.308   6.699   6.611  0.9360  0.6073 -0.1895
   74CHL1  H22B 6640   6.193   6.562   6.619 -0.0216  0.7221  0.5747
   74CHL1   C23 6641   6.309   6.597   6.800  0.5159  0.2389 -0.3675
   74CHL1  H23A 6642   6.299   6.493   6.839  0.0909  0.2075 -0.5583
   74CHL1  H23B 6643   6.407   6.619   6.848  0.2085 -1.8649  1.3938
   74CHL1   C24 6644   6.196   6.685   6.862 -0.1651 -0.5775  0.2468
   74CHL1  H24A 6645   6.224   6.793   6.856 -1.4279 -0.2953 -1.0399
   74CHL1  H24B 6646   6.110   6.656   6.798  0.2338  1.3156 -1.2329
   74CHL1   C25 6647   6.176   6.648   7.006 -0.1650 -0.0482  0.2046
   74CHL1   H25 6648   6.200   6.540   7.020  1.0738  0.1759 -0.1180
   74CHL1   C26 6649   6.269   6.727   7.095 -0.3365 -0.6564 -0.5900
   74CHL1  H26A 6650   6.251   6.711   7.203 -1.6572 -1.4426 -0.9028
   74CHL1  H26B 6651   6.375   6.696   7.077 -0.4335 -0.8061 -0.9127
   74CHL1  H26C 6652   6.268   6.837   7.079  1.5184 -0.3319  1.1043
   74CHL1   C27 6653   6.023   6.668   7.048  0.2705  0.6229 -0.5703
   74CHL1  H27A 6654   5.947   6.604   6.997  0.7946  0.0085 -0.5894
   74CHL1  H27B 6655   6.011   6.669   7.158 -0.1222  1.3652 -0.6130
   74CHL1  H27C 6656   5.985   6.766   7.010 -1.7892  0.2140  0.3246
   75CHL1    C3 6657   0.658   6.170   5.085 -0.3935 -0.2349 -0.5834
   75CHL1    H3 6658   0.548   6.175   5.095 -0.4410  1.6400 -1.6226
   75CHL1    O3 6659   0.676   6.158   4.947  0.3301  0.0322  0.0817
   75CHL1   H3' 6660   0.771   6.168   4.934  0.2941 -1.6752 -2.2283
   75CHL1    C4 6661   0.713   6.307   5.132  0.4389 -0.2038  0.4557
   75CHL1   H4A 6662   0.819   6.297   5.099 -0.4493 -2.0118 -2.1445
   75CHL1   H4B 6663   0.662   6.380   5.065  1.7773 -2.6302 -3.5644
   75CHL1    C5 6664   0.700   6.316   5.279 -0.2903 -0.8734  0.1058
   75CHL1    C6 6665   0.634   6.419   5.339  0.4171  0.1854 -0.1692
   75CHL1    H6 6666   0.589   6.503   5.285  0.5169  1.3592  1.4951
   75CHL1    C7 6667   0.632   6.446   5.484  0.2194 -0.8597 -1.0601
   75CHL1   H7A 6668   0.682   6.545   5.490  4.3908 -2.7956 -0.7018
   75CHL1   H7B 6669   0.526   6.444   5.517 -0.0317  2.1835 -1.4258
   75CHL1    C8 6670   0.725   6.344   5.565  0.0943  0.0135 -0.0548
   75CHL1    H8 6671   0.827   6.384   5.578 -0.4234  0.8052  2.0463
   75CHL1   C14 6672   0.674   6.332   5.712 -0.7393  0.6459  0.5041
   75CHL1   H14 6673   0.566   6.305   5.715 -0.4563 -0.4519  1.3089
   75CHL1   C15 6674   0.679   6.462   5.799 -0.0795 -0.4137  0.6532
   75CHL1  H15A 6675   0.781   6.507   5.795  0.0386 -0.6869  0.5521
   75CHL1  H15B 6676   0.599   6.534   5.772  0.4139  0.6796  1.9761
   75CHL1   C16 6677   0.648   6.410   5.939  0.3017 -0.0848  0.1702
   75CHL1  H16A 6678   0.724   6.443   6.013  0.7687 -1.7226  0.4551
   75CHL1  H16B 6679   0.556   6.450   5.987  0.1659 -0.2045  0.0087
   75CHL1   C17 6680   0.655   6.252   5.938 -0.2837 -0.6580 -0.4372
   75CHL1   H17 6681   0.552   6.212   5.935 -1.3664  1.5616  2.4152
   75CHL1   C13 6682   0.726   6.225   5.806 -0.0594 -0.2944  0.8697
   75CHL1   C18 6683   0.875   6.247   5.823  0.0555 -0.8039  0.0330
   75CHL1  H18A 6684   0.897   6.351   5.855 -3.7220 -0.4799  2.0973
   75CHL1  H18B 6685   0.914   6.162   5.883  0.7334 -0.8068 -0.3972
   75CHL1  H18C 6686   0.923   6.247   5.723  0.6829 -0.2161  0.3214
   75CHL1   C12 6687   0.702   6.094   5.739 -0.1922  0.3925 -0.2469
   75CHL1  H12A 6688   0.745   6.006   5.791  1.9984  0.8335 -1.1938
   75CHL1  H12B 6689   0.591   6.086   5.748 -0.1742  0.0966 -0.2890
   75CHL1   C11 6690   0.751   6.084   5.600 -0.9326  0.5396  0.2246
   75CHL1  H11A 6691   0.859   6.073   5.620 -1.5139 -1.9665  2.5416
   75CHL1  H11B 6692   0.717   5.989   5.552  1.1876 -0.2610  0.2035
   75CHL1    C9 6693   0.710   6.206   5.510 -0.1610  0.9914 -0.1111
   75CHL1    H9 6694   0.600   6.192   5.498 -0.3716  0.4773  1.9821
   75CHL1   C10 6695   0.756   6.198   5.361 -0.4069  0.5515 -0.3342
   75CHL1   C19 6696   0.905   6.198   5.372 -0.3974 -0.4139 -0.1589
   75CHL1  H19A 6697   0.930   6.293   5.424 -0.5710 -1.0869  1.2057
   75CHL1  H19B 6698   0.939   6.117   5.440  1.0455  1.4909  1.5112
   75CHL1  H19C 6699   0.959   6.191   5.275 -0.1555 -0.3922 -0.0256
   75CHL1    C1 6700   0.714   6.060   5.304 -0.4632 -0.5180 -0.0936
   75CHL1   H1A 6701   0.776   5.980   5.350 -0.5357 -1.0659 -0.9227
   75CHL1   H1B 6702   0.611   6.035   5.336  0.2601 -2.3566  1.0019
   75CHL1    C2 6703   0.730   6.054   5.155 -0.1768 -0.6321 -0.1674
   75CHL1   H2A 6704   0.675   5.965   5.119  0.1957 -0.7035 -0.5570
   75CHL1   H2B 6705   0.831   6.040   5.112  0.1401 -0.3589  0.4644
   75CHL1   C20 6706   0.713   6.192   6.069 -0.6394 -0.0518 -0.5806
   75CHL1   H20 6707   0.822   6.214   6.077 -0.2820  0.0580 -4.1275
   75CHL1   C21 6708   0.709   6.044   6.064  0.6554  0.5610 -0.6668
   75CHL1  H21A 6709   0.606   6.004   6.051  0.0251  1.3115  1.6807
   75CHL1  H21B 6710   0.738   6.004   6.163  1.5787 -0.3008 -1.2561
   75CHL1  H21C 6711   0.782   5.995   5.995  1.0999  0.5809 -0.2143
   75CHL1   C22 6712   0.640   6.250   6.200 -0.0531 -0.4528  0.2519
   75CHL1  H22A 6713   0.676   6.193   6.288 -1.2645  1.0126  1.7874
   75CHL1  H22B 6714   0.673   6.356   6.206  0.8433 -0.7445  0.5638
   75CHL1   C23 6715   0.483   6.229   6.206 -0.2317 -0.0971 -0.0661
   75CHL1  H23A 6716   0.439   6.292   6.126 -1.5781 -0.0105  0.7199
   75CHL1  H23B 6717   0.451   6.125   6.184 -3.8152  0.0886  3.2526
   75CHL1   C24 6718   0.425   6.267   6.346  0.0272  0.0110 -0.1608
   75CHL1  H24A 6719   0.486   6.230   6.432  1.7214 -0.7973 -1.6326
   75CHL1  H24B 6720   0.421   6.378   6.350  2.3531  0.2671 -2.5715
   75CHL1   C25 6721   0.278   6.219   6.373  0.3370  0.3393 -0.2436
   75CHL1   H25 6722   0.265   6.110   6.392 -0.3239  0.7082  1.5820
   75CHL1   C26 6723   0.227   6.283   6.504  0.1222 -0.2102  0.0829
   75CHL1  H26A 6724   0.119   6.264   6.525 -0.2400 -0.0225 -1.5025
   75CHL1  H26B 6725   0.295   6.266   6.591 -0.2800  0.7267  0.6045
   75CHL1  H26C 6726   0.225   6.394   6.495 -1.2502 -0.2690 -0.5672
   75CHL1   C27 6727   0.179   6.262   6.261 -0.6351 -0.2358 -0.2201
   75CHL1  H27A 6728   0.164   6.372   6.259  1.1579  0.1007  1.2751
   75CHL1  H27B 6729   0.224   6.242   6.162 -1.6094  0.8630 -0.9164
   75CHL1  H27C 6730   0.082   6.206   6.264 -0.9404  0.3220  0.6228
   76CHL1    C3 6731   6.066   0.172   5.556  0.7477  0.5732  0.2647
   76CHL1    H3 6732   5.996   0.108   5.613  1.0032  1.2319  1.3445
   76CHL1    O3 6733   6.090   0.130   5.425  0.4252 -0.2088  0.0631
   76CHL1   H3' 6734   6.182   0.154   5.416 -0.2277  3.6403  1.5455
   76CHL1    C4 6735   6.012   0.313   5.549 -1.1512  0.1210 -0.0605
   76CHL1   H4A 6736   6.081   0.379   5.492 -1.2673  1.5828  1.3751
   76CHL1   H4B 6737   5.916   0.300   5.495  0.4310 -3.0057 -2.4387
   76CHL1    C5 6738   5.998   0.365   5.694 -0.7065 -0.6441  0.0910
   76CHL1    C6 6739   5.877   0.411   5.730 -0.5009 -0.2578 -1.2480
   76CHL1    H6 6740   5.794   0.402   5.659 -1.5294 -1.2659  0.0196
   76CHL1    C7 6741   5.846   0.454   5.876 -0.0772  0.3917  0.4817
   76CHL1   H7A 6742   5.783   0.545   5.878 -0.2187  0.2819  1.5303
   76CHL1   H7B 6743   5.797   0.370   5.928 -0.6483  1.0914  1.0861
   76CHL1    C8 6744   5.970   0.501   5.951 -0.2163  0.3358 -0.3738
   76CHL1    H8 6745   6.009   0.592   5.901 -0.3242  0.3888 -0.3618
   76CHL1   C14 6746   5.937   0.526   6.094  0.3230 -0.1150  0.1644
   76CHL1   H14 6747   5.908   0.424   6.128  0.8989 -0.2928  0.1352
   76CHL1   C15 6748   5.815   0.621   6.128  0.6305  0.2879  0.2986
   76CHL1  H15A 6749   5.824   0.721   6.079  0.3033  0.2770  0.2137
   76CHL1  H15B 6750   5.712   0.583   6.107 -0.0113  2.0634  0.0152
   76CHL1   C16 6751   5.822   0.631   6.280 -0.3132 -0.2396 -0.2192
   76CHL1  H16A 6752   5.804   0.735   6.312 -0.3338 -0.0492 -0.8292
   76CHL1  H16B 6753   5.751   0.570   6.340  0.0843  0.5735  1.0988
   76CHL1   C17 6754   5.966   0.581   6.323  0.4998 -0.2554  0.5079
   76CHL1   H17 6755   5.950   0.476   6.356 -0.3880  0.2292  1.7085
   76CHL1   C13 6756   6.045   0.575   6.187 -0.6030  0.2605 -0.8112
   76CHL1   C18 6757   6.090   0.716   6.148  0.0890 -0.4165 -0.3201
   76CHL1  H18A 6758   6.016   0.794   6.173 -0.4877 -1.2096  0.4972
   76CHL1  H18B 6759   6.182   0.745   6.205 -0.4918 -0.7868  0.8467
   76CHL1  H18C 6760   6.114   0.711   6.040  3.1478 -0.4905  0.2592
   76CHL1   C12 6761   6.159   0.468   6.185 -0.6836  0.4004 -1.0064
   76CHL1  H12A 6762   6.248   0.504   6.242 -0.0012 -2.9359  0.2395
   76CHL1  H12B 6763   6.120   0.380   6.240 -0.4400  0.4815 -0.7005
   76CHL1   C11 6764   6.192   0.427   6.037 -0.1757  0.4419  0.5817
   76CHL1  H11A 6765   6.242   0.514   5.989  0.8853  0.0377  0.9101
   76CHL1  H11B 6766   6.259   0.338   6.027  0.4185  1.1810 -3.5217
   76CHL1    C9 6767   6.082   0.386   5.936  0.0140 -0.3192  0.6277
   76CHL1    H9 6768   6.034   0.294   5.976 -1.2807  0.6292  1.3616
   76CHL1   C10 6769   6.124   0.363   5.790  0.5836  0.4303 -0.2012
   76CHL1   C19 6770   6.219   0.477   5.745  0.1657 -0.0065  0.0289
   76CHL1  H19A 6771   6.186   0.577   5.781 -0.0192 -0.0554 -0.0033
   76CHL1  H19B 6772   6.323   0.467   5.781 -0.3015 -1.2786  1.1034
   76CHL1  H19C 6773   6.230   0.494   5.636  0.6351  1.4957  0.2867
   76CHL1    C1 6774   6.184   0.220   5.779  0.5694 -0.2780  1.2391
   76CHL1   H1A 6775   6.285   0.215   5.826  2.0935 -0.3146 -1.8057
   76CHL1   H1B 6776   6.107   0.153   5.821 -0.5079 -0.5902 -1.1090
   76CHL1    C2 6777   6.210   0.176   5.625 -0.0252 -0.1508 -1.0088
   76CHL1   H2A 6778   6.263   0.079   5.628  2.0688  0.9414 -0.1411
   76CHL1   H2B 6779   6.282   0.254   5.594 -0.0297  0.5012  0.4927
   76CHL1   C20 6780   6.019   0.656   6.449  0.1183 -0.0002  0.7310
   76CHL1   H20 6781   5.998   0.765   6.438  2.6019  0.3183 -1.8543
   76CHL1   C21 6782   6.165   0.628   6.465 -0.8040  0.2834 -0.0563
   76CHL1  H21A 6783   6.237   0.673   6.394 -1.2790  1.4869  0.2000
   76CHL1  H21B 6784   6.182   0.519   6.457 -1.5745  0.1950 -0.5326
   76CHL1  H21C 6785   6.195   0.659   6.568  1.7612  1.9025 -1.1908
   76CHL1   C22 6786   5.922   0.606   6.565 -0.0319 -0.5035  0.6316
   76CHL1  H22A 6787   5.818   0.631   6.535 -0.2161 -2.0499 -0.1403
   76CHL1  H22B 6788   5.923   0.495   6.576 -0.4776 -0.7781 -1.6271
   76CHL1   C23 6789   5.963   0.672   6.697 -0.2469 -0.0208  0.6844
   76CHL1  H23A 6790   6.066   0.639   6.723  0.0072  1.1725  1.2681
   76CHL1  H23B 6791   5.957   0.781   6.672 -1.2490 -0.7435 -2.7906
   76CHL1   C24 6792   5.873   0.644   6.814 -0.0173  0.3287 -0.1147
   76CHL1  H24A 6793   5.766   0.661   6.792  0.3892  0.3069 -2.2701
   76CHL1  H24B 6794   5.880   0.536   6.836  1.2097  0.0007 -1.9200
   76CHL1   C25 6795   5.886   0.733   6.938  0.5606 -0.4517 -0.0821
   76CHL1   H25 6796   5.838   0.680   7.024  0.1609 -0.9711 -0.6160
   76CHL1   C26 6797   6.033   0.732   6.977 -0.6933 -0.0132 -0.0596
   76CHL1  H26A 6798   6.053   0.757   7.083  0.5999 -1.9828  0.2114
   76CHL1  H26B 6799   6.056   0.624   6.967  0.2810  0.3047 -1.5842
   76CHL1  H26C 6800   6.091   0.784   6.897 -0.8385 -0.7806 -0.6743
   76CHL1   C27 6801   5.823   0.878   6.922 -0.1540  0.4766 -0.2375
   76CHL1  H27A 6802   5.872   0.938   7.001  0.5984 -3.1493  2.2965
   76CHL1  H27B 6803   5.854   0.917   6.823  1.3568  4.1718  1.5106
   76CHL1  H27C 6804   5.712   0.879   6.929 -0.2191  0.5986 -1.1692
   77SOPE     N 6805   2.411   5.831   8.828 -0.1975 -0.0227 -0.0035
   77SOPE   HN1 6806   2.307   5.832   8.822 -0.1865 -1.3406 -0.9113
   77SOPE   HN2 6807   2.437   5.733   8.855  1.2310  0.6696  1.3288
   77SOPE   HN3 6808   2.430   5.892   8.910  0.8488 -0.6353  0.2368
   77SOPE   C12 6809   2.471   5.885   8.710 -0.8147 -0.0423 -0.2524
   77SOPE  H12A 6810   2.432   5.988   8.699 -1.5796 -0.1891  0.9846
   77SOPE  H12B 6811   2.442   5.830   8.617  2.0478 -0.1257 -1.1943
   77SOPE   C11 6812   2.622   5.879   8.739 -0.1634  0.3823 -0.4806
   77SOPE  H11A 6813   2.668   5.902   8.641 -1.1524 -2.8676 -1.8345
   77SOPE  H11B 6814   2.648   5.776   8.770 -0.7127  0.5457  0.5693
   77SOPE     P 6815   2.716   6.098   8.816  0.0213 -0.4824 -0.1195
   77SOPE   O13 6816   2.863   6.090   8.789  0.3742 -0.5934  0.1947
   77SOPE   O14 6817   2.674   6.179   8.932 -0.2411  0.6268 -0.1613
   77SOPE   O12 6818   2.666   5.957   8.849 -0.2832  0.0547  0.4643
   77SOPE   O11 6819   2.636   6.153   8.692 -0.1741 -0.2039 -0.4589
   77SOPE    C1 6820   2.704   6.222   8.580  0.5444  0.8315 -0.2407
   77SOPE    HA 6821   2.800   6.170   8.561 -0.8815 -2.2852  0.5583
   77SOPE    HB 6822   2.722   6.331   8.593  1.2127  0.7770 -0.6504
   77SOPE    C2 6823   2.627   6.214   8.449  0.6609 -0.0706 -0.1433
   77SOPE    HS 6824   2.644   6.114   8.404 -3.0649 -1.7233  1.7304
   77SOPE   O21 6825   2.679   6.313   8.361  0.5603  0.2676 -0.1058
   77SOPE   C21 6826   2.804   6.306   8.323 -0.2643  1.2393 -0.1689
   77SOPE   O22 6827   2.884   6.220   8.354 -0.0216 -0.2830  0.5683
   77SOPE   C22 6828   2.833   6.418   8.212 -0.6360  0.0046 -0.1753
   77SOPE   H2R 6829   2.902   6.496   8.252  1.7627 -2.2965  0.4785
   77SOPE   H2S 6830   2.736   6.464   8.183 -0.7595 -0.5589 -0.6663
   77SOPE    C3 6831   2.477   6.244   8.461  0.2494  0.3007  0.1256
   77SOPE    HX 6832   2.461   6.341   8.512 -2.2235  0.3492 -0.5990
   77SOPE    HY 6833   2.429   6.174   8.533  0.1412  1.5084  1.2649
   77SOPE   O31 6834   2.402   6.236   8.335  0.1331  0.0773 -0.1738
   77SOPE   C31 6835   2.386   6.360   8.279 -0.6756 -0.4414 -0.0741
   77SOPE   O32 6836   2.401   6.467   8.334 -0.1336  0.6003 -0.0315
   77SOPE   C32 6837   2.336   6.333   8.134 -0.0385 -0.0399 -0.1122
   77SOPE   H2X 6838   2.230   6.301   8.142  0.0789 -0.2473  0.7338
   77SOPE   H2Y 6839   2.392   6.255   8.080 -0.0936  1.7339 -2.9226
   77SOPE   C23 6840   2.910   6.355   8.090  0.3833 -0.2364  0.6513
   77SOPE   H3R 6841   2.875   6.253   8.064  1.1451  0.2196 -2.4577
   77SOPE   H3S 6842   3.020   6.345   8.104 -0.0935 -2.3522  4.6677
   77SOPE   C24 6843   2.889   6.442   7.963 -0.4440  0.2390 -0.2152
   77SOPE   H4R 6844   2.782   6.441   7.932  0.5705  0.5811 -4.3127
   77SOPE   H4S 6845   2.924   6.546   7.982 -0.0686  0.1953 -0.6272
   77SOPE   C25 6846   2.974   6.402   7.841 -0.2062  0.9961 -0.4858
   77SOPE   H5R 6847   3.083   6.415   7.857 -0.1001  0.2775 -0.5888
   77SOPE   H5S 6848   2.956   6.293   7.826 -0.0204  0.0631  4.3559
   77SOPE   C26 6849   2.921   6.465   7.709 -0.3433 -0.1225  0.4423
   77SOPE   H6R 6850   2.813   6.440   7.700 -0.7868  0.6534  2.7914
   77SOPE   H6S 6851   2.930   6.576   7.715 -0.4670  0.0691 -2.0414
   77SOPE   C27 6852   2.993   6.413   7.583 -0.3071  0.2679 -0.2171
   77SOPE   H7R 6853   3.088   6.471   7.572 -1.0676  1.2741 -1.8503
   77SOPE   H7S 6854   3.015   6.305   7.594  1.9376  0.3899 -2.6053
   77SOPE   C28 6855   2.906   6.418   7.457 -0.0033  0.1380  0.1007
   77SOPE   H8R 6856   2.823   6.346   7.466  0.5564 -0.3572  1.5951
   77SOPE   H8S 6857   2.873   6.523   7.444  0.3590  0.0352 -1.8927
   77SOPE   C29 6858   2.996   6.399   7.333 -0.3351 -0.1608 -0.6639
   77SOPE   H91 6859   3.102   6.392   7.361 -0.2166  0.7968 -0.8405
   77SOPE  C210 6860   2.968   6.407   7.203 -0.0174  0.4454  0.1172
   77SOPE  H101 6861   3.043   6.400   7.123 -1.7374 -0.5935 -1.4832
   77SOPE  C211 6862   2.828   6.426   7.147 -0.8249  0.3670  0.3575
   77SOPE  H11R 6863   2.819   6.533   7.115 -2.8068 -0.0581 -0.6214
   77SOPE  H11S 6864   2.745   6.405   7.217 -2.0348 -4.6308 -2.1286
   77SOPE  C212 6865   2.798   6.343   7.028  0.1133 -0.0664  0.3778
   77SOPE  H12R 6866   2.806   6.236   7.059  1.7264  0.4239  1.8154
   77SOPE  H12S 6867   2.865   6.360   6.941 -1.0432  1.3605 -0.2582
   77SOPE  C213 6868   2.668   6.370   6.970  0.2514 -0.2521  0.8055
   77SOPE  H13R 6869   2.668   6.472   6.926 -1.0440  0.3377  2.1049
   77SOPE  H13S 6870   2.586   6.377   7.044  0.5296  1.3872  0.9985
   77SOPE  C214 6871   2.621   6.266   6.867 -1.2552  0.2784 -0.0025
   77SOPE  H14R 6872   2.705   6.241   6.798 -0.8557 -2.6059  1.3860
   77SOPE  H14S 6873   2.533   6.316   6.821 -2.6644 -0.4170  1.8182
   77SOPE  C215 6874   2.564   6.138   6.932  0.2675 -0.3496  0.4264
   77SOPE  H15R 6875   2.599   6.130   7.037  2.3124  0.6055 -0.1314
   77SOPE  H15S 6876   2.596   6.044   6.882  1.5799  1.1458 -1.7151
   77SOPE  C216 6877   2.409   6.140   6.942  0.6043  1.0988  0.4861
   77SOPE  H16R 6878   2.377   6.218   7.013  0.2057  1.3498  0.0346
   77SOPE  H16S 6879   2.368   6.046   6.985 -2.4246  0.5337 -3.0834
   77SOPE  C217 6880   2.332   6.164   6.808 -0.3435 -0.4184  0.5006
   77SOPE  H17R 6881   2.361   6.102   6.720  0.8793 -0.8470  1.1839
   77SOPE  H17S 6882   2.345   6.273   6.790  1.0428 -0.7068 -0.4319
   77SOPE  C218 6883   2.181   6.146   6.833  0.1565 -0.5008  0.7187
   77SOPE  H18R 6884   2.159   6.039   6.853  1.2869 -1.0193 -0.6317
   77SOPE  H18S 6885   2.131   6.184   6.743  0.4818 -2.1416 -0.2055
   77SOPE  H18T 6886   2.137   6.194   6.923 -0.1079  0.3123  0.1600
   77SOPE   C33 6887   2.338   6.457   8.035 -1.0530 -0.0251  0.5097
   77SOPE   H3X 6888   2.305   6.547   8.092  0.2748  1.7554 -1.4047
   77SOPE   H3Y 6889   2.259   6.440   7.959  0.7068 -0.8809 -1.1912
   77SOPE   C34 6890   2.460   6.488   7.949 -0.6253 -0.2532 -0.5522
   77SOPE   H4X 6891   2.489   6.394   7.897  0.8958  0.4215 -0.9945
   77SOPE   H4Y 6892   2.543   6.508   8.020 -2.3291 -0.6821  1.6814
   77SOPE   C35 6893   2.432   6.606   7.856 -1.0262 -0.2776  0.1999
   77SOPE   H5X 6894   2.527   6.663   7.844 -1.7052  1.2067  1.5045
   77SOPE   H5Y 6895   2.372   6.686   7.904 -1.1249 -1.2185  1.6973
   77SOPE   C36 6896   2.377   6.566   7.719 -0.0400 -0.2784 -0.0577
   77SOPE   H6X 6897   2.268   6.546   7.723  0.0586 -0.6030  1.2101
   77SOPE   H6Y 6898   2.419   6.470   7.681 -1.1639 -0.9463  0.3555
   77SOPE   C37 6899   2.404   6.676   7.604  0.3575  0.0884  0.0031
   77SOPE   H7X 6900   2.365   6.774   7.639 -0.4922  0.3978 -1.6944
   77SOPE   H7Y 6901   2.328   6.637   7.534  1.2880 -4.3136  1.1546
   77SOPE   C38 6902   2.543   6.671   7.553 -0.5314  0.2420  0.0677
   77SOPE   H8X 6903   2.592   6.572   7.548  1.7289  1.2572  0.5955
   77SOPE   H8Y 6904   2.605   6.728   7.625  0.5415 -2.8026  1.7227
   77SOPE   C39 6905   2.542   6.741   7.414 -0.1126 -0.4234 -0.0999
   77SOPE   H9X 6906   2.495   6.840   7.428 -2.4242 -1.5853  0.9467
   77SOPE   H9Y 6907   2.472   6.691   7.343  0.1034  1.7446 -1.9418
   77SOPE  C310 6908   2.683   6.769   7.352  0.2609 -0.1709  0.2119
   77SOPE  H10X 6909   2.732   6.670   7.357 -1.6688 -1.1376  1.4313
   77SOPE  H10Y 6910   2.742   6.846   7.406 -1.1381 -0.2228  1.9136
   77SOPE  C311 6911   2.673   6.825   7.216 -0.6776  0.3427  0.7362
   77SOPE  H11X 6912   2.599   6.908   7.211 -1.3772 -0.2817  0.5413
   77SOPE  H11Y 6913   2.621   6.754   7.149 -0.5435  0.3448  0.6292
   77SOPE  C312 6914   2.817   6.851   7.168 -0.5678 -0.8995 -0.2176
   77SOPE  H12X 6915   2.879   6.760   7.159  1.5975  0.3998  0.8020
   77SOPE  H12Y 6916   2.871   6.931   7.224 -0.1816  1.2053 -3.2878
   77SOPE  C313 6917   2.815   6.905   7.020  0.4679 -0.4013 -0.4837
   77SOPE  H13X 6918   2.761   7.002   7.012  0.7979 -0.2701 -1.2337
   77SOPE  H13Y 6919   2.734   6.847   6.971 -1.2797  2.1877 -0.8786
   77SOPE  C314 6920   2.953   6.909   6.951  0.5329 -0.2565  0.1618
   77SOPE  H14X 6921   3.001   6.809   6.954  2.5016  0.6600  1.1930
   77SOPE  H14Y 6922   3.017   6.986   6.999 -0.7450  0.8991  0.0948
   77SOPE  C315 6923   2.923   6.952   6.809 -0.0766 -0.5115 -1.2168
   77SOPE  H15X 6924   2.873   7.050   6.822 -0.0494 -0.6273 -0.0664
   77SOPE  H15Y 6925   2.857   6.874   6.765 -0.2029 -0.7740 -0.5816
   77SOPE  C316 6926   3.045   6.957   6.722  0.4681  0.1594  0.2897
   77SOPE  H16X 6927   3.089   6.857   6.703  2.4267  0.7669  1.3312
   77SOPE  H16Y 6928   3.125   7.015   6.773  2.2528 -0.7770 -1.2955
   77SOPE  C317 6929   3.014   7.035   6.586  0.0060 -0.0030 -0.6809
   77SOPE  H17X 6930   2.944   6.970   6.530 -1.1133 -1.3116  2.0552
   77SOPE  H17Y 6931   3.107   7.047   6.526  0.4100  1.5875  0.1980
   77SOPE  C318 6932   2.961   7.178   6.595  0.4370 -0.0626 -0.1423
   77SOPE  H18X 6933   2.940   7.211   6.491 -0.2109 -2.3588 -0.8024
   77SOPE  H18Y 6934   3.026   7.254   6.643  0.1380  0.0442  0.1020
   77SOPE  H18Z 6935   2.860   7.175   6.642  0.1805 -0.5782 -0.7070
   78SOPE     N 6936   2.515   4.664   8.751  0.0662  0.0970 -0.0023
   78SOPE   HN1 6937   2.481   4.762   8.759 -0.0093  0.1021 -0.3610
   78SOPE   HN2 6938   2.615   4.656   8.780 -0.1465 -3.1644  0.1763
   78SOPE   HN3 6939   2.500   4.630   8.654 -2.1300 -0.5691  0.5152
   78SOPE   C12 6940   2.427   4.577   8.839  0.3291 -0.6601  0.2908
   78SOPE  H12A 6941   2.408   4.625   8.937 -2.0479  0.4398 -0.6492
   78SOPE  H12B 6942   2.482   4.482   8.859  1.0659 -0.4645 -0.6841
   78SOPE   C11 6943   2.294   4.537   8.763  0.2542 -0.1969 -0.1790
   78SOPE  H11A 6944   2.312   4.475   8.673 -1.2943  1.7191 -1.9212
   78SOPE  H11B 6945   2.264   4.639   8.732  1.3459  0.3364  0.4824
   78SOPE     P 6946   2.164   4.320   8.828  0.2409 -0.3723  0.1622
   78SOPE   O13 6947   2.051   4.290   8.916 -0.5530  0.0444 -0.0314
   78SOPE   O14 6948   2.291   4.244   8.854 -0.2315 -0.2353 -0.2046
   78SOPE   O12 6949   2.194   4.472   8.848  0.2860  0.1041 -0.1891
   78SOPE   O11 6950   2.127   4.301   8.674  0.4148 -0.1033 -0.2364
   78SOPE    C1 6951   1.999   4.357   8.628  0.3022  0.8714 -0.4074
   78SOPE    HA 6952   2.010   4.393   8.524  0.6906  2.4285  0.1352
   78SOPE    HB 6953   1.949   4.436   8.689 -1.8398 -0.5429 -0.2480
   78SOPE    C2 6954   1.885   4.243   8.629  1.0003 -0.2512  0.1205
   78SOPE    HS 6955   1.883   4.201   8.732 -1.3243 -0.6693 -0.0518
   78SOPE   O21 6956   1.924   4.146   8.528 -0.2051  0.5769  0.3316
   78SOPE   C21 6957   1.859   4.032   8.537 -0.3980  0.0992 -0.0618
   78SOPE   O22 6958   1.767   4.012   8.618 -0.4012  0.3745 -0.0235
   78SOPE   C22 6959   1.938   3.929   8.453  0.2164 -0.2022 -0.4332
   78SOPE   H2R 6960   1.988   3.876   8.536 -1.3240 -3.0725 -1.2277
   78SOPE   H2S 6961   2.011   3.971   8.381  2.2263 -3.7788 -0.7080
   78SOPE    C3 6962   1.748   4.308   8.591 -0.7670 -0.0240  0.3298
   78SOPE    HX 6963   1.717   4.378   8.672 -0.3688  2.9063 -1.8619
   78SOPE    HY 6964   1.667   4.234   8.575 -0.2158 -0.2093 -1.9680
   78SOPE   O31 6965   1.768   4.401   8.478  0.1238 -0.6429 -0.8640
   78SOPE   C31 6966   1.744   4.355   8.357  0.0838  0.0568  0.4305
   78SOPE   O32 6967   1.697   4.246   8.339 -0.0806 -0.4850 -0.1185
   78SOPE   C32 6968   1.795   4.458   8.254 -0.2609  0.2247 -0.7612
   78SOPE   H2X 6969   1.894   4.504   8.278  0.7928 -1.3893 -1.8100
   78SOPE   H2Y 6970   1.722   4.542   8.256 -2.9105 -1.9040  1.7756
   78SOPE   C23 6971   1.846   3.835   8.370 -0.0045 -0.4162 -0.5739
   78SOPE   H3R 6972   1.761   3.796   8.429  0.8710  2.7298  3.1454
   78SOPE   H3S 6973   1.914   3.754   8.336 -0.8093 -2.2668  1.8993
   78SOPE   C24 6974   1.814   3.908   8.237 -0.3761 -0.4052 -1.3047
   78SOPE   H4R 6975   1.782   4.012   8.258 -3.3053 -1.2462 -1.0420
   78SOPE   H4S 6976   1.899   3.912   8.165  0.7390  0.1985 -0.0003
   78SOPE   C25 6977   1.694   3.850   8.163 -0.1121 -0.2165  0.2088
   78SOPE   H5R 6978   1.700   3.739   8.160  0.2074 -0.2314  1.0563
   78SOPE   H5S 6979   1.604   3.882   8.220  0.1431  0.5007  0.2127
   78SOPE   C26 6980   1.678   3.921   8.024  0.2004  0.1363  0.3093
   78SOPE   H6R 6981   1.571   3.920   7.992  0.2411  0.9927  0.1269
   78SOPE   H6S 6982   1.700   4.030   8.028 -2.1662  0.6810  0.2684
   78SOPE   C27 6983   1.757   3.838   7.913 -0.0586 -0.6046 -0.3879
   78SOPE   H7R 6984   1.868   3.840   7.922 -0.0003  0.6563 -1.1645
   78SOPE   H7S 6985   1.716   3.736   7.927 -1.4214 -0.0462 -0.1275
   78SOPE   C28 6986   1.734   3.891   7.773  0.4999 -0.1377  0.3598
   78SOPE   H8R 6987   1.759   3.807   7.705  1.7058 -1.2065  2.0580
   78SOPE   H8S 6988   1.624   3.908   7.767  0.5717  0.5272  0.7755
   78SOPE   C29 6989   1.806   4.014   7.717  0.1465  0.2567 -0.2754
   78SOPE   H91 6990   1.906   4.025   7.762  0.5615  1.1905 -1.3829
   78SOPE  C210 6991   1.768   4.115   7.635  0.1481 -0.1483 -0.0259
   78SOPE  H101 6992   1.839   4.195   7.609  0.2566  0.5837  2.2946
   78SOPE  C211 6993   1.639   4.104   7.551 -0.1627  0.2569  0.0958
   78SOPE  H11R 6994   1.566   4.187   7.570 -0.0412  0.7626 -1.4974
   78SOPE  H11S 6995   1.574   4.015   7.566 -0.6779  0.3379 -1.4565
   78SOPE  C212 6996   1.669   4.114   7.397 -0.2377  0.1253 -0.6093
   78SOPE  H12R 6997   1.729   4.025   7.369 -0.2893  0.2962 -1.2692
   78SOPE  H12S 6998   1.735   4.203   7.388 -0.1867  0.0433 -1.0629
   78SOPE  C213 6999   1.538   4.123   7.316  0.5376  0.9606 -0.3433
   78SOPE  H13R 7000   1.482   4.212   7.353  0.4036  1.1277 -0.9368
   78SOPE  H13S 7001   1.483   4.028   7.332  0.9872  0.3533 -2.1223
   78SOPE  C214 7002   1.564   4.134   7.160 -0.6438  0.0915 -0.2627
   78SOPE  H14R 7003   1.597   4.231   7.117 -0.5729 -0.2993 -1.1175
   78SOPE  H14S 7004   1.466   4.109   7.113 -1.5225  0.9129  1.0590
   78SOPE  C215 7005   1.651   4.019   7.116  0.1042 -0.3550  0.0041
   78SOPE  H15R 7006   1.606   3.923   7.150  2.3305 -2.2616 -2.0337
   78SOPE  H15S 7007   1.752   4.027   7.160 -0.7993  0.2728  2.0981
   78SOPE  C216 7008   1.653   4.001   6.969  0.6254 -0.4211 -0.2541
   78SOPE  H16R 7009   1.669   4.098   6.918 -1.2629  0.5367  0.8944
   78SOPE  H16S 7010   1.550   3.966   6.945  0.5141 -1.5685  1.6675
   78SOPE  C217 7011   1.772   3.922   6.919 -0.4114  0.7746 -0.4925
   78SOPE  H17R 7012   1.779   3.824   6.971  0.1074  0.5434 -0.9886
   78SOPE  H17S 7013   1.859   3.979   6.958 -1.1322 -0.1440  2.8033
   78SOPE  C218 7014   1.779   3.901   6.770 -0.0309 -0.2816  0.2043
   78SOPE  H18R 7015   1.807   3.999   6.725  0.6260  0.6325  2.4853
   78SOPE  H18S 7016   1.676   3.878   6.733  0.4949 -2.6312  0.0746
   78SOPE  H18T 7017   1.858   3.826   6.752 -1.1075 -1.4427  0.1301
   78SOPE   C33 7018   1.800   4.399   8.108  0.4459 -0.1489 -0.0994
   78SOPE   H3X 7019   1.710   4.338   8.083  0.3143  0.2887 -0.7045
   78SOPE   H3Y 7020   1.888   4.331   8.102  0.1760 -0.5022 -0.0711
   78SOPE   C34 7021   1.794   4.501   7.997 -0.0320  0.0886  0.6558
   78SOPE   H4X 7022   1.877   4.574   8.008 -0.4961  0.7337 -0.0374
   78SOPE   H4Y 7023   1.702   4.562   8.009  0.3210  0.4756  1.4947
   78SOPE   C35 7024   1.804   4.439   7.858  0.4681 -0.0326  0.1133
   78SOPE   H5X 7025   1.700   4.405   7.837 -0.2543  2.2765 -0.2656
   78SOPE   H5Y 7026   1.874   4.353   7.846  1.5363  0.5109  1.9841
   78SOPE   C36 7027   1.833   4.537   7.741 -0.6725  0.4681  0.0822
   78SOPE   H6X 7028   1.940   4.566   7.748 -0.8281  0.8162  1.1976
   78SOPE   H6Y 7029   1.781   4.634   7.754  0.5372  1.0826  0.5260
   78SOPE   C37 7030   1.802   4.475   7.603 -0.2199  0.6458 -0.9914
   78SOPE   H7X 7031   1.700   4.431   7.594 -0.3154  0.8704 -1.0105
   78SOPE   H7Y 7032   1.864   4.383   7.590  1.9376  1.9751 -0.6687
   78SOPE   C38 7033   1.827   4.561   7.487 -0.0112 -0.3738  0.1831
   78SOPE   H8X 7034   1.824   4.504   7.391 -0.4425 -0.3037  0.1501
   78SOPE   H8Y 7035   1.929   4.603   7.502  0.1985 -0.8451  0.0715
   78SOPE   C39 7036   1.724   4.679   7.472  0.0392 -0.8592  0.3506
   78SOPE   H9X 7037   1.716   4.730   7.571  2.0656 -0.0616  0.1691
   78SOPE   H9Y 7038   1.625   4.646   7.436 -0.0170 -0.8286  0.4753
   78SOPE  C310 7039   1.763   4.794   7.379 -0.3694 -0.5245  0.5893
   78SOPE  H10X 7040   1.870   4.817   7.395  0.0352 -1.5522 -0.4490
   78SOPE  H10Y 7041   1.712   4.892   7.391  0.3911  0.5044 -3.1553
   78SOPE  C311 7042   1.730   4.762   7.236 -0.2148 -0.3641 -0.2117
   78SOPE  H11X 7043   1.714   4.654   7.219 -2.0683 -0.2593  0.6695
   78SOPE  H11Y 7044   1.811   4.792   7.165 -0.8278 -2.0808 -1.7027
   78SOPE  C312 7045   1.601   4.827   7.199 -0.0555 -0.8812 -0.6650
   78SOPE  H12X 7046   1.614   4.937   7.211  2.2842 -1.2406  0.8385
   78SOPE  H12Y 7047   1.522   4.787   7.266 -0.1331 -0.2811 -0.3899
   78SOPE  C313 7048   1.552   4.809   7.060 -0.4042 -0.0495  0.0399
   78SOPE  H13X 7049   1.524   4.705   7.031 -0.8658  0.4023 -1.1638
   78SOPE  H13Y 7050   1.631   4.844   6.990 -1.7813  1.1138 -0.9801
   78SOPE  C314 7051   1.438   4.910   7.032 -0.0703 -0.5974 -0.1235
   78SOPE  H14X 7052   1.480   5.008   7.063  0.5909  0.0068 -2.6716
   78SOPE  H14Y 7053   1.359   4.887   7.107 -2.5542 -1.4829 -2.8061
   78SOPE  C315 7054   1.384   4.912   6.883 -0.3491  0.2960 -0.9376
   78SOPE  H15X 7055   1.360   4.810   6.846  0.9515 -0.5163  0.3241
   78SOPE  H15Y 7056   1.467   4.954   6.823 -0.8393  2.3920 -0.2127
   78SOPE  C316 7057   1.264   4.991   6.859  0.4013 -0.5314  0.3100
   78SOPE  H16X 7058   1.170   4.965   6.911 -0.1003  0.6729  0.0448
   78SOPE  H16Y 7059   1.234   4.977   6.753  1.5164  0.4915 -0.1737
   78SOPE  C317 7060   1.261   5.147   6.880  0.7651 -0.5059 -0.0128
   78SOPE  H17X 7061   1.345   5.200   6.831  0.9702 -0.0858  0.7686
   78SOPE  H17Y 7062   1.280   5.168   6.988 -0.1028 -0.2581  0.1036
   78SOPE  C318 7063   1.128   5.214   6.822  0.2014  0.3253 -0.1563
   78SOPE  H18X 7064   1.038   5.183   6.878 -0.1892  0.6142 -0.6175
   78SOPE  H18Y 7065   1.116   5.190   6.714 -0.0056 -0.3382  0.0110
   78SOPE  H18Z 7066   1.144   5.324   6.834 -0.3640  0.0913  3.8755
   79SOPE     N 7067   3.735   3.146   8.811 -0.4220  0.1797  0.7069
   79SOPE   HN1 7068   3.780   3.212   8.745  0.6897 -0.4521  0.8105
   79SOPE   HN2 7069   3.804   3.070   8.826 -1.2485 -0.2949  2.2774
   79SOPE   HN3 7070   3.650   3.106   8.766  0.0972 -0.4606  0.2667
   79SOPE   C12 7071   3.720   3.224   8.937  0.6982 -0.4631 -0.4385
   79SOPE  H12A 7072   3.804   3.293   8.960  0.0114  0.0606  0.5926
   79SOPE  H12B 7073   3.707   3.145   9.013  2.0428 -1.5751 -1.3338
   79SOPE   C11 7074   3.589   3.306   8.934  0.0113 -0.2785 -0.0087
   79SOPE  H11A 7075   3.569   3.331   9.041 -0.2178 -3.0200  0.6484
   79SOPE  H11B 7076   3.495   3.254   8.905 -0.9230  1.7855 -0.9131
   79SOPE     P 7077   3.483   3.496   8.783  0.2456 -0.0723 -0.4519
   79SOPE   O13 7078   3.528   3.599   8.687 -0.0503  0.2303  0.3269
   79SOPE   O14 7079   3.387   3.535   8.896  0.2302  0.1929  0.7192
   79SOPE   O12 7080   3.604   3.419   8.847 -0.5718  0.0742 -1.3345
   79SOPE   O11 7081   3.418   3.378   8.698  0.5311 -0.1287  0.1610
   79SOPE    C1 7082   3.487   3.328   8.584  0.8594  0.1188 -0.2752
   79SOPE    HA 7083   3.461   3.221   8.574  0.8071  0.1603 -0.6086
   79SOPE    HB 7084   3.598   3.327   8.595  0.8123  0.5817  0.2783
   79SOPE    C2 7085   3.432   3.389   8.451 -0.0462 -0.2049  0.2463
   79SOPE    HS 7086   3.463   3.322   8.368 -2.1257  0.7981 -1.4293
   79SOPE   O21 7087   3.487   3.522   8.429  0.0948 -0.0921  0.1732
   79SOPE   C21 7088   3.613   3.523   8.385 -1.0687  0.0446 -0.5440
   79SOPE   O22 7089   3.684   3.425   8.366 -0.1350  0.1838  0.8669
   79SOPE   C22 7090   3.658   3.666   8.356 -0.4501 -0.5999 -0.2713
   79SOPE   H2R 7091   3.764   3.657   8.324  0.3737  3.9486  0.6337
   79SOPE   H2S 7092   3.662   3.739   8.439  0.5888  0.3949 -1.1670
   79SOPE    C3 7093   3.272   3.379   8.440  0.3530 -0.3058 -0.3803
   79SOPE    HX 7094   3.222   3.416   8.532 -1.9404 -1.2503 -1.1727
   79SOPE    HY 7095   3.238   3.274   8.431  0.3727 -0.1892 -2.1808
   79SOPE   O31 7096   3.238   3.458   8.328 -0.1673  0.1008  0.2757
   79SOPE   C31 7097   3.108   3.454   8.307 -0.4943  0.0248  0.5393
   79SOPE   O32 7098   3.019   3.392   8.363 -0.4548 -0.0289  0.0803
   79SOPE   C32 7099   3.084   3.574   8.204 -0.1481  0.0965 -0.1584
   79SOPE   H2X 7100   3.149   3.657   8.238 -0.6456  1.0257 -1.3963
   79SOPE   H2Y 7101   2.975   3.597   8.207 -0.4103 -1.1256  0.4043
   79SOPE   C23 7102   3.569   3.729   8.243  0.7316  1.1993  0.2701
   79SOPE   H3R 7103   3.627   3.818   8.210  0.3007  0.7392 -1.8572
   79SOPE   H3S 7104   3.473   3.747   8.295 -1.4353 -2.2429 -2.1572
   79SOPE   C24 7105   3.541   3.642   8.117 -0.1648 -0.1715  0.8565
   79SOPE   H4R 7106   3.477   3.557   8.150  1.9972 -2.3603 -0.2024
   79SOPE   H4S 7107   3.498   3.711   8.042  0.1237 -0.2900  0.5770
   79SOPE   C25 7108   3.667   3.581   8.052  0.5660 -0.3087 -0.3701
   79SOPE   H5R 7109   3.743   3.660   8.038  0.3910 -0.2813 -1.2275
   79SOPE   H5S 7110   3.708   3.498   8.113 -0.1523 -1.7252 -1.7351
   79SOPE   C26 7111   3.628   3.510   7.923  0.5424 -0.0663 -0.5362
   79SOPE   H6R 7112   3.574   3.420   7.959  0.2744  1.3932  3.2555
   79SOPE   H6S 7113   3.558   3.570   7.861  1.3445  0.9767 -0.4673
   79SOPE   C27 7114   3.748   3.472   7.838 -0.8205  1.1068  0.7318
   79SOPE   H7R 7115   3.814   3.415   7.906 -1.3971  0.4914  0.7898
   79SOPE   H7S 7116   3.722   3.393   7.764  1.7523  0.3312  0.5604
   79SOPE   C28 7117   3.823   3.587   7.773 -0.0156  0.9578 -1.0809
   79SOPE   H8R 7118   3.771   3.642   7.692 -1.1414 -1.5203 -2.1355
   79SOPE   H8S 7119   3.842   3.662   7.854  2.7407  0.2695 -0.9734
   79SOPE   C29 7120   3.956   3.542   7.720 -0.1956 -0.5202 -0.1007
   79SOPE   H91 7121   4.037   3.548   7.794  0.4464  1.9696 -0.8935
   79SOPE  C210 7122   3.978   3.496   7.597 -0.2503  0.0674  0.1038
   79SOPE  H101 7123   4.078   3.467   7.563 -0.5514  1.1263 -1.8127
   79SOPE  C211 7124   3.864   3.481   7.499  0.2364  0.4667 -0.0900
   79SOPE  H11R 7125   3.872   3.563   7.424 -1.2378 -2.4120 -3.6426
   79SOPE  H11S 7126   3.769   3.478   7.557  1.7674  0.8232  2.6317
   79SOPE  C212 7127   3.878   3.352   7.423 -0.6951  0.6193 -0.1476
   79SOPE  H12R 7128   3.833   3.272   7.485 -1.4846 -1.0344 -2.7404
   79SOPE  H12S 7129   3.982   3.322   7.398 -1.2186 -1.3439 -0.1054
   79SOPE  C213 7130   3.818   3.361   7.279 -0.0106 -0.4999 -0.7835
   79SOPE  H13R 7131   3.876   3.442   7.229 -1.4367  1.7587  1.0425
   79SOPE  H13S 7132   3.714   3.392   7.301  1.2912  1.6631  3.6381
   79SOPE  C214 7133   3.827   3.232   7.205 -0.0868  0.5561 -0.1849
   79SOPE  H14R 7134   3.791   3.155   7.276 -1.7228  1.3449 -0.1056
   79SOPE  H14S 7135   3.931   3.205   7.176  0.5222  1.8866  0.6460
   79SOPE  C215 7136   3.748   3.230   7.074  0.1111 -0.4967  0.9926
   79SOPE  H15R 7137   3.780   3.312   7.007 -0.1586 -0.5298  0.8247
   79SOPE  H15S 7138   3.644   3.255   7.104 -0.0374  0.3148 -0.1452
   79SOPE  C216 7139   3.737   3.093   7.020 -0.0128  0.0618  0.6235
   79SOPE  H16R 7140   3.696   3.011   7.083 -1.2919  2.0894  2.5570
   79SOPE  H16S 7141   3.837   3.060   6.983 -0.3818 -1.1106  0.6066
   79SOPE  C217 7142   3.648   3.082   6.895  0.2439 -0.2232 -0.3061
   79SOPE  H17R 7143   3.547   3.125   6.914  0.3790 -0.3979  0.8259
   79SOPE  H17S 7144   3.642   2.974   6.866  1.2342  0.3191 -2.8299
   79SOPE  C218 7145   3.715   3.162   6.784  1.4737  0.7120 -0.5780
   79SOPE  H18R 7146   3.824   3.141   6.788  1.3279  0.0341  0.0076
   79SOPE  H18S 7147   3.697   3.270   6.803  1.0739  0.9158 -1.9483
   79SOPE  H18T 7148   3.676   3.152   6.680  1.7472  0.4638 -0.6571
   79SOPE   C33 7149   3.121   3.529   8.065 -0.2965  0.2740  0.3163
   79SOPE   H3X 7150   3.040   3.483   8.005  0.6756  0.1634 -0.9532
   79SOPE   H3Y 7151   3.196   3.447   8.071 -1.6270 -0.9778  0.4027
   79SOPE   C34 7152   3.186   3.642   7.992  0.1164 -0.2919  0.5496
   79SOPE   H4X 7153   3.273   3.683   8.048 -0.7088 -0.3565  1.9026
   79SOPE   H4Y 7154   3.109   3.721   7.987  0.9200  0.4487 -1.4279
   79SOPE   C35 7155   3.240   3.610   7.851 -0.4880  0.1428  0.3150
   79SOPE   H5X 7156   3.303   3.519   7.843 -1.4540 -0.5378  0.3252
   79SOPE   H5Y 7157   3.295   3.705   7.832 -1.7796  0.6991 -0.7640
   79SOPE   C36 7158   3.132   3.584   7.749  0.3519  0.2282  0.1608
   79SOPE   H6X 7159   3.082   3.491   7.783  1.2978  0.1123  1.3144
   79SOPE   H6Y 7160   3.181   3.554   7.654  0.7637 -4.1695  1.5581
   79SOPE   C37 7161   3.035   3.701   7.722 -0.3356  0.0264 -0.1396
   79SOPE   H7X 7162   3.099   3.790   7.703  1.6659 -0.9305  1.7325
   79SOPE   H7Y 7163   2.966   3.715   7.807 -0.1912 -0.5037  0.0662
   79SOPE   C38 7164   2.948   3.680   7.591  0.0559  0.1125  0.2567
   79SOPE   H8X 7165   2.901   3.779   7.573 -0.8529 -0.2427  0.6221
   79SOPE   H8Y 7166   2.868   3.606   7.612 -0.2063  0.5763  0.9349
   79SOPE   C39 7167   3.025   3.638   7.470 -0.3243  0.3427  0.2888
   79SOPE   H9X 7168   3.057   3.532   7.471  0.1843  0.4891  0.7153
   79SOPE   H9Y 7169   3.109   3.710   7.454 -0.0182 -0.1704 -0.4571
   79SOPE  C310 7170   2.928   3.633   7.344 -0.5479  0.2276  0.0129
   79SOPE  H10X 7171   2.864   3.724   7.339 -0.8962  0.0158  0.4854
   79SOPE  H10Y 7172   2.856   3.550   7.359 -1.0421  1.0277  2.6777
   79SOPE  C311 7173   3.006   3.623   7.205 -0.4173 -0.6115  0.1493
   79SOPE  H11X 7174   3.054   3.524   7.190  1.4832 -0.2676  3.1782
   79SOPE  H11Y 7175   3.081   3.704   7.207 -2.0830  1.0905 -1.7019
   79SOPE  C312 7176   2.914   3.646   7.093  0.0377  0.0292  0.3846
   79SOPE  H12X 7177   2.870   3.748   7.102 -1.0613 -0.2687 -1.2045
   79SOPE  H12Y 7178   2.831   3.572   7.092 -0.0429  0.0855  1.5045
   79SOPE  C313 7179   2.993   3.649   6.954  0.4931 -0.2469  0.1242
   79SOPE  H13X 7180   3.034   3.550   6.924 -2.0511 -1.6055  0.7509
   79SOPE  H13Y 7181   3.078   3.715   6.980  0.4484  0.1382 -0.6587
   79SOPE  C314 7182   2.899   3.702   6.841  0.1851  0.2772 -0.1706
   79SOPE  H14X 7183   2.965   3.724   6.754 -1.7097 -0.1541 -1.7826
   79SOPE  H14Y 7184   2.859   3.793   6.892  0.9053 -1.0153  2.9190
   79SOPE  C315 7185   2.792   3.605   6.799 -0.3637 -0.1426 -0.0224
   79SOPE  H15X 7186   2.743   3.554   6.885  1.1293 -0.9684  0.3763
   79SOPE  H15Y 7187   2.828   3.519   6.740  0.7342  0.8898 -0.9103
   79SOPE  C316 7188   2.674   3.677   6.723  0.7584  0.2817 -0.1821
   79SOPE  H16X 7189   2.727   3.739   6.647  0.7918 -0.0339 -0.4180
   79SOPE  H16Y 7190   2.630   3.750   6.794  1.5306 -0.2456  0.8679
   79SOPE  C317 7191   2.564   3.592   6.660 -0.4473  0.2830 -0.1298
   79SOPE  H17X 7192   2.496   3.560   6.742 -0.9495 -3.0044 -1.6996
   79SOPE  H17Y 7193   2.595   3.501   6.605  2.7494  0.9135  0.4448
   79SOPE  C318 7194   2.479   3.682   6.565  0.3633  0.3470  0.2304
   79SOPE  H18X 7195   2.446   3.776   6.612 -1.8239 -0.0293 -0.4266
   79SOPE  H18Y 7196   2.392   3.620   6.533  0.6419  0.8066 -1.5116
   79SOPE  H18Z 7197   2.538   3.708   6.474 -1.8138  0.2688 -1.2863
   80SOPE     N 7198   3.220   3.680   0.182  0.2765  0.1753  0.3240
   80SOPE   HN1 7199   3.270   3.770   0.196  1.4509 -0.6434  1.5968
   80SOPE   HN2 7200   3.179   3.665   0.276 -0.9782  1.9474  0.1184
   80SOPE   HN3 7201   3.289   3.605   0.162 -3.1151 -3.0919 -0.1958
   80SOPE   C12 7202   3.103   3.679   0.081 -0.0981  0.0629  0.0047
   80SOPE  H12A 7203   3.018   3.718   0.140 -0.8321 -1.7776  0.2474
   80SOPE  H12B 7204   3.078   3.573   0.057  2.0523 -0.8681  1.5450
   80SOPE   C11 7205   3.136   3.762  -0.039  0.6715  0.6577 -0.3199
   80SOPE  H11A 7206   3.049   3.761  -0.109  0.7335  0.1063 -0.3875
   80SOPE  H11B 7207   3.217   3.709  -0.092 -1.0393 -1.2808 -1.1463
   80SOPE     P 7208   3.084   4.023  -0.015  0.1242 -0.3721 -0.1009
   80SOPE   O13 7209   3.154   4.151   0.011  0.0521  0.1417  0.2396
   80SOPE   O14 7210   2.963   4.008   0.068 -0.3095  0.9495  0.0384
   80SOPE   O12 7211   3.175   3.896   0.003 -0.0319 -0.1975 -0.7878
   80SOPE   O11 7212   3.042   4.012  -0.163 -0.0162  0.0126 -0.2110
   80SOPE    C1 7213   3.139   4.017  -0.258  0.5821 -0.2863 -0.2099
   80SOPE    HA 7214   3.208   3.931  -0.247  1.7391  0.5152 -0.9798
   80SOPE    HB 7215   3.192   4.114  -0.246 -1.6595  1.4058 -2.7609
   80SOPE    C2 7216   3.073   4.000  -0.396  0.0609  1.2864  0.6162
   80SOPE    HS 7217   3.150   4.016  -0.474  2.1995 -1.1497  2.0844
   80SOPE   O21 7218   2.974   4.102  -0.412  0.3595 -0.1172  0.4469
   80SOPE   C21 7219   3.019   4.224  -0.432 -0.5631 -0.3097 -0.4635
   80SOPE   O22 7220   3.132   4.242  -0.469  0.5735  0.2234  0.0765
   80SOPE   C22 7221   2.905   4.322  -0.423  0.3619 -0.7198 -0.5157
   80SOPE   H2R 7222   2.909   4.356  -0.317  0.2515  0.4161 -0.8628
   80SOPE   H2S 7223   2.813   4.260  -0.429 -0.6452  0.6649 -0.1209
   80SOPE    C3 7224   3.012   3.862  -0.425  0.0687  0.7632 -0.3545
   80SOPE    HX 7225   2.936   3.840  -0.346 -1.4700  0.8172 -1.7568
   80SOPE    HY 7226   3.097   3.791  -0.430 -0.7072 -0.1765 -0.6339
   80SOPE   O31 7227   2.951   3.858  -0.561  0.0384  0.0568  0.0144
   80SOPE   C31 7228   2.826   3.813  -0.577  0.2360  0.9882 -0.7907
   80SOPE   O32 7229   2.756   3.766  -0.486  0.0134 -0.3664  0.5136
   80SOPE   C32 7230   2.796   3.809  -0.724  0.8125 -0.0591  0.2395
   80SOPE   H2X 7231   2.747   3.710  -0.735  1.3695 -0.3050 -0.0842
   80SOPE   H2Y 7232   2.891   3.810  -0.782  1.0210 -0.2007  0.5762
   80SOPE   C23 7233   2.914   4.452  -0.513 -0.0521  0.5158  0.4914
   80SOPE   H3R 7234   3.000   4.520  -0.492  0.7930 -0.6253  0.8085
   80SOPE   H3S 7235   2.822   4.510  -0.490 -0.6200  0.8643 -2.3852
   80SOPE   C24 7236   2.920   4.417  -0.662  0.4387 -0.3339 -0.3026
   80SOPE   H4R 7237   2.930   4.511  -0.720  0.1069  0.2024  0.4939
   80SOPE   H4S 7238   3.016   4.363  -0.679  0.2227 -1.2160  1.1001
   80SOPE   C25 7239   2.800   4.342  -0.723  0.6100 -0.0848 -0.2357
   80SOPE   H5R 7240   2.800   4.244  -0.670  0.8965  0.8832  1.6403
   80SOPE   H5S 7241   2.709   4.396  -0.688  0.7821  0.4726 -0.6384
   80SOPE   C26 7242   2.813   4.327  -0.871 -0.2486  0.7619  0.5697
   80SOPE   H6R 7243   2.720   4.275  -0.901  1.7225 -2.1648 -0.9341
   80SOPE   H6S 7244   2.812   4.432  -0.907 -0.6592  0.4050 -0.5076
   80SOPE   C27 7245   2.939   4.253  -0.928  1.0639 -0.1535  0.1674
   80SOPE   H7R 7246   3.037   4.295  -0.895  0.8902  0.1499  0.2961
   80SOPE   H7S 7247   2.929   4.150  -0.887 -2.1913  0.4516  1.1546
   80SOPE   C28 7248   2.935   4.244  -1.080  0.1894 -0.2815  0.4191
   80SOPE   H8R 7249   2.946   4.348  -1.118 -1.1737 -0.1233  0.4158
   80SOPE   H8S 7250   3.022   4.193  -1.126 -1.5455 -1.6873 -1.4481
   80SOPE   C29 7251   2.795   4.196  -1.139 -0.8660  0.7824  0.6277
   80SOPE   H91 7252   2.704   4.218  -1.082 -0.2189 -0.5955  2.2974
   80SOPE  C210 7253   2.778   4.132  -1.255 -0.6943  0.2128 -0.5038
   80SOPE  H101 7254   2.674   4.099  -1.270 -0.1655 -0.6581 -2.7300
   80SOPE  C211 7255   2.877   4.090  -1.361  0.2099 -0.6910  0.1116
   80SOPE  H11R 7256   2.820   4.023  -1.429 -1.8475  0.3598  0.7373
   80SOPE  H11S 7257   2.962   4.045  -1.306  0.8707 -0.9294 -1.0732
   80SOPE  C212 7258   2.940   4.195  -1.452  0.2968  0.5474 -0.2858
   80SOPE  H12R 7259   2.986   4.268  -1.381  0.5965  0.2768 -0.1977
   80SOPE  H12S 7260   2.864   4.242  -1.517  0.4392 -0.3768 -1.1438
   80SOPE  C213 7261   3.056   4.135  -1.531  0.6018  0.9820  0.0910
   80SOPE  H13R 7262   3.134   4.090  -1.467  0.3042  0.5493  0.1506
   80SOPE  H13S 7263   3.111   4.212  -1.590  1.3989 -0.5570 -1.2529
   80SOPE  C214 7264   3.007   4.026  -1.638  0.1163  0.0075  0.4592
   80SOPE  H14R 7265   2.907   4.044  -1.683  1.8029  1.7849 -2.9274
   80SOPE  H14S 7266   3.002   3.930  -1.582  0.2975  0.6800  1.6865
   80SOPE  C215 7267   3.110   4.007  -1.747 -0.4229 -1.2422  0.4986
   80SOPE  H15R 7268   3.142   4.098  -1.802 -1.9395 -1.3595 -0.6241
   80SOPE  H15S 7269   3.066   3.946  -1.828 -0.1982 -1.3092  0.4249
   80SOPE  C216 7270   3.246   3.955  -1.687  0.5681  0.1030 -0.2810
   80SOPE  H16R 7271   3.220   3.869  -1.622 -0.8124  0.9873  0.3820
   80SOPE  H16S 7272   3.284   4.033  -1.617  3.1036 -1.5427  0.3299
   80SOPE  C217 7273   3.360   3.941  -1.785  0.0034 -0.1771 -0.0026
   80SOPE  H17R 7274   3.440   3.879  -1.741 -0.2075 -0.4028  0.0627
   80SOPE  H17S 7275   3.404   4.037  -1.821  0.3936  0.3431  1.7842
   80SOPE  C218 7276   3.325   3.853  -1.906 -0.2644  0.3897 -0.8986
   80SOPE  H18R 7277   3.339   3.751  -1.866 -0.9777  0.3442 -0.7565
   80SOPE  H18S 7278   3.384   3.874  -1.998 -0.4047 -0.0721 -1.0971
   80SOPE  H18T 7279   3.215   3.854  -1.925 -1.2409 -2.0014  3.4225
   80SOPE   C33 7280   2.695   3.910  -0.779  0.3202  0.0612  0.2217
   80SOPE   H3X 7281   2.744   4.010  -0.771 -1.1892  0.6602  3.4000
   80SOPE   H3Y 7282   2.605   3.920  -0.715  0.6930 -0.2718  0.8147
   80SOPE   C34 7283   2.660   3.895  -0.926  0.2720 -0.3062 -1.0411
   80SOPE   H4X 7284   2.756   3.876  -0.979  1.0004  0.9058 -0.2127
   80SOPE   H4Y 7285   2.617   3.992  -0.960  1.4433  0.1979 -1.1191
   80SOPE   C35 7286   2.557   3.784  -0.944 -0.2164  0.7017  0.3472
   80SOPE   H5X 7287   2.449   3.811  -0.948 -0.8082 -1.0096  2.6583
   80SOPE   H5Y 7288   2.572   3.707  -0.866 -4.5850  0.3887  1.1565
   80SOPE   C36 7289   2.574   3.708  -1.083  0.3670  0.8846  0.4655
   80SOPE   H6X 7290   2.520   3.612  -1.069 -0.7500  0.7251 -3.7411
   80SOPE   H6Y 7291   2.680   3.689  -1.110  0.4207 -0.4040  1.4789
   80SOPE   C37 7292   2.503   3.780  -1.206 -0.6009 -0.0269 -1.5207
   80SOPE   H7X 7293   2.513   3.889  -1.189 -1.8002  0.4830 -3.7089
   80SOPE   H7Y 7294   2.393   3.765  -1.200 -0.6464  0.9316  1.9246
   80SOPE   C38 7295   2.556   3.748  -1.342 -0.2707 -0.2552 -0.8514
   80SOPE   H8X 7296   2.556   3.638  -1.357 -1.6659 -0.4973  0.6288
   80SOPE   H8Y 7297   2.661   3.783  -1.357 -0.6019  0.1709 -2.3613
   80SOPE   C39 7298   2.484   3.835  -1.453  0.2747 -0.6892  0.0414
   80SOPE   H9X 7299   2.471   3.933  -1.403  1.6309 -1.2737  1.6332
   80SOPE   H9Y 7300   2.385   3.789  -1.473 -0.0064 -0.4973  0.9134
   80SOPE  C310 7301   2.566   3.846  -1.583  0.0857  0.4603 -0.4534
   80SOPE  H10X 7302   2.581   3.742  -1.618  2.2999  0.7638 -0.5382
   80SOPE  H10Y 7303   2.669   3.884  -1.565 -0.2944  0.8134  1.1587
   80SOPE  C311 7304   2.487   3.938  -1.675 -0.6102  0.5287  0.0668
   80SOPE  H11X 7305   2.381   3.949  -1.645 -0.7863 -1.2098  0.2056
   80SOPE  H11Y 7306   2.490   3.898  -1.779  1.1931 -0.9128  0.6204
   80SOPE  C312 7307   2.542   4.080  -1.688 -0.5033 -0.7449 -0.4313
   80SOPE  H12X 7308   2.653   4.068  -1.697  0.5555  4.7639  1.3454
   80SOPE  H12Y 7309   2.529   4.152  -1.605  1.3834  0.5288 -1.1695
   80SOPE  C313 7310   2.505   4.151  -1.822  0.6603 -0.1573  0.0814
   80SOPE  H13X 7311   2.394   4.155  -1.825  0.5854 -1.5680  0.5704
   80SOPE  H13Y 7312   2.536   4.081  -1.903  1.3292 -0.2063  0.3796
   80SOPE  C314 7313   2.562   4.290  -1.836 -0.1652 -0.3426  0.3042
   80SOPE  H14X 7314   2.511   4.344  -1.753 -0.3330 -1.1217  0.7199
   80SOPE  H14Y 7315   2.532   4.339  -1.931  3.0013  1.9393  0.3428
   80SOPE  C315 7316   2.717   4.291  -1.833  0.1580  0.2655  0.0835
   80SOPE  H15X 7317   2.747   4.209  -1.902 -0.5086  0.6847 -0.7158
   80SOPE  H15Y 7318   2.753   4.265  -1.731 -0.3428  0.8583  0.4168
   80SOPE  C316 7319   2.787   4.422  -1.866  0.3743 -0.2519 -0.2334
   80SOPE  H16X 7320   2.758   4.497  -1.789  1.2812  0.7021 -0.7886
   80SOPE  H16Y 7321   2.750   4.464  -1.962  0.3752 -1.3697 -0.7380
   80SOPE  C317 7322   2.939   4.396  -1.852  0.5205 -0.3098  0.5149
   80SOPE  H17X 7323   2.949   4.345  -1.754 -3.1589 -1.0308  0.6636
   80SOPE  H17Y 7324   2.996   4.491  -1.863 -0.0396 -0.1080 -0.8030
   80SOPE  C318 7325   2.993   4.302  -1.960 -0.0859  0.5322  0.2477
   80SOPE  H18X 7326   2.952   4.201  -1.943 -1.3739  1.1055  0.6001
   80SOPE  H18Y 7327   3.104   4.299  -1.965 -0.0832  1.1327 -0.1903
   80SOPE  H18Z 7328   2.942   4.335  -2.054 -0.4889  1.8053  0.8926
   81SOPE     N 7329   0.444   5.435   0.623 -0.5852  0.2800 -0.5122
   81SOPE   HN1 7330   0.543   5.413   0.600 -0.0738 -1.8804  2.9808
   81SOPE   HN2 7331   0.436   5.434   0.727 -2.3928  3.2952 -0.4951
   81SOPE   HN3 7332   0.387   5.359   0.580 -0.2470 -1.3864  1.7879
   81SOPE   C12 7333   0.389   5.570   0.574 -0.2015 -0.3426 -0.5893
   81SOPE  H12A 7334   0.385   5.573   0.463  1.0376 -1.4108 -0.6849
   81SOPE  H12B 7335   0.449   5.651   0.621 -1.1372  1.3773 -2.2242
   81SOPE   C11 7336   0.244   5.583   0.616  0.4147  0.7936 -0.3712
   81SOPE  H11A 7337   0.215   5.689   0.600 -1.0548  0.6584  1.1373
   81SOPE  H11B 7338   0.224   5.569   0.724  0.0956 -0.6986 -0.5956
   81SOPE     P 7339   0.109   5.357   0.586  0.2380  0.1606  0.3402
   81SOPE   O13 7340   0.044   5.367   0.718 -0.6871  0.3132  0.1600
   81SOPE   O14 7341   0.232   5.279   0.572 -0.0411  0.0404  0.1609
   81SOPE   O12 7342   0.151   5.507   0.537  0.2799  0.4622  0.4560
   81SOPE   O11 7343   0.008   5.313   0.481  0.0986  0.1023 -0.5288
   81SOPE    C1 7344  -0.066   5.397   0.397 -0.2969 -0.0081 -0.4419
   81SOPE    HA 7345  -0.052   5.502   0.430  1.6884 -0.6718  1.0214
   81SOPE    HB 7346  -0.173   5.372   0.417  0.0095 -0.2068  1.0977
   81SOPE    C2 7347  -0.030   5.374   0.252  0.6720 -0.7242  0.2436
   81SOPE    HS 7348  -0.048   5.266   0.234 -0.0062 -0.3512 -1.5008
   81SOPE   O21 7349   0.094   5.428   0.228 -0.3063  0.1903 -0.1171
   81SOPE   C21 7350   0.182   5.336   0.199 -1.0498 -0.3925 -0.9615
   81SOPE   O22 7351   0.172   5.218   0.199  0.0605 -0.1142 -0.1060
   81SOPE   C22 7352   0.309   5.410   0.162  0.1241 -0.3202  0.2731
   81SOPE   H2R 7353   0.408   5.363   0.183 -0.2307 -1.0206  0.4184
   81SOPE   H2S 7354   0.303   5.513   0.202 -0.0059 -0.1796 -0.1069
   81SOPE    C3 7355  -0.132   5.454   0.161  0.2613 -0.2627  0.3808
   81SOPE    HX 7356  -0.105   5.559   0.138  0.5424 -0.6177 -1.0372
   81SOPE    HY 7357  -0.239   5.449   0.189 -0.3838 -1.6183 -2.0394
   81SOPE   O31 7358  -0.121   5.396   0.028 -1.0816 -0.1624  0.1883
   81SOPE   C31 7359  -0.211   5.306  -0.010 -0.3781 -0.0043 -0.3610
   81SOPE   O32 7360  -0.325   5.299   0.032 -0.1509  0.1779  0.3372
   81SOPE   C32 7361  -0.154   5.213  -0.114  0.2019  0.1145 -0.0608
   81SOPE   H2X 7362  -0.181   5.111  -0.079 -0.3538  0.7094  1.3618
   81SOPE   H2Y 7363  -0.044   5.213  -0.133 -0.0608  0.4839 -1.7131
   81SOPE   C23 7364   0.300   5.428   0.011  0.2609  0.2394 -0.4375
   81SOPE   H3R 7365   0.361   5.517  -0.017  1.6831  0.2550  2.3551
   81SOPE   H3S 7366   0.193   5.448  -0.011 -0.3330 -1.6204  0.5542
   81SOPE   C24 7367   0.357   5.308  -0.066 -0.1930 -0.1229  0.3487
   81SOPE   H4R 7368   0.450   5.271  -0.020 -0.8393  0.3234  2.0828
   81SOPE   H4S 7369   0.292   5.219  -0.081  3.6474 -3.1976  0.4142
   81SOPE   C25 7370   0.399   5.352  -0.210  0.3616  0.2241 -0.3857
   81SOPE   H5R 7371   0.309   5.350  -0.274  0.6176 -2.6438 -0.8208
   81SOPE   H5S 7372   0.441   5.455  -0.212 -0.2240  0.5112  1.0612
   81SOPE   C26 7373   0.495   5.253  -0.279  0.1208  0.4991  0.0139
   81SOPE   H6R 7374   0.577   5.217  -0.213 -0.9012  0.0634  1.1023
   81SOPE   H6S 7375   0.436   5.162  -0.303 -0.6449  0.7116  1.0280
   81SOPE   C27 7376   0.547   5.318  -0.406 -0.1415 -0.0520 -0.3475
   81SOPE   H7R 7377   0.474   5.357  -0.480  2.8075  2.3632 -2.2095
   81SOPE   H7S 7378   0.601   5.407  -0.368  1.7080 -0.6690 -1.4394
   81SOPE   C28 7379   0.645   5.221  -0.479  0.3263 -1.0726 -0.7317
   81SOPE   H8R 7380   0.716   5.183  -0.402 -1.0456  0.4848  1.4545
   81SOPE   H8S 7381   0.592   5.132  -0.520  0.5481 -2.0882  1.0577
   81SOPE   C29 7382   0.724   5.308  -0.577 -0.3030  0.6579 -0.2470
   81SOPE   H91 7383   0.798   5.376  -0.532 -0.2227  1.9287 -2.1952
   81SOPE  C210 7384   0.712   5.303  -0.710  0.4756  0.2603  0.1777
   81SOPE  H101 7385   0.784   5.360  -0.770 -0.8151  3.0709  1.1161
   81SOPE  C211 7386   0.615   5.217  -0.787 -0.3634 -0.2881  0.5413
   81SOPE  H11R 7387   0.552   5.279  -0.855  1.3881  2.2553  1.0821
   81SOPE  H11S 7388   0.547   5.168  -0.714  1.5540  0.9418  3.3165
   81SOPE  C212 7389   0.690   5.117  -0.880  0.3903 -0.2229 -0.2925
   81SOPE  H12R 7390   0.774   5.070  -0.824 -0.3019 -1.2523 -0.0836
   81SOPE  H12S 7391   0.726   5.175  -0.968  0.1854 -1.6750 -1.3633
   81SOPE  C213 7392   0.614   5.000  -0.929 -0.4416  0.2422 -0.7732
   81SOPE  H13R 7393   0.623   4.926  -0.846 -0.3020 -0.4109 -1.3582
   81SOPE  H13S 7394   0.673   4.954  -1.011 -0.0048 -1.0044  0.2070
   81SOPE  C214 7395   0.471   5.040  -0.968  0.4846  0.3030 -0.5583
   81SOPE  H14R 7396   0.423   5.076  -0.874  1.5410  1.3219 -0.3855
   81SOPE  H14S 7397   0.409   4.954  -1.000 -1.0440  1.4171 -0.6894
   81SOPE  C215 7398   0.454   5.153  -1.074 -0.8341 -0.4344 -0.1352
   81SOPE  H15R 7399   0.515   5.244  -1.056 -0.6591 -0.4166 -0.7908
   81SOPE  H15S 7400   0.349   5.186  -1.064 -0.3772  0.4531  2.8276
   81SOPE  C216 7401   0.491   5.096  -1.210 -0.3682  0.0739  0.1564
   81SOPE  H16R 7402   0.591   5.047  -1.216 -0.8884 -0.8868 -1.3533
   81SOPE  H16S 7403   0.495   5.183  -1.279  3.3986  0.4144  0.5953
   81SOPE  C217 7404   0.386   5.005  -1.277  0.2652  0.4737 -0.4192
   81SOPE  H17R 7405   0.293   5.060  -1.251 -0.2957 -0.4325 -0.4661
   81SOPE  H17S 7406   0.387   4.909  -1.221 -0.1655  0.8383  0.2306
   81SOPE  C218 7407   0.395   4.969  -1.425  0.2593  0.1902  0.4192
   81SOPE  H18R 7408   0.325   4.892  -1.463  0.1890  0.2662  0.3945
   81SOPE  H18S 7409   0.498   4.935  -1.452  0.2379  1.6098 -1.6491
   81SOPE  H18T 7410   0.370   5.049  -1.497 -1.7383 -2.1632 -1.6963
   81SOPE   C33 7411  -0.238   5.237  -0.236  0.6557  0.5568  0.0836
   81SOPE   H3X 7412  -0.190   5.315  -0.298  0.6392 -0.9419 -1.8954
   81SOPE   H3Y 7413  -0.345   5.262  -0.215  0.3336 -1.3452  0.9363
   81SOPE   C34 7414  -0.236   5.117  -0.328  0.3560 -0.1454  0.4577
   81SOPE   H4X 7415  -0.301   5.139  -0.416  2.0044  2.2024 -0.2849
   81SOPE   H4Y 7416  -0.288   5.035  -0.275 -0.5609  1.5817  2.3860
   81SOPE   C35 7417  -0.102   5.067  -0.375  0.3643 -0.1845 -0.5099
   81SOPE   H5X 7418  -0.115   4.999  -0.462  0.2611  0.6140 -1.1285
   81SOPE   H5Y 7419  -0.055   5.010  -0.293 -3.4061  0.1394  2.1492
   81SOPE   C36 7420  -0.009   5.174  -0.424 -0.1604 -0.3189  0.3825
   81SOPE   H6X 7421   0.017   5.262  -0.361  1.4267  0.4170 -1.2080
   81SOPE   H6Y 7422  -0.053   5.216  -0.518  3.5975 -0.4415 -1.6320
   81SOPE   C37 7423   0.128   5.118  -0.473 -0.1301 -0.5060  0.0130
   81SOPE   H7X 7424   0.174   5.061  -0.389 -1.5430 -1.2401  0.3209
   81SOPE   H7Y 7425   0.181   5.212  -0.499 -3.3022  0.7362 -2.6456
   81SOPE   C38 7426   0.134   5.022  -0.598  0.9432 -0.3081  0.1452
   81SOPE   H8X 7427   0.088   4.921  -0.586  0.5209 -0.2972 -1.2414
   81SOPE   H8Y 7428   0.240   4.989  -0.610  0.8294 -0.5938 -0.1086
   81SOPE   C39 7429   0.092   5.098  -0.727  0.4735 -0.0562 -0.7972
   81SOPE   H9X 7430   0.165   5.181  -0.741  1.6573 -1.0675 -0.7617
   81SOPE   H9Y 7431  -0.001   5.157  -0.712  1.5928  1.3686  1.0361
   81SOPE  C310 7432   0.060   5.008  -0.850  0.2528  0.0225 -0.3098
   81SOPE  H10X 7433   0.011   4.911  -0.829  0.4887  0.0580  0.4414
   81SOPE  H10Y 7434   0.161   4.995  -0.896 -0.1174 -0.6571 -0.9411
   81SOPE  C311 7435  -0.008   5.077  -0.965  0.2643  0.7060  0.0599
   81SOPE  H11X 7436   0.062   5.162  -0.981 -0.3466  0.8046 -2.4203
   81SOPE  H11Y 7437  -0.107   5.115  -0.932 -0.3328  0.0149 -0.9061
   81SOPE  C312 7438  -0.022   5.002  -1.087  0.5238 -0.2353  0.1756
   81SOPE  H12X 7439  -0.080   4.908  -1.071 -1.0518  1.0156  2.3368
   81SOPE  H12Y 7440   0.077   4.966  -1.121  1.5298  2.1305  0.4179
   81SOPE  C313 7441  -0.067   5.089  -1.206  0.5181  0.5714 -0.3271
   81SOPE  H13X 7442   0.009   5.165  -1.233  0.7557 -0.7390 -3.7741
   81SOPE  H13Y 7443  -0.160   5.144  -1.179 -0.1984  0.0638 -1.6912
   81SOPE  C314 7444  -0.088   5.015  -1.343  0.5737  0.0493  0.2867
   81SOPE  H14X 7445  -0.183   4.959  -1.352 -1.0334  2.8066 -1.4560
   81SOPE  H14Y 7446  -0.005   4.941  -1.336 -0.7792 -1.6409 -0.8772
   81SOPE  C315 7447  -0.086   5.120  -1.461 -0.6709  0.0426 -0.3421
   81SOPE  H15X 7448   0.009   5.178  -1.462 -1.6322  1.9082  2.3302
   81SOPE  H15Y 7449  -0.157   5.201  -1.433  0.2524  0.3629  1.1738
   81SOPE  C316 7450  -0.132   5.077  -1.597 -0.2417  0.9574 -0.4919
   81SOPE  H16X 7451  -0.215   5.003  -1.591  2.0352 -1.7372  0.0462
   81SOPE  H16Y 7452  -0.052   5.021  -1.650 -1.0926 -1.7006  0.8564
   81SOPE  C317 7453  -0.192   5.190  -1.685  0.1233 -0.3270  0.4863
   81SOPE  H17X 7454  -0.110   5.243  -1.737 -0.8948  1.0724  0.2723
   81SOPE  H17Y 7455  -0.249   5.271  -1.635  0.2652  1.4871 -2.0733
   81SOPE  C318 7456  -0.294   5.136  -1.783  0.0932 -0.6284 -0.3366
   81SOPE  H18X 7457  -0.370   5.070  -1.737 -2.1667  0.9548 -1.6393
   81SOPE  H18Y 7458  -0.242   5.068  -1.855  1.3777  0.0174 -0.0443
   81SOPE  H18Z 7459  -0.347   5.218  -1.834 -0.2043 -1.5207 -1.5115
   82SOPE     N 7460   2.947   0.117   0.105 -0.0577  0.5861 -0.1587
   82SOPE   HN1 7461   2.863   0.061   0.132 -1.0535  2.2528  0.3629
   82SOPE   HN2 7462   3.028   0.057   0.080 -0.8115 -0.0240 -1.2496
   82SOPE   HN3 7463   2.970   0.186   0.179 -1.4963 -0.7540  1.6138
   82SOPE   C12 7464   2.914   0.204  -0.016  0.0135 -0.4350  0.4363
   82SOPE  H12A 7465   2.870   0.137  -0.092 -2.3707  0.3221  1.0796
   82SOPE  H12B 7466   3.005   0.242  -0.068 -0.8284 -1.0196 -1.5915
   82SOPE   C11 7467   2.806   0.308   0.014  0.5124 -0.2542 -0.1324
   82SOPE  H11A 7468   2.709   0.254   0.018  0.5442 -0.2604  0.6226
   82SOPE  H11B 7469   2.799   0.374  -0.075 -0.7550 -1.0571 -0.6573
   82SOPE     P 7470   2.807   0.517   0.159  0.0462 -0.4320  0.0465
   82SOPE   O13 7471   2.820   0.530   0.307 -0.0760  0.5151  0.2100
   82SOPE   O14 7472   2.671   0.551   0.103 -0.2282  0.1433 -0.1711
   82SOPE   O12 7473   2.843   0.375   0.131 -0.2902  0.7047 -0.1982
   82SOPE   O11 7474   2.913   0.598   0.075 -0.1284 -0.1030 -0.1926
   82SOPE    C1 7475   3.039   0.627   0.126 -0.5797 -0.5503 -0.3997
   82SOPE    HA 7476   3.048   0.629   0.236  0.2280 -1.7754 -0.4192
   82SOPE    HB 7477   3.075   0.726   0.092  1.0561 -1.0003 -0.0437
   82SOPE    C2 7478   3.165   0.539   0.082 -0.0035  0.5948 -0.0456
   82SOPE    HS 7479   3.255   0.604   0.077  1.7058 -1.6293 -0.0036
   82SOPE   O21 7480   3.139   0.484  -0.046 -0.2760 -0.2489  0.4982
   82SOPE   C21 7481   3.136   0.584  -0.131  0.0475 -0.2332  0.3382
   82SOPE   O22 7482   3.191   0.691  -0.115  0.1033  0.3915  0.7031
   82SOPE   C22 7483   3.062   0.544  -0.262 -0.1689 -0.3936 -0.8679
   82SOPE   H2R 7484   3.068   0.630  -0.332 -0.7732 -0.1664 -0.6443
   82SOPE   H2S 7485   2.954   0.531  -0.242  0.1293  0.8233  2.0568
   82SOPE    C3 7486   3.187   0.415   0.181  0.1749 -0.2483  0.5527
   82SOPE    HX 7487   3.095   0.354   0.168 -1.8391  2.8990 -1.4918
   82SOPE    HY 7488   3.194   0.443   0.289  1.4615  2.0207 -0.0493
   82SOPE   O31 7489   3.285   0.330   0.138  0.4439 -0.4646  0.3249
   82SOPE   C31 7490   3.407   0.392   0.145  0.2821  0.0208  0.1875
   82SOPE   O32 7491   3.428   0.498   0.192 -0.6060  0.0600 -0.3434
   82SOPE   C32 7492   3.511   0.293   0.095  0.1021 -0.5056  0.2765
   82SOPE   H2X 7493   3.461   0.202   0.057 -2.2748  1.8048 -2.6133
   82SOPE   H2Y 7494   3.575   0.274   0.184  1.1038  1.0426 -0.0776
   82SOPE   C23 7495   3.125   0.423  -0.341 -0.7719  0.1446 -1.3117
   82SOPE   H3R 7496   3.045   0.371  -0.398 -1.7311 -0.9479  0.9103
   82SOPE   H3S 7497   3.160   0.349  -0.266 -1.1825  0.5354 -0.7214
   82SOPE   C24 7498   3.226   0.473  -0.446  0.2472  0.1994 -0.6601
   82SOPE   H4R 7499   3.171   0.555  -0.496  2.6535  1.6184 -1.1350
   82SOPE   H4S 7500   3.312   0.516  -0.389 -0.3258 -0.5069  0.8022
   82SOPE   C25 7501   3.284   0.375  -0.550 -0.0963  0.1839 -0.1069
   82SOPE   H5R 7502   3.338   0.293  -0.497 -1.0377 -0.6664 -0.4294
   82SOPE   H5S 7503   3.197   0.320  -0.592  0.0872 -0.6276  0.5416
   82SOPE   C26 7504   3.365   0.450  -0.645  0.1866  0.5533  0.0941
   82SOPE   H6R 7505   3.296   0.514  -0.704  0.7789 -0.8318 -2.2605
   82SOPE   H6S 7506   3.444   0.508  -0.593 -1.2289  0.4223  2.5433
   82SOPE   C27 7507   3.437   0.351  -0.746  0.1699  0.1945  0.2268
   82SOPE   H7R 7508   3.514   0.415  -0.795 -1.1889  1.8004  0.0904
   82SOPE   H7S 7509   3.485   0.269  -0.688 -0.9658  0.8059  2.1555
   82SOPE   C28 7510   3.343   0.305  -0.863 -0.2821  0.3087  0.4255
   82SOPE   H8R 7511   3.270   0.230  -0.825 -0.1373 -1.2918 -2.2341
   82SOPE   H8S 7512   3.277   0.389  -0.893 -1.8728 -1.7125 -2.2698
   82SOPE   C29 7513   3.423   0.237  -0.969  0.8751 -0.7292 -0.5127
   82SOPE   H91 7514   3.493   0.157  -0.941  2.8814  1.2584  0.5546
   82SOPE  C210 7515   3.415   0.272  -1.099 -0.4081  0.2430  0.3505
   82SOPE  H101 7516   3.472   0.220  -1.178  0.4280  1.0766  0.3795
   82SOPE  C211 7517   3.329   0.378  -1.155  0.5466 -0.1504  0.2431
   82SOPE  H11R 7518   3.230   0.380  -1.103 -0.6003 -0.9859 -1.7822
   82SOPE  H11S 7519   3.311   0.356  -1.262 -1.4480  1.2858  0.2298
   82SOPE  C212 7520   3.375   0.526  -1.135 -0.3283 -0.4223  0.6795
   82SOPE  H12R 7521   3.434   0.516  -1.041 -0.7359  0.0643  0.9879
   82SOPE  H12S 7522   3.280   0.583  -1.122 -1.8815 -2.2686 -1.7870
   82SOPE  C213 7523   3.484   0.577  -1.235  0.5442  0.0166 -0.9858
   82SOPE  H13R 7524   3.558   0.498  -1.257  0.6059 -0.1088 -0.3346
   82SOPE  H13S 7525   3.522   0.672  -1.191  0.4456 -0.9174  1.2639
   82SOPE  C214 7526   3.430   0.617  -1.374  0.1738  0.0124  0.2049
   82SOPE  H14R 7527   3.362   0.704  -1.373 -0.4013 -0.4161 -0.4511
   82SOPE  H14S 7528   3.362   0.540  -1.418 -1.0571 -0.0174  2.0430
   82SOPE  C215 7529   3.535   0.670  -1.472 -0.2425 -0.4469 -0.3973
   82SOPE  H15R 7530   3.627   0.608  -1.468  0.1490  0.1848  0.5009
   82SOPE  H15S 7531   3.569   0.768  -1.434 -2.4343 -0.2480  1.2806
   82SOPE  C216 7532   3.485   0.666  -1.617  1.1739 -0.5154  0.0559
   82SOPE  H16R 7533   3.396   0.731  -1.616  0.5048 -1.3660 -1.2458
   82SOPE  H16S 7534   3.447   0.565  -1.645 -0.6372  0.5835 -1.6516
   82SOPE  C217 7535   3.581   0.723  -1.729  0.6107 -0.4157 -0.4114
   82SOPE  H17R 7536   3.605   0.827  -1.696 -0.2639 -0.4626  0.3912
   82SOPE  H17S 7537   3.518   0.733  -1.820 -2.1402 -0.2287  1.4157
   82SOPE  C218 7538   3.700   0.642  -1.763 -0.2719  0.6751 -0.0864
   82SOPE  H18R 7539   3.772   0.651  -1.679  1.0512  0.2297 -1.1412
   82SOPE  H18S 7540   3.757   0.675  -1.852 -0.1150 -0.0155 -0.2493
   82SOPE  H18T 7541   3.684   0.534  -1.784 -0.1569  0.6714 -0.1620
   82SOPE   C33 7542   3.595   0.357  -0.017  0.0262  0.5325  1.0218
   82SOPE   H3X 7543   3.679   0.285  -0.024 -0.6078 -0.0303 -2.5874
   82SOPE   H3Y 7544   3.624   0.460   0.011 -0.0432  0.0741  2.9338
   82SOPE   C34 7545   3.512   0.366  -0.145 -0.3557  0.1030  0.1803
   82SOPE   H4X 7546   3.563   0.444  -0.204 -1.3854  0.6146 -0.0599
   82SOPE   H4Y 7547   3.407   0.397  -0.123 -0.6638 -1.4916  1.1517
   82SOPE   C35 7548   3.502   0.247  -0.233 -0.8254  0.4057 -0.6442
   82SOPE   H5X 7549   3.424   0.264  -0.311 -1.0566 -0.1080 -0.5316
   82SOPE   H5Y 7550   3.464   0.155  -0.184  2.1651 -0.2986  0.5707
   82SOPE   C36 7551   3.642   0.200  -0.297  0.2932 -0.1178  0.9525
   82SOPE   H6X 7552   3.620   0.107  -0.354 -0.6846 -0.8530  2.4597
   82SOPE   H6Y 7553   3.721   0.178  -0.222  2.2266 -1.6159 -1.3579
   82SOPE   C37 7554   3.686   0.308  -0.401 -0.5555 -0.2018 -0.3389
   82SOPE   H7X 7555   3.742   0.396  -0.364 -0.1252 -0.4414 -0.4083
   82SOPE   H7Y 7556   3.593   0.348  -0.446 -0.6833  0.2263  0.3016
   82SOPE   C38 7557   3.770   0.241  -0.512  0.8630  0.3926 -0.4116
   82SOPE   H8X 7558   3.709   0.156  -0.550  0.3140  1.1804 -1.3246
   82SOPE   H8Y 7559   3.867   0.210  -0.466  1.7810  2.4253 -0.8687
   82SOPE   C39 7560   3.799   0.321  -0.638  0.6095 -0.5583 -0.0130
   82SOPE   H9X 7561   3.881   0.394  -0.618  2.2192 -1.3878 -3.0531
   82SOPE   H9Y 7562   3.712   0.387  -0.662  2.4465  2.0023 -0.0342
   82SOPE  C310 7563   3.817   0.236  -0.762  0.2695 -0.0396 -0.6568
   82SOPE  H10X 7564   3.732   0.163  -0.765  0.6315 -0.4632 -2.6660
   82SOPE  H10Y 7565   3.908   0.173  -0.754  0.5718  0.6295  1.7038
   82SOPE  C311 7566   3.815   0.313  -0.903 -0.5783 -0.5946 -0.2820
   82SOPE  H11X 7567   3.878   0.405  -0.906 -0.7097 -0.5275 -1.6075
   82SOPE  H11Y 7568   3.714   0.357  -0.920 -0.1160 -0.4560 -3.2256
   82SOPE  C312 7569   3.860   0.231  -1.017  0.1775  0.7645 -1.3173
   82SOPE  H12X 7570   3.797   0.139  -1.022 -1.7500  1.8646  0.9020
   82SOPE  H12Y 7571   3.968   0.220  -0.996 -0.4321 -0.8052  1.5446
   82SOPE  C313 7572   3.852   0.294  -1.154 -0.4633  0.2785 -0.6839
   82SOPE  H13X 7573   3.910   0.388  -1.143 -1.8312  0.8347  3.9564
   82SOPE  H13Y 7574   3.749   0.333  -1.169 -0.3532  0.7138 -0.3248
   82SOPE  C314 7575   3.902   0.208  -1.267 -0.4280 -0.0311 -0.3806
   82SOPE  H14X 7576   3.850   0.110  -1.265 -0.2204 -0.1397 -0.2245
   82SOPE  H14Y 7577   4.008   0.188  -1.240  0.0970  0.4554 -1.9736
   82SOPE  C315 7578   3.911   0.277  -1.403 -0.7630 -0.5170  0.5438
   82SOPE  H15X 7579   3.960   0.213  -1.478  2.2226  1.3111  0.7874
   82SOPE  H15Y 7580   3.985   0.359  -1.393  1.7351 -2.5349 -0.3198
   82SOPE  C316 7581   3.765   0.321  -1.457 -0.4119  0.1345 -0.0133
   82SOPE  H16X 7582   3.773   0.373  -1.555 -1.5559  0.8999  0.2806
   82SOPE  H16Y 7583   3.709   0.382  -1.383 -0.6464  0.7231 -0.6618
   82SOPE  C317 7584   3.672   0.201  -1.491 -0.4669 -0.4645  0.3321
   82SOPE  H17X 7585   3.650   0.152  -1.394  0.3453 -0.3210  0.5945
   82SOPE  H17Y 7586   3.714   0.132  -1.567 -0.4232 -0.6826  0.5538
   82SOPE  C318 7587   3.543   0.255  -1.540 -0.0636 -0.0025  0.4790
   82SOPE  H18X 7588   3.473   0.301  -1.467  0.6226  0.2947  0.9499
   82SOPE  H18Y 7589   3.483   0.170  -1.580 -1.2236 -0.5506  3.2006
   82SOPE  H18Z 7590   3.545   0.325  -1.626 -0.1886  1.7708  1.8725
   83SOPE     N 7591   4.649   5.538   5.381  0.1782  0.0147 -0.2303
   83SOPE   HN1 7592   4.709   5.454   5.390  1.7769  1.2916  2.6852
   83SOPE   HN2 7593   4.552   5.511   5.358  0.3925 -1.3472  0.3783
   83SOPE   HN3 7594   4.682   5.587   5.295 -2.2670  2.0984 -0.0941
   83SOPE   C12 7595   4.642   5.618   5.512  0.3901 -0.1336  0.5202
   83SOPE  H12A 7596   4.745   5.661   5.509  0.7109 -0.9168 -0.8943
   83SOPE  H12B 7597   4.632   5.552   5.600 -1.2158 -1.9263 -0.9105
   83SOPE   C11 7598   4.544   5.730   5.494  0.2031 -0.3202  0.4371
   83SOPE  H11A 7599   4.547   5.786   5.590 -1.9534  2.7732 -1.1334
   83SOPE  H11B 7600   4.442   5.687   5.487  0.6480 -1.5185  0.9831
   83SOPE     P 7601   4.530   5.964   5.369 -0.2896  0.1499 -0.1436
   83SOPE   O13 7602   4.390   5.977   5.401  0.0666  0.8051  0.4029
   83SOPE   O14 7603   4.564   6.023   5.236 -0.0661 -0.1817 -0.8209
   83SOPE   O12 7604   4.573   5.807   5.375 -0.2354  0.1910 -0.1954
   83SOPE   O11 7605   4.630   6.023   5.480 -0.0435 -0.4197  0.7528
   83SOPE    C1 7606   4.771   6.002   5.478  0.4192  0.1981  0.5225
   83SOPE    HA 7607   4.800   6.025   5.373 -1.8059  1.4432  0.1202
   83SOPE    HB 7608   4.792   5.894   5.488  0.3429  0.0411 -0.8753
   83SOPE    C2 7609   4.845   6.084   5.587  0.6733 -0.0081  0.2518
   83SOPE    HS 7610   4.952   6.056   5.600  1.3970  2.2148 -0.4293
   83SOPE   O21 7611   4.778   6.076   5.712  0.7031  0.1545  0.0430
   83SOPE   C21 7612   4.768   5.949   5.769 -0.0191 -0.6992  0.4086
   83SOPE   O22 7613   4.823   5.855   5.721  0.3454 -0.1732  0.2850
   83SOPE   C22 7614   4.687   5.968   5.901  0.7892  0.5697  0.5652
   83SOPE   H2R 7615   4.582   5.985   5.868 -0.1068 -0.9298  2.4300
   83SOPE   H2S 7616   4.723   6.063   5.947 -1.1882  0.9034  1.5655
   83SOPE    C3 7617   4.846   6.234   5.543 -0.3332 -0.3021 -0.1115
   83SOPE    HX 7618   4.741   6.270   5.537  0.2168  1.2050 -1.3470
   83SOPE    HY 7619   4.893   6.246   5.443 -1.8555 -1.0676 -0.9500
   83SOPE   O31 7620   4.922   6.306   5.647  0.1714 -0.9094  0.0539
   83SOPE   C31 7621   4.846   6.399   5.715  0.4930 -0.3536  0.2157
   83SOPE   O32 7622   4.735   6.441   5.690  0.0128  0.2039  0.2721
   83SOPE   C32 7623   4.928   6.445   5.846 -0.2133 -0.2356  0.6911
   83SOPE   H2X 7624   5.025   6.483   5.809 -0.0290 -1.3651 -0.0509
   83SOPE   H2Y 7625   4.952   6.348   5.895  2.0960 -0.1605 -0.1830
   83SOPE   C23 7626   4.700   5.851   5.996 -0.4539 -0.0180  1.3341
   83SOPE   H3R 7627   4.809   5.839   6.012 -0.3359  0.6010  1.0004
   83SOPE   H3S 7628   4.661   5.753   5.959  1.9769 -0.0911 -1.3767
   83SOPE   C24 7629   4.650   5.903   6.128  0.1669  0.4520  0.6953
   83SOPE   H4R 7630   4.684   6.006   6.152  0.0621  0.8102 -0.5864
   83SOPE   H4S 7631   4.539   5.908   6.129  0.1008  0.4355 -1.4134
   83SOPE   C25 7632   4.706   5.816   6.238  0.9296 -0.3065  0.4332
   83SOPE   H5R 7633   4.667   5.713   6.223 -0.9641  0.6547 -1.8916
   83SOPE   H5S 7634   4.817   5.805   6.236  0.8888 -0.8362  0.8073
   83SOPE   C26 7635   4.666   5.864   6.382  0.4162 -0.2284  0.0040
   83SOPE   H6R 7636   4.634   5.969   6.365 -4.2098 -1.3607  0.5923
   83SOPE   H6S 7637   4.582   5.803   6.420  0.0507 -0.2172 -0.7809
   83SOPE   C27 7638   4.784   5.855   6.483  0.6391  0.3232  0.4550
   83SOPE   H7R 7639   4.791   5.750   6.519  0.6602  0.0779 -0.2510
   83SOPE   H7S 7640   4.872   5.889   6.425  1.1778  0.0034  1.0667
   83SOPE   C28 7641   4.773   5.953   6.601 -0.4403  0.3108 -0.0387
   83SOPE   H8R 7642   4.865   5.968   6.662 -1.1032 -1.0991  1.3626
   83SOPE   H8S 7643   4.768   6.049   6.545  0.8472 -0.8141 -2.1996
   83SOPE   C29 7644   4.655   5.931   6.695  0.3691 -0.2747 -0.3865
   83SOPE   H91 7645   4.579   5.864   6.653 -0.1512 -0.5760  1.0039
   83SOPE  C210 7646   4.642   5.990   6.815  0.4158 -0.7068  0.1038
   83SOPE  H101 7647   4.559   5.961   6.880  1.1275  0.8859  1.8217
   83SOPE  C211 7648   4.730   6.089   6.883  0.2009 -0.2114 -0.4460
   83SOPE  H11R 7649   4.837   6.066   6.865  0.6284  1.7648 -0.6646
   83SOPE  H11S 7650   4.722   6.074   6.993  3.1001 -0.2499 -0.1813
   83SOPE  C212 7651   4.702   6.236   6.851  0.2085  0.1841  0.0878
   83SOPE  H12R 7652   4.695   6.231   6.740 -2.2357 -2.4097  0.2688
   83SOPE  H12S 7653   4.786   6.303   6.878  0.5563 -0.2122  0.0056
   83SOPE  C213 7654   4.572   6.289   6.911  1.1161 -0.0415  0.0032
   83SOPE  H13R 7655   4.558   6.237   7.008 -1.8596  2.1434  0.8572
   83SOPE  H13S 7656   4.476   6.250   6.871  0.1043  1.5770  0.7798
   83SOPE  C214 7657   4.570   6.441   6.948  0.2358 -0.3602 -0.1566
   83SOPE  H14R 7658   4.538   6.496   6.857 -0.0819  0.1673  0.2690
   83SOPE  H14S 7659   4.669   6.476   6.984 -0.8255 -0.3462  3.0982
   83SOPE  C215 7660   4.451   6.483   7.044 -0.3970  0.3257  0.5508
   83SOPE  H15R 7661   4.461   6.592   7.030 -1.7106  0.2893 -1.0241
   83SOPE  H15S 7662   4.485   6.461   7.147 -1.1567  2.2858  1.2539
   83SOPE  C216 7663   4.318   6.417   7.020 -0.1970 -0.1128 -0.4963
   83SOPE  H16R 7664   4.305   6.318   7.069 -0.5811  0.5646  0.8107
   83SOPE  H16S 7665   4.312   6.404   6.910  0.9695  0.6279 -0.6755
   83SOPE  C217 7666   4.213   6.520   7.050 -0.1437 -0.4280  0.0903
   83SOPE  H17R 7667   4.112   6.496   7.009  0.8535  1.4033 -3.8450
   83SOPE  H17S 7668   4.253   6.610   7.000 -0.0242 -1.4963 -1.8339
   83SOPE  C218 7669   4.196   6.565   7.198 -0.2177 -0.4223  0.4440
   83SOPE  H18R 7670   4.107   6.631   7.207 -0.2008 -0.4568  0.9367
   83SOPE  H18S 7671   4.289   6.611   7.239 -0.3966  1.9245 -1.5601
   83SOPE  H18T 7672   4.171   6.480   7.266 -1.3445  0.1343  0.7503
   83SOPE   C33 7673   4.840   6.534   5.934 -0.2899  0.1319 -0.2165
   83SOPE   H3X 7674   4.778   6.602   5.871  0.2624 -0.8357 -1.8770
   83SOPE   H3Y 7675   4.912   6.590   5.997 -0.1487 -2.2541  1.9029
   83SOPE   C34 7676   4.766   6.447   6.034 -0.3658  0.2304 -0.7028
   83SOPE   H4X 7677   4.719   6.361   5.982  0.6100  0.8134 -2.6186
   83SOPE   H4Y 7678   4.685   6.511   6.076  1.1951  2.2758 -0.6381
   83SOPE   C35 7679   4.850   6.418   6.162  0.0919  0.1680  0.1906
   83SOPE   H5X 7680   4.850   6.499   6.238 -2.0554  0.6756 -0.2933
   83SOPE   H5Y 7681   4.954   6.393   6.129  0.5419 -1.2244  2.4747
   83SOPE   C36 7682   4.795   6.295   6.236 -0.1454 -0.3887 -0.0940
   83SOPE   H6X 7683   4.772   6.225   6.152  0.4792 -1.2018  0.3937
   83SOPE   H6Y 7684   4.711   6.326   6.302  0.3783 -1.0064  0.8904
   83SOPE   C37 7685   4.901   6.216   6.309 -0.0965  0.7050  0.0008
   83SOPE   H7X 7686   4.991   6.206   6.244 -0.6515 -0.2944 -0.6415
   83SOPE   H7Y 7687   4.861   6.113   6.324  0.1387  0.6840  0.5216
   83SOPE   C38 7688   4.952   6.269   6.447 -0.0755  0.0924  0.0919
   83SOPE   H8X 7689   4.864   6.280   6.514 -1.1690 -1.9797 -0.9207
   83SOPE   H8Y 7690   5.004   6.364   6.423  0.3775 -0.1275  0.1902
   83SOPE   C39 7691   5.049   6.180   6.519  0.0299 -0.0262 -0.1723
   83SOPE   H9X 7692   5.139   6.152   6.460  1.1460 -0.3219  1.5924
   83SOPE   H9Y 7693   4.996   6.087   6.549 -0.5398  0.7550  1.3744
   83SOPE  C310 7694   5.088   6.235   6.661  0.3118 -0.7027 -0.1654
   83SOPE  H10X 7695   4.998   6.242   6.727 -0.7675 -0.6698 -1.5765
   83SOPE  H10Y 7696   5.108   6.344   6.653 -0.7019 -0.4616  0.3788
   83SOPE  C311 7697   5.196   6.157   6.745 -0.2349 -0.2540 -0.4639
   83SOPE  H11X 7698   5.283   6.149   6.676 -0.6444  0.1243 -1.0442
   83SOPE  H11Y 7699   5.158   6.053   6.752  0.7933 -0.7068 -1.3081
   83SOPE  C312 7700   5.223   6.209   6.891 -1.1737 -0.7915  0.4546
   83SOPE  H12X 7701   5.255   6.315   6.877 -2.2359 -0.3780  1.0195
   83SOPE  H12Y 7702   5.303   6.147   6.935  0.4788  0.6697 -0.3700
   83SOPE  C313 7703   5.102   6.200   6.981 -0.3462 -0.3229 -0.1252
   83SOPE  H13X 7704   5.068   6.095   6.968  3.3311 -1.4144 -2.4240
   83SOPE  H13Y 7705   5.022   6.273   6.955 -2.9432 -2.1139  2.2662
   83SOPE  C314 7706   5.147   6.204   7.132  0.0064 -0.1457 -0.0428
   83SOPE  H14X 7707   5.173   6.308   7.159  2.1133 -0.7520  0.4884
   83SOPE  H14Y 7708   5.240   6.148   7.158  0.0686  0.1483  0.3635
   83SOPE  C315 7709   5.027   6.160   7.221 -0.4742 -0.4119  0.0189
   83SOPE  H15X 7710   5.004   6.052   7.231  0.0634 -0.4305  1.3194
   83SOPE  H15Y 7711   4.936   6.216   7.190 -0.6119 -0.9244 -0.5219
   83SOPE  C316 7712   5.045   6.208   7.367 -0.0701 -0.7112 -0.6498
   83SOPE  H16X 7713   5.017   6.314   7.378  0.8454 -0.5276  0.0381
   83SOPE  H16Y 7714   5.153   6.202   7.392  0.1122  0.3834 -1.1259
   83SOPE  C317 7715   4.952   6.139   7.473  0.4081 -0.0970  1.1637
   83SOPE  H17X 7716   4.959   6.029   7.455  0.2879  0.3695 -2.4908
   83SOPE  H17Y 7717   4.845   6.165   7.458  0.9829  2.2133  0.7776
   83SOPE  C318 7718   4.995   6.170   7.614  0.3677  0.4892  0.0807
   83SOPE  H18X 7719   4.935   6.115   7.691 -0.1668  1.5464  0.4493
   83SOPE  H18Y 7720   4.981   6.275   7.647 -1.1519 -0.1960  1.8469
   83SOPE  H18Z 7721   5.105   6.162   7.621  0.5505  1.0020 -1.9117
   84SOPE     N 7722   0.517   4.458   4.678  0.1406  0.3809  0.4152
   84SOPE   HN1 7723   0.562   4.386   4.738  0.6706 -0.1112 -0.5455
   84SOPE   HN2 7724   0.482   4.404   4.596 -0.6955  1.6901 -0.1184
   84SOPE   HN3 7725   0.587   4.522   4.634 -1.0110  1.0667 -0.4716
   84SOPE   C12 7726   0.418   4.552   4.746  0.5774  0.7095  0.0722
   84SOPE  H12A 7727   0.375   4.617   4.667  1.4093  1.5399  0.2801
   84SOPE  H12B 7728   0.476   4.615   4.817 -0.6922  3.3025 -1.0376
   84SOPE   C11 7729   0.308   4.462   4.816 -0.4944  0.4238  0.3089
   84SOPE  H11A 7730   0.257   4.524   4.893  2.8490  0.2993  2.8772
   84SOPE  H11B 7731   0.382   4.396   4.867  0.6435  2.7459  1.8678
   84SOPE     P 7732   0.134   4.265   4.779  0.0801 -0.0065  0.1764
   84SOPE   O13 7733   0.156   4.162   4.676  0.0847  0.2067  0.2034
   84SOPE   O14 7734  -0.012   4.300   4.808 -0.9244  0.1179  0.5931
   84SOPE   O12 7735   0.206   4.398   4.738 -0.1416 -0.2942  0.3831
   84SOPE   O11 7736   0.199   4.222   4.918 -0.1692 -0.3923  0.7955
   84SOPE    C1 7737   0.146   4.277   5.040 -0.2207  0.5055 -0.5313
   84SOPE    HA 7738   0.059   4.218   5.075 -0.4301  0.5128 -1.0179
   84SOPE    HB 7739   0.114   4.382   5.023 -0.2159  0.7100  0.6718
   84SOPE    C2 7740   0.256   4.252   5.147 -0.1781  0.1665 -0.6581
   84SOPE    HS 7741   0.358   4.277   5.112  0.3721 -0.6241  0.3496
   84SOPE   O21 7742   0.241   4.109   5.176 -0.3410 -0.6872 -0.3260
   84SOPE   C21 7743   0.350   4.060   5.240  0.4911 -0.4293 -0.0133
   84SOPE   O22 7744   0.451   4.125   5.268  0.0385 -0.1798  0.2667
   84SOPE   C22 7745   0.336   3.912   5.289 -0.3083  0.8718 -0.1355
   84SOPE   H2R 7746   0.320   3.846   5.201 -0.1282 -1.5832  1.5643
   84SOPE   H2S 7747   0.242   3.908   5.348 -0.6712  0.7746 -0.7094
   84SOPE    C3 7748   0.242   4.346   5.266 -0.1182 -0.2337  0.0420
   84SOPE    HX 7749   0.274   4.447   5.230  0.3334 -0.3032  0.2456
   84SOPE    HY 7750   0.316   4.313   5.342 -0.1566 -0.3998  0.0078
   84SOPE   O31 7751   0.108   4.355   5.313 -0.4539  0.9048 -0.1665
   84SOPE   C31 7752   0.088   4.456   5.404 -0.3141 -0.3150  0.0158
   84SOPE   O32 7753   0.168   4.537   5.444  0.0713 -0.3115  0.3724
   84SOPE   C32 7754  -0.055   4.446   5.447  0.6832  0.8340 -0.5498
   84SOPE   H2X 7755  -0.085   4.343   5.476  2.2790  0.7499  0.9432
   84SOPE   H2Y 7756  -0.122   4.472   5.362 -0.5315 -1.7094 -0.4633
   84SOPE   C23 7757   0.451   3.851   5.371 -0.1968 -0.3753 -0.6792
   84SOPE   H3R 7758   0.545   3.864   5.313 -0.9158  0.2669 -1.7380
   84SOPE   H3S 7759   0.431   3.742   5.380  1.2768 -0.9940 -3.6003
   84SOPE   C24 7760   0.459   3.925   5.502 -0.4174 -0.1485  0.0197
   84SOPE   H4R 7761   0.485   4.032   5.489  0.7922 -0.3170  0.8743
   84SOPE   H4S 7762   0.369   3.913   5.566 -0.1780 -0.3860  0.3148
   84SOPE   C25 7763   0.576   3.873   5.582 -0.5995  0.0312 -0.1245
   84SOPE   H5R 7764   0.586   3.763   5.596  1.0944 -0.1136 -1.9017
   84SOPE   H5S 7765   0.668   3.899   5.525  0.0130 -0.6712  0.5234
   84SOPE   C26 7766   0.578   3.930   5.728  0.2804  0.8197  0.4855
   84SOPE   H6R 7767   0.600   4.039   5.727 -1.9164  1.3112  1.2706
   84SOPE   H6S 7768   0.470   3.924   5.750  0.1905  1.6524  0.3083
   84SOPE   C27 7769   0.649   3.841   5.821  0.3890  0.1217 -0.4598
   84SOPE   H7R 7770   0.615   3.737   5.802 -0.0341  0.2731 -0.5502
   84SOPE   H7S 7771   0.760   3.840   5.814  0.3589  1.4623 -1.6545
   84SOPE   C28 7772   0.621   3.882   5.973 -0.3568 -0.3072 -0.0295
   84SOPE   H8R 7773   0.510   3.876   5.977 -0.2616 -1.9643  0.9855
   84SOPE   H8S 7774   0.659   3.798   6.035  1.0049 -0.7387 -1.4102
   84SOPE   C29 7775   0.653   4.020   6.025 -0.5126 -0.1922 -0.5516
   84SOPE   H91 7776   0.625   4.103   5.958 -0.5360 -0.2833 -0.6539
   84SOPE  C210 7777   0.710   4.042   6.146 -0.4162 -0.0840  0.0893
   84SOPE  H101 7778   0.731   4.146   6.176  0.0733 -0.7886  2.3380
   84SOPE  C211 7779   0.762   3.933   6.235 -0.1668 -0.9515 -0.2603
   84SOPE  H11R 7780   0.862   3.967   6.271 -0.5506 -1.8430  1.8152
   84SOPE  H11S 7781   0.786   3.836   6.187 -1.4664 -1.5154  0.1817
   84SOPE  C212 7782   0.675   3.916   6.360 -0.0176 -1.0592 -0.4366
   84SOPE  H12R 7783   0.587   3.853   6.339 -2.0345  0.9793  1.3702
   84SOPE  H12S 7784   0.636   4.015   6.391 -1.1529 -1.8023  0.5983
   84SOPE  C213 7785   0.755   3.852   6.476  0.0112 -0.3262 -0.8188
   84SOPE  H13R 7786   0.850   3.908   6.486 -0.0741 -0.4141  0.5788
   84SOPE  H13S 7787   0.771   3.751   6.433 -0.6910 -0.4006 -0.9116
   84SOPE  C214 7788   0.695   3.838   6.618  0.5212 -0.1862  0.3121
   84SOPE  H14R 7789   0.671   3.934   6.669  0.4777 -0.0007 -0.0468
   84SOPE  H14S 7790   0.771   3.776   6.669  1.7215 -2.9432 -4.2569
   84SOPE  C215 7791   0.568   3.755   6.600  0.5813  0.4243  0.0583
   84SOPE  H15R 7792   0.587   3.667   6.534 -0.5245  2.1758 -2.7770
   84SOPE  H15S 7793   0.485   3.815   6.557  0.4096  1.6032  1.9500
   84SOPE  C216 7794   0.513   3.727   6.742  0.1238 -0.6097 -0.5672
   84SOPE  H16R 7795   0.481   3.815   6.802 -1.2931 -0.3451 -1.6446
   84SOPE  H16S 7796   0.593   3.685   6.806  1.2558  2.4903  0.2043
   84SOPE  C217 7797   0.405   3.617   6.739  0.0293 -0.0032 -0.9409
   84SOPE  H17R 7798   0.453   3.525   6.701 -0.0429  0.0926 -1.2665
   84SOPE  H17S 7799   0.317   3.651   6.679 -0.8247 -1.2836 -0.4469
   84SOPE  C218 7800   0.350   3.587   6.884  0.0548  0.2039  0.0996
   84SOPE  H18R 7801   0.417   3.520   6.942  0.7487  1.2977  0.5996
   84SOPE  H18S 7802   0.251   3.537   6.883  1.6009 -3.1504  1.5775
   84SOPE  H18T 7803   0.340   3.682   6.942  0.5564  1.9216 -2.4404
   84SOPE   C33 7804  -0.082   4.538   5.565  0.5930  0.4801  0.2130
   84SOPE   H3X 7805  -0.193   4.546   5.564  0.3164 -1.3064  3.1570
   84SOPE   H3Y 7806  -0.045   4.641   5.547  3.0312 -0.2752  0.4277
   84SOPE   C34 7807  -0.033   4.481   5.698  0.5113 -0.0884  0.2511
   84SOPE   H4X 7808  -0.067   4.554   5.774 -1.8138  0.2341 -1.0002
   84SOPE   H4Y 7809   0.077   4.493   5.706  0.4935 -0.0701  0.4742
   84SOPE   C35 7810  -0.067   4.335   5.737 -0.3726  0.3199 -0.2755
   84SOPE   H5X 7811  -0.021   4.261   5.669  1.0062  2.0331 -1.2960
   84SOPE   H5Y 7812  -0.178   4.329   5.731 -0.5492  0.3743  2.0439
   84SOPE   C36 7813  -0.012   4.304   5.876  0.0126  0.7207 -0.0356
   84SOPE   H6X 7814   0.098   4.317   5.873  0.4542 -2.4983 -1.8895
   84SOPE   H6Y 7815  -0.028   4.197   5.901  0.9558  0.2579 -1.3310
   84SOPE   C37 7816  -0.065   4.387   5.995 -0.1984 -0.4264 -0.4681
   84SOPE   H7X 7817  -0.175   4.369   5.996 -0.1953 -0.4242  0.0927
   84SOPE   H7Y 7818  -0.049   4.494   5.969  1.3003 -0.9225 -1.7482
   84SOPE   C38 7819  -0.010   4.334   6.125 -0.3242  0.5011 -0.3387
   84SOPE   H8X 7820   0.100   4.349   6.125 -0.2067 -0.3120 -0.4215
   84SOPE   H8Y 7821  -0.041   4.232   6.157 -1.3612  1.1884  0.9454
   84SOPE   C39 7822  -0.058   4.408   6.252 -0.0833 -0.0691 -0.9939
   84SOPE   H9X 7823  -0.169   4.399   6.261 -0.0007 -0.0207  0.2438
   84SOPE   H9Y 7824  -0.033   4.514   6.232  0.8713  0.0418  0.5950
   84SOPE  C310 7825  -0.005   4.364   6.385  0.4900  0.3911  0.5347
   84SOPE  H10X 7826   0.106   4.368   6.387  0.4905  0.9322 -0.2586
   84SOPE  H10Y 7827  -0.024   4.256   6.405 -1.0428  0.8770  1.9875
   84SOPE  C311 7828  -0.041   4.459   6.496  0.3004  0.0579 -0.0840
   84SOPE  H11X 7829  -0.149   4.435   6.506 -0.0921  1.3382 -0.9654
   84SOPE  H11Y 7830  -0.036   4.563   6.459  0.9466 -0.7130 -2.3558
   84SOPE  C312 7831   0.020   4.437   6.638 -0.4730 -0.1162 -0.2946
   84SOPE  H12X 7832   0.131   4.449   6.639 -0.3239 -1.3273  1.0811
   84SOPE  H12Y 7833  -0.006   4.334   6.669  3.6314 -0.9900  0.9062
   84SOPE  C313 7834  -0.032   4.541   6.743  0.8305  0.5625 -0.0451
   84SOPE  H13X 7835  -0.136   4.510   6.766  0.5176  0.8389 -1.0427
   84SOPE  H13Y 7836  -0.031   4.650   6.724 -0.3053  1.0583  2.3842
   84SOPE  C314 7837   0.064   4.536   6.865  0.2854 -0.3010  0.2667
   84SOPE  H14X 7838   0.166   4.568   6.834 -0.5187  2.0874 -0.1389
   84SOPE  H14Y 7839   0.072   4.429   6.895  0.3129 -0.8710 -1.6503
   84SOPE  C315 7840   0.018   4.623   6.985 -0.3667 -0.0722  0.4941
   84SOPE  H15X 7841   0.101   4.604   7.056  1.6793 -0.2070 -1.8276
   84SOPE  H15Y 7842  -0.083   4.590   7.018  0.2171 -0.9650  1.4330
   84SOPE  C316 7843   0.018   4.774   6.953 -0.7878  0.2431 -0.3785
   84SOPE  H16X 7844  -0.089   4.782   6.926 -1.5195 -2.5833  1.2742
   84SOPE  H16Y 7845   0.088   4.802   6.871 -0.6177 -0.6246 -0.5439
   84SOPE  C317 7846   0.062   4.853   7.080  0.9412 -0.4035 -0.4229
   84SOPE  H17X 7847   0.002   4.820   7.168  0.3001  0.0025 -0.7043
   84SOPE  H17Y 7848   0.034   4.957   7.056  0.1831 -0.6112 -0.4610
   84SOPE  C318 7849   0.214   4.842   7.104  0.9557 -0.6290 -0.4596
   84SOPE  H18X 7850   0.241   4.831   7.211 -2.7422  2.1882  0.9817
   84SOPE  H18Y 7851   0.263   4.933   7.062 -1.7112  1.1979  0.1858
   84SOPE  H18Z 7852   0.252   4.755   7.046  1.4946 -0.1108 -0.8980
   85SOPE     N 7853   1.491   3.108   4.023  0.0273  0.1809  0.0471
   85SOPE   HN1 7854   1.571   3.042   4.020  1.6498  1.9759  0.9765
   85SOPE   HN2 7855   1.406   3.060   3.989 -0.6140  1.7986 -0.7478
   85SOPE   HN3 7856   1.511   3.185   3.955  2.5919 -0.3752  0.0744
   85SOPE   C12 7857   1.464   3.150   4.166 -0.5974 -0.1969  0.8110
   85SOPE  H12A 7858   1.546   3.221   4.190 -0.9462  1.2550 -1.9097
   85SOPE  H12B 7859   1.468   3.064   4.236 -1.2528  0.8690  2.2076
   85SOPE   C11 7860   1.341   3.235   4.182 -0.1803 -0.3450  0.5148
   85SOPE  H11A 7861   1.363   3.330   4.129  0.5624 -1.1481 -0.6771
   85SOPE  H11B 7862   1.320   3.248   4.291 -1.6064 -1.7399  0.4398
   85SOPE     P 7863   1.124   3.215   4.028 -0.2534 -0.1580 -0.5227
   85SOPE   O13 7864   1.043   3.105   3.985 -0.3568  0.0468 -0.1267
   85SOPE   O14 7865   1.200   3.279   3.918  0.2015 -0.2732  0.1905
   85SOPE   O12 7866   1.229   3.166   4.141  0.4106 -0.0160  0.4952
   85SOPE   O11 7867   1.034   3.336   4.082 -0.6604  0.3632 -0.4790
   85SOPE    C1 7868   1.082   3.462   4.117 -0.2206 -0.3568  0.0842
   85SOPE    HA 7869   1.021   3.524   4.048  2.5809  0.2065 -2.0380
   85SOPE    HB 7870   1.191   3.480   4.119  0.0268 -1.6693 -0.7265
   85SOPE    C2 7871   1.028   3.507   4.252 -0.4474 -0.3760 -0.5909
   85SOPE    HS 7872   1.057   3.614   4.254  1.8561 -0.9572  0.4588
   85SOPE   O21 7873   1.095   3.426   4.356 -0.7731  0.0967 -0.0668
   85SOPE   C21 7874   1.195   3.486   4.417 -0.0754  0.7377 -0.4558
   85SOPE   O22 7875   1.243   3.598   4.392  0.1487  0.2739  1.2700
   85SOPE   C22 7876   1.234   3.399   4.538  0.1328 -0.1792 -0.1960
   85SOPE   H2R 7877   1.242   3.299   4.491  0.2610  0.8626 -2.5702
   85SOPE   H2S 7878   1.145   3.392   4.604 -0.0290 -2.3357 -0.5838
   85SOPE    C3 7879   0.874   3.486   4.258 -0.1469  0.2068  0.5733
   85SOPE    HX 7880   0.860   3.381   4.226 -2.1925 -0.1004  2.3032
   85SOPE    HY 7881   0.836   3.558   4.182  1.4237 -1.2555 -1.7297
   85SOPE   O31 7882   0.824   3.514   4.390  0.4200 -0.1995 -1.2351
   85SOPE   C31 7883   0.794   3.408   4.458 -0.1274 -0.3693  1.5830
   85SOPE   O32 7884   0.834   3.296   4.447  0.0982  0.3102  0.3688
   85SOPE   C32 7885   0.684   3.451   4.555  0.3820 -0.0469  0.2476
   85SOPE   H2X 7886   0.598   3.486   4.493 -1.0816 -1.8986  1.1178
   85SOPE   H2Y 7887   0.722   3.539   4.610  1.9198 -0.2755 -0.3966
   85SOPE   C23 7888   1.362   3.446   4.607  0.0003  0.2061  0.8223
   85SOPE   H3R 7889   1.446   3.457   4.535 -0.8637 -1.1181 -0.4378
   85SOPE   H3S 7890   1.386   3.362   4.676 -1.1099 -2.1715 -1.5063
   85SOPE   C24 7891   1.352   3.579   4.684  1.0145  0.1708  0.3409
   85SOPE   H4R 7892   1.328   3.657   4.609 -0.4545 -1.4302 -0.9102
   85SOPE   H4S 7893   1.272   3.572   4.761  0.6477  1.3979  0.0901
   85SOPE   C25 7894   1.488   3.614   4.745  0.8845 -0.1056 -0.4094
   85SOPE   H5R 7895   1.575   3.596   4.678  1.5360  1.5594 -0.0732
   85SOPE   H5S 7896   1.490   3.723   4.769 -0.8200 -0.1883  0.1978
   85SOPE   C26 7897   1.506   3.523   4.869  0.0178  0.2884 -0.1768
   85SOPE   H6R 7898   1.413   3.541   4.926  0.1972 -0.1133  0.2492
   85SOPE   H6S 7899   1.502   3.414   4.849 -0.3016  0.6868 -2.6572
   85SOPE   C27 7900   1.627   3.562   4.961  0.7801  0.2783 -0.3357
   85SOPE   H7R 7901   1.722   3.530   4.914 -0.2391 -0.7712 -1.7824
   85SOPE   H7S 7902   1.650   3.671   4.967  0.7773  0.2196  2.9963
   85SOPE   C28 7903   1.612   3.503   5.103 -0.1239 -0.2487  0.1085
   85SOPE   H8R 7904   1.708   3.527   5.155  0.7431 -0.7565 -1.2048
   85SOPE   H8S 7905   1.523   3.543   5.155 -0.2374  0.7697 -0.8180
   85SOPE   C29 7906   1.609   3.350   5.102 -0.4646 -0.4207 -0.0367
   85SOPE   H91 7907   1.576   3.302   5.008  0.4872 -1.4281  0.1191
   85SOPE  C210 7908   1.650   3.273   5.203 -0.0656 -0.0653  0.9361
   85SOPE  H101 7909   1.653   3.164   5.187 -0.0310  0.2055 -1.1373
   85SOPE  C211 7910   1.699   3.325   5.338 -0.5352 -0.5344  0.5486
   85SOPE  H11R 7911   1.708   3.435   5.339  0.9405 -0.5957 -1.2839
   85SOPE  H11S 7912   1.806   3.294   5.335  0.0426  1.2603  1.3293
   85SOPE  C212 7913   1.636   3.254   5.457  0.9254 -1.2323 -0.3188
   85SOPE  H12R 7914   1.598   3.153   5.432  0.1210 -0.9446 -0.3068
   85SOPE  H12S 7915   1.546   3.310   5.490  0.0535 -2.2299 -0.9646
   85SOPE  C213 7916   1.728   3.252   5.583 -0.0984 -0.2394 -0.2118
   85SOPE  H13R 7917   1.743   3.353   5.625  2.9540 -0.3813 -0.7526
   85SOPE  H13S 7918   1.834   3.231   5.560 -0.7770 -3.5137 -0.9222
   85SOPE  C214 7919   1.688   3.168   5.700 -0.0771  0.3682 -0.1161
   85SOPE  H14R 7920   1.669   3.059   5.684  0.0013 -0.3409  3.6368
   85SOPE  H14S 7921   1.587   3.205   5.728 -2.0277 -2.9201 -2.1233
   85SOPE  C215 7922   1.784   3.178   5.818 -0.2013  0.0113 -0.2874
   85SOPE  H15R 7923   1.884   3.137   5.795 -0.5264  0.2814 -2.4668
   85SOPE  H15S 7924   1.743   3.101   5.886 -4.5321  0.3710 -2.1176
   85SOPE  C216 7925   1.772   3.307   5.902 -0.7612  0.4280 -0.0332
   85SOPE  H16R 7926   1.673   3.317   5.953 -0.2838 -1.6322  1.4243
   85SOPE  H16S 7927   1.775   3.396   5.835 -0.9279  0.4738  0.0194
   85SOPE  C217 7928   1.880   3.324   6.011 -0.1700  0.1465  0.1810
   85SOPE  H17R 7929   1.861   3.419   6.066 -0.3190 -0.9602  2.1541
   85SOPE  H17S 7930   1.978   3.329   5.959 -0.1009 -1.6979  0.0513
   85SOPE  C218 7931   1.894   3.215   6.123 -0.1501 -0.2305 -0.1168
   85SOPE  H18R 7932   1.797   3.188   6.169 -0.4115  0.2726 -0.3737
   85SOPE  H18S 7933   1.956   3.253   6.207 -1.2380 -1.8729  1.5134
   85SOPE  H18T 7934   1.942   3.124   6.080  0.3064 -0.2870  0.4900
   85SOPE   C33 7935   0.636   3.329   4.638 -0.4405 -0.3616 -0.0081
   85SOPE   H3X 7936   0.610   3.241   4.576 -0.5248 -2.1845  2.4508
   85SOPE   H3Y 7937   0.535   3.358   4.676 -0.2901  0.1209  0.0323
   85SOPE   C34 7938   0.735   3.279   4.748 -0.6125 -0.3308  0.3379
   85SOPE   H4X 7939   0.836   3.255   4.706 -0.8693 -1.2773  0.2249
   85SOPE   H4Y 7940   0.690   3.187   4.792 -1.3405 -0.2753 -0.2785
   85SOPE   C35 7941   0.742   3.374   4.863 -0.1294 -0.1169 -0.0356
   85SOPE   H5X 7942   0.646   3.383   4.919  1.0893  2.1981  1.9117
   85SOPE   H5Y 7943   0.769   3.480   4.844  0.1268  0.4255  2.8426
   85SOPE   C36 7944   0.841   3.326   4.974 -0.4879  0.0733 -0.9594
   85SOPE   H6X 7945   0.884   3.414   5.026  0.6980 -0.2173 -1.4108
   85SOPE   H6Y 7946   0.932   3.275   4.935  1.0076  1.0921  1.0280
   85SOPE   C37 7947   0.774   3.245   5.089 -0.2647 -0.3277  0.2649
   85SOPE   H7X 7948   0.725   3.161   5.036 -0.8398  0.3622 -0.3280
   85SOPE   H7Y 7949   0.689   3.303   5.130 -0.5050  0.0545 -0.7371
   85SOPE   C38 7950   0.870   3.222   5.205  0.2650  0.0494 -0.1676
   85SOPE   H8X 7951   0.926   3.314   5.233 -1.2386  0.6173  1.1340
   85SOPE   H8Y 7952   0.947   3.149   5.174  0.5547 -0.1303  0.9168
   85SOPE   C39 7953   0.802   3.162   5.331 -0.2157  0.7500  0.1923
   85SOPE   H9X 7954   0.779   3.059   5.296  1.1317  0.5337 -0.1431
   85SOPE   H9Y 7955   0.710   3.218   5.355 -1.4975 -2.0154  2.3432
   85SOPE  C310 7956   0.890   3.153   5.453 -0.6313 -0.3438  0.2716
   85SOPE  H10X 7957   0.955   3.244   5.449 -1.8806  0.5454 -0.2802
   85SOPE  H10Y 7958   0.968   3.074   5.461  0.7013  1.0877  2.4678
   85SOPE  C311 7959   0.815   3.151   5.587  0.2051  0.7357 -0.4167
   85SOPE  H11X 7960   0.755   3.058   5.581 -0.4556  1.2219 -1.6744
   85SOPE  H11Y 7961   0.737   3.229   5.597 -2.5322 -1.7793 -0.8207
   85SOPE  C312 7962   0.914   3.146   5.704  0.3961 -0.0534  0.7067
   85SOPE  H12X 7963   0.965   3.245   5.705 -0.5199  0.4504 -0.3315
   85SOPE  H12Y 7964   0.990   3.069   5.678 -1.1057 -2.4453  2.8694
   85SOPE  C313 7965   0.846   3.130   5.835 -0.1975  0.3114 -0.4818
   85SOPE  H13X 7966   0.780   3.041   5.847 -1.1512  1.2153  1.5274
   85SOPE  H13Y 7967   0.782   3.221   5.842  0.0261  0.5556 -1.3862
   85SOPE  C314 7968   0.942   3.130   5.952  0.2485  0.3166  0.2256
   85SOPE  H14X 7969   1.015   3.213   5.936  2.2964 -1.5406 -0.5872
   85SOPE  H14Y 7970   0.991   3.031   5.954 -2.0876 -0.8860  1.3764
   85SOPE  C315 7971   0.858   3.149   6.084 -0.2161  0.2117  0.3946
   85SOPE  H15X 7972   0.788   3.063   6.090 -0.2986  0.1177 -1.4817
   85SOPE  H15Y 7973   0.794   3.239   6.072  1.9727  1.9170  0.8146
   85SOPE  C316 7974   0.947   3.168   6.207  0.2077  0.0398 -0.2043
   85SOPE  H16X 7975   0.919   3.248   6.278  0.0419 -0.1922 -0.0091
   85SOPE  H16Y 7976   1.046   3.200   6.167  0.3806  0.1776  0.3331
   85SOPE  C317 7977   0.967   3.039   6.286 -0.9154  0.5728 -0.1536
   85SOPE  H17X 7978   0.988   2.951   6.222 -1.6159  0.9362 -0.8991
   85SOPE  H17Y 7979   0.865   3.028   6.329 -0.9189  0.4299 -0.2004
   85SOPE  C318 7980   1.067   3.056   6.399 -0.6378  0.0343  0.2906
   85SOPE  H18X 7981   1.071   2.959   6.454 -0.1128  0.0576  0.2926
   85SOPE  H18Y 7982   1.027   3.135   6.466  0.7175  0.6698  0.3596
   85SOPE  H18Z 7983   1.163   3.083   6.351 -0.1385 -1.4249  0.4208
   86SOPE     N 7984   2.714   2.475   4.140 -0.1293  0.5319 -0.0761
   86SOPE   HN1 7985   2.614   2.487   4.112 -0.0234  0.9650 -0.2764
   86SOPE   HN2 7986   2.710   2.430   4.234 -1.9520 -0.0965 -0.4115
   86SOPE   HN3 7987   2.773   2.561   4.141  0.8444 -0.1191 -0.1438
   86SOPE   C12 7988   2.782   2.385   4.040  0.8550  0.5803  0.0662
   86SOPE  H12A 7989   2.873   2.438   4.004  0.2784  0.9858 -0.7969
   86SOPE  H12B 7990   2.718   2.377   3.950 -1.5526  1.2075  1.6541
   86SOPE   C11 7991   2.819   2.248   4.095  0.9384 -0.0090 -0.6149
   86SOPE  H11A 7992   2.897   2.279   4.168  3.5034 -0.7843 -2.8805
   86SOPE  H11B 7993   2.863   2.198   4.007  0.2042 -0.9791 -0.4504
   86SOPE     P 7994   2.752   2.040   4.230  0.1879  0.5116  0.2897
   86SOPE   O13 7995   2.898   2.013   4.241  0.2805 -0.2809 -0.0732
   86SOPE   O14 7996   2.680   1.925   4.177 -0.3463 -0.3933  0.4745
   86SOPE   O12 7997   2.714   2.163   4.146  0.1630 -0.2674 -0.5335
   86SOPE   O11 7998   2.691   2.056   4.377 -0.6840 -0.1513 -0.4116
   86SOPE    C1 7999   2.747   1.963   4.478  0.6811  0.0034 -0.4240
   86SOPE    HA 8000   2.856   1.982   4.490  0.8034 -0.9732  0.0604
   86SOPE    HB 8001   2.722   1.857   4.454 -3.5130  0.1262  2.4061
   86SOPE    C2 8002   2.669   1.986   4.608 -0.5958 -0.2235  0.1747
   86SOPE    HS 8003   2.744   1.977   4.690 -1.3837  0.4453  0.9771
   86SOPE   O21 8004   2.555   1.899   4.615  0.0337  0.2686  0.2412
   86SOPE   C21 8005   2.582   1.773   4.658  0.4772 -0.3570 -0.1018
   86SOPE   O22 8006   2.693   1.732   4.670  0.0236 -0.6620 -0.3401
   86SOPE   C22 8007   2.444   1.711   4.695  0.1433 -0.4428  0.4109
   86SOPE   H2R 8008   2.423   1.612   4.649  1.4895 -0.7564  0.4266
   86SOPE   H2S 8009   2.370   1.783   4.654  1.5337  0.3229 -0.8476
   86SOPE    C3 8010   2.620   2.136   4.623 -0.6861  0.1369  0.4536
   86SOPE    HX 8011   2.571   2.160   4.525  0.6692  0.6494 -0.1272
   86SOPE    HY 8012   2.706   2.206   4.617 -0.2652 -0.3866  0.3411
   86SOPE   O31 8013   2.537   2.154   4.738 -0.6775  0.0794  0.5064
   86SOPE   C31 8014   2.591   2.141   4.858  1.4091 -0.6250 -0.1669
   86SOPE   O32 8015   2.706   2.144   4.893 -0.5844  0.7098  0.2705
   86SOPE   C32 8016   2.466   2.129   4.955  0.5003 -0.3201 -0.4230
   86SOPE   H2X 8017   2.394   2.059   4.907  0.7292 -0.7512 -0.1456
   86SOPE   H2Y 8018   2.433   2.234   4.968  0.0873 -0.4972 -0.0200
   86SOPE   C23 8019   2.418   1.697   4.844 -0.1536 -0.2819 -0.0089
   86SOPE   H3R 8020   2.317   1.652   4.855 -0.2950 -0.2845 -1.1529
   86SOPE   H3S 8021   2.411   1.795   4.896  0.7791 -0.0589 -0.2793
   86SOPE   C24 8022   2.518   1.595   4.908  0.5571 -0.3941  0.5864
   86SOPE   H4R 8023   2.552   1.514   4.840 -0.0354 -0.5562  0.4748
   86SOPE   H4S 8024   2.613   1.649   4.928  0.0831  0.2428  1.1683
   86SOPE   C25 8025   2.462   1.535   5.036 -0.2402 -0.1741 -0.6333
   86SOPE   H5R 8026   2.456   1.617   5.110  1.8322 -0.8583  0.3769
   86SOPE   H5S 8027   2.360   1.497   5.015  0.1321 -0.8230 -1.3294
   86SOPE   C26 8028   2.540   1.414   5.080  0.2352  0.0638 -0.0636
   86SOPE   H6R 8029   2.485   1.367   5.164 -0.7816 -1.4197 -1.4993
   86SOPE   H6S 8030   2.556   1.340   4.999 -3.5148  1.8873 -2.7754
   86SOPE   C27 8031   2.683   1.449   5.133  1.5650 -0.1706 -0.1484
   86SOPE   H7R 8032   2.747   1.499   5.058 -0.3475  2.3833 -0.2052
   86SOPE   H7S 8033   2.665   1.521   5.215 -3.6605 -2.6128  1.3282
   86SOPE   C28 8034   2.767   1.338   5.190 -1.4608  0.5862 -0.0607
   86SOPE   H8R 8035   2.705   1.280   5.261  3.1179 -3.8368  0.9769
   86SOPE   H8S 8036   2.795   1.251   5.126  0.5797 -0.3982  2.0417
   86SOPE   C29 8037   2.890   1.395   5.251 -0.0707 -0.2830 -0.5085
   86SOPE   H91 8038   2.972   1.412   5.180  0.5188 -3.1286 -0.6292
   86SOPE  C210 8039   2.903   1.431   5.385  0.1066 -0.3696  0.0562
   86SOPE  H101 8040   2.996   1.478   5.420 -0.1853  0.3916 -0.1834
   86SOPE  C211 8041   2.785   1.431   5.480 -0.0289  0.2798 -0.5998
   86SOPE  H11R 8042   2.688   1.398   5.438 -0.8017 -0.1680  1.4062
   86SOPE  H11S 8043   2.765   1.533   5.519 -0.2115 -0.2950  0.8762
   86SOPE  C212 8044   2.820   1.342   5.606  0.0191 -0.2672  0.3040
   86SOPE  H12R 8045   2.901   1.396   5.659 -0.4084  0.1533  0.5285
   86SOPE  H12S 8046   2.859   1.249   5.558 -0.6136 -0.0243 -0.7137
   86SOPE  C213 8047   2.706   1.313   5.708  0.4132  0.0485 -0.9129
   86SOPE  H13R 8048   2.625   1.263   5.651 -1.0580  0.1371  0.9668
   86SOPE  H13S 8049   2.665   1.412   5.739  2.2339 -0.1543  2.6127
   86SOPE  C214 8050   2.750   1.246   5.836 -0.0693 -0.7336  0.2929
   86SOPE  H14R 8051   2.811   1.156   5.814  1.7995  0.9055 -1.7342
   86SOPE  H14S 8052   2.666   1.207   5.897  1.1368  1.0137  3.2907
   86SOPE  C215 8053   2.843   1.332   5.921 -0.2789  0.3124  0.1343
   86SOPE  H15R 8054   2.795   1.406   5.989  1.4674  1.9889 -0.3496
   86SOPE  H15S 8055   2.917   1.390   5.862  0.6196  0.7287  1.6312
   86SOPE  C216 8056   2.931   1.242   6.012 -0.1448 -0.2553 -0.0095
   86SOPE  H16R 8057   3.011   1.307   6.054 -0.4660  0.1265  0.0162
   86SOPE  H16S 8058   2.971   1.156   5.954 -1.8777 -0.6908 -0.6322
   86SOPE  C217 8059   2.865   1.182   6.132 -0.1735  0.1147  0.2629
   86SOPE  H17R 8060   2.800   1.105   6.084 -0.4468  1.9207 -2.4673
   86SOPE  H17S 8061   2.811   1.255   6.196 -0.6530 -0.5588  0.6449
   86SOPE  C218 8062   2.972   1.117   6.212 -0.3964  0.1908  0.0382
   86SOPE  H18R 8063   3.042   1.058   6.150 -1.5845 -2.4207  1.0469
   86SOPE  H18S 8064   2.932   1.053   6.293  1.4988  0.1637  0.9857
   86SOPE  H18T 8065   3.037   1.198   6.251 -0.2440  1.2811 -2.2487
   86SOPE   C33 8066   2.504   2.073   5.092 -0.1974 -0.2018 -0.3691
   86SOPE   H3X 8067   2.582   2.135   5.141  0.1487  0.2686 -1.4746
   86SOPE   H3Y 8068   2.550   1.975   5.067  2.4934  0.0366  2.9989
   86SOPE   C34 8069   2.388   2.055   5.183 -0.0855  0.0476 -0.5403
   86SOPE   H4X 8070   2.312   1.996   5.128 -0.8037 -0.9835  1.4662
   86SOPE   H4Y 8071   2.341   2.155   5.194 -0.3225  0.0735 -1.6453
   86SOPE   C35 8072   2.415   1.989   5.316  0.7462 -0.3527  0.5672
   86SOPE   H5X 8073   2.326   1.937   5.358  0.1054  1.3866  1.4347
   86SOPE   H5Y 8074   2.446   2.073   5.381  0.1411  0.2732  0.0668
   86SOPE   C36 8075   2.516   1.876   5.318 -0.5918  0.1671  0.3160
   86SOPE   H6X 8076   2.612   1.926   5.294  0.2353 -1.9474 -1.0371
   86SOPE   H6Y 8077   2.491   1.790   5.253  1.0524 -0.5153  0.5605
   86SOPE   C37 8078   2.539   1.818   5.456 -0.3052  0.8721 -0.3794
   86SOPE   H7X 8079   2.555   1.897   5.532 -0.2989  1.1778 -0.6951
   86SOPE   H7Y 8080   2.634   1.760   5.448 -1.0762 -0.7919  1.5256
   86SOPE   C38 8081   2.421   1.724   5.483 -0.2126  0.4305  0.2835
   86SOPE   H8X 8082   2.385   1.661   5.398 -0.4884 -0.1139  0.7953
   86SOPE   H8Y 8083   2.329   1.777   5.515 -0.8112 -1.2739  1.5470
   86SOPE   C39 8084   2.442   1.641   5.607 -0.4294 -0.4137  0.0437
   86SOPE   H9X 8085   2.458   1.707   5.695  0.7637 -0.8647  0.1905
   86SOPE   H9Y 8086   2.530   1.573   5.602  0.8391  0.8819  2.8838
   86SOPE  C310 8087   2.319   1.556   5.630  0.8398  0.0359 -0.4698
   86SOPE  H10X 8088   2.290   1.505   5.535 -1.9619  0.5991 -0.0194
   86SOPE  H10Y 8089   2.230   1.612   5.666  1.4965 -0.2371  1.6990
   86SOPE  C311 8090   2.338   1.451   5.746  0.0038 -0.0792 -0.0151
   86SOPE  H11X 8091   2.443   1.422   5.724  0.7434  2.6098 -0.4176
   86SOPE  H11Y 8092   2.262   1.370   5.739 -2.2878  1.8691  1.3157
   86SOPE  C312 8093   2.335   1.525   5.886  0.2195  0.3863  0.3213
   86SOPE  H12X 8094   2.230   1.554   5.908 -0.9822 -1.7079 -2.1803
   86SOPE  H12Y 8095   2.385   1.625   5.881  0.6735  0.3000  2.1555
   86SOPE  C313 8096   2.388   1.445   5.998  0.1412 -0.1234 -0.5676
   86SOPE  H13X 8097   2.499   1.450   5.991  0.2730  0.1161  1.2730
   86SOPE  H13Y 8098   2.371   1.338   5.974  1.0669 -0.1571 -1.1316
   86SOPE  C314 8099   2.349   1.494   6.137  0.0216 -0.0505 -0.1176
   86SOPE  H14X 8100   2.239   1.502   6.130  0.0885  0.5067 -0.6310
   86SOPE  H14Y 8101   2.391   1.596   6.145 -2.6384  1.2944 -1.9014
   86SOPE  C315 8102   2.404   1.401   6.245  0.2519  1.2341  0.4710
   86SOPE  H15X 8103   2.514   1.405   6.227 -0.0023  2.5155 -1.0101
   86SOPE  H15Y 8104   2.373   1.297   6.220  2.1456  0.7955 -0.2199
   86SOPE  C316 8105   2.359   1.440   6.384  0.1391 -0.2643  0.7660
   86SOPE  H16X 8106   2.249   1.422   6.384  0.3744 -2.1347 -0.8855
   86SOPE  H16Y 8107   2.391   1.542   6.412 -0.0494 -0.3110  1.1487
   86SOPE  C317 8108   2.406   1.339   6.483 -0.7848  0.5390  0.1555
   86SOPE  H17X 8109   2.512   1.365   6.505 -0.2765  0.6009 -2.1372
   86SOPE  H17Y 8110   2.419   1.237   6.441  1.5466 -0.0519  2.0334
   86SOPE  C318 8111   2.324   1.347   6.617 -0.6635  0.0889  0.4154
   86SOPE  H18X 8112   2.215   1.332   6.608 -1.0260  1.7209  1.5961
   86SOPE  H18Y 8113   2.323   1.452   6.654  1.1030 -0.5344  2.4089
   86SOPE  H18Z 8114   2.355   1.276   6.696 -0.2912  1.0605  1.1601
   87SOPE     N 8115   4.148   1.430   4.755 -0.6109 -0.0577  0.2158
   87SOPE   HN1 8116   4.076   1.499   4.723 -0.0722  1.0318  1.2571
   87SOPE   HN2 8117   4.087   1.385   4.827 -0.4873 -0.1745  0.2480
   87SOPE   HN3 8118   4.226   1.486   4.795 -0.2880  0.7169 -1.4323
   87SOPE   C12 8119   4.178   1.335   4.637 -0.5283 -1.1480  0.8017
   87SOPE  H12A 8120   4.088   1.269   4.641 -1.1005 -0.5156 -0.7626
   87SOPE  H12B 8121   4.268   1.279   4.671  1.2425  1.0016 -0.1063
   87SOPE   C11 8122   4.195   1.406   4.503 -0.8696  0.3601  0.3138
   87SOPE  H11A 8123   4.229   1.337   4.423 -0.6733  2.6791 -1.7224
   87SOPE  H11B 8124   4.276   1.482   4.508 -0.4807 -0.0694  0.4958
   87SOPE     P 8125   4.032   1.611   4.467  0.2129 -0.2965  0.0190
   87SOPE   O13 8126   3.899   1.636   4.403  0.0938  0.2898  0.0925
   87SOPE   O14 8127   4.157   1.683   4.423  0.5300  0.5072 -0.0389
   87SOPE   O12 8128   4.067   1.461   4.461  0.4618 -0.0250 -0.1775
   87SOPE   O11 8129   4.009   1.630   4.620  0.1101  0.4719  0.2920
   87SOPE    C1 8130   3.995   1.762   4.673  0.4332 -0.3180  0.3538
   87SOPE    HA 8131   3.909   1.820   4.632  1.5536  1.7370  0.7697
   87SOPE    HB 8132   4.086   1.821   4.650 -0.5749  0.9669 -0.4902
   87SOPE    C2 8133   3.984   1.761   4.823 -0.1159 -0.2450 -0.6261
   87SOPE    HS 8134   3.989   1.871   4.842  2.6863 -0.1641 -1.3056
   87SOPE   O21 8135   4.088   1.676   4.889 -0.0905  0.1433 -0.1376
   87SOPE   C21 8136   4.154   1.750   4.981  0.0252  0.6878  0.4739
   87SOPE   O22 8137   4.133   1.871   5.004 -0.0560 -0.0556 -0.3652
   87SOPE   C22 8138   4.257   1.671   5.052  0.1782  0.4897 -0.0879
   87SOPE   H2R 8139   4.353   1.686   4.998 -0.6158 -0.6652 -1.9007
   87SOPE   H2S 8140   4.240   1.563   5.033 -0.1145  0.6867 -0.9979
   87SOPE    C3 8141   3.850   1.702   4.864  0.3606  0.7021 -0.6820
   87SOPE    HX 8142   3.838   1.595   4.839  1.8799 -0.8250  3.9819
   87SOPE    HY 8143   3.769   1.748   4.804 -1.6090 -2.2752 -0.4681
   87SOPE   O31 8144   3.820   1.717   4.999  0.5228  0.4429 -0.0592
   87SOPE   C31 8145   3.771   1.835   5.038  0.3555  0.2976 -1.4003
   87SOPE   O32 8146   3.749   1.929   4.964  0.3531  0.2121 -0.3868
   87SOPE   C32 8147   3.749   1.823   5.188 -0.0891  0.0089 -0.5495
   87SOPE   H2X 8148   3.703   1.921   5.213 -2.3120 -0.2125 -3.2016
   87SOPE   H2Y 8149   3.846   1.821   5.241 -0.2789  0.7755 -0.1570
   87SOPE   C23 8150   4.253   1.705   5.207 -0.8945 -0.5077 -0.4546
   87SOPE   H3R 8151   4.285   1.809   5.230  0.5618 -0.7585 -1.2277
   87SOPE   H3S 8152   4.332   1.642   5.253 -1.5852 -1.9819 -1.2419
   87SOPE   C24 8153   4.114   1.684   5.265 -0.1189  0.6475  0.3196
   87SOPE   H4R 8154   4.046   1.760   5.221 -0.2144 -0.4709 -1.5375
   87SOPE   H4S 8155   4.088   1.580   5.238  2.3576  0.4093 -1.5233
   87SOPE   C25 8156   4.106   1.676   5.423  0.7228  1.1321  0.2093
   87SOPE   H5R 8157   4.145   1.578   5.456  0.7135  0.4884 -1.5862
   87SOPE   H5S 8158   4.169   1.759   5.463  0.8919  0.5970  1.0815
   87SOPE   C26 8159   3.977   1.690   5.492 -0.1621 -0.2459  0.8219
   87SOPE   H6R 8160   3.916   1.776   5.456  0.1539  0.0674  1.0203
   87SOPE   H6S 8161   3.925   1.592   5.487 -1.3443  0.4026 -0.3163
   87SOPE   C27 8162   3.997   1.718   5.644  0.4324 -0.1197  0.2772
   87SOPE   H7R 8163   4.060   1.633   5.678  3.9066  1.9618 -0.5160
   87SOPE   H7S 8164   4.053   1.814   5.646 -0.5186  0.4667 -0.4254
   87SOPE   C28 8165   3.866   1.734   5.725  0.0645 -0.3776  0.0497
   87SOPE   H8R 8166   3.783   1.777   5.665 -2.0363 -0.2678  2.8457
   87SOPE   H8S 8167   3.826   1.635   5.753  1.0757 -1.5997 -2.4738
   87SOPE   C29 8168   3.890   1.806   5.853  0.1621  0.3849 -0.7954
   87SOPE   H91 8169   3.922   1.911   5.863 -0.0734  0.3001  1.4938
   87SOPE  C210 8170   3.875   1.745   5.979  0.2538  0.7195  0.3333
   87SOPE  H101 8171   3.889   1.810   6.067  2.7992 -1.1350  1.4040
   87SOPE  C211 8172   3.835   1.600   6.019 -0.2782  0.2968 -0.2345
   87SOPE  H11R 8173   3.926   1.537   6.030  0.2477  1.1135  0.2378
   87SOPE  H11S 8174   3.781   1.551   5.935 -3.8823  2.3930  0.6452
   87SOPE  C212 8175   3.752   1.589   6.147 -0.7152  0.8761  0.5187
   87SOPE  H12R 8176   3.829   1.593   6.227 -0.8223 -1.6031  0.8236
   87SOPE  H12S 8177   3.702   1.492   6.168 -1.3370  0.9557 -0.5291
   87SOPE  C213 8178   3.651   1.695   6.177  0.4398 -0.6894  0.3091
   87SOPE  H13R 8179   3.586   1.712   6.088 -1.6951 -3.4893  1.2030
   87SOPE  H13S 8180   3.699   1.795   6.188 -2.9648  1.3762 -1.6688
   87SOPE  C214 8181   3.560   1.670   6.299 -0.3924 -0.5559  0.2885
   87SOPE  H14R 8182   3.621   1.660   6.391 -1.7329  1.0127  1.4074
   87SOPE  H14S 8183   3.503   1.577   6.276 -2.1094  0.0960  1.6684
   87SOPE  C215 8184   3.460   1.780   6.329 -1.2915  0.1409  0.3013
   87SOPE  H15R 8185   3.367   1.736   6.371 -0.2228 -1.5368  0.9733
   87SOPE  H15S 8186   3.440   1.842   6.238  0.6750 -1.0178 -0.9806
   87SOPE  C216 8187   3.528   1.877   6.433 -0.3940 -0.1841 -0.0013
   87SOPE  H16R 8188   3.629   1.912   6.402 -1.1902  2.7976  0.4310
   87SOPE  H16S 8189   3.550   1.823   6.527 -2.8307  0.4904  1.0418
   87SOPE  C217 8190   3.461   2.015   6.457 -0.4483  0.3801 -0.1784
   87SOPE  H17R 8191   3.357   1.988   6.485 -0.3505  0.2603  0.0743
   87SOPE  H17S 8192   3.462   2.077   6.365 -0.0645 -1.9493 -1.8474
   87SOPE  C218 8193   3.527   2.096   6.573 -0.3250  0.6843  0.7467
   87SOPE  H18R 8194   3.638   2.106   6.567 -0.3497  0.6635  0.1830
   87SOPE  H18S 8195   3.501   2.064   6.676  1.4190 -0.7495  0.7845
   87SOPE  H18T 8196   3.500   2.204   6.576 -0.6784  0.6125  0.2375
   87SOPE   C33 8197   3.638   1.715   5.218  0.4331  0.3194  0.6696
   87SOPE   H3X 8198   3.676   1.612   5.202 -2.7862 -0.7460 -1.0225
   87SOPE   H3Y 8199   3.553   1.725   5.147  0.5988  0.8523  0.5445
   87SOPE   C34 8200   3.577   1.729   5.355 -0.0067  0.1912 -0.0845
   87SOPE   H4X 8201   3.541   1.834   5.356 -1.0549 -0.1165 -1.7073
   87SOPE   H4Y 8202   3.660   1.730   5.429 -0.9911  2.4997  1.0728
   87SOPE   C35 8203   3.476   1.628   5.404  0.2241  0.2954 -0.0824
   87SOPE   H5X 8204   3.529   1.534   5.430 -0.2709  0.5071  1.8744
   87SOPE   H5Y 8205   3.404   1.606   5.323 -1.5420  1.8009  0.9860
   87SOPE   C36 8206   3.383   1.670   5.523  0.1259  0.1502 -0.8395
   87SOPE   H6X 8207   3.315   1.585   5.541  2.1650 -1.1349  1.4240
   87SOPE   H6Y 8208   3.329   1.758   5.483 -2.1704 -1.3759 -1.2820
   87SOPE   C37 8209   3.463   1.690   5.652  0.2239  0.3888 -0.1042
   87SOPE   H7X 8210   3.524   1.782   5.644 -0.4439  0.7675 -0.9520
   87SOPE   H7Y 8211   3.531   1.604   5.667  1.2625  1.3097  0.5999
   87SOPE   C38 8212   3.367   1.693   5.780  0.1444 -0.4811  0.2780
   87SOPE   H8X 8213   3.301   1.782   5.772  0.6198 -0.2648 -1.8624
   87SOPE   H8Y 8214   3.434   1.717   5.865 -1.4444  3.0431  0.6968
   87SOPE   C39 8215   3.292   1.560   5.814 -0.3166  0.5097  0.3045
   87SOPE   H9X 8216   3.366   1.477   5.821 -0.7060 -0.0097 -1.3061
   87SOPE   H9Y 8217   3.231   1.536   5.724  1.4563 -0.2036 -0.7840
   87SOPE  C310 8218   3.200   1.561   5.934 -0.5076 -0.1056 -0.1907
   87SOPE  H10X 8219   3.140   1.468   5.933 -0.4015 -0.1732 -0.1819
   87SOPE  H10Y 8220   3.129   1.647   5.941 -0.1414  0.2631 -0.9230
   87SOPE  C311 8221   3.280   1.565   6.066 -0.1559 -0.3822 -0.0805
   87SOPE  H11X 8222   3.330   1.664   6.068 -1.0523  0.1016 -1.2514
   87SOPE  H11Y 8223   3.362   1.490   6.055  1.7282  1.6705 -0.8743
   87SOPE  C312 8224   3.200   1.538   6.188  0.0070 -0.0566  0.7162
   87SOPE  H12X 8225   3.257   1.535   6.283 -0.5772  2.1354  1.1962
   87SOPE  H12Y 8226   3.153   1.439   6.168 -0.2362  0.5494 -2.1622
   87SOPE  C313 8227   3.080   1.636   6.201 -0.3099  0.0933  0.1846
   87SOPE  H13X 8228   3.008   1.611   6.120  0.0755 -1.0836  0.1914
   87SOPE  H13Y 8229   3.107   1.744   6.209 -0.2719 -0.0009  1.4777
   87SOPE  C314 8230   2.995   1.602   6.327 -0.1864 -0.2716 -0.0402
   87SOPE  H14X 8231   3.068   1.576   6.406 -1.9165 -0.6152  1.5220
   87SOPE  H14Y 8232   2.943   1.507   6.305  1.8452 -1.5073  0.2734
   87SOPE  C315 8233   2.908   1.727   6.379 -0.0899  0.1205 -0.1796
   87SOPE  H15X 8234   2.824   1.699   6.446 -0.3949  0.7841 -0.2751
   87SOPE  H15Y 8235   2.861   1.772   6.288  1.2491  0.3507 -0.7866
   87SOPE  C316 8236   2.992   1.833   6.440  0.1012 -0.0505 -0.2385
   87SOPE  H16X 8237   3.038   1.899   6.363 -1.5242  1.1949 -0.2020
   87SOPE  H16Y 8238   3.063   1.774   6.502 -0.0297 -0.5624 -0.5788
   87SOPE  C317 8239   2.912   1.933   6.525  1.1494 -0.3228  0.0250
   87SOPE  H17X 8240   2.854   1.885   6.607  2.0368 -1.2052  0.1483
   87SOPE  H17Y 8241   2.850   1.993   6.455  4.7936  1.2336 -2.1588
   87SOPE  C318 8242   2.994   2.041   6.598 -0.3173 -0.8064 -1.1881
   87SOPE  H18X 8243   3.061   2.003   6.678 -1.6718  2.1294  1.6049
   87SOPE  H18Y 8244   2.926   2.108   6.655  0.2092 -0.6685 -0.7051
   87SOPE  H18Z 8245   3.048   2.104   6.524  0.6246 -0.2677 -0.0805
   88SOPE     N 8246   6.067   1.743   4.803 -0.5043  0.1541 -0.0345
   88SOPE   HN1 8247   6.155   1.797   4.814 -0.1797 -0.4341  0.3575
   88SOPE   HN2 8248   6.085   1.645   4.834 -3.9736 -0.8518 -0.7334
   88SOPE   HN3 8249   6.036   1.741   4.704 -1.9675 -1.7402  0.4052
   88SOPE   C12 8250   5.951   1.786   4.880 -0.2806  0.3335 -0.1944
   88SOPE  H12A 8251   5.973   1.774   4.988 -1.5662 -1.2605 -0.0730
   88SOPE  H12B 8252   5.865   1.723   4.848  0.5908 -0.0455 -1.9021
   88SOPE   C11 8253   5.925   1.934   4.859  0.9689  0.1654 -0.6036
   88SOPE  H11A 8254   6.011   1.987   4.904  0.9559 -0.7284  0.5217
   88SOPE  H11B 8255   5.843   1.964   4.928  0.5330 -0.0037 -1.0380
   88SOPE     P 8256   5.887   2.124   4.691  0.0776 -0.1422 -0.1534
   88SOPE   O13 8257   5.834   2.136   4.550 -0.4645 -0.7080 -0.2989
   88SOPE   O14 8258   6.016   2.181   4.737 -0.4109  0.8845  0.0459
   88SOPE   O12 8259   5.890   1.973   4.721 -0.0381  0.5932 -0.1264
   88SOPE   O11 8260   5.783   2.185   4.787  0.1793  0.2439 -0.0769
   88SOPE    C1 8261   5.784   2.324   4.835  0.3846  1.2894  0.3437
   88SOPE    HA 8262   5.693   2.367   4.787 -1.5744 -0.7794  1.9631
   88SOPE    HB 8263   5.864   2.390   4.796  0.1190  1.9839  0.9529
   88SOPE    C2 8264   5.755   2.330   4.985  0.1387 -0.1741  0.3069
   88SOPE    HS 8265   5.771   2.437   5.013 -1.5393  0.4269 -0.8366
   88SOPE   O21 8266   5.845   2.242   5.056 -0.2330  0.1525 -0.2043
   88SOPE   C21 8267   5.967   2.278   5.070  1.0557  0.2631  0.5735
   88SOPE   O22 8268   6.010   2.388   5.035 -0.2048 -0.3107 -0.2619
   88SOPE   C22 8269   6.047   2.160   5.130  0.2207 -0.1166  0.3333
   88SOPE   H2R 8270   6.109   2.122   5.046  0.1237 -1.8458  1.0044
   88SOPE   H2S 8271   5.984   2.076   5.167  0.9837 -1.4619 -1.3035
   88SOPE    C3 8272   5.612   2.286   5.012 -0.1035 -0.6255 -0.9410
   88SOPE    HX 8273   5.576   2.191   4.966 -0.1834 -0.8122 -0.5007
   88SOPE    HY 8274   5.555   2.365   4.958  1.7690  1.0008 -0.6409
   88SOPE   O31 8275   5.579   2.294   5.152 -0.3637 -0.1715 -0.1591
   88SOPE   C31 8276   5.583   2.181   5.215  1.0164  0.2813 -0.2596
   88SOPE   O32 8277   5.583   2.073   5.165  0.1034 -0.4964  0.1209
   88SOPE   C32 8278   5.577   2.209   5.366  0.0892  0.3409 -0.7459
   88SOPE   H2X 8279   5.475   2.240   5.395 -0.0582  0.6445 -1.5357
   88SOPE   H2Y 8280   5.631   2.306   5.378 -0.0678  0.6844 -2.4685
   88SOPE   C23 8281   6.147   2.210   5.239 -0.0660  0.0051 -0.1133
   88SOPE   H3R 8282   6.176   2.313   5.210 -1.0607 -0.0953 -1.6107
   88SOPE   H3S 8283   6.236   2.144   5.243  0.1658 -0.0690 -3.4302
   88SOPE   C24 8284   6.085   2.211   5.382 -0.3132 -0.3388 -0.2099
   88SOPE   H4R 8285   5.981   2.249   5.382 -1.2843 -2.8382 -0.6257
   88SOPE   H4S 8286   6.077   2.104   5.410  0.6634 -0.1670  0.8030
   88SOPE   C25 8287   6.178   2.286   5.489  0.3331  0.3737 -0.2941
   88SOPE   H5R 8288   6.284   2.261   5.469  0.0370 -2.4361  1.1711
   88SOPE   H5S 8289   6.167   2.396   5.479 -0.2655  0.3409 -0.0492
   88SOPE   C26 8290   6.150   2.244   5.634  0.5118 -0.3953 -0.3425
   88SOPE   H6R 8291   6.048   2.273   5.669  0.9703  0.3704  0.4264
   88SOPE   H6S 8292   6.163   2.136   5.656  2.1845 -0.4319 -1.3238
   88SOPE   C27 8293   6.261   2.296   5.732 -0.1513  0.1722 -0.2549
   88SOPE   H7R 8294   6.359   2.271   5.686  0.6896  2.5802  0.1012
   88SOPE   H7S 8295   6.257   2.406   5.747  1.1752 -0.0189  1.9082
   88SOPE   C28 8296   6.247   2.226   5.875 -0.6875 -0.0059  0.0487
   88SOPE   H8R 8297   6.147   2.261   5.910  0.0494  0.4004  1.8627
   88SOPE   H8S 8298   6.248   2.115   5.865  0.1253  0.0241 -0.2619
   88SOPE   C29 8299   6.372   2.279   5.944  0.1288 -0.1254  0.0805
   88SOPE   H91 8300   6.406   2.379   5.913  1.9946 -0.9381 -0.6416
   88SOPE  C210 8301   6.450   2.202   6.022  0.2712  0.5902 -0.7690
   88SOPE  H101 8302   6.534   2.248   6.075 -1.5852  1.3321  1.7163
   88SOPE  C211 8303   6.412   2.057   6.069 -0.3667 -0.4706  0.2389
   88SOPE  H11R 8304   6.468   1.988   6.003  0.0001 -0.3212  0.3892
   88SOPE  H11S 8305   6.303   2.039   6.060 -0.1238 -1.0577 -2.4100
   88SOPE  C212 8306   6.443   2.030   6.218  0.2447  0.2858 -0.8481
   88SOPE  H12R 8307   6.429   1.921   6.235 -0.1877  0.1692 -1.8969
   88SOPE  H12S 8308   6.367   2.093   6.269  1.2270  0.6086  0.2730
   88SOPE  C213 8309   6.586   2.059   6.258 -0.7352 -0.8309  0.4896
   88SOPE  H13R 8310   6.619   2.158   6.220  0.0668 -2.0328 -2.2103
   88SOPE  H13S 8311   6.643   1.986   6.196  1.6755  0.5607  0.9700
   88SOPE  C214 8312   6.624   2.046   6.402 -0.7227  0.5719  0.1864
   88SOPE  H14R 8313   6.722   2.092   6.427 -0.0738 -1.1618  0.9856
   88SOPE  H14S 8314   6.643   1.940   6.429 -0.0619  1.0378  1.6348
   88SOPE  C215 8315   6.530   2.114   6.498  0.5027  0.1141 -0.0101
   88SOPE  H15R 8316   6.423   2.096   6.473 -0.1865  2.4211  0.9764
   88SOPE  H15S 8317   6.542   2.223   6.484 -1.4040  0.2832 -0.6894
   88SOPE  C216 8318   6.547   2.077   6.645  0.7046 -0.7237 -0.1486
   88SOPE  H16R 8319   6.648   2.077   6.690  1.3443  0.9012 -1.4628
   88SOPE  H16S 8320   6.514   1.972   6.658  0.5687 -0.7110 -0.3893
   88SOPE  C217 8321   6.459   2.165   6.743  0.8419  0.2916  0.3452
   88SOPE  H17R 8322   6.358   2.123   6.724  0.5895  0.6291  0.9369
   88SOPE  H17S 8323   6.471   2.271   6.713 -0.3506  0.5896  0.8854
   88SOPE  C218 8324   6.491   2.148   6.889 -0.6256  0.6207 -0.1888
   88SOPE  H18R 8325   6.400   2.192   6.936 -0.4802  0.0725  0.6374
   88SOPE  H18S 8326   6.577   2.198   6.939 -3.0429  1.7409  3.2331
   88SOPE  H18T 8327   6.492   2.040   6.914 -0.5234  0.8474  0.8476
   88SOPE   C33 8328   5.630   2.084   5.436  0.4742  0.2453 -0.1627
   88SOPE   H3X 8329   5.594   1.992   5.385  1.0854 -0.1256  0.0620
   88SOPE   H3Y 8330   5.582   2.077   5.536  1.1851 -0.0895  0.1625
   88SOPE   C34 8331   5.784   2.076   5.446 -0.3977 -0.6683 -0.0143
   88SOPE   H4X 8332   5.819   2.154   5.517  0.2346 -1.7134  0.8509
   88SOPE   H4Y 8333   5.828   2.095   5.345 -1.3786  1.5705 -0.0813
   88SOPE   C35 8334   5.843   1.942   5.499 -0.1625 -0.8389 -0.1379
   88SOPE   H5X 8335   5.954   1.941   5.486 -0.2132  2.3035 -1.8206
   88SOPE   H5Y 8336   5.797   1.868   5.431 -0.7129 -0.4870 -0.1445
   88SOPE   C36 8337   5.789   1.904   5.634  0.6239 -0.3911  0.6750
   88SOPE   H6X 8338   5.835   1.807   5.661  0.1768 -0.7907  0.0222
   88SOPE   H6Y 8339   5.679   1.891   5.643  0.4278 -0.4465 -1.2369
   88SOPE   C37 8340   5.822   2.006   5.747 -0.1439  0.1258 -0.1305
   88SOPE   H7X 8341   5.762   2.097   5.729 -0.1029  0.0434 -0.6869
   88SOPE   H7Y 8342   5.930   2.034   5.745 -0.4197  1.2067 -0.1614
   88SOPE   C38 8343   5.791   1.960   5.884 -0.0101  0.2524  0.2300
   88SOPE   H8X 8344   5.832   1.857   5.890 -1.3999 -0.4024 -0.8009
   88SOPE   H8Y 8345   5.683   1.957   5.909  0.0191 -2.4088  0.3277
   88SOPE   C39 8346   5.865   2.047   5.980 -0.2697  0.6147  0.1186
   88SOPE   H9X 8347   5.823   2.150   5.971  1.8138  1.4859 -0.1789
   88SOPE   H9Y 8348   5.971   2.058   5.949 -0.5131  1.5290 -0.4565
   88SOPE  C310 8349   5.859   1.998   6.121  0.7075 -0.4653  0.4019
   88SOPE  H10X 8350   5.916   1.903   6.124  0.4092 -0.6263  1.1016
   88SOPE  H10Y 8351   5.750   1.988   6.135  0.4064  0.5615 -0.9932
   88SOPE  C311 8352   5.911   2.096   6.225 -0.5663  0.3765 -0.9898
   88SOPE  H11X 8353   5.849   2.188   6.224  0.1651  0.8818 -1.5348
   88SOPE  H11Y 8354   6.017   2.116   6.196 -0.3026  0.7624  0.1773
   88SOPE  C312 8355   5.920   2.026   6.361 -0.2591 -0.2031 -0.6567
   88SOPE  H12X 8356   5.919   1.916   6.347  1.9879 -0.6785  1.9283
   88SOPE  H12Y 8357   5.827   2.050   6.417  0.0280  1.4419 -0.8217
   88SOPE  C313 8358   6.039   2.074   6.445  0.1859  0.4116  0.5017
   88SOPE  H13X 8359   6.131   2.042   6.393 -0.5732  0.7330 -1.0879
   88SOPE  H13Y 8360   6.025   2.022   6.543 -1.2754 -0.1528  0.0249
   88SOPE  C314 8361   6.048   2.229   6.461 -0.2205 -0.1891  0.1554
   88SOPE  H14X 8362   5.950   2.266   6.499  0.2066  0.2069  0.8878
   88SOPE  H14Y 8363   6.070   2.283   6.366  0.6485 -0.4487  0.2015
   88SOPE  C315 8364   6.140   2.281   6.579 -0.0883 -0.1529 -0.5589
   88SOPE  H15X 8365   6.126   2.391   6.579 -0.6571 -0.1641  1.9398
   88SOPE  H15Y 8366   6.248   2.261   6.563  0.3500  1.3768  0.2973
   88SOPE  C316 8367   6.101   2.237   6.720 -0.3286  0.0212  0.4175
   88SOPE  H16X 8368   6.144   2.136   6.737  0.3051  0.4646  1.5387
   88SOPE  H16Y 8369   5.990   2.247   6.718 -0.2981  0.6520  1.2857
   88SOPE  C317 8370   6.151   2.332   6.834  0.6611 -0.1331  0.2519
   88SOPE  H17X 8371   6.075   2.413   6.825 -0.7983 -1.5439 -0.9448
   88SOPE  H17Y 8372   6.247   2.381   6.809 -0.3990  2.0574  0.2065
   88SOPE  C318 8373   6.129   2.267   6.971  0.0220 -0.1001  0.6307
   88SOPE  H18X 8374   6.156   2.159   6.974 -1.1682 -0.4017  0.9379
   88SOPE  H18Y 8375   6.020   2.266   6.993  0.0927 -0.6183  0.9716
   88SOPE  H18Z 8376   6.188   2.318   7.051  1.2150 -2.5420  1.3978
   89SAPC     N 8377   1.256   3.512   0.269  0.3649 -0.5214  0.5070
   89SAPC   C12 8378   1.150   3.487   0.163  0.2041 -0.0891 -0.2054
   89SAPC  H12A 8379   1.186   3.423   0.083  0.3400  1.4040 -1.3922
   89SAPC  H12B 8380   1.131   3.573   0.100  0.4582 -0.8045 -1.3066
   89SAPC   C13 8381   1.243   3.399   0.372 -0.1493 -0.2233 -0.1539
   89SAPC  H13A 8382   1.150   3.395   0.427 -0.3071  0.0872 -0.3982
   89SAPC  H13B 8383   1.260   3.302   0.326 -0.7640 -0.8193  0.8328
   89SAPC  H13C 8384   1.321   3.405   0.446 -0.0686 -1.3863 -0.1245
   89SAPC   C14 8385   1.390   3.495   0.210 -0.0569  0.3263 -0.4356
   89SAPC  H14A 8386   1.394   3.539   0.111  0.4404 -0.3250 -0.7138
   89SAPC  H14B 8387   1.464   3.543   0.271 -0.9742 -0.2401  1.1830
   89SAPC  H14C 8388   1.421   3.392   0.209 -1.4167 -0.1126 -0.6936
   89SAPC   C15 8389   1.256   3.650   0.331 -0.1851  0.1981 -0.4888
   89SAPC  H15A 8390   1.309   3.723   0.272  1.8841  1.1130  2.3016
   89SAPC  H15B 8391   1.154   3.668   0.362  0.3338  2.7107 -0.0368
   89SAPC  H15C 8392   1.313   3.637   0.421 -0.7332 -0.0553 -0.1702
   89SAPC   C11 8393   1.011   3.451   0.209 -0.1490  0.4707  0.1900
   89SAPC  H11A 8394   1.006   3.348   0.250 -0.9267  0.9745  1.4426
   89SAPC  H11B 8395   0.959   3.439   0.111  0.7521  1.8741 -0.4928
   89SAPC     P 8396   0.856   3.648   0.269  0.1074 -0.3686  0.1880
   89SAPC   O13 8397   0.726   3.580   0.274  0.3379  0.1485 -0.3380
   89SAPC   O14 8398   0.872   3.770   0.348  0.2808 -0.8698 -0.0157
   89SAPC   O12 8399   0.965   3.545   0.298  0.2312 -0.5080  0.7149
   89SAPC   O11 8400   0.893   3.681   0.117 -0.0795 -0.0481 -0.9517
   89SAPC    C1 8401   0.797   3.693   0.009 -0.3303  0.2461 -0.7960
   89SAPC    HA 8402   0.693   3.661   0.036 -0.3625 -0.7391 -1.9824
   89SAPC    HB 8403   0.804   3.793  -0.038 -0.3617  0.2618 -0.7665
   89SAPC    C2 8404   0.831   3.587  -0.099  0.3637  0.0202 -0.5980
   89SAPC    HS 8405   0.835   3.495  -0.038  1.6765  0.6386  0.2947
   89SAPC   O21 8406   0.946   3.616  -0.178 -0.3644  0.0390 -0.2450
   89SAPC   C21 8407   1.031   3.522  -0.199  0.2729 -0.0875 -0.8459
   89SAPC   O22 8408   1.051   3.424  -0.128  0.7484  0.5563 -0.1626
   89SAPC   C22 8409   1.102   3.551  -0.334 -0.8215 -0.7616 -0.2910
   89SAPC   H2R 8410   1.023   3.577  -0.409 -1.9359 -0.5909  0.8997
   89SAPC   H2S 8411   1.166   3.640  -0.321 -1.0131 -0.2450 -2.4282
   89SAPC    C3 8412   0.703   3.576  -0.185  0.1524 -1.3522 -0.5579
   89SAPC    HX 8413   0.688   3.681  -0.217  2.2483 -0.0204  2.3512
   89SAPC    HY 8414   0.616   3.546  -0.123  1.1751  0.4291  1.9413
   89SAPC   O31 8415   0.721   3.485  -0.295  0.7269  0.2406  0.9996
   89SAPC   C31 8416   0.625   3.502  -0.384  0.5566  1.0558  1.2190
   89SAPC   O32 8417   0.540   3.590  -0.393 -0.2504  0.2431 -0.2981
   89SAPC   C32 8418   0.639   3.393  -0.492  0.6773  0.8532  0.1994
   89SAPC   H2X 8419   0.542   3.371  -0.541  0.2198 -1.4157  1.9389
   89SAPC   H2Y 8420   0.667   3.305  -0.430  1.4184  1.5790  0.9274
   89SAPC   C23 8421   1.183   3.433  -0.382 -0.4780 -0.0288  0.3652
   89SAPC   H3R 8422   1.124   3.340  -0.390  0.6625 -0.7145 -0.4059
   89SAPC   H3S 8423   1.269   3.420  -0.313 -0.3730  0.3811  0.3175
   89SAPC   C24 8424   1.264   3.469  -0.509 -1.0018  0.2064  0.4970
   89SAPC   H4R 8425   1.199   3.474  -0.598 -1.0426  0.9571  0.5583
   89SAPC   H4S 8426   1.338   3.389  -0.529  0.6893  1.3351  1.9433
   89SAPC   C25 8427   1.345   3.601  -0.509  0.1384  0.5209 -0.7776
   89SAPC   H5R 8428   1.399   3.612  -0.413 -2.0135  1.6968  0.3704
   89SAPC   C26 8429   1.346   3.708  -0.591  0.1622 -0.4466 -0.3759
   89SAPC   H6R 8430   1.416   3.789  -0.564  0.6955 -1.6197  2.0001
   89SAPC   C27 8431   1.271   3.728  -0.723  0.2192 -0.4526 -0.1860
   89SAPC   H7R 8432   1.245   3.835  -0.736 -1.7404 -0.9176 -0.4362
   89SAPC   H7S 8433   1.177   3.674  -0.702  0.4720 -0.6786  0.3985
   89SAPC   C28 8434   1.343   3.686  -0.846  0.5139 -0.3075 -0.4790
   89SAPC   H8R 8435   1.406   3.596  -0.844 -0.5039 -1.0247 -0.0158
   89SAPC   C29 8436   1.326   3.749  -0.961 -0.0183 -0.3386  1.1078
   89SAPC   H9R 8437   1.379   3.709  -1.049 -0.2524  1.3486  0.1482
   89SAPC  C210 8438   1.251   3.874  -0.993  0.3167  0.1880  0.0701
   89SAPC  H10R 8439   1.232   3.942  -0.908  0.5318  0.9074 -0.4453
   89SAPC  H10S 8440   1.153   3.836  -1.028  0.1654 -0.5521  1.2419
   89SAPC  C211 8441   1.318   3.970  -1.087 -0.2993  0.2401 -0.1612
   89SAPC  H11R 8442   1.404   4.026  -1.047 -0.0269 -0.3980  0.1480
   89SAPC  C212 8443   1.267   4.010  -1.207  0.5674  0.0443  0.1599
   89SAPC  H12R 8444   1.319   4.090  -1.262 -2.4027 -0.2898 -3.4861
   89SAPC  C213 8445   1.146   3.945  -1.281  0.0229 -0.0631 -0.0962
   89SAPC  H13R 8446   1.092   4.018  -1.345 -0.6844  0.0599  0.6352
   89SAPC  H13S 8447   1.066   3.914  -1.211  0.0259  0.5019  0.1631
   89SAPC  C214 8448   1.185   3.814  -1.349 -0.2644  0.4477  0.2957
   89SAPC  H14R 8449   1.241   3.736  -1.295 -1.4448 -0.0578  0.8244
   89SAPC  C215 8450   1.179   3.791  -1.481 -0.2774  0.3486 -0.5028
   89SAPC  H15R 8451   1.207   3.696  -1.528 -1.0093  1.4644 -3.4049
   89SAPC  C216 8452   1.141   3.890  -1.588 -0.1615  0.0439  0.0864
   89SAPC  H16R 8453   1.127   3.990  -1.543 -1.2689  0.1259 -0.4138
   89SAPC  H16S 8454   1.041   3.859  -1.625  0.2168  0.1540 -1.0724
   89SAPC  C217 8455   1.225   3.873  -1.716  0.0495  0.5121  0.2544
   89SAPC  H17R 8456   1.219   3.770  -1.756 -0.5706  0.7704 -0.3403
   89SAPC  H17S 8457   1.332   3.892  -1.694  0.3089 -1.4272  0.8826
   89SAPC  C218 8458   1.173   3.957  -1.832 -0.1651  0.2609 -0.0425
   89SAPC  H18R 8459   1.250   3.957  -1.911 -2.0641 -0.9638 -2.0126
   89SAPC  H18S 8460   1.167   4.062  -1.797  2.3938  0.7971 -1.0455
   89SAPC  C219 8461   1.031   3.930  -1.882  0.6428  0.2440  0.2284
   89SAPC  H19R 8462   0.955   3.932  -1.801  0.8120  0.4941  0.3808
   89SAPC  H19S 8463   1.029   3.826  -1.921  0.3331 -0.0543  1.0228
   89SAPC  C220 8464   0.988   4.025  -2.000 -0.7413 -0.0947  0.6603
   89SAPC  H20R 8465   0.991   4.128  -1.959 -0.1107  0.6511 -1.1508
   89SAPC  H20S 8466   0.885   3.999  -2.034 -2.1908  2.3489  2.8094
   89SAPC  H20T 8467   1.056   4.025  -2.088 -0.9133 -1.2829  0.5093
   89SAPC   C33 8468   0.748   3.412  -0.593 -0.3572 -0.0342 -0.6499
   89SAPC   H3X 8469   0.755   3.331  -0.668 -1.6837 -0.1704 -0.6402
   89SAPC   H3Y 8470   0.841   3.424  -0.533 -0.4666  0.7224 -0.6149
   89SAPC   C34 8471   0.727   3.542  -0.675 -0.1071 -0.0721  0.6975
   89SAPC   H4X 8472   0.717   3.631  -0.610  1.0447  2.0590 -1.8404
   89SAPC   H4Y 8473   0.630   3.523  -0.726  1.1069 -0.0467 -1.7733
   89SAPC   C35 8474   0.829   3.583  -0.787  0.5727  0.0672 -0.0928
   89SAPC   H5X 8475   0.933   3.593  -0.749  0.8683 -1.2753 -0.4866
   89SAPC   H5Y 8476   0.796   3.681  -0.828  1.5584  0.1277 -0.7687
   89SAPC   C36 8477   0.844   3.487  -0.903  0.2426 -0.3613  0.0459
   89SAPC   H6X 8478   0.741   3.450  -0.920  0.3038 -1.0485  1.1144
   89SAPC   H6Y 8479   0.900   3.398  -0.871  0.8688 -0.5336 -1.4235
   89SAPC   C37 8480   0.905   3.563  -1.023 -0.0040  0.4316  0.3670
   89SAPC   H7X 8481   0.987   3.623  -0.979  3.2170 -3.9483  1.0003
   89SAPC   H7Y 8482   0.836   3.639  -1.066 -0.6687  0.5270  1.5500
   89SAPC   C38 8483   0.945   3.461  -1.131  0.1952 -0.0063  0.1440
   89SAPC   H8X 8484   0.853   3.412  -1.171 -0.2620  2.3485 -1.9748
   89SAPC   H8Y 8485   1.000   3.382  -1.076 -0.5112  0.1099  1.0387
   89SAPC   C39 8486   1.030   3.525  -1.236  0.0019 -0.1841  0.2118
   89SAPC   H9X 8487   1.116   3.572  -1.185  0.2981 -1.2785  0.7324
   89SAPC   H9Y 8488   0.974   3.606  -1.289 -0.0637 -0.8660 -0.7837
   89SAPC  C310 8489   1.099   3.427  -1.330  0.3614 -0.0371  0.4698
   89SAPC  H10X 8490   1.155   3.357  -1.264 -1.8285 -0.4294  1.9975
   89SAPC  H10Y 8491   1.174   3.485  -1.389 -0.7936  1.0959  0.0876
   89SAPC  C311 8492   1.007   3.343  -1.421 -0.4633  0.2222 -0.1584
   89SAPC  H11X 8493   0.939   3.402  -1.487  0.2751  4.3240  2.3969
   89SAPC  H11Y 8494   0.942   3.284  -1.352  0.0364  1.6593  1.5943
   89SAPC  C312 8495   1.087   3.229  -1.496 -0.2960 -0.1609 -0.4809
   89SAPC  H12X 8496   1.026   3.140  -1.524  1.2467 -1.7466  0.9655
   89SAPC  H12Y 8497   1.162   3.188  -1.425  0.2590  0.3608 -0.7639
   89SAPC  C313 8498   1.171   3.282  -1.616  0.2944 -0.0418 -0.2191
   89SAPC  H13X 8499   1.229   3.369  -1.578  1.2788 -1.5657  1.9852
   89SAPC  H13Y 8500   1.102   3.306  -1.700 -0.3285 -0.1133  0.2693
   89SAPC  C314 8501   1.276   3.191  -1.668 -0.2278 -0.0590 -0.0229
   89SAPC  H14X 8502   1.333   3.165  -1.576  0.2380  1.5065  0.1579
   89SAPC  H14Y 8503   1.350   3.238  -1.737  1.6359 -0.3630  1.6603
   89SAPC  C315 8504   1.221   3.064  -1.733 -0.0516  0.3946  0.6102
   89SAPC  H15X 8505   1.138   3.096  -1.799 -0.2700  0.1573  0.7711
   89SAPC  H15Y 8506   1.183   3.001  -1.650  0.0149 -0.8114 -0.2572
   89SAPC  C316 8507   1.323   2.991  -1.820  0.5831  0.7009  0.1198
   89SAPC  H16X 8508   1.281   2.891  -1.843 -1.5191  1.6880 -0.5084
   89SAPC  H16Y 8509   1.423   2.969  -1.776  0.4393 -2.7635 -0.9684
   89SAPC  C317 8510   1.340   3.049  -1.960 -0.2839 -0.2074  0.2817
   89SAPC  H17X 8511   1.402   3.141  -1.952 -0.9397  0.5016 -2.0727
   89SAPC  H17Y 8512   1.243   3.089  -1.997 -0.8920  0.7900  2.7444
   89SAPC  C318 8513   1.408   2.962  -2.065  0.4276  0.4664  0.1084
   89SAPC  H18X 8514   1.342   2.877  -2.091  2.0540 -1.2270  1.2219
   89SAPC  H18Y 8515   1.501   2.920  -2.022  0.6373  0.3513 -0.4553
   89SAPC  H18Z 8516   1.435   3.011  -2.160 -0.2139 -0.3570 -0.5112
   90SAPC     N 8517   5.861   6.066   0.883  0.5894  0.8631 -0.1761
   90SAPC   C12 8518   5.795   6.132   0.764  0.0435  1.1305 -0.1420
   90SAPC  H12A 8519   5.760   6.229   0.795  0.1096  0.8472  0.8515
   90SAPC  H12B 8520   5.707   6.076   0.736  0.8863 -0.3954  0.1387
   90SAPC   C13 8521   5.762   6.071   1.001  0.3428  0.3953 -0.8093
   90SAPC  H13A 8522   5.742   6.174   1.030  0.0619  0.1162  0.0099
   90SAPC  H13B 8523   5.670   6.021   0.975  0.4533  0.2996 -1.0142
   90SAPC  H13C 8524   5.814   6.026   1.084  0.4174 -0.8046 -1.4920
   90SAPC   C14 8525   5.898   5.925   0.857 -0.2494  0.1378 -0.8772
   90SAPC  H14A 8526   5.816   5.859   0.832 -0.5188  0.2275 -0.2718
   90SAPC  H14B 8527   5.964   5.910   0.773  2.5008  0.3192  1.1255
   90SAPC  H14C 8528   5.953   5.884   0.940 -0.7947 -3.0321 -1.9687
   90SAPC   C15 8529   5.980   6.143   0.922  0.1831  0.0611 -0.4476
   90SAPC  H15A 8530   6.050   6.135   0.841 -1.0577 -1.6355 -1.3962
   90SAPC  H15B 8531   5.955   6.245   0.950 -2.8454 -0.9203  0.8020
   90SAPC  H15C 8532   6.030   6.098   1.007  0.5539 -0.3697 -0.8893
   90SAPC   C11 8533   5.883   6.147   0.636 -0.2331 -0.8431 -0.3994
   90SAPC  H11A 8534   5.966   6.218   0.655 -0.9070 -0.3333  0.7374
   90SAPC  H11B 8535   5.824   6.205   0.561 -0.1052  0.2248  0.3098
   90SAPC     P 8536   5.852   5.937   0.485  0.3974 -0.0394 -0.5084
   90SAPC   O13 8537   5.927   5.815   0.448  0.0302  0.0908  0.4013
   90SAPC   O14 8538   5.717   5.912   0.540 -0.6662  0.6545 -0.2702
   90SAPC   O12 8539   5.932   6.024   0.589 -0.6766  0.3900 -0.3264
   90SAPC   O11 8540   5.841   6.036   0.365  0.4492 -0.3979  0.0468
   90SAPC    C1 8541   5.950   6.100   0.308  0.8350 -0.3485  0.5910
   90SAPC    HA 8542   5.935   6.210   0.303 -0.6822 -0.4142  2.3865
   90SAPC    HB 8543   6.041   6.097   0.371  1.7215  1.7646 -0.5051
   90SAPC    C2 8544   5.987   6.049   0.166 -0.0847  0.6267 -0.1145
   90SAPC    HS 8545   6.080   6.098   0.129 -0.5852  1.4344 -0.3375
   90SAPC   O21 8546   5.886   6.076   0.066 -0.1577 -0.5945  0.3729
   90SAPC   C21 8547   5.898   6.200   0.016 -0.1346  0.6272  0.0139
   90SAPC   O22 8548   5.970   6.287   0.064 -0.1250  0.0724 -0.0071
   90SAPC   C22 8549   5.818   6.217  -0.112  0.2376  0.1465 -1.2854
   90SAPC   H2R 8550   5.727   6.153  -0.108  0.4016 -0.0601  1.2902
   90SAPC   H2S 8551   5.788   6.324  -0.114 -0.5396 -0.0572 -1.0176
   90SAPC    C3 8552   6.028   5.897   0.161  0.8461  0.3584 -0.0868
   90SAPC    HX 8553   5.934   5.850   0.127 -1.2125  2.5291  2.2036
   90SAPC    HY 8554   6.060   5.853   0.258  0.6459 -1.6326 -0.8787
   90SAPC   O31 8555   6.129   5.880   0.056  0.2637 -0.1519 -0.2526
   90SAPC   C31 8556   6.250   5.866   0.098 -0.0709 -0.3039 -0.4358
   90SAPC   O32 8557   6.285   5.886   0.213  0.0078  0.1472 -0.0779
   90SAPC   C32 8558   6.332   5.819  -0.026  0.0199 -0.3098  0.0221
   90SAPC   H2X 8559   6.422   5.763   0.007 -0.3434 -2.2087 -2.0301
   90SAPC   H2Y 8560   6.365   5.911  -0.080 -0.6753 -0.2027 -0.2269
   90SAPC   C23 8561   5.901   6.189  -0.239 -0.1815 -0.5889  0.1842
   90SAPC   H3R 8562   5.917   6.079  -0.243 -1.2834 -0.7978  1.0756
   90SAPC   H3S 8563   5.994   6.249  -0.230 -0.9521  1.0077 -1.7308
   90SAPC   C24 8564   5.830   6.247  -0.367  0.1573 -0.3399  0.3695
   90SAPC   H4R 8565   5.902   6.253  -0.452  0.7611  0.2954  0.9072
   90SAPC   H4S 8566   5.806   6.353  -0.343  1.9257  0.4153 -0.9318
   90SAPC   C25 8567   5.716   6.158  -0.402  0.1093  0.4800  0.0775
   90SAPC   H5R 8568   5.629   6.180  -0.339  0.0009 -0.7292  0.3742
   90SAPC   C26 8569   5.717   6.055  -0.494  0.0898  0.2204  0.1328
   90SAPC   H6R 8570   5.630   5.988  -0.507  1.0029 -1.7343  3.1449
   90SAPC   C27 8571   5.837   6.004  -0.578 -0.9348 -0.2407 -0.6562
   90SAPC   H7R 8572   5.901   5.946  -0.509 -0.0411  1.3176 -0.1420
   90SAPC   H7S 8573   5.908   6.082  -0.614  0.9819 -1.6270 -0.0239
   90SAPC   C28 8574   5.791   5.923  -0.698  0.0487 -0.4550 -0.3081
   90SAPC   H8R 8575   5.718   5.851  -0.660 -1.8811  1.5105 -0.0393
   90SAPC   C29 8576   5.821   5.934  -0.829  0.3019  0.1545  0.1381
   90SAPC   H9R 8577   5.771   5.869  -0.901 -1.7459  0.1082  1.5134
   90SAPC  C210 8578   5.920   6.026  -0.887  0.4665 -0.3470 -0.3174
   90SAPC  H10R 8579   6.011   5.965  -0.905  0.5594  0.3336 -2.4425
   90SAPC  H10S 8580   5.946   6.111  -0.820  2.2108 -0.7331 -0.4550
   90SAPC  C211 8581   5.862   6.085  -1.011  0.2704  0.1550 -0.4991
   90SAPC  H11R 8582   5.775   6.152  -1.011 -0.1239 -0.3511 -1.3441
   90SAPC  C212 8583   5.904   6.039  -1.128 -0.6883  0.4045 -0.4405
   90SAPC  H12R 8584   5.857   6.081  -1.218  0.6154  0.9494 -0.8907
   90SAPC  C213 8585   6.014   5.944  -1.158 -0.5941 -0.3046 -0.7247
   90SAPC  H13R 8586   6.099   5.958  -1.088  1.4580 -2.8774 -2.5012
   90SAPC  H13S 8587   6.049   5.971  -1.260  1.2445 -0.7241 -0.2385
   90SAPC  C214 8588   5.980   5.800  -1.151  0.0291  0.0943 -0.2719
   90SAPC  H14R 8589   6.006   5.751  -1.056 -2.1687 -0.7517 -0.0497
   90SAPC  C215 8590   5.938   5.721  -1.248 -0.5793  0.6513  0.5430
   90SAPC  H15R 8591   5.923   5.616  -1.219 -1.5567 -0.3083 -2.9703
   90SAPC  C216 8592   5.904   5.757  -1.388  0.1571 -0.0525 -0.2663
   90SAPC  H16R 8593   5.841   5.849  -1.381 -1.6343 -1.3503  2.4355
   90SAPC  H16S 8594   5.847   5.668  -1.422  2.2990 -2.9072  3.0195
   90SAPC  C217 8595   6.033   5.779  -1.475  0.6474  0.2991 -0.3180
   90SAPC  H17R 8596   6.110   5.701  -1.459  1.8156  1.5003  0.0755
   90SAPC  H17S 8597   6.090   5.872  -1.453 -0.4270  0.5135  1.8961
   90SAPC  C218 8598   5.987   5.763  -1.621  0.2479 -0.2825 -0.8361
   90SAPC  H18R 8599   5.918   5.838  -1.665  0.2294  0.2748  0.1100
   90SAPC  H18S 8600   5.939   5.663  -1.631 -1.5028  0.3324  0.8310
   90SAPC  C219 8601   6.107   5.779  -1.712  0.7912 -0.6020  1.3646
   90SAPC  H19R 8602   6.192   5.708  -1.702  1.0781 -0.4104  0.4018
   90SAPC  H19S 8603   6.153   5.880  -1.703  0.6066 -0.2348 -1.0487
   90SAPC  C220 8604   6.053   5.756  -1.858 -0.2418  0.0175 -0.9454
   90SAPC  H20R 8605   6.137   5.735  -1.927  1.6806 -0.8667  1.4981
   90SAPC  H20S 8606   5.990   5.844  -1.883 -1.0109  0.4749  2.1104
   90SAPC  H20T 8607   5.979   5.674  -1.850 -0.4329  0.2898  0.5054
   90SAPC   C33 8608   6.252   5.720  -0.109 -0.5348  0.0862  0.1786
   90SAPC   H3X 8609   6.181   5.775  -0.175  0.3244  3.8265  2.0508
   90SAPC   H3Y 8610   6.198   5.646  -0.045 -0.4523  0.5125  0.7492
   90SAPC   C34 8611   6.358   5.646  -0.199 -0.0966  0.9190 -0.0368
   90SAPC   H4X 8612   6.436   5.596  -0.138 -0.4807 -1.4682 -1.3912
   90SAPC   H4Y 8613   6.412   5.724  -0.257  0.8221  0.1778 -0.1903
   90SAPC   C35 8614   6.292   5.535  -0.291 -0.2008  0.1085  0.6932
   90SAPC   H5X 8615   6.206   5.588  -0.337  0.7758 -0.2559 -1.6842
   90SAPC   H5Y 8616   6.256   5.452  -0.226  0.8999  0.2484  1.5083
   90SAPC   C36 8617   6.395   5.497  -0.405 -0.7682  0.0612  0.0872
   90SAPC   H6X 8618   6.485   5.463  -0.350 -2.2276 -0.9188  1.9574
   90SAPC   H6Y 8619   6.420   5.578  -0.478 -0.4394  0.4334  0.6068
   90SAPC   C37 8620   6.343   5.374  -0.483 -0.6843  0.0773  0.5097
   90SAPC   H7X 8621   6.249   5.422  -0.519  0.8268  2.0376 -1.0279
   90SAPC   H7Y 8622   6.334   5.278  -0.428 -0.8091 -0.5657 -0.5888
   90SAPC   C38 8623   6.426   5.359  -0.617 -0.2174 -0.1834 -0.0452
   90SAPC   H8X 8624   6.534   5.337  -0.601 -0.8999 -2.3284  2.1725
   90SAPC   H8Y 8625   6.422   5.457  -0.670 -1.3390 -1.1281 -1.8135
   90SAPC   C39 8626   6.360   5.254  -0.707  0.1657  0.1397 -0.0215
   90SAPC   H9X 8627   6.256   5.291  -0.718  0.1606  0.5892  1.4403
   90SAPC   H9Y 8628   6.349   5.160  -0.649 -0.5297  0.3086  0.1251
   90SAPC  C310 8629   6.417   5.233  -0.847 -0.6180 -0.5099 -0.7288
   90SAPC  H10X 8630   6.527   5.221  -0.847 -0.5664 -0.0882 -1.0602
   90SAPC  H10Y 8631   6.395   5.323  -0.908 -0.1911  0.4108  0.4262
   90SAPC  C311 8632   6.344   5.118  -0.922  0.0901  0.3971  0.0544
   90SAPC  H11X 8633   6.238   5.149  -0.934  0.6216  1.4724 -2.7172
   90SAPC  H11Y 8634   6.351   5.027  -0.860 -2.4916 -0.9633 -1.5058
   90SAPC  C312 8635   6.390   5.098  -1.065 -0.6317 -0.5411  0.2700
   90SAPC  H12X 8636   6.480   5.033  -1.073 -0.8463 -0.6485 -1.5851
   90SAPC  H12Y 8637   6.418   5.200  -1.099 -2.5052  0.0198  0.3106
   90SAPC  C313 8638   6.272   5.063  -1.145  0.0767  0.2980  0.3788
   90SAPC  H13X 8639   6.216   5.160  -1.149  0.0807  0.3600  1.5837
   90SAPC  H13Y 8640   6.206   4.993  -1.091 -0.7778  1.1057  0.4151
   90SAPC  C314 8641   6.313   5.017  -1.288 -0.1509  0.4587 -0.6001
   90SAPC  H14X 8642   6.382   4.931  -1.270  0.2611  0.1755 -3.1932
   90SAPC  H14Y 8643   6.371   5.097  -1.338 -1.8886 -0.0636 -3.6790
   90SAPC  C315 8644   6.210   4.958  -1.375  0.1295  0.0558  0.2964
   90SAPC  H15X 8645   6.265   4.911  -1.460 -2.5472 -0.5003 -1.2337
   90SAPC  H15Y 8646   6.142   5.038  -1.412  0.2289  0.1503  0.3161
   90SAPC  C316 8647   6.138   4.833  -1.311 -0.3694 -0.3216 -0.6727
   90SAPC  H16X 8648   6.084   4.863  -1.219  0.8093  0.0760 -0.0928
   90SAPC  H16Y 8649   6.216   4.766  -1.271  2.7914  1.7541 -2.9010
   90SAPC  C317 8650   6.029   4.771  -1.397  0.3329 -0.0046 -0.0425
   90SAPC  H17X 8651   5.989   4.685  -1.339  1.2610  0.3240  1.1101
   90SAPC  H17Y 8652   6.067   4.734  -1.494  0.5527 -0.8796  0.3676
   90SAPC  C318 8653   5.924   4.873  -1.434 -0.1145  0.4377  0.5822
   90SAPC  H18X 8654   5.880   4.917  -1.342  0.1771  1.6065  0.1810
   90SAPC  H18Y 8655   5.850   4.809  -1.485  1.4979 -1.5195  0.5932
   90SAPC  H18Z 8656   5.962   4.953  -1.501  2.1978  0.6344  2.0167
   91SAPC     N 8657   6.212   1.704   0.461 -0.2945  0.1185  0.3404
   91SAPC   C12 8658   6.299   1.640   0.353 -0.6382 -0.5505  1.2401
   91SAPC  H12A 8659   6.262   1.540   0.333 -2.1290  0.3903 -1.1869
   91SAPC  H12B 8660   6.399   1.634   0.391  1.6480  3.9874 -2.9502
   91SAPC   C13 8661   6.262   1.839   0.507 -0.1820 -0.2789 -0.1542
   91SAPC  H13A 8662   6.262   1.913   0.429  2.3152  2.4595  2.1857
   91SAPC  H13B 8663   6.200   1.867   0.591  0.9491 -1.6708  1.2035
   91SAPC  H13C 8664   6.364   1.833   0.541 -0.9566  0.5368  2.5921
   91SAPC   C14 8665   6.076   1.718   0.412  0.7116  0.4675 -0.1952
   91SAPC  H14A 8666   6.042   1.629   0.361  1.1238  0.6026 -0.7114
   91SAPC  H14B 8667   6.001   1.756   0.480 -0.0181  0.8534 -1.1994
   91SAPC  H14C 8668   6.081   1.788   0.330  4.1658  0.1800 -0.3693
   91SAPC   C15 8669   6.209   1.606   0.581  0.6773  0.6113 -0.0729
   91SAPC  H15A 8670   6.308   1.596   0.624 -0.2783 -0.0727  2.0856
   91SAPC  H15B 8671   6.144   1.640   0.661  0.1989  0.3031 -0.3318
   91SAPC  H15C 8672   6.164   1.512   0.553 -0.2327  1.6067 -2.2142
   91SAPC   C11 8673   6.301   1.712   0.218  0.3781  0.4853  0.1478
   91SAPC  H11A 8674   6.391   1.676   0.163 -0.5400 -1.1003 -0.4001
   91SAPC  H11B 8675   6.312   1.821   0.231  3.5442 -0.0065  3.0407
   91SAPC     P 8676   6.153   1.547   0.085  0.0627 -0.2775  0.1971
   91SAPC   O13 8677   6.180   1.449   0.192 -0.5971 -0.1687  0.7642
   91SAPC   O14 8678   6.029   1.538   0.009 -0.0296  0.6654  0.1034
   91SAPC   O12 8679   6.175   1.688   0.148  0.2587 -0.2380 -0.2714
   91SAPC   O11 8680   6.272   1.533  -0.015 -0.0358  0.1907  0.5852
   91SAPC    C1 8681   6.287   1.614  -0.137  0.3147 -0.5936 -0.3836
   91SAPC    HA 8682   6.207   1.689  -0.153 -1.5295 -1.9437  1.8595
   91SAPC    HB 8683   6.389   1.658  -0.129  0.2453 -0.2338 -1.3158
   91SAPC    C2 8684   6.272   1.532  -0.262  0.0156  0.4863  0.2166
   91SAPC    HS 8685   6.292   1.596  -0.350  0.1533 -0.1435 -0.2182
   91SAPC   O21 8686   6.144   1.478  -0.264  0.5668  0.2806  0.2638
   91SAPC   C21 8687   6.045   1.533  -0.332  0.2393  0.0956 -0.0126
   91SAPC   O22 8688   6.056   1.647  -0.379  0.6230  0.1183 -0.2727
   91SAPC   C22 8689   5.918   1.445  -0.335 -0.1756 -0.9283  0.0391
   91SAPC   H2R 8690   5.962   1.350  -0.373  1.3516  0.3737 -1.6010
   91SAPC   H2S 8691   5.886   1.417  -0.232  0.6603  0.6692  0.7794
   91SAPC    C3 8692   6.373   1.417  -0.278 -0.4035  0.3282  0.7152
   91SAPC    HX 8693   6.345   1.340  -0.203 -1.5001  0.7616  0.7760
   91SAPC    HY 8694   6.478   1.445  -0.255  0.3243 -1.6121 -0.0932
   91SAPC   O31 8695   6.369   1.366  -0.416  0.0009  0.6458 -0.4103
   91SAPC   C31 8696   6.450   1.260  -0.435 -0.6343 -0.2390 -0.0534
   91SAPC   O32 8697   6.528   1.214  -0.350  0.1575  0.5473  0.8600
   91SAPC   C32 8698   6.440   1.205  -0.579  0.3357  0.0593 -0.2091
   91SAPC   H2X 8699   6.466   1.290  -0.646 -1.3893  0.7628 -0.0434
   91SAPC   H2Y 8700   6.330   1.188  -0.585  0.3284 -0.8655  1.8158
   91SAPC   C23 8701   5.803   1.497  -0.427  0.0702 -0.7453 -0.0200
   91SAPC   H3R 8702   5.803   1.607  -0.437 -0.5349 -0.8085 -0.7215
   91SAPC   H3S 8703   5.706   1.466  -0.383 -0.5650 -2.2203 -2.3067
   91SAPC   C24 8704   5.821   1.418  -0.564  0.5245 -0.7009  0.1480
   91SAPC   H4R 8705   5.743   1.443  -0.639  0.3126 -1.3512  0.1426
   91SAPC   H4S 8706   5.794   1.311  -0.551  1.4257 -1.2951 -2.2798
   91SAPC   C25 8707   5.963   1.448  -0.617 -0.2294  0.3988  0.2607
   91SAPC   H5R 8708   5.981   1.553  -0.641  1.1691 -0.2228 -1.6989
   91SAPC   C26 8709   6.062   1.361  -0.648  0.5500 -0.2269 -0.1568
   91SAPC   H6R 8710   6.160   1.394  -0.684  0.6311 -0.1636  0.1289
   91SAPC   C27 8711   6.052   1.206  -0.648  0.0717  0.2492 -0.2614
   91SAPC   H7R 8712   6.050   1.171  -0.543 -2.6708  0.2095 -0.2532
   91SAPC   H7S 8713   6.148   1.164  -0.685  0.5638 -0.6834  1.9403
   91SAPC   C28 8714   5.941   1.141  -0.720  0.6306  0.5235 -0.0334
   91SAPC   H8R 8715   5.858   1.122  -0.650  0.5174 -2.0169 -0.7542
   91SAPC   C29 8716   5.930   1.101  -0.844  0.2032 -1.4953 -0.0080
   91SAPC   H9R 8717   5.842   1.043  -0.873 -1.8858  0.8804  1.1947
   91SAPC  C210 8718   6.033   1.120  -0.959 -0.2110  0.4324  0.2109
   91SAPC  H10R 8719   6.011   1.052  -1.043  2.5319 -0.1129 -0.1591
   91SAPC  H10S 8720   6.127   1.075  -0.920 -2.1052 -3.3460  0.8323
   91SAPC  C211 8721   6.061   1.255  -1.022 -0.0962  0.1322 -0.7364
   91SAPC  H11R 8722   6.100   1.326  -0.947  0.6515 -0.1510 -0.8524
   91SAPC  C212 8723   6.031   1.313  -1.136  0.4622 -0.4703 -0.1228
   91SAPC  H12R 8724   6.049   1.421  -1.150  0.0039 -0.2245  1.0807
   91SAPC  C213 8725   5.971   1.248  -1.259  0.2063 -0.2087  0.2011
   91SAPC  H13R 8726   5.920   1.152  -1.237  0.9383 -0.3060  1.6260
   91SAPC  H13S 8727   6.058   1.222  -1.324 -0.2870 -0.1213 -0.4986
   91SAPC  C214 8728   5.872   1.331  -1.334 -0.0948 -0.0074  0.2207
   91SAPC  H14R 8729   5.849   1.431  -1.293  0.1776  0.6328 -1.1430
   91SAPC  C215 8730   5.811   1.294  -1.449 -0.1609 -0.3475 -0.3531
   91SAPC  H15R 8731   5.724   1.354  -1.481 -1.9498 -1.2602  2.3571
   91SAPC  C216 8732   5.827   1.171  -1.531  0.4810 -0.3642  0.0611
   91SAPC  H16R 8733   5.900   1.109  -1.476  0.5995 -0.9110 -0.6968
   91SAPC  H16S 8734   5.859   1.183  -1.637 -0.1157  0.6590 -0.0257
   91SAPC  C217 8735   5.698   1.095  -1.508 -0.2465  0.2954 -0.0244
   91SAPC  H17R 8736   5.668   1.083  -1.401 -0.3279 -0.6518 -0.1470
   91SAPC  H17S 8737   5.712   0.989  -1.536 -2.1795 -0.3042  1.0383
   91SAPC  C218 8738   5.579   1.157  -1.590  0.5773 -0.1832  0.5576
   91SAPC  H18R 8739   5.551   1.091  -1.674  0.7346 -0.4366  0.6997
   91SAPC  H18S 8740   5.604   1.258  -1.628  4.3795 -0.2912  2.2810
   91SAPC  C219 8741   5.451   1.171  -1.505  0.6805  0.1337 -0.0169
   91SAPC  H19R 8742   5.473   1.266  -1.452 -0.7864  0.0401  0.8237
   91SAPC  H19S 8743   5.438   1.077  -1.448 -0.9781 -0.4819 -1.2910
   91SAPC  C220 8744   5.332   1.193  -1.586 -0.0643 -0.0453  0.8708
   91SAPC  H20R 8745   5.344   1.288  -1.642  0.1613  0.1113  1.1796
   91SAPC  H20S 8746   5.239   1.204  -1.525 -1.7336  0.2230 -1.5737
   91SAPC  H20T 8747   5.288   1.115  -1.651 -2.0840  1.1669  0.6823
   91SAPC   C33 8748   6.521   1.076  -0.616 -0.2304  0.2742  0.0118
   91SAPC   H3X 8749   6.503   0.989  -0.549 -2.4108  0.2665 -0.4861
   91SAPC   H3Y 8750   6.631   1.085  -0.625  0.0853 -2.8198 -0.3912
   91SAPC   C34 8751   6.463   1.024  -0.753 -0.3474 -0.6926 -0.7286
   91SAPC   H4X 8752   6.357   0.996  -0.735 -0.6948  0.7388 -0.4035
   91SAPC   H4Y 8753   6.527   0.937  -0.777  0.6973  0.1054 -0.9557
   91SAPC   C35 8754   6.478   1.121  -0.869  0.0063  0.5368  0.1545
   91SAPC   H5X 8755   6.574   1.177  -0.863  0.4420 -0.1883  0.1013
   91SAPC   H5Y 8756   6.395   1.195  -0.867  1.4831  2.2714  2.7342
   91SAPC   C36 8757   6.465   1.052  -1.007 -0.2090  0.0570  0.5289
   91SAPC   H6X 8758   6.369   1.004  -1.032  0.3358 -0.7490 -0.0312
   91SAPC   H6Y 8759   6.539   0.970  -1.014  2.4387  2.3752 -0.4474
   91SAPC   C37 8760   6.491   1.151  -1.120  1.1260 -0.1336 -0.2661
   91SAPC   H7X 8761   6.593   1.186  -1.092  0.6797  1.0713 -0.0773
   91SAPC   H7Y 8762   6.417   1.234  -1.119  1.2618  0.0296 -1.8638
   91SAPC   C38 8763   6.480   1.080  -1.265  0.3392 -0.2805  0.8394
   91SAPC   H8X 8764   6.461   0.972  -1.248 -1.7978 -0.3886 -1.5805
   91SAPC   H8Y 8765   6.572   1.098  -1.325  0.1527  1.2192  0.9458
   91SAPC   C39 8766   6.354   1.129  -1.349  0.3885 -1.1311  0.3965
   91SAPC   H9X 8767   6.366   1.239  -1.348 -0.9065 -0.9756  0.6937
   91SAPC   H9Y 8768   6.265   1.104  -1.287  0.2133 -0.4047  0.4374
   91SAPC  C310 8769   6.339   1.081  -1.492 -0.4818 -0.2147  0.5237
   91SAPC  H10X 8770   6.332   0.970  -1.495 -3.4874 -0.1152 -2.5361
   91SAPC  H10Y 8771   6.425   1.110  -1.557 -0.3923 -1.9150 -0.1791
   91SAPC  C311 8772   6.213   1.128  -1.556 -0.4771  0.2382 -0.0232
   91SAPC  H11X 8773   6.207   1.239  -1.563  2.1816  0.4323 -0.0180
   91SAPC  H11Y 8774   6.131   1.100  -1.486 -0.9957  0.4002 -0.5610
   91SAPC  C312 8775   6.192   1.063  -1.697  0.1807  0.7678 -0.2614
   91SAPC  H12X 8776   6.086   1.064  -1.731  0.7794 -0.3421 -2.3867
   91SAPC  H12Y 8777   6.193   0.955  -1.669 -0.8762  0.8492  0.1119
   91SAPC  C313 8778   6.281   1.123  -1.806  0.0595  0.1791  0.0061
   91SAPC  H13X 8779   6.391   1.109  -1.790 -0.1114 -2.2569 -0.4485
   91SAPC  H13Y 8780   6.255   1.229  -1.822 -1.1145  0.1874  1.7514
   91SAPC  C314 8781   6.229   1.075  -1.943  0.3980 -0.3933 -0.3061
   91SAPC  H14X 8782   6.131   1.115  -1.976  0.1814 -1.2183 -0.6898
   91SAPC  H14Y 8783   6.223   0.964  -1.932  0.8007 -0.5951 -1.8010
   91SAPC  C315 8784   6.319   1.091  -2.066  0.0579 -0.2196  0.1752
   91SAPC  H15X 8785   6.280   1.022  -2.144 -1.5072 -0.3088  0.9970
   91SAPC  H15Y 8786   6.426   1.072  -2.043  0.7085  2.3901 -0.2440
   91SAPC  C316 8787   6.332   1.239  -2.115  0.1244  0.2690 -0.6019
   91SAPC  H16X 8788   6.345   1.299  -2.022 -0.3369 -1.7786  0.8392
   91SAPC  H16Y 8789   6.240   1.284  -2.159  1.8374  2.6816 -1.9942
   91SAPC  C317 8790   6.450   1.276  -2.210  0.1663  0.0905  0.2949
   91SAPC  H17X 8791   6.424   1.373  -2.258 -0.5491 -0.9816 -1.6385
   91SAPC  H17Y 8792   6.441   1.202  -2.292  0.5586  0.5315 -0.1532
   91SAPC  C318 8793   6.591   1.280  -2.147 -0.1234 -0.1112 -1.0895
   91SAPC  H18X 8794   6.657   1.336  -2.217  2.1136  2.9522  3.0170
   91SAPC  H18Y 8795   6.635   1.178  -2.134 -0.1895  0.0929  0.9316
   91SAPC  H18Z 8796   6.581   1.332  -2.050 -0.5982 -2.2914  0.0954
   92SAPC     N 8797   1.736   4.055   0.757  0.4222 -0.3241  0.1488
   92SAPC   C12 8798   1.698   4.139   0.634 -0.2320  0.8824  0.6691
   92SAPC  H12A 8799   1.727   4.083   0.546  1.6664  2.2556  0.3749
   92SAPC  H12B 8800   1.766   4.218   0.609 -2.0593  1.4544 -3.2862
   92SAPC   C13 8801   1.640   3.940   0.769  0.1803  0.5763  0.5163
   92SAPC  H13A 8802   1.544   3.989   0.780 -0.6600 -0.9868  0.3541
   92SAPC  H13B 8803   1.636   3.887   0.675  3.2522  1.3991 -0.1796
   92SAPC  H13C 8804   1.646   3.876   0.856 -2.7717 -0.5643 -0.0026
   92SAPC   C14 8805   1.872   4.003   0.733 -0.5349 -0.4248  0.2967
   92SAPC  H14A 8806   1.892   3.923   0.802 -1.4904 -0.3264  0.6944
   92SAPC  H14B 8807   1.876   3.945   0.642 -0.1153  0.6876 -0.4126
   92SAPC  H14C 8808   1.957   4.070   0.731 -0.7887 -0.1107 -0.8847
   92SAPC   C15 8809   1.733   4.131   0.887  0.3122 -0.0671  0.2523
   92SAPC  H15A 8810   1.803   4.214   0.881  1.1748 -0.8289 -0.4689
   92SAPC  H15B 8811   1.636   4.177   0.901 -0.0737 -1.3314  2.2122
   92SAPC  H15C 8812   1.751   4.080   0.981  0.0048  0.2574  0.4935
   92SAPC   C11 8813   1.561   4.200   0.624  0.0320  0.0329 -0.1218
   92SAPC  H11A 8814   1.553   4.283   0.549 -1.4326  1.4462  1.5151
   92SAPC  H11B 8815   1.543   4.247   0.723 -2.1995 -0.2603 -0.3366
   92SAPC     P 8816   1.443   4.031   0.464 -0.2622 -0.2247 -0.3351
   92SAPC   O13 8817   1.536   4.083   0.357  0.1338  0.7223  0.5679
   92SAPC   O14 8818   1.430   3.887   0.483  0.2780 -0.2037 -0.3149
   92SAPC   O12 8819   1.465   4.107   0.599  0.1234  0.0710  0.2959
   92SAPC   O11 8820   1.290   4.082   0.432  0.1958  0.1769 -0.5467
   92SAPC    C1 8821   1.198   3.990   0.378 -0.2731 -0.0023  0.2338
   92SAPC    HA 8822   1.204   3.884   0.412  1.5034 -0.2707 -0.7798
   92SAPC    HB 8823   1.094   4.015   0.409 -0.3966 -0.5320  0.2571
   92SAPC    C2 8824   1.211   4.003   0.222  0.1338 -0.6139  0.2490
   92SAPC    HS 8825   1.299   3.939   0.195  1.9569  1.0093  2.0122
   92SAPC   O21 8826   1.247   4.139   0.185  0.5182  0.2954  0.4274
   92SAPC   C21 8827   1.312   4.151   0.075 -0.7312 -0.4351  0.3940
   92SAPC   O22 8828   1.335   4.061  -0.006  0.8916  0.6768 -0.0378
   92SAPC   C22 8829   1.361   4.291   0.070 -0.3430  0.6819 -0.3058
   92SAPC   H2R 8830   1.274   4.357   0.087 -0.4539 -0.1329  2.8256
   92SAPC   H2S 8831   1.427   4.296   0.159 -2.9865  0.5232  1.8006
   92SAPC    C3 8832   1.081   3.939   0.164 -0.0707 -0.1398  0.6273
   92SAPC    HX 8833   0.991   3.980   0.213 -0.7201  1.4545 -1.7535
   92SAPC    HY 8834   1.082   3.832   0.195  1.4726 -0.8524 -1.6434
   92SAPC   O31 8835   1.058   3.963   0.024  1.1253  0.3362  0.0841
   92SAPC   C31 8836   1.080   3.870  -0.068  0.4913  0.2311 -0.0042
   92SAPC   O32 8837   1.142   3.770  -0.042  0.1362 -0.3238 -0.0281
   92SAPC   C32 8838   1.033   3.923  -0.202  0.5434 -0.4309  0.1600
   92SAPC   H2X 8839   0.961   4.004  -0.178 -0.7463 -1.1558 -1.0995
   92SAPC   H2Y 8840   0.969   3.850  -0.257 -1.2803  0.6686  0.7180
   92SAPC   C23 8841   1.416   4.320  -0.073  0.3495 -0.1742 -0.3453
   92SAPC   H3R 8842   1.491   4.243  -0.099 -0.4480 -1.0428 -0.1323
   92SAPC   H3S 8843   1.476   4.412  -0.060 -0.4585  0.2963  0.1473
   92SAPC   C24 8844   1.310   4.335  -0.186 -0.0205 -0.0804  0.2345
   92SAPC   H4R 8845   1.258   4.238  -0.201 -2.3413  1.3139 -1.3653
   92SAPC   H4S 8846   1.367   4.340  -0.280 -0.0605 -0.2789  0.1990
   92SAPC   C25 8847   1.219   4.458  -0.164  0.3552 -0.3313  0.3175
   92SAPC   H5R 8848   1.230   4.495  -0.061 -1.3869 -2.5450  1.3757
   92SAPC   C26 8849   1.125   4.510  -0.244 -0.0934  0.1916 -0.6881
   92SAPC   H6R 8850   1.074   4.602  -0.213  1.9737  1.1326  0.1130
   92SAPC   C27 8851   1.087   4.463  -0.378 -0.7422  0.4155 -0.0706
   92SAPC   H7R 8852   1.123   4.359  -0.398  1.4999  1.3909 -1.4807
   92SAPC   H7S 8853   1.149   4.527  -0.444  2.8095 -2.1522  0.4477
   92SAPC   C28 8854   0.942   4.475  -0.399 -0.0008 -0.6713  0.3953
   92SAPC   H8R 8855   0.880   4.459  -0.309  2.1438  2.4323  2.6396
   92SAPC   C29 8856   0.893   4.518  -0.514  0.5986 -0.4081 -0.0261
   92SAPC   H9R 8857   0.786   4.546  -0.513  0.6212 -0.3277  0.1944
   92SAPC  C210 8858   0.967   4.549  -0.645  0.6422 -0.0548  0.2650
   92SAPC  H10R 8859   0.919   4.477  -0.715 -0.1086  0.2922  0.4049
   92SAPC  H10S 8860   1.077   4.534  -0.651  0.7922  1.1481 -0.3617
   92SAPC  C211 8861   0.942   4.692  -0.701  0.0596 -0.5642 -0.4993
   92SAPC  H11R 8862   0.949   4.768  -0.621  1.6540  0.2349 -1.3366
   92SAPC  C212 8863   0.899   4.733  -0.823 -0.1278  0.2557 -0.0169
   92SAPC  H12R 8864   0.868   4.838  -0.834 -0.3861  0.0481 -1.4691
   92SAPC  C213 8865   0.864   4.649  -0.944  0.3789  0.1432  0.4911
   92SAPC  H13R 8866   0.760   4.669  -0.977  0.2861  0.5946  1.0576
   92SAPC  H13S 8867   0.878   4.541  -0.922  2.8422  0.5149  1.0442
   92SAPC  C214 8868   0.970   4.694  -1.042  0.0620 -0.1418  0.4451
   92SAPC  H14R 8869   1.071   4.665  -1.010 -0.1570 -1.4696 -0.0306
   92SAPC  C215 8870   0.949   4.732  -1.172 -0.1698 -0.5212  0.2853
   92SAPC  H15R 8871   1.036   4.773  -1.225 -0.5400 -0.7772 -0.5460
   92SAPC  C216 8872   0.813   4.763  -1.234  0.6924  0.1300 -0.1743
   92SAPC  H16R 8873   0.809   4.849  -1.304 -1.7471 -0.0128 -0.2917
   92SAPC  H16S 8874   0.737   4.790  -1.158  0.3068  1.9031 -1.1436
   92SAPC  C217 8875   0.771   4.638  -1.316 -0.7971 -0.1161  0.1011
   92SAPC  H17R 8876   0.723   4.562  -1.250  0.4710 -1.1198 -0.0783
   92SAPC  H17S 8877   0.856   4.571  -1.344  0.3472  1.2083  0.2792
   92SAPC  C218 8878   0.682   4.669  -1.429 -0.5242  0.5232 -0.5735
   92SAPC  H18R 8879   0.737   4.747  -1.485  0.5665 -0.5993 -1.1184
   92SAPC  H18S 8880   0.587   4.712  -1.390 -0.7401 -2.5300  2.8853
   92SAPC  C219 8881   0.655   4.538  -1.505  0.1267  0.3238  0.1776
   92SAPC  H19R 8882   0.587   4.484  -1.437 -0.7329  1.3132  0.1325
   92SAPC  H19S 8883   0.748   4.478  -1.511 -0.4043 -0.9847  3.2522
   92SAPC  C220 8884   0.595   4.543  -1.649  0.7442 -0.6211 -0.2791
   92SAPC  H20R 8885   0.494   4.588  -1.655  0.8679 -0.4927 -1.5350
   92SAPC  H20S 8886   0.591   4.442  -1.694 -1.0340 -0.1971 -1.1606
   92SAPC  H20T 8887   0.657   4.599  -1.722 -0.9009 -0.9812 -2.0238
   92SAPC   C33 8888   1.146   3.979  -0.296  0.2569 -0.0581 -0.2791
   92SAPC   H3X 8889   1.220   3.897  -0.305 -0.1969 -0.3483 -1.6188
   92SAPC   H3Y 8890   1.187   4.059  -0.231 -2.4757 -0.6091  2.3694
   92SAPC   C34 8891   1.101   4.041  -0.423 -0.5400  0.2185  1.4768
   92SAPC   H4X 8892   1.029   4.124  -0.406 -1.1333  0.2619 -0.8967
   92SAPC   H4Y 8893   1.045   3.969  -0.486  0.8386  0.0562  0.3950
   92SAPC   C35 8894   1.218   4.092  -0.506 -0.5436 -0.1600 -0.9353
   92SAPC   H5X 8895   1.293   4.012  -0.522 -0.1207  0.2574 -1.0670
   92SAPC   H5Y 8896   1.267   4.175  -0.451 -0.5108 -0.1637 -0.9590
   92SAPC   C36 8897   1.176   4.157  -0.635 -0.2003 -0.1468 -0.0794
   92SAPC   H6X 8898   1.112   4.244  -0.608 -2.1325 -2.1628  2.2060
   92SAPC   H6Y 8899   1.115   4.083  -0.691 -2.0777  0.7974  0.6554
   92SAPC   C37 8900   1.291   4.201  -0.723 -0.0484  0.0850 -0.1844
   92SAPC   H7X 8901   1.359   4.114  -0.738  1.5785  1.4631 -1.1060
   92SAPC   H7Y 8902   1.357   4.275  -0.673 -0.4180  2.6504 -3.2132
   92SAPC   C38 8903   1.240   4.268  -0.854 -0.0830  0.7093  0.1295
   92SAPC   H8X 8904   1.185   4.361  -0.826 -1.0863  0.2383 -0.2352
   92SAPC   H8Y 8905   1.175   4.208  -0.921 -1.0546  0.6944  1.0504
   92SAPC   C39 8906   1.350   4.328  -0.942 -0.2205  0.1754 -0.2426
   92SAPC   H9X 8907   1.405   4.241  -0.984 -0.2908 -0.4285  0.8688
   92SAPC   H9Y 8908   1.420   4.386  -0.878 -1.7005  2.5715 -0.6803
   92SAPC  C310 8909   1.299   4.434  -1.045 -0.1046 -0.7041 -0.3895
   92SAPC  H10X 8910   1.336   4.536  -1.019 -4.0099  0.7418  0.1440
   92SAPC  H10Y 8911   1.189   4.446  -1.040  0.1162  1.1390  0.7262
   92SAPC  C311 8912   1.334   4.402  -1.194 -0.2122 -0.3658 -0.3748
   92SAPC  H11X 8913   1.286   4.304  -1.216 -1.9180  0.0841  1.1117
   92SAPC  H11Y 8914   1.445   4.392  -1.203  0.0014  0.5775  0.9348
   92SAPC  C312 8915   1.279   4.510  -1.287 -0.0583 -0.1915  0.1181
   92SAPC  H12X 8916   1.354   4.592  -1.285 -0.4766  0.1842  1.0928
   92SAPC  H12Y 8917   1.193   4.564  -1.242  0.5160  0.6259  0.2598
   92SAPC  C313 8918   1.251   4.461  -1.429 -0.0636 -1.3542  0.3300
   92SAPC  H13X 8919   1.144   4.433  -1.434 -0.4973  0.2630  0.0090
   92SAPC  H13Y 8920   1.315   4.373  -1.449  1.9831  0.2759 -0.7595
   92SAPC  C314 8921   1.285   4.570  -1.533  0.0167 -0.1684  0.2375
   92SAPC  H14X 8922   1.392   4.586  -1.554 -0.2976  1.0618 -0.5380
   92SAPC  H14Y 8923   1.249   4.672  -1.505  1.2487  0.5236 -0.6054
   92SAPC  C315 8924   1.224   4.535  -1.667  0.2584  0.0844 -0.4261
   92SAPC  H15X 8925   1.264   4.435  -1.697 -1.1275 -0.9606  0.9987
   92SAPC  H15Y 8926   1.276   4.608  -1.731  1.6386  1.5984  2.2632
   92SAPC  C316 8927   1.075   4.525  -1.689  0.6991  0.7966  0.0019
   92SAPC  H16X 8928   1.030   4.443  -1.630 -0.0800 -1.0525 -2.9599
   92SAPC  H16Y 8929   1.057   4.505  -1.797 -2.6598 -0.9100  0.7597
   92SAPC  C317 8930   0.997   4.655  -1.652 -0.0034  0.6328  0.4179
   92SAPC  H17X 8931   0.968   4.666  -1.545  1.3200  2.2301  0.6423
   92SAPC  H17Y 8932   0.892   4.663  -1.689 -0.5310  1.1570  1.9420
   92SAPC  C318 8933   1.060   4.786  -1.694 -0.4423 -0.0611  0.6487
   92SAPC  H18X 8934   1.135   4.837  -1.630 -3.0217  2.8342  1.5636
   92SAPC  H18Y 8935   0.975   4.857  -1.695  0.4170  0.9902  0.5270
   92SAPC  H18Z 8936   1.096   4.785  -1.799  1.2757  3.0525  1.0803
   93SAPC     N 8937   5.279   2.575   0.394 -0.3044  0.5756 -0.2525
   93SAPC   C12 8938   5.296   2.527   0.249 -0.1350  0.4286 -0.0098
   93SAPC  H12A 8939   5.388   2.471   0.251  2.0519  3.7216 -0.3223
   93SAPC  H12B 8940   5.308   2.615   0.187 -3.0664  2.0886  1.5320
   93SAPC   C13 8941   5.171   2.665   0.420 -0.0395 -0.6446  0.2041
   93SAPC  H13A 8942   5.080   2.608   0.422  0.5672 -1.7033 -0.8125
   93SAPC  H13B 8943   5.186   2.702   0.520 -1.5755 -0.0278  0.2326
   93SAPC  H13C 8944   5.169   2.743   0.346  0.3704 -2.6119 -2.0086
   93SAPC   C14 8945   5.277   2.466   0.502 -0.4058  0.3576  0.7013
   93SAPC  H14A 8946   5.367   2.409   0.487 -0.8782 -0.6341  1.5018
   93SAPC  H14B 8947   5.276   2.507   0.602 -0.6729 -0.5271  1.0689
   93SAPC  H14C 8948   5.196   2.397   0.484  1.8772 -2.2629 -0.3097
   93SAPC   C15 8949   5.407   2.660   0.434 -0.1271 -0.1262  0.1429
   93SAPC  H15A 8950   5.397   2.763   0.404 -1.2562 -0.2720 -0.0016
   93SAPC  H15B 8951   5.425   2.659   0.540 -1.3605  0.4115  0.3725
   93SAPC  H15C 8952   5.496   2.609   0.399 -0.4274  0.3339 -1.3828
   93SAPC   C11 8953   5.178   2.440   0.200  0.0546 -0.5469  0.4804
   93SAPC  H11A 8954   5.146   2.376   0.284 -0.2013 -0.2610  0.6054
   93SAPC  H11B 8955   5.221   2.382   0.115 -0.4933 -0.5166  0.1744
   93SAPC     P 8956   5.096   2.607   0.013 -0.1267  0.2833 -0.2966
   93SAPC   O13 8957   4.972   2.689  -0.004  0.0444  0.2418  0.3210
   93SAPC   O14 8958   5.228   2.679   0.007 -0.0733 -0.2620 -0.8888
   93SAPC   O12 8959   5.077   2.524   0.149 -0.1998 -0.1231 -0.7932
   93SAPC   O11 8960   5.101   2.486  -0.091  0.9612 -0.3547 -0.1071
   93SAPC    C1 8961   4.986   2.414  -0.133 -1.6314  0.4498 -0.7892
   93SAPC    HA 8962   5.000   2.307  -0.109  2.3964  1.0200  0.2176
   93SAPC    HB 8963   4.894   2.448  -0.081 -0.3081  0.3272  1.7839
   93SAPC    C2 8964   4.962   2.427  -0.283 -0.2845 -0.3576 -0.6173
   93SAPC    HS 8965   4.859   2.394  -0.309 -0.0539 -0.9577 -0.7891
   93SAPC   O21 8966   5.060   2.348  -0.355 -0.1506 -0.4393  0.1857
   93SAPC   C21 8967   5.037   2.210  -0.356 -0.1317  0.3841 -0.5450
   93SAPC   O22 8968   4.936   2.155  -0.314  0.3223 -0.3881  0.1188
   93SAPC   C22 8969   5.163   2.137  -0.375 -0.9300  0.0520 -0.4735
   93SAPC   H2R 8970   5.231   2.213  -0.418  0.1441 -0.1164  0.8528
   93SAPC   H2S 8971   5.195   2.110  -0.272  0.6846 -1.0037 -1.2144
   93SAPC    C3 8972   4.958   2.580  -0.334  0.4760 -0.0183 -0.5920
   93SAPC    HX 8973   5.063   2.616  -0.332  0.5762 -0.0341 -2.7688
   93SAPC    HY 8974   4.913   2.642  -0.253  0.4248  0.7507 -1.1976
   93SAPC   O31 8975   4.895   2.599  -0.462  0.0455 -0.3516 -0.0963
   93SAPC   C31 8976   4.764   2.619  -0.452 -0.5364 -0.2017  0.6604
   93SAPC   O32 8977   4.701   2.647  -0.355  0.0811 -0.7424 -0.1480
   93SAPC   C32 8978   4.708   2.599  -0.590  0.0449 -0.7258  0.1359
   93SAPC   H2X 8979   4.770   2.644  -0.670  0.4312 -0.4568  0.5868
   93SAPC   H2Y 8980   4.606   2.644  -0.591 -0.0818 -1.0018  0.4148
   93SAPC   C23 8981   5.158   2.007  -0.466 -0.0535  0.2209 -0.1665
   93SAPC   H3R 8982   5.075   1.947  -0.422  1.3782 -1.5441  0.2568
   93SAPC   H3S 8983   5.253   1.952  -0.447 -0.8055 -1.0200  0.1118
   93SAPC   C24 8984   5.156   2.030  -0.618 -0.1690  0.0861  0.4553
   93SAPC   H4R 8985   5.174   1.933  -0.667  1.0236  0.1795  0.6839
   93SAPC   H4S 8986   5.246   2.091  -0.641 -1.6128  1.6703 -1.2935
   93SAPC   C25 8987   5.022   2.087  -0.657  0.2477  0.9163  0.0045
   93SAPC   H5R 8988   4.935   2.028  -0.623  0.9209 -0.6715 -0.8876
   93SAPC   C26 8989   4.998   2.187  -0.735  0.6797 -0.6928 -0.5354
   93SAPC   H6R 8990   4.894   2.216  -0.752  1.3095  1.6674 -0.7481
   93SAPC   C27 8991   5.101   2.286  -0.781  0.3779 -0.0966 -0.6282
   93SAPC   H7R 8992   5.123   2.252  -0.884 -2.6141 -3.9315 -0.2159
   93SAPC   H7S 8993   5.194   2.289  -0.721 -0.9722 -0.6492  1.6068
   93SAPC   C28 8994   5.042   2.428  -0.791 -0.1276 -0.0217 -0.5570
   93SAPC   H8R 8995   5.040   2.493  -0.702  1.2462 -1.4079  0.5489
   93SAPC   C29 8996   4.995   2.483  -0.903  0.6479 -1.0099  0.6194
   93SAPC   H9R 8997   4.960   2.587  -0.896 -0.8154 -1.2653 -1.8145
   93SAPC  C210 8998   4.984   2.419  -1.037 -1.1551 -0.8362  0.0722
   93SAPC  H10R 8999   4.884   2.423  -1.085  0.1557  0.4613 -2.8446
   93SAPC  H10S 9000   5.008   2.311  -1.027  1.6797 -0.5560 -2.2571
   93SAPC  C211 9001   5.099   2.457  -1.140  0.0270 -0.1621  0.0157
   93SAPC  H11R 9002   5.189   2.510  -1.106 -0.6067  2.0012 -1.4345
   93SAPC  C212 9003   5.084   2.439  -1.270 -0.0055 -0.2280  0.5991
   93SAPC  H12R 9004   5.161   2.471  -1.341 -0.5007 -1.1937 -0.4094
   93SAPC  C213 9005   4.966   2.384  -1.347 -0.6250  0.2467  0.5334
   93SAPC  H13R 9006   4.943   2.457  -1.428  1.0451  1.2525  0.9058
   93SAPC  H13S 9007   4.872   2.375  -1.289 -0.0164 -0.5719  1.4348
   93SAPC  C214 9008   5.005   2.253  -1.400 -0.5764 -0.3282 -0.8464
   93SAPC  H14R 9009   5.001   2.168  -1.330  0.0957 -1.0953 -1.7075
   93SAPC  C215 9010   5.050   2.221  -1.525  0.3616 -0.6247 -0.4264
   93SAPC  H15R 9011   5.095   2.121  -1.536 -1.9803 -1.6823 -1.2989
   93SAPC  C216 9012   5.073   2.310  -1.647 -0.2022 -0.2653  0.2001
   93SAPC  H16R 9013   5.051   2.419  -1.641 -1.2425 -0.4729  0.3594
   93SAPC  H16S 9014   5.013   2.269  -1.731  0.4008  1.9406 -1.4020
   93SAPC  C217 9015   5.219   2.304  -1.695 -0.0340 -0.4093  0.7561
   93SAPC  H17R 9016   5.303   2.284  -1.625  2.5679 -0.6608 -2.2102
   93SAPC  H17S 9017   5.250   2.396  -1.748  1.6822 -1.2238  0.2756
   93SAPC  C218 9018   5.247   2.196  -1.802 -0.2783  0.2397 -0.1575
   93SAPC  H18R 9019   5.163   2.189  -1.875 -1.3027 -0.2124  1.0352
   93SAPC  H18S 9020   5.246   2.101  -1.743  0.7449  0.1023 -0.3364
   93SAPC  C219 9021   5.382   2.201  -1.877  0.0147  0.0043 -0.0890
   93SAPC  H19R 9022   5.462   2.219  -1.802  0.0860  1.2077 -0.4259
   93SAPC  H19S 9023   5.381   2.284  -1.951  0.6831 -1.3510 -1.6918
   93SAPC  C220 9024   5.415   2.077  -1.965 -0.2702 -0.3790  0.4642
   93SAPC  H20R 9025   5.327   2.061  -2.030  0.4551 -0.7729 -0.4383
   93SAPC  H20S 9026   5.426   1.988  -1.899 -1.4387 -0.9819 -0.1341
   93SAPC  H20T 9027   5.503   2.092  -2.031 -0.0545 -0.5657  0.7042
   93SAPC   C33 9028   4.708   2.454  -0.635  0.3568  0.4358  0.4249
   93SAPC   H3X 9029   4.635   2.392  -0.580  1.9827 -0.4101  1.7204
   93SAPC   H3Y 9030   4.809   2.414  -0.611  0.4592  0.8761  0.7506
   93SAPC   C34 9031   4.675   2.439  -0.782  0.4338  0.2066  0.1059
   93SAPC   H4X 9032   4.720   2.342  -0.811 -0.6582 -0.7277  1.4054
   93SAPC   H4Y 9033   4.723   2.512  -0.851 -2.5384  0.5217 -1.8058
   93SAPC   C35 9034   4.525   2.424  -0.810  0.1985 -0.1485  0.3924
   93SAPC   H5X 9035   4.470   2.453  -0.718 -1.0367  0.8841 -0.6280
   93SAPC   H5Y 9036   4.512   2.316  -0.835 -0.1151  0.0554 -0.3615
   93SAPC   C36 9037   4.478   2.515  -0.922 -0.7825 -0.7921 -0.6287
   93SAPC   H6X 9038   4.510   2.614  -0.883 -0.9194 -1.1912  0.5410
   93SAPC   H6Y 9039   4.368   2.526  -0.940 -0.4873  2.8698 -1.1624
   93SAPC   C37 9040   4.553   2.490  -1.051 -0.5339 -0.3647 -0.8119
   93SAPC   H7X 9041   4.561   2.380  -1.052 -1.0409 -0.4598  1.2359
   93SAPC   H7Y 9042   4.655   2.532  -1.067 -0.5914 -0.2850 -0.9792
   93SAPC   C38 9043   4.461   2.521  -1.168 -0.2703 -0.0242 -0.3845
   93SAPC   H8X 9044   4.417   2.623  -1.171  0.9191  0.5774  1.0926
   93SAPC   H8Y 9045   4.377   2.450  -1.158  1.1795 -1.8778 -0.7587
   93SAPC   C39 9046   4.528   2.484  -1.301 -0.4656 -0.7958 -0.5770
   93SAPC   H9X 9047   4.564   2.380  -1.287  1.5996 -0.1389 -0.6014
   93SAPC   H9Y 9048   4.620   2.546  -1.308 -1.4405  0.7308 -0.3248
   93SAPC  C310 9049   4.437   2.519  -1.417  0.5954 -0.2679 -0.9640
   93SAPC  H10X 9050   4.418   2.629  -1.422 -0.3438 -0.4189 -0.9509
   93SAPC  H10Y 9051   4.336   2.475  -1.402 -0.3557  1.6895 -1.2698
   93SAPC  C311 9052   4.483   2.467  -1.554  0.2285  0.2370  0.8820
   93SAPC  H11X 9053   4.487   2.356  -1.559  2.4094  0.2379  1.4792
   93SAPC  H11Y 9054   4.584   2.509  -1.572 -0.0259  1.2772  1.7833
   93SAPC  C312 9055   4.386   2.503  -1.669  0.0529  0.1683 -0.6740
   93SAPC  H12X 9056   4.367   2.613  -1.667  0.6159  0.2482  0.4233
   93SAPC  H12Y 9057   4.286   2.456  -1.654 -1.6570  3.7866  0.4299
   93SAPC  C313 9058   4.437   2.474  -1.816  0.6278 -0.0805 -0.6579
   93SAPC  H13X 9059   4.469   2.368  -1.815  2.6519  0.4866 -1.1997
   93SAPC  H13Y 9060   4.525   2.539  -1.837  1.5803 -1.7659 -2.1979
   93SAPC  C314 9061   4.329   2.510  -1.923 -0.1967  0.1594 -0.3199
   93SAPC  H14X 9062   4.299   2.617  -1.921  1.5776  0.6982  0.8532
   93SAPC  H14Y 9063   4.241   2.444  -1.912  2.2461 -3.2038  0.7532
   93SAPC  C315 9064   4.378   2.473  -2.065 -1.0696  0.6516 -0.0767
   93SAPC  H15X 9065   4.287   2.466  -2.129 -0.9263 -1.7383 -0.0925
   93SAPC  H15Y 9066   4.426   2.374  -2.075  1.8306  1.9465  0.0117
   93SAPC  C316 9067   4.480   2.572  -2.117 -0.9784  0.3057 -0.1907
   93SAPC  H16X 9068   4.567   2.571  -2.047 -0.8980  0.8648 -0.2772
   93SAPC  H16Y 9069   4.424   2.667  -2.103 -1.1592 -0.0757  2.0097
   93SAPC  C317 9070   4.527   2.546  -2.258  0.0841  0.5528 -0.1978
   93SAPC  H17X 9071   4.451   2.569  -2.336  0.0652  1.1352 -0.0164
   93SAPC  H17Y 9072   4.570   2.444  -2.258 -0.5831  0.2604  0.5646
   93SAPC  C318 9073   4.636   2.651  -2.285 -0.0004 -0.0101 -0.0170
   93SAPC  H18X 9074   4.681   2.633  -2.385  1.1813 -3.1777  0.9839
   93SAPC  H18Y 9075   4.711   2.663  -2.204 -1.1944  0.6823  1.0244
   93SAPC  H18Z 9076   4.575   2.744  -2.294 -1.1247 -0.8815 -1.9487
   94SAPC     N 9077   1.044   5.434   0.770 -0.0138  0.7145 -0.0704
   94SAPC   C12 9078   1.088   5.424   0.620 -0.1928 -0.4709 -0.6704
   94SAPC  H12A 9079   1.176   5.361   0.615  0.2058 -0.1383  1.4906
   94SAPC  H12B 9080   1.137   5.517   0.593  2.1338 -1.0196  1.3562
   94SAPC   C13 9081   1.009   5.298   0.830  0.1211 -0.8264  0.4297
   94SAPC  H13A 9082   0.985   5.311   0.934  0.6404  0.2344  0.4323
   94SAPC  H13B 9083   0.926   5.257   0.773 -0.8162 -3.8843  3.6817
   94SAPC  H13C 9084   1.096   5.234   0.824  1.2740  0.6953  0.3987
   94SAPC   C14 9085   1.151   5.484   0.855  0.2098 -0.6100 -0.5014
   94SAPC  H14A 9086   1.139   5.459   0.959 -1.2600  0.0880 -0.4784
   94SAPC  H14B 9087   1.241   5.435   0.822 -1.3698 -0.9391 -4.9221
   94SAPC  H14C 9088   1.174   5.590   0.847 -1.4107 -0.1568  0.3877
   94SAPC   C15 9089   0.915   5.515   0.778  0.6122  0.1463  0.2161
   94SAPC  H15A 9090   0.933   5.618   0.751  1.4825 -0.7684 -3.2280
   94SAPC  H15B 9091   0.848   5.472   0.704 -0.0454  0.4425  0.6347
   94SAPC  H15C 9092   0.871   5.506   0.876 -0.4743  1.2863 -0.1360
   94SAPC   C11 9093   0.985   5.383   0.519 -0.0046 -0.4571 -0.2557
   94SAPC  H11A 9094   1.049   5.367   0.429  0.5805  1.4810 -0.2342
   94SAPC  H11B 9095   0.922   5.471   0.497  0.6288  0.8181  2.5938
   94SAPC     P 9096   0.763   5.248   0.538  0.0551 -0.0495 -0.2769
   94SAPC   O13 9097   0.724   5.121   0.602 -0.3512  0.3588  0.5157
   94SAPC   O14 9098   0.701   5.373   0.592 -0.3748 -0.5622  0.3490
   94SAPC   O12 9099   0.918   5.257   0.555  0.0979 -0.2784  0.1618
   94SAPC   O11 9100   0.733   5.232   0.385  0.0425 -0.6335  0.0527
   94SAPC    C1 9101   0.785   5.117   0.319 -0.5878 -0.1115  0.4109
   94SAPC    HA 9102   0.894   5.128   0.302 -0.1939 -3.5268  0.1046
   94SAPC    HB 9103   0.772   5.029   0.385 -0.4495 -0.0770  0.4844
   94SAPC    C2 9104   0.710   5.083   0.192  0.4824 -0.1399 -0.1513
   94SAPC    HS 9105   0.742   4.987   0.146 -1.1963 -0.0949 -1.5087
   94SAPC   O21 9106   0.712   5.192   0.089 -0.3398 -0.1364  0.1100
   94SAPC   C21 9107   0.833   5.209   0.035  1.1974  0.7129 -0.6692
   94SAPC   O22 9108   0.929   5.136   0.054  0.0027 -0.5092 -0.0565
   94SAPC   C22 9109   0.827   5.334  -0.056 -0.7628  0.1514  0.1437
   94SAPC   H2R 9110   0.781   5.294  -0.149 -1.2744  0.5399  0.2242
   94SAPC   H2S 9111   0.763   5.408  -0.004 -0.6757  0.3562 -0.0358
   94SAPC    C3 9112   0.559   5.057   0.229  0.1834 -0.0252 -0.0201
   94SAPC    HX 9113   0.543   5.149   0.290 -0.2118 -1.8037  2.7489
   94SAPC    HY 9114   0.551   4.969   0.297 -0.9157  0.3419  0.3322
   94SAPC   O31 9115   0.478   5.048   0.107 -0.6761  0.5843  0.0778
   94SAPC   C31 9116   0.384   4.958   0.101 -0.0908  0.7436  0.1740
   94SAPC   O32 9117   0.341   4.895   0.195 -0.0645  0.6981  0.5090
   94SAPC   C32 9118   0.334   4.944  -0.045  0.0707  0.4390  0.6401
   94SAPC   H2X 9119   0.395   5.014  -0.107  1.6124 -1.6798 -0.3735
   94SAPC   H2Y 9120   0.227   4.973  -0.049  0.4210  1.9514  1.5478
   94SAPC   C23 9121   0.976   5.377  -0.099 -0.4589  0.5996  0.9047
   94SAPC   H3R 9122   1.016   5.279  -0.136  0.8150  0.3140  2.9138
   94SAPC   H3S 9123   1.033   5.413  -0.011 -0.6254  2.3785  0.3239
   94SAPC   C24 9124   0.986   5.480  -0.215 -0.9936  0.4809  1.0250
   94SAPC   H4R 9125   0.946   5.581  -0.192 -0.8958  0.2150  2.4770
   94SAPC   H4S 9126   0.921   5.440  -0.296  0.1010 -0.1331  0.4326
   94SAPC   C25 9127   1.127   5.481  -0.275 -0.6923 -0.7337  0.1776
   94SAPC   H5R 9128   1.203   5.466  -0.198 -2.9512  0.2210  2.7377
   94SAPC   C26 9129   1.164   5.513  -0.397  0.1205 -0.2400 -0.2847
   94SAPC   H6R 9130   1.267   5.511  -0.434  0.6452  0.9809  1.0200
   94SAPC   C27 9131   1.068   5.558  -0.503 -0.8567  0.7802 -0.2769
   94SAPC   H7R 9132   1.092   5.665  -0.521  2.3516  0.2458  0.2562
   94SAPC   H7S 9133   0.960   5.541  -0.485 -1.0262  0.6098 -1.3488
   94SAPC   C28 9134   1.093   5.478  -0.623 -0.1094 -0.3978  0.2750
   94SAPC   H8R 9135   1.046   5.378  -0.622  0.6946 -0.7863 -0.2620
   94SAPC   C29 9136   1.149   5.514  -0.743 -0.0191  0.0276 -1.1215
   94SAPC   H9R 9137   1.158   5.445  -0.828  0.6443  1.1539 -2.0055
   94SAPC  C210 9138   1.230   5.648  -0.749 -0.6993 -0.2456 -0.7167
   94SAPC  H10R 9139   1.330   5.632  -0.795  0.2893  1.3204  0.7783
   94SAPC  H10S 9140   1.261   5.687  -0.650 -2.1436 -1.3517  0.2232
   94SAPC  C211 9141   1.160   5.754  -0.827  0.4446  0.1354 -0.3657
   94SAPC  H11R 9142   1.111   5.828  -0.763  1.5224  0.2083  0.4084
   94SAPC  C212 9143   1.147   5.757  -0.962  0.4397 -0.0962 -0.4631
   94SAPC  H12R 9144   1.118   5.844  -1.022  0.9161 -0.7081 -1.5962
   94SAPC  C213 9145   1.179   5.652  -1.060 -0.6052  0.5275  0.1784
   94SAPC  H13R 9146   1.190   5.552  -1.013 -0.6596 -1.0169 -2.8695
   94SAPC  H13S 9147   1.284   5.662  -1.096 -0.9055 -0.5561 -1.0812
   94SAPC  C214 9148   1.093   5.637  -1.180  0.1780  0.1498  0.6810
   94SAPC  H14R 9149   1.031   5.547  -1.186 -1.0042  0.9405  0.7118
   94SAPC  C215 9150   1.102   5.702  -1.303 -0.1683  0.1793  0.4540
   94SAPC  H15R 9151   1.014   5.699  -1.369  1.3182  1.5318 -1.7238
   94SAPC  C216 9152   1.191   5.822  -1.337 -0.4440 -0.6707  0.1878
   94SAPC  H16R 9153   1.191   5.886  -1.246  0.1433 -0.3813 -0.0103
   94SAPC  H16S 9154   1.144   5.883  -1.417  0.2595  0.7341  0.8118
   94SAPC  C217 9155   1.341   5.790  -1.379  0.3189  0.0093 -0.4991
   94SAPC  H17R 9156   1.394   5.724  -1.307  0.5879  1.4746  0.6917
   94SAPC  H17S 9157   1.403   5.881  -1.391 -0.2684  0.1188 -3.7142
   94SAPC  C218 9158   1.335   5.711  -1.506  0.1012 -0.3276  0.0054
   94SAPC  H18R 9159   1.279   5.763  -1.587  2.8253  2.0479 -0.5087
   94SAPC  H18S 9160   1.297   5.608  -1.488  0.3756 -0.0247  2.5991
   94SAPC  C219 9161   1.474   5.682  -1.570 -0.1211  0.9014  0.4736
   94SAPC  H19R 9162   1.447   5.609  -1.649 -0.9494 -1.6896  2.9962
   94SAPC  H19S 9163   1.536   5.613  -1.509  0.6784  1.9596  0.9024
   94SAPC  C220 9164   1.558   5.797  -1.634 -0.0326  0.4123 -0.1362
   94SAPC  H20R 9165   1.487   5.862  -1.689 -2.3257 -0.4999  1.5751
   94SAPC  H20S 9166   1.640   5.756  -1.697 -0.0802  0.0539  0.0269
   94SAPC  H20T 9167   1.602   5.861  -1.555  3.1852 -0.0330 -1.4041
   94SAPC   C33 9168   0.349   4.805  -0.109  0.1651  0.0873  0.0468
   94SAPC   H3X 9169   0.335   4.811  -0.219 -1.1152 -1.7440  0.0645
   94SAPC   H3Y 9170   0.279   4.731  -0.065 -1.0040  0.6262 -0.8603
   94SAPC   C34 9171   0.491   4.750  -0.089  0.2826  0.0201 -0.3298
   94SAPC   H4X 9172   0.501   4.648  -0.132 -0.5498 -1.0502  1.8402
   94SAPC   H4Y 9173   0.512   4.722   0.017  0.1817 -0.4183 -0.4227
   94SAPC   C35 9174   0.610   4.823  -0.151 -0.0431  0.3316 -0.1970
   94SAPC   H5X 9175   0.609   4.920  -0.096 -2.6401  1.0834 -1.4085
   94SAPC   H5Y 9176   0.587   4.841  -0.259 -1.3275 -0.8892 -0.1605
   94SAPC   C36 9177   0.734   4.733  -0.138 -0.3459  0.0216 -0.0266
   94SAPC   H6X 9178   0.736   4.661  -0.222 -0.3838 -0.5817  0.4789
   94SAPC   H6Y 9179   0.744   4.681  -0.040 -0.5023 -0.4147 -0.2397
   94SAPC   C37 9180   0.865   4.803  -0.128 -0.3756 -0.0155  0.2505
   94SAPC   H7X 9181   0.942   4.732  -0.093  1.8819  0.6626 -2.9160
   94SAPC   H7Y 9182   0.838   4.878  -0.050 -0.8874 -2.6457  2.7923
   94SAPC   C38 9183   0.919   4.871  -0.251 -0.1801  0.1839  0.1480
   94SAPC   H8X 9184   0.849   4.953  -0.277 -2.0401 -1.5047 -0.3299
   94SAPC   H8Y 9185   0.912   4.813  -0.346  1.2024  0.8183 -0.3698
   94SAPC   C39 9186   1.055   4.926  -0.241 -0.0479  0.3067 -0.2291
   94SAPC   H9X 9187   1.127   4.842  -0.227 -0.9772 -1.1207 -3.1631
   94SAPC   H9Y 9188   1.051   4.985  -0.147 -4.8135 -1.1455  0.8006
   94SAPC  C310 9189   1.107   5.023  -0.345  0.2259  0.3023 -0.9594
   94SAPC  H10X 9190   1.218   5.021  -0.343  0.3529  3.3391 -1.1833
   94SAPC  H10Y 9191   1.068   5.119  -0.308 -1.6443 -0.6613 -0.3231
   94SAPC  C311 9192   1.072   4.998  -0.488 -0.1566  0.2517  0.3679
   94SAPC  H11X 9193   0.961   5.001  -0.492 -0.2505 -2.4152 -1.2109
   94SAPC  H11Y 9194   1.103   4.901  -0.532 -0.5954 -0.0295  0.6767
   94SAPC  C312 9195   1.139   5.097  -0.583 -0.5586 -0.6704 -0.6182
   94SAPC  H12X 9196   1.249   5.084  -0.579 -0.6857 -1.7966 -0.3272
   94SAPC  H12Y 9197   1.098   5.194  -0.546  0.0768 -1.1435  1.4931
   94SAPC  C313 9198   1.105   5.076  -0.734  0.4036 -0.0285  0.1590
   94SAPC  H13X 9199   1.007   5.125  -0.755  1.1225  1.8950  1.0490
   94SAPC  H13Y 9200   1.095   4.970  -0.767  1.4219  0.2174 -1.0284
   94SAPC  C314 9201   1.214   5.125  -0.829 -0.0759  0.1406  0.0231
   94SAPC  H14X 9202   1.297   5.051  -0.833 -0.0099  0.2247 -0.2174
   94SAPC  H14Y 9203   1.262   5.213  -0.782  1.3882 -1.1599  1.0641
   94SAPC  C315 9204   1.164   5.171  -0.971  0.0033  0.2120  0.6662
   94SAPC  H15X 9205   1.253   5.217  -1.020 -0.5736  1.7289  0.9826
   94SAPC  H15Y 9206   1.090   5.253  -0.955 -2.7690 -1.7659 -1.1703
   94SAPC  C316 9207   1.098   5.056  -1.051 -1.3786  0.1054 -0.0985
   94SAPC  H16X 9208   1.007   5.026  -0.994  0.1205 -0.1747  2.3150
   94SAPC  H16Y 9209   1.174   4.976  -1.065 -1.2429  0.2276 -0.0671
   94SAPC  C317 9210   1.063   5.086  -1.198 -0.3511 -0.4397  0.5845
   94SAPC  H17X 9211   1.032   4.990  -1.245  2.7218 -1.5052  0.5400
   94SAPC  H17Y 9212   1.155   5.111  -1.255 -1.6830  0.0346 -1.4827
   94SAPC  C318 9213   0.957   5.192  -1.230 -0.3442 -0.2120 -0.5401
   94SAPC  H18X 9214   0.871   5.178  -1.161  1.6614 -1.5925  1.8242
   94SAPC  H18Y 9215   0.920   5.167  -1.332  0.3212 -1.4168 -0.4935
   94SAPC  H18Z 9216   0.995   5.296  -1.220  1.2668 -0.3205 -4.1001
   95SAPC     N 9217   0.889   6.636   4.199  0.3215 -0.0251 -0.5174
   95SAPC   C12 9218   0.899   6.786   4.170  0.3801 -0.0831 -0.2306
   95SAPC  H12A 9219   1.004   6.802   4.148  1.3078 -2.6173  1.8087
   95SAPC  H12B 9220   0.864   6.834   4.261  0.6146 -0.7004  0.1940
   95SAPC   C13 9221   0.949   6.601   4.334 -0.7420  0.5079  0.8346
   95SAPC  H13A 9222   0.877   6.631   4.408  0.5567  0.7311  2.0470
   95SAPC  H13B 9223   0.959   6.493   4.339 -2.4594  0.0941 -2.2048
   95SAPC  H13C 9224   1.042   6.648   4.362 -1.1767  0.9610  1.5385
   95SAPC   C14 9225   0.746   6.595   4.204  0.1844 -0.1689 -0.4512
   95SAPC  H14A 9226   0.692   6.631   4.290 -1.4940 -0.4980 -1.3242
   95SAPC  H14B 9227   0.696   6.634   4.117 -0.3562 -0.9887 -0.5197
   95SAPC  H14C 9228   0.741   6.487   4.204  0.9142 -0.2066 -0.8921
   95SAPC   C15 9229   0.958   6.560   4.088  0.1207 -0.0480  0.0785
   95SAPC  H15A 9230   0.932   6.597   3.990  1.4411  2.9825  0.7869
   95SAPC  H15B 9231   1.065   6.565   4.084  0.0727  0.9019 -3.8432
   95SAPC  H15C 9232   0.925   6.457   4.083  0.9078 -0.2401 -2.2401
   95SAPC   C11 9233   0.826   6.851   4.040 -0.0494  0.0201 -0.2874
   95SAPC  H11A 9234   0.846   6.782   3.956  0.6690  1.1594 -1.0754
   95SAPC  H11B 9235   0.877   6.947   4.018 -0.2881  1.2793  3.7838
   95SAPC     P 9236   0.636   6.988   4.146 -0.2143 -0.2708  0.1603
   95SAPC   O13 9237   0.699   7.116   4.103 -0.0490 -0.3674  0.0347
   95SAPC   O14 9238   0.490   6.989   4.148  0.7846  0.2959  0.2111
   95SAPC   O12 9239   0.686   6.867   4.064 -0.2171 -0.3571  0.3002
   95SAPC   O11 9240   0.675   6.963   4.298  0.2758 -0.0559  0.3458
   95SAPC    C1 9241   0.592   7.021   4.406  0.0256 -1.0413  0.2431
   95SAPC    HA 9242   0.486   6.989   4.400  0.3722 -1.9756 -2.0264
   95SAPC    HB 9243   0.621   6.985   4.507  0.1870 -0.4919  0.3944
   95SAPC    C2 9244   0.618   7.174   4.423  0.0374 -0.3922 -0.2436
   95SAPC    HS 9245   0.577   7.222   4.331  1.1330 -1.2875 -1.2432
   95SAPC   O21 9246   0.760   7.200   4.436 -0.0936  0.4923  0.5513
   95SAPC   C21 9247   0.782   7.327   4.410 -0.5955  0.0027  0.6860
   95SAPC   O22 9248   0.705   7.412   4.370  0.1965  0.4229  0.4145
   95SAPC   C22 9249   0.932   7.350   4.443 -0.4183  0.0548 -0.0197
   95SAPC   H2R 9250   0.995   7.314   4.359  2.7110 -0.9582  2.5276
   95SAPC   H2S 9251   0.938   7.461   4.440  2.6510  0.1092  2.4598
   95SAPC    C3 9252   0.533   7.238   4.539  0.1652 -0.0410 -0.2023
   95SAPC    HX 9253   0.425   7.218   4.523  0.1823  0.1959 -0.6342
   95SAPC    HY 9254   0.542   7.347   4.524  1.4324  0.1608  1.7761
   95SAPC   O31 9255   0.586   7.194   4.672  0.0672 -0.1729 -0.6710
   95SAPC   C31 9256   0.510   7.224   4.774 -0.2065 -0.0389  0.4814
   95SAPC   O32 9257   0.411   7.293   4.772  0.4035 -0.1389  0.2714
   95SAPC   C32 9258   0.581   7.166   4.902  0.6880 -0.2176 -0.3309
   95SAPC   H2X 9259   0.571   7.056   4.917 -1.4841 -0.0666 -0.2513
   95SAPC   H2Y 9260   0.535   7.227   4.982  1.9880  0.2545  0.0690
   95SAPC   C23 9261   0.977   7.290   4.586 -0.3984 -0.3305 -0.3688
   95SAPC   H3R 9262   0.997   7.181   4.580 -3.1307 -0.9430  0.3549
   95SAPC   H3S 9263   0.882   7.318   4.638 -0.3680 -2.9463  1.2697
   95SAPC   C24 9264   1.096   7.372   4.637  0.6022 -0.1812 -0.8675
   95SAPC   H4R 9265   1.075   7.481   4.629 -0.9510 -0.4868 -1.2581
   95SAPC   H4S 9266   1.185   7.347   4.575  2.6587  0.3459  1.6995
   95SAPC   C25 9267   1.110   7.345   4.788 -1.0790 -0.5854 -0.0305
   95SAPC   H5R 9268   1.015   7.357   4.842 -0.5928  0.4699  0.6205
   95SAPC   C26 9269   1.208   7.276   4.843  0.7113 -0.0624 -0.0318
   95SAPC   H6R 9270   1.212   7.260   4.952  1.4145  0.5734  0.0484
   95SAPC   C27 9271   1.333   7.228   4.785  0.6449  0.3731 -0.3994
   95SAPC   H7R 9272   1.364   7.290   4.698 -0.1336 -1.7640 -2.2927
   95SAPC   H7S 9273   1.326   7.132   4.730 -0.4259  1.4731 -2.3306
   95SAPC   C28 9274   1.448   7.224   4.886 -0.3421 -0.2017 -0.0782
   95SAPC   H8R 9275   1.524   7.303   4.891 -0.3941 -0.0868 -0.8936
   95SAPC   C29 9276   1.459   7.134   4.986  0.1890 -0.2691 -0.3047
   95SAPC   H9R 9277   1.545   7.136   5.055  1.1956 -0.2446 -1.5029
   95SAPC  C210 9278   1.374   7.014   5.005  0.1432  0.1609 -0.6305
   95SAPC  H10R 9279   1.315   6.989   4.914  0.0241 -0.8775 -0.2836
   95SAPC  H10S 9280   1.302   7.045   5.083  1.2067  1.1934 -0.0261
   95SAPC  C211 9281   1.449   6.888   5.044 -0.4240  0.8371 -0.2698
   95SAPC  H11R 9282   1.498   6.838   4.960 -1.5134  0.3102 -0.6128
   95SAPC  C212 9283   1.471   6.829   5.164  0.6077 -0.3710 -0.2559
   95SAPC  H12R 9284   1.535   6.740   5.165  0.9783 -0.0998  0.3294
   95SAPC  C213 9285   1.428   6.881   5.296 -0.6564  0.0104  0.6068
   95SAPC  H13R 9286   1.464   6.806   5.369  2.6487 -0.7785 -1.5933
   95SAPC  H13S 9287   1.318   6.884   5.313 -0.7999  3.7930 -0.1563
   95SAPC  C214 9288   1.500   7.007   5.332  0.1714 -0.5693  0.1407
   95SAPC  H14R 9289   1.555   7.052   5.248 -0.7639 -1.1652 -0.8068
   95SAPC  C215 9290   1.507   7.070   5.453 -0.2808 -0.5852  0.9249
   95SAPC  H15R 9291   1.536   7.176   5.456 -1.3935 -0.1483 -1.2012
   95SAPC  C216 9292   1.434   7.026   5.581  0.4136  0.4089  0.3549
   95SAPC  H16R 9293   1.366   6.942   5.557 -0.3212  1.3160 -0.8747
   95SAPC  H16S 9294   1.368   7.114   5.600 -0.4303 -0.2830  0.6742
   95SAPC  C217 9295   1.506   6.999   5.707  0.6238 -0.3857  0.2831
   95SAPC  H17R 9296   1.612   7.029   5.690  0.8568 -1.7353 -0.7939
   95SAPC  H17S 9297   1.513   6.892   5.735  0.7461  0.0872  2.2004
   95SAPC  C218 9298   1.462   7.085   5.827 -0.3502 -0.0374  1.0841
   95SAPC  H18R 9299   1.424   7.182   5.787 -0.7120 -1.0917 -1.3234
   95SAPC  H18S 9300   1.546   7.099   5.898  1.1842 -0.7982 -0.5136
   95SAPC  C219 9301   1.339   7.026   5.901  0.1498 -0.3354  0.5063
   95SAPC  H19R 9302   1.368   6.921   5.922 -2.0259 -1.4467 -1.5158
   95SAPC  H19S 9303   1.258   7.000   5.830  0.7726 -1.7781  0.2933
   95SAPC  C220 9304   1.284   7.109   6.022 -0.1447  1.0246  0.3966
   95SAPC  H20R 9305   1.334   7.098   6.120  1.0401  3.9042  0.2024
   95SAPC  H20S 9306   1.176   7.100   6.048  0.0623  0.1212  0.9775
   95SAPC  H20T 9307   1.301   7.214   5.992  0.0409  0.4230 -1.7404
   95SAPC   C33 9308   0.730   7.203   4.909  0.0203 -0.0093 -0.7372
   95SAPC   H3X 9309   0.749   7.312   4.895  0.5269  0.4708  2.8080
   95SAPC   H3Y 9310   0.795   7.153   4.834 -0.2973 -1.1378 -0.2751
   95SAPC   C34 9311   0.792   7.159   5.047  0.1200  0.5259 -0.3031
   95SAPC   H4X 9312   0.824   7.053   5.046 -1.0272  0.1042  1.7644
   95SAPC   H4Y 9313   0.721   7.171   5.132 -0.8903  0.5377 -1.1367
   95SAPC   C35 9314   0.917   7.239   5.097  0.1741 -0.0285  0.4938
   95SAPC   H5X 9315   0.898   7.347   5.080 -0.9637 -0.5272 -1.6807
   95SAPC   H5Y 9316   1.001   7.206   5.032 -1.2068 -0.6704 -1.0495
   95SAPC   C36 9317   0.936   7.217   5.248  0.3996  0.1807 -0.4029
   95SAPC   H6X 9318   0.892   7.125   5.292 -0.8157 -0.3226 -2.5333
   95SAPC   H6Y 9319   0.866   7.290   5.295 -1.3624 -1.6681 -0.0349
   95SAPC   C37 9320   1.081   7.229   5.279  0.2046 -0.3664  0.1606
   95SAPC   H7X 9321   1.115   7.322   5.229 -1.1431 -0.0558 -0.2110
   95SAPC   H7Y 9322   1.143   7.147   5.238  1.8649  0.6547  0.5458
   95SAPC   C38 9323   1.111   7.240   5.432  0.3317  0.4911  0.6966
   95SAPC   H8X 9324   1.054   7.332   5.459  0.9248  0.5106  1.9292
   95SAPC   H8Y 9325   1.213   7.281   5.451  0.4316  0.2870  0.6011
   95SAPC   C39 9326   1.071   7.113   5.514 -0.0848 -0.7362  0.9901
   95SAPC   H9X 9327   1.145   7.033   5.493  1.0400  0.8666 -1.7221
   95SAPC   H9Y 9328   0.972   7.081   5.476  1.6760 -2.7719 -2.3537
   95SAPC  C310 9329   1.070   7.150   5.661 -0.0357 -0.5329 -0.4729
   95SAPC  H10X 9330   1.169   7.162   5.709 -0.0324 -0.3283 -0.5284
   95SAPC  H10Y 9331   1.020   7.067   5.713 -0.0691  0.0149  0.3865
   95SAPC  C311 9332   0.994   7.275   5.689  0.2948  0.3694 -0.4358
   95SAPC  H11X 9333   0.908   7.295   5.622 -0.6683  2.4064  1.2931
   95SAPC  H11Y 9334   1.066   7.359   5.680  0.9820  0.0518  1.5000
   95SAPC  C312 9335   0.944   7.275   5.839 -0.2705  0.6142  0.4109
   95SAPC  H12X 9336   1.025   7.271   5.915 -1.1318  0.1071  1.3416
   95SAPC  H12Y 9337   0.882   7.184   5.858  0.2133  0.5622  1.8654
   95SAPC  C313 9338   0.861   7.401   5.868  1.0222  0.7567  0.0166
   95SAPC  H13X 9339   0.799   7.433   5.782  2.5581 -0.3353 -1.5528
   95SAPC  H13Y 9340   0.927   7.486   5.896  0.7831  0.9101  0.1197
   95SAPC  C314 9341   0.769   7.381   5.982 -0.2556 -0.1432 -0.5218
   95SAPC  H14X 9342   0.817   7.339   6.073  0.5736 -2.2232 -1.8229
   95SAPC  H14Y 9343   0.689   7.304   5.964 -1.6741  1.0772  0.3493
   95SAPC  C315 9344   0.697   7.510   6.027  1.0253 -0.0408 -0.4067
   95SAPC  H15X 9345   0.681   7.577   5.941  0.4241 -1.6996 -1.6425
   95SAPC  H15Y 9346   0.745   7.563   6.112 -1.1065  0.5895  0.4693
   95SAPC  C316 9347   0.555   7.481   6.090  0.4123  0.1132  0.3582
   95SAPC  H16X 9348   0.573   7.419   6.180 -3.0279 -2.0631 -0.2499
   95SAPC  H16Y 9349   0.490   7.435   6.012  2.2868 -1.1394 -0.5422
   95SAPC  C317 9350   0.486   7.608   6.133  0.1372  0.4316  0.1749
   95SAPC  H17X 9351   0.470   7.670   6.042  0.2799  0.5251  0.2121
   95SAPC  H17Y 9352   0.549   7.669   6.202  0.6059  0.0263  0.1069
   95SAPC  C318 9353   0.356   7.574   6.208 -0.0028 -0.6695  0.6973
   95SAPC  H18X 9354   0.333   7.660   6.274 -2.4265  0.9037 -1.9277
   95SAPC  H18Y 9355   0.378   7.484   6.270 -0.0579 -1.2037 -0.0379
   95SAPC  H18Z 9356   0.278   7.544   6.135 -0.1586 -1.5715  1.2150
   96SAPC     N 9357   0.220   3.259   4.022  0.0926 -0.7064 -0.3865
   96SAPC   C12 9358   0.129   3.286   4.143 -0.4403  0.6174  0.0971
   96SAPC  H12A 9359   0.090   3.385   4.131 -0.2978  0.9004  1.6777
   96SAPC  H12B 9360   0.192   3.283   4.231  0.1194 -1.1308 -0.3139
   96SAPC   C13 9361   0.314   3.142   4.042 -0.3998  0.1823  0.4130
   96SAPC  H13A 9362   0.379   3.124   3.958 -0.0221 -1.9486  1.0862
   96SAPC  H13B 9363   0.372   3.149   4.133 -0.0442  2.4292  0.0639
   96SAPC  H13C 9364   0.255   3.052   4.039  0.0828 -0.1749  1.3399
   96SAPC   C14 9365   0.136   3.232   3.906  0.0271 -0.0102  1.2009
   96SAPC  H14A 9366   0.104   3.129   3.911  0.0814  0.0245  2.7215
   96SAPC  H14B 9367   0.048   3.295   3.905  0.2808  0.3383  0.1078
   96SAPC  H14C 9368   0.193   3.244   3.816 -0.4490 -0.8381  0.7728
   96SAPC   C15 9369   0.301   3.383   3.990 -0.1696 -0.1479 -0.2221
   96SAPC  H15A 9370   0.355   3.379   3.897 -0.4264  2.1086 -0.5323
   96SAPC  H15B 9371   0.231   3.462   3.968 -1.4298 -1.0107  0.5742
   96SAPC  H15C 9372   0.366   3.417   4.069 -2.5906 -1.1162  2.3693
   96SAPC   C11 9373   0.017   3.183   4.173  0.0872  0.2099  0.4218
   96SAPC  H11A 9374  -0.059   3.173   4.092 -0.1497 -0.3310  0.7061
   96SAPC  H11B 9375  -0.031   3.221   4.266  3.3360  1.4730  1.7343
   96SAPC     P 9376   0.051   2.953   4.301 -0.7421  0.1272 -0.3181
   96SAPC   O13 9377  -0.090   2.973   4.340 -0.0333  0.0450 -0.3940
   96SAPC   O14 9378   0.098   2.826   4.250  0.3980 -0.3205 -0.1266
   96SAPC   O12 9379   0.082   3.057   4.187  0.1408  0.9164  0.1930
   96SAPC   O11 9380   0.147   3.000   4.424  0.4096 -0.2054 -0.0509
   96SAPC    C1 9381   0.283   2.952   4.428  0.5239  0.3971  0.4569
   96SAPC    HA 9382   0.292   2.845   4.402  1.0311  0.8380 -1.2703
   96SAPC    HB 9383   0.349   3.003   4.355 -2.6355  1.3781 -1.9650
   96SAPC    C2 9384   0.348   2.945   4.571  1.0223 -0.5078 -0.2455
   96SAPC    HS 9385   0.286   2.873   4.628  0.6130 -0.6080 -0.8075
   96SAPC   O21 9386   0.367   3.078   4.635  0.3890 -0.0174  0.1981
   96SAPC   C21 9387   0.266   3.123   4.701  0.2343  0.4677  0.1174
   96SAPC   O22 9388   0.157   3.065   4.712  0.3620 -0.2769  0.2558
   96SAPC   C22 9389   0.297   3.256   4.769 -0.0759  0.5744  0.2838
   96SAPC   H2R 9390   0.403   3.240   4.799 -0.4242 -1.4620  0.5823
   96SAPC   H2S 9391   0.293   3.334   4.690  0.6139 -1.6097 -2.0651
   96SAPC    C3 9392   0.484   2.869   4.574  0.4781  0.0702  0.2641
   96SAPC    HX 9393   0.540   2.932   4.502  1.3460 -1.6225 -0.5896
   96SAPC    HY 9394   0.482   2.769   4.527 -1.1971  0.0136  0.3967
   96SAPC   O31 9395   0.552   2.878   4.696  0.1239  0.7120 -1.0537
   96SAPC   C31 9396   0.683   2.858   4.689 -0.3988 -0.5437 -0.2968
   96SAPC   O32 9397   0.748   2.847   4.589 -0.1034  0.2440  0.4502
   96SAPC   C32 9398   0.732   2.859   4.838  0.3245  0.3833 -0.3929
   96SAPC   H2X 9399   0.721   2.757   4.880 -0.3603  0.3339 -0.6657
   96SAPC   H2Y 9400   0.668   2.924   4.902 -0.9689 -0.9238 -0.2961
   96SAPC   C23 9401   0.213   3.294   4.891 -0.2395  0.4720  0.2677
   96SAPC   H3R 9402   0.202   3.212   4.964 -1.9950  0.6343  0.2455
   96SAPC   H3S 9403   0.110   3.324   4.861 -0.5552  1.0150  1.7974
   96SAPC   C24 9404   0.276   3.412   4.968  0.3430  0.4073 -0.1509
   96SAPC   H4R 9405   0.302   3.488   4.890 -0.9614  1.7129  0.6300
   96SAPC   H4S 9406   0.365   3.372   5.022  0.9078 -1.6736 -2.4489
   96SAPC   C25 9407   0.170   3.461   5.065 -0.3280 -0.4448 -0.0839
   96SAPC   H5R 9408   0.080   3.505   5.020 -1.5835 -1.3554  1.4579
   96SAPC   C26 9409   0.187   3.462   5.202  0.7015  0.4497  0.2429
   96SAPC   H6R 9410   0.099   3.494   5.259 -0.3660 -0.2684 -0.9421
   96SAPC   C27 9411   0.300   3.412   5.289 -0.0420  1.0206 -0.5186
   96SAPC   H7R 9412   0.317   3.481   5.375 -0.1006  2.9635 -1.9845
   96SAPC   H7S 9413   0.394   3.418   5.231 -0.1528 -1.5586 -1.0863
   96SAPC   C28 9414   0.291   3.269   5.327 -0.3256  0.1052 -0.4188
   96SAPC   H8R 9415   0.238   3.208   5.251 -1.7075  1.9590 -1.0159
   96SAPC   C29 9416   0.322   3.220   5.449  0.0370  0.5284  0.3948
   96SAPC   H9R 9417   0.307   3.113   5.467  1.1891  0.5852  1.9424
   96SAPC  C210 9418   0.393   3.296   5.563  0.0558 -0.1449 -0.5650
   96SAPC  H10R 9419   0.367   3.403   5.548 -0.9180 -0.2442  0.2858
   96SAPC  H10S 9420   0.501   3.284   5.538  0.1342 -0.9845  0.1450
   96SAPC  C211 9421   0.349   3.246   5.706  0.5149  0.0184  0.7275
   96SAPC  H11R 9422   0.293   3.152   5.717  2.0552 -1.1289 -0.7346
   96SAPC  C212 9423   0.398   3.305   5.814  0.4354  0.2282  0.1780
   96SAPC  H12R 9424   0.365   3.257   5.907  0.0453 -0.2426 -0.1943
   96SAPC  C213 9425   0.499   3.419   5.826 -0.9804  0.8008  0.4035
   96SAPC  H13R 9426   0.554   3.428   5.730 -0.6549  0.0726  0.5101
   96SAPC  H13S 9427   0.583   3.376   5.886 -0.9743 -1.9884 -1.3939
   96SAPC  C214 9428   0.436   3.549   5.876  0.0172  0.2280 -0.2497
   96SAPC  H14R 9429   0.370   3.597   5.802  1.6603  3.5477  0.2036
   96SAPC  C215 9430   0.440   3.594   6.002 -0.1906  0.4455  0.6650
   96SAPC  H15R 9431   0.391   3.685   6.038 -0.8895 -0.0660  1.0230
   96SAPC  C216 9432   0.528   3.537   6.110 -0.1287  0.5322  0.1126
   96SAPC  H16R 9433   0.564   3.622   6.172  0.8312  0.1814  0.0513
   96SAPC  H16S 9434   0.622   3.490   6.074  0.1085 -0.2251  1.6211
   96SAPC  C217 9435   0.439   3.431   6.191 -0.3842 -0.2397 -0.0810
   96SAPC  H17R 9436   0.385   3.361   6.123 -1.6363  1.1671 -0.5761
   96SAPC  H17S 9437   0.364   3.469   6.262  0.4167 -0.9630  1.1879
   96SAPC  C218 9438   0.527   3.340   6.276  0.2606  0.5886 -0.6814
   96SAPC  H18R 9439   0.583   3.282   6.200  0.1125  0.2174 -0.5149
   96SAPC  H18S 9440   0.461   3.270   6.333  0.2744 -0.3068 -1.7308
   96SAPC  C219 9441   0.639   3.410   6.361 -0.1926  0.2071  0.1974
   96SAPC  H19R 9442   0.590   3.488   6.423 -0.7052  0.9967 -1.1586
   96SAPC  H19S 9443   0.722   3.438   6.293 -0.8444  1.9152  0.0664
   96SAPC  C220 9444   0.709   3.311   6.452  0.4924 -0.5838  0.1314
   96SAPC  H20R 9445   0.784   3.347   6.526  1.1313 -1.4973 -0.0524
   96SAPC  H20S 9446   0.773   3.239   6.397  0.3684  0.9099 -2.1106
   96SAPC  H20T 9447   0.632   3.254   6.508 -0.8329 -0.4002 -1.4463
   96SAPC   C33 9448   0.882   2.880   4.844  0.1584 -0.4877  0.5530
   96SAPC   H3X 9449   0.903   2.976   4.794 -1.8307 -0.4229 -0.2252
   96SAPC   H3Y 9450   0.937   2.799   4.792  1.4530 -0.5576  1.9713
   96SAPC   C34 9451   0.934   2.896   4.987 -0.8015 -0.7997  0.0889
   96SAPC   H4X 9452   0.867   2.968   5.038 -3.6205 -0.2264 -3.9357
   96SAPC   H4Y 9453   1.036   2.938   4.975 -1.2477  0.3892  0.3689
   96SAPC   C35 9454   0.942   2.772   5.078  0.2190 -0.8564  0.0635
   96SAPC   H5X 9455   1.016   2.702   5.035  2.0766  0.8035  0.3916
   96SAPC   H5Y 9456   0.844   2.719   5.074 -0.3917  0.2812 -0.5889
   96SAPC   C36 9457   0.986   2.814   5.222 -0.1077  0.0246 -1.0607
   96SAPC   H6X 9458   0.900   2.866   5.269 -1.3340 -2.8716  0.1339
   96SAPC   H6Y 9459   1.074   2.881   5.214 -0.5362  1.0619  1.8025
   96SAPC   C37 9460   0.994   2.691   5.320 -0.1791  0.5998  0.0489
   96SAPC   H7X 9461   1.081   2.623   5.306 -1.5645 -1.5226  1.2526
   96SAPC   H7Y 9462   0.906   2.636   5.281  0.0159 -0.1686  0.6670
   96SAPC   C38 9463   0.975   2.711   5.471  0.3374  0.3407  0.1794
   96SAPC   H8X 9464   0.891   2.783   5.481  0.2366  0.4955 -1.4913
   96SAPC   H8Y 9465   1.059   2.763   5.521  0.5325 -0.2489  0.4720
   96SAPC   C39 9466   0.942   2.587   5.555  0.2008  0.3726 -0.5557
   96SAPC   H9X 9467   1.015   2.504   5.557 -0.4174 -0.1769 -0.5368
   96SAPC   H9Y 9468   0.844   2.549   5.517  1.5131 -1.2324 -2.5355
   96SAPC  C310 9469   0.923   2.631   5.700  0.0242 -0.0281  0.1613
   96SAPC  H10X 9470   0.816   2.653   5.722  0.7387  2.1988  1.8098
   96SAPC  H10Y 9471   0.975   2.729   5.710  0.2535 -0.1251 -0.0910
   96SAPC  C311 9472   0.979   2.542   5.808  0.3016 -0.1592  0.6417
   96SAPC  H11X 9473   1.074   2.492   5.779 -0.3622  0.0007 -2.0655
   96SAPC  H11Y 9474   0.895   2.470   5.814 -1.1313  1.3837  0.0006
   96SAPC  C312 9475   0.998   2.614   5.942 -0.4176  0.9745  1.1598
   96SAPC  H12X 9476   0.929   2.701   5.937 -2.5182 -0.6386 -2.8791
   96SAPC  H12Y 9477   1.103   2.647   5.957  0.5664 -1.5666  0.3138
   96SAPC  C313 9478   0.967   2.521   6.060  0.6872  0.4529 -0.1685
   96SAPC  H13X 9479   0.865   2.484   6.034  1.1658 -0.2704 -1.0428
   96SAPC  H13Y 9480   0.961   2.580   6.154  0.2581  1.8445 -1.0241
   96SAPC  C314 9481   1.053   2.398   6.072  0.1344  0.6562  0.1596
   96SAPC  H14X 9482   1.051   2.335   5.980  0.0609 -0.4207  0.8750
   96SAPC  H14Y 9483   1.013   2.333   6.153  1.3294  1.2900  1.2927
   96SAPC  C315 9484   1.196   2.431   6.121 -0.0120  0.0231 -0.4455
   96SAPC  H15X 9485   1.185   2.482   6.219 -1.2313 -1.1005  0.0347
   96SAPC  H15Y 9486   1.237   2.506   6.050  0.8228  1.1278  1.1429
   96SAPC  C316 9487   1.289   2.312   6.121 -0.4759  1.0740 -0.2366
   96SAPC  H16X 9488   1.393   2.343   6.145  0.6406 -2.2871 -0.1077
   96SAPC  H16Y 9489   1.290   2.276   6.015  4.9266 -0.2733 -0.0577
   96SAPC  C317 9490   1.260   2.203   6.218  0.8084 -0.0773  0.5190
   96SAPC  H17X 9491   1.152   2.176   6.227  1.1721 -0.9317  3.0095
   96SAPC  H17Y 9492   1.282   2.234   6.322 -1.0930  1.3988  0.5426
   96SAPC  C318 9493   1.329   2.069   6.195  0.5890 -0.9008  0.6804
   96SAPC  H18X 9494   1.439   2.077   6.211  0.3890  0.7381  1.4365
   96SAPC  H18Y 9495   1.299   2.041   6.092  0.5383 -0.6371  0.6214
   96SAPC  H18Z 9496   1.294   1.994   6.269  1.1344 -1.2467  0.5930
   97SAPC     N 9497   1.841   1.895   4.083  0.3862  0.0310  0.3527
   97SAPC   C12 9498   1.767   1.918   4.217  0.1007  0.0841 -0.5232
   97SAPC  H12A 9499   1.739   1.819   4.250  0.7395 -0.4321 -1.4819
   97SAPC  H12B 9500   1.674   1.972   4.215 -0.0178 -0.1402 -1.0730
   97SAPC   C13 9501   1.760   1.816   3.992 -0.6655  0.2773  0.1532
   97SAPC  H13A 9502   1.657   1.849   4.000 -1.2991 -1.7463  0.8107
   97SAPC  H13B 9503   1.799   1.817   3.891 -1.2695  1.3180 -0.0878
   97SAPC  H13C 9504   1.752   1.714   4.026  0.3652  1.3097  4.0094
   97SAPC   C14 9505   1.873   2.027   4.028  0.2217 -0.4092  0.3154
   97SAPC  H14A 9506   1.792   2.092   3.996  0.6219 -0.1450 -0.1621
   97SAPC  H14B 9507   1.918   2.092   4.102  0.5691  0.2762 -0.4838
   97SAPC  H14C 9508   1.941   2.022   3.945  0.0511 -0.5370  0.1817
   97SAPC   C15 9509   1.967   1.822   4.096  0.3156  0.0464 -0.2116
   97SAPC  H15A 9510   1.955   1.723   4.137 -1.9436  0.2260 -0.2952
   97SAPC  H15B 9511   2.013   1.821   3.998 -0.7241 -0.6706 -0.7146
   97SAPC  H15C 9512   2.038   1.875   4.157 -0.4942  1.3899 -0.4089
   97SAPC   C11 9513   1.850   1.981   4.337  0.0303  0.1414  0.0552
   97SAPC  H11A 9514   1.931   1.908   4.356 -0.0806  0.1996  0.8004
   97SAPC  H11B 9515   1.778   1.976   4.422 -0.9337  0.1968 -0.7368
   97SAPC     P 9516   1.807   2.235   4.351  0.0773 -0.0835  0.2797
   97SAPC   O13 9517   1.853   2.348   4.274  0.2461  0.0518 -0.3894
   97SAPC   O14 9518   1.665   2.204   4.328  0.6769 -0.0662 -0.6321
   97SAPC   O12 9519   1.891   2.112   4.306  0.3676  0.3665 -0.3937
   97SAPC   O11 9520   1.837   2.252   4.504  0.2518 -0.0759  0.6188
   97SAPC    C1 9521   1.971   2.223   4.558  0.5695 -0.3618 -0.3885
   97SAPC    HA 9522   2.025   2.163   4.481 -0.7218 -2.1789  0.0563
   97SAPC    HB 9523   2.020   2.316   4.595  1.6185 -1.6786  1.7233
   97SAPC    C2 9524   1.960   2.119   4.675 -0.5242  0.0366 -0.0641
   97SAPC    HS 9525   1.929   2.026   4.624  0.8393  1.3784 -3.6649
   97SAPC   O21 9526   1.866   2.160   4.785  0.1243 -0.2477  0.4637
   97SAPC   C21 9527   1.747   2.107   4.763 -0.4535  0.1538  0.0828
   97SAPC   O22 9528   1.718   2.028   4.674  0.1014  0.9717  0.4017
   97SAPC   C22 9529   1.658   2.172   4.862  0.7548 -0.2340 -0.1584
   97SAPC   H2R 9530   1.661   2.108   4.953  1.5369  0.3603  0.2589
   97SAPC   H2S 9531   1.696   2.272   4.892  0.3074  0.2928 -1.2777
   97SAPC    C3 9532   2.101   2.083   4.735  0.3589  0.3545 -0.0471
   97SAPC    HX 9533   2.152   2.181   4.745 -0.4019  0.6315  1.2536
   97SAPC    HY 9534   2.156   2.027   4.656  0.0343  0.1189 -0.1075
   97SAPC   O31 9535   2.105   2.024   4.869 -0.2159 -0.4820  0.2140
   97SAPC   C31 9536   2.064   1.899   4.874  0.7153  0.4009 -0.7967
   97SAPC   O32 9537   2.046   1.825   4.779  0.4364 -0.0808  0.1643
   97SAPC   C32 9538   2.039   1.868   5.017 -0.3857  0.8269  0.8356
   97SAPC   H2X 9539   1.997   1.959   5.064 -0.0677  1.1824  0.4426
   97SAPC   H2Y 9540   2.136   1.840   5.065 -0.4970 -0.5903  0.3018
   97SAPC   C23 9541   1.512   2.178   4.810  0.8890 -0.3318  0.6334
   97SAPC   H3R 9542   1.468   2.092   4.755  0.2518  2.0553 -2.8806
   97SAPC   H3S 9543   1.496   2.257   4.733  0.1557 -1.1306 -0.0594
   97SAPC   C24 9544   1.411   2.230   4.923 -0.0244  0.5304 -0.3911
   97SAPC   H4R 9545   1.310   2.232   4.877  0.1564 -2.0251 -1.0534
   97SAPC   H4S 9546   1.443   2.334   4.949  0.3031  0.8474 -1.9643
   97SAPC   C25 9547   1.389   2.133   5.037  0.3343 -0.1733  0.0741
   97SAPC   H5R 9548   1.359   2.030   5.011  0.0249 -0.2820  0.8257
   97SAPC   C26 9549   1.404   2.162   5.168  0.0070 -0.6267  0.1320
   97SAPC   H6R 9550   1.391   2.086   5.246 -0.5494  0.7418  1.4166
   97SAPC   C27 9551   1.431   2.302   5.219 -0.1482  0.0014 -0.0563
   97SAPC   H7R 9552   1.382   2.323   5.316  1.8588  1.6482  0.6784
   97SAPC   H7S 9553   1.386   2.378   5.151  0.3798  0.6258  0.2828
   97SAPC   C28 9554   1.578   2.345   5.220 -0.4241  0.5764  1.0088
   97SAPC   H8R 9555   1.626   2.376   5.126  0.8989  0.9399  1.7777
   97SAPC   C29 9556   1.645   2.376   5.330  0.3068  0.6266  0.1839
   97SAPC   H9R 9557   1.747   2.415   5.319  0.4755 -0.1017 -0.9261
   97SAPC  C210 9558   1.602   2.355   5.470  0.2756 -0.0171 -0.4499
   97SAPC  H10R 9559   1.690   2.331   5.532 -0.2474  1.6109  1.0304
   97SAPC  H10S 9560   1.520   2.280   5.471  0.4123 -0.1553  0.4691
   97SAPC  C211 9561   1.554   2.494   5.519  0.1795 -0.3190  0.6696
   97SAPC  H11R 9562   1.513   2.560   5.442  0.0628 -1.1870 -0.0259
   97SAPC  C212 9563   1.575   2.540   5.646 -0.4503 -0.8834 -0.1421
   97SAPC  H12R 9564   1.528   2.635   5.675 -1.6186 -1.3015 -0.5803
   97SAPC  C213 9565   1.627   2.461   5.759  0.5671  0.3974 -0.3727
   97SAPC  H13R 9566   1.735   2.485   5.769  0.6293  0.3207 -0.8230
   97SAPC  H13S 9567   1.616   2.351   5.747  2.3702  0.1530 -0.1074
   97SAPC  C214 9568   1.563   2.489   5.893 -0.0769  0.4026 -0.0864
   97SAPC  H14R 9569   1.471   2.438   5.925 -0.9211  1.3789 -0.8585
   97SAPC  C215 9570   1.595   2.577   5.989 -0.2385 -0.8866  0.4537
   97SAPC  H15R 9571   1.517   2.592   6.066 -1.9475 -0.9113 -1.2055
   97SAPC  C216 9572   1.717   2.665   5.983 -0.1950  0.3298  0.9388
   97SAPC  H16R 9573   1.789   2.624   5.910 -1.1700  1.0904 -0.4949
   97SAPC  H16S 9574   1.777   2.663   6.077  1.3455  0.1644 -0.0069
   97SAPC  C217 9575   1.693   2.817   5.962 -0.0869 -0.3332 -1.0674
   97SAPC  H17R 9576   1.671   2.851   5.858 -0.5285  2.3564 -0.1707
   97SAPC  H17S 9577   1.787   2.870   5.989 -0.4081 -0.8296  1.1472
   97SAPC  C218 9578   1.581   2.879   6.056  0.6804  0.5779 -0.3889
   97SAPC  H18R 9579   1.501   2.802   6.053  0.7355  0.4718  0.5467
   97SAPC  H18S 9580   1.535   2.977   6.036  1.9432  1.3125  0.1504
   97SAPC  C219 9581   1.629   2.881   6.202  0.2533  0.1642 -0.0747
   97SAPC  H19R 9582   1.588   2.975   6.246 -3.2519 -1.2357 -0.0571
   97SAPC  H19S 9583   1.740   2.889   6.206  0.2374  0.0073  0.9282
   97SAPC  C220 9584   1.586   2.767   6.299  0.7054 -0.5545 -0.0554
   97SAPC  H20R 9585   1.476   2.752   6.305  0.5112  0.4706 -0.7880
   97SAPC  H20S 9586   1.629   2.791   6.398  1.8072 -1.7553 -0.2128
   97SAPC  H20T 9587   1.626   2.667   6.270  2.2288 -0.4667  1.6056
   97SAPC   C33 9588   1.943   1.756   5.040 -0.3758  0.2701  0.5496
   97SAPC   H3X 9589   1.977   1.660   4.995 -1.1488  0.1612  0.1781
   97SAPC   H3Y 9590   1.846   1.779   4.991  0.4536  1.6885 -0.5068
   97SAPC   C34 9591   1.915   1.737   5.194 -0.5605 -0.2420  0.1574
   97SAPC   H4X 9592   1.837   1.658   5.191 -0.3561 -0.4121 -1.2172
   97SAPC   H4Y 9593   1.881   1.835   5.233 -2.0565 -0.5566 -0.3043
   97SAPC   C35 9594   2.040   1.688   5.264 -0.5037 -0.3368  0.0925
   97SAPC   H5X 9595   2.103   1.779   5.264 -0.2286 -0.4986 -1.5893
   97SAPC   H5Y 9596   2.087   1.602   5.212  3.3454  2.1086 -0.8294
   97SAPC   C36 9597   2.025   1.656   5.418 -0.1389  0.1631 -0.3997
   97SAPC   H6X 9598   1.954   1.731   5.461 -0.6035  0.3631 -1.4703
   97SAPC   H6Y 9599   2.130   1.668   5.451  0.7342 -1.7230 -2.2483
   97SAPC   C37 9600   1.986   1.507   5.439  0.2518  1.2489 -0.4267
   97SAPC   H7X 9601   2.071   1.444   5.405  0.4937  1.2153  0.2371
   97SAPC   H7Y 9602   1.897   1.482   5.378  2.1621 -1.3435 -2.3806
   97SAPC   C38 9603   1.957   1.479   5.589  0.4210  0.7183 -0.1149
   97SAPC   H8X 9604   2.050   1.483   5.650 -0.6132  0.8936  1.5253
   97SAPC   H8Y 9605   1.901   1.383   5.582  0.6983  0.6708 -2.0318
   97SAPC   C39 9606   1.856   1.575   5.658 -0.4045  0.7922 -0.1204
   97SAPC   H9X 9607   1.766   1.587   5.594 -0.8993  1.6540  0.7127
   97SAPC   H9Y 9608   1.899   1.673   5.687  2.7805 -0.6819  0.5252
   97SAPC  C310 9609   1.812   1.517   5.798 -0.6332  0.1022 -0.2368
   97SAPC  H10X 9610   1.757   1.422   5.781 -1.1478  0.2687  0.4514
   97SAPC  H10Y 9611   1.741   1.596   5.832  0.9232  1.8061 -0.7742
   97SAPC  C311 9612   1.931   1.492   5.898 -0.0901  0.1954  0.7129
   97SAPC  H11X 9613   2.004   1.576   5.889 -0.9861  1.1099  1.7687
   97SAPC  H11Y 9614   1.976   1.393   5.876 -3.1960 -1.9159  2.9549
   97SAPC  C312 9615   1.883   1.487   6.044 -0.0231  0.0600 -0.4669
   97SAPC  H12X 9616   1.952   1.425   6.105 -0.3969  1.2148  1.1669
   97SAPC  H12Y 9617   1.790   1.425   6.047 -0.6676  1.0460  0.7838
   97SAPC  C313 9618   1.859   1.615   6.112 -0.7156 -0.5856 -0.8335
   97SAPC  H13X 9619   1.752   1.647   6.108 -0.6686 -0.4827 -1.2357
   97SAPC  H13Y 9620   1.917   1.685   6.048 -0.0563 -2.6907 -2.6252
   97SAPC  C314 9621   1.912   1.617   6.258 -0.3040  0.2077  0.0408
   97SAPC  H14X 9622   2.023   1.625   6.252 -0.0588 -1.5626  1.6291
   97SAPC  H14Y 9623   1.886   1.527   6.316 -0.5905  0.7216  0.7158
   97SAPC  C315 9624   1.864   1.729   6.351  0.8781 -0.3995 -0.6495
   97SAPC  H15X 9625   1.870   1.826   6.296  3.3282 -0.9207 -1.4575
   97SAPC  H15Y 9626   1.935   1.742   6.435  1.1627 -2.2002 -0.5602
   97SAPC  C316 9627   1.725   1.711   6.409 -0.2095 -0.1226 -0.6343
   97SAPC  H16X 9628   1.730   1.637   6.493  1.1380  0.3120 -0.3094
   97SAPC  H16Y 9629   1.646   1.670   6.342 -0.7029  2.4544 -1.7287
   97SAPC  C317 9630   1.671   1.841   6.467  0.0923 -0.6835  0.1980
   97SAPC  H17X 9631   1.682   1.908   6.379 -2.5959 -0.6359 -0.1544
   97SAPC  H17Y 9632   1.710   1.872   6.567 -2.6074  1.3100  0.7413
   97SAPC  C318 9633   1.520   1.833   6.491 -0.2575 -0.2477 -0.3292
   97SAPC  H18X 9634   1.478   1.747   6.547  2.0917 -1.1464  0.1900
   97SAPC  H18Y 9635   1.477   1.840   6.389  1.9316 -0.1352 -1.3059
   97SAPC  H18Z 9636   1.480   1.928   6.532  0.6857  0.9426 -2.0291
   98SAPC     N 9637   3.914   2.000   4.148  0.1762  0.2063  0.2213
   98SAPC   C12 9638   3.836   2.073   4.256 -0.1197 -0.0123 -0.1893
   98SAPC  H12A 9639   3.903   2.101   4.336 -0.9380  2.7988 -0.3700
   98SAPC  H12B 9640   3.760   2.003   4.287  0.0013  0.0977  0.3825
   98SAPC   C13 9641   3.826   1.980   4.035  0.1679 -0.2257  0.3473
   98SAPC  H13A 9642   3.750   1.905   4.054  0.7084 -0.6996  0.6794
   98SAPC  H13B 9643   3.775   2.070   4.003 -0.1033 -1.2704 -2.4887
   98SAPC  H13C 9644   3.881   1.953   3.946 -1.1105  1.1761 -0.9261
   98SAPC   C14 9645   4.028   2.070   4.107  0.7022  0.3938 -0.8024
   98SAPC  H14A 9646   4.113   2.050   4.171 -0.2708 -0.2206  0.3443
   98SAPC  H14B 9647   4.047   2.063   4.001 -2.9980  0.5877 -1.6015
   98SAPC  H14C 9648   4.010   2.175   4.121  1.6068  0.6574 -1.5385
   98SAPC   C15 9649   3.953   1.863   4.205  0.2067 -0.3819 -0.6251
   98SAPC  H15A 9650   4.023   1.870   4.287  0.4972  0.2723 -0.9229
   98SAPC  H15B 9651   3.875   1.801   4.246  1.5975 -1.6648  0.2049
   98SAPC  H15C 9652   3.996   1.800   4.128  3.1014 -1.2752  1.5070
   98SAPC   C11 9653   3.769   2.205   4.205 -0.1253  0.0100  0.2495
   98SAPC  H11A 9654   3.705   2.236   4.290 -3.3486 -1.4271 -1.4293
   98SAPC  H11B 9655   3.689   2.190   4.129  1.6976  1.1898 -2.0212
   98SAPC     P 9656   3.909   2.427   4.239  0.2309 -0.1080  0.2477
   98SAPC   O13 9657   4.020   2.395   4.327 -0.0672  0.5422 -0.0166
   98SAPC   O14 9658   3.936   2.537   4.140  0.6624 -0.4887  0.4682
   98SAPC   O12 9659   3.865   2.302   4.158 -0.5446  0.1607 -0.4098
   98SAPC   O11 9660   3.784   2.465   4.320 -0.4847  0.4727  0.5176
   98SAPC    C1 9661   3.767   2.449   4.457 -0.6645  0.2163  0.1887
   98SAPC    HA 9662   3.662   2.470   4.488 -0.0425  0.9968  1.9269
   98SAPC    HB 9663   3.770   2.340   4.481  1.4412 -0.1519 -1.4719
   98SAPC    C2 9664   3.864   2.537   4.550  0.1156 -0.2323 -0.2593
   98SAPC    HS 9665   3.967   2.506   4.526  0.4270  1.3403 -1.0810
   98SAPC   O21 9666   3.821   2.522   4.683 -0.0251 -0.2401 -0.4733
   98SAPC   C21 9667   3.852   2.406   4.738 -0.0804  0.4575 -0.1258
   98SAPC   O22 9668   3.903   2.307   4.686  0.0473 -0.3646 -0.0358
   98SAPC   C22 9669   3.811   2.416   4.884  0.4693  0.3766  0.6945
   98SAPC   H2R 9670   3.881   2.492   4.926  1.6040  0.8625 -1.8609
   98SAPC   H2S 9671   3.707   2.456   4.882  0.1544 -0.4523 -0.8343
   98SAPC    C3 9672   3.832   2.684   4.518  0.5920 -0.2340  0.8999
   98SAPC    HX 9673   3.729   2.710   4.552 -0.3535  0.3463 -2.1242
   98SAPC    HY 9674   3.817   2.694   4.409 -0.2526 -0.6822  0.9618
   98SAPC   O31 9675   3.925   2.781   4.553 -0.7539 -0.1414 -0.0604
   98SAPC   C31 9676   4.045   2.787   4.479  0.2021  0.3445  0.8517
   98SAPC   O32 9677   4.071   2.721   4.376 -0.3794  0.0277  0.1350
   98SAPC   C32 9678   4.156   2.868   4.543  0.3347 -0.2677 -0.1906
   98SAPC   H2X 9679   4.102   2.936   4.612  1.0331 -0.8917  1.0083
   98SAPC   H2Y 9680   4.193   2.934   4.462  0.8394  1.6876  1.5173
   98SAPC   C23 9681   3.823   2.283   4.962 -0.4518  0.1258 -1.3208
   98SAPC   H3R 9682   3.822   2.182   4.916 -0.5026 -1.2404  1.4907
   98SAPC   H3S 9683   3.743   2.281   5.039 -0.1280  0.7392 -0.9631
   98SAPC   C24 9684   3.954   2.292   5.050 -0.2854  0.0534 -0.1411
   98SAPC   H4R 9685   3.949   2.369   5.130 -1.1657 -1.0986  0.9576
   98SAPC   H4S 9686   4.020   2.332   4.970 -2.7161  1.7463 -1.4440
   98SAPC   C25 9687   3.993   2.159   5.106  0.4833  0.0437 -0.5721
   98SAPC   H5R 9688   4.039   2.098   5.026 -1.1097 -0.1510 -1.3890
   98SAPC   C26 9689   3.972   2.112   5.238  0.6422 -0.2023  0.1945
   98SAPC   H6R 9690   4.010   2.015   5.272  1.0231 -0.6244 -1.3281
   98SAPC   C27 9691   3.913   2.193   5.355  0.2415 -0.1911  0.6239
   98SAPC   H7R 9692   3.827   2.254   5.318  2.1101  2.5374  0.4970
   98SAPC   H7S 9693   3.995   2.260   5.387  0.3875 -0.4506  0.7920
   98SAPC   C28 9694   3.857   2.104   5.465  0.2352 -0.2818 -0.6543
   98SAPC   H8R 9695   3.784   2.037   5.417  0.5849 -0.6613 -0.6630
   98SAPC   C29 9696   3.888   2.097   5.598  0.5429 -0.0234 -0.8890
   98SAPC   H9R 9697   3.844   2.016   5.657  0.6827 -0.6719 -1.6462
   98SAPC  C210 9698   3.972   2.201   5.664 -0.1076  0.1946 -0.5596
   98SAPC  H10R 9699   3.923   2.265   5.741 -0.5729  1.0727 -1.5596
   98SAPC  H10S 9700   3.998   2.270   5.581 -2.0411 -2.2537 -3.3427
   98SAPC  C211 9701   4.090   2.112   5.712 -0.2211  0.0032 -0.2235
   98SAPC  H11R 9702   4.153   2.063   5.636  2.9300  0.9374  1.6269
   98SAPC  C212 9703   4.136   2.123   5.832 -0.1324  0.2962  0.5256
   98SAPC  H12R 9704   4.216   2.054   5.862 -0.8473  0.0212  1.9130
   98SAPC  C213 9705   4.079   2.205   5.942  0.3684 -0.0614 -0.4101
   98SAPC  H13R 9706   3.985   2.154   5.974  0.9192 -1.0277 -0.3135
   98SAPC  H13S 9707   4.057   2.302   5.894  1.4758 -0.3017 -1.4362
   98SAPC  C214 9708   4.167   2.235   6.057 -0.3231  0.0893 -1.2500
   98SAPC  H14R 9709   4.222   2.330   6.055  0.1808 -0.2036 -1.3651
   98SAPC  C215 9710   4.177   2.167   6.172  0.0539 -0.1330  0.9977
   98SAPC  H15R 9711   4.227   2.209   6.261 -0.9332  1.6172  0.7845
   98SAPC  C216 9712   4.112   2.031   6.197  0.3330 -0.7726 -0.3718
   98SAPC  H16R 9713   4.190   1.956   6.223  0.0274 -0.9920 -0.0911
   98SAPC  H16S 9714   4.058   1.991   6.109 -1.2947  1.3293 -0.3989
   98SAPC  C217 9715   4.004   2.059   6.304  0.3319 -0.4479 -0.6741
   98SAPC  H17R 9716   3.929   2.127   6.260 -0.4846  1.2849  3.0220
   98SAPC  H17S 9717   4.054   2.104   6.392  0.9457 -0.2994 -1.0856
   98SAPC  C218 9718   3.931   1.932   6.354 -0.0940  0.5837 -0.6430
   98SAPC  H18R 9719   3.852   1.894   6.287 -0.8041 -1.4058  1.2057
   98SAPC  H18S 9720   3.878   1.962   6.447 -0.7435 -1.1247 -0.4270
   98SAPC  C219 9721   4.036   1.826   6.396  0.3862 -0.2556  0.5182
   98SAPC  H19R 9722   4.126   1.864   6.449  0.1661  1.7824 -0.4844
   98SAPC  H19S 9723   4.059   1.774   6.300 -1.1325 -1.5557  0.8076
   98SAPC  C220 9724   3.977   1.714   6.487 -0.0098  0.1345 -0.3573
   98SAPC  H20R 9725   4.058   1.641   6.508  1.6767  2.0544  0.1322
   98SAPC  H20S 9726   3.892   1.660   6.441  1.8285 -2.1540 -1.2618
   98SAPC  H20T 9727   3.943   1.769   6.578  1.5820  1.1583 -0.3216
   98SAPC   C33 9728   4.264   2.780   4.610 -0.6198 -0.4890 -0.0875
   98SAPC   H3X 9729   4.356   2.834   4.640 -0.4342  0.4200 -2.0795
   98SAPC   H3Y 9730   4.299   2.711   4.530 -0.4017  0.9719 -1.2911
   98SAPC   C34 9731   4.206   2.702   4.726 -0.2128 -0.1542  0.0351
   98SAPC   H4X 9732   4.279   2.620   4.745  1.8525  1.7327  0.6899
   98SAPC   H4Y 9733   4.101   2.669   4.714 -0.1467 -0.0861 -0.7893
   98SAPC   C35 9734   4.219   2.785   4.858  0.1903 -0.6348  0.9043
   98SAPC   H5X 9735   4.169   2.883   4.844  0.4126 -0.8635 -2.0373
   98SAPC   H5Y 9736   4.328   2.808   4.867  0.6887 -2.3414 -0.2667
   98SAPC   C36 9737   4.156   2.716   4.982  0.1066  0.6326  0.1082
   98SAPC   H6X 9738   4.170   2.606   4.985  0.2430  0.6686  1.1335
   98SAPC   H6Y 9739   4.047   2.719   4.963  0.4757  1.1839 -2.2650
   98SAPC   C37 9740   4.189   2.792   5.112  0.5018 -0.5924  0.2220
   98SAPC   H7X 9741   4.115   2.763   5.190 -0.7153 -1.1146 -1.0852
   98SAPC   H7Y 9742   4.179   2.900   5.088  1.2026 -0.3924  0.7930
   98SAPC   C38 9743   4.325   2.781   5.177  0.4172  0.0580 -0.1935
   98SAPC   H8X 9744   4.404   2.831   5.117  1.9420 -1.0786  0.7946
   98SAPC   H8Y 9745   4.346   2.673   5.192  0.5086 -0.0386 -0.9975
   98SAPC   C39 9746   4.326   2.827   5.328  0.1248  0.2191 -0.7040
   98SAPC   H9X 9747   4.260   2.760   5.387  0.3591  0.5046 -0.1121
   98SAPC   H9Y 9748   4.283   2.929   5.334 -1.3523 -0.3014 -1.7944
   98SAPC  C310 9749   4.468   2.819   5.380 -0.3722  0.6299 -0.2305
   98SAPC  H10X 9750   4.531   2.884   5.315  1.2283 -3.2512 -3.0166
   98SAPC  H10Y 9751   4.511   2.717   5.374  0.5335  1.0553 -1.4893
   98SAPC  C311 9752   4.473   2.861   5.531 -0.6046  0.1630  0.2641
   98SAPC  H11X 9753   4.416   2.789   5.593 -0.2228 -0.1073  0.2966
   98SAPC  H11Y 9754   4.429   2.963   5.527  1.6636  1.2402  1.0076
   98SAPC  C312 9755   4.613   2.875   5.582 -0.0666  0.2461  0.1637
   98SAPC  H12X 9756   4.687   2.917   5.510  0.8638  0.4584  1.2211
   98SAPC  H12Y 9757   4.642   2.772   5.610 -1.1500 -0.5868 -1.5905
   98SAPC  C313 9758   4.639   2.960   5.706  0.0316  0.7234 -0.0400
   98SAPC  H13X 9759   4.596   3.061   5.693  2.0086  1.3656 -2.5751
   98SAPC  H13Y 9760   4.750   2.964   5.718  0.0185 -1.5232  1.4908
   98SAPC  C314 9761   4.573   2.902   5.836  0.6239 -0.2789 -0.1350
   98SAPC  H14X 9762   4.615   2.799   5.841 -1.6585 -1.3708 -1.7798
   98SAPC  H14Y 9763   4.464   2.896   5.818  0.7876  0.1892 -1.3952
   98SAPC  C315 9764   4.592   2.988   5.966  0.6461 -0.0863 -0.0956
   98SAPC  H15X 9765   4.548   3.089   5.957 -1.2209 -0.7926  0.7268
   98SAPC  H15Y 9766   4.702   2.995   5.986  0.8011  1.7179 -1.3981
   98SAPC  C316 9767   4.516   2.925   6.081  0.6414 -0.7250 -0.5161
   98SAPC  H16X 9768   4.558   2.824   6.095  0.2894 -0.9600 -1.1371
   98SAPC  H16Y 9769   4.409   2.917   6.052  0.5583 -0.7285 -0.2191
   98SAPC  C317 9770   4.533   3.021   6.204  0.1694  0.0379  0.2347
   98SAPC  H17X 9771   4.482   3.119   6.191  3.0870  1.6190 -0.1696
   98SAPC  H17Y 9772   4.640   3.040   6.225 -0.1227 -0.1194  2.0594
   98SAPC  C318 9773   4.472   2.968   6.335  0.1504  0.2714  0.7931
   98SAPC  H18X 9774   4.450   3.049   6.408  1.2333  0.6095  0.7626
   98SAPC  H18Y 9775   4.533   2.887   6.382 -0.4379 -0.4690  0.2978
   98SAPC  H18Z 9776   4.373   2.920   6.322 -0.4451  1.6125  0.1778
   99SAPC     N 9777   3.966   6.306   4.499  0.6391 -0.0868  0.0023
   99SAPC   C12 9778   3.936   6.370   4.358  0.2608 -0.1039  0.0582
   99SAPC  H12A 9779   3.895   6.295   4.291  1.4378 -1.8353  1.1733
   99SAPC  H12B 9780   4.032   6.403   4.319 -0.6895  3.7766  0.6144
   99SAPC   C13 9781   4.034   6.403   4.592 -0.1792 -0.2427 -0.2859
   99SAPC  H13A 9782   4.141   6.393   4.592 -0.2600 -1.2852  0.0925
   99SAPC  H13B 9783   4.005   6.504   4.571 -1.1855 -0.8754 -2.1453
   99SAPC  H13C 9784   3.995   6.374   4.689  0.6441 -1.2969 -0.2466
   99SAPC   C14 9785   3.837   6.281   4.562  0.4867  0.3061  0.5522
   99SAPC  H14A 9786   3.777   6.217   4.500 -1.0668  2.6431 -0.5131
   99SAPC  H14B 9787   3.851   6.228   4.655  1.3439 -0.0158  0.2530
   99SAPC  H14C 9788   3.780   6.372   4.573  0.0646  0.1325 -0.1598
   99SAPC   C15 9789   4.052   6.180   4.486  0.9161 -0.0056  0.2382
   99SAPC  H15A 9790   4.147   6.195   4.437  2.3614 -2.3539  2.1278
   99SAPC  H15B 9791   4.058   6.130   4.582  0.4078  0.6707  0.6319
   99SAPC  H15C 9792   4.000   6.115   4.417  2.1648  0.9169 -1.6297
   99SAPC   C11 9793   3.855   6.500   4.352  0.3122  0.1620 -0.3675
   99SAPC  H11A 9794   3.754   6.470   4.388  1.7959 -3.0814  1.4585
   99SAPC  H11B 9795   3.836   6.526   4.246  2.9815  0.6639 -0.7929
   99SAPC     P 9796   3.833   6.704   4.502  0.5575 -0.1937 -0.3460
   99SAPC   O13 9797   3.930   6.775   4.593 -0.0735  0.3866 -0.5079
   99SAPC   O14 9798   3.752   6.790   4.424 -0.0581 -0.1527  0.3323
   99SAPC   O12 9799   3.921   6.613   4.411 -0.5938  0.1748  0.5124
   99SAPC   O11 9800   3.750   6.599   4.582  0.3064  0.4939  0.1916
   99SAPC    C1 9801   3.624   6.630   4.649 -0.3450 -0.0595  0.5375
   99SAPC    HA 9802   3.574   6.722   4.614 -1.3104 -0.9612 -0.5354
   99SAPC    HB 9803   3.561   6.539   4.635  2.4702 -1.9222 -0.8252
   99SAPC    C2 9804   3.648   6.643   4.801  0.6656 -0.3973 -0.1538
   99SAPC    HS 9805   3.553   6.684   4.843  0.1217 -1.3338 -0.4385
   99SAPC   O21 9806   3.752   6.726   4.836 -0.3693 -0.5000  0.1420
   99SAPC   C21 9807   3.715   6.859   4.838  0.4495 -0.0994  0.0014
   99SAPC   O22 9808   3.607   6.896   4.799  0.3785  0.3551 -0.0670
   99SAPC   C22 9809   3.833   6.942   4.877 -0.0282 -0.6150 -0.4570
   99SAPC   H2R 9810   3.879   6.884   4.959  0.6188 -1.6412 -1.5184
   99SAPC   H2S 9811   3.920   6.960   4.811 -0.0189  2.4104  0.2507
   99SAPC    C3 9812   3.658   6.503   4.866 -0.6298 -0.4444 -0.4742
   99SAPC    HX 9813   3.761   6.463   4.851 -0.4527 -1.1970  2.1743
   99SAPC    HY 9814   3.587   6.428   4.826 -2.5253  0.9927  0.0700
   99SAPC   O31 9815   3.646   6.518   5.006 -0.8669  0.4088  0.5902
   99SAPC   C31 9816   3.652   6.401   5.074  0.6018 -0.1732  0.5531
   99SAPC   O32 9817   3.663   6.291   5.028  0.5681  0.7730 -0.9057
   99SAPC   C32 9818   3.645   6.431   5.228 -0.7909  0.2068  0.6481
   99SAPC   H2X 9819   3.548   6.389   5.262 -0.6895 -1.1720 -0.6823
   99SAPC   H2Y 9820   3.642   6.542   5.242 -2.5414 -0.0666  2.8772
   99SAPC   C23 9821   3.794   7.074   4.948 -0.0800 -1.1239  0.0090
   99SAPC   H3R 9822   3.727   7.130   4.878  0.9646  1.6631  1.1020
   99SAPC   H3S 9823   3.882   7.141   4.956 -1.8278  1.1591  1.3342
   99SAPC   C24 9824   3.729   7.052   5.086 -0.0623  0.3520  0.0982
   99SAPC   H4R 9825   3.635   6.994   5.072 -1.9606  3.3234 -0.3486
   99SAPC   H4S 9826   3.691   7.154   5.107 -1.2527  0.1789 -1.0598
   99SAPC   C25 9827   3.817   7.002   5.200  0.0555 -0.1418 -0.1865
   99SAPC   H5R 9828   3.921   7.027   5.173  0.1383 -1.2010 -0.8916
   99SAPC   C26 9829   3.784   6.915   5.302  0.0763  0.4549  0.7655
   99SAPC   H6R 9830   3.855   6.884   5.380 -0.7562 -3.9657  0.0216
   99SAPC   C27 9831   3.651   6.868   5.342  0.2226  0.2635 -0.6029
   99SAPC   H7R 9832   3.655   6.764   5.379 -4.6052 -0.4267 -1.4070
   99SAPC   H7S 9833   3.597   6.846   5.247  1.4244 -0.4806 -1.1373
   99SAPC   C28 9834   3.583   6.972   5.420  1.3861 -0.7528  0.3463
   99SAPC   H8R 9835   3.520   7.040   5.361 -0.1706 -1.9247  0.5873
   99SAPC   C29 9836   3.565   6.973   5.549  0.0503  0.1785 -0.9695
   99SAPC   H9R 9837   3.513   7.056   5.598 -0.4277  0.0718 -1.2821
   99SAPC  C210 9838   3.609   6.870   5.646  0.0378 -0.4439 -0.0296
   99SAPC  H10R 9839   3.673   6.793   5.596 -1.1038 -1.0136 -0.6475
   99SAPC  H10S 9840   3.530   6.810   5.697  0.7623 -0.3457  1.2495
   99SAPC  C211 9841   3.699   6.934   5.753 -0.9189 -0.7955 -0.1020
   99SAPC  H11R 9842   3.802   6.949   5.718 -1.7840 -1.4374 -3.1778
   99SAPC  C212 9843   3.665   6.963   5.883 -0.2346 -0.1823 -0.8508
   99SAPC  H12R 9844   3.738   7.004   5.954 -1.0497 -2.0440  1.1893
   99SAPC  C213 9845   3.525   6.953   5.938 -0.0075 -0.1044 -0.1115
   99SAPC  H13R 9846   3.516   6.851   5.982 -1.8348  0.1472  0.1780
   99SAPC  H13S 9847   3.449   6.946   5.857 -0.0052 -1.9791  0.0061
   99SAPC  C214 9848   3.476   7.067   6.017  0.1127 -0.4466 -1.0681
   99SAPC  H14R 9849   3.461   7.157   5.957 -1.7685 -0.4153 -0.6129
   99SAPC  C215 9850   3.443   7.068   6.154  0.3157  0.2001  0.4048
   99SAPC  H15R 9851   3.408   7.160   6.202 -0.9068  0.8097 -1.5527
   99SAPC  C216 9852   3.432   6.953   6.244 -0.4933  0.2263  0.0806
   99SAPC  H16R 9853   3.449   6.862   6.183 -1.3696  0.6640 -0.8397
   99SAPC  H16S 9854   3.326   6.934   6.272 -0.6081  1.6788  0.7531
   99SAPC  C217 9855   3.518   6.948   6.372  0.1341 -0.2800 -0.1697
   99SAPC  H17R 9856   3.502   7.047   6.421  0.6404  0.3727 -1.2800
   99SAPC  H17S 9857   3.620   6.950   6.328 -0.6553  1.0223 -2.0871
   99SAPC  C218 9858   3.494   6.822   6.461  0.2397  0.2903  0.6944
   99SAPC  H18R 9859   3.511   6.731   6.398  2.8081  0.4711  1.0168
   99SAPC  H18S 9860   3.389   6.825   6.498  0.5091  0.9711  1.4241
   99SAPC  C219 9861   3.595   6.824   6.575 -0.5663  0.0499 -0.1442
   99SAPC  H19R 9862   3.615   6.930   6.600  3.2019 -0.2728 -1.1879
   99SAPC  H19S 9863   3.694   6.781   6.546  0.9547  0.5050  3.8334
   99SAPC  C220 9864   3.544   6.745   6.699 -0.4450 -0.5547 -0.3812
   99SAPC  H20R 9865   3.598   6.757   6.796  0.0083 -3.6963 -0.1231
   99SAPC  H20S 9866   3.561   6.635   6.695  0.5785 -0.4463  0.3006
   99SAPC  H20T 9867   3.437   6.767   6.719  0.1176  0.6439  1.5741
   99SAPC   C33 9868   3.754   6.365   5.313 -0.4660 -0.4568  0.3772
   99SAPC   H3X 9869   3.815   6.447   5.357  0.1119 -0.0843 -1.0855
   99SAPC   H3Y 9870   3.837   6.329   5.248 -1.6468  1.7259 -2.5504
   99SAPC   C34 9871   3.698   6.267   5.414 -0.0293 -0.1629  0.1808
   99SAPC   H4X 9872   3.637   6.192   5.360  2.2771 -1.9710 -0.0442
   99SAPC   H4Y 9873   3.644   6.308   5.502  2.3791  1.7208  0.8820
   99SAPC   C35 9874   3.813   6.200   5.486 -0.1790  0.8654 -0.0269
   99SAPC   H5X 9875   3.873   6.277   5.539  0.8668  0.2234 -0.2501
   99SAPC   H5Y 9876   3.870   6.143   5.409  0.3854 -0.5769  1.4169
   99SAPC   C36 9877   3.774   6.098   5.589 -0.0738 -0.4471  0.4024
   99SAPC   H6X 9878   3.865   6.041   5.617  1.3225  1.2004 -0.5867
   99SAPC   H6Y 9879   3.704   6.029   5.537 -0.2815  1.9655 -2.8460
   99SAPC   C37 9880   3.714   6.152   5.719 -0.1407  0.4764 -0.7848
   99SAPC   H7X 9881   3.617   6.198   5.691 -0.0932  0.5377 -0.8462
   99SAPC   H7Y 9882   3.784   6.229   5.756 -0.0028 -0.1390  0.2779
   99SAPC   C38 9883   3.699   6.047   5.843 -0.1640  0.1821 -0.9094
   99SAPC   H8X 9884   3.801   6.019   5.878  0.1488 -0.1541 -2.0426
   99SAPC   H8Y 9885   3.641   5.960   5.805 -1.5631  1.3043 -1.4162
   99SAPC   C39 9886   3.606   6.103   5.955  0.1865 -0.2873 -0.0036
   99SAPC   H9X 9887   3.504   6.125   5.918 -0.5500 -0.0985  1.9904
   99SAPC   H9Y 9888   3.646   6.203   5.982 -0.4543  0.2046 -0.8297
   99SAPC  C310 9889   3.606   6.017   6.080  0.0551 -0.3183 -0.1828
   99SAPC  H10X 9890   3.703   6.027   6.133 -0.7058 -0.7227  1.3507
   99SAPC  H10Y 9891   3.607   5.913   6.042 -1.6869  0.3329 -2.2372
   99SAPC  C311 9892   3.493   6.053   6.179 -0.5265  0.9015  0.2025
   99SAPC  H11X 9893   3.493   5.968   6.251  1.3596 -0.6240 -1.4642
   99SAPC  H11Y 9894   3.395   6.071   6.130 -0.1365 -0.0985 -1.0208
   99SAPC  C312 9895   3.528   6.177   6.263  0.7564  0.0990 -0.0018
   99SAPC  H12X 9896   3.557   6.258   6.192 -1.4113 -0.9008 -2.1267
   99SAPC  H12Y 9897   3.617   6.149   6.323  0.0382 -1.9904  0.1628
   99SAPC  C313 9898   3.405   6.226   6.345  0.2551  0.1158 -0.4392
   99SAPC  H13X 9899   3.347   6.140   6.386  0.3744 -0.7230 -1.9351
   99SAPC  H13Y 9900   3.334   6.285   6.284  0.4119  0.5346 -0.2180
   99SAPC  C314 9901   3.458   6.331   6.452 -0.1127  0.1703  0.3693
   99SAPC  H14X 9902   3.492   6.423   6.400  0.0777 -0.5910 -0.9238
   99SAPC  H14Y 9903   3.547   6.277   6.492 -1.1292 -0.2107  2.2011
   99SAPC  C315 9904   3.359   6.374   6.561  0.1427  0.3201  0.4915
   99SAPC  H15X 9905   3.413   6.400   6.655  1.1249 -0.1150  0.0599
   99SAPC  H15Y 9906   3.309   6.281   6.597 -0.7102  0.4229 -0.3767
   99SAPC  C316 9907   3.255   6.481   6.516 -0.3054 -0.5752  0.1871
   99SAPC  H16X 9908   3.205   6.442   6.425 -1.1084  0.9662 -0.0686
   99SAPC  H16Y 9909   3.311   6.573   6.489  1.2332 -1.7131 -0.6521
   99SAPC  C317 9910   3.155   6.484   6.632 -0.0734 -0.2108 -0.1130
   99SAPC  H17X 9911   3.199   6.531   6.723  1.2539 -1.5380 -0.0381
   99SAPC  H17Y 9912   3.108   6.385   6.653 -1.4226 -0.2683 -2.9343
   99SAPC  C318 9913   3.032   6.568   6.586  1.0644  0.1363  0.2700
   99SAPC  H18X 9914   3.053   6.676   6.569 -0.2272  0.0825 -2.1133
   99SAPC  H18Y 9915   2.946   6.546   6.654  0.6865 -4.4498 -1.3972
   99SAPC  H18Z 9916   2.997   6.538   6.485  1.1705 -1.6980  0.7447
  100SAPC     N 9917   1.698   6.647   4.400  0.1181 -0.0907 -0.2048
  100SAPC   C12 9918   1.634   6.783   4.425 -1.0216 -0.4084 -0.4652
  100SAPC  H12A 9919   1.713   6.847   4.461  0.8935 -2.6311 -0.4671
  100SAPC  H12B 9920   1.549   6.776   4.491 -1.0930 -1.3188 -0.6308
  100SAPC   C13 9921   1.783   6.615   4.521 -0.9803  0.1127  0.1802
  100SAPC  H13A 9922   1.730   6.629   4.614 -0.9645  0.3829  0.1501
  100SAPC  H13B 9923   1.813   6.511   4.523 -0.7185  0.0265 -2.7448
  100SAPC  H13C 9924   1.866   6.684   4.521 -1.1277  0.3224 -1.0150
  100SAPC   C14 9925   1.595   6.543   4.404  0.0098  0.3307 -0.2782
  100SAPC  H14A 9926   1.521   6.550   4.326  0.2562 -1.2773 -0.6802
  100SAPC  H14B 9927   1.641   6.446   4.413  0.7446  0.8118  1.7728
  100SAPC  H14C 9928   1.538   6.553   4.495  0.5744  0.4624  0.0688
  100SAPC   C15 9929   1.778   6.644   4.276 -1.1437 -0.0464 -0.3623
  100SAPC  H15A 9930   1.833   6.552   4.265 -1.8887 -0.5413  0.0009
  100SAPC  H15B 9931   1.720   6.651   4.185 -0.3159 -2.0170 -1.0758
  100SAPC  H15C 9932   1.848   6.727   4.282 -2.2472  0.8944 -0.0847
  100SAPC   C11 9933   1.584   6.866   4.305  0.0171  0.7385 -0.8124
  100SAPC  H11A 9934   1.671   6.881   4.237 -0.0430  1.5699 -0.7053
  100SAPC  H11B 9935   1.552   6.966   4.340 -0.3914  0.3992 -0.2045
  100SAPC     P 9936   1.339   6.766   4.281 -0.3200 -0.1056  0.4771
  100SAPC   O13 9937   1.253   6.848   4.194  0.8827  0.0164 -0.0012
  100SAPC   O14 9938   1.317   6.620   4.282 -0.3845 -0.2122  0.2138
  100SAPC   O12 9939   1.487   6.788   4.230  0.1629 -0.1017 -0.2011
  100SAPC   O11 9940   1.345   6.833   4.425 -0.0281  0.1167  0.4331
  100SAPC    C1 9941   1.216   6.850   4.496 -0.1410  0.1913  0.4280
  100SAPC    HA 9942   1.177   6.954   4.488 -0.7824 -0.0372  0.5345
  100SAPC    HB 9943   1.132   6.790   4.457  0.4028 -0.8338  0.7904
  100SAPC    C2 9944   1.228   6.807   4.644  0.1880 -0.0550 -0.7014
  100SAPC    HS 9945   1.319   6.851   4.690  0.4274 -0.7865 -0.4739
  100SAPC   O21 9946   1.223   6.663   4.652 -0.0946  0.0508 -0.2103
  100SAPC   C21 9947   1.344   6.601   4.635  0.3027 -0.6762 -1.0668
  100SAPC   O22 9948   1.457   6.653   4.643  0.4813  0.8773 -0.0233
  100SAPC   C22 9949   1.318   6.448   4.601 -0.6244 -0.2702 -0.4519
  100SAPC   H2R 9950   1.210   6.439   4.577 -0.5178 -0.5150 -0.8457
  100SAPC   H2S 9951   1.384   6.419   4.517  1.7416  1.0408  0.8456
  100SAPC    C3 9952   1.112   6.866   4.721 -0.9489 -0.1359  0.6169
  100SAPC    HX 9953   1.017   6.855   4.664 -1.1338  0.7279  0.7392
  100SAPC    HY 9954   1.122   6.977   4.720  0.3723 -0.2383  1.2510
  100SAPC   O31 9955   1.116   6.820   4.855  0.2322 -0.3561  0.8706
  100SAPC   C31 9956   0.994   6.835   4.914  0.2292  0.0604  1.1619
  100SAPC   O32 9957   0.897   6.886   4.862  0.4029  0.0578  0.3231
  100SAPC   C32 9958   1.000   6.780   5.051  0.1415  0.6890  0.1476
  100SAPC   H2X 9959   1.068   6.842   5.113  1.0265  1.3511 -1.4221
  100SAPC   H2Y 9960   1.045   6.678   5.046  0.0435  0.6284  0.5086
  100SAPC   C23 9961   1.353   6.339   4.708 -0.1802  0.1922  0.0410
  100SAPC   H3R 9962   1.307   6.243   4.675 -0.1343 -0.5231  1.9326
  100SAPC   H3S 9963   1.318   6.374   4.808  0.5237 -2.0099  1.1119
  100SAPC   C24 9964   1.503   6.325   4.706  0.1183  0.2825 -0.0575
  100SAPC   H4R 9965   1.557   6.421   4.700 -1.4791  1.2012 -0.4918
  100SAPC   H4S 9966   1.532   6.272   4.613  3.9162 -1.4136  1.8610
  100SAPC   C25 9967   1.554   6.232   4.818  0.1592 -0.5235  0.5658
  100SAPC   H5R 9968   1.534   6.128   4.791  1.8977 -1.4060  2.4189
  100SAPC   C26 9969   1.602   6.262   4.942  0.5351  0.3673  0.2629
  100SAPC   H6R 9970   1.621   6.166   4.992 -0.3750 -0.3074 -0.6275
  100SAPC   C27 9971   1.618   6.392   5.009  0.2871 -1.0570  0.9270
  100SAPC   H7R 9972   1.534   6.452   4.969 -0.2330 -1.0491  1.9804
  100SAPC   H7S 9973   1.715   6.434   4.973 -0.6373 -1.0959 -1.8279
  100SAPC   C28 9974   1.618   6.387   5.157 -0.4753 -0.8878  0.1487
  100SAPC   H8R 9975   1.547   6.317   5.204 -1.6084 -1.4835 -2.2644
  100SAPC   C29 9976   1.691   6.467   5.236  0.1565 -0.1433  0.0654
  100SAPC   H9R 9977   1.684   6.457   5.346 -0.0182 -1.5587 -0.0560
  100SAPC  C210 9978   1.782   6.580   5.200  0.0002  0.5951  0.5257
  100SAPC  H10R 9979   1.760   6.670   5.262 -2.6831  1.8900 -2.0551
  100SAPC  H10S 9980   1.758   6.622   5.100 -0.5504  2.6254  1.4625
  100SAPC  C211 9981   1.934   6.560   5.206 -0.0572  1.0734 -0.1861
  100SAPC  H11R 9982   1.985   6.528   5.113  1.5151 -1.5730  1.4268
  100SAPC  C212 9983   2.021   6.578   5.309 -0.8697 -0.0673 -1.0583
  100SAPC  H12R 9984   2.126   6.547   5.299 -0.6830 -0.5982  1.8481
  100SAPC  C213 9985   1.975   6.623   5.451 -0.0035  0.0750  0.2771
  100SAPC  H13R 9986   1.868   6.646   5.431  0.1143 -0.9362 -1.7957
  100SAPC  H13S 9987   2.026   6.715   5.487  2.0295 -1.0946  0.5426
  100SAPC  C214 9988   1.988   6.516   5.560  0.1721 -0.2404  0.1256
  100SAPC  H14R 9989   2.006   6.413   5.526 -1.1962 -1.2810  2.3327
  100SAPC  C215 9990   1.971   6.536   5.693 -0.3251 -0.1117 -0.5887
  100SAPC  H15R 9991   1.982   6.454   5.766  1.5432  0.8871  0.3266
  100SAPC  C216 9992   1.958   6.671   5.756  0.5452  0.5590  0.0840
  100SAPC  H16R 9993   1.851   6.701   5.761  0.1305 -0.9689  0.8731
  100SAPC  H16S 9994   2.022   6.745   5.702  2.1330 -2.3790 -2.3853
  100SAPC  C217 9995   2.012   6.680   5.896 -1.1613  0.0429 -0.5117
  100SAPC  H17R 9996   1.960   6.601   5.956  3.8127 -0.7978  3.4010
  100SAPC  H17S 9997   1.983   6.776   5.943 -0.7370 -0.5836  1.1226
  100SAPC  C218 9998   2.162   6.664   5.905  0.0050  0.2477 -1.0298
  100SAPC  H18R 9999   2.206   6.579   5.849  1.9068  1.1359 -0.9869
  100SAPC  H18S10000   2.184   6.658   6.014  1.6092 -0.2490 -1.3517
  100SAPC  C21910001   2.245   6.786   5.864 -0.0099  0.4126  0.4270
  100SAPC  H19R10002   2.208   6.885   5.901  1.0064  1.6982 -1.8006
  100SAPC  H19S10003   2.231   6.806   5.756 -1.0667 -0.4206  0.3946
  100SAPC  C22010004   2.391   6.784   5.901 -0.2569  0.3477 -0.2255
  100SAPC  H20R10005   2.411   6.782   6.010  1.1090 -0.2955 -0.4716
  100SAPC  H20S10006   2.445   6.867   5.851  2.3056 -1.4657 -0.6403
  100SAPC  H20T10007   2.441   6.692   5.864 -0.4827 -1.0828  2.7310
  100SAPC   C3310008   0.860   6.765   5.118 -0.5596 -1.1699  0.5616
  100SAPC   H3X10009   0.788   6.720   5.047  1.3781 -0.1488 -2.2489
  100SAPC   H3Y10010   0.826   6.868   5.140  0.5560 -1.0639  1.9018
  100SAPC   C3410011   0.863   6.685   5.245  0.4432 -0.2022  0.3550
  100SAPC   H4X10012   0.866   6.578   5.217 -1.3222 -0.8885  2.5525
  100SAPC   H4Y10013   0.761   6.686   5.290  0.3439 -1.5590  0.2034
  100SAPC   C3510014   0.972   6.733   5.347  0.6749  0.3899  0.5681
  100SAPC   H5X10015   0.975   6.843   5.364  1.6523  0.7119 -1.4504
  100SAPC   H5Y10016   1.067   6.713   5.294 -0.1783 -1.2492 -0.4148
  100SAPC   C3610017   0.963   6.655   5.476  0.8571 -0.4185 -0.0041
  100SAPC   H6X10018   0.985   6.547   5.462  0.2720 -0.9413  2.5769
  100SAPC   H6Y10019   0.859   6.666   5.512  0.6433  1.8930 -1.1360
  100SAPC   C3710020   1.062   6.705   5.585  0.1461 -0.3922  0.2401
  100SAPC   H7X10021   1.045   6.812   5.612  0.9800 -0.1707 -0.0844
  100SAPC   H7Y10022   1.164   6.696   5.542  0.0689  1.7993 -0.5543
  100SAPC   C3810023   1.039   6.620   5.705 -0.0366 -0.8337  0.1380
  100SAPC   H8X10024   1.049   6.518   5.662  1.2996 -0.6603  0.0178
  100SAPC   H8Y10025   0.938   6.632   5.750 -0.0794  0.3573 -0.2370
  100SAPC   C3910026   1.151   6.632   5.809  0.2896 -0.1082  0.0569
  100SAPC   H9X10027   1.164   6.737   5.840  0.2179  0.3391 -1.3458
  100SAPC   H9Y10028   1.246   6.602   5.760 -0.0876  1.6836 -1.9199
  100SAPC  C31010029   1.124   6.542   5.935  0.1734 -0.7596 -0.4223
  100SAPC  H10X10030   1.225   6.521   5.976  0.8843  0.9090 -1.2564
  100SAPC  H10Y10031   1.092   6.444   5.892 -0.3001 -1.5386  1.5987
  100SAPC  C31110032   1.017   6.597   6.037 -0.6021 -1.2904  0.1115
  100SAPC  H11X10033   0.929   6.606   5.969 -0.2320 -3.6612 -0.7763
  100SAPC  H11Y10034   1.045   6.703   6.058  2.2083 -1.8458 -0.4620
  100SAPC  C31210035   1.001   6.496   6.149  0.3004  0.7335 -0.1445
  100SAPC  H12X10036   1.103   6.485   6.193  0.4916  0.8547 -0.5547
  100SAPC  H12Y10037   0.982   6.401   6.094 -1.6362  1.0716 -0.1255
  100SAPC  C31310038   0.906   6.541   6.256  0.6727  0.0942 -0.4497
  100SAPC  H13X10039   0.801   6.532   6.223  0.9203  0.0284 -1.2606
  100SAPC  H13Y10040   0.946   6.642   6.281 -0.3554  0.1702  0.9937
  100SAPC  C31410041   0.907   6.461   6.396 -1.0744 -0.7203  0.1653
  100SAPC  H14X10042   1.005   6.471   6.447  0.1862  0.1342 -2.2445
  100SAPC  H14Y10043   0.883   6.357   6.367  0.0370 -0.4655 -1.8550
  100SAPC  C31510044   0.798   6.505   6.501  0.5207  0.3653 -0.2377
  100SAPC  H15X10045   0.804   6.445   6.594  0.9077 -0.7586 -0.9484
  100SAPC  H15Y10046   0.697   6.483   6.459  0.4451  1.6462 -0.7564
  100SAPC  C31610047   0.794   6.657   6.518 -0.2044 -0.1431 -0.4648
  100SAPC  H16X10048   0.785   6.709   6.420 -2.9524  0.6225  0.1324
  100SAPC  H16Y10049   0.892   6.681   6.564 -0.7457  0.3446  0.4344
  100SAPC  C31710050   0.694   6.725   6.618 -0.0372 -0.3399  0.2302
  100SAPC  H17X10051   0.706   6.836   6.612 -0.9879  0.1207  3.9958
  100SAPC  H17Y10052   0.723   6.705   6.724  1.5875  2.4394  0.4336
  100SAPC  C31810053   0.552   6.676   6.601 -0.2157  0.2041  0.0792
  100SAPC  H18X10054   0.545   6.565   6.603 -3.0972  0.2518 -1.8316
  100SAPC  H18Y10055   0.505   6.725   6.513  0.2536  1.7304  0.6373
  100SAPC  H18Z10056   0.491   6.710   6.687  1.6890 -1.5146  2.2656
  101OSM      N10057   2.484   3.340   0.320  0.3574  0.4663 -0.2621
  101OSM    C1510058   2.378   3.269   0.395  0.7010 -0.1789  0.1592
  101OSM   H15A10059   2.397   3.162   0.395  0.1152 -0.3351 -1.9611
  101OSM   H15B10060   2.295   3.275   0.326  1.6192  0.6732 -0.9011
  101OSM   H15C10061   2.361   3.299   0.497 -0.4198 -1.5219  0.3996
  101OSM    C1410062   2.449   3.484   0.307 -0.3211 -0.2087 -0.0156
  101OSM   H14A10063   2.462   3.529   0.404  0.0205 -0.6459  0.1458
  101OSM   H14B10064   2.344   3.497   0.284  0.6068  1.3350 -4.4971
  101OSM   H14C10065   2.502   3.540   0.231  1.1846 -0.5245  0.7721
  101OSM    C1310066   2.614   3.336   0.397  0.0344  0.7646 -0.5474
  101OSM   H13A10067   2.632   3.233   0.424 -1.2332  0.6208 -0.2097
  101OSM   H13B10068   2.606   3.390   0.490  1.1489  2.4740 -1.4120
  101OSM   H13C10069   2.692   3.376   0.334  1.2844 -1.0000 -0.2340
  101OSM    C1210070   2.496   3.280   0.178 -0.3863  0.3958 -0.5333
  101OSM   H12A10071   2.558   3.192   0.184  0.3715  0.9967  1.9015
  101OSM   H12B10072   2.566   3.352   0.138  1.5741 -0.6773  0.7788
  101OSM    C1110073   2.370   3.262   0.086 -0.2492 -0.0094  0.0042
  101OSM   H11A10074   2.416   3.255  -0.015  0.6797  1.5998  0.2853
  101OSM   H11B10075   2.312   3.356   0.087  2.4248  1.8002 -1.6817
  101OSM      P10076   2.194   3.093   0.018 -0.1803  0.4336 -0.0718
  101OSM    O1310077   2.187   2.947   0.041 -0.6033 -0.6236  0.3980
  101OSM    O1410078   2.071   3.177   0.033  0.0892 -0.5305  0.5717
  101OSM    O1110079   2.265   3.120  -0.123 -0.1323 -0.2654 -0.4630
  101OSM    O1210080   2.298   3.145   0.120  0.2944 -0.4615 -0.2752
  101OSM    C1S10081   2.224   3.066  -0.245 -0.5997 -0.0417 -0.0225
  101OSM    H1S10082   2.119   3.096  -0.266 -0.6541  0.2984  0.7010
  101OSM    H1T10083   2.213   2.957  -0.226  0.8290 -0.2392 -0.2264
  101OSM     NF10084   2.249   3.065  -0.492  0.1465 -0.1033  0.3798
  101OSM    HNF10085   2.301   2.991  -0.534  1.2364 -0.3022  2.0162
  101OSM    C2S10086   2.315   3.100  -0.365 -0.6046  0.2822 -0.2791
  101OSM    H2S10087   2.327   3.210  -0.357  0.7481  0.0808  0.9343
  101OSM    C3S10088   2.459   3.042  -0.339 -0.0593  0.6981  0.1047
  101OSM    H3S10089   2.460   2.932  -0.355 -0.4226  0.4832  1.4350
  101OSM     O310090   2.504   3.059  -0.202 -0.3854 -0.2795 -0.1631
  101OSM    HO310091   2.427   3.087  -0.153 -1.2924  1.9457 -2.6332
  101OSM    C4S10092   2.548   3.088  -0.447  0.0458 -0.3516 -0.7753
  101OSM    H4S10093   2.580   3.020  -0.528  1.1882  0.0719 -0.6977
  101OSM    C5S10094   2.613   3.211  -0.449 -0.1538  1.0327 -0.4810
  101OSM    H5S10095   2.587   3.275  -0.363 -2.0927  0.6427 -0.7366
  101OSM    C6S10096   2.707   3.261  -0.555  0.1803 -0.2952  0.5746
  101OSM    H6S10097   2.788   3.187  -0.570 -0.1846 -0.4520 -0.7283
  101OSM    H6T10098   2.741   3.363  -0.526 -0.3297  0.0987 -0.1646
  101OSM    C7S10099   2.633   3.280  -0.689 -0.4219  0.0026 -0.0544
  101OSM    H7S10100   2.540   3.340  -0.686 -0.4598  0.0274 -1.1131
  101OSM    H7T10101   2.592   3.186  -0.731  0.9511 -0.4806 -0.3879
  101OSM    C8S10102   2.714   3.332  -0.810 -0.0482 -0.4772 -0.1116
  101OSM    H8S10103   2.811   3.278  -0.810  1.3248  1.8169  1.4592
  101OSM    H8T10104   2.755   3.434  -0.796  0.1705 -0.2085 -2.3899
  101OSM    C9S10105   2.626   3.330  -0.933  0.1061  0.7029 -0.3458
  101OSM    H9S10106   2.532   3.386  -0.914 -0.3925 -0.1283 -0.3251
  101OSM    H9T10107   2.586   3.227  -0.947  0.5883  0.1367  2.0313
  101OSM   C10S10108   2.701   3.367  -1.065  0.2273  0.0776  0.1878
  101OSM   H10S10109   2.783   3.293  -1.077 -0.8211 -0.7152 -3.6638
  101OSM   H10T10110   2.752   3.464  -1.047 -0.8063  0.7649 -0.4545
  101OSM   C11S10111   2.619   3.352  -1.194  0.1681  0.1655  0.1546
  101OSM   H11S10112   2.536   3.427  -1.200  0.6811  0.8128  0.9903
  101OSM   H11T10113   2.576   3.250  -1.188 -2.1281  1.1163  1.2945
  101OSM   C12S10114   2.704   3.376  -1.321  0.2887 -0.1950 -0.8244
  101OSM   H12S10115   2.807   3.336  -1.309 -0.2615 -1.0148  1.6606
  101OSM   H12T10116   2.702   3.484  -1.345  1.9147 -0.0994 -0.6264
  101OSM   C13S10117   2.656   3.293  -1.437  0.1321  0.4220 -0.0783
  101OSM   H13S10118   2.646   3.186  -1.407 -1.1811  0.8588  1.1344
  101OSM   H13T10119   2.724   3.309  -1.523  0.0124  0.9254 -0.0838
  101OSM   C14S10120   2.513   3.346  -1.488  0.3420  0.1259  0.1877
  101OSM   H14S10121   2.515   3.457  -1.483 -0.5552  0.1391  0.3207
  101OSM   H14T10122   2.434   3.313  -1.417 -0.1665  1.1026  0.0998
  101OSM   C15S10123   2.466   3.311  -1.630  0.4884  0.1497 -0.3707
  101OSM   H15S10124   2.475   3.202  -1.648  0.9773  0.1129  0.0748
  101OSM   H15T10125   2.540   3.366  -1.692  0.9815  1.1080  1.0076
  101OSM   C16S10126   2.317   3.342  -1.645 -0.0947 -0.9237 -0.5161
  101OSM   H16S10127   2.303   3.450  -1.620  1.0710 -0.4322 -1.7893
  101OSM   H16T10128   2.239   3.282  -1.595 -1.5919  0.1368 -1.4940
  101OSM   C17S10129   2.258   3.340  -1.791 -0.3412 -0.1885  0.5952
  101OSM   H17S10130   2.294   3.420  -1.859 -0.8189 -1.5269 -1.3376
  101OSM   H17T10131   2.149   3.365  -1.787  0.1368  1.9924  1.5693
  101OSM   C18S10132   2.280   3.205  -1.860 -0.1278  0.7970 -0.1174
  101OSM   H18S10133   2.254   3.230  -1.965 -0.1398 -0.8846 -0.5488
  101OSM   H18T10134   2.209   3.125  -1.829  0.4761  1.6752  4.1634
  101OSM   H18U10135   2.382   3.166  -1.843 -0.1955  0.1243 -1.1480
  101OSM    C1F10136   2.137   3.116  -0.539 -0.4970  0.6569  0.0589
  101OSM     OF10137   2.080   3.207  -0.480 -0.2306  0.3175 -0.1195
  101OSM    C2F10138   2.092   3.052  -0.671 -0.2263 -0.6596  0.4997
  101OSM    H2F10139   2.075   2.943  -0.655  0.5454 -0.9102 -0.2686
  101OSM    H2G10140   2.179   3.049  -0.740  0.3061 -4.4478  1.1285
  101OSM    C3F10141   1.968   3.117  -0.745  0.0541  0.1717  0.7604
  101OSM    H3F10142   1.984   3.219  -0.785 -1.3054 -0.5105 -1.7476
  101OSM    H3G10143   1.883   3.127  -0.674 -0.6056 -2.4407  0.4435
  101OSM    C4F10144   1.910   3.039  -0.865 -0.0329 -0.5044  0.4183
  101OSM    H4F10145   1.807   3.076  -0.881 -0.1634 -0.5113  1.1995
  101OSM    H4G10146   1.909   2.928  -0.858  0.9314 -0.5573 -0.1108
  101OSM    C5F10147   1.991   3.066  -0.990  0.0029 -0.0147  0.0709
  101OSM    H5F10148   2.094   3.028  -0.974  0.2307  0.8812  0.7894
  101OSM    H5G10149   1.991   3.172  -1.020  0.5641  0.3721  1.3603
  101OSM    C6F10150   1.946   2.972  -1.105 -0.4799 -0.6110  0.0432
  101OSM    H6F10151   1.934   2.872  -1.058 -0.9482 -0.4258  0.3332
  101OSM    H6G10152   2.018   2.960  -1.189  0.5583 -0.5970  0.9054
  101OSM    C7F10153   1.814   3.019  -1.169  0.2485  0.4835 -0.0945
  101OSM    H7F10154   1.760   3.069  -1.086  2.9705  2.7236  0.4809
  101OSM    H7G10155   1.753   2.932  -1.202 -1.0186  1.5229 -0.5711
  101OSM    C8F10156   1.839   3.109  -1.293  0.2846 -0.1325  0.3714
  101OSM    H8F10157   1.916   3.054  -1.351  1.4718  0.4137  1.3877
  101OSM    H8G10158   1.880   3.209  -1.266 -0.9010  0.2953  0.6733
  101OSM    C9F10159   1.715   3.143  -1.374  0.7363  0.8288  0.1368
  101OSM    H9F10160   1.650   3.202  -1.307 -0.1316 -0.2136  0.2416
  101OSM   C10F10161   1.676   3.087  -1.496  0.0853 -0.4737 -0.3650
  101OSM   H10F10162   1.576   3.104  -1.540 -0.3132 -0.3627  0.5775
  101OSM   C11F10163   1.763   2.996  -1.575 -0.7676 -0.3290  0.1487
  101OSM   H11F10164   1.709   2.914  -1.627 -1.5692 -0.2640  0.8465
  101OSM   H11G10165   1.837   2.944  -1.510  1.5866 -0.6260 -2.5945
  101OSM   C12F10166   1.853   3.076  -1.670  0.7091  0.6113 -0.5509
  101OSM   H12F10167   1.922   3.005  -1.720  1.8463  1.6933 -0.5874
  101OSM   H12G10168   1.911   3.146  -1.606 -0.6742  0.9693  0.3623
  101OSM   C13F10169   1.773   3.152  -1.783  0.2668  0.5969 -0.1627
  101OSM   H13F10170   1.693   3.218  -1.742  0.5300  0.4949  0.5387
  101OSM   H13G10171   1.719   3.075  -1.842 -2.2663  1.3836  0.9634
  101OSM   C14F10172   1.866   3.245  -1.863  0.4639  0.1928  0.2186
  101OSM   H14F10173   1.945   3.188  -1.916  1.4370  1.8776 -0.2015
  101OSM   H14G10174   1.917   3.310  -1.789  2.8820 -1.5008  0.1267
  101OSM   C15F10175   1.783   3.332  -1.960 -0.4982  0.4046  0.4834
  101OSM   H15F10176   1.694   3.373  -1.907 -1.0445 -0.4977  0.2917
  101OSM   H15G10177   1.739   3.266  -2.038 -1.3377 -0.1765  1.4184
  101OSM   C16F10178   1.854   3.452  -2.028 -0.5370  0.1768  0.0014
  101OSM   H16F10179   1.939   3.482  -1.963 -1.6290  2.2807  0.5451
  101OSM   H16G10180   1.795   3.547  -2.035  0.1012  0.5411 -0.5444
  101OSM   C17F10181   1.918   3.417  -2.168 -0.9264 -0.5856 -0.4103
  101OSM   H17F10182   1.835   3.404  -2.241 -2.3169 -0.7970  1.1318
  101OSM   H17G10183   1.975   3.322  -2.160  1.2913  0.5275 -1.8874
  101OSM   C18F10184   2.017   3.528  -2.211  0.4150  0.0810 -0.0234
  101OSM   H18F10185   1.966   3.625  -2.226  1.5856  0.8813  0.9311
  101OSM   H18G10186   2.078   3.492  -2.296  2.0598 -1.1316  1.5721
  101OSM   H18H10187   2.085   3.546  -2.124 -0.9901 -0.8912  1.3266
  102OSM      N10188   3.231   1.531   0.713 -0.3772 -0.3605  0.4075
  102OSM    C1510189   3.210   1.436   0.822  1.1068 -0.3685  0.1027
  102OSM   H15A10190   3.249   1.470   0.916 -0.2018 -0.5781  0.7340
  102OSM   H15B10191   3.259   1.342   0.801 -0.5137 -0.7578 -2.5010
  102OSM   H15C10192   3.104   1.415   0.826  0.8281  0.9129 -0.2510
  102OSM    C1410193   3.174   1.656   0.759 -0.3448  0.4448 -0.0504
  102OSM   H14A10194   3.237   1.691   0.840 -0.4255  0.5884 -0.0507
  102OSM   H14B10195   3.078   1.634   0.803  0.4664  0.2946  1.7257
  102OSM   H14C10196   3.171   1.737   0.689 -0.2698 -0.3942 -1.0458
  102OSM    C1310197   3.377   1.542   0.674  0.2532  0.3146 -0.1085
  102OSM   H13A10198   3.413   1.445   0.644  3.0462  0.6830  1.6603
  102OSM   H13B10199   3.442   1.585   0.750 -0.8615 -0.3807  1.2916
  102OSM   H13C10200   3.373   1.617   0.597 -1.6734  0.4062  0.0401
  102OSM    C1210201   3.156   1.484   0.586 -0.3567 -0.4376  0.7177
  102OSM   H12A10202   3.054   1.503   0.614 -0.2960 -1.8506  2.0418
  102OSM   H12B10203   3.174   1.377   0.582  2.5072 -0.0840  1.5445
  102OSM    C1110204   3.204   1.550   0.448 -0.5640  0.2068  0.1744
  102OSM   H11A10205   3.130   1.508   0.376 -2.5497  2.6127  0.6861
  102OSM   H11B10206   3.302   1.507   0.415 -1.2007 -0.3450 -1.0620
  102OSM      P10207   3.269   1.779   0.343  0.2795  0.7825  0.3781
  102OSM    O1310208   3.205   1.912   0.327 -0.0633  0.1191 -0.1085
  102OSM    O1410209   3.417   1.782   0.370  0.4840 -0.3603 -0.1302
  102OSM    O1110210   3.252   1.689   0.203  0.3488 -0.3537 -0.1317
  102OSM    O1210211   3.196   1.689   0.450 -0.1106 -0.3269 -0.0424
  102OSM    C1S10212   3.139   1.694   0.119 -0.4469 -0.0828  0.0986
  102OSM    H1S10213   3.116   1.798   0.086 -1.0726  0.0608  0.9608
  102OSM    H1T10214   3.047   1.655   0.167 -1.7987  3.1627  0.4141
  102OSM     NF10215   3.069   1.634  -0.113 -0.0877 -0.2500  0.2492
  102OSM    HNF10216   3.015   1.551  -0.128  3.8998 -3.3123  1.0164
  102OSM    C2S10217   3.172   1.615  -0.011 -0.0457 -0.6294 -0.1841
  102OSM    H2S10218   3.269   1.656  -0.048 -0.2819  1.4410  1.3077
  102OSM    C3S10219   3.195   1.467   0.022  0.3345  0.4948  0.2624
  102OSM    H3S10220   3.096   1.420   0.040 -0.2199  1.7193  0.5269
  102OSM     O310221   3.270   1.432   0.141 -0.0950  0.0081 -0.0347
  102OSM    HO310222   3.296   1.514   0.182  0.8993 -1.2618  2.0937
  102OSM    C4S10223   3.254   1.414  -0.103  0.1308  0.9516 -0.2366
  102OSM    H4S10224   3.361   1.440  -0.111  1.3358 -3.0522  0.5657
  102OSM    C5S10225   3.206   1.303  -0.175  0.2130 -1.0110 -0.8692
  102OSM    H5S10226   3.117   1.253  -0.136  0.1794 -0.0323  0.3796
  102OSM    C6S10227   3.274   1.238  -0.295  0.1402 -0.1493 -0.1413
  102OSM    H6S10228   3.240   1.292  -0.385  1.5007  1.3426  0.1927
  102OSM    H6T10229   3.226   1.138  -0.301  1.1274 -0.5918 -0.7802
  102OSM    C7S10230   3.432   1.231  -0.292 -0.1775 -0.0366  0.2108
  102OSM    H7S10231   3.461   1.178  -0.199  0.8178 -1.1463 -0.7014
  102OSM    H7T10232   3.466   1.337  -0.293  0.5814 -0.2046 -3.0796
  102OSM    C8S10233   3.491   1.156  -0.415  0.1598 -0.1248 -0.7398
  102OSM    H8S10234   3.474   1.218  -0.505 -1.1180  0.5845 -0.0402
  102OSM    H8T10235   3.428   1.065  -0.426 -0.9486  0.2258  1.9720
  102OSM    C9S10236   3.639   1.113  -0.396  0.5067 -0.3020 -0.1644
  102OSM    H9S10237   3.670   1.038  -0.471 -0.0943 -0.6036 -0.1183
  102OSM    H9T10238   3.658   1.067  -0.296 -0.8869 -0.6681 -0.0403
  102OSM   C10S10239   3.723   1.241  -0.399 -0.4467  0.5369  0.5945
  102OSM   H10S10240   3.825   1.214  -0.364 -0.5478  1.8988  2.0375
  102OSM   H10T10241   3.675   1.311  -0.328 -1.8637  0.1758  0.0325
  102OSM   C11S10242   3.744   1.299  -0.543  0.1755 -0.7037 -0.2527
  102OSM   H11S10243   3.802   1.392  -0.528  0.8173 -1.4946  2.8923
  102OSM   H11T10244   3.647   1.339  -0.580  0.3127 -0.4265 -0.3124
  102OSM   C12S10245   3.809   1.210  -0.647 -0.0427  0.4565  0.2154
  102OSM   H12S10246   3.743   1.122  -0.664 -3.1615  2.7414 -0.3729
  102OSM   H12T10247   3.909   1.185  -0.605  0.3259 -0.6300 -1.2133
  102OSM   C13S10248   3.822   1.285  -0.776  0.5111 -0.2249  0.5339
  102OSM   H13S10249   3.892   1.372  -0.779  0.7182 -0.3710  0.9597
  102OSM   H13T10250   3.720   1.318  -0.806  0.4538 -0.2105  0.7423
  102OSM   C14S10251   3.875   1.198  -0.890 -0.6921 -0.0481  0.0689
  102OSM   H14S10252   3.796   1.120  -0.898  0.1144 -0.7898 -0.8733
  102OSM   H14T10253   3.970   1.153  -0.855 -0.8716 -0.2081  0.3539
  102OSM   C15S10254   3.903   1.275  -1.014 -0.2908  1.0342  0.4347
  102OSM   H15S10255   3.988   1.342  -0.991  0.0610  0.3071  1.3064
  102OSM   H15T10256   3.830   1.355  -1.040  2.6187  3.4719 -0.7626
  102OSM   C16S10257   3.925   1.183  -1.132 -0.0171  0.5797 -0.0515
  102OSM   H16S10258   3.831   1.124  -1.137  0.2690 -0.0693  1.7288
  102OSM   H16T10259   4.003   1.110  -1.102  0.0253  0.2208 -0.9885
  102OSM   C17S10260   3.965   1.248  -1.267 -0.2229  0.4467 -0.3055
  102OSM   H17S10261   3.912   1.344  -1.280  0.9709  1.0853 -0.5842
  102OSM   H17T10262   3.953   1.169  -1.344  1.2417  0.8790 -1.0076
  102OSM   C18S10263   4.107   1.294  -1.260 -0.5105 -0.3492 -0.5957
  102OSM   H18S10264   4.127   1.358  -1.349 -0.1203  3.9830  2.3268
  102OSM   H18T10265   4.181   1.214  -1.238 -1.4881 -1.6770 -1.9404
  102OSM   H18U10266   4.117   1.364  -1.175 -0.0690 -1.2610  0.1257
  102OSM    C1F10267   3.039   1.753  -0.168 -0.0900  0.1769 -0.7079
  102OSM     OF10268   3.103   1.855  -0.148 -0.2100  0.3592  0.6193
  102OSM    C2F10269   2.919   1.754  -0.264  0.3923  0.3548  0.3714
  102OSM    H2F10270   2.837   1.709  -0.204 -0.0861  0.7245 -0.0012
  102OSM    H2G10271   2.940   1.698  -0.357  0.5023  0.7772  0.1411
  102OSM    C3F10272   2.877   1.889  -0.314 -0.0765 -0.9274  0.9374
  102OSM    H3F10273   2.965   1.923  -0.374 -0.6774 -1.7140 -0.4366
  102OSM    H3G10274   2.864   1.954  -0.225  2.2908 -0.3492  0.9273
  102OSM    C4F10275   2.752   1.890  -0.406 -0.1663 -0.4097  0.3408
  102OSM    H4F10276   2.756   1.993  -0.448 -0.1758 -0.6251 -0.2045
  102OSM    H4G10277   2.674   1.872  -0.329  0.6461  0.5272  1.4016
  102OSM    C5F10278   2.753   1.783  -0.520  0.8319 -0.2724 -0.3165
  102OSM    H5F10279   2.670   1.805  -0.591  1.6920 -1.1459 -1.6448
  102OSM    H5G10280   2.746   1.680  -0.478  2.5589 -0.5914 -0.7131
  102OSM    C6F10281   2.885   1.787  -0.607 -0.0719 -0.3975 -0.4962
  102OSM    H6F10282   2.978   1.772  -0.549  0.8137  2.0986 -1.1326
  102OSM    H6G10283   2.894   1.890  -0.647  1.2547 -0.7234 -1.1119
  102OSM    C7F10284   2.879   1.691  -0.736  0.3606 -0.7424 -0.1109
  102OSM    H7F10285   2.802   1.722  -0.809  0.6619  0.0982 -0.0783
  102OSM    H7G10286   2.838   1.595  -0.698 -2.2263 -0.6656 -2.4414
  102OSM    C8F10287   3.019   1.690  -0.805  0.1002  0.4712 -0.0738
  102OSM    H8F10288   3.109   1.677  -0.743 -1.0089  2.8261  2.1991
  102OSM    H8G10289   3.047   1.791  -0.844  1.4240  0.3193  0.4460
  102OSM    C9F10290   3.020   1.585  -0.915 -0.2846 -0.2731 -0.0051
  102OSM    H9F10291   2.971   1.488  -0.897 -1.3360  0.3085  0.3787
  102OSM   C10F10292   3.073   1.598  -1.033  0.0370 -0.4890  0.3537
  102OSM   H10F10293   3.043   1.519  -1.103 -0.0554 -0.8109  0.7581
  102OSM   C11F10294   3.151   1.710  -1.105  0.7479  0.3079 -0.0066
  102OSM   H11F10295   3.260   1.689  -1.100  0.9632  1.4780  0.6420
  102OSM   H11G10296   3.141   1.812  -1.062 -1.4488  0.1559 -0.0515
  102OSM   C12F10297   3.116   1.720  -1.253  0.7428 -0.0526  0.4180
  102OSM   H12F10298   3.016   1.770  -1.251 -0.2218 -1.9236  0.8497
  102OSM   H12G10299   3.090   1.622  -1.299  0.3208 -0.4275  1.4287
  102OSM   C13F10300   3.225   1.792  -1.328  0.5917 -0.1713  0.5021
  102OSM   H13F10301   3.317   1.729  -1.328 -0.6170 -2.0134 -0.0862
  102OSM   H13G10302   3.248   1.892  -1.285 -0.7747  0.1149  0.6134
  102OSM   C14F10303   3.195   1.811  -1.477 -0.0114 -0.1877 -0.5754
  102OSM   H14F10304   3.146   1.715  -1.506 -0.4453 -0.3249  0.5504
  102OSM   H14G10305   3.296   1.812  -1.523 -0.0481  0.5187 -0.6435
  102OSM   C15F10306   3.123   1.942  -1.508  0.4789 -0.0768  0.3198
  102OSM   H15F10307   3.169   2.032  -1.463 -0.6881  0.5199  0.3643
  102OSM   H15G10308   3.024   1.925  -1.460  1.1479 -2.9840  0.8613
  102OSM   C16F10309   3.103   1.950  -1.659 -0.5698  0.5380  0.4089
  102OSM   H16F10310   3.056   2.048  -1.680  1.7711  1.6967  0.2028
  102OSM   H16G10311   3.049   1.858  -1.690  0.7528 -0.5286  1.1503
  102OSM   C17F10312   3.228   1.965  -1.751  0.0665  0.2536  0.1931
  102OSM   H17F10313   3.296   1.878  -1.752  2.4008  1.9342 -2.6790
  102OSM   H17G10314   3.279   2.049  -1.699 -0.3764  0.3161  0.5359
  102OSM   C18F10315   3.200   1.985  -1.900  0.2162  0.1597  0.2310
  102OSM   H18F10316   3.146   2.082  -1.908 -2.2904 -1.2299 -1.1447
  102OSM   H18G10317   3.124   1.915  -1.943  0.4189  0.7616 -1.1825
  102OSM   H18H10318   3.290   1.984  -1.965 -0.6902  1.5024 -1.1193
  103OSM      N10319   2.614   3.977   8.731 -0.0255  0.1922  0.1371
  103OSM    C1510320   2.619   3.850   8.651  0.1738  0.2825 -0.0568
  103OSM   H15A10321   2.723   3.823   8.639 -0.4358 -2.0605 -0.4987
  103OSM   H15B10322   2.578   3.865   8.552  1.5294  1.2355 -0.5161
  103OSM   H15C10323   2.562   3.774   8.702 -1.5103  0.7190 -1.1884
  103OSM    C1410324   2.651   3.952   8.876  0.0885  0.3499 -0.2516
  103OSM   H14A10325   2.623   4.028   8.946 -0.5643 -0.6906  0.6592
  103OSM   H14B10326   2.756   3.929   8.886 -0.1774 -0.7209  0.2533
  103OSM   H14C10327   2.604   3.859   8.907  0.2591  0.8602  1.6035
  103OSM    C1310328   2.718   4.067   8.669 -0.3369 -0.3942 -0.0418
  103OSM   H13A10329   2.715   4.156   8.730  1.6018 -1.3561  1.5674
  103OSM   H13B10330   2.696   4.093   8.566 -1.1474  0.5908  0.3667
  103OSM   H13C10331   2.816   4.022   8.675 -0.1966 -0.4072 -1.8227
  103OSM    C1210332   2.473   4.037   8.726  0.7885 -0.6449  0.4172
  103OSM   H12A10333   2.465   4.100   8.639 -0.2615  1.2717  1.8358
  103OSM   H12B10334   2.465   4.109   8.807 -1.7451 -2.5598  2.0346
  103OSM    C1110335   2.351   3.934   8.725  0.6082  0.0164 -1.0138
  103OSM   H11A10336   2.358   3.884   8.626 -1.3138  1.2075 -1.8089
  103OSM   H11B10337   2.261   3.998   8.720  1.3337  1.5484  2.5100
  103OSM      P10338   2.336   3.699   8.843 -0.3143 -0.1910 -0.3023
  103OSM    O1310339   2.474   3.642   8.837 -0.2029  0.3220 -1.0760
  103OSM    O1410340   2.241   3.661   8.955  0.2101  1.0577 -0.0312
  103OSM    O1110341   2.268   3.684   8.700 -0.1964  0.7540 -0.6401
  103OSM    O1210342   2.355   3.851   8.847 -0.1842 -0.2213  0.2182
  103OSM    C1S10343   2.204   3.556   8.682 -0.0434  0.3967 -0.6277
  103OSM    H1S10344   2.111   3.536   8.740 -0.7886  3.5166 -0.5642
  103OSM    H1T10345   2.270   3.472   8.710 -0.5257 -0.6172 -2.4197
  103OSM     NF10346   2.042   3.459   8.519 -0.3820  0.1652  0.1270
  103OSM    HNF10347   2.044   3.367   8.479  1.1069  0.3410 -0.2479
  103OSM    C2S10348   2.161   3.536   8.539  1.0299 -0.1041  0.0860
  103OSM    H2S10349   2.120   3.633   8.504 -2.4690 -0.6205  2.3019
  103OSM    C3S10350   2.289   3.512   8.452  0.3770 -0.9594 -0.3225
  103OSM    H3S10351   2.330   3.414   8.485  1.2305 -0.0879  1.3507
  103OSM     O310352   2.397   3.597   8.483 -0.2140 -0.3180 -0.1944
  103OSM    HO310353   2.389   3.629   8.573  0.2637 -0.0379 -0.2465
  103OSM    C4S10354   2.263   3.517   8.306 -0.2773  0.8539 -0.1747
  103OSM    H4S10355   2.199   3.602   8.277 -2.1192 -0.4588 -0.1677
  103OSM    C5S10356   2.288   3.424   8.213 -0.3958 -0.0993 -0.0536
  103OSM    H5S10357   2.344   3.334   8.245  2.9402  2.1245  0.8981
  103OSM    C6S10358   2.245   3.435   8.071 -0.0425 -0.2443 -0.2417
  103OSM    H6S10359   2.208   3.333   8.046  0.5793 -0.6063  0.2861
  103OSM    H6T10360   2.337   3.461   8.014  0.9959 -1.3928  0.8413
  103OSM    C7S10361   2.131   3.531   8.028 -0.4670  0.2123 -0.5145
  103OSM    H7S10362   2.144   3.637   8.057 -1.4577  1.0934 -3.0416
  103OSM    H7T10363   2.046   3.495   8.090 -0.4759 -1.1191 -1.2674
  103OSM    C8S10364   2.082   3.505   7.888  0.2781 -0.3327 -0.2825
  103OSM    H8S10365   1.972   3.517   7.896  0.1742 -0.7440 -1.0130
  103OSM    H8T10366   2.097   3.397   7.867  1.6352 -0.1562 -0.2904
  103OSM    C9S10367   2.127   3.593   7.769 -0.3175 -0.9286 -0.5199
  103OSM    H9S10368   2.236   3.578   7.757 -0.2834 -1.7192  0.6346
  103OSM    H9T10369   2.094   3.694   7.801  1.1153 -0.2007 -1.2854
  103OSM   C10S10370   2.047   3.552   7.646 -0.1911  1.2083 -0.0503
  103OSM   H10S10371   1.938   3.570   7.655 -0.3275  2.1932 -2.5941
  103OSM   H10T10372   2.061   3.443   7.627 -0.3626  0.6974  2.4310
  103OSM   C11S10373   2.085   3.634   7.525  0.4055  0.3395  0.4315
  103OSM   H11S10374   2.194   3.654   7.513  0.0147  1.6263 -1.4723
  103OSM   H11T10375   2.038   3.734   7.527  1.3612  0.8379 -0.5201
  103OSM   C12S10376   2.036   3.559   7.394  0.0946 -0.3604  0.2799
  103OSM   H12S10377   1.925   3.553   7.403 -0.1048 -0.5047 -1.7166
  103OSM   H12T10378   2.079   3.456   7.396  0.5429 -0.1708  0.6380
  103OSM   C13S10379   2.073   3.643   7.266 -0.1047 -0.1076  0.1515
  103OSM   H13S10380   2.064   3.580   7.175 -3.1572  0.9867 -0.3983
  103OSM   H13T10381   2.180   3.668   7.283 -0.1639 -0.4916  1.1779
  103OSM   C14S10382   1.995   3.772   7.238 -1.0477  0.1531 -0.1868
  103OSM   H14S10383   1.966   3.815   7.336 -0.3417  2.0659 -0.7684
  103OSM   H14T10384   1.897   3.743   7.194 -1.1700  2.5736 -1.7370
  103OSM   C15S10385   2.073   3.873   7.153  0.0222 -0.5334 -0.0292
  103OSM   H15S10386   2.161   3.910   7.209  1.0947 -3.4044  0.3671
  103OSM   H15T10387   2.011   3.962   7.129  0.6326 -0.5884 -2.0014
  103OSM   C16S10388   2.128   3.825   7.011  0.4786 -0.3546 -0.1851
  103OSM   H16S10389   2.053   3.759   6.961 -1.4387  0.8657  0.9454
  103OSM   H16T10390   2.212   3.758   7.040  0.3911  0.3095  1.7149
  103OSM   C17S10391   2.171   3.929   6.913  0.4252 -0.0056  0.4056
  103OSM   H17S10392   2.254   3.988   6.956  0.6763 -0.1452  0.1135
  103OSM   H17T10393   2.082   3.994   6.901  1.1513  1.5153  2.5764
  103OSM   C18S10394   2.212   3.869   6.782  0.2890 -0.4361 -0.4025
  103OSM   H18S10395   2.128   3.812   6.738 -0.3966 -1.3990  2.0400
  103OSM   H18T10396   2.300   3.803   6.794  1.8382  1.1623 -2.2666
  103OSM   H18U10397   2.249   3.952   6.718 -0.7270 -0.3511 -0.8931
  103OSM    C1F10398   1.924   3.489   8.568 -0.5441  0.3840 -0.0145
  103OSM     OF10399   1.907   3.597   8.616 -0.4141 -0.9364  0.3316
  103OSM    C2F10400   1.818   3.385   8.564  0.8747  0.1180 -0.0633
  103OSM    H2F10401   1.762   3.392   8.660  0.0655  0.2718 -0.5440
  103OSM    H2G10402   1.875   3.289   8.572  1.0009  0.1092 -0.9530
  103OSM    C3F10403   1.709   3.384   8.445  0.3551 -0.5234 -0.3441
  103OSM    H3F10404   1.631   3.462   8.463  1.3007  1.1484 -2.9595
  103OSM    H3G10405   1.653   3.289   8.434  0.0213 -0.2809 -0.7985
  103OSM    C4F10406   1.755   3.429   8.307  0.1445 -0.6276 -0.4810
  103OSM    H4F10407   1.854   3.383   8.286  1.4085  2.5006 -2.0413
  103OSM    H4G10408   1.778   3.538   8.311  2.8790 -1.1759  2.7744
  103OSM    C5F10409   1.654   3.399   8.198 -0.4954  0.2899  0.9755
  103OSM    H5F10410   1.575   3.478   8.199  1.4878  2.3853  0.5009
  103OSM    H5G10411   1.608   3.299   8.211  1.5352 -0.6837  0.9555
  103OSM    C6F10412   1.718   3.401   8.058 -0.3561 -0.3151 -0.4175
  103OSM    H6F10413   1.803   3.329   8.056  0.7539  0.9041  0.7898
  103OSM    H6G10414   1.756   3.504   8.043  1.2640 -1.0893 -2.1567
  103OSM    C7F10415   1.623   3.369   7.948  0.5468  0.6822 -0.9509
  103OSM    H7F10416   1.533   3.434   7.953 -1.8949 -2.3521 -1.7422
  103OSM    H7G10417   1.585   3.266   7.965  0.2197  0.8952 -0.3388
  103OSM    C8F10418   1.666   3.375   7.799 -0.5144  0.0067 -0.5589
  103OSM    H8F10419   1.728   3.285   7.783 -1.1374 -0.5269 -0.0251
  103OSM    H8G10420   1.732   3.461   7.773  0.8204 -1.0508 -0.7998
  103OSM    C9F10421   1.545   3.380   7.713  0.2916  0.7406 -0.1668
  103OSM    H9F10422   1.464   3.325   7.764 -0.2064  2.2365  0.7020
  103OSM   C10F10423   1.517   3.460   7.605  0.8245  0.2483  0.3846
  103OSM   H10F10424   1.420   3.449   7.555  0.5100  0.3341  0.9812
  103OSM   C11F10425   1.616   3.542   7.532  0.7135 -0.1123  0.3579
  103OSM   H11F10426   1.713   3.535   7.586  2.0864 -2.5649 -2.1614
  103OSM   H11G10427   1.589   3.649   7.529  0.5208 -0.1716 -0.5633
  103OSM   C12F10428   1.629   3.496   7.389 -0.1996 -0.7013  0.0220
  103OSM   H12F10429   1.642   3.386   7.385 -1.9583 -1.1388  2.8772
  103OSM   H12G10430   1.712   3.551   7.339 -1.0611 -0.5616 -1.2800
  103OSM   C13F10431   1.511   3.535   7.302 -0.6207 -0.0111 -0.8552
  103OSM   H13F10432   1.476   3.640   7.318 -0.3662 -0.3439  2.6692
  103OSM   H13G10433   1.433   3.464   7.337  0.9930 -0.3709  2.3833
  103OSM   C14F10434   1.537   3.509   7.154  0.1276 -0.1560  0.3459
  103OSM   H14F10435   1.554   3.401   7.138 -1.4766 -0.1300 -2.0602
  103OSM   H14G10436   1.620   3.574   7.118 -1.6854  1.4772 -1.0973
  103OSM   C15F10437   1.415   3.539   7.070  0.1878  0.0365  0.6847
  103OSM   H15F10438   1.397   3.649   7.066 -0.4994 -0.1127 -0.6787
  103OSM   H15G10439   1.323   3.494   7.114 -0.2964 -1.1515 -1.4210
  103OSM   C16F10440   1.414   3.480   6.930 -0.4522  0.0731 -0.6593
  103OSM   H16F10441   1.464   3.381   6.928  0.0809  0.3135  0.3161
  103OSM   H16G10442   1.464   3.557   6.867  0.4256  0.0451 -0.0248
  103OSM   C17F10443   1.263   3.468   6.885 -0.3867 -0.7383 -0.8416
  103OSM   H17F10444   1.222   3.571   6.874  0.7362 -0.1273  0.4393
  103OSM   H17G10445   1.204   3.407   6.957  2.4017 -0.7106  1.6872
  103OSM   C18F10446   1.269   3.411   6.739  0.6787  0.2714  0.4774
  103OSM   H18F10447   1.326   3.479   6.673  0.5377  0.9324  1.0366
  103OSM   H18G10448   1.169   3.392   6.693  1.0693  0.3338 -0.4266
  103OSM   H18H10449   1.316   3.312   6.761  0.4227  0.3750  1.5321
  104OSM      N10450   2.718   5.077   0.155  0.2793  0.5685  0.0526
  104OSM    C1510451   2.682   5.160   0.038 -0.3450  1.0895 -0.2885
  104OSM   H15A10452   2.735   5.253   0.040  3.5144 -0.9088  1.6668
  104OSM   H15B10453   2.577   5.181   0.024 -0.5335 -0.1406 -0.8840
  104OSM   H15C10454   2.721   5.101  -0.045 -0.2926 -1.1426  1.2225
  104OSM    C1410455   2.689   5.151   0.283 -0.7996 -0.4591  0.3890
  104OSM   H14A10456   2.708   5.092   0.372 -1.6245 -0.3741  0.6338
  104OSM   H14B10457   2.581   5.159   0.284 -1.2060 -3.5871 -2.1663
  104OSM   H14C10458   2.739   5.246   0.287 -0.4152 -0.6685  0.7215
  104OSM    C1310459   2.638   4.958   0.159 -0.1393  0.2160  0.1805
  104OSM   H13A10460   2.671   4.901   0.244 -2.1336 -0.9139  0.2429
  104OSM   H13B10461   2.651   4.898   0.070  1.0203  0.4191  0.1904
  104OSM   H13C10462   2.536   4.982   0.182 -0.5228 -0.2533 -0.9352
  104OSM    C1210463   2.868   5.041   0.155  0.6367 -0.0457  0.1020
  104OSM   H12A10464   2.878   4.958   0.224 -1.0693  0.0406  0.5144
  104OSM   H12B10465   2.913   5.134   0.184 -0.1302  0.1815  0.6108
  104OSM    C1110466   2.920   4.989   0.018 -0.3008 -0.1842  0.2252
  104OSM   H11A10467   3.026   4.961   0.036 -0.4772 -0.5955  0.6622
  104OSM   H11B10468   2.922   5.069  -0.059 -1.6442  0.1240  0.4845
  104OSM      P10469   2.888   4.738  -0.016  0.1377 -0.2943 -0.4098
  104OSM    O1310470   2.957   4.722   0.116 -0.2438 -0.0920 -0.6134
  104OSM    O1410471   2.771   4.653  -0.035  0.0435  0.0184 -0.0055
  104OSM    O1110472   2.987   4.706  -0.137  0.6262  0.1532 -0.5115
  104OSM    O1210473   2.840   4.888  -0.035  0.0485 -0.4241  0.1622
  104OSM    C1S10474   2.957   4.743  -0.268  0.1815  0.3416 -0.5088
  104OSM    H1S10475   2.849   4.762  -0.285 -0.4556 -1.9546  0.5038
  104OSM    H1T10476   2.994   4.667  -0.341 -1.0447  0.5607 -1.3975
  104OSM     NF10477   3.022   4.869  -0.457  0.0556  0.2447 -0.4399
  104OSM    HNF10478   3.103   4.867  -0.515 -1.1789  0.8364 -2.2805
  104OSM    C2S10479   3.036   4.866  -0.310  0.2103 -0.2806  0.8250
  104OSM    H2S10480   2.994   4.957  -0.262  1.1942  0.4102  0.4113
  104OSM    C3S10481   3.189   4.873  -0.280  0.4602  0.5872  0.0734
  104OSM    H3S10482   3.238   4.801  -0.348 -1.6313 -0.7359 -0.1294
  104OSM     O310483   3.228   4.819  -0.152 -0.2139  0.0947  0.5482
  104OSM    HO310484   3.148   4.785  -0.111 -1.3282  2.4964  0.5263
  104OSM    C4S10485   3.243   5.006  -0.303  0.1901 -0.2029  0.1522
  104OSM    H4S10486   3.276   5.011  -0.408  0.0943  2.8823  0.1897
  104OSM    C5S10487   3.273   5.107  -0.216  0.3619 -0.0810 -0.5139
  104OSM    H5S10488   3.256   5.089  -0.109  0.1775  1.0221 -0.3484
  104OSM    C6S10489   3.341   5.235  -0.268  0.6717  0.0657  0.3009
  104OSM    H6S10490   3.444   5.238  -0.228  1.1281 -0.8992 -0.7318
  104OSM    H6T10491   3.300   5.326  -0.219  0.0129  0.3211 -0.6888
  104OSM    C7S10492   3.341   5.273  -0.416  0.3132  0.3231  0.4696
  104OSM    H7S10493   3.241   5.256  -0.460  0.6483 -2.1068  0.4545
  104OSM    H7T10494   3.411   5.211  -0.477  0.9040 -0.0705  1.5039
  104OSM    C8S10495   3.388   5.417  -0.450  0.0616 -0.0036 -0.5300
  104OSM    H8S10496   3.489   5.437  -0.407 -1.1746 -0.6407  3.0002
  104OSM    H8T10497   3.306   5.477  -0.404  1.0276  0.9512 -0.0048
  104OSM    C9S10498   3.384   5.458  -0.597  0.6333 -0.5858  0.6485
  104OSM    H9S10499   3.350   5.562  -0.613  2.5136  0.0650  0.6736
  104OSM    H9T10500   3.309   5.391  -0.644  3.0386 -2.0235 -1.3800
  104OSM   C10S10501   3.521   5.431  -0.674  0.2228 -0.0025  0.2874
  104OSM   H10S10502   3.559   5.334  -0.637  0.8680  0.6616  1.4174
  104OSM   H10T10503   3.592   5.513  -0.652 -1.8616  1.6759  1.1742
  104OSM   C11S10504   3.500   5.438  -0.829 -0.3250  0.4487  0.3399
  104OSM   H11S10505   3.498   5.543  -0.866 -1.9219 -0.5169 -2.6376
  104OSM   H11T10506   3.399   5.396  -0.844 -0.1876 -0.2645  1.2839
  104OSM   C12S10507   3.602   5.351  -0.906  0.2682  0.4378 -0.0380
  104OSM   H12S10508   3.595   5.245  -0.872  2.1797 -0.3575 -1.9250
  104OSM   H12T10509   3.700   5.398  -0.883  0.8530  0.0533 -1.6230
  104OSM   C13S10510   3.572   5.363  -1.055  0.7966 -0.9298 -0.3412
  104OSM   H13S10511   3.577   5.470  -1.086  0.1546 -0.3327  1.5066
  104OSM   H13T10512   3.465   5.333  -1.058  0.4087  0.4503 -1.5546
  104OSM   C14S10513   3.639   5.272  -1.151 -0.0975  0.2853 -0.2649
  104OSM   H14S10514   3.661   5.172  -1.107  1.0639 -0.3325 -2.1121
  104OSM   H14T10515   3.739   5.315  -1.171  0.3161  0.5841  2.1223
  104OSM   C15S10516   3.554   5.244  -1.274  0.1673 -0.4257  0.4911
  104OSM   H15S10517   3.449   5.215  -1.252  0.3461 -0.2469  1.6532
  104OSM   H15T10518   3.612   5.159  -1.317  3.0877 -0.3026  3.7467
  104OSM   C16S10519   3.551   5.372  -1.365 -0.3206 -0.0978 -0.7400
  104OSM   H16S10520   3.655   5.401  -1.392 -0.4477  0.3365 -0.7717
  104OSM   H16T10521   3.496   5.454  -1.315  2.0029  1.4597 -0.5872
  104OSM   C17S10522   3.462   5.351  -1.494 -0.8207  0.8807  0.5798
  104OSM   H17S10523   3.455   5.450  -1.544 -0.3423  0.0207 -1.2471
  104OSM   H17T10524   3.362   5.309  -1.467  0.9001 -3.2936  1.2668
  104OSM   C18S10525   3.529   5.259  -1.595 -0.1454 -0.2407 -0.9034
  104OSM   H18S10526   3.466   5.250  -1.686  0.3610  0.7351 -1.3746
  104OSM   H18T10527   3.516   5.158  -1.551 -1.4076 -0.3855 -1.5614
  104OSM   H18U10528   3.635   5.282  -1.618 -0.1347 -1.1577 -1.8327
  104OSM    C1F10529   2.906   4.881  -0.520 -0.4291 -0.3349 -0.0304
  104OSM     OF10530   2.803   4.926  -0.463 -0.0260 -0.3337  0.1212
  104OSM    C2F10531   2.913   4.833  -0.657  0.3667 -0.0028  0.0696
  104OSM    H2F10532   3.003   4.770  -0.676  0.0366 -0.2793 -0.6374
  104OSM    H2G10533   2.942   4.922  -0.716  1.2064  0.5003  1.2061
  104OSM    C3F10534   2.783   4.765  -0.701 -0.6773  0.3892  0.3549
  104OSM    H3F10535   2.705   4.839  -0.675  0.7401  2.0548  0.0650
  104OSM    H3G10536   2.745   4.676  -0.647 -0.1399  0.3750  0.7164
  104OSM    C4F10537   2.776   4.738  -0.848  0.4924 -0.8930  0.6793
  104OSM    H4F10538   2.820   4.641  -0.879 -0.3648 -0.9803 -0.3404
  104OSM    H4G10539   2.821   4.822  -0.905 -2.5075 -1.7765 -3.4884
  104OSM    C5F10540   2.633   4.721  -0.897  0.5530 -0.2129  0.4090
  104OSM    H5F10541   2.566   4.800  -0.856 -1.3605 -1.2680 -0.5846
  104OSM    H5G10542   2.600   4.629  -0.846  1.5880 -0.9290 -0.1741
  104OSM    C6F10543   2.611   4.712  -1.052 -0.8801 -0.4468  0.1227
  104OSM    H6F10544   2.643   4.806  -1.100 -1.0286 -0.7509 -0.5780
  104OSM    H6G10545   2.505   4.689  -1.076  0.3717 -1.6588 -5.4963
  104OSM    C7F10546   2.696   4.598  -1.121 -0.1995  0.0937  0.4731
  104OSM    H7F10547   2.674   4.501  -1.071  0.0618 -0.6264 -0.7707
  104OSM    H7G10548   2.803   4.618  -1.098 -0.5521  1.0817  1.3813
  104OSM    C8F10549   2.680   4.584  -1.278  0.2353 -0.5811  0.1605
  104OSM    H8F10550   2.576   4.558  -1.305  0.8150 -2.4206 -0.4536
  104OSM    H8G10551   2.735   4.490  -1.301  0.7291 -0.4736  0.8850
  104OSM    C9F10552   2.728   4.703  -1.355  0.5669  0.9140 -0.0533
  104OSM    H9F10553   2.776   4.784  -1.298  2.6733  1.9701 -3.0932
  104OSM   C10F10554   2.714   4.733  -1.485 -0.4768  0.9487  0.2525
  104OSM   H10F10555   2.755   4.822  -1.535  1.8307 -0.5160 -0.6021
  104OSM   C11F10556   2.630   4.648  -1.581  0.4320  0.3008  1.0512
  104OSM   H11F10557   2.569   4.565  -1.540 -0.2622 -0.8186 -1.9210
  104OSM   H11G10558   2.698   4.589  -1.646 -0.4562 -0.6317  0.9538
  104OSM   C12F10559   2.533   4.720  -1.678  0.1318  0.0351 -0.6117
  104OSM   H12F10560   2.581   4.801  -1.738 -0.3051 -0.6257 -1.9012
  104OSM   H12G10561   2.452   4.771  -1.621  1.4994  2.4653 -0.6963
  104OSM   C13F10562   2.461   4.621  -1.772  0.1168 -0.5532  0.1927
  104OSM   H13F10563   2.410   4.544  -1.711  2.3303 -1.3057  1.1976
  104OSM   H13G10564   2.550   4.569  -1.815  0.6836  1.0159 -0.6194
  104OSM   C14F10565   2.362   4.676  -1.877  0.3238  0.8426 -0.5038
  104OSM   H14F10566   2.414   4.753  -1.939  2.0712 -1.5611 -2.2055
  104OSM   H14G10567   2.268   4.706  -1.826  0.4551  0.3663  0.0170
  104OSM   C15F10568   2.319   4.560  -1.972 -0.0190 -0.6217 -0.6296
  104OSM   H15F10569   2.214   4.589  -1.997  0.9208  1.2193 -2.8936
  104OSM   H15G10570   2.325   4.463  -1.919  0.1328 -0.3927 -0.2213
  104OSM   C16F10571   2.405   4.560  -2.100 -0.6833  0.5998  0.7264
  104OSM   H16F10572   2.506   4.518  -2.080 -0.6515  0.5320  0.4327
  104OSM   H16G10573   2.437   4.658  -2.142 -0.9606  0.1740 -0.5177
  104OSM   C17F10574   2.340   4.481  -2.215 -0.2534 -0.2412 -0.1957
  104OSM   H17F10575   2.397   4.478  -2.311 -2.0524 -1.2838 -1.2910
  104OSM   H17G10576   2.242   4.532  -2.222  0.1899  0.4287 -2.2318
  104OSM   C18F10577   2.324   4.328  -2.171  0.3047 -0.5595  0.0087
  104OSM   H18F10578   2.417   4.284  -2.127  0.3594 -0.6505 -0.1997
  104OSM   H18G10579   2.306   4.276  -2.267  2.2639 -0.3836 -0.4926
  104OSM   H18H10580   2.234   4.309  -2.109 -0.4475 -1.5696 -1.3509
  105OSM      N10581   3.396   5.245   0.377  0.1235  0.3684  0.3029
  105OSM    C1510582   3.465   5.128   0.444  0.2093 -0.1498 -0.4920
  105OSM   H15A10583   3.488   5.045   0.379 -1.2955  0.0791 -1.3567
  105OSM   H15B10584   3.401   5.084   0.519 -0.0800 -1.0956 -1.2736
  105OSM   H15C10585   3.562   5.156   0.483  0.8841 -3.3747  0.4646
  105OSM    C1410586   3.323   5.318   0.482  0.4305  0.1261 -0.4034
  105OSM   H14A10587   3.271   5.398   0.433  0.7402  0.7357  0.2569
  105OSM   H14B10588   3.393   5.365   0.550  2.3427 -0.6511 -1.7520
  105OSM   H14C10589   3.254   5.248   0.527  1.8338 -0.9842  0.1298
  105OSM    C1310590   3.497   5.324   0.310 -0.2089  0.0654  0.1185
  105OSM   H13A10591   3.572   5.363   0.377  1.0640 -2.3245  0.1662
  105OSM   H13B10592   3.440   5.397   0.254  0.6505  0.5127 -0.1846
  105OSM   H13C10593   3.548   5.264   0.236 -0.1390  0.4833 -0.1763
  105OSM    C1210594   3.301   5.181   0.281  0.3623  0.5187  0.5001
  105OSM   H12A10595   3.224   5.122   0.327 -1.2865  0.0734 -2.5731
  105OSM   H12B10596   3.354   5.112   0.217  0.1216  2.9901 -2.6141
  105OSM    C1110597   3.234   5.275   0.174 -0.2353  0.3061 -0.4865
  105OSM   H11A10598   3.165   5.213   0.113 -0.2624 -0.2895  0.1366
  105OSM   H11B10599   3.312   5.318   0.107  0.0757  0.4388 -0.0470
  105OSM      P10600   3.018   5.395   0.255  0.4204  0.1039  0.3503
  105OSM    O1310601   2.953   5.273   0.302 -0.3634 -0.0805  0.1590
  105OSM    O1410602   2.986   5.521   0.329 -0.3405 -0.1066 -0.3839
  105OSM    O1110603   2.965   5.407   0.109 -0.5795  0.8455 -0.0746
  105OSM    O1210604   3.168   5.385   0.240 -0.0301  0.1342 -0.0441
  105OSM    C1S10605   3.011   5.523   0.034 -0.0266 -0.1945  0.2235
  105OSM    H1S10606   3.098   5.574   0.081 -0.7106 -0.2063  1.5516
  105OSM    H1T10607   2.925   5.594   0.041  0.2300  0.2437 -0.8319
  105OSM     NF10608   3.110   5.607  -0.194  0.0256 -0.1194  0.9112
  105OSM    HNF10609   3.056   5.640  -0.271 -1.6749 -1.9895  1.2300
  105OSM    C2S10610   3.038   5.495  -0.123  0.2314  0.4026 -0.2313
  105OSM    H2S10611   3.104   5.406  -0.129 -0.1555  0.1899 -1.6603
  105OSM    C3S10612   2.903   5.451  -0.193  0.9174  0.3299 -0.0361
  105OSM    H3S10613   2.847   5.547  -0.196  1.0857  0.5859  2.7079
  105OSM     O310614   2.822   5.352  -0.127  0.1865  0.0959  0.0064
  105OSM    HO310615   2.853   5.348  -0.036  1.8422  0.7249 -0.4795
  105OSM    C4S10616   2.925   5.409  -0.337 -0.1798  0.3307  0.4018
  105OSM    H4S10617   2.967   5.491  -0.396  0.2722 -0.5997 -0.6090
  105OSM    C5S10618   2.915   5.287  -0.390  0.0398 -0.0366 -0.2015
  105OSM    H5S10619   2.886   5.201  -0.328  3.1109 -0.9104  0.1583
  105OSM    C6S10620   2.943   5.249  -0.532 -0.8471  0.0166 -0.2818
  105OSM    H6S10621   2.848   5.214  -0.578 -1.1525 -0.8801  0.9642
  105OSM    H6T10622   3.020   5.170  -0.522 -0.3096  0.7167  1.5450
  105OSM    C7S10623   3.009   5.360  -0.622 -0.1293  0.4347 -0.0753
  105OSM    H7S10624   3.103   5.402  -0.580  0.8286 -0.8915 -0.8385
  105OSM    H7T10625   2.928   5.436  -0.631 -1.0941 -0.1013  2.9110
  105OSM    C8S10626   3.030   5.302  -0.771 -0.0918 -0.0132 -0.1100
  105OSM    H8S10627   2.934   5.274  -0.819 -0.4990  2.3555 -0.7895
  105OSM    H8T10628   3.079   5.203  -0.757 -1.2282 -0.9367 -2.2406
  105OSM    C9S10629   3.108   5.391  -0.863  0.2844 -0.7162  0.5412
  105OSM    H9S10630   3.156   5.330  -0.943  2.4161 -0.6110  1.6744
  105OSM    H9T10631   3.200   5.433  -0.817  0.8585 -0.9140 -0.3920
  105OSM   C10S10632   3.018   5.500  -0.920  0.7257  0.6322  0.4300
  105OSM   H10S10633   2.996   5.564  -0.832 -0.8366  0.7260 -0.0047
  105OSM   H10T10634   2.925   5.462  -0.967  1.5248 -1.5512  0.4900
  105OSM   C11S10635   3.083   5.585  -1.033 -0.4712 -0.0945 -0.5675
  105OSM   H11S10636   3.186   5.624  -1.015 -1.3149  2.4873 -0.8122
  105OSM   H11T10637   3.026   5.681  -1.027 -0.9367 -0.4295  3.8573
  105OSM   C12S10638   3.077   5.519  -1.168  0.1794 -0.0202 -0.0315
  105OSM   H12S10639   2.977   5.492  -1.208 -0.4149  2.6164 -0.5308
  105OSM   H12T10640   3.132   5.424  -1.151  0.6057  0.5637  2.1833
  105OSM   C13S10641   3.141   5.594  -1.280  0.1052  0.1646  0.0600
  105OSM   H13S10642   3.239   5.637  -1.250  0.4258 -1.3399  1.2640
  105OSM   H13T10643   3.080   5.685  -1.302  0.4850  0.0656 -1.5744
  105OSM   C14S10644   3.154   5.517  -1.412  0.0039  0.2579 -0.0727
  105OSM   H14S10645   3.049   5.497  -1.443  1.0713 -2.4733 -2.3309
  105OSM   H14T10646   3.192   5.415  -1.394 -3.6550 -1.1199  0.6603
  105OSM   C15S10647   3.209   5.604  -1.525 -0.8108  0.3782  0.0878
  105OSM   H15S10648   3.316   5.627  -1.506 -1.2577  1.9568  0.8591
  105OSM   H15T10649   3.152   5.699  -1.520  0.2646  1.0004  1.3436
  105OSM   C16S10650   3.183   5.532  -1.660  0.4851  0.1651  1.2264
  105OSM   H16S10651   3.075   5.505  -1.667  0.6633 -0.7873  1.9964
  105OSM   H16T10652   3.240   5.437  -1.664 -1.1285 -0.8632  1.5562
  105OSM   C17S10653   3.228   5.625  -1.772  0.1320 -0.2324  0.3933
  105OSM   H17S10654   3.335   5.653  -1.762  0.2843  0.4938 -2.5033
  105OSM   H17T10655   3.175   5.722  -1.769  1.1221  0.3370  0.1224
  105OSM   C18S10656   3.208   5.554  -1.907 -0.1614  0.5227  0.8691
  105OSM   H18S10657   3.114   5.497  -1.922  0.5001 -0.2600 -0.5134
  105OSM   H18T10658   3.283   5.474  -1.921 -1.0791 -0.1978 -0.0975
  105OSM   H18U10659   3.226   5.619  -1.995  1.3959  0.9824  1.4940
  105OSM    C1F10660   3.235   5.646  -0.170 -0.3803 -0.2664  0.3624
  105OSM     OF10661   3.310   5.597  -0.083  0.2538  0.3776 -0.7620
  105OSM    C2F10662   3.277   5.778  -0.241  0.1553 -0.5652  0.4316
  105OSM    H2F10663   3.295   5.858  -0.166 -1.8491  1.6257 -1.2743
  105OSM    H2G10664   3.185   5.813  -0.292 -0.7572  0.5339  2.6677
  105OSM    C3F10665   3.396   5.766  -0.337  0.3627 -0.2121  0.5937
  105OSM    H3F10666   3.357   5.736  -0.437 -0.0439 -0.8102  0.9240
  105OSM    H3G10667   3.460   5.684  -0.301 -0.7881 -0.8263  1.2949
  105OSM    C4F10668   3.480   5.895  -0.343 -0.2835 -0.4473  0.5500
  105OSM    H4F10669   3.503   5.925  -0.239  2.0386 -1.9138  0.5252
  105OSM    H4G10670   3.425   5.977  -0.395 -1.0182 -1.6352 -0.6148
  105OSM    C5F10671   3.613   5.882  -0.424  0.1610  0.3316  0.4401
  105OSM    H5F10672   3.676   5.811  -0.366 -2.8124 -2.5073  0.4768
  105OSM    H5G10673   3.666   5.979  -0.437  0.1310  0.0691 -2.0649
  105OSM    C6F10674   3.600   5.825  -0.567  0.3719  0.2608  0.1127
  105OSM    H6F10675   3.510   5.867  -0.617  1.0720  0.4910 -0.9932
  105OSM    H6G10676   3.578   5.716  -0.562 -0.5251  0.3914 -0.7125
  105OSM    C7F10677   3.733   5.850  -0.644 -0.2985 -0.0932  0.0052
  105OSM    H7F10678   3.812   5.817  -0.574  1.5696  0.5970 -1.6991
  105OSM    H7G10679   3.745   5.957  -0.669  0.6078  0.0399  0.9655
  105OSM    C8F10680   3.749   5.765  -0.766  0.3770  0.6675  0.6762
  105OSM    H8F10681   3.672   5.805  -0.835 -0.5322  3.0960  2.9067
  105OSM    H8G10682   3.719   5.662  -0.736 -3.2821  2.0398  2.3459
  105OSM    C9F10683   3.893   5.773  -0.820 -0.2725 -0.0393  0.1876
  105OSM    H9F10684   3.974   5.793  -0.748  0.4702 -0.0469 -0.6243
  105OSM   C10F10685   3.923   5.760  -0.948 -1.0130  0.5030 -0.0565
  105OSM   H10F10686   4.028   5.774  -0.977 -1.7421  0.6687 -3.0269
  105OSM   C11F10687   3.819   5.752  -1.065 -0.9852  0.2324 -0.6214
  105OSM   H11F10688   3.782   5.857  -1.071 -1.3033  0.1184 -0.6849
  105OSM   H11G10689   3.733   5.690  -1.029 -0.7484  0.3171  0.0999
  105OSM   C12F10690   3.873   5.715  -1.208  0.1446  0.1308  0.6131
  105OSM   H12F10691   3.950   5.791  -1.236 -0.6905 -0.3856 -3.8785
  105OSM   H12G10692   3.793   5.719  -1.284  0.8286 -2.5506 -0.3622
  105OSM   C13F10693   3.938   5.572  -1.227  0.6036  0.5460  0.1318
  105OSM   H13F10694   3.862   5.492  -1.239  1.1496 -0.2018  1.4189
  105OSM   H13G10695   4.000   5.543  -1.139  0.7992  1.2155  0.2153
  105OSM   C14F10696   4.023   5.558  -1.355 -0.0745 -0.2373 -0.4965
  105OSM   H14F10697   4.050   5.452  -1.372  0.6037 -0.4654  1.7208
  105OSM   H14G10698   4.116   5.608  -1.320 -0.0422 -1.8921  2.0306
  105OSM   C15F10699   3.968   5.631  -1.480  0.0753  0.1384 -0.1094
  105OSM   H15F10700   4.054   5.636  -1.550 -0.4344  2.2340 -0.6458
  105OSM   H15G10701   3.945   5.735  -1.449 -2.4990 -0.7146  1.1819
  105OSM   C16F10702   3.860   5.561  -1.550  0.4702  0.1704  0.2314
  105OSM   H16F10703   3.765   5.596  -1.504 -0.6018  0.0136 -1.7311
  105OSM   H16G10704   3.862   5.450  -1.550 -1.0273  0.1233  0.0721
  105OSM   C17F10705   3.858   5.604  -1.695  0.0370 -0.1383 -0.4951
  105OSM   H17F10706   3.953   5.571  -1.743 -0.1852 -0.3266 -0.8066
  105OSM   H17G10707   3.866   5.713  -1.715  0.4793 -0.1079 -0.1746
  105OSM   C18F10708   3.743   5.539  -1.771 -0.3500 -0.3419  0.3577
  105OSM   H18F10709   3.760   5.531  -1.881 -1.3500 -0.7879  0.2240
  105OSM   H18G10710   3.653   5.600  -1.748 -0.1325  0.0596  0.1496
  105OSM   H18H10711   3.748   5.433  -1.739 -2.6931 -0.2851  1.0880
  106OSM      N10712   2.787   1.135   0.111  0.3915  0.1241 -0.4787
  106OSM    C1510713   2.682   1.244   0.100 -1.0860  0.4234 -0.3737
  106OSM   H15A10714   2.587   1.194   0.088 -1.1868  0.6440 -0.5165
  106OSM   H15B10715   2.688   1.299   0.006 -1.7706  0.1381 -0.5903
  106OSM   H15C10716   2.678   1.302   0.191 -3.2388 -1.3195  0.7425
  106OSM    C1410717   2.919   1.198   0.084  0.7670 -0.0411 -0.4929
  106OSM   H14A10718   2.927   1.237  -0.017  1.3767  2.4681  0.4512
  106OSM   H14B10719   2.992   1.122   0.109 -1.8632 -2.2171  1.0882
  106OSM   H14C10720   2.931   1.285   0.147  1.1197 -1.6737  1.8144
  106OSM    C1310721   2.787   1.081   0.251 -0.8238 -0.1541 -0.3655
  106OSM   H13A10722   2.876   1.020   0.261  0.5742  1.6522 -1.1212
  106OSM   H13B10723   2.700   1.026   0.281 -0.7955  0.3680  0.7376
  106OSM   H13C10724   2.803   1.167   0.314  0.9272  1.3839 -2.7345
  106OSM    C1210725   2.764   1.017   0.025  0.2756  0.1972 -0.3091
  106OSM   H12A10726   2.848   0.951   0.043  0.4676  0.6536  0.5178
  106OSM   H12B10727   2.761   1.047  -0.079  1.7182  0.0293 -0.4196
  106OSM    C1110728   2.635   0.932   0.055  0.8622 -0.2192  0.5636
  106OSM   H11A10729   2.639   0.885   0.156 -0.7596  0.7085  1.0929
  106OSM   H11B10730   2.633   0.838  -0.005 -2.5821 -0.9379  1.5552
  106OSM      P10731   2.463   1.025  -0.120  0.1178 -0.1650 -0.2491
  106OSM    O1310732   2.356   0.926  -0.130 -0.1838 -0.1123 -0.4877
  106OSM    O1410733   2.435   1.171  -0.141 -0.4928  0.0179 -0.4185
  106OSM    O1110734   2.576   0.974  -0.214  0.4017  0.1388  0.4200
  106OSM    O1210735   2.518   1.009   0.028  0.1493 -0.1057 -0.0228
  106OSM    C1S10736   2.543   0.983  -0.362 -0.0497  0.3772 -0.3148
  106OSM    H1S10737   2.504   1.083  -0.387  0.8949  1.4262  2.1077
  106OSM    H1T10738   2.465   0.910  -0.392  1.6547 -1.9473  0.6002
  106OSM     NF10739   2.629   0.977  -0.596 -0.8209  0.3125  0.6680
  106OSM    HNF10740   2.619   0.888  -0.641  0.3828  0.5432 -0.0890
  106OSM    C2S10741   2.666   0.959  -0.453  0.4946 -0.1611 -0.1747
  106OSM    H2S10742   2.738   1.043  -0.441  2.5304 -1.1265 -3.8997
  106OSM    C3S10743   2.740   0.823  -0.420  0.5981  0.0137  1.1540
  106OSM    H3S10744   2.673   0.747  -0.464  1.3038 -0.4454  0.8554
  106OSM     O310745   2.753   0.794  -0.279  0.5569 -0.1029  0.1138
  106OSM    HO310746   2.698   0.861  -0.238 -0.6440 -0.5015 -0.7731
  106OSM    C4S10747   2.875   0.831  -0.492  0.5363 -0.8297  0.4181
  106OSM    H4S10748   2.880   0.781  -0.590  1.6446 -0.1718  0.1252
  106OSM    C5S10749   2.994   0.878  -0.439 -0.3456  0.5476 -0.2448
  106OSM    H5S10750   2.999   0.928  -0.341  0.3668  2.6515 -1.2928
  106OSM    C6S10751   3.126   0.880  -0.515 -0.2099 -0.3745  0.0150
  106OSM    H6S10752   3.194   0.805  -0.470  2.0068  2.0220  0.9129
  106OSM    H6T10753   3.187   0.972  -0.503 -1.8093  0.5297  1.8281
  106OSM    C7S10754   3.134   0.841  -0.664  0.5439 -0.3331 -0.1047
  106OSM    H7S10755   3.068   0.909  -0.723 -0.8185 -2.8488 -1.6622
  106OSM    H7T10756   3.088   0.741  -0.681  0.5944 -0.5763  1.1070
  106OSM    C8S10757   3.275   0.861  -0.727  0.3087  0.0322  0.6098
  106OSM    H8S10758   3.342   0.782  -0.687  0.4799 -0.2264 -0.1701
  106OSM    H8T10759   3.318   0.954  -0.685  0.7657 -0.7270  1.8836
  106OSM    C9S10760   3.268   0.856  -0.884 -0.1422  0.2407  0.3960
  106OSM    H9S10761   3.188   0.923  -0.923 -0.3507  0.1201  0.6115
  106OSM    H9T10762   3.253   0.748  -0.905  0.3399  0.0444  1.0467
  106OSM   C10S10763   3.397   0.898  -0.952  0.1989  0.2711 -0.7844
  106OSM   H10S10764   3.476   0.822  -0.932 -0.7309 -0.4413  0.3155
  106OSM   H10T10765   3.434   0.988  -0.899  0.9018 -0.9232  0.8582
  106OSM   C11S10766   3.374   0.931  -1.099 -0.0077  0.4985  0.2860
  106OSM   H11S10767   3.307   1.019  -1.108 -0.9486 -0.2972 -0.7185
  106OSM   H11T10768   3.327   0.846  -1.153  0.2950  1.7168 -2.0316
  106OSM   C12S10769   3.505   0.959  -1.175 -0.3138  0.2169 -0.0981
  106OSM   H12S10770   3.573   0.871  -1.167  0.0001  0.5025  0.3999
  106OSM   H12T10771   3.567   1.043  -1.137  0.6230  0.4027 -1.9194
  106OSM   C13S10772   3.492   0.997  -1.327  0.4069 -0.4330 -0.5402
  106OSM   H13S10773   3.421   1.083  -1.329 -2.7423 -2.8449 -0.1293
  106OSM   H13T10774   3.443   0.924  -1.394  0.5009  1.2786 -2.5989
  106OSM   C14S10775   3.621   1.038  -1.397 -0.6101  0.1897  0.1800
  106OSM   H14S10776   3.689   0.953  -1.379  0.8192  1.3250  0.3249
  106OSM   H14T10777   3.664   1.127  -1.346 -0.5996  0.9432 -1.0971
  106OSM   C15S10778   3.608   1.074  -1.552 -0.6460  0.2403  0.7567
  106OSM   H15S10779   3.554   1.171  -1.555  0.9547  1.1576  0.1596
  106OSM   H15T10780   3.537   0.999  -1.593  0.5347  0.6600 -2.3660
  106OSM   C16S10781   3.744   1.086  -1.626  0.1693 -0.0761 -0.6897
  106OSM   H16S10782   3.813   1.003  -1.600 -0.7687 -0.5203  0.4376
  106OSM   H16T10783   3.778   1.181  -1.579 -1.8227  0.1987  0.3075
  106OSM   C17S10784   3.746   1.123  -1.768 -0.7373  0.4390  1.1424
  106OSM   H17S10785   3.686   1.215  -1.782  0.7349  1.1358 -1.2179
  106OSM   H17T10786   3.706   1.038  -1.827 -2.2043 -0.7641  3.7116
  106OSM   C18S10787   3.878   1.158  -1.834 -0.3628  0.2844 -0.6138
  106OSM   H18S10788   3.868   1.149  -1.945  0.8235 -3.2070 -0.5607
  106OSM   H18T10789   3.955   1.085  -1.802  0.6240  1.0944 -1.1135
  106OSM   H18U10790   3.910   1.260  -1.805 -0.4831  0.7443 -2.0029
  106OSM    C1F10791   2.598   1.095  -0.652  0.2147 -0.1518  0.3091
  106OSM     OF10792   2.623   1.197  -0.593 -0.3380 -0.1571  0.0021
  106OSM    C2F10793   2.518   1.088  -0.782  0.0449 -0.4235  0.1834
  106OSM    H2F10794   2.432   1.155  -0.761 -0.7425 -0.8417 -1.5430
  106OSM    H2G10795   2.474   0.989  -0.810 -0.5746  0.4175 -2.0230
  106OSM    C3F10796   2.603   1.129  -0.907  1.1091 -0.7184  0.2762
  106OSM    H3F10797   2.682   1.050  -0.916  0.9188 -1.0536  1.4353
  106OSM    H3G10798   2.651   1.229  -0.899  0.4478 -0.1112 -2.2838
  106OSM    C4F10799   2.525   1.113  -1.039 -0.4870  0.1146  0.2025
  106OSM    H4F10800   2.441   1.185  -1.034 -0.9085 -0.1483 -1.8563
  106OSM    H4G10801   2.474   1.014  -1.040  1.2850 -0.8553  1.3429
  106OSM    C5F10802   2.612   1.125  -1.167  0.2957 -1.0266 -0.4505
  106OSM    H5F10803   2.716   1.110  -1.131  0.5572 -1.7761 -1.4798
  106OSM    H5G10804   2.589   1.226  -1.206 -2.4016 -0.6349  1.8182
  106OSM    C6F10805   2.585   1.016  -1.277  0.9561  0.0273  0.0381
  106OSM    H6F10806   2.479   1.038  -1.303  0.7300  1.8548  2.1888
  106OSM    H6G10807   2.600   0.914  -1.235  0.6486  0.5754  1.5489
  106OSM    C7F10808   2.680   1.023  -1.396  0.8686  0.3105  0.9143
  106OSM    H7F10809   2.651   0.933  -1.454  1.5366 -0.2692  1.4591
  106OSM    H7G10810   2.788   1.018  -1.370  0.7808 -2.5531  1.1058
  106OSM    C8F10811   2.662   1.146  -1.484 -0.4645  1.1148  0.1927
  106OSM    H8F10812   2.739   1.139  -1.564  0.9058  1.2741  1.4590
  106OSM    H8G10813   2.685   1.237  -1.425 -1.5118  1.7860 -0.3958
  106OSM    C9F10814   2.524   1.142  -1.547  0.0703 -0.6570  0.2083
  106OSM    H9F10815   2.448   1.206  -1.501 -0.9030 -2.1801  0.8196
  106OSM   C10F10816   2.492   1.087  -1.664  0.1409  0.1692  0.6518
  106OSM   H10F10817   2.389   1.095  -1.702 -0.2478 -1.5695  1.2813
  106OSM   C11F10818   2.587   0.990  -1.728 -0.5286 -0.3498 -0.5952
  106OSM   H11F10819   2.621   0.904  -1.667  0.5189 -0.6382 -1.5483
  106OSM   H11G10820   2.682   1.046  -1.747 -0.7343  1.0926  2.0936
  106OSM   C12F10821   2.542   0.932  -1.868 -0.9816  0.2303  0.9240
  106OSM   H12F10822   2.542   1.022  -1.933 -0.5533 -0.3463  0.0971
  106OSM   H12G10823   2.439   0.891  -1.878 -0.2374 -1.3327 -1.1371
  106OSM   C13F10824   2.652   0.838  -1.924  0.3469 -0.1700  0.4354
  106OSM   H13F10825   2.670   0.764  -1.843 -0.3820  1.4518  2.1685
  106OSM   H13G10826   2.745   0.895  -1.947  0.3838 -0.1415  0.6518
  106OSM   C14F10827   2.598   0.769  -2.053  0.5682  0.9040  0.0072
  106OSM   H14F10828   2.499   0.722  -2.034  1.1441 -0.1638  0.4655
  106OSM   H14G10829   2.672   0.687  -2.064  1.4237  1.4296  1.4711
  106OSM   C15F10830   2.585   0.863  -2.169 -0.2288 -0.4739 -0.1989
  106OSM   H15F10831   2.531   0.955  -2.137 -0.3232 -1.1963  1.9051
  106OSM   H15G10832   2.522   0.817  -2.247 -0.7387  0.3496 -0.2853
  106OSM   C16F10833   2.716   0.920  -2.218 -0.1503  0.3881 -0.6442
  106OSM   H16F10834   2.789   0.845  -2.253 -0.3768  0.6480 -1.6924
  106OSM   H16G10835   2.770   0.980  -2.141 -0.6049 -1.4518  1.2173
  106OSM   C17F10836   2.695   1.008  -2.349  0.4587  0.3072 -0.7039
  106OSM   H17F10837   2.789   1.056  -2.383  0.6339  0.1201 -0.4784
  106OSM   H17G10838   2.615   1.080  -2.320 -1.4663 -1.7897 -0.5388
  106OSM   C18F10839   2.645   0.937  -2.479  0.3876  0.2443 -0.1731
  106OSM   H18F10840   2.648   0.994  -2.574  2.0348 -0.2786 -0.4656
  106OSM   H18G10841   2.552   0.882  -2.453 -0.0652 -0.2654 -2.6633
  106OSM   H18H10842   2.724   0.862  -2.504 -0.5975 -0.0783 -2.5434
  107OSM      N10843   4.140   1.547   0.335  0.9917 -0.4309  0.0324
  107OSM    C1510844   4.165   1.563   0.480 -0.5362  0.6560  0.5296
  107OSM   H15A10845   4.128   1.480   0.538 -0.8931  0.4639  0.0359
  107OSM   H15B10846   4.119   1.658   0.503 -1.2961  0.1079  1.3041
  107OSM   H15C10847   4.272   1.558   0.494 -0.4293 -1.7715 -0.5607
  107OSM    C1410848   4.211   1.426   0.269  0.8122  0.1348  0.1057
  107OSM   H14A10849   4.318   1.438   0.279  0.4100  2.4844  3.5691
  107OSM   H14B10850   4.177   1.414   0.167 -3.2375  0.0173  1.3075
  107OSM   H14C10851   4.185   1.335   0.321 -0.0458  0.0980 -0.3754
  107OSM    C1310852   3.994   1.528   0.316 -0.0368  0.2087  0.6732
  107OSM   H13A10853   3.944   1.624   0.325  0.5418  0.5850 -0.0332
  107OSM   H13B10854   3.952   1.451   0.379 -0.2539 -1.5959 -1.5301
  107OSM   H13C10855   3.982   1.493   0.215  1.0364 -2.0362  1.2510
  107OSM    C1210856   4.199   1.676   0.267  0.2811 -0.2892  0.1201
  107OSM   H12A10857   4.156   1.682   0.168  1.4467 -1.3438 -0.4817
  107OSM   H12B10858   4.304   1.658   0.249  0.3101 -0.4471  0.4359
  107OSM    C1110859   4.182   1.813   0.334  0.6426 -0.0783 -0.1316
  107OSM   H11A10860   4.206   1.898   0.267 -1.2518 -0.0162 -0.7918
  107OSM   H11B10861   4.255   1.826   0.416  2.7862  1.6808 -2.1834
  107OSM      P10862   3.925   1.892   0.291  0.6791  0.2222 -0.3564
  107OSM    O1310863   3.799   1.828   0.337 -0.4054 -0.0648  0.2859
  107OSM    O1410864   3.934   2.041   0.298 -0.0133 -0.5543  0.2494
  107OSM    O1110865   3.955   1.817   0.148  0.6832  0.1815 -0.0655
  107OSM    O1210866   4.047   1.842   0.378 -0.1473  0.9454  0.3030
  107OSM    C1S10867   4.002   1.899   0.037  0.0377 -0.3585  0.1660
  107OSM    H1S10868   4.108   1.920   0.060 -0.1174 -1.3815  2.0424
  107OSM    H1T10869   3.940   1.991   0.035  1.2735  0.6275  2.8719
  107OSM     NF10870   4.094   1.864  -0.199 -0.1992  0.0437 -0.0313
  107OSM    HNF10871   4.074   1.919  -0.280  0.8515  0.1817 -0.2123
  107OSM    C2S10872   3.993   1.815  -0.103 -0.0862 -0.2380 -0.7681
  107OSM    H2S10873   4.027   1.713  -0.073 -0.1663 -0.3411 -1.0292
  107OSM    C3S10874   3.851   1.805  -0.151 -0.8774 -0.1636  0.0624
  107OSM    H3S10875   3.810   1.905  -0.177  1.4840  1.3671  1.8163
  107OSM     O310876   3.762   1.757  -0.047  0.0831 -0.0253 -0.0238
  107OSM    HO310877   3.814   1.761   0.033  1.1638 -1.4173 -0.6011
  107OSM    C4S10878   3.846   1.715  -0.275  0.0361 -0.4709  0.0399
  107OSM    H4S10879   3.919   1.632  -0.275  0.7283  0.1262  0.0074
  107OSM    C5S10880   3.782   1.734  -0.389 -0.7050 -0.1747 -0.2883
  107OSM    H5S10881   3.715   1.821  -0.393 -0.9226 -0.3013  0.4814
  107OSM    C6S10882   3.795   1.649  -0.512  0.1663 -0.6045 -0.3536
  107OSM    H6S10883   3.713   1.575  -0.520  0.5801 -1.0626 -0.3899
  107OSM    H6T10884   3.888   1.589  -0.519  0.7508  0.1499  0.7107
  107OSM    C7S10885   3.792   1.742  -0.630  0.5815 -0.4715 -1.1495
  107OSM    H7S10886   3.868   1.823  -0.629 -0.0526  0.1410 -0.3468
  107OSM    H7T10887   3.697   1.800  -0.627  1.1847  0.6303  2.7399
  107OSM    C8S10888   3.822   1.659  -0.752  0.6532  0.1910 -0.1634
  107OSM    H8S10889   3.768   1.561  -0.750  0.6465  0.2013  1.6007
  107OSM    H8T10890   3.929   1.629  -0.745  0.4527 -0.6588 -0.5114
  107OSM    C9S10891   3.785   1.741  -0.875 -0.3473 -0.2049 -0.4000
  107OSM    H9S10892   3.826   1.845  -0.871  0.5388 -0.5334 -0.7502
  107OSM    H9T10893   3.674   1.746  -0.871 -0.3600 -0.5489 -0.2968
  107OSM   C10S10894   3.828   1.674  -1.004 -1.2450 -0.1516  0.3481
  107OSM   H10S10895   3.792   1.569  -1.007  0.5353 -0.7898  0.1191
  107OSM   H10T10896   3.938   1.666  -1.014 -1.2095  0.0828  0.5396
  107OSM   C11S10897   3.781   1.757  -1.129 -0.3738 -0.5036  0.0078
  107OSM   H11S10898   3.830   1.857  -1.126 -2.3441  0.5153 -0.0301
  107OSM   H11T10899   3.671   1.776  -1.120  0.0030  1.2331  1.8766
  107OSM   C12S10900   3.810   1.682  -1.259 -0.7525  0.4724 -0.0888
  107OSM   H12S10901   3.768   1.580  -1.246 -0.9284  0.2112 -2.3571
  107OSM   H12T10902   3.918   1.680  -1.284 -0.8439  3.3738 -1.1753
  107OSM   C13S10903   3.743   1.749  -1.377 -0.4324  0.0318 -0.2439
  107OSM   H13S10904   3.756   1.859  -1.374 -3.0349  0.3661  2.2718
  107OSM   H13T10905   3.632   1.751  -1.372 -0.5934  0.5375 -2.5561
  107OSM   C14S10906   3.776   1.710  -1.522 -0.6096  0.0953 -0.2934
  107OSM   H14S10907   3.749   1.603  -1.535 -0.5001  0.0629 -0.2569
  107OSM   H14T10908   3.885   1.731  -1.533 -0.8865  1.5594 -0.5277
  107OSM   C15S10909   3.708   1.801  -1.618 -0.0749  0.4466  0.0156
  107OSM   H15S10910   3.747   1.905  -1.622 -1.2935  0.8897 -1.8297
  107OSM   H15T10911   3.602   1.806  -1.583 -0.7838 -0.1389 -1.8926
  107OSM   C16S10912   3.704   1.753  -1.759 -0.8296  0.6240 -0.2730
  107OSM   H16S10913   3.676   1.645  -1.755 -1.1441  0.6937 -0.5801
  107OSM   H16T10914   3.805   1.756  -1.804  0.4466 -0.7710  2.2704
  107OSM   C17S10915   3.615   1.837  -1.848  0.3605 -0.5370  0.3375
  107OSM   H17S10916   3.665   1.934  -1.869 -0.2624  0.0049  1.2704
  107OSM   H17T10917   3.516   1.849  -1.799  0.3967 -0.8568  0.4970
  107OSM   C18S10918   3.592   1.760  -1.975  0.0298  0.3351  0.1621
  107OSM   H18S10919   3.524   1.821  -2.038 -1.4735  2.1929  3.3120
  107OSM   H18T10920   3.547   1.661  -1.953  2.2785 -0.8964 -0.5269
  107OSM   H18U10921   3.690   1.742  -2.023 -0.8266 -1.7251 -0.9522
  107OSM    C1F10922   4.221   1.830  -0.183 -0.3770  0.3368  0.2651
  107OSM     OF10923   4.269   1.788  -0.079  0.1692  0.0720 -0.3771
  107OSM    C2F10924   4.307   1.836  -0.310 -0.3095  0.0409 -0.7010
  107OSM    H2F10925   4.338   1.941  -0.328  2.6717 -0.7531 -0.6402
  107OSM    H2G10926   4.249   1.802  -0.398  0.2530  0.8516 -1.4021
  107OSM    C3F10927   4.425   1.742  -0.292  0.4345  0.1806 -0.2078
  107OSM    H3F10928   4.388   1.638  -0.295 -0.4499  0.5204 -1.4842
  107OSM    H3G10929   4.485   1.758  -0.199 -0.2934 -0.0195  0.3080
  107OSM    C4F10930   4.532   1.751  -0.397  0.3097 -0.5287 -0.1490
  107OSM    H4F10931   4.603   1.832  -0.370 -0.5752 -0.0961  0.9940
  107OSM    H4G10932   4.494   1.787  -0.494  0.5762 -0.7463 -0.3370
  107OSM    C5F10933   4.603   1.614  -0.428 -0.3629  0.4702 -0.3263
  107OSM    H5F10934   4.526   1.542  -0.463 -1.0960  0.2467  1.6498
  107OSM    H5G10935   4.654   1.573  -0.338  0.3037  0.8000 -0.5481
  107OSM    C6F10936   4.709   1.640  -0.528  0.2579 -0.7649  0.2369
  107OSM    H6F10937   4.769   1.724  -0.487 -1.3649 -0.1817  1.5341
  107OSM    H6G10938   4.657   1.677  -0.619  0.5876  0.5270  0.5592
  107OSM    C7F10939   4.795   1.521  -0.571  0.1682 -0.1543 -0.3811
  107OSM    H7F10940   4.751   1.430  -0.616  1.0440 -1.2907  0.9818
  107OSM    H7G10941   4.843   1.483  -0.479  1.9915  0.8017 -0.8778
  107OSM    C8F10942   4.914   1.566  -0.661  0.6542  0.5193 -0.0003
  107OSM    H8F10943   4.993   1.489  -0.651 -0.3818 -0.2594  4.5608
  107OSM    H8G10944   4.949   1.660  -0.614  1.1588  1.1032 -1.4932
  107OSM    C9F10945   4.868   1.586  -0.799 -0.5528  0.2625  0.1211
  107OSM    H9F10946   4.803   1.501  -0.825  2.2141 -1.7245 -0.8236
  107OSM   C10F10947   4.904   1.680  -0.888  0.1832  0.0894 -0.7024
  107OSM   H10F10948   4.865   1.665  -0.990  0.0343 -0.7680 -0.5240
  107OSM   C11F10949   4.985   1.803  -0.875 -0.2539 -0.0966 -0.6885
  107OSM   H11F10950   5.045   1.794  -0.782 -1.1989 -1.6124 -0.1880
  107OSM   H11G10951   4.916   1.890  -0.867 -2.6612 -1.8210 -1.3664
  107OSM   C12F10952   5.075   1.810  -0.999  0.1491  0.0243  0.4069
  107OSM   H12F10953   5.007   1.805  -1.086  0.9837 -0.0623 -0.2599
  107OSM   H12G10954   5.149   1.728  -1.012 -1.0403 -1.0206  0.0770
  107OSM   C13F10955   5.130   1.948  -1.007  0.8862  0.5866  0.1981
  107OSM   H13F10956   5.193   1.978  -0.920  0.4760  1.5563  0.1671
  107OSM   H13G10957   5.043   2.016  -1.007 -0.0883 -0.6123 -0.7200
  107OSM   C14F10958   5.214   1.954  -1.139  0.4242  0.2316 -0.3465
  107OSM   H14F10959   5.143   1.937  -1.223  0.2870 -0.4725 -0.0914
  107OSM   H14G10960   5.288   1.872  -1.130  1.0866  0.7733 -0.8298
  107OSM   C15F10961   5.279   2.088  -1.158  0.1265  0.0922  0.4828
  107OSM   H15F10962   5.351   2.108  -1.077 -0.1332 -1.4587  1.1410
  107OSM   H15G10963   5.195   2.159  -1.147 -0.6988 -0.9210  0.9484
  107OSM   C16F10964   5.329   2.102  -1.304 -0.0988 -0.4234 -0.3284
  107OSM   H16F10965   5.358   2.208  -1.316  1.1880 -0.9694 -2.6567
  107OSM   H16G10966   5.249   2.070  -1.373 -0.4789 -0.3793  0.0888
  107OSM   C17F10967   5.445   2.014  -1.333  0.3841  0.3712 -0.1985
  107OSM   H17F10968   5.417   1.908  -1.344 -2.0435  0.8366  0.9272
  107OSM   H17G10969   5.520   2.008  -1.251  0.5572  0.3270 -0.3585
  107OSM   C18F10970   5.522   2.062  -1.457  0.1842  0.2594 -0.5130
  107OSM   H18F10971   5.526   2.172  -1.467  0.0192  0.2074 -1.2390
  107OSM   H18G10972   5.491   2.019  -1.555  0.2395 -0.4750 -0.2132
  107OSM   H18H10973   5.626   2.025  -1.442 -0.0052 -0.1273 -0.1283
  108OSM      N10974   0.275   0.012   0.448 -0.0577  0.3802 -0.1901
  108OSM    C1510975   0.210  -0.123   0.433  0.4433 -0.1579 -0.6296
  108OSM   H15A10976   0.177  -0.161   0.529 -0.1742 -0.8283 -1.0963
  108OSM   H15B10977   0.287  -0.187   0.394 -1.2028 -1.5751 -1.6882
  108OSM   H15C10978   0.134  -0.144   0.359  1.0760  0.2512 -1.4043
  108OSM    C1410979   0.172   0.118   0.484 -1.0363 -0.4297  0.6497
  108OSM   H14A10980   0.094   0.070   0.541 -1.5578 -0.0761  0.2433
  108OSM   H14B10981   0.137   0.150   0.387 -0.0676 -2.9817 -0.6439
  108OSM   H14C10982   0.223   0.204   0.525  1.4057 -2.2892  1.7896
  108OSM    C1310983   0.372   0.003   0.562 -0.2628 -0.1311  0.0024
  108OSM   H13A10984   0.420  -0.094   0.563 -0.6080 -0.3284 -1.0996
  108OSM   H13B10985   0.321   0.011   0.657 -1.8484 -1.3368 -0.6942
  108OSM   H13C10986   0.451   0.076   0.561 -1.4112  1.1359 -1.1196
  108OSM    C1210987   0.338   0.048   0.315  0.1039  0.1254  0.3309
  108OSM   H12A10988   0.264   0.044   0.236 -0.2252  0.9833  0.5866
  108OSM   H12B10989   0.415  -0.023   0.288 -1.1138 -0.9429 -0.4626
  108OSM    C1110990   0.413   0.183   0.299 -0.9063  0.1246 -0.0262
  108OSM   H11A10991   0.346   0.265   0.332  0.3325  1.0763  0.1734
  108OSM   H11B10992   0.437   0.212   0.194  0.4394  1.3504  0.5978
  108OSM      P10993   0.662   0.109   0.305 -0.0760 -0.1075  0.3268
  108OSM    O1310994   0.779   0.127   0.389  0.1433 -0.2649 -0.2923
  108OSM    O1410995   0.634  -0.026   0.257 -0.2753  0.2556  0.1656
  108OSM    O1110996   0.683   0.194   0.179  0.2410  0.0068 -0.1162
  108OSM    O1210997   0.532   0.182   0.369 -0.4628  0.1765 -0.8846
  108OSM    C1S10998   0.775   0.170   0.074 -0.3813  0.4578  0.7275
  108OSM    H1S10999   0.822   0.071   0.093  0.1734  1.0329  2.5804
  108OSM    H1T11000   0.844   0.254   0.056 -2.9276  2.3017 -1.1052
  108OSM     NF11001   0.773   0.143  -0.184  0.2879  0.1227  0.3727
  108OSM    HNF11002   0.798   0.218  -0.246  1.2736 -1.7957 -1.7147
  108OSM    C2S11003   0.692   0.170  -0.066  0.0003  0.2358 -0.0497
  108OSM    H2S11004   0.618   0.087  -0.060  0.4270 -0.1824 -0.4603
  108OSM    C3S11005   0.611   0.298  -0.086 -0.0192 -0.6483  0.4377
  108OSM    H3S11006   0.682   0.373  -0.127  0.3987 -1.6540 -0.7497
  108OSM     O311007   0.550   0.369   0.021 -0.7928 -0.1670 -0.0192
  108OSM    HO311008   0.590   0.335   0.102  0.4599  1.2577  0.0008
  108OSM    C4S11009   0.511   0.288  -0.207 -0.2864 -0.8962 -0.2091
  108OSM    H4S11010   0.444   0.201  -0.210 -3.6301  1.4924 -0.6387
  108OSM    C5S11011   0.499   0.371  -0.312  0.2773 -0.1874  1.0686
  108OSM    H5S11012   0.550   0.468  -0.314  0.0695 -0.0424  2.0653
  108OSM    C6S11013   0.402   0.330  -0.433 -0.1072 -0.1151  0.0134
  108OSM    H6S11014   0.403   0.220  -0.448  3.7400 -0.7578  3.4358
  108OSM    H6T11015   0.458   0.358  -0.525 -1.1299 -2.4668 -1.4211
  108OSM    C7S11016   0.266   0.392  -0.440  0.4115  0.6466 -0.3668
  108OSM    H7S11017   0.285   0.501  -0.451 -0.5382  0.6913 -1.9166
  108OSM    H7T11018   0.206   0.371  -0.349  1.0863 -1.4425 -0.3404
  108OSM    C8S11019   0.183   0.348  -0.560 -0.5400 -0.2700  0.3256
  108OSM    H8S11020   0.084   0.397  -0.571 -1.1677 -1.8728 -1.8962
  108OSM    H8T11021   0.167   0.242  -0.530 -1.1465 -0.3523 -0.2814
  108OSM    C9S11022   0.246   0.375  -0.697  0.1454 -0.6777  0.0401
  108OSM    H9S11023   0.357   0.366  -0.690  0.3078  1.5997  2.0781
  108OSM    H9T11024   0.213   0.476  -0.728 -1.9323 -0.7777  1.6984
  108OSM   C10S11025   0.197   0.274  -0.802 -0.4558  0.4448  0.8525
  108OSM   H10S11026   0.090   0.246  -0.796  0.1531 -2.6971 -1.0520
  108OSM   H10T11027   0.262   0.192  -0.764 -1.3906 -0.5970  0.2144
  108OSM   C11S11028   0.222   0.319  -0.946 -0.6518  0.5040  0.7104
  108OSM   H11S11029   0.330   0.305  -0.969  0.1079  3.6690  1.9175
  108OSM   H11T11030   0.206   0.428  -0.957 -0.1940  0.5000 -0.0647
  108OSM   C12S11031   0.121   0.266  -1.051  0.0338 -0.4985 -0.6070
  108OSM   H12S11032   0.025   0.269  -0.996  0.0199 -0.3353 -0.6398
  108OSM   H12T11033   0.141   0.158  -1.069  1.4544 -0.6786  1.6472
  108OSM   C13S11034   0.122   0.340  -1.179 -0.2264  0.0221  1.1856
  108OSM   H13S11035   0.214   0.327  -1.240 -1.1675  1.4725 -0.6315
  108OSM   H13T11036   0.112   0.450  -1.170 -0.1578  0.1087  0.2324
  108OSM   C14S11037  -0.001   0.296  -1.259  0.7367  0.3616  0.5230
  108OSM   H14S11038  -0.087   0.283  -1.190 -1.8706 -0.6543 -2.6708
  108OSM   H14T11039   0.026   0.197  -1.300  1.2211  1.5151 -2.1791
  108OSM   C15S11040  -0.034   0.389  -1.373 -1.0336  0.3247  0.5594
  108OSM   H15S11041  -0.034   0.494  -1.338 -1.0024  0.1298  1.1685
  108OSM   H15T11042  -0.140   0.374  -1.400 -1.3824 -0.3161  2.1491
  108OSM   C16S11043   0.054   0.368  -1.498  0.6686 -0.0304 -0.7430
  108OSM   H16S11044  -0.014   0.354  -1.585 -0.2644 -1.4285  0.1544
  108OSM   H16T11045   0.116   0.278  -1.478  1.2443  0.1818 -1.5427
  108OSM   C17S11046   0.145   0.487  -1.522  0.0238  0.3559 -0.0195
  108OSM   H17S11047   0.192   0.517  -1.426 -0.2617 -0.0297  0.2425
  108OSM   H17T11048   0.094   0.579  -1.558  0.9453  0.4821 -1.0686
  108OSM   C18S11049   0.258   0.446  -1.620 -0.0827 -0.4076 -0.0711
  108OSM   H18S11050   0.320   0.367  -1.574  1.3472  1.0863  0.6878
  108OSM   H18T11051   0.332   0.528  -1.634 -1.2678  0.8169  0.5128
  108OSM   H18U11052   0.206   0.416  -1.714  0.4955 -2.6625  0.2940
  108OSM    C1F11053   0.817   0.015  -0.205  0.1258 -0.3874 -0.0697
  108OSM     OF11054   0.796  -0.077  -0.127 -0.2745  0.0567  0.3434
  108OSM    C2F11055   0.886   0.000  -0.331 -0.3980 -0.3400 -0.2411
  108OSM    H2F11056   0.993  -0.013  -0.304 -0.6388  0.2571  1.0704
  108OSM    H2G11057   0.867   0.083  -0.403 -2.2317 -2.3057 -2.1700
  108OSM    C3F11058   0.852  -0.130  -0.411 -0.2713 -0.0765  0.1148
  108OSM    H3F11059   0.754  -0.124  -0.463  0.8704  0.0892 -2.1313
  108OSM    H3G11060   0.861  -0.217  -0.343  1.8377  0.5667  0.7465
  108OSM    C4F11061   0.950  -0.132  -0.523  0.0796 -0.6267 -0.4731
  108OSM    H4F11062   1.054  -0.127  -0.484 -0.6999  0.8443  1.6014
  108OSM    H4G11063   0.940  -0.046  -0.594 -2.1065 -2.3673 -2.4529
  108OSM    C5F11064   0.926  -0.249  -0.612  0.4628  0.2273 -0.2285
  108OSM    H5F11065   0.822  -0.249  -0.651  0.3781 -2.4893 -0.2294
  108OSM    H5G11066   0.943  -0.339  -0.548  3.4151  1.0534  0.2804
  108OSM    C6F11067   1.017  -0.245  -0.741  0.2269 -0.9302 -0.5033
  108OSM    H6F11068   1.015  -0.342  -0.795 -0.0521 -0.3426 -1.5809
  108OSM    H6G11069   1.119  -0.214  -0.711 -0.3621  0.9121 -0.2621
  108OSM    C7F11070   0.968  -0.146  -0.846 -0.7926 -0.1145  0.3709
  108OSM    H7F11071   0.965  -0.040  -0.812  2.2021  0.4208 -0.7326
  108OSM    H7G11072   0.861  -0.168  -0.863 -0.9892  0.7847  0.3680
  108OSM    C8F11073   1.026  -0.165  -0.991 -0.3846  0.0868 -0.0800
  108OSM    H8F11074   0.984  -0.258  -1.035 -0.2544 -0.0794  0.1473
  108OSM    H8G11075   1.136  -0.174  -0.981 -0.5657 -0.3754  1.9143
  108OSM    C9F11076   0.994  -0.043  -1.081 -0.4415  0.0483 -0.5893
  108OSM    H9F11077   1.064   0.041  -1.078  1.2370 -1.2987  1.7464
  108OSM   C10F11078   0.882  -0.036  -1.162 -0.5416  0.9625 -0.6541
  108OSM   H10F11079   0.865   0.055  -1.220 -0.5264  0.9392 -0.6947
  108OSM   C11F11080   0.782  -0.142  -1.179 -0.1048 -0.2177 -0.5748
  108OSM   H11F11081   0.684  -0.102  -1.144  0.8116  1.6921 -0.0866
  108OSM   H11G11082   0.791  -0.223  -1.104 -3.2735 -1.0403 -0.9361
  108OSM   C12F11083   0.768  -0.197  -1.316 -0.1942 -0.1341  0.0154
  108OSM   H12F11084   0.752  -0.112  -1.386  0.1861  0.2848  0.4293
  108OSM   H12G11085   0.675  -0.256  -1.327  0.5083 -1.0264 -1.5113
  108OSM   C13F11086   0.885  -0.283  -1.362  0.1510 -0.3670  0.5023
  108OSM   H13F11087   0.878  -0.379  -1.305  0.8203  0.4278  1.9885
  108OSM   H13G11088   0.980  -0.239  -1.324  0.1576 -0.5774  0.7353
  108OSM   C14F11089   0.893  -0.305  -1.510 -0.0171 -0.3266  0.7358
  108OSM   H14F11090   0.990  -0.351  -1.539  0.0723 -1.3016  2.4822
  108OSM   H14G11091   0.890  -0.205  -1.558 -0.6187  0.0918  1.6247
  108OSM   C15F11092   0.783  -0.398  -1.554 -0.2012 -0.6959 -0.4376
  108OSM   H15F11093   0.684  -0.348  -1.540 -0.7688 -1.5844 -1.1245
  108OSM   H15G11094   0.777  -0.489  -1.492  0.3733 -0.4435 -0.0042
  108OSM   C16F11095   0.798  -0.448  -1.694 -0.4558  0.6920  0.1650
  108OSM   H16F11096   0.702  -0.501  -1.712 -0.7696  1.4428 -0.4369
  108OSM   H16G11097   0.887  -0.514  -1.694 -1.0035 -0.0613 -0.1370
  108OSM   C17F11098   0.796  -0.338  -1.797  0.5423  0.9058  0.4106
  108OSM   H17F11099   0.896  -0.291  -1.789  1.3504 -0.5906 -0.5348
  108OSM   H17G11100   0.721  -0.261  -1.767 -0.4389  0.6873 -1.3090
  108OSM   C18F11101   0.775  -0.397  -1.942 -0.2546 -0.6221 -0.3808
  108OSM   H18F11102   0.853  -0.472  -1.968  0.7531  0.1494  0.3223
  108OSM   H18G11103   0.786  -0.321  -2.022  2.3613 -2.2620 -1.7217
  108OSM   H18H11104   0.674  -0.444  -1.948 -0.6514  0.3824 -2.5997
  109OSM      N11105   6.569   2.487   0.275 -0.1181  0.1465  0.9459
  109OSM    C1511106   6.552   2.637   0.254  0.1166 -0.0256  0.1083
  109OSM   H15A11107   6.631   2.693   0.303  0.4900  0.6543 -1.2060
  109OSM   H15B11108   6.458   2.679   0.286 -0.7421 -1.6692 -0.1847
  109OSM   H15C11109   6.576   2.673   0.155  2.5150  2.8139  1.5441
  109OSM    C1411110   6.698   2.445   0.213  0.1710 -0.1265 -0.3063
  109OSM   H14A11111   6.775   2.517   0.239 -0.4440 -0.2341  2.0708
  109OSM   H14B11112   6.691   2.444   0.105 -1.0380  0.6890 -0.2608
  109OSM   H14C11113   6.736   2.346   0.231  2.4765  0.2648 -2.5167
  109OSM    C1311114   6.583   2.475   0.416  0.2757  0.2969 -0.1988
  109OSM   H13A11115   6.582   2.370   0.441 -1.6175  0.2664 -0.3101
  109OSM   H13B11116   6.493   2.506   0.466 -0.8923  0.1478 -2.1063
  109OSM   H13C11117   6.678   2.514   0.451  0.0439 -0.2970  1.1496
  109OSM    C1211118   6.447   2.413   0.226 -0.2837  0.2462  0.2965
  109OSM   H12A11119   6.413   2.442   0.128 -0.4549 -1.8661 -0.3136
  109OSM   H12B11120   6.361   2.435   0.288  0.5597  1.3828  1.1093
  109OSM    C1111121   6.462   2.261   0.208  0.0313 -0.0440 -0.4532
  109OSM   H11A11122   6.519   2.256   0.113  1.7512 -0.5904  0.5414
  109OSM   H11B11123   6.358   2.226   0.194 -0.6851  1.3958  0.8988
  109OSM      P11124   6.594   2.054   0.303  0.2212  0.0677  0.1059
  109OSM    O1311125   6.742   2.056   0.322 -0.5882  0.2156  0.1963
  109OSM    O1411126   6.529   1.965   0.400  0.1698  0.3048 -0.0139
  109OSM    O1111127   6.554   2.002   0.152  0.9777  0.7740  0.2392
  109OSM    O1211128   6.527   2.195   0.324  0.2016  0.0139  0.9313
  109OSM    C1S11129   6.646   2.017   0.041  0.1627 -0.0231 -0.4077
  109OSM    H1S11130   6.737   1.955   0.057 -1.1567 -1.6200  1.3897
  109OSM    H1T11131   6.678   2.123   0.031 -1.4325  0.5739  0.4936
  109OSM     NF11132   6.680   1.996  -0.201 -0.3211  0.5041 -0.3433
  109OSM    HNF11133   6.691   2.086  -0.242 -2.1465  0.7291 -0.4270
  109OSM    C2S11134   6.578   1.984  -0.090  0.1644  0.1035 -0.1145
  109OSM    H2S11135   6.543   1.879  -0.082 -0.4308  0.3771  1.0024
  109OSM    C3S11136   6.451   2.072  -0.108 -0.3452 -0.0303  0.1823
  109OSM    H3S11137   6.485   2.177  -0.095 -1.4077  0.2722  0.6208
  109OSM     O311138   6.355   2.042  -0.005  0.1111  0.0009 -0.1670
  109OSM    HO311139   6.410   2.013   0.068  0.2555  0.5527 -0.0520
  109OSM    C4S11140   6.397   2.047  -0.243  0.7559 -0.2912 -0.0675
  109OSM    H4S11141   6.341   2.131  -0.286  0.7251 -0.9680 -1.4084
  109OSM    C5S11142   6.385   1.930  -0.307 -0.1695 -0.2556  0.1792
  109OSM    H5S11143   6.426   1.837  -0.265 -0.8562  0.0727  1.6323
  109OSM    C6S11144   6.318   1.901  -0.442  0.2194 -0.4009 -0.0134
  109OSM    H6S11145   6.244   1.981  -0.463  1.3765  0.8875  0.6592
  109OSM    H6T11146   6.257   1.809  -0.424  0.0557  0.0036  1.7469
  109OSM    C7S11147   6.420   1.875  -0.549  0.0963 -0.8334 -0.1943
  109OSM    H7S11148   6.473   1.785  -0.511  1.6689  0.3292  0.5024
  109OSM    H7T11149   6.488   1.963  -0.543 -1.3836  0.2418  2.7589
  109OSM    C8S11150   6.379   1.844  -0.698  0.4654 -0.6158  0.0553
  109OSM    H8S11151   6.463   1.812  -0.763 -0.3054  2.2596 -2.5833
  109OSM    H8T11152   6.334   1.936  -0.741  0.1146 -0.7164  0.1961
  109OSM    C9S11153   6.273   1.728  -0.707 -0.2414 -0.3833 -0.0248
  109OSM    H9S11154   6.178   1.751  -0.654  1.0851  2.5199  1.3016
  109OSM    H9T11155   6.331   1.644  -0.662 -0.5179 -0.5156  0.0891
  109OSM   C10S11156   6.235   1.690  -0.850  0.0201 -0.5843  0.0119
  109OSM   H10S11157   6.204   1.783  -0.902  0.4369  0.7698  2.1041
  109OSM   H10T11158   6.142   1.629  -0.846 -1.3879  1.4461 -0.4048
  109OSM   C11S11159   6.341   1.605  -0.930 -0.2105  0.0459  1.3829
  109OSM   H11S11160   6.333   1.496  -0.907  2.6353 -0.2550  1.3520
  109OSM   H11T11161   6.444   1.627  -0.893  1.1970  1.1347 -2.6099
  109OSM   C12S11162   6.333   1.634  -1.076 -1.0192  0.4940  0.5922
  109OSM   H12S11163   6.337   1.742  -1.102  2.4222  0.4421  0.4642
  109OSM   H12T11164   6.234   1.595  -1.110 -0.4825 -0.0276 -0.4056
  109OSM   C13S11165   6.437   1.555  -1.165 -0.1003 -0.2022 -0.7250
  109OSM   H13S11166   6.447   1.453  -1.122 -0.9282 -0.2771 -0.6906
  109OSM   H13T11167   6.535   1.603  -1.144 -0.4152 -0.2963  1.1375
  109OSM   C14S11168   6.401   1.551  -1.310 -0.1200  0.2174 -0.2772
  109OSM   H14S11169   6.367   1.652  -1.340  0.2055  0.0577 -1.2208
  109OSM   H14T11170   6.308   1.490  -1.319 -0.3859  0.9126 -3.0529
  109OSM   C15S11171   6.509   1.490  -1.399  0.3204 -0.1059  0.0153
  109OSM   H15S11172   6.525   1.386  -1.363 -0.6790 -0.1514  0.3456
  109OSM   H15T11173   6.611   1.534  -1.395 -0.3317  1.6206 -1.3261
  109OSM   C16S11174   6.480   1.460  -1.548 -0.1408  0.6907 -0.3214
  109OSM   H16S11175   6.460   1.554  -1.604  0.7337  0.7537 -0.5560
  109OSM   H16T11176   6.389   1.397  -1.559  1.2964 -1.0778 -3.5574
  109OSM   C17S11177   6.606   1.394  -1.615  0.3627  0.1617  0.3539
  109OSM   H17S11178   6.622   1.292  -1.575 -1.3290 -0.2810 -0.0600
  109OSM   H17T11179   6.699   1.452  -1.594  1.4778 -1.5437  0.3016
  109OSM   C18S11180   6.586   1.366  -1.770 -0.2674 -0.6582 -0.9406
  109OSM   H18S11181   6.684   1.330  -1.808  0.3067  0.4158 -0.5450
  109OSM   H18T11182   6.557   1.465  -1.811  1.5927 -0.0146 -0.8086
  109OSM   H18U11183   6.511   1.290  -1.799  0.2137 -0.3305 -3.1844
  109OSM    C1F11184   6.769   1.904  -0.216 -0.4635 -0.1752 -0.7063
  109OSM     OF11185   6.771   1.793  -0.160 -0.3660  0.6163  0.2094
  109OSM    C2F11186   6.881   1.938  -0.310  0.2822  0.0877  0.8063
  109OSM    H2F11187   6.949   1.851  -0.318  0.6127  0.3148  1.1483
  109OSM    H2G11188   6.933   2.023  -0.260 -1.2792  0.7174  1.4232
  109OSM    C3F11189   6.827   1.982  -0.450 -0.0600 -0.3260  0.4501
  109OSM    H3F11190   6.774   2.080  -0.450 -0.3777 -0.4833 -0.8698
  109OSM    H3G11191   6.763   1.903  -0.494  0.2839  0.0048 -0.6662
  109OSM    C4F11192   6.943   2.008  -0.545 -0.3024 -0.1642 -0.2739
  109OSM    H4F11193   7.002   1.918  -0.573  0.5424  0.0504  0.7658
  109OSM    H4G11194   7.014   2.071  -0.487 -1.6768 -0.3418  1.6818
  109OSM    C5F11195   6.910   2.089  -0.677 -0.0094 -0.3871 -0.9917
  109OSM    H5F11196   6.999   2.133  -0.725 -2.0076  1.1273 -3.5646
  109OSM    H5G11197   6.853   2.179  -0.647  1.2579  0.1240 -0.0317
  109OSM    C6F11198   6.840   2.007  -0.783 -0.0394  0.1729 -0.8955
  109OSM    H6F11199   6.731   2.004  -0.759  0.4465  0.9368  1.6524
  109OSM    H6G11200   6.874   1.901  -0.774 -0.4710 -0.1275 -2.4142
  109OSM    C7F11201   6.866   2.056  -0.930 -0.1543 -0.3428 -0.1878
  109OSM    H7F11202   6.975   2.051  -0.952 -0.3088  0.3157 -1.1663
  109OSM    H7G11203   6.839   2.164  -0.930  1.0699  0.0072 -1.9097
  109OSM    C8F11204   6.789   1.970  -1.028 -0.0494  0.4765 -0.0339
  109OSM    H8F11205   6.690   1.946  -0.983  0.7702 -1.4220  0.8666
  109OSM    H8G11206   6.842   1.873  -1.040 -0.6618 -0.4218  3.2499
  109OSM    C9F11207   6.764   2.053  -1.153  0.4818 -0.0449 -0.7176
  109OSM    H9F11208   6.748   2.161  -1.140 -2.0580  0.0966 -3.6682
  109OSM   C10F11209   6.788   2.012  -1.280 -0.6251  0.2235 -0.3306
  109OSM   H10F11210   6.756   2.082  -1.359 -0.3684  0.5110 -0.1822
  109OSM   C11F11211   6.826   1.869  -1.321 -0.9544  0.1141 -1.0078
  109OSM   H11F11212   6.825   1.804  -1.231 -0.7071  1.2266 -0.1843
  109OSM   H11G11213   6.932   1.881  -1.349 -1.1411  4.1677 -0.6058
  109OSM   C12F11214   6.737   1.829  -1.444 -0.5975 -0.0003 -0.5195
  109OSM   H12F11215   6.633   1.849  -1.411 -0.8110  1.3330 -1.8877
  109OSM   H12G11216   6.741   1.718  -1.454 -0.3900 -0.1755  1.3154
  109OSM   C13F11217   6.769   1.898  -1.580 -0.4049  0.0449 -0.2727
  109OSM   H13F11218   6.873   1.865  -1.599  0.2719  1.2230  1.1432
  109OSM   H13G11219   6.766   2.009  -1.572  1.4525  0.2490 -1.7230
  109OSM   C14F11220   6.683   1.849  -1.697  0.4112  0.2173 -0.3788
  109OSM   H14F11221   6.584   1.888  -1.664  0.6132  0.3581  0.0668
  109OSM   H14G11222   6.679   1.739  -1.711  0.0370  0.0843  0.6715
  109OSM   C15F11223   6.721   1.915  -1.831 -1.0314 -0.6237  0.4662
  109OSM   H15F11224   6.740   2.023  -1.816 -2.4033 -0.0088 -1.7688
  109OSM   H15G11225   6.630   1.907  -1.894 -0.6171 -2.3788  0.0292
  109OSM   C16F11226   6.842   1.856  -1.905  0.0493  1.3365  0.9045
  109OSM   H16F11227   6.808   1.764  -1.956  0.0880  1.9865 -0.3334
  109OSM   H16G11228   6.927   1.818  -1.845  0.7823 -0.1568 -0.9852
  109OSM   C17F11229   6.905   1.936  -2.018  0.1904  0.9861 -0.0913
  109OSM   H17F11230   6.818   1.976  -2.075  0.7615 -1.3439 -2.8193
  109OSM   H17G11231   6.957   1.864  -2.084  1.2228 -0.8445  2.5566
  109OSM   C18F11232   6.995   2.057  -1.980 -0.3258 -0.0142 -0.0542
  109OSM   H18F11233   6.947   2.155  -1.998  1.8577  0.9388 -1.0219
  109OSM   H18G11234   7.085   2.044  -2.044  1.0973  0.2032  1.7893
  109OSM   H18H11235   7.039   2.050  -1.878  1.7859  1.1569 -0.8334
  110OSM      N11236   6.488   6.590   0.924 -0.4456 -0.9440 -0.6095
  110OSM    C1511237   6.380   6.681   0.979 -0.8121 -0.4319  0.0173
  110OSM   H15A11238   6.344   6.744   0.899  1.1567 -1.1149 -1.4852
  110OSM   H15B11239   6.422   6.736   1.062 -0.8265 -0.8104  0.2758
  110OSM   H15C11240   6.293   6.629   1.016 -2.7736  2.0687 -0.8254
  110OSM    C1411241   6.601   6.684   0.887  0.1239 -0.4498  0.3739
  110OSM   H14A11242   6.636   6.741   0.972  1.8062  1.6746 -1.6138
  110OSM   H14B11243   6.563   6.763   0.824 -0.8680 -1.0140  0.2369
  110OSM   H14C11244   6.684   6.633   0.841 -0.3977 -1.4344  0.4957
  110OSM    C1311245   6.532   6.502   1.037  0.1450  0.5066 -0.2768
  110OSM   H13A11246   6.536   6.553   1.132  0.3513 -0.4144  0.2215
  110OSM   H13B11247   6.628   6.454   1.022  0.6529  0.8909  1.4633
  110OSM   H13C11248   6.456   6.427   1.055  2.5507 -2.0900 -0.1093
  110OSM    C1211249   6.449   6.512   0.800 -0.2597  0.6272  0.1974
  110OSM   H12A11250   6.531   6.447   0.773 -2.8373 -2.5389 -0.7528
  110OSM   H12B11251   6.427   6.577   0.717 -0.6689 -2.0975 -1.9778
  110OSM    C1111252   6.319   6.423   0.802  0.6373  0.3656  0.0955
  110OSM   H11A11253   6.323   6.347   0.883  2.8116  0.7723  0.4401
  110OSM   H11B11254   6.322   6.372   0.703  2.8195 -0.9502  0.7540
  110OSM      P11255   6.149   6.600   0.713 -0.2249 -0.1878 -0.2910
  110OSM    O1311256   6.005   6.618   0.729  0.3990 -0.3459 -0.4887
  110OSM    O1411257   6.235   6.721   0.729 -0.9645  0.5195  0.1386
  110OSM    O1111258   6.181   6.538   0.578 -0.2727  0.2917 -0.1455
  110OSM    O1211259   6.197   6.498   0.823  0.0275  0.4454  0.0909
  110OSM    C1S11260   6.086   6.501   0.476 -0.0893  0.1149 -0.0133
  110OSM    H1S11261   6.001   6.572   0.485 -0.6309 -0.3477 -1.2045
  110OSM    H1T11262   6.047   6.402   0.504 -0.8955  0.1639 -0.9086
  110OSM     NF11263   6.030   6.496   0.226 -0.4077 -0.3804 -0.1285
  110OSM    HNF11264   6.027   6.413   0.170  0.4414 -0.5225  0.0294
  110OSM    C2S11265   6.130   6.521   0.329  0.3950 -0.5515 -0.1772
  110OSM    H2S11266   6.174   6.621   0.307  0.2299  0.1312  2.2815
  110OSM    C3S11267   6.248   6.420   0.322  0.1823  0.0669 -0.0259
  110OSM    H3S11268   6.211   6.323   0.363  0.7162 -0.7251 -1.3676
  110OSM     O311269   6.360   6.449   0.405  0.0900 -0.0263  0.4309
  110OSM    HO311270   6.322   6.488   0.484 -0.5795  0.1630  0.0268
  110OSM    C4S11271   6.304   6.385   0.183  0.4801 -0.7533 -0.7037
  110OSM    H4S11272   6.302   6.474   0.118 -0.7216 -0.3575 -0.1708
  110OSM    C5S11273   6.347   6.267   0.141  0.3946  0.1363 -0.2842
  110OSM    H5S11274   6.354   6.179   0.207 -2.1674 -0.2508 -0.3925
  110OSM    C6S11275   6.409   6.246  -0.003  0.3530 -0.0324 -0.6866
  110OSM    H6S11276   6.494   6.175   0.008 -0.7949 -1.9883 -3.3638
  110OSM    H6T11277   6.458   6.338  -0.040  0.1565 -0.0095 -0.8939
  110OSM    C7S11278   6.295   6.195  -0.094  0.5841  0.0086  0.0642
  110OSM    H7S11279   6.218   6.275  -0.098  1.1795  0.5984  0.1743
  110OSM    H7T11280   6.251   6.100  -0.058  2.1226 -0.8026 -0.1103
  110OSM    C8S11281   6.349   6.168  -0.235 -0.1933  0.7577  0.0283
  110OSM    H8S11282   6.438   6.102  -0.228  0.5267  1.7249  0.2057
  110OSM    H8T11283   6.385   6.264  -0.276 -0.1532  0.0853 -1.6010
  110OSM    C9S11284   6.244   6.105  -0.323 -0.1567  0.1021  0.9847
  110OSM    H9S11285   6.161   6.178  -0.332  0.3018  0.4590 -0.8064
  110OSM    H9T11286   6.204   6.006  -0.295 -0.6225  0.0062  0.0178
  110OSM   C10S11287   6.301   6.086  -0.470 -0.2639  0.1466 -0.5650
  110OSM   H10S11288   6.410   6.108  -0.472 -0.6670  2.2759 -2.2319
  110OSM   H10T11289   6.255   6.164  -0.535 -0.2974  0.7129  0.1195
  110OSM   C11S11290   6.267   5.945  -0.527  0.4491  0.0831 -0.2490
  110OSM   H11S11291   6.163   5.910  -0.511  1.1452 -1.7699  0.4630
  110OSM   H11T11292   6.331   5.867  -0.481 -0.0393 -0.3655 -0.3330
  110OSM   C12S11293   6.297   5.927  -0.673 -0.1022  0.2503 -0.5718
  110OSM   H12S11294   6.406   5.928  -0.694 -0.0397  1.2713 -0.2270
  110OSM   H12T11295   6.249   6.016  -0.718 -0.4204 -0.3464 -1.4365
  110OSM   C13S11296   6.249   5.796  -0.736 -0.2949 -0.4820  0.3363
  110OSM   H13S11297   6.140   5.775  -0.736 -0.0809 -1.6632  0.2615
  110OSM   H13T11298   6.303   5.713  -0.687  0.1333 -0.6114 -0.3465
  110OSM   C14S11299   6.276   5.805  -0.885 -0.5095 -0.2904  0.2570
  110OSM   H14S11300   6.378   5.847  -0.900  0.3680 -1.7299  1.9498
  110OSM   H14T11301   6.205   5.872  -0.939  0.0948  0.4226  0.3185
  110OSM   C15S11302   6.273   5.667  -0.944 -0.7085 -0.0398 -0.6796
  110OSM   H15S11303   6.175   5.618  -0.927 -1.1010  0.9166 -0.1101
  110OSM   H15T11304   6.353   5.604  -0.901 -0.4611 -0.1037 -1.2223
  110OSM   C16S11305   6.305   5.660  -1.092 -0.0867 -0.5924  0.1308
  110OSM   H16S11306   6.408   5.704  -1.092  0.1945 -1.0984  2.8151
  110OSM   H16T11307   6.238   5.736  -1.139 -1.4843 -1.7039  0.2609
  110OSM   C17S11308   6.318   5.532  -1.160  0.2223 -0.1997  0.2085
  110OSM   H17S11309   6.219   5.482  -1.165  0.2220 -0.4005  1.8779
  110OSM   H17T11310   6.386   5.472  -1.096 -1.0825 -2.0850 -0.0805
  110OSM   C18S11311   6.382   5.558  -1.299  0.0399 -0.0418  0.4456
  110OSM   H18S11312   6.313   5.610  -1.368  1.5617  0.9037 -0.4013
  110OSM   H18T11313   6.396   5.461  -1.352  0.0923 -0.7661  1.7202
  110OSM   H18U11314   6.476   5.617  -1.298 -0.4179  0.7196  1.8797
  110OSM    C1F11315   5.948   6.603   0.217  0.4909 -0.0961  0.4942
  110OSM     OF11316   5.967   6.700   0.287 -0.5254  0.0587  0.3129
  110OSM    C2F11317   5.835   6.596   0.123  0.0847  0.2982  0.0348
  110OSM    H2F11318   5.760   6.526   0.165  0.2342  1.2305  1.9813
  110OSM    H2G11319   5.871   6.547   0.030 -0.7703  0.8464 -0.6063
  110OSM    C3F11320   5.772   6.731   0.084  0.4334 -0.5371 -0.4449
  110OSM    H3F11321   5.845   6.799   0.035 -0.7921  1.1393 -0.0407
  110OSM    H3G11322   5.745   6.787   0.176  3.1393 -0.6519  0.5292
  110OSM    C4F11323   5.654   6.713  -0.018 -0.6616 -0.3590 -0.5972
  110OSM    H4F11324   5.566   6.779   0.003  0.0179 -0.1756  2.0685
  110OSM    H4G11325   5.613   6.611  -0.004 -0.8097  0.0221  2.2573
  110OSM    C5F11326   5.691   6.713  -0.168  0.0997 -0.5036 -0.5382
  110OSM    H5F11327   5.771   6.636  -0.181  0.2382  0.0636 -3.9432
  110OSM    H5G11328   5.725   6.816  -0.189 -2.2647  1.0024  2.3229
  110OSM    C6F11329   5.585   6.674  -0.276  0.3199  0.2931 -0.7260
  110OSM    H6F11330   5.499   6.745  -0.275 -0.2553 -0.3802 -1.6143
  110OSM    H6G11331   5.544   6.572  -0.263  3.1471 -0.6456  1.9918
  110OSM    C7F11332   5.650   6.682  -0.416 -0.0094  0.7177 -0.0717
  110OSM    H7F11333   5.740   6.616  -0.411 -1.3974 -1.2511  0.2798
  110OSM    H7G11334   5.680   6.785  -0.443 -0.2045  0.3785 -1.6597
  110OSM    C8F11335   5.561   6.637  -0.534 -0.5299 -0.1896 -0.6508
  110OSM    H8F11336   5.609   6.670  -0.628 -0.6044 -0.8434 -0.9249
  110OSM    H8G11337   5.471   6.702  -0.531  0.4152  1.1321  1.1132
  110OSM    C9F11338   5.535   6.488  -0.543  0.4251 -0.1487  0.0878
  110OSM    H9F11339   5.469   6.434  -0.473 -2.2061  0.3013 -1.8760
  110OSM   C10F11340   5.593   6.402  -0.630 -0.6645 -0.6052  0.7842
  110OSM   H10F11341   5.573   6.295  -0.612 -4.3256  0.0068  0.9876
  110OSM   C11F11342   5.701   6.428  -0.728  0.4611 -0.1613 -0.0680
  110OSM   H11F11343   5.785   6.359  -0.703  1.0352  0.3821 -0.4541
  110OSM   H11G11344   5.731   6.535  -0.732 -2.6798  0.7569 -2.2667
  110OSM   C12F11345   5.663   6.399  -0.882  0.7242 -0.7598 -0.2405
  110OSM   H12F11346   5.561   6.439  -0.894  1.3279  1.5266  1.4330
  110OSM   H12G11347   5.657   6.288  -0.887  1.3617 -0.9498  1.9397
  110OSM   C13F11348   5.761   6.455  -0.984  0.4397 -0.3506  0.1933
  110OSM   H13F11349   5.859   6.404  -0.993  0.9602  0.7888 -0.8583
  110OSM   H13G11350   5.780   6.560  -0.953 -0.7573  0.0217 -0.2798
  110OSM   C14F11351   5.715   6.449  -1.135 -0.1015 -0.3557  0.1119
  110OSM   H14F11352   5.609   6.481  -1.150 -0.6220 -1.5837  0.9517
  110OSM   H14G11353   5.726   6.344  -1.171 -0.0743 -0.2771 -0.1068
  110OSM   C15F11354   5.814   6.526  -1.214  0.1031  0.5028 -0.1486
  110OSM   H15F11355   5.918   6.489  -1.225  0.2882  1.4600 -2.2826
  110OSM   H15G11356   5.808   6.623  -1.160  0.5728  0.2412  0.3789
  110OSM   C16F11357   5.769   6.573  -1.354  0.7050  0.0800  0.6840
  110OSM   H16F11358   5.663   6.604  -1.359  1.0247  1.0268 -1.3436
  110OSM   H16G11359   5.778   6.489  -1.426 -0.5900 -0.2041  0.8307
  110OSM   C17F11360   5.869   6.678  -1.419  0.5132 -0.5171 -0.6779
  110OSM   H17F11361   5.959   6.618  -1.445  0.3315 -0.7204 -0.8424
  110OSM   H17G11362   5.894   6.744  -1.333 -1.9291  0.0312 -0.3227
  110OSM   C18F11363   5.815   6.757  -1.533  0.2447 -0.5675  0.0087
  110OSM   H18F11364   5.784   6.705  -1.626 -0.8324  0.9941 -0.5597
  110OSM   H18G11365   5.895   6.827  -1.568 -0.6706 -0.5590 -2.2015
  110OSM   H18H11366   5.729   6.822  -1.505  1.2337  1.7134 -1.8747
  111OSM      N11367   0.685   4.109   0.329  0.2772 -0.2085 -0.7651
  111OSM    C1511368   0.744   4.209   0.235  0.5647  0.1259 -1.4039
  111OSM   H15A11369   0.823   4.170   0.173  0.5006 -2.4825  0.0164
  111OSM   H15B11370   0.775   4.297   0.290 -2.3654  1.0538 -1.0727
  111OSM   H15C11371   0.662   4.233   0.170  0.1902  2.4401 -0.1761
  111OSM    C1411372   0.785   4.088   0.443 -0.1036 -0.2715 -0.2666
  111OSM   H14A11373   0.744   4.015   0.512 -0.6039  0.4268  0.1873
  111OSM   H14B11374   0.796   4.178   0.502 -1.6320 -0.2333  0.0144
  111OSM   H14C11375   0.885   4.055   0.419  1.2007  1.5804  2.1008
  111OSM    C1311376   0.560   4.158   0.391 -1.3232 -0.1555  0.1900
  111OSM   H13A11377   0.483   4.169   0.315 -1.2725 -3.5522 -0.5280
  111OSM   H13B11378   0.584   4.247   0.446  1.7522 -1.9627  2.0333
  111OSM   H13C11379   0.528   4.086   0.465  1.1669  0.2664  1.7660
  111OSM    C1211380   0.662   3.966   0.277 -0.1050 -0.3216  0.5781
  111OSM   H12A11381   0.613   3.903   0.350 -0.3613  0.5931  1.2055
  111OSM   H12B11382   0.759   3.918   0.275 -1.2671 -2.8612 -2.2088
  111OSM    C1111383   0.585   3.949   0.144  0.7054  0.1850  0.3560
  111OSM   H11A11384   0.599   3.843   0.114 -1.9986 -1.2755  3.5971
  111OSM   H11B11385   0.624   4.015   0.063  1.0182  0.3093  0.6089
  111OSM      P11386   0.362   4.088   0.071  0.2008 -0.4680  0.4268
  111OSM    O1311387   0.226   4.028   0.075 -0.0048 -0.1626 -0.1219
  111OSM    O1411388   0.379   4.224   0.113  0.3534 -0.1028 -0.3533
  111OSM    O1111389   0.431   4.069  -0.073 -0.1205  0.7722  0.3895
  111OSM    O1211390   0.446   3.987   0.165 -0.3477 -0.3693 -0.5438
  111OSM    C1S11391   0.409   3.940  -0.134  0.1178  0.5600  1.0666
  111OSM    H1S11392   0.300   3.922  -0.132  0.4432 -1.8548 -0.0211
  111OSM    H1T11393   0.460   3.861  -0.076 -0.3582 -0.4419  0.1522
  111OSM     NF11394   0.416   3.829  -0.361 -0.6668 -0.1073  0.8561
  111OSM    HNF11395   0.482   3.759  -0.388 -1.2978 -0.6026  0.5764
  111OSM    C2S11396   0.458   3.949  -0.279  0.1446 -0.2305 -0.4140
  111OSM    H2S11397   0.410   4.037  -0.327  0.2605 -1.4991 -3.0444
  111OSM    C3S11398   0.612   3.975  -0.286 -0.9715  0.3112 -0.3651
  111OSM    H3S11399   0.662   3.891  -0.234 -0.5522  0.6350 -0.2409
  111OSM     O311400   0.644   4.094  -0.214  0.7973  0.1160 -0.0440
  111OSM    HO311401   0.559   4.106  -0.171  1.2014 -1.2047  1.1921
  111OSM    C4S11402   0.667   3.987  -0.420  0.2485 -0.0393 -0.3296
  111OSM    H4S11403   0.623   4.068  -0.481 -0.1123 -1.6393 -2.2771
  111OSM    C5S11404   0.748   3.905  -0.480  0.0851 -0.4911  0.8298
  111OSM    H5S11405   0.784   3.811  -0.436  0.0273 -1.5977 -1.3862
  111OSM    C6S11406   0.795   3.917  -0.623  0.3868  0.4178  0.2919
  111OSM    H6S11407   0.719   3.866  -0.688  0.9286  0.7722 -0.6406
  111OSM    H6T11408   0.895   3.870  -0.637  0.5022  0.7017  0.1701
  111OSM    C7S11409   0.811   4.061  -0.679  0.0251  0.0806 -0.6867
  111OSM    H7S11410   0.910   4.106  -0.657  0.5995 -1.1152 -0.7222
  111OSM    H7T11411   0.728   4.129  -0.650  0.6462  2.1677 -3.4108
  111OSM    C8S11412   0.810   4.068  -0.832  0.1839  0.1026  0.3009
  111OSM    H8S11413   0.711   4.033  -0.868 -1.2223  2.0683  2.0728
  111OSM    H8T11414   0.889   4.010  -0.885 -0.2900 -0.1860 -0.0995
  111OSM    C9S11415   0.826   4.209  -0.886 -0.2878  0.9207 -0.7446
  111OSM    H9S11416   0.923   4.247  -0.849  0.4625 -0.1104 -1.6069
  111OSM    H9T11417   0.743   4.272  -0.849 -1.6499  0.1147 -2.2627
  111OSM   C10S11418   0.824   4.210  -1.033  0.6814 -0.1078  0.2942
  111OSM   H10S11419   0.722   4.186  -1.070  0.2167  0.6225  1.0573
  111OSM   H10T11420   0.868   4.114  -1.066 -1.0548 -0.9655  0.3762
  111OSM   C11S11421   0.866   4.336  -1.105 -0.1898  0.1147 -0.1777
  111OSM   H11S11422   0.943   4.390  -1.046  1.1178 -2.3918  0.5718
  111OSM   H11T11423   0.782   4.405  -1.131  0.2019 -0.3750 -3.1046
  111OSM   C12S11424   0.955   4.301  -1.225 -1.1828 -0.3421  0.5142
  111OSM   H12S11425   1.053   4.265  -1.188 -0.1547  0.9087 -0.8640
  111OSM   H12T11426   0.975   4.402  -1.267  1.3696 -1.2689 -0.7329
  111OSM   C13S11427   0.892   4.206  -1.319 -0.3958  0.2061  0.5712
  111OSM   H13S11428   0.785   4.230  -1.337 -0.4748 -0.7565 -0.3623
  111OSM   H13T11429   0.894   4.098  -1.295 -1.3224  0.1447  0.4228
  111OSM   C14S11430   0.962   4.216  -1.467  0.6414 -1.1828 -0.3234
  111OSM   H14S11431   1.072   4.202  -1.463  0.9486  1.0638  1.6812
  111OSM   H14T11432   0.941   4.319  -1.504 -1.7365 -1.7565 -0.7485
  111OSM   C15S11433   0.900   4.109  -1.560 -0.0209  0.3899  0.0669
  111OSM   H15S11434   0.887   4.013  -1.506 -0.8149  0.9401  0.9025
  111OSM   H15T11435   0.973   4.100  -1.642  0.8934  1.8777  0.6729
  111OSM   C16S11436   0.767   4.149  -1.614  0.0218  0.1817 -0.5257
  111OSM   H16S11437   0.770   4.256  -1.645  0.3004  0.6070  0.9033
  111OSM   H16T11438   0.697   4.142  -1.527 -1.5920  1.8392 -1.5967
  111OSM   C17S11439   0.717   4.074  -1.735  0.6232 -0.2495 -0.2781
  111OSM   H17S11440   0.719   3.968  -1.703 -0.4613 -0.1553  0.1649
  111OSM   H17T11441   0.790   4.082  -1.818  0.2995  0.1772 -0.5285
  111OSM   C18S11442   0.579   4.102  -1.777 -0.5447 -0.1750 -0.5311
  111OSM   H18S11443   0.540   4.027  -1.849 -0.1106 -0.8275 -0.0926
  111OSM   H18T11444   0.575   4.201  -1.826 -0.8212 -0.2187 -0.5996
  111OSM   H18U11445   0.516   4.112  -1.686  1.6339 -0.3190  1.0566
  111OSM    C1F11446   0.286   3.812  -0.385 -0.1812  0.3364 -0.1190
  111OSM     OF11447   0.198   3.889  -0.340 -0.5165 -0.6370  1.0494
  111OSM    C2F11448   0.245   3.689  -0.464  0.2891 -0.1009  0.5816
  111OSM    H2F11449   0.155   3.645  -0.416 -0.4055 -1.2354 -1.6504
  111OSM    H2G11450   0.319   3.607  -0.456 -0.9818 -1.2507  0.9960
  111OSM    C3F11451   0.219   3.717  -0.613 -0.6025 -0.3979 -0.1777
  111OSM    H3F11452   0.144   3.798  -0.633  1.8516  1.9459 -0.4641
  111OSM    H3G11453   0.177   3.628  -0.664 -0.6495 -0.0363 -0.7739
  111OSM    C4F11454   0.346   3.765  -0.684 -0.1076  0.2935 -0.5252
  111OSM    H4F11455   0.431   3.695  -0.667  1.2871  1.7174 -1.3527
  111OSM    H4G11456   0.389   3.863  -0.655  2.2365 -0.2574 -1.8429
  111OSM    C5F11457   0.323   3.777  -0.834 -0.6568 -0.4220  1.2761
  111OSM    H5F11458   0.247   3.852  -0.866 -0.5671 -1.0474 -0.5031
  111OSM    H5G11459   0.277   3.688  -0.882 -1.2776  0.4510  0.2033
  111OSM    C6F11460   0.452   3.810  -0.917  0.3118  0.4847  1.0756
  111OSM    H6F11461   0.522   3.724  -0.908 -1.9728 -1.6645 -0.2303
  111OSM    H6G11462   0.501   3.902  -0.879  2.9878 -0.4420  0.1590
  111OSM    C7F11463   0.431   3.838  -1.068  0.0136 -0.2711 -0.5969
  111OSM    H7F11464   0.358   3.919  -1.089 -1.9050 -1.7696 -0.0186
  111OSM    H7G11465   0.390   3.746  -1.117 -0.7748 -1.4239  2.0620
  111OSM    C8F11466   0.564   3.878  -1.136  0.2720  0.2057 -0.8015
  111OSM    H8F11467   0.630   3.790  -1.116 -0.7869 -0.3756  0.2570
  111OSM    H8G11468   0.610   3.964  -1.083  0.5790 -0.5983  0.2865
  111OSM    C9F11469   0.549   3.899  -1.287 -0.0395  0.0188 -0.3456
  111OSM    H9F11470   0.469   3.968  -1.316  0.5568  1.0771  0.4799
  111OSM   C10F11471   0.639   3.851  -1.374  0.7129  0.6390 -0.6561
  111OSM   H10F11472   0.623   3.872  -1.481  2.0876 -2.0166 -1.4547
  111OSM   C11F11473   0.751   3.751  -1.353 -0.1496 -0.0432  1.4280
  111OSM   H11F11474   0.761   3.709  -1.251  3.3413 -0.4861  1.0333
  111OSM   H11G11475   0.845   3.803  -1.382 -1.1806  0.5440 -1.1161
  111OSM   C12F11476   0.733   3.638  -1.461 -1.0315  1.0159 -0.4803
  111OSM   H12F11477   0.624   3.618  -1.469 -1.1614  0.3520  2.1061
  111OSM   H12G11478   0.786   3.552  -1.413 -1.0769  2.4607  2.3660
  111OSM   C13F11479   0.788   3.666  -1.599 -0.1371  1.7191  0.1100
  111OSM   H13F11480   0.896   3.664  -1.573 -0.7073  1.1259  2.6855
  111OSM   H13G11481   0.760   3.767  -1.635  1.4213  0.6174 -4.9524
  111OSM   C14F11482   0.757   3.558  -1.701 -0.1679 -0.5731 -1.4554
  111OSM   H14F11483   0.649   3.552  -1.726  0.1897 -1.3602 -2.9238
  111OSM   H14G11484   0.783   3.454  -1.671 -0.9789 -0.2024  0.7547
  111OSM   C15F11485   0.813   3.590  -1.833  0.0346 -0.7530 -0.9350
  111OSM   H15F11486   0.924   3.582  -1.835  0.0344 -0.6856 -1.2674
  111OSM   H15G11487   0.783   3.694  -1.859 -1.1428 -1.1422 -1.1456
  111OSM   C16F11488   0.771   3.494  -1.945 -0.2362 -0.6391 -0.1786
  111OSM   H16F11489   0.814   3.539  -2.037 -0.2938 -0.8755 -0.3210
  111OSM   H16G11490   0.660   3.494  -1.946 -0.2559 -1.7076 -2.1285
  111OSM   C17F11491   0.834   3.353  -1.919  0.4961 -0.0287  0.0968
  111OSM   H17F11492   0.763   3.283  -1.871 -1.0922  0.9090 -0.7936
  111OSM   H17G11493   0.918   3.360  -1.848 -0.2958  0.8357  0.9858
  111OSM   C18F11494   0.873   3.301  -2.061  0.2433 -0.1598 -0.4018
  111OSM   H18F11495   0.920   3.200  -2.054 -0.2322 -0.2894  1.7028
  111OSM   H18G11496   0.940   3.373  -2.112  1.7643 -2.5259 -1.9745
  111OSM   H18H11497   0.787   3.292  -2.131  0.3532 -3.2345 -0.3097
  112OSM      N11498   2.490   2.004   0.096 -0.2537  0.2401  0.0949
  112OSM    C1511499   2.476   2.098   0.213 -0.6950 -0.5305 -0.2809
  112OSM   H15A11500   2.517   2.197   0.200  2.1042 -0.7636  4.5322
  112OSM   H15B11501   2.523   2.050   0.297  0.5293  0.6389 -0.2632
  112OSM   H15C11502   2.370   2.103   0.233 -1.2107 -3.5223 -1.7321
  112OSM    C1411503   2.396   1.905   0.111  0.2385  0.1811 -0.0013
  112OSM   H14A11504   2.403   1.842   0.199  1.4519 -2.1310 -1.6412
  112OSM   H14B11505   2.396   1.833   0.030  1.7661 -2.4085  2.1237
  112OSM   H14C11506   2.295   1.944   0.108 -0.2186 -0.9811 -0.3077
  112OSM    C1311507   2.457   2.082  -0.027  0.1707  1.0160 -0.1341
  112OSM   H13A11508   2.454   2.010  -0.108 -2.4726 -0.1345  0.8566
  112OSM   H13B11509   2.525   2.165  -0.039  0.6050  0.5505 -1.0405
  112OSM   H13C11510   2.353   2.107  -0.014 -0.8377 -2.7147  0.1453
  112OSM    C1211511   2.630   1.949   0.094  0.1743  0.9084 -0.0910
  112OSM   H12A11512   2.645   1.872   0.169 -2.4462 -1.0768 -1.4356
  112OSM   H12B11513   2.700   2.029   0.114  0.9606 -0.1183  1.4763
  112OSM    C1111514   2.680   1.883  -0.043 -0.4566  0.2576 -0.0934
  112OSM   H11A11515   2.790   1.867  -0.030 -0.7127  0.2135  2.9483
  112OSM   H11B11516   2.670   1.954  -0.128  3.3149  0.4890 -0.5563
  112OSM      P11517   2.634   1.643   0.034 -0.0491  0.6468 -0.4028
  112OSM    O1311518   2.736   1.668   0.133  0.2471  0.1936 -0.1848
  112OSM    O1411519   2.503   1.605   0.091  0.0727 -0.4218  0.0737
  112OSM    O1111520   2.678   1.533  -0.070  0.3153  0.1335 -0.1097
  112OSM    O1211521   2.614   1.760  -0.068 -0.8417  0.4154 -0.0952
  112OSM    C1S11522   2.591   1.491  -0.174 -0.0333  0.5292  0.2215
  112OSM    H1S11523   2.512   1.568  -0.188  0.3429  1.1246  1.2461
  112OSM    H1T11524   2.547   1.393  -0.144 -0.5049  1.1032  1.4935
  112OSM     NF11525   2.568   1.420  -0.416  0.3759 -0.2195  0.3678
  112OSM    HNF11526   2.581   1.332  -0.463 -0.9089  0.4988 -1.4532
  112OSM    C2S11527   2.663   1.464  -0.315 -0.0802 -0.3177  0.3237
  112OSM    H2S11528   2.707   1.556  -0.359 -2.4843 -0.5565 -2.9631
  112OSM    C3S11529   2.768   1.353  -0.291 -0.4029  0.0073 -0.5671
  112OSM    H3S11530   2.717   1.259  -0.263  1.3031 -0.3252  1.7701
  112OSM     O311531   2.862   1.395  -0.186  0.5728  0.2681 -0.5642
  112OSM    HO311532   2.802   1.457  -0.144 -3.8030 -2.6081 -1.7818
  112OSM    C4S11533   2.849   1.333  -0.421  0.9661  0.0724  0.3827
  112OSM    H4S11534   2.809   1.251  -0.482  3.2925  0.0677 -1.2416
  112OSM    C5S11535   2.966   1.378  -0.470 -0.5276 -0.7555 -0.4533
  112OSM    H5S11536   3.016   1.445  -0.397 -4.9462  1.5025  0.8581
  112OSM    C6S11537   3.047   1.346  -0.595 -0.3406 -0.5970  0.6718
  112OSM    H6S11538   3.121   1.272  -0.558  0.0749 -0.1572  0.7378
  112OSM    H6T11539   3.093   1.438  -0.638 -2.3216  0.8419  1.4738
  112OSM    C7S11540   2.973   1.268  -0.707 -0.5275  0.4633 -0.9142
  112OSM    H7S11541   2.884   1.327  -0.737 -0.1959  0.4245 -1.9884
  112OSM    H7T11542   2.935   1.171  -0.667 -1.4241  0.8933 -0.6949
  112OSM    C8S11543   3.061   1.242  -0.833  0.0308  0.0445  0.8460
  112OSM    H8S11544   3.140   1.172  -0.799  1.3007  1.4583  0.8869
  112OSM    H8T11545   3.114   1.336  -0.858 -0.3224  0.6117  2.1381
  112OSM    C9S11546   2.988   1.174  -0.950  0.6818 -0.3025 -0.3898
  112OSM    H9S11547   2.892   1.228  -0.966 -0.0167 -1.1843  0.6660
  112OSM    H9T11548   2.968   1.065  -0.938  1.6169 -0.4794 -0.3275
  112OSM   C10S11549   3.069   1.188  -1.084 -0.2355 -0.6700  0.7624
  112OSM   H10S11550   3.171   1.149  -1.063  0.9370  2.5825  1.6302
  112OSM   H10T11551   3.075   1.297  -1.102  1.5680 -0.9114 -0.3654
  112OSM   C11S11552   3.003   1.140  -1.214 -0.0077  0.5546 -0.2734
  112OSM   H11S11553   2.915   1.203  -1.241 -0.9437 -0.3650  0.5249
  112OSM   H11T11554   2.951   1.043  -1.195 -2.2783  2.0639  1.8412
  112OSM   C12S11555   3.108   1.144  -1.333  0.1631  0.0870 -0.3545
  112OSM   H12S11556   3.184   1.067  -1.309 -0.4685 -0.7901 -1.1277
  112OSM   H12T11557   3.161   1.242  -1.336  1.3792 -0.3531  2.8638
  112OSM   C13S11558   3.068   1.084  -1.466  0.1299 -0.5017 -0.0013
  112OSM   H13S11559   3.013   1.159  -1.525 -2.0819 -2.4429 -0.5627
  112OSM   H13T11560   2.983   1.013  -1.459 -0.0431 -0.3789 -0.7901
  112OSM   C14S11561   3.188   1.035  -1.553  0.1637 -0.6548  0.0440
  112OSM   H14S11562   3.223   0.934  -1.522  2.8510  0.6121  1.4357
  112OSM   H14T11563   3.280   1.098  -1.550 -1.2071  1.4268  0.4663
  112OSM   C15S11564   3.136   1.026  -1.693 -0.1538 -0.3206  0.5183
  112OSM   H15S11565   3.090   1.123  -1.718  2.2622  0.3439 -1.8668
  112OSM   H15T11566   3.065   0.941  -1.703  1.3599 -1.7954  1.7499
  112OSM   C16S11567   3.254   0.984  -1.795  0.7190  0.2565 -0.8593
  112OSM   H16S11568   3.287   0.880  -1.776 -2.1144 -0.7479 -0.9968
  112OSM   H16T11569   3.342   1.048  -1.772  0.6429 -0.8211  3.2289
  112OSM   C17S11570   3.209   1.015  -1.935  0.1540  0.2944  0.2348
  112OSM   H17S11571   3.198   1.125  -1.940 -0.6823  0.2182  0.3538
  112OSM   H17T11572   3.107   0.972  -1.943 -0.5492  1.3929  2.5133
  112OSM   C18S11573   3.302   0.951  -2.035 -0.0219 -0.0804 -0.2715
  112OSM   H18S11574   3.255   0.955  -2.135  0.4866  0.0677 -0.5078
  112OSM   H18T11575   3.316   0.844  -2.006 -2.2825 -0.4811 -0.4256
  112OSM   H18U11576   3.405   0.990  -2.028  0.4399 -1.4181  1.2641
  112OSM    C1F11577   2.484   1.505  -0.478  0.5156  0.5828  0.4337
  112OSM     OF11578   2.461   1.617  -0.427 -0.5946 -0.2308 -0.1608
  112OSM    C2F11579   2.431   1.470  -0.613 -0.5126  0.5257  0.5416
  112OSM    H2F11580   2.333   1.513  -0.644 -0.5544 -0.1558 -0.3003
  112OSM    H2G11581   2.426   1.360  -0.626 -4.3996  0.6915 -0.6029
  112OSM    C3F11582   2.528   1.528  -0.720 -0.2619 -0.2055 -0.3297
  112OSM    H3F11583   2.628   1.480  -0.714  0.2988  0.6403 -2.2290
  112OSM    H3G11584   2.536   1.638  -0.708  0.1840 -0.0686 -1.6634
  112OSM    C4F11585   2.479   1.496  -0.865  0.1287  0.4058 -0.5018
  112OSM    H4F11586   2.376   1.525  -0.894  0.9691  2.8822 -1.2961
  112OSM    H4G11587   2.487   1.387  -0.881 -3.0080  0.2059 -1.2817
  112OSM    C5F11588   2.572   1.573  -0.969  1.3434  0.1277  0.0784
  112OSM    H5F11589   2.671   1.584  -0.920  0.6247  2.4790  1.2020
  112OSM    H5G11590   2.539   1.678  -0.991 -1.6559 -1.3545 -3.7651
  112OSM    C6F11591   2.574   1.492  -1.098  0.1315 -0.4370  0.1676
  112OSM    H6F11592   2.584   1.384  -1.075  1.5812 -0.7147 -1.5852
  112OSM    H6G11593   2.671   1.517  -1.146 -0.2751  1.1498  0.1170
  112OSM    C7F11594   2.469   1.542  -1.198  0.1416  0.0450 -0.0975
  112OSM    H7F11595   2.472   1.652  -1.214  3.7429 -0.1439 -1.6241
  112OSM    H7G11596   2.375   1.532  -1.140  0.2008 -1.1177 -0.1749
  112OSM    C8F11597   2.453   1.451  -1.326  0.2414  1.0099  0.1356
  112OSM    H8F11598   2.448   1.345  -1.294  2.3099  1.2020  1.3167
  112OSM    H8G11599   2.543   1.451  -1.391 -0.3257 -0.9822 -0.7076
  112OSM    C9F11600   2.331   1.492  -1.402  0.4497  0.1240 -0.0649
  112OSM    H9F11601   2.251   1.531  -1.337  1.5737  1.8388  0.3576
  112OSM   C10F11602   2.321   1.506  -1.536 -1.2310 -0.1221  0.0633
  112OSM   H10F11603   2.228   1.545  -1.581 -1.0871 -0.5476 -0.6242
  112OSM   C11F11604   2.417   1.461  -1.642 -0.6372  0.4687 -0.0767
  112OSM   H11F11605   2.381   1.362  -1.677 -1.8352  0.4412  1.1236
  112OSM   H11G11606   2.514   1.438  -1.593 -1.3407 -0.3422  1.0077
  112OSM   C12F11607   2.436   1.558  -1.768  0.0243  0.6168 -0.0204
  112OSM   H12F11608   2.447   1.660  -1.725  0.4403  0.6960 -0.3063
  112OSM   H12G11609   2.344   1.550  -1.831  0.5454 -2.6080 -0.5485
  112OSM   C13F11610   2.556   1.532  -1.862  0.2371  0.7635  0.2554
  112OSM   H13F11611   2.648   1.517  -1.801 -0.1762 -2.0241  0.3176
  112OSM   H13G11612   2.569   1.614  -1.936  0.8330  0.5227  0.0820
  112OSM   C14F11613   2.518   1.400  -1.944  0.0307 -0.9548 -0.6872
  112OSM   H14F11614   2.428   1.426  -2.004 -0.0393  1.1817  0.2394
  112OSM   H14G11615   2.493   1.315  -1.878 -1.5084 -0.5260 -0.6690
  112OSM   C15F11616   2.637   1.343  -2.025 -0.6240 -0.5015 -0.1012
  112OSM   H15F11617   2.598   1.251  -2.073 -2.8634 -0.1320  0.9049
  112OSM   H15G11618   2.723   1.316  -1.960 -0.6358 -0.1608  0.0588
  112OSM   C16F11619   2.703   1.446  -2.118 -0.1903 -0.2834 -0.2456
  112OSM   H16F11620   2.718   1.546  -2.071 -0.0677 -1.5220  2.4988
  112OSM   H16G11621   2.626   1.464  -2.197  0.5892 -1.5972 -1.3555
  112OSM   C17F11622   2.823   1.395  -2.198 -0.3370 -0.5231 -0.0791
  112OSM   H17F11623   2.822   1.456  -2.290 -0.8193  0.1650  0.3735
  112OSM   H17G11624   2.815   1.287  -2.219  1.1201 -0.6315 -0.2026
  112OSM   C18F11625   2.953   1.427  -2.123  0.7194 -0.5735  0.1611
  112OSM   H18F11626   2.952   1.388  -2.019  1.4450 -1.3436 -0.1059
  112OSM   H18G11627   2.984   1.534  -2.126  1.4119 -0.7914 -0.6509
  112OSM   H18H11628   3.044   1.382  -2.169  1.0877 -0.2335  0.5436
  113OSM      N11629   5.312   3.850   0.330  0.2005  0.1966 -0.1767
  113OSM    C1511630   5.329   3.722   0.409  0.0391 -0.0403 -0.0760
  113OSM   H15A11631   5.336   3.640   0.340 -1.6904  0.6397 -1.1318
  113OSM   H15B11632   5.238   3.702   0.465 -0.1460 -1.1084 -0.7403
  113OSM   H15C11633   5.418   3.721   0.470 -1.3846 -0.2135  2.1073
  113OSM    C1411634   5.262   3.962   0.430 -0.0835  0.6494 -0.0921
  113OSM   H14A11635   5.341   4.001   0.492 -2.3293  1.3011  2.5275
  113OSM   H14B11636   5.185   3.917   0.492  0.4449  1.6934  1.3629
  113OSM   H14C11637   5.216   4.044   0.378  0.5010  0.9845 -0.0827
  113OSM    C1311638   5.456   3.876   0.288  0.2031  0.7614 -0.3935
  113OSM   H13A11639   5.490   3.797   0.222 -2.1071 -0.3604 -0.3195
  113OSM   H13B11640   5.529   3.875   0.367 -0.3904 -0.0914  0.1634
  113OSM   H13C11641   5.473   3.969   0.235 -0.6939  1.0457 -0.1934
  113OSM    C1211642   5.217   3.830   0.214  1.1112 -0.2932  1.0565
  113OSM   H12A11643   5.218   3.914   0.145 -0.3208  0.2045  1.6045
  113OSM   H12B11644   5.115   3.820   0.249  0.3403  1.5484 -0.4431
  113OSM    C1111645   5.236   3.706   0.111  0.2293  1.1605 -0.2073
  113OSM   H11A11646   5.337   3.721   0.065  1.3925 -3.3328  0.3275
  113OSM   H11B11647   5.173   3.715   0.021  0.6067 -0.5862 -0.6986
  113OSM      P11648   5.289   3.452   0.100  0.0432 -0.2206 -0.2663
  113OSM    O1311649   5.362   3.379   0.204 -0.4821  0.9830 -0.2936
  113OSM    O1411650   5.185   3.380   0.020  0.5424 -0.0044 -0.7988
  113OSM    O1111651   5.381   3.512  -0.012  0.1764 -0.4729 -0.1054
  113OSM    O1211652   5.227   3.576   0.174  0.0390 -0.5678 -0.1166
  113OSM    C1S11653   5.464   3.442  -0.101  0.4346 -0.4171 -0.1919
  113OSM    H1S11654   5.411   3.361  -0.154  1.4703 -1.8081  0.8167
  113OSM    H1T11655   5.548   3.401  -0.040  0.1146 -1.1202 -0.2218
  113OSM     NF11656   5.566   3.470  -0.324  0.7568  0.3369 -0.6660
  113OSM    HNF11657   5.649   3.415  -0.317 -0.8160 -2.2942 -1.3432
  113OSM    C2S11658   5.517   3.543  -0.207 -0.1730  0.3631  0.8182
  113OSM    H2S11659   5.436   3.613  -0.238  0.1193  0.2447 -0.2800
  113OSM    C3S11660   5.631   3.624  -0.142  0.2910  0.9230 -0.9259
  113OSM    H3S11661   5.717   3.554  -0.130  1.2814  1.9049 -2.0492
  113OSM     O311662   5.601   3.678  -0.014 -0.5598  0.7148  0.0040
  113OSM    HO311663   5.522   3.625  -0.002 -1.2438  0.5280 -3.8983
  113OSM    C4S11664   5.681   3.733  -0.233  0.4596 -0.4005  0.6566
  113OSM    H4S11665   5.598   3.784  -0.283  0.8303 -1.2211 -0.8605
  113OSM    C5S11666   5.805   3.753  -0.284 -0.3528 -0.3322 -0.0833
  113OSM    H5S11667   5.887   3.687  -0.250 -0.1508 -0.6263 -1.0970
  113OSM    C6S11668   5.830   3.855  -0.392  0.8190 -0.8760  0.7481
  113OSM    H6S11669   5.809   3.809  -0.492  3.1631 -0.3819 -0.0395
  113OSM    H6T11670   5.936   3.888  -0.397  0.5210  0.0283  0.0392
  113OSM    C7S11671   5.755   3.992  -0.378 -0.2008  1.3615 -0.2975
  113OSM    H7S11672   5.806   4.032  -0.288 -0.4096 -1.6127  1.2350
  113OSM    H7T11673   5.646   3.974  -0.365 -0.1787 -0.1931 -1.8512
  113OSM    C8S11674   5.794   4.069  -0.504  0.0031 -0.0230 -0.0468
  113OSM    H8S11675   5.767   4.005  -0.590  2.5297 -0.6441 -0.4625
  113OSM    H8T11676   5.905   4.078  -0.498 -0.0861  1.2354  0.0335
  113OSM    C9S11677   5.725   4.208  -0.522 -0.5811  0.3579 -0.3514
  113OSM    H9S11678   5.757   4.274  -0.438  0.0529  0.5635 -0.7439
  113OSM    H9T11679   5.615   4.198  -0.517 -0.6344  1.1168  0.1896
  113OSM   C10S11680   5.767   4.278  -0.649 -0.4538 -0.4603  0.1436
  113OSM   H10S11681   5.878   4.275  -0.652  0.0154  5.1125  1.0295
  113OSM   H10T11682   5.744   4.387  -0.651  0.8688 -0.1614 -1.0209
  113OSM   C11S11683   5.713   4.216  -0.781  0.4605 -0.7079 -0.4855
  113OSM   H11S11684   5.602   4.222  -0.788  0.4663 -1.6756 -1.8583
  113OSM   H11T11685   5.748   4.111  -0.790  1.1920 -0.6486  1.3517
  113OSM   C12S11686   5.748   4.299  -0.899 -0.1854  0.4177  0.2872
  113OSM   H12S11687   5.858   4.313  -0.912 -0.6128  1.6035 -3.1954
  113OSM   H12T11688   5.706   4.402  -0.889 -2.7560 -0.4269 -0.9766
  113OSM   C13S11689   5.687   4.235  -1.032  0.0222 -0.6180  0.4483
  113OSM   H13S11690   5.595   4.177  -1.007 -1.3428  1.9895  1.8554
  113OSM   H13T11691   5.765   4.169  -1.075  1.0595 -0.1995  1.6084
  113OSM   C14S11692   5.648   4.338  -1.135  0.0559 -0.1413 -0.4761
  113OSM   H14S11693   5.739   4.395  -1.165 -1.2512  2.4778  0.2320
  113OSM   H14T11694   5.575   4.404  -1.083 -2.5313 -3.7234  0.8289
  113OSM   C15S11695   5.603   4.269  -1.261 -0.1067 -0.0328  0.1882
  113OSM   H15S11696   5.513   4.206  -1.242  0.7421 -1.0439  0.9843
  113OSM   H15T11697   5.674   4.197  -1.307 -0.4567 -0.7492  0.7487
  113OSM   C16S11698   5.552   4.378  -1.356  0.0993  0.9218  0.7298
  113OSM   H16S11699   5.495   4.457  -1.301  0.2943  1.4860  0.1361
  113OSM   H16T11700   5.479   4.333  -1.426  1.2558 -1.3675  0.9256
  113OSM   C17S11701   5.663   4.453  -1.424  0.3846 -0.4803 -0.0757
  113OSM   H17S11702   5.736   4.382  -1.467 -1.4213 -1.9158 -0.9084
  113OSM   H17T11703   5.718   4.522  -1.356 -2.0450  0.3881  1.1290
  113OSM   C18S11704   5.602   4.539  -1.541 -0.0401 -0.3431  0.0128
  113OSM   H18S11705   5.579   4.646  -1.520 -0.4542  0.1557 -2.5606
  113OSM   H18T11706   5.510   4.497  -1.586  0.0451 -0.8040  0.2724
  113OSM   H18U11707   5.683   4.535  -1.617 -0.6208  0.8959 -0.7137
  113OSM    C1F11708   5.476   3.419  -0.408 -0.1610  0.5405  0.1426
  113OSM     OF11709   5.359   3.430  -0.385  0.3907  0.4327  0.0074
  113OSM    C2F11710   5.531   3.354  -0.534 -0.0878  0.6624  0.0402
  113OSM    H2F11711   5.555   3.247  -0.516  1.1043  1.0541  1.0048
  113OSM    H2G11712   5.626   3.405  -0.563  0.3509  0.2572  0.7344
  113OSM    C3F11713   5.443   3.360  -0.658  0.5908 -0.6931  0.3256
  113OSM    H3F11714   5.418   3.468  -0.665  1.5927 -0.3358  1.7231
  113OSM    H3G11715   5.351   3.297  -0.653  0.8301 -1.1268 -0.4941
  113OSM    C4F11716   5.522   3.317  -0.781 -0.0852 -0.5818 -0.1727
  113OSM    H4F11717   5.571   3.222  -0.750  0.0924  0.8649  4.9168
  113OSM    H4G11718   5.603   3.393  -0.793 -1.6697  1.2109  0.0722
  113OSM    C5F11719   5.441   3.306  -0.906  0.2312  0.1740  0.4120
  113OSM    H5F11720   5.391   3.404  -0.920  1.8940  0.8875 -0.7968
  113OSM    H5G11721   5.352   3.239  -0.898 -0.3517  1.0282  1.5168
  113OSM    C6F11722   5.525   3.274  -1.035  0.4073 -0.7900 -0.1067
  113OSM    H6F11723   5.574   3.175  -1.023 -0.2056 -0.9353  1.2284
  113OSM    H6G11724   5.592   3.355  -1.073 -0.6808 -0.4474 -1.3780
  113OSM    C7F11725   5.437   3.257  -1.165 -0.1727  0.3929  0.6885
  113OSM    H7F11726   5.373   3.345  -1.186 -1.3932 -0.1083  2.1030
  113OSM    H7G11727   5.362   3.175  -1.159  0.6548 -0.7737 -2.7624
  113OSM    C8F11728   5.514   3.240  -1.292 -0.5748 -0.0448  0.3408
  113OSM    H8F11729   5.572   3.334  -1.303 -0.5094  0.0415  1.2973
  113OSM    H8G11730   5.441   3.240  -1.376 -0.8871 -0.2232  0.6088
  113OSM    C9F11731   5.603   3.118  -1.285 -0.6274 -0.3867 -0.3814
  113OSM    H9F11732   5.637   3.077  -1.188  0.6654 -1.3476 -1.2098
  113OSM   C10F11733   5.645   3.047  -1.390  0.0542  0.6993  0.0214
  113OSM   H10F11734   5.695   2.953  -1.366 -0.9651 -0.0136 -0.5638
  113OSM   C11F11735   5.624   3.072  -1.535 -0.0230 -0.1358 -0.6593
  113OSM   H11F11736   5.619   3.182  -1.543  2.5034  0.2163  1.4008
  113OSM   H11G11737   5.527   3.025  -1.564 -1.3260  1.3877  0.9756
  113OSM   C12F11738   5.734   3.011  -1.624 -0.0286  0.1409  0.3832
  113OSM   H12F11739   5.730   2.900  -1.620 -0.7078  0.0729 -1.2529
  113OSM   H12G11740   5.830   3.049  -1.583  0.2858  0.3484 -0.5093
  113OSM   C13F11741   5.733   3.056  -1.771  0.2671 -0.1341  0.2525
  113OSM   H13F11742   5.777   3.157  -1.784 -1.5160  0.7868  0.9740
  113OSM   H13G11743   5.624   3.077  -1.782  0.6412  1.8178 -0.1808
  113OSM   C14F11744   5.790   2.947  -1.867 -0.2924 -0.5904 -0.1052
  113OSM   H14F11745   5.744   2.847  -1.851 -1.5803  0.0945  0.6029
  113OSM   H14G11746   5.898   2.933  -1.841 -0.5612 -1.2518  0.7232
  113OSM   C15F11747   5.799   2.990  -2.011 -0.3793 -1.3502 -0.5294
  113OSM   H15F11748   5.865   3.080  -2.014  2.0008 -2.9698  0.2001
  113OSM   H15G11749   5.697   3.025  -2.038  0.6613  0.4587 -2.4384
  113OSM   C16F11750   5.881   2.897  -2.103  0.9185 -0.7978 -0.0574
  113OSM   H16F11751   5.979   2.894  -2.050  0.3715  3.2669  1.5516
  113OSM   H16G11752   5.898   2.934  -2.206 -0.0648 -1.2428 -0.4007
  113OSM   C17F11753   5.812   2.756  -2.120  0.8529 -0.0492 -0.3522
  113OSM   H17F11754   5.710   2.762  -2.164  0.7493 -2.3262 -0.5467
  113OSM   H17G11755   5.783   2.718  -2.019 -0.5919 -1.2189 -1.1648
  113OSM   C18F11756   5.890   2.659  -2.203  0.5964  0.2573 -0.4657
  113OSM   H18F11757   5.834   2.564  -2.217 -2.7273  1.2554  3.9121
  113OSM   H18G11758   5.982   2.632  -2.147  1.1370 -0.3026 -1.5800
  113OSM   H18H11759   5.927   2.710  -2.295 -0.4666  2.2917  0.1873
  114OSM      N11760   4.347   2.210   0.518 -0.1322  0.2494 -0.1680
  114OSM    C1511761   4.431   2.099   0.574  0.5298 -0.0321  0.4134
  114OSM   H15A11762   4.533   2.101   0.537  0.5000  2.8755  0.3183
  114OSM   H15B11763   4.382   2.004   0.560 -2.0486  1.3392 -0.3680
  114OSM   H15C11764   4.425   2.120   0.679  0.3676 -1.1641  0.6468
  114OSM    C1411765   4.213   2.214   0.577  0.3024 -0.2223 -0.2150
  114OSM   H14A11766   4.218   2.223   0.685 -1.9086 -0.1845 -0.0739
  114OSM   H14B11767   4.159   2.121   0.575  1.8914 -1.2678  1.5115
  114OSM   H14C11768   4.153   2.291   0.532 -0.2671  1.6246  3.3028
  114OSM    C1311769   4.419   2.342   0.541  0.3871  0.6947  0.5603
  114OSM   H13A11770   4.444   2.362   0.644  0.4010  0.8290  0.5315
  114OSM   H13B11771   4.371   2.427   0.495  0.0084  0.6643  0.8941
  114OSM   H13C11772   4.512   2.343   0.486 -1.4328  0.4495 -2.8211
  114OSM    C1211773   4.323   2.190   0.367  0.2130 -0.3429 -1.0106
  114OSM   H12A11774   4.303   2.284   0.318 -0.9567 -0.4891 -0.8413
  114OSM   H12B11775   4.232   2.133   0.354 -0.4942 -0.0255  1.7664
  114OSM    C1111776   4.433   2.133   0.284  0.1636  0.3096 -0.3006
  114OSM   H11A11777   4.386   2.105   0.187  0.8523 -1.3457 -0.1879
  114OSM   H11B11778   4.473   2.035   0.319  1.9669  1.0663 -0.1608
  114OSM      P11779   4.543   2.335   0.176 -0.2846 -0.4782  0.1675
  114OSM    O1311780   4.430   2.420   0.203 -0.3384 -0.9772 -0.0283
  114OSM    O1411781   4.674   2.402   0.173 -0.0518  0.8063  0.0427
  114OSM    O1111782   4.531   2.262   0.038 -0.5031 -0.1431 -0.1131
  114OSM    O1211783   4.544   2.218   0.274 -0.1776 -0.1622  0.4220
  114OSM    C1S11784   4.637   2.169  -0.001 -0.0387 -0.4905  0.5212
  114OSM    H1S11785   4.642   2.081   0.066 -0.4564 -0.9267 -0.0151
  114OSM    H1T11786   4.730   2.225  -0.022 -1.5690  2.0306 -0.0873
  114OSM     NF11787   4.719   2.014  -0.168  0.7272 -0.0565 -0.6849
  114OSM    HNF11788   4.797   2.056  -0.214 -0.0492  2.6750  0.3027
  114OSM    C2S11789   4.609   2.102  -0.138 -0.1765 -0.0870 -0.5533
  114OSM    H2S11790   4.510   2.052  -0.134 -0.6691  0.9047  3.3001
  114OSM    C3S11791   4.609   2.217  -0.248  0.3629  0.3404  0.0712
  114OSM    H3S11792   4.712   2.259  -0.242  0.6340 -0.3882  0.6870
  114OSM     O311793   4.524   2.330  -0.225  0.4706  0.0423 -0.8528
  114OSM    HO311794   4.495   2.319  -0.134 -1.9534  1.4381 -1.3689
  114OSM    C4S11795   4.612   2.171  -0.388 -0.0192  1.1203 -0.2072
  114OSM    H4S11796   4.711   2.140  -0.423 -0.4483 -0.0034 -0.4848
  114OSM    C5S11797   4.509   2.157  -0.469 -0.1714 -0.0584  0.0996
  114OSM    H5S11798   4.410   2.184  -0.428  0.0208 -1.2307  1.4246
  114OSM    C6S11799   4.501   2.092  -0.607 -0.3835 -0.6121 -0.8976
  114OSM    H6S11800   4.445   2.161  -0.674  0.8431  2.1649  0.7755
  114OSM    H6T11801   4.438   2.002  -0.592 -1.5631  0.4232  0.5537
  114OSM    C7S11802   4.635   2.044  -0.673 -0.1767 -0.3369  0.2671
  114OSM    H7S11803   4.674   1.973  -0.596 -0.4221 -2.2779 -1.3080
  114OSM    H7T11804   4.717   2.113  -0.703  0.4898 -1.7829 -1.3962
  114OSM    C8S11805   4.599   1.954  -0.790  0.0122  0.2867  0.3335
  114OSM    H8S11806   4.499   1.908  -0.771 -1.0399  1.0954 -2.6206
  114OSM    H8T11807   4.683   1.882  -0.799  0.4909  0.5919  1.9321
  114OSM    C9S11808   4.592   2.041  -0.924  0.1076 -0.2336  0.5721
  114OSM    H9S11809   4.688   2.096  -0.919  0.4957 -0.8298 -0.0769
  114OSM    H9T11810   4.500   2.103  -0.910  0.6092  0.3763  1.2087
  114OSM   C10S11811   4.578   1.950  -1.056  0.2876 -0.3801  0.2487
  114OSM   H10S11812   4.514   1.861  -1.034  0.0504 -0.1247  0.6126
  114OSM   H10T11813   4.678   1.912  -1.084 -0.4848  0.2582 -4.0999
  114OSM   C11S11814   4.542   2.039  -1.182  0.0468  0.3755 -0.5325
  114OSM   H11S11815   4.617   2.120  -1.170  0.5613 -0.2289  0.5415
  114OSM   H11T11816   4.437   2.073  -1.190  0.2386  1.1532  0.0843
  114OSM   C12S11817   4.592   1.976  -1.315  0.0277 -0.0665  0.2844
  114OSM   H12S11818   4.533   1.884  -1.337  1.1892  0.0060 -4.0138
  114OSM   H12T11819   4.700   1.951  -1.316  0.4375  1.5812  1.0208
  114OSM   C13S11820   4.566   2.071  -1.429  0.0255 -0.9995  0.5404
  114OSM   H13S11821   4.619   2.167  -1.409 -1.5925  0.1028 -0.2647
  114OSM   H13T11822   4.457   2.090  -1.425 -0.1490 -1.9033  0.2840
  114OSM   C14S11823   4.622   2.012  -1.557 -0.6229 -0.0371  0.3040
  114OSM   H14S11824   4.560   1.923  -1.581  0.9841 -1.0518 -0.2714
  114OSM   H14T11825   4.730   1.990  -1.542 -0.1434  2.0697  0.3295
  114OSM   C15S11826   4.617   2.106  -1.680 -0.1405 -0.2700  0.8734
  114OSM   H15S11827   4.706   2.172  -1.668  1.3995 -2.5641  3.3728
  114OSM   H15T11828   4.523   2.164  -1.679  0.0351  0.0158  1.1173
  114OSM   C16S11829   4.609   2.024  -1.816 -0.7121  0.1384  0.1344
  114OSM   H16S11830   4.514   1.967  -1.823 -0.6427  0.1375 -1.0080
  114OSM   H16T11831   4.698   1.957  -1.823  1.1082  2.5642 -1.9676
  114OSM   C17S11832   4.623   2.106  -1.947  0.7915  0.9357 -0.1066
  114OSM   H17S11833   4.534   2.172  -1.951 -0.8493 -1.1784 -0.6224
  114OSM   H17T11834   4.620   2.036  -2.034  2.4549 -0.5551  0.9536
  114OSM   C18S11835   4.758   2.187  -1.963 -0.0798  0.1244 -0.8887
  114OSM   H18S11836   4.844   2.117  -1.959 -0.8893 -0.9165 -1.2030
  114OSM   H18T11837   4.759   2.258  -1.877 -2.4372 -0.0041 -0.6928
  114OSM   H18U11838   4.764   2.248  -2.056 -1.3562 -1.1454 -1.8308
  114OSM    C1F11839   4.732   1.894  -0.106  0.1045  0.4810 -0.6669
  114OSM     OF11840   4.664   1.856  -0.009  0.1903 -0.7208  0.1144
  114OSM    C2F11841   4.827   1.797  -0.167  0.3499  0.3032 -0.5369
  114OSM    H2F11842   4.839   1.821  -0.275 -0.9215  2.2394 -0.3006
  114OSM    H2G11843   4.773   1.701  -0.154  0.9362  0.0577  0.1772
  114OSM    C3F11844   4.959   1.768  -0.091  0.1114  0.0544  0.5556
  114OSM    H3F11845   4.927   1.737   0.011  1.3513 -0.5629  0.7753
  114OSM    H3G11846   5.011   1.865  -0.077 -0.2257  0.5190 -1.1423
  114OSM    C4F11847   5.052   1.658  -0.147 -0.9212  0.1663 -0.5841
  114OSM    H4F11848   5.001   1.561  -0.130  0.0631 -0.0535  1.3361
  114OSM    H4G11849   5.141   1.659  -0.080 -1.4308  2.5095  0.1658
  114OSM    C5F11850   5.102   1.669  -0.289  0.0770 -0.7645  0.3563
  114OSM    H5F11851   5.152   1.769  -0.290 -1.2552 -0.0076  2.4378
  114OSM    H5G11852   5.027   1.663  -0.371  2.4218 -0.4771 -1.9575
  114OSM    C6F11853   5.219   1.576  -0.323 -0.3455  0.3336  0.1975
  114OSM    H6F11854   5.187   1.470  -0.319  0.8018  0.0197  2.3501
  114OSM    H6G11855   5.303   1.580  -0.251 -0.6776 -0.3749  0.6381
  114OSM    C7F11856   5.268   1.612  -0.466  0.0596 -0.5014 -0.8648
  114OSM    H7F11857   5.331   1.699  -0.438  0.6915 -1.7097  1.7670
  114OSM    H7G11858   5.197   1.650  -0.542 -1.5384 -1.7623 -0.0750
  114OSM    C8F11859   5.368   1.504  -0.529 -0.0740  0.1563  0.1851
  114OSM    H8F11860   5.300   1.426  -0.570  0.7729 -0.3432 -0.3149
  114OSM    H8G11861   5.440   1.460  -0.456 -0.0390 -2.3570 -1.2466
  114OSM    C9F11862   5.456   1.549  -0.639 -0.6795  0.8090 -0.2266
  114OSM    H9F11863   5.526   1.627  -0.605 -0.5473  0.2109  0.9575
  114OSM   C10F11864   5.426   1.539  -0.769 -0.0609  0.4833  0.6242
  114OSM   H10F11865   5.506   1.576  -0.834  2.0801  0.6867  3.2022
  114OSM   C11F11866   5.322   1.447  -0.833 -0.2488  0.1523  0.6614
  114OSM   H11F11867   5.225   1.494  -0.808 -0.1479  0.2304  0.9076
  114OSM   H11G11868   5.333   1.348  -0.783  1.7798  0.1192  0.2425
  114OSM   C12F11869   5.331   1.423  -0.982  0.0174 -0.5184 -0.0884
  114OSM   H12F11870   5.309   1.522  -1.028 -0.0290 -0.7078 -0.4711
  114OSM   H12G11871   5.244   1.364  -1.016  0.6681 -1.0770 -0.7979
  114OSM   C13F11872   5.458   1.358  -1.034 -0.0646  0.1730 -0.1484
  114OSM   H13F11873   5.539   1.434  -1.021 -0.4362  0.5371  0.0868
  114OSM   H13G11874   5.456   1.363  -1.145 -3.1971  0.2469 -0.1767
  114OSM   C14F11875   5.488   1.218  -0.983  0.0557  0.2505 -0.2142
  114OSM   H14F11876   5.392   1.164  -0.965 -0.9154  2.2323  0.9511
  114OSM   H14G11877   5.544   1.232  -0.888  1.5369 -0.3651 -0.9609
  114OSM   C15F11878   5.571   1.137  -1.085  0.3796  0.3615  0.2596
  114OSM   H15F11879   5.676   1.171  -1.097  1.4692 -2.7185  0.0341
  114OSM   H15G11880   5.513   1.133  -1.179 -1.6281 -1.5650  1.4741
  114OSM   C16F11881   5.592   0.995  -1.028 -0.6519  0.4519 -0.7602
  114OSM   H16F11882   5.496   0.954  -0.992  0.1272 -0.9775 -0.2075
  114OSM   H16G11883   5.663   1.005  -0.943  0.7266  2.5283 -2.0516
  114OSM   C17F11884   5.658   0.910  -1.145 -0.2947  0.5393 -0.0741
  114OSM   H17F11885   5.745   0.968  -1.184  1.5135  0.2490  3.1475
  114OSM   H17G11886   5.588   0.907  -1.231 -1.3721 -0.8931  0.8058
  114OSM   C18F11887   5.693   0.771  -1.107  0.4653 -0.1282  0.2329
  114OSM   H18F11888   5.756   0.720  -1.182 -0.7522  0.4938 -1.2764
  114OSM   H18G11889   5.603   0.713  -1.076  0.1310  0.3001  0.0696
  114OSM   H18H11890   5.766   0.772  -1.023  0.1005  0.9957  0.5675
  115OSM      N11891   6.626   5.051   0.917  0.1708 -0.5803  0.1079
  115OSM    C1511892   6.625   4.914   0.858  0.0957  0.3445  0.2467
  115OSM   H15A11893   6.631   4.845   0.941  1.1192 -0.9014 -0.8295
  115OSM   H15B11894   6.703   4.901   0.785 -1.8533  1.4694 -2.1526
  115OSM   H15C11895   6.525   4.898   0.819 -0.5825 -0.8147  2.3136
  115OSM    C1411896   6.504   5.069   0.997  0.5647 -0.2145  0.1986
  115OSM   H14A11897   6.496   5.170   1.033 -0.0758  0.1482 -0.9339
  115OSM   H14B11898   6.516   5.013   1.089  0.6330 -1.6895 -0.6716
  115OSM   H14C11899   6.418   5.028   0.946  1.3594 -0.0239 -1.3373
  115OSM    C1311900   6.745   5.073   1.014  0.2410  0.8164  0.9509
  115OSM   H13A11901   6.742   5.176   1.045 -0.1818  1.3162 -0.6728
  115OSM   H13B11902   6.841   5.065   0.964 -0.9039  0.3338 -1.2587
  115OSM   H13C11903   6.748   5.006   1.099  1.8970 -0.4394 -0.0273
  115OSM    C1211904   6.631   5.155   0.801 -0.4010  0.8110 -0.1948
  115OSM   H12A11905   6.734   5.157   0.766 -0.1291 -0.4628  0.4735
  115OSM   H12B11906   6.607   5.251   0.846 -1.7231  0.0559  0.7702
  115OSM    C1111907   6.537   5.145   0.664  0.0493 -0.0772 -0.1348
  115OSM   H11A11908   6.566   5.053   0.609 -2.1351  0.8240 -3.0787
  115OSM   H11B11909   6.567   5.235   0.607  0.0852  0.4946  0.7612
  115OSM      P11910   6.305   5.266   0.674 -0.1136 -0.4888  0.1117
  115OSM    O1311911   6.166   5.223   0.687 -0.0136 -0.0049 -0.4523
  115OSM    O1411912   6.348   5.388   0.753 -0.1496  0.3324  0.0236
  115OSM    O1111913   6.320   5.306   0.524  0.3302  0.3874  0.5679
  115OSM    O1211914   6.399   5.141   0.699 -0.5430 -0.0648  0.3002
  115OSM    C1S11915   6.346   5.228   0.405 -0.2950  0.4124 -0.2849
  115OSM    H1S11916   6.351   5.119   0.424 -3.1296  0.4400  1.1845
  115OSM    H1T11917   6.446   5.259   0.369 -0.3088  2.0142  0.9561
  115OSM     NF11918   6.264   5.166   0.178  0.2997  0.4239 -0.1318
  115OSM    HNF11919   6.310   5.210   0.101  0.3042  3.6392  1.5282
  115OSM    C2S11920   6.241   5.251   0.296 -0.4183 -0.1900  0.3728
  115OSM    H2S11921   6.138   5.235   0.335  0.0327 -0.7368  1.3787
  115OSM    C3S11922   6.242   5.404   0.256  0.1676 -0.9387 -0.0451
  115OSM    H3S11923   6.342   5.426   0.212  0.9246  0.3398  2.1268
  115OSM     O311924   6.235   5.503   0.359 -0.0718 -0.2759  0.7371
  115OSM    HO311925   6.245   5.455   0.442  1.5074  0.2979  0.9001
  115OSM    C4S11926   6.136   5.427   0.145 -0.3760 -0.0953 -0.0632
  115OSM    H4S11927   6.171   5.390   0.048 -0.4046  0.0123 -0.1144
  115OSM    C5S11928   6.007   5.462   0.164 -0.2424  0.1370  0.1439
  115OSM    H5S11929   5.984   5.497   0.266 -1.6730  0.2966 -0.2123
  115OSM    C6S11930   5.892   5.454   0.074  0.4889 -0.4840  0.2621
  115OSM    H6S11931   5.861   5.560   0.066  0.1657 -0.4959  1.2191
  115OSM    H6T11932   5.800   5.410   0.119 -1.8485  1.3263 -2.3930
  115OSM    C7S11933   5.907   5.408  -0.069  0.1966  0.4610  0.1744
  115OSM    H7S11934   5.975   5.473  -0.126 -0.5489  1.7314  0.6937
  115OSM    H7T11935   5.808   5.422  -0.119 -0.3235 -1.0405  0.7163
  115OSM    C8S11936   5.948   5.265  -0.089 -0.1220  0.2831 -0.0125
  115OSM    H8S11937   5.889   5.203  -0.018  0.2077  1.2212  1.1281
  115OSM    H8T11938   6.056   5.247  -0.066 -0.2051  1.8606  1.9064
  115OSM    C9S11939   5.917   5.209  -0.227  0.4716  0.3958 -0.7065
  115OSM    H9S11940   5.978   5.264  -0.302 -0.1141  0.4294 -1.1598
  115OSM    H9T11941   5.811   5.234  -0.248 -0.2376 -1.6225  0.2292
  115OSM   C10S11942   5.926   5.056  -0.231 -0.1368 -0.2860 -0.6057
  115OSM   H10S11943   5.874   5.015  -0.142 -0.1100  1.4007  0.2361
  115OSM   H10T11944   6.034   5.033  -0.222 -0.3987 -0.9428  1.7951
  115OSM   C11S11945   5.863   4.999  -0.359  0.2604  0.1324  0.5844
  115OSM   H11S11946   5.761   5.043  -0.366 -0.2011 -0.3373  3.1448
  115OSM   H11T11947   5.847   4.892  -0.335 -1.1551 -0.6080 -3.0642
  115OSM   C12S11948   5.952   5.018  -0.485  0.1194 -0.6383 -0.2563
  115OSM   H12S11949   6.049   4.973  -0.455  0.5338 -0.7958 -1.7564
  115OSM   H12T11950   5.969   5.125  -0.507 -1.2480  0.0542  1.8530
  115OSM   C13S11951   5.888   4.969  -0.622 -0.1389  0.4811 -0.0605
  115OSM   H13S11952   5.802   5.037  -0.641 -0.4227  1.0280  2.7909
  115OSM   H13T11953   5.852   4.865  -0.606  1.7077 -0.5147 -1.8943
  115OSM   C14S11954   5.996   4.975  -0.736 -0.2818 -0.0668 -0.3056
  115OSM   H14S11955   6.076   4.902  -0.713 -0.8711 -1.2793 -1.9022
  115OSM   H14T11956   6.039   5.078  -0.744 -0.8667  0.1935 -0.1418
  115OSM   C15S11957   5.934   4.943  -0.873  0.7143 -0.1779  0.7747
  115OSM   H15S11958   6.019   4.946  -0.944  0.3543 -0.5569  0.3211
  115OSM   H15T11959   5.862   5.022  -0.904 -1.0516 -2.0848 -0.2703
  115OSM   C16S11960   5.866   4.808  -0.888  0.4549  0.3245 -0.4402
  115OSM   H16S11961   5.769   4.817  -0.834  1.2315 -0.4489  1.1425
  115OSM   H16T11962   5.935   4.740  -0.833  1.0346  2.4013  1.6009
  115OSM   C17S11963   5.852   4.764  -1.032 -0.4542 -0.1331 -0.8737
  115OSM   H17S11964   5.953   4.748  -1.077 -0.2306 -1.7234  0.1314
  115OSM   H17T11965   5.814   4.852  -1.088  0.6976  1.5914  0.9204
  115OSM   C18S11966   5.758   4.646  -1.066  0.3537 -0.0120  0.0846
  115OSM   H18S11967   5.769   4.624  -1.174 -2.6717 -0.6815 -0.1734
  115OSM   H18T11968   5.653   4.669  -1.037  0.1090 -2.3201  1.2719
  115OSM   H18U11969   5.796   4.567  -0.998  1.3599  0.3825 -0.0124
  115OSM    C1F11970   6.247   5.031   0.189 -0.5449 -0.6822  0.5343
  115OSM     OF11971   6.214   4.974   0.285  0.1985  0.7343 -0.1881
  115OSM    C2F11972   6.284   4.953   0.067  0.5868 -0.4631  0.2432
  115OSM    H2F11973   6.387   4.969   0.030  0.6914 -0.7321  0.4151
  115OSM    H2G11974   6.210   4.981  -0.012  2.1909  0.1803 -1.0903
  115OSM    C3F11975   6.274   4.799   0.084  0.6099 -1.0762 -0.7217
  115OSM    H3F11976   6.178   4.764   0.125  1.7033 -1.5054  1.6364
  115OSM    H3G11977   6.354   4.759   0.150  1.4697  1.1548 -0.3186
  115OSM    C4F11978   6.300   4.736  -0.054 -0.0510  0.2070  0.5945
  115OSM    H4F11979   6.311   4.626  -0.045  0.1978  0.1252 -0.4999
  115OSM    H4G11980   6.392   4.772  -0.105 -0.7646 -0.5696 -1.3657
  115OSM    C5F11981   6.180   4.746  -0.141  0.0838  0.7339  0.5263
  115OSM    H5F11982   6.183   4.855  -0.166 -0.3598  0.4112 -1.0469
  115OSM    H5G11983   6.086   4.713  -0.092  0.0216 -1.5996 -1.0161
  115OSM    C6F11984   6.187   4.656  -0.266  0.0297  0.0173  0.3203
  115OSM    H6F11985   6.167   4.553  -0.229 -0.3024  0.4555  1.3987
  115OSM    H6G11986   6.287   4.665  -0.312  0.3502 -0.7696  0.8379
  115OSM    C7F11987   6.076   4.679  -0.369 -0.3311  0.2889 -0.5044
  115OSM    H7F11988   6.083   4.788  -0.392  0.1414  0.3713  0.0101
  115OSM    H7G11989   5.974   4.657  -0.331 -1.7647  0.5911 -3.8022
  115OSM    C8F11990   6.103   4.596  -0.507  0.0202 -0.1510 -0.5449
  115OSM    H8F11991   6.198   4.634  -0.549 -0.4074  0.9047 -0.5923
  115OSM    H8G11992   6.031   4.628  -0.586  2.4444  0.4238 -2.6642
  115OSM    C9F11993   6.097   4.446  -0.492 -0.3693  0.1487 -0.0273
  115OSM    H9F11994   6.032   4.414  -0.410 -0.5645  2.5667  0.8411
  115OSM   C10F11995   6.173   4.364  -0.558 -1.1443 -0.3789 -0.0838
  115OSM   H10F11996   6.173   4.260  -0.524 -2.0490 -0.6586 -0.9121
  115OSM   C11F11997   6.286   4.391  -0.660  0.0708  0.2519  0.5127
  115OSM   H11F11998   6.381   4.353  -0.616  0.5627  0.5191 -0.2969
  115OSM   H11G11999   6.303   4.500  -0.671  0.6623  0.1010 -0.1339
  115OSM   C12F12000   6.278   4.313  -0.795  0.1716  0.0528 -0.5666
  115OSM   H12F12001   6.256   4.206  -0.776 -3.6282  0.9862  1.1697
  115OSM   H12G12002   6.379   4.324  -0.840 -0.0148  0.2440 -0.9444
  115OSM   C13F12003   6.174   4.366  -0.893 -0.5458 -0.5257 -0.2247
  115OSM   H13F12004   6.190   4.471  -0.926 -0.5492 -0.5585 -0.3329
  115OSM   H13G12005   6.074   4.359  -0.845 -0.5455  3.5584  0.7745
  115OSM   C14F12006   6.173   4.280  -1.021  0.9393  0.0376 -0.6205
  115OSM   H14F12007   6.123   4.182  -1.003  1.4175 -0.2763 -0.9783
  115OSM   H14G12008   6.278   4.274  -1.056  1.8101  2.2881  1.3188
  115OSM   C15F12009   6.090   4.355  -1.127  0.6238  1.1657 -0.2277
  115OSM   H15F12010   6.128   4.459  -1.114 -1.8535  1.7398  5.4866
  115OSM   H15G12011   5.986   4.360  -1.089  0.7175  1.8260 -0.0332
  115OSM   C16F12012   6.104   4.287  -1.265 -0.3735  0.0009  0.2832
  115OSM   H16F12013   6.077   4.181  -1.247 -0.5971 -0.5667 -2.8829
  115OSM   H16G12014   6.210   4.294  -1.296 -0.1749  0.3027  0.9952
  115OSM   C17F12015   6.008   4.350  -1.363 -0.5658 -0.4608  0.2778
  115OSM   H17F12016   6.025   4.460  -1.363 -1.6664 -0.2707  1.8088
  115OSM   H17G12017   5.906   4.331  -1.326 -1.2236  2.0505 -0.0244
  115OSM   C18F12018   6.031   4.303  -1.510  0.3295 -0.9869  0.5160
  115OSM   H18F12019   6.138   4.312  -1.538 -0.3082  2.2735 -1.3880
  115OSM   H18G12020   5.965   4.354  -1.583 -0.6342 -0.4915  1.6851
  115OSM   H18H12021   6.006   4.196  -1.528  0.0947 -0.7676 -0.5234
  116OSM      N12022   4.849   3.213   0.317  0.9503  0.0981 -0.1340
  116OSM    C1512023   4.988   3.242   0.280 -0.6434 -0.3118  0.2916
  116OSM   H15A12024   5.018   3.319   0.350  0.2494 -0.8755  0.5321
  116OSM   H15B12025   4.986   3.269   0.176  1.5585 -0.4995  0.1714
  116OSM   H15C12026   5.049   3.155   0.297 -0.2187 -0.3521 -1.2926
  116OSM    C1412027   4.842   3.136   0.451 -0.4718  0.1417 -0.6110
  116OSM   H14A12028   4.893   3.202   0.520 -0.2441  2.5363 -2.9562
  116OSM   H14B12029   4.893   3.040   0.454  1.9425  1.3660  1.1274
  116OSM   H14C12030   4.739   3.131   0.483  0.0514 -0.3915  1.1421
  116OSM    C1312031   4.779   3.343   0.338 -0.7659 -0.7472  0.4070
  116OSM   H13A12032   4.790   3.400   0.247 -1.3816 -1.5987 -0.2188
  116OSM   H13B12033   4.822   3.403   0.416 -2.9920  0.2970  0.9055
  116OSM   H13C12034   4.674   3.321   0.351 -0.6556 -1.7967 -0.3633
  116OSM    C1212035   4.773   3.139   0.204 -0.0449 -0.6760  0.2254
  116OSM   H12A12036   4.675   3.106   0.235  0.1680 -1.9425 -0.4144
  116OSM   H12B12037   4.817   3.041   0.198 -0.0688 -0.6388 -0.6010
  116OSM    C1112038   4.766   3.199   0.064  0.6503 -0.3095 -0.2486
  116OSM   H11A12039   4.727   3.122  -0.005 -0.6608  0.0949  0.0043
  116OSM   H11B12040   4.868   3.222   0.025  0.9044 -0.5846  0.2457
  116OSM      P12041   4.532   3.302   0.045 -0.2762  0.0847  0.4069
  116OSM    O1312042   4.475   3.199   0.133 -0.3970 -0.1321 -0.9059
  116OSM    O1412043   4.467   3.439   0.033  0.3798  0.5815  0.2775
  116OSM    O1112044   4.537   3.224  -0.096  0.3097 -0.4651  0.4741
  116OSM    O1212045   4.688   3.319   0.062  0.4414 -0.2900 -0.8129
  116OSM    C1S12046   4.585   3.313  -0.208 -0.0214  0.6712 -0.1674
  116OSM    H1S12047   4.665   3.386  -0.185 -0.7975  0.9650  1.7560
  116OSM    H1T12048   4.500   3.369  -0.252 -0.4420  1.4558  1.5623
  116OSM     NF12049   4.692   3.319  -0.427 -0.3084 -0.5435 -0.1596
  116OSM    HNF12050   4.628   3.327  -0.502 -2.0570 -1.0519  1.2087
  116OSM    C2S12051   4.656   3.233  -0.320  0.0955  0.1250 -0.3376
  116OSM    H2S12052   4.748   3.195  -0.270  1.0023  3.0844  0.4865
  116OSM    C3S12053   4.580   3.101  -0.364 -0.1200  0.0990  0.8794
  116OSM    H3S12054   4.482   3.127  -0.409  0.3611 -0.7255 -0.7245
  116OSM     O312055   4.556   3.007  -0.261  0.6232 -0.2603  0.3235
  116OSM    HO312056   4.541   3.067  -0.188 -1.9997  2.9345 -2.4753
  116OSM    C4S12057   4.661   3.028  -0.474  0.7619  0.0967 -0.2804
  116OSM    H4S12058   4.769   3.051  -0.477  0.6755  0.3570 -2.2250
  116OSM    C5S12059   4.603   2.980  -0.584  0.6133 -0.4407 -0.8624
  116OSM    H5S12060   4.493   2.968  -0.583  0.7870 -2.7176  1.3711
  116OSM    C6S12061   4.675   2.935  -0.711  0.6712  0.0695 -0.3254
  116OSM    H6S12062   4.624   2.842  -0.745 -2.9712  0.3775  3.5310
  116OSM    H6T12063   4.779   2.902  -0.690  0.8706  0.3227 -0.8985
  116OSM    C7S12064   4.688   3.023  -0.835 -0.6887  0.1306  0.0454
  116OSM    H7S12065   4.767   3.100  -0.820  0.3489 -0.6109 -1.3540
  116OSM    H7T12066   4.588   3.070  -0.847 -0.9118 -0.5712 -0.9815
  116OSM    C8S12067   4.723   2.945  -0.961  0.8628 -0.8541 -0.4509
  116OSM    H8S12068   4.712   3.022  -1.041  1.8569  0.9024  1.0107
  116OSM    H8T12069   4.637   2.876  -0.971 -0.1300  0.1675  0.7104
  116OSM    C9S12070   4.861   2.890  -0.991 -0.0811  0.5096 -0.3673
  116OSM    H9S12071   4.867   2.810  -0.914 -0.2472  1.4554  0.6553
  116OSM    H9T12072   4.943   2.964  -0.981 -0.4285  1.0079 -1.0671
  116OSM   C10S12073   4.869   2.817  -1.132 -0.9058  0.0740 -1.0436
  116OSM   H10S12074   4.793   2.736  -1.137  0.1356 -0.9419 -0.6683
  116OSM   H10T12075   4.963   2.759  -1.144  1.7154  3.7763  0.0085
  116OSM   C11S12076   4.854   2.928  -1.251 -0.2096 -0.2756 -0.5904
  116OSM   H11S12077   4.943   2.926  -1.317  2.0013  0.8291  2.1303
  116OSM   H11T12078   4.873   3.023  -1.196 -0.5581 -0.8403  0.5289
  116OSM   C12S12079   4.722   2.924  -1.322 -0.3233 -0.4519 -0.1356
  116OSM   H12S12080   4.705   3.011  -1.389 -1.0706  0.2305  0.9128
  116OSM   H12T12081   4.634   2.923  -1.255 -1.1067  1.2556 -1.0716
  116OSM   C13S12082   4.721   2.796  -1.410 -0.4553 -0.0344  0.4298
  116OSM   H13S12083   4.616   2.779  -1.444 -0.0846  0.7158 -1.2229
  116OSM   H13T12084   4.760   2.708  -1.355  0.5317  0.1737  0.0894
  116OSM   C14S12085   4.812   2.810  -1.531  0.4221  0.3261 -0.5808
  116OSM   H14S12086   4.920   2.810  -1.506  0.5195 -0.9137 -0.9392
  116OSM   H14T12087   4.792   2.906  -1.582  1.3126  0.5822 -0.4576
  116OSM   C15S12088   4.792   2.702  -1.637  0.4329  0.0704  0.5513
  116OSM   H15S12089   4.689   2.715  -1.677  0.4901 -0.3006  0.2848
  116OSM   H15T12090   4.789   2.605  -1.582 -0.1758 -0.5606 -0.5591
  116OSM   C16S12091   4.883   2.708  -1.761 -0.4773  0.6031 -0.2383
  116OSM   H16S12092   4.985   2.687  -1.721 -0.4971  1.2439  0.1604
  116OSM   H16T12093   4.886   2.812  -1.801  0.9547  1.1305  1.1085
  116OSM   C17S12094   4.854   2.598  -1.859 -0.0760 -0.0551  0.1670
  116OSM   H17S12095   4.744   2.595  -1.875 -0.3807 -1.8101  2.1225
  116OSM   H17T12096   4.890   2.499  -1.823 -0.7014 -1.2560 -2.3002
  116OSM   C18S12097   4.915   2.641  -1.996 -0.5527  0.7495  0.5275
  116OSM   H18S12098   4.892   2.746  -2.021 -3.7739  0.3149  1.1637
  116OSM   H18T12099   4.865   2.573  -2.069  2.8342  1.4117 -2.7293
  116OSM   H18U12100   5.023   2.615  -1.991 -0.3842  1.3724  0.1868
  116OSM    C1F12101   4.801   3.400  -0.422 -0.6144  0.0695  0.0794
  116OSM     OF12102   4.892   3.390  -0.335 -0.4284 -0.8237  0.3107
  116OSM    C2F12103   4.803   3.513  -0.511  0.2497 -0.5940 -0.1064
  116OSM    H2F12104   4.740   3.594  -0.468 -0.2078 -0.3113 -1.2707
  116OSM    H2G12105   4.755   3.480  -0.606  0.5956 -3.1539  0.5247
  116OSM    C3F12106   4.939   3.574  -0.541 -0.1849  0.5659  0.2433
  116OSM    H3F12107   4.982   3.602  -0.442  1.9638 -2.4416  0.3077
  116OSM    H3G12108   4.918   3.662  -0.605 -2.2091 -1.2660 -1.7672
  116OSM    C4F12109   5.042   3.483  -0.608 -0.4525  0.5110 -0.3191
  116OSM    H4F12110   5.047   3.387  -0.553 -2.0260 -0.0150 -1.0120
  116OSM    H4G12111   5.143   3.527  -0.605  0.2238 -1.0108  0.5320
  116OSM    C5F12112   4.996   3.444  -0.747  0.3319 -0.5767 -0.5043
  116OSM    H5F12113   4.985   3.532  -0.814  1.4489  0.3062  0.4100
  116OSM    H5G12114   4.908   3.377  -0.745 -0.0784 -0.2073 -3.0892
  116OSM    C6F12115   5.105   3.363  -0.827  0.2355 -0.0613 -0.4600
  116OSM    H6F12116   5.145   3.285  -0.758 -2.9584 -1.5158 -0.0780
  116OSM    H6G12117   5.188   3.436  -0.841 -0.6663  1.7633  2.6492
  116OSM    C7F12118   5.060   3.280  -0.952 -0.0725 -0.3857  0.7951
  116OSM    H7F12119   4.988   3.203  -0.918 -1.1251  0.1079 -0.2384
  116OSM    H7G12120   5.146   3.219  -0.989  0.4800  0.5811  0.4457
  116OSM    C8F12121   4.988   3.358  -1.064 -0.6975  1.0916 -0.2839
  116OSM    H8F12122   4.912   3.429  -1.024  0.2325  2.1635 -0.3709
  116OSM    H8G12123   4.922   3.281  -1.110 -1.9121  1.7239  0.3475
  116OSM    C9F12124   5.093   3.418  -1.155  0.6805  0.1012  0.1986
  116OSM    H9F12125   5.139   3.513  -1.123 -1.0752  1.2070 -0.3815
  116OSM   C10F12126   5.117   3.363  -1.275 -0.1383 -0.3308  0.4699
  116OSM   H10F12127   5.195   3.407  -1.339 -0.5105 -0.0517  0.2032
  116OSM   C11F12128   5.064   3.238  -1.338  0.2377 -0.2205 -0.5677
  116OSM   H11F12129   4.969   3.268  -1.387  0.3547  1.3404  0.1076
  116OSM   H11G12130   5.023   3.159  -1.272 -2.8553  2.0279  0.4019
  116OSM   C12F12131   5.160   3.175  -1.447  0.3760  0.3729  0.0578
  116OSM   H12F12132   5.256   3.145  -1.401  1.0152  1.7147 -0.3446
  116OSM   H12G12133   5.164   3.253  -1.526 -1.7321 -0.5522 -1.0388
  116OSM   C13F12134   5.094   3.050  -1.516 -0.4590  0.2839  0.2783
  116OSM   H13F12135   4.983   3.062  -1.513 -0.3881  2.2500 -2.1147
  116OSM   H13G12136   5.121   2.957  -1.461  0.6208 -0.4041 -1.3362
  116OSM   C14F12137   5.121   3.022  -1.666 -0.3126  0.3408  0.1780
  116OSM   H14F12138   5.073   3.097  -1.732 -2.0276 -0.7857  0.0768
  116OSM   H14G12139   5.070   2.923  -1.673  5.2224 -2.9799  0.9000
  116OSM   C15F12140   5.264   3.019  -1.712 -0.4473  0.0201  0.0176
  116OSM   H15F12141   5.334   2.969  -1.641 -0.8230 -1.1042 -0.3847
  116OSM   H15G12142   5.304   3.121  -1.728 -0.1274 -0.4551 -2.6530
  116OSM   C16F12143   5.276   2.945  -1.840  0.2936  0.3907 -0.2784
  116OSM   H16F12144   5.358   2.985  -1.902 -2.2770  1.7070 -3.0758
  116OSM   H16G12145   5.185   2.976  -1.895 -0.3245 -1.2769 -0.2656
  116OSM   C17F12146   5.278   2.792  -1.830  0.1983  0.7175 -1.1247
  116OSM   H17F12147   5.216   2.743  -1.908  0.2542 -2.6136  0.7357
  116OSM   H17G12148   5.227   2.752  -1.740  0.6125 -1.0517 -1.6286
  116OSM   C18F12149   5.415   2.736  -1.845 -0.9920  0.2304  0.0070
  116OSM   H18F12150   5.418   2.626  -1.860  2.2254  0.1177  0.8125
  116OSM   H18G12151   5.473   2.763  -1.755  2.3413 -3.3991 -0.8104
  116OSM   H18H12152   5.469   2.776  -1.934 -0.0536 -0.9884  0.0016
  117OSM      N12153   5.421   4.446   0.636 -0.0178  0.0611 -0.0262
  117OSM    C1512154   5.562   4.393   0.646  0.7060 -0.4341  0.1784
  117OSM   H15A12155   5.612   4.382   0.550  0.8097 -0.3134  0.2189
  117OSM   H15B12156   5.572   4.294   0.689  0.8449 -0.2912  0.4709
  117OSM   H15C12157   5.613   4.464   0.709  0.7661 -1.0544  0.8406
  117OSM    C1412158   5.332   4.335   0.587 -0.0655  0.3778 -0.3237
  117OSM   H14A12159   5.362   4.247   0.642  2.2680  0.5440 -1.2229
  117OSM   H14B12160   5.335   4.312   0.481  0.7509  1.4044 -0.5298
  117OSM   H14C12161   5.228   4.359   0.607 -0.0821 -0.0742  0.1471
  117OSM    C1312162   5.385   4.495   0.776 -0.0198 -0.1587  0.1602
  117OSM   H13A12163   5.291   4.549   0.782 -0.1594 -0.4565  0.7518
  117OSM   H13B12164   5.452   4.570   0.816  1.9851 -1.4775 -0.6193
  117OSM   H13C12165   5.375   4.409   0.839 -0.3584  0.7659  1.4106
  117OSM    C1212166   5.429   4.556   0.537 -0.0654  0.6711  0.4670
  117OSM   H12A12167   5.444   4.530   0.433 -0.5147  1.2235  0.2603
  117OSM   H12B12168   5.515   4.616   0.561  2.6944 -2.1826 -1.5067
  117OSM    C1112169   5.306   4.641   0.533  0.5331 -0.3439 -0.3100
  117OSM   H11A12170   5.322   4.718   0.611 -0.7605  1.1415 -1.4638
  117OSM   H11B12171   5.210   4.593   0.559  0.7767 -0.9594 -0.5204
  117OSM      P12172   5.258   4.640   0.283  0.0094  0.1269  0.3245
  117OSM    O1312173   5.345   4.519   0.256 -0.3016 -0.2834  0.1925
  117OSM    O1412174   5.121   4.618   0.301  0.1344  0.1548 -0.1563
  117OSM    O1112175   5.286   4.752   0.171  0.2329 -0.1904 -0.1328
  117OSM    O1212176   5.304   4.714   0.413  0.3707  0.6203 -0.5206
  117OSM    C1S12177   5.317   4.890   0.204  1.2128 -0.6798  0.6765
  117OSM    H1S12178   5.425   4.904   0.222  0.9289  0.9035  1.3569
  117OSM    H1T12179   5.268   4.918   0.301 -0.4364 -2.6878  0.4963
  117OSM     NF12180   5.318   5.128   0.112 -0.0282  0.3759  0.1109
  117OSM    HNF12181   5.270   5.202   0.158  0.1299 -0.4041  1.5834
  117OSM    C2S12182   5.256   4.998   0.106 -0.7619 -0.3442 -0.6851
  117OSM    H2S12183   5.260   4.959   0.002  2.0371 -0.8485 -0.4643
  117OSM    C3S12184   5.106   5.004   0.149 -0.3690 -0.2678  0.8937
  117OSM    H3S12185   5.093   5.043   0.252 -2.8118 -0.1810  0.6137
  117OSM     O312186   5.036   4.884   0.158 -0.1475  0.1014 -0.2168
  117OSM    HO312187   5.101   4.819   0.187 -0.7149  0.2626  1.5823
  117OSM    C4S12188   5.030   5.093   0.053  0.1938 -0.9086 -0.9918
  117OSM    H4S12189   5.033   5.198   0.084  0.3385 -1.4147  0.8257
  117OSM    C5S12190   4.956   5.062  -0.056  0.5218  1.3381 -0.8838
  117OSM    H5S12191   4.971   4.961  -0.097 -0.1673  0.8699 -0.0134
  117OSM    C6S12192   4.882   5.167  -0.149  0.3159  0.2953 -1.0966
  117OSM    H6S12193   4.938   5.263  -0.140 -0.1182  0.4212  0.5981
  117OSM    H6T12194   4.777   5.180  -0.116  0.2522 -1.6864 -0.4189
  117OSM    C7S12195   4.885   5.124  -0.293 -0.1833 -0.4119  0.1451
  117OSM    H7S12196   4.809   5.044  -0.309 -1.4666  1.0404 -1.3027
  117OSM    H7T12197   4.986   5.083  -0.316  0.0229 -0.6067  1.3438
  117OSM    C8S12198   4.850   5.233  -0.391 -0.5480  0.0464 -0.2335
  117OSM    H8S12199   4.925   5.314  -0.377  0.1906 -0.4151 -1.4170
  117OSM    H8T12200   4.748   5.269  -0.365 -1.0358 -1.2668 -0.2607
  117OSM    C9S12201   4.861   5.207  -0.544 -0.2266 -0.6775  0.1350
  117OSM    H9S12202   4.838   5.301  -0.600 -5.5053 -2.3487 -1.1466
  117OSM    H9T12203   4.780   5.140  -0.580 -0.5075 -0.9354  1.2006
  117OSM   C10S12204   4.994   5.149  -0.596 -0.7043 -0.0270 -0.5504
  117OSM   H10S12205   4.999   5.049  -0.548 -1.4468  0.1540 -0.0747
  117OSM   H10T12206   5.077   5.207  -0.551  1.0535 -2.5466 -0.3529
  117OSM   C11S12207   5.003   5.144  -0.749  0.0754  0.9300 -0.4575
  117OSM   H11S12208   4.919   5.086  -0.793  0.0758  1.9492 -1.8563
  117OSM   H11T12209   5.086   5.087  -0.795 -0.1873 -0.4875  0.7506
  117OSM   C12S12210   5.012   5.281  -0.829 -0.7902  0.8727  0.3686
  117OSM   H12S12211   5.093   5.344  -0.786  0.6401 -1.1959  0.8762
  117OSM   H12T12212   4.913   5.331  -0.839 -0.6991  0.7406 -1.5717
  117OSM   C13S12213   5.052   5.249  -0.979  0.1306  0.5622 -0.1900
  117OSM   H13S12214   5.145   5.189  -0.980  0.2885  0.6782  2.4026
  117OSM   H13T12215   5.067   5.339  -1.041  1.0156  0.1855 -0.5405
  117OSM   C14S12216   4.950   5.158  -1.061  0.0218  0.2813  0.7163
  117OSM   H14S12217   4.931   5.055  -1.024 -1.5565 -0.0900 -1.0038
  117OSM   H14T12218   5.005   5.151  -1.158  2.2616  3.9915  1.5307
  117OSM   C15S12219   4.820   5.222  -1.093  0.3732  0.2261 -0.2917
  117OSM   H15S12220   4.838   5.331  -1.107  0.2235  0.6850  2.5200
  117OSM   H15T12221   4.758   5.240  -1.003  3.0236  2.2698  1.2609
  117OSM   C16S12222   4.751   5.166  -1.215  0.5669 -0.4804  0.0687
  117OSM   H16S12223   4.827   5.135  -1.289  2.8053  0.7696  1.7230
  117OSM   H16T12224   4.684   5.247  -1.252 -0.0092  0.2046  2.4199
  117OSM   C17S12225   4.656   5.045  -1.185  0.5323 -0.1037  1.0326
  117OSM   H17S12226   4.564   5.069  -1.127 -0.7190 -0.9802 -0.5064
  117OSM   H17T12227   4.714   4.983  -1.113  3.5583  1.3687 -0.0043
  117OSM   C18S12228   4.607   4.962  -1.303 -0.6885  0.0245 -0.1131
  117OSM   H18S12229   4.689   4.945  -1.376 -0.0088 -0.4755  0.7452
  117OSM   H18T12230   4.530   5.021  -1.357 -2.1702 -1.5659  0.1879
  117OSM   H18U12231   4.557   4.870  -1.266 -0.5738  0.5790  1.4671
  117OSM    C1F12232   5.446   5.137   0.074 -0.7227  0.2862  0.0810
  117OSM     OF12233   5.520   5.043   0.054 -0.3466 -0.4433 -0.5950
  117OSM    C2F12234   5.502   5.275   0.073 -0.0287 -0.6371 -0.0954
  117OSM    H2F12235   5.583   5.257   0.146  0.2948 -1.8567 -0.7310
  117OSM    H2G12236   5.431   5.341   0.128  1.7363 -1.4126  3.3330
  117OSM    C3F12237   5.549   5.329  -0.063  0.7146  0.1822  0.8014
  117OSM    H3F12238   5.606   5.247  -0.112  2.4278  2.3766 -1.1218
  117OSM    H3G12239   5.617   5.414  -0.041  1.5341 -0.1035 -0.5247
  117OSM    C4F12240   5.445   5.377  -0.165  0.1968 -1.3016  0.0232
  117OSM    H4F12241   5.395   5.466  -0.122  3.1591 -0.3574  1.7871
  117OSM    H4G12242   5.366   5.299  -0.173 -1.2113  0.1570 -0.7504
  117OSM    C5F12243   5.496   5.402  -0.307 -0.0778 -0.1712  0.5684
  117OSM    H5F12244   5.607   5.412  -0.299 -0.1104  0.3116  0.5025
  117OSM    H5G12245   5.453   5.497  -0.348 -2.2688 -2.1705 -2.1479
  117OSM    C6F12246   5.467   5.283  -0.406  0.5768  0.4002  0.5311
  117OSM    H6F12247   5.362   5.283  -0.443  0.4986 -1.8061  0.6285
  117OSM    H6G12248   5.483   5.189  -0.348  0.0855 -0.8048 -1.2103
  117OSM    C7F12249   5.556   5.282  -0.526 -0.0553  0.4002 -0.3380
  117OSM    H7F12250   5.662   5.287  -0.494 -0.6100  1.3387  1.4481
  117OSM    H7G12251   5.548   5.376  -0.585  0.2688  0.1144 -0.8519
  117OSM    C8F12252   5.546   5.156  -0.613  0.2126  0.3435  0.2055
  117OSM    H8F12253   5.570   5.064  -0.556 -0.7916 -1.2808 -1.8546
  117OSM    H8G12254   5.622   5.145  -0.693  0.9855  1.8565  0.6903
  117OSM    C9F12255   5.409   5.149  -0.675 -0.5644 -0.0614  0.3351
  117OSM    H9F12256   5.326   5.101  -0.620 -0.8856  1.1495  0.9291
  117OSM   C10F12257   5.383   5.162  -0.806 -0.9746  0.0052  1.0450
  117OSM   H10F12258   5.276   5.158  -0.828 -0.4893 -0.2745 -1.7117
  117OSM   C11F12259   5.471   5.190  -0.924  0.4170  0.5670 -1.2417
  117OSM   H11F12260   5.566   5.229  -0.881 -0.6971  0.9046  1.0784
  117OSM   H11G12261   5.429   5.281  -0.972 -0.2521  1.7917  1.4496
  117OSM   C12F12262   5.475   5.083  -1.030 -0.3750 -0.5471 -0.1304
  117OSM   H12F12263   5.517   4.993  -0.979 -3.0551 -1.9430 -0.2159
  117OSM   H12G12264   5.547   5.118  -1.107 -1.0857  0.8931 -0.1680
  117OSM   C13F12265   5.351   5.044  -1.111  0.3450 -0.0410  0.0024
  117OSM   H13F12266   5.299   5.136  -1.147  1.3450  1.1081  1.3923
  117OSM   H13G12267   5.280   4.987  -1.047  1.0145 -0.8382  0.0431
  117OSM   C14F12268   5.393   4.974  -1.237  0.5235  0.4930 -0.1874
  117OSM   H14F12269   5.303   4.931  -1.286  1.8517 -0.8634 -1.5409
  117OSM   H14G12270   5.459   4.887  -1.215 -1.7036 -0.9243  1.2702
  117OSM   C15F12271   5.463   5.054  -1.348  0.5331  0.1707  0.4895
  117OSM   H15F12272   5.571   5.074  -1.332  0.8687 -1.4782  0.4023
  117OSM   H15G12273   5.420   5.156  -1.360  2.2691  0.7450 -1.4785
  117OSM   C16F12274   5.434   4.979  -1.472 -0.1106  0.0568  0.1931
  117OSM   H16F12275   5.329   4.947  -1.482  1.0322 -4.0267 -0.7223
  117OSM   H16G12276   5.497   4.887  -1.471  0.7456  0.6019 -0.9303
  117OSM   C17F12277   5.482   5.054  -1.601 -0.0884 -0.1815 -0.5242
  117OSM   H17F12278   5.577   5.106  -1.578  0.1117 -0.9641  0.5292
  117OSM   H17G12279   5.415   5.139  -1.625  0.1083 -0.1419 -0.9316
  117OSM   C18F12280   5.491   4.968  -1.731  0.2649 -0.3102 -0.6464
  117OSM   H18F12281   5.387   4.942  -1.763 -0.1921  0.3249  0.3092
  117OSM   H18G12282   5.540   4.870  -1.711  0.9799  0.2392  0.3384
  117OSM   H18H12283   5.549   5.014  -1.813  1.8695 -3.5292 -1.4988
  118OSM      N12284   5.981   3.603   0.177 -1.1538  0.1832  0.1421
  118OSM    C1512285   5.871   3.705   0.193 -0.9626  0.2253  0.1254
  118OSM   H15A12286   5.905   3.775   0.268 -0.8362 -1.0953  1.3427
  118OSM   H15B12287   5.781   3.653   0.223 -1.7919 -0.5920 -3.4137
  118OSM   H15C12288   5.845   3.751   0.099  0.5734 -0.5231 -0.6984
  118OSM    C1412289   6.112   3.670   0.189 -0.0156 -0.4167 -1.1760
  118OSM   H14A12290   6.126   3.718   0.285 -0.3972 -0.6409 -1.0063
  118OSM   H14B12291   6.136   3.741   0.112  2.3438  0.8661  0.6186
  118OSM   H14C12292   6.181   3.589   0.173 -0.4264 -1.5645  2.0319
  118OSM    C1312293   5.976   3.505   0.287  0.7131 -0.3088 -0.0456
  118OSM   H13A12294   6.060   3.437   0.292 -0.4473 -2.2770 -3.8644
  118OSM   H13B12295   5.883   3.450   0.282  1.2006 -1.2490  0.8550
  118OSM   H13C12296   5.989   3.548   0.386  2.9869 -1.6835  0.3140
  118OSM    C1212297   5.979   3.519   0.053 -0.0749 -0.9640 -0.6517
  118OSM   H12A12298   6.069   3.464   0.030 -1.6152 -2.9565 -2.3431
  118OSM   H12B12299   5.971   3.592  -0.026 -0.9897 -1.1576 -0.7481
  118OSM    C1112300   5.874   3.412   0.041 -0.4692 -0.3393  0.2764
  118OSM   H11A12301   5.863   3.410  -0.070  2.6585 -1.0003 -0.1310
  118OSM   H11B12302   5.786   3.451   0.096  0.1146  3.7988 -1.3320
  118OSM      P12303   5.842   3.159   0.036  0.2192  0.2091 -0.0570
  118OSM    O1312304   5.899   3.039   0.097 -0.1324 -0.8565  0.0550
  118OSM    O1412305   5.699   3.185   0.060 -0.4197  0.5153  0.4735
  118OSM    O1112306   5.869   3.159  -0.123 -0.1972  0.3387 -0.4152
  118OSM    O1212307   5.925   3.284   0.083 -0.5325  0.7375 -0.2603
  118OSM    C1S12308   6.006   3.164  -0.167  1.0279 -0.0498  0.5391
  118OSM    H1S12309   6.049   3.062  -0.171 -1.9128 -1.3816 -0.6052
  118OSM    H1T12310   6.059   3.239  -0.105  0.1532  1.6887 -0.7433
  118OSM     NF12311   6.151   3.202  -0.351 -0.8787 -0.3730 -0.5554
  118OSM    HNF12312   6.194   3.291  -0.338 -1.1557 -0.5071  1.4488
  118OSM    C2S12313   6.011   3.201  -0.321  0.4130 -0.4643  0.4442
  118OSM    H2S12314   5.972   3.121  -0.388 -3.7936  0.7955  1.0960
  118OSM    C3S12315   5.932   3.324  -0.359 -0.3769  0.4934 -0.3088
  118OSM    H3S12316   5.973   3.409  -0.300  0.4239  1.3337 -2.0111
  118OSM     O312317   5.796   3.315  -0.320 -0.1605 -0.4541 -0.1758
  118OSM    HO312318   5.789   3.247  -0.252  2.9563  1.0015  1.8783
  118OSM    C4S12319   5.943   3.355  -0.510 -0.8875  0.0787  0.0118
  118OSM    H4S12320   5.953   3.271  -0.579  0.6722 -0.0771  0.3793
  118OSM    C5S12321   5.967   3.481  -0.550 -0.8138 -0.2961  0.4820
  118OSM    H5S12322   5.982   3.554  -0.469  2.9681 -1.1571  0.7819
  118OSM    C6S12323   5.996   3.526  -0.684  0.6893 -0.5725  0.1577
  118OSM    H6S12324   6.098   3.568  -0.674  0.7447 -0.7478  0.3388
  118OSM    H6T12325   5.925   3.609  -0.704  1.3720 -0.0139  0.0461
  118OSM    C7S12326   5.994   3.417  -0.794 -0.0673 -0.3450  0.2119
  118OSM    H7S12327   5.907   3.348  -0.798  0.8684 -1.4987 -0.8722
  118OSM    H7T12328   6.077   3.350  -0.765 -0.2937 -0.2542  1.0862
  118OSM    C8S12329   6.009   3.483  -0.927  0.5062 -0.3076  1.5355
  118OSM    H8S12330   6.106   3.535  -0.940 -0.3776  0.8344 -1.5110
  118OSM    H8T12331   5.934   3.566  -0.930  1.5434  0.6668 -1.7108
  118OSM    C9S12332   5.987   3.385  -1.043  0.4595 -0.2787 -0.1956
  118OSM    H9S12333   5.885   3.342  -1.030  0.7578 -1.6510 -2.1107
  118OSM    H9T12334   6.059   3.303  -1.025  0.1004 -0.5694 -0.0568
  118OSM   C10S12335   6.016   3.428  -1.186  0.6720 -0.2456  0.3306
  118OSM   H10S12336   6.125   3.451  -1.187  0.6478 -0.1456 -0.3506
  118OSM   H10T12337   5.964   3.525  -1.200  1.8544  0.6106  1.5988
  118OSM   C11S12338   5.980   3.324  -1.284 -0.0281 -0.0688  0.4332
  118OSM   H11S12339   5.869   3.316  -1.279 -0.0951  0.6701  0.2775
  118OSM   H11T12340   6.017   3.227  -1.245  0.3175  0.3637  1.2006
  118OSM   C12S12341   6.029   3.342  -1.425  0.4007 -0.2077 -0.0332
  118OSM   H12S12342   5.979   3.261  -1.481 -0.7026 -0.6662  1.5540
  118OSM   H12T12343   6.140   3.338  -1.431  0.4450  0.4340  0.2518
  118OSM   C13S12344   5.986   3.472  -1.496 -0.1838  0.5902 -0.4029
  118OSM   H13S12345   6.042   3.557  -1.452 -1.3393  0.6387  1.0493
  118OSM   H13T12346   5.877   3.483  -1.475 -0.4347  0.0294 -1.3572
  118OSM   C14S12347   5.996   3.456  -1.646 -0.2591 -0.0201  0.0067
  118OSM   H14S12348   5.940   3.369  -1.688  3.1131 -1.5532 -1.6838
  118OSM   H14T12349   6.101   3.444  -1.680  0.7222 -0.5717  2.9540
  118OSM   C15S12350   5.934   3.573  -1.720  0.5632  0.0464  0.6236
  118OSM   H15S12351   5.988   3.668  -1.701 -0.8435  0.8909  0.4982
  118OSM   H15T12352   5.832   3.587  -1.680  1.0101  1.7104  1.2611
  118OSM   C16S12353   5.929   3.546  -1.872 -0.0844 -0.3729  0.3067
  118OSM   H16S12354   5.855   3.464  -1.889 -1.3401  0.9724 -0.9872
  118OSM   H16T12355   6.028   3.522  -1.917  0.2874  2.7377 -0.8039
  118OSM   C17S12356   5.880   3.664  -1.956 -0.0489  0.3874 -0.3763
  118OSM   H17S12357   5.903   3.626  -2.058  0.2209  0.2963 -0.2832
  118OSM   H17T12358   5.942   3.755  -1.936  2.2701 -1.5917  2.2092
  118OSM   C18S12359   5.736   3.691  -1.927 -0.1469 -0.5399  0.0814
  118OSM   H18S12360   5.667   3.608  -1.951  1.0718 -1.3977 -0.6049
  118OSM   H18T12361   5.711   3.786  -1.978 -0.9511  0.1884  1.7601
  118OSM   H18U12362   5.728   3.713  -1.818  2.2070 -0.6502  0.3419
  118OSM    C1F12363   6.234   3.098  -0.356 -0.4417 -0.1274 -0.2895
  118OSM     OF12364   6.204   2.978  -0.356  0.2393 -0.7509 -0.6000
  118OSM    C2F12365   6.378   3.138  -0.340 -0.3105 -0.6861 -0.1652
  118OSM    H2F12366   6.401   3.128  -0.232 -1.1744  1.8936  0.3171
  118OSM    H2G12367   6.392   3.242  -0.376 -0.4132 -1.3624 -2.3142
  118OSM    C3F12368   6.478   3.049  -0.420  0.0430  0.4775  0.2447
  118OSM    H3F12369   6.463   2.946  -0.382  0.1995  1.3745  2.9871
  118OSM    H3G12370   6.583   3.079  -0.398  0.4871 -0.4165 -0.6294
  118OSM    C4F12371   6.453   3.052  -0.577 -0.2990  0.2929 -0.1588
  118OSM    H4F12372   6.373   2.984  -0.612 -1.5698  1.9466 -0.6118
  118OSM    H4G12373   6.550   3.011  -0.613  1.2556  1.3900  2.4791
  118OSM    C5F12374   6.443   3.185  -0.643  0.7679  0.9466 -0.3167
  118OSM    H5F12375   6.519   3.246  -0.590  2.4354 -0.2047 -1.2841
  118OSM    H5G12376   6.342   3.228  -0.622  0.1129 -1.3103  1.5355
  118OSM    C6F12377   6.471   3.186  -0.798 -0.8066 -0.2507 -0.2680
  118OSM    H6F12378   6.563   3.128  -0.824 -0.6881 -0.6258  0.9568
  118OSM    H6G12379   6.496   3.292  -0.821 -1.0318 -0.3449 -0.9805
  118OSM    C7F12380   6.360   3.140  -0.888  0.3845 -0.1513  0.1125
  118OSM    H7F12381   6.279   3.213  -0.872 -1.2260 -1.8769  0.2273
  118OSM    H7G12382   6.327   3.040  -0.853 -2.5334  0.2917 -1.1233
  118OSM    C8F12383   6.395   3.135  -1.040 -0.4511 -0.0869 -0.4088
  118OSM    H8F12384   6.311   3.093  -1.099  1.1528 -1.6580 -1.6853
  118OSM    H8G12385   6.471   3.054  -1.047 -0.1253  0.2953 -1.6090
  118OSM    C9F12386   6.449   3.260  -1.111  0.1680  0.5105  0.2849
  118OSM    H9F12387   6.434   3.344  -1.042  0.3224 -2.1437  3.8476
  118OSM   C10F12388   6.499   3.271  -1.231  0.3475  0.5545  0.4147
  118OSM   H10F12389   6.530   3.369  -1.270 -0.2581 -0.1129 -1.8897
  118OSM   C11F12390   6.540   3.155  -1.319  0.1189 -0.3463 -0.2318
  118OSM   H11F12391   6.528   3.054  -1.276 -0.8733 -0.2463 -0.2485
  118OSM   H11G12392   6.644   3.153  -1.356  0.7523  1.5591  1.2843
  118OSM   C12F12393   6.462   3.170  -1.446 -0.3940  0.3881  0.0028
  118OSM   H12F12394   6.494   3.268  -1.488  1.7309  0.0174  0.6114
  118OSM   H12G12395   6.356   3.164  -1.414 -1.4005 -0.7117 -3.1874
  118OSM   C13F12396   6.482   3.047  -1.544  0.1139 -0.1084 -0.4531
  118OSM   H13F12397   6.408   3.062  -1.626 -0.2005 -1.0710 -0.3565
  118OSM   H13G12398   6.470   2.950  -1.490  3.3810 -0.8459 -0.8868
  118OSM   C14F12399   6.619   3.057  -1.614  0.2243  0.2594 -0.5704
  118OSM   H14F12400   6.695   3.039  -1.534  0.9816  0.5074 -1.2190
  118OSM   H14G12401   6.628   3.161  -1.653  0.0807  0.1898 -0.7852
  118OSM   C15F12402   6.642   2.973  -1.740 -0.3966  0.1334 -0.9228
  118OSM   H15F12403   6.556   2.909  -1.766 -1.2359  1.0897 -0.5644
  118OSM   H15G12404   6.731   2.912  -1.712  0.9790  2.2726 -0.3644
  118OSM   C16F12405   6.689   3.059  -1.861  0.6819  0.6788  0.2340
  118OSM   H16F12406   6.775   3.119  -1.827  0.3415 -0.3579  3.2136
  118OSM   H16G12407   6.605   3.127  -1.888 -0.4472 -0.6128  0.3722
  118OSM   C17F12408   6.709   2.985  -1.994 -0.0799 -0.1409 -0.4442
  118OSM   H17F12409   6.620   2.922  -2.014 -0.9223  1.3575 -1.5907
  118OSM   H17G12410   6.793   2.913  -1.985 -0.4245 -0.9611 -3.0451
  118OSM   C18F12411   6.709   3.080  -2.114 -0.1731 -0.7577 -0.0579
  118OSM   H18F12412   6.670   3.032  -2.206 -1.2801 -0.7324  0.3841
  118OSM   H18G12413   6.813   3.106  -2.143 -1.2980  2.7287 -1.4757
  118OSM   H18H12414   6.645   3.169  -2.097 -0.0475 -0.1870 -2.2883
  119OSM      N12415   2.503   0.215   0.413 -0.4340  0.3817 -0.5320
  119OSM    C1512416   2.609   0.230   0.526  0.4675  0.0181  0.4225
  119OSM   H15A12417   2.567   0.197   0.619 -0.7910  1.4036  0.3699
  119OSM   H15B12418   2.636   0.334   0.536 -3.3783  1.4309 -1.7246
  119OSM   H15C12419   2.700   0.177   0.500  0.2133  0.1634 -0.8765
  119OSM    C1412420   2.377   0.287   0.455 -0.1252  0.1973 -0.1025
  119OSM   H14A12421   2.313   0.284   0.369 -0.3667  0.7192  0.0576
  119OSM   H14B12422   2.398   0.389   0.485 -0.1970  0.1496  0.1136
  119OSM   H14C12423   2.329   0.241   0.541  0.6096  0.2270  0.3375
  119OSM    C1312424   2.569   0.273   0.296  0.6051 -0.5217  0.2102
  119OSM   H13A12425   2.600   0.375   0.312 -2.7822  0.4800  1.2127
  119OSM   H13B12426   2.516   0.267   0.203 -0.2281  0.3151  0.6210
  119OSM   H13C12427   2.658   0.218   0.269  1.4024  0.9818 -0.3433
  119OSM    C1212428   2.466   0.073   0.372 -0.0436  0.2687 -0.8942
  119OSM   H12A12429   2.408   0.025   0.449  0.7561  1.3280  0.3916
  119OSM   H12B12430   2.553   0.008   0.369  1.0558  1.5808  0.9031
  119OSM    C1112431   2.397   0.049   0.232  0.6923  0.3089 -0.1454
  119OSM   H11A12432   2.326   0.134   0.217  1.5849  0.9566 -0.8317
  119OSM   H11B12433   2.317  -0.028   0.225  0.8743  0.2896 -3.4394
  119OSM      P12434   2.598  -0.080   0.119 -0.0203 -0.1247  0.2560
  119OSM    O1312435   2.727  -0.026   0.155 -0.4911  0.2989  0.1578
  119OSM    O1412436   2.546  -0.207   0.178 -0.2104  0.4870  0.0443
  119OSM    O1112437   2.600  -0.100  -0.034  0.0077 -0.9908 -0.2480
  119OSM    O1212438   2.497   0.041   0.127 -0.3170  0.1528  0.2812
  119OSM    C1S12439   2.504  -0.155  -0.120  0.3561  0.8712  0.2533
  119OSM    H1S12440   2.399  -0.128  -0.094 -1.0537 -2.7381 -1.0315
  119OSM    H1T12441   2.501  -0.267  -0.121 -0.0210  0.8796  0.2803
  119OSM     NF12442   2.432  -0.115  -0.352 -0.1122 -0.3664 -1.0733
  119OSM    HNF12443   2.424  -0.205  -0.396 -2.0276 -0.0391 -1.5038
  119OSM    C2S12444   2.544  -0.106  -0.264  0.2939 -0.0019 -0.5922
  119OSM    H2S12445   2.566   0.000  -0.242  1.8199 -0.5951  0.9788
  119OSM    C3S12446   2.670  -0.175  -0.323  0.0651  0.4663 -0.8242
  119OSM    H3S12447   2.639  -0.280  -0.340  0.2761  0.1374  0.7358
  119OSM     O312448   2.789  -0.171  -0.241  0.3131  0.0867 -0.5797
  119OSM    HO312449   2.739  -0.171  -0.159 -0.0054  1.5321 -0.7396
  119OSM    C4S12450   2.707  -0.110  -0.458  0.4476  0.7106  1.1735
  119OSM    H4S12451   2.641  -0.139  -0.540  0.5907 -0.6215  1.5012
  119OSM    C5S12452   2.802  -0.021  -0.495 -0.4852  0.3579  0.2016
  119OSM    H5S12453   2.868   0.025  -0.420 -0.4978  0.6442  0.0356
  119OSM    C6S12454   2.825   0.036  -0.632  0.2218 -0.1378  0.2325
  119OSM    H6S12455   2.924   0.001  -0.670 -0.8614 -0.3820 -2.6823
  119OSM    H6T12456   2.837   0.145  -0.619  0.0849  0.0214 -0.8737
  119OSM    C7S12457   2.728  -0.006  -0.744  0.4750 -0.3612 -0.0118
  119OSM    H7S12458   2.623   0.013  -0.716  0.9751  2.0320  0.4431
  119OSM    H7T12459   2.743  -0.113  -0.770  0.0157 -0.4040 -0.1108
  119OSM    C8S12460   2.752   0.075  -0.868  0.3037  0.0044 -0.0061
  119OSM    H8S12461   2.757   0.181  -0.837  0.2568  0.6032 -1.9086
  119OSM    H8T12462   2.669   0.058  -0.940  1.7122  1.7490 -2.1827
  119OSM    C9S12463   2.883   0.046  -0.941  0.7304 -0.5444 -0.0059
  119OSM    H9S12464   2.885  -0.059  -0.977  0.3920  0.6439 -3.9290
  119OSM    H9T12465   2.966   0.067  -0.870  0.4892 -2.7512  1.0033
  119OSM   C10S12466   2.907   0.143  -1.060  0.6113 -0.1283 -0.2686
  119OSM   H10S12467   2.916   0.253  -1.047  3.7936 -0.2646 -0.4321
  119OSM   H10T12468   2.821   0.114  -1.124  2.0541 -2.3451 -1.3678
  119OSM   C11S12469   3.029   0.086  -1.132 -0.6557  0.1714  0.2086
  119OSM   H11S12470   3.047  -0.019  -1.102  0.8741 -0.3502 -2.2778
  119OSM   H11T12471   3.117   0.136  -1.085 -0.2432 -0.8588  0.5564
  119OSM   C12S12472   3.025   0.089  -1.286 -0.3314  0.4296  0.9504
  119OSM   H12S12473   3.010   0.197  -1.304 -0.7541  0.5037  1.7112
  119OSM   H12T12474   2.929   0.048  -1.323  0.1950  1.4024 -1.7211
  119OSM   C13S12475   3.145   0.029  -1.364  0.5843 -0.1415  0.0762
  119OSM   H13S12476   3.155  -0.077  -1.333  0.7926 -0.0846  0.2045
  119OSM   H13T12477   3.229   0.082  -1.314  1.1737 -2.1711  1.3861
  119OSM   C14S12478   3.139   0.034  -1.516  0.4426  0.0559 -0.2038
  119OSM   H14S12479   3.144   0.138  -1.554  0.0028  0.6102  1.1754
  119OSM   H14T12480   3.047  -0.012  -1.559  2.2434 -1.4385 -2.7212
  119OSM   C15S12481   3.248  -0.047  -1.579  0.2293 -0.0257 -0.8422
  119OSM   H15S12482   3.253  -0.152  -1.543 -0.9757  1.2307  3.5823
  119OSM   H15T12483   3.339   0.012  -1.554  0.0244 -0.8663  2.3176
  119OSM   C16S12484   3.236  -0.043  -1.734 -0.5810  0.9501 -0.3603
  119OSM   H16S12485   3.237   0.065  -1.758  0.7367  0.6394 -1.8533
  119OSM   H16T12486   3.138  -0.090  -1.761  0.7520 -1.7327 -0.9046
  119OSM   C17S12487   3.351  -0.121  -1.811 -0.1499 -0.2399  0.0949
  119OSM   H17S12488   3.447  -0.087  -1.767 -0.6143  1.6666 -0.2827
  119OSM   H17T12489   3.352  -0.085  -1.916  2.7229 -1.7991 -0.5225
  119OSM   C18S12490   3.342  -0.271  -1.820 -0.2930 -0.0764 -0.3122
  119OSM   H18S12491   3.425  -0.316  -1.878 -0.5908 -1.5781  0.3869
  119OSM   H18T12492   3.248  -0.304  -1.869  0.1292 -3.5895  0.9913
  119OSM   H18U12493   3.332  -0.318  -1.720  0.7995  0.4293  0.0490
  119OSM    C1F12494   2.327  -0.027  -0.343  0.1760 -0.2095 -0.0516
  119OSM     OF12495   2.323   0.069  -0.264  0.5644  0.1822  0.3773
  119OSM    C2F12496   2.218  -0.053  -0.436 -0.0891  0.5664  0.0453
  119OSM    H2F12497   2.119  -0.050  -0.386 -0.8076  1.3794 -1.3558
  119OSM    H2G12498   2.227  -0.152  -0.486  0.1978  0.4677  0.2911
  119OSM    C3F12499   2.206   0.065  -0.530  0.4733 -0.9373  0.4465
  119OSM    H3F12500   2.218   0.165  -0.482 -0.2197  0.0589 -1.3725
  119OSM    H3G12501   2.100   0.070  -0.561  1.0029  2.5983 -1.3376
  119OSM    C4F12502   2.292   0.059  -0.656 -0.7696  0.0020  0.0860
  119OSM    H4F12503   2.247  -0.028  -0.708  0.2172 -1.1645  1.1204
  119OSM    H4G12504   2.401   0.043  -0.642 -1.2447 -2.0070  1.9891
  119OSM    C5F12505   2.284   0.187  -0.736 -0.3194 -0.5825  0.0797
  119OSM    H5F12506   2.375   0.246  -0.715 -0.2946 -0.5021 -0.2476
  119OSM    H5G12507   2.200   0.252  -0.703 -0.0271 -1.6089  3.2154
  119OSM    C6F12508   2.268   0.162  -0.887  0.8730  0.4436 -0.7478
  119OSM    H6F12509   2.171   0.107  -0.892  0.9435 -0.0896  2.1440
  119OSM    H6G12510   2.343   0.089  -0.924 -0.3032  0.5828 -3.6495
  119OSM    C7F12511   2.266   0.287  -0.974 -0.0902 -0.3285  0.1221
  119OSM    H7F12512   2.353   0.350  -0.947 -0.4978  0.4711 -0.3855
  119OSM    H7G12513   2.181   0.350  -0.939  1.9048  0.5747  3.9602
  119OSM    C8F12514   2.278   0.250  -1.122  0.0808  0.8474  0.1075
  119OSM    H8F12515   2.373   0.193  -1.129  1.9516  3.7918 -0.4184
  119OSM    H8G12516   2.283   0.349  -1.172  0.1783  1.0032  0.4248
  119OSM    C9F12517   2.161   0.157  -1.165 -0.5935  0.3091  0.0665
  119OSM    H9F12518   2.092   0.126  -1.086 -0.3299 -0.8860 -0.1484
  119OSM   C10F12519   2.135   0.103  -1.286 -0.4091  0.9416 -0.1656
  119OSM   H10F12520   2.055   0.028  -1.289  2.0749 -1.9362  1.1040
  119OSM   C11F12521   2.220   0.126  -1.407  0.3172  0.0659  0.1796
  119OSM   H11F12522   2.223   0.039  -1.476 -0.0271  0.8111 -0.7997
  119OSM   H11G12523   2.319   0.160  -1.371 -1.0566  3.6612  0.9622
  119OSM   C12F12524   2.166   0.234  -1.505  0.2850 -0.5805  0.5608
  119OSM   H12F12525   2.177   0.335  -1.459  1.6077  0.4276 -1.8120
  119OSM   H12G12526   2.065   0.209  -1.542  1.1440 -1.9866 -0.9312
  119OSM   C13F12527   2.254   0.230  -1.629  0.1955 -0.1294  0.4014
  119OSM   H13F12528   2.241   0.131  -1.678  0.8174 -0.7406  1.4419
  119OSM   H13G12529   2.363   0.233  -1.607  0.7211 -0.8417 -1.7694
  119OSM   C14F12530   2.213   0.328  -1.740 -0.6060  0.0481  1.0720
  119OSM   H14F12531   2.201   0.433  -1.707 -0.9530  0.8796 -1.4813
  119OSM   H14G12532   2.112   0.294  -1.769  0.1853 -1.0927 -0.4766
  119OSM   C15F12533   2.299   0.330  -1.864  0.0764 -0.4156  0.5159
  119OSM   H15F12534   2.257   0.412  -1.925 -0.5604 -2.6211 -2.2349
  119OSM   H15G12535   2.296   0.238  -1.926  1.6989 -0.2673  0.1651
  119OSM   C16F12536   2.441   0.385  -1.840 -0.0602 -0.7868  0.5755
  119OSM   H16F12537   2.484   0.358  -1.741 -0.4989  1.4200  1.4246
  119OSM   H16G12538   2.447   0.496  -1.830 -1.8606 -0.6544  0.5416
  119OSM   C17F12539   2.533   0.345  -1.962 -0.2370 -0.0039 -0.3880
  119OSM   H17F12540   2.544   0.234  -1.968 -0.2727 -0.1552  1.6138
  119OSM   H17G12541   2.638   0.380  -1.962 -0.6722  1.3789  0.4977
  119OSM   C18F12542   2.484   0.384  -2.102 -0.5359  0.1833  0.8934
  119OSM   H18F12543   2.480   0.495  -2.110  0.4072  0.2749  1.5315
  119OSM   H18G12544   2.380   0.359  -2.134  0.6955 -0.9686 -2.8097
  119OSM   H18H12545   2.541   0.330  -2.181 -1.0142  0.1704  0.5495
  120OSM      N12546   0.970   6.255   0.547  0.0641 -0.3656  0.1544
  120OSM    C1512547   0.882   6.137   0.560  0.6965  0.3106 -0.3390
  120OSM   H15A12548   0.812   6.153   0.641  0.0413 -0.2457 -0.7841
  120OSM   H15B12549   0.937   6.044   0.570 -0.7687 -0.4289  1.4562
  120OSM   H15C12550   0.825   6.127   0.469 -0.6904  0.7051  0.4504
  120OSM    C1412551   0.993   6.304   0.405 -0.3339 -0.2383  0.2360
  120OSM   H14A12552   1.055   6.248   0.336  0.2982  1.8448 -0.9456
  120OSM   H14B12553   1.049   6.396   0.409  1.5535 -1.3492  1.4697
  120OSM   H14C12554   0.896   6.325   0.363  0.0833  0.4186 -0.4172
  120OSM    C1312555   0.908   6.360   0.628 -0.0330  0.3971  0.1551
  120OSM   H13A12556   0.903   6.324   0.730 -1.3610  2.5013  0.9125
  120OSM   H13B12557   0.806   6.382   0.598  0.1859  0.9427 -0.2086
  120OSM   H13C12558   0.963   6.453   0.626 -0.3969  0.6365  0.9369
  120OSM    C1212559   1.104   6.218   0.610 -0.8003 -0.1703 -0.5908
  120OSM   H12A12560   1.084   6.172   0.706  0.0809 -4.1487 -2.1343
  120OSM   H12B12561   1.159   6.311   0.622 -1.2884  0.3090 -1.8997
  120OSM    C1112562   1.192   6.120   0.532 -0.0283 -0.2662  0.0182
  120OSM   H11A12563   1.296   6.113   0.571  0.2631 -2.0774 -0.9634
  120OSM   H11B12564   1.213   6.163   0.431 -0.7063 -0.2601 -0.1198
  120OSM      P12565   1.126   5.905   0.391 -0.5652  0.0148  0.4214
  120OSM    O1312566   1.256   5.872   0.326  0.1671 -0.6077 -0.1377
  120OSM    O1412567   1.040   5.788   0.413 -0.1614 -0.8131 -0.2586
  120OSM    O1112568   1.046   6.014   0.293 -0.3537 -0.3911 -0.0597
  120OSM    O1212569   1.143   5.980   0.529  0.4007 -0.1758  0.1864
  120OSM    C1S12570   1.057   6.004   0.144  0.2099 -0.1172 -1.1931
  120OSM    H1S12571   1.163   5.989   0.116  0.8536  2.2789 -0.2888
  120OSM    H1T12572   1.024   6.105   0.111  0.3950  0.1081 -0.6936
  120OSM     NF12573   0.980   5.948  -0.079 -0.1701 -0.1792  0.2530
  120OSM    HNF12574   0.917   6.013  -0.120  0.3541 -1.3199 -2.5895
  120OSM    C2S12575   0.966   5.913   0.064  0.7525 -0.2911 -0.2205
  120OSM    H2S12576   1.018   5.817   0.086 -0.0479 -0.4950  0.8360
  120OSM    C3S12577   0.817   5.903   0.111 -0.3608  0.0471  0.2266
  120OSM    H3S12578   0.773   6.004   0.095 -0.8636 -0.1277  0.4820
  120OSM     O312579   0.794   5.863   0.247 -0.3235  0.1615  0.0135
  120OSM    HO312580   0.879   5.872   0.291 -1.4191  1.3365  2.0348
  120OSM    C4S12581   0.748   5.792   0.019  0.5014 -0.0942 -0.0939
  120OSM    H4S12582   0.797   5.697   0.042  1.1689  0.6173  1.6107
  120OSM    C5S12583   0.636   5.809  -0.059  0.1888  0.0792  0.0485
  120OSM    H5S12584   0.575   5.900  -0.053 -0.4237 -0.3616  0.7016
  120OSM    C6S12585   0.578   5.694  -0.148 -0.2103  0.4764 -0.0530
  120OSM    H6S12586   0.468   5.697  -0.134 -0.2308  1.6515 -0.4108
  120OSM    H6T12587   0.612   5.595  -0.110  1.1067 -0.3031 -3.0197
  120OSM    C7S12588   0.624   5.698  -0.293 -0.2299 -0.7743 -0.4708
  120OSM    H7S12589   0.578   5.615  -0.350 -1.6016  0.4879 -1.2748
  120OSM    H7T12590   0.735   5.695  -0.307 -0.3154 -0.0104 -1.3822
  120OSM    C8S12591   0.573   5.824  -0.360  0.3304 -0.2115 -0.0477
  120OSM    H8S12592   0.595   5.901  -0.284  1.4568 -2.3258  1.8983
  120OSM    H8T12593   0.464   5.815  -0.380  0.2791  0.0126  0.1303
  120OSM    C9S12594   0.649   5.860  -0.490  0.0347 -0.1810  1.0660
  120OSM    H9S12595   0.754   5.890  -0.470 -0.3520  0.4580  2.2528
  120OSM    H9T12596   0.611   5.954  -0.535 -0.3158 -1.0177 -0.4634
  120OSM   C10S12597   0.638   5.753  -0.597  0.5754 -0.0719  0.9215
  120OSM   H10S12598   0.532   5.730  -0.618  0.3027  0.4247  1.7308
  120OSM   H10T12599   0.683   5.658  -0.562  1.5587 -1.1212 -2.7158
  120OSM   C11S12600   0.705   5.791  -0.734  0.1651  0.6661 -0.0841
  120OSM   H11S12601   0.816   5.794  -0.727  0.0559  1.5093  2.2617
  120OSM   H11T12602   0.671   5.887  -0.777 -1.1111 -0.6993 -2.3084
  120OSM   C12S12603   0.663   5.664  -0.826 -0.6151 -0.1563 -0.4258
  120OSM   H12S12604   0.555   5.670  -0.853 -0.3995 -2.8680 -2.3349
  120OSM   H12T12605   0.683   5.566  -0.778 -0.8192 -0.4494 -0.9399
  120OSM   C13S12606   0.739   5.669  -0.960  0.3726  0.4548 -0.1807
  120OSM   H13S12607   0.848   5.653  -0.944 -0.0470 -0.1693  2.7474
  120OSM   H13T12608   0.732   5.759  -1.024  2.8035  0.7461 -0.1519
  120OSM   C14S12609   0.699   5.553  -1.048  0.1721  0.2742 -0.6515
  120OSM   H14S12610   0.589   5.542  -1.041  0.0142  1.8560 -0.1588
  120OSM   H14T12611   0.745   5.458  -1.015 -2.3931 -0.9615 -0.4446
  120OSM   C15S12612   0.713   5.563  -1.199  0.0371 -0.4818  0.0973
  120OSM   H15S12613   0.822   5.576  -1.219 -0.4250  0.3054 -2.2210
  120OSM   H15T12614   0.649   5.643  -1.239  0.7740 -0.2902 -0.7398
  120OSM   C16S12615   0.664   5.435  -1.272 -0.8142 -0.5075  0.1875
  120OSM   H16S12616   0.555   5.421  -1.259 -0.6656 -1.3644  0.5425
  120OSM   H16T12617   0.712   5.347  -1.225 -3.1522 -1.6239  0.6137
  120OSM   C17S12618   0.719   5.444  -1.416 -0.4176 -0.3538 -0.2355
  120OSM   H17S12619   0.826   5.427  -1.394 -0.2379  0.4403 -0.4496
  120OSM   H17T12620   0.714   5.553  -1.439  0.4683 -0.4518 -0.9444
  120OSM   C18S12621   0.666   5.338  -1.514  0.8572  0.9935  0.2737
  120OSM   H18S12622   0.555   5.345  -1.520  0.9215  1.9676  0.0412
  120OSM   H18T12623   0.703   5.240  -1.479  3.7313  2.2352  0.9882
  120OSM   H18U12624   0.703   5.346  -1.618  0.5827 -3.5294 -0.3616
  120OSM    C1F12625   1.101   5.939  -0.139  0.3191  0.2667  0.4776
  120OSM     OF12626   1.180   5.857  -0.098 -0.5796 -0.1482 -0.2972
  120OSM    C2F12627   1.123   6.035  -0.249  0.1056 -0.2356 -0.8695
  120OSM    H2F12628   1.230   6.033  -0.278  0.9324 -1.4306  1.9189
  120OSM    H2G12629   1.111   6.141  -0.217  1.7012  0.3711 -2.1273
  120OSM    C3F12630   1.023   6.005  -0.363  0.0740  0.3071 -0.6046
  120OSM    H3F12631   0.923   6.018  -0.316  1.8480  0.9470  3.4265
  120OSM    H3G12632   1.034   5.900  -0.397  2.9179  0.3032  0.0533
  120OSM    C4F12633   1.047   6.097  -0.477 -1.0968  0.0673  0.5465
  120OSM    H4F12634   1.151   6.077  -0.510 -0.8708 -2.2627  2.4067
  120OSM    H4G12635   1.059   6.202  -0.443  2.6245 -0.1660  0.2903
  120OSM    C5F12636   0.935   6.075  -0.581  0.3517  1.0965 -0.4635
  120OSM    H5F12637   0.833   6.083  -0.539  0.3748 -1.6714  0.2919
  120OSM    H5G12638   0.944   5.968  -0.607 -0.2031  0.3919  1.9641
  120OSM    C6F12639   0.952   6.158  -0.700  0.5098 -0.2069 -0.0546
  120OSM    H6F12640   1.056   6.162  -0.739  1.0387 -1.1860  1.1860
  120OSM    H6G12641   0.924   6.262  -0.676 -0.2372 -0.3824 -0.1280
  120OSM    C7F12642   0.848   6.125  -0.810  0.2996 -0.1567 -0.6976
  120OSM    H7F12643   0.745   6.141  -0.772 -0.0807  1.6383 -2.2903
  120OSM    H7G12644   0.868   6.021  -0.843  1.9966  0.2171 -0.9176
  120OSM    C8F12645   0.853   6.208  -0.941  0.5334 -0.5049  0.2125
  120OSM    H8F12646   0.853   6.317  -0.917  3.9542  0.0777 -1.7456
  120OSM    H8G12647   0.768   6.190  -1.010  0.8373 -3.2996  0.4663
  120OSM    C9F12648   0.969   6.169  -1.022 -0.5932  0.2408  0.1215
  120OSM    H9F12649   1.063   6.221  -1.000 -1.8327  1.8730  1.9153
  120OSM   C10F12650   0.973   6.085  -1.124  0.7726  0.9073  0.4568
  120OSM   H10F12651   1.066   6.055  -1.173  0.4597 -0.6422  0.7550
  120OSM   C11F12652   0.864   6.009  -1.192 -0.2730  0.3194 -0.9228
  120OSM   H11F12653   0.770   5.993  -1.134 -0.2675 -0.1814 -1.0445
  120OSM   H11G12654   0.890   5.908  -1.231 -0.9145  0.3240 -1.3644
  120OSM   C12F12655   0.813   6.078  -1.321 -0.1355 -0.6512 -0.6544
  120OSM   H12F12656   0.892   6.105  -1.395 -1.9850  1.0843 -2.0970
  120OSM   H12G12657   0.770   6.176  -1.293 -0.4302 -0.5362 -1.4927
  120OSM   C13F12658   0.708   5.987  -1.388  0.1906  0.0546  0.6992
  120OSM   H13F12659   0.649   6.049  -1.460  2.6924 -0.0088 -1.5778
  120OSM   H13G12660   0.636   5.950  -1.312 -1.7642  1.8622 -0.1553
  120OSM   C14F12661   0.765   5.866  -1.469  0.4126 -0.0842 -0.3697
  120OSM   H14F12662   0.678   5.808  -1.507 -1.3448  2.2018 -0.0839
  120OSM   H14G12663   0.810   5.793  -1.398  0.8398  0.3928 -0.1457
  120OSM   C15F12664   0.858   5.889  -1.586 -0.4097 -0.0852 -0.3012
  120OSM   H15F12665   0.953   5.929  -1.545 -0.2115  0.7722 -1.5046
  120OSM   H15G12666   0.800   5.957  -1.653  0.5957  1.5819  0.4461
  120OSM   C16F12667   0.890   5.754  -1.655  0.1686  0.0093  0.2430
  120OSM   H16F12668   0.794   5.698  -1.657  0.6566 -0.8278 -0.7688
  120OSM   H16G12669   0.953   5.694  -1.586  0.8092  0.1610 -0.1932
  120OSM   C17F12670   0.951   5.777  -1.790 -0.1232  1.2748 -0.4470
  120OSM   H17F12671   1.049   5.825  -1.769  1.5251 -0.3766 -3.6661
  120OSM   H17G12672   0.894   5.854  -1.847  0.6069  1.0497 -1.5151
  120OSM   C18F12673   0.985   5.651  -1.868  0.0623  0.1896  0.6562
  120OSM   H18F12674   1.044   5.580  -1.805  0.0742  0.2310  0.6909
  120OSM   H18G12675   1.047   5.677  -1.957  0.0139 -1.3558  0.1409
  120OSM   H18H12676   0.900   5.603  -1.920  0.9395 -1.3943  0.5967
  121OSM      N12677   3.469   2.006   0.016  0.3397  0.3788 -0.5754
  121OSM    C1512678   3.317   1.995   0.025 -0.2479  0.4823  1.0359
  121OSM   H15A12679   3.252   2.080   0.011 -2.4411 -1.1850  0.5861
  121OSM   H15B12680   3.297   1.964   0.127  1.5841 -0.6020  1.1175
  121OSM   H15C12681   3.293   1.915  -0.044  0.9299  0.2037  0.9172
  121OSM    C1412682   3.541   1.896   0.087  0.3482  0.1613  0.8247
  121OSM   H14A12683   3.536   1.916   0.194  1.9397  1.8482  0.6241
  121OSM   H14B12684   3.646   1.896   0.062  0.2515  0.1001  0.4142
  121OSM   H14C12685   3.503   1.796   0.073  0.2886  0.4067 -0.8938
  121OSM    C1312686   3.512   2.001  -0.130  0.7005  0.1894  0.8971
  121OSM   H13A12687   3.472   2.082  -0.189  2.6424  0.6906  0.1738
  121OSM   H13B12688   3.482   1.908  -0.175  0.6435  1.3676 -1.7065
  121OSM   H13C12689   3.619   2.016  -0.118  0.6610  0.1930  1.2517
  121OSM    C1212690   3.525   2.140   0.070 -0.2446 -0.1782  0.1789
  121OSM   H12A12691   3.495   2.145   0.174  2.2225  0.5187  0.9244
  121OSM   H12B12692   3.478   2.212   0.005 -1.2715 -1.2962 -0.3691
  121OSM    C1112693   3.680   2.162   0.089 -1.2054  0.0773 -0.0287
  121OSM   H11A12694   3.717   2.092   0.167  1.0138 -0.5515 -1.5556
  121OSM   H11B12695   3.687   2.264   0.132 -1.7227 -0.3673  1.1601
  121OSM      P12696   3.857   2.238  -0.087  0.1037 -0.5628  0.0705
  121OSM    O1312697   3.790   2.367  -0.090 -0.0135  0.1889  0.4861
  121OSM    O1412698   3.988   2.230  -0.026  0.0828 -0.4018 -0.3228
  121OSM    O1112699   3.864   2.185  -0.234  0.6291  0.2300 -0.0434
  121OSM    O1212700   3.754   2.136  -0.029  0.1602 -0.4895 -0.1176
  121OSM    C1S12701   3.788   2.237  -0.338  0.3178  0.6179  1.1869
  121OSM    H1S12702   3.759   2.342  -0.316 -1.7136  0.2178  0.5589
  121OSM    H1T12703   3.700   2.169  -0.345  0.6236  0.3171  0.1573
  121OSM     NF12704   3.767   2.299  -0.569  0.4879 -0.7958  0.5027
  121OSM    HNF12705   3.707   2.241  -0.623 -0.0473  0.6491 -0.5203
  121OSM    C2S12706   3.866   2.247  -0.478  0.1872  0.8678 -0.0369
  121OSM    H2S12707   3.943   2.326  -0.469  0.3676  0.7492 -0.5119
  121OSM    C3S12708   3.932   2.113  -0.515  0.1702 -0.1027 -0.4541
  121OSM    H3S12709   3.846   2.042  -0.518 -1.4388  1.5920  1.7411
  121OSM     O312710   4.009   2.052  -0.407  0.0354  0.2100  0.1710
  121OSM    HO312711   3.945   2.056  -0.336  0.1915 -3.6714  0.7412
  121OSM    C4S12712   4.002   2.112  -0.642 -0.6628 -0.2457  0.1906
  121OSM    H4S12713   3.932   2.060  -0.710 -1.8046 -0.6851  1.6484
  121OSM    C5S12714   4.117   2.166  -0.686 -0.4658 -0.4956  0.4410
  121OSM    H5S12715   4.182   2.210  -0.609  0.8416 -0.4243 -0.6738
  121OSM    C6S12716   4.174   2.187  -0.825 -0.1805  0.4094 -0.1344
  121OSM    H6S12717   4.275   2.142  -0.834 -0.0778  0.5997  0.0560
  121OSM    H6T12718   4.184   2.297  -0.841 -0.3605  0.6171  1.1093
  121OSM    C7S12719   4.085   2.125  -0.937 -0.7977  0.0959 -0.4319
  121OSM    H7S12720   3.985   2.174  -0.947 -1.0756 -0.8351 -3.1468
  121OSM    H7T12721   4.076   2.016  -0.919 -0.4548  0.1572  0.0979
  121OSM    C8S12722   4.163   2.143  -1.073  0.2040  0.0273  0.1708
  121OSM    H8S12723   4.256   2.083  -1.058  0.6977  0.9645  0.9477
  121OSM    H8T12724   4.202   2.247  -1.079 -0.2551  0.1740 -0.3263
  121OSM    C9S12725   4.084   2.091  -1.199  0.2502 -0.4975 -0.0209
  121OSM    H9S12726   3.979   2.126  -1.200  0.7094  0.9608  0.0757
  121OSM    H9T12727   4.079   1.980  -1.201 -0.3909 -0.4743  0.1597
  121OSM   C10S12728   4.156   2.125  -1.334  0.4194 -0.6088  0.0835
  121OSM   H10S12729   4.262   2.090  -1.336  0.3943 -0.6735 -0.9139
  121OSM   H10T12730   4.167   2.235  -1.349  1.6384 -0.9373 -1.9155
  121OSM   C11S12731   4.094   2.058  -1.464 -0.0930 -0.3268 -0.0760
  121OSM   H11S12732   3.997   2.103  -1.493  0.8836 -0.1202 -3.3446
  121OSM   H11T12733   4.070   1.951  -1.446  0.1563 -0.5218 -0.8689
  121OSM   C12S12734   4.187   2.077  -1.585  0.0444  0.3481 -0.7632
  121OSM   H12S12735   4.281   2.021  -1.568  0.9965  2.4447  1.4020
  121OSM   H12T12736   4.219   2.184  -1.587  0.7346  0.1963  0.8535
  121OSM   C13S12737   4.126   2.027  -1.719  1.3082  0.3738 -1.0549
  121OSM   H13S12738   4.194   2.076  -1.792  1.6049 -0.3196 -1.2469
  121OSM   H13T12739   4.027   2.077  -1.723  0.9114 -0.0079  1.8005
  121OSM   C14S12740   4.130   1.876  -1.730  0.5360  0.4118  0.0031
  121OSM   H14S12741   4.072   1.831  -1.646 -1.3043  1.6658 -0.5365
  121OSM   H14T12742   4.237   1.847  -1.717  1.8388  4.5931  0.1737
  121OSM   C15S12743   4.082   1.814  -1.866 -0.3042 -0.1638 -1.2062
  121OSM   H15S12744   4.163   1.833  -1.939  1.7684  0.5818  1.1549
  121OSM   H15T12745   3.995   1.878  -1.892 -0.1831  0.2850 -0.5480
  121OSM   C16S12746   4.060   1.661  -1.864  0.4359  0.3411  0.1620
  121OSM   H16S12747   3.996   1.631  -1.779  1.2648 -0.3612  0.5577
  121OSM   H16T12748   4.153   1.610  -1.829  0.3137 -0.0838 -0.1273
  121OSM   C17S12749   4.012   1.598  -2.000  0.0517  0.0948  0.1198
  121OSM   H17S12750   4.085   1.613  -2.083 -2.1871 -1.3100 -2.2619
  121OSM   H17T12751   3.915   1.639  -2.035 -1.7261 -1.6380  2.6541
  121OSM   C18S12752   3.983   1.447  -1.988 -0.1930  0.2416 -0.1051
  121OSM   H18S12753   4.056   1.381  -1.937 -3.2073  0.3398  5.0216
  121OSM   H18T12754   3.955   1.409  -2.089  0.8268 -2.1049  0.4292
  121OSM   H18U12755   3.894   1.446  -1.922 -1.4490  2.4150 -1.6171
  121OSM    C1F12756   3.720   2.427  -0.569 -0.2047  0.5616 -0.4237
  121OSM     OF12757   3.769   2.510  -0.490 -0.5825  0.6052  0.0531
  121OSM    C2F12758   3.598   2.458  -0.649 -0.4004  0.4071  0.1903
  121OSM    H2F12759   3.520   2.497  -0.581  1.1307  0.6326  1.9070
  121OSM    H2G12760   3.566   2.372  -0.712  0.4005 -0.1672  0.5563
  121OSM    C3F12761   3.629   2.574  -0.754  0.2136 -0.3281  0.1096
  121OSM    H3F12762   3.726   2.554  -0.805  1.2692  0.5952  1.6642
  121OSM    H3G12763   3.649   2.675  -0.712 -3.0533  0.7227 -0.5987
  121OSM    C4F12764   3.528   2.574  -0.870 -0.0094  0.2710 -0.1843
  121OSM    H4F12765   3.426   2.607  -0.841 -0.0065  2.4716 -2.3209
  121OSM    H4G12766   3.518   2.473  -0.915 -0.6821  0.8706 -1.4321
  121OSM    C5F12767   3.568   2.668  -0.979 -0.4916 -0.0973  1.0214
  121OSM    H5F12768   3.672   2.641  -1.009 -1.1139 -1.5853  0.1185
  121OSM    H5G12769   3.569   2.773  -0.943  0.7296  0.0386  0.6389
  121OSM    C6F12770   3.480   2.652  -1.092 -0.6179  0.3927  0.1317
  121OSM    H6F12771   3.474   2.745  -1.153  1.4970  0.9809  0.7635
  121OSM    H6G12772   3.377   2.631  -1.055  0.2692 -0.5113  2.2305
  121OSM    C7F12773   3.521   2.536  -1.185  0.7589 -0.2588 -0.3383
  121OSM    H7F12774   3.488   2.440  -1.140  0.5625  0.4979  1.1867
  121OSM    H7G12775   3.631   2.541  -1.198  0.5895 -1.1778 -2.6944
  121OSM    C8F12776   3.462   2.539  -1.332  0.4565 -0.0966  0.5884
  121OSM    H8F12777   3.488   2.446  -1.388  0.9882 -1.0165  2.2949
  121OSM    H8G12778   3.516   2.619  -1.386  0.0676  1.0434  1.8245
  121OSM    C9F12779   3.316   2.563  -1.312  0.8376  0.2489 -0.2732
  121OSM    H9F12780   3.291   2.635  -1.233 -2.3178  1.5038 -2.2168
  121OSM   C10F12781   3.208   2.514  -1.379  0.3184  0.3049 -0.0236
  121OSM   H10F12782   3.109   2.554  -1.351  0.5706  1.5912 -0.8925
  121OSM   C11F12783   3.208   2.413  -1.486  1.4398  0.3145  0.0094
  121OSM   H11F12784   3.146   2.326  -1.457 -1.2825  1.8843 -0.7514
  121OSM   H11G12785   3.310   2.381  -1.516  0.9539 -3.5131  1.8360
  121OSM   C12F12786   3.137   2.470  -1.611 -0.0117 -0.3733 -0.2493
  121OSM   H12F12787   3.160   2.579  -1.618  0.1045 -0.1184  2.6713
  121OSM   H12G12788   3.028   2.460  -1.591  0.4536 -0.0955  3.0956
  121OSM   C13F12789   3.172   2.404  -1.741 -0.6734  0.2607 -0.5075
  121OSM   H13F12790   3.112   2.310  -1.746  2.3155 -1.7541 -1.9408
  121OSM   H13G12791   3.278   2.379  -1.766 -0.7372 -0.4243 -0.1270
  121OSM   C14F12792   3.125   2.487  -1.859 -0.5375  0.0209 -0.0979
  121OSM   H14F12793   3.170   2.587  -1.877 -1.2051  0.0264 -1.9730
  121OSM   H14G12794   3.016   2.502  -1.845 -0.6725 -0.8865 -0.0896
  121OSM   C15F12795   3.135   2.419  -1.997  0.4945  0.3247 -0.0697
  121OSM   H15F12796   3.088   2.319  -2.002  1.8881 -0.2972 -2.3808
  121OSM   H15G12797   3.239   2.393  -2.026  0.5126  0.3592 -0.0366
  121OSM   C16F12798   3.079   2.506  -2.118 -0.2397  0.3406  0.0847
  121OSM   H16F12799   3.062   2.438  -2.204 -0.0124  0.5471 -0.1270
  121OSM   H16G12800   3.163   2.572  -2.152 -0.8129 -0.6503 -3.7725
  121OSM   C17F12801   2.953   2.585  -2.087 -0.0500 -0.3951 -0.9077
  121OSM   H17F12802   2.969   2.677  -2.027 -1.2961 -0.2279 -0.7977
  121OSM   H17G12803   2.875   2.528  -2.033  0.9280 -0.4800  0.4777
  121OSM   C18F12804   2.886   2.637  -2.210  0.4404  1.1072  0.4679
  121OSM   H18F12805   2.787   2.685  -2.189 -1.6216 -2.0366 -1.2800
  121OSM   H18G12806   2.861   2.546  -2.269  0.8099 -0.1536  2.2062
  121OSM   H18H12807   2.964   2.681  -2.276  2.3632 -0.6929  1.4539
  122OSM      N12808   5.120   5.179   0.713  0.3225  0.3426  0.6068
  122OSM    C1512809   5.017   5.185   0.821  0.1475 -0.5631  0.2779
  122OSM   H15A12810   5.048   5.142   0.915 -1.6679 -0.3157  1.0393
  122OSM   H15B12811   4.927   5.140   0.782 -0.1306  1.6858 -1.8617
  122OSM   H15C12812   4.993   5.288   0.845  2.2423  0.1979 -0.7314
  122OSM    C1412813   5.222   5.280   0.753  0.4058  0.4241  0.4131
  122OSM   H14A12814   5.198   5.385   0.762  1.5778  0.5961  2.0476
  122OSM   H14B12815   5.295   5.282   0.674  0.9563 -0.8646  0.8596
  122OSM   H14C12816   5.264   5.270   0.852  1.2922 -3.4864 -0.2118
  122OSM    C1312817   5.171   5.039   0.710  0.3358 -0.3264  0.0657
  122OSM   H13A12818   5.095   4.978   0.662 -1.8879  1.8770  0.5380
  122OSM   H13B12819   5.206   5.002   0.805  1.3173 -0.3419 -0.2940
  122OSM   H13C12820   5.255   5.033   0.643 -0.7646  1.6762 -1.6072
  122OSM    C1212821   5.050   5.219   0.582  0.6894 -0.2846  0.1390
  122OSM   H12A12822   5.134   5.243   0.519  0.3429  1.5021  0.3127
  122OSM   H12B12823   5.000   5.310   0.610  1.0970  0.2264 -0.7773
  122OSM    C1112824   4.952   5.128   0.504 -0.2475 -0.1835  0.3245
  122OSM   H11A12825   5.016   5.045   0.468  1.1930  1.6796 -1.6837
  122OSM   H11B12826   4.924   5.187   0.414  0.9227 -1.1581 -0.7036
  122OSM      P12827   4.714   5.187   0.594 -0.1450 -0.2319 -0.1674
  122OSM    O1312828   4.629   5.123   0.697  0.1684 -0.2203  0.6524
  122OSM    O1412829   4.739   5.330   0.603 -0.1334  0.1013 -0.4349
  122OSM    O1112830   4.656   5.153   0.454  0.2117  0.2848 -0.9430
  122OSM    O1212831   4.838   5.097   0.591 -0.3396  0.1237 -0.3858
  122OSM    C1S12832   4.606   5.244   0.356 -0.2562 -0.3137 -0.2114
  122OSM    H1S12833   4.655   5.343   0.364 -0.0682 -0.4672  0.6468
  122OSM    H1T12834   4.500   5.270   0.373  0.4597  1.7564  1.4799
  122OSM     NF12835   4.604   5.296   0.115 -0.0900 -0.1166  0.3198
  122OSM    HNF12836   4.514   5.302   0.072  0.5874 -2.4019 -1.6269
  122OSM    C2S12837   4.622   5.188   0.210 -0.0384  0.0966  0.8736
  122OSM    H2S12838   4.728   5.158   0.199 -0.4055 -0.4589 -1.9524
  122OSM    C3S12839   4.529   5.063   0.187 -0.0206  0.1303  0.6124
  122OSM    H3S12840   4.430   5.112   0.195  0.3515  1.2420 -1.0916
  122OSM     O312841   4.524   4.970   0.296 -0.3661 -0.0133  0.2745
  122OSM    HO312842   4.574   5.009   0.368  0.3124  0.2242 -0.3135
  122OSM    C4S12843   4.546   5.009   0.051 -0.3518  0.1890 -0.4460
  122OSM    H4S12844   4.483   5.060  -0.024 -0.2848 -1.0794 -1.3919
  122OSM    C5S12845   4.625   4.905   0.007  0.6928 -0.4891  0.0892
  122OSM    H5S12846   4.691   4.853   0.077  1.2597 -0.6788 -0.5703
  122OSM    C6S12847   4.637   4.837  -0.131  0.1466 -0.5112  0.4049
  122OSM    H6S12848   4.615   4.729  -0.119 -0.0071 -0.3609  1.6621
  122OSM    H6T12849   4.742   4.844  -0.167  0.3013  0.4983  0.9998
  122OSM    C7S12850   4.548   4.881  -0.252  0.0718  0.2819 -0.1433
  122OSM    H7S12851   4.569   4.989  -0.269 -2.1127  0.7818  0.0729
  122OSM    H7T12852   4.444   4.867  -0.217  0.7551  0.3931  2.0757
  122OSM    C8S12853   4.561   4.799  -0.381 -0.4386 -0.5165  0.5980
  122OSM    H8S12854   4.474   4.832  -0.442  1.2546  2.0409 -0.6319
  122OSM    H8T12855   4.558   4.693  -0.350  1.6918 -0.3029  1.7350
  122OSM    C9S12856   4.689   4.826  -0.466 -0.1966  0.8534 -0.1485
  122OSM    H9S12857   4.779   4.802  -0.406 -0.5762  0.4765  0.2731
  122OSM    H9T12858   4.682   4.935  -0.484  1.8320  1.9556  4.3718
  122OSM   C10S12859   4.708   4.741  -0.592  0.1215 -0.2202  0.3591
  122OSM   H10S12860   4.622   4.740  -0.662  1.6069 -1.2202 -1.5251
  122OSM   H10T12861   4.742   4.635  -0.589 -1.3739 -0.7559 -0.5506
  122OSM   C11S12862   4.815   4.804  -0.690 -0.6934 -0.5723 -0.2499
  122OSM   H11S12863   4.917   4.807  -0.647 -0.7237  1.3406 -0.2219
  122OSM   H11T12864   4.779   4.906  -0.714  0.3664  0.0828  0.8817
  122OSM   C12S12865   4.825   4.719  -0.817  0.4823  0.1925 -0.0191
  122OSM   H12S12866   4.725   4.703  -0.864 -0.3416  0.8974  1.4376
  122OSM   H12T12867   4.863   4.621  -0.782  0.9325  0.6110  0.6679
  122OSM   C13S12868   4.914   4.780  -0.926  0.9953  0.8163 -0.4140
  122OSM   H13S12869   5.019   4.780  -0.892  0.0997  1.9537  2.6678
  122OSM   H13T12870   4.883   4.882  -0.959  2.6453  1.3656 -0.3232
  122OSM   C14S12871   4.898   4.702  -1.062 -1.2658  0.1838  1.0217
  122OSM   H14S12872   4.795   4.731  -1.090 -0.7691 -0.2753 -1.5616
  122OSM   H14T12873   4.904   4.595  -1.034 -1.0238  0.6378  2.8703
  122OSM   C15S12874   4.990   4.735  -1.173 -0.8647 -0.4702 -0.5016
  122OSM   H15S12875   5.090   4.687  -1.169  0.2890  1.8409  0.7605
  122OSM   H15T12876   5.008   4.844  -1.180 -1.0177 -0.5761 -4.4656
  122OSM   C16S12877   4.927   4.695  -1.309  0.0609 -0.5819  0.4462
  122OSM   H16S12878   4.869   4.783  -1.341 -0.3861 -0.8509  0.5158
  122OSM   H16T12879   4.870   4.600  -1.316 -0.3782 -0.2187 -2.1437
  122OSM   C17S12880   5.036   4.679  -1.413  0.6659  0.6632  0.2406
  122OSM   H17S12881   5.108   4.598  -1.388 -0.0400 -0.1941 -0.4369
  122OSM   H17T12882   5.095   4.772  -1.424  0.3378  0.5951 -2.8622
  122OSM   C18S12883   4.972   4.650  -1.549  0.1600 -0.2239 -0.0328
  122OSM   H18S12884   4.885   4.718  -1.558  0.3183 -0.2974 -3.2421
  122OSM   H18T12885   4.932   4.546  -1.551  0.6637 -0.4569  0.9863
  122OSM   H18U12886   5.049   4.661  -1.628  2.7997 -1.9349  2.1003
  122OSM    C1F12887   4.691   5.407   0.112 -0.5784 -0.1069  0.2138
  122OSM     OF12888   4.800   5.410   0.174 -0.1270  0.2555 -0.0304
  122OSM    C2F12889   4.640   5.531   0.042  1.0834 -0.5584 -0.2194
  122OSM    H2F12890   4.581   5.594   0.111  2.5009 -1.1071  1.5668
  122OSM    H2G12891   4.572   5.496  -0.039  1.4387 -0.9099 -0.3712
  122OSM    C3F12892   4.759   5.617  -0.019  0.3628  0.6452  0.2801
  122OSM    H3F12893   4.828   5.552  -0.077 -0.1527 -0.8530  1.2899
  122OSM    H3G12894   4.825   5.664   0.058 -2.5399  2.1597  2.0243
  122OSM    C4F12895   4.714   5.741  -0.097 -0.9265 -0.1277  0.7831
  122OSM    H4F12896   4.679   5.823  -0.031  0.2944  0.0664  1.2070
  122OSM    H4G12897   4.615   5.719  -0.144 -0.2841  1.4814 -1.5340
  122OSM    C5F12898   4.816   5.796  -0.205 -0.3289 -0.9111  0.6615
  122OSM    H5F12899   4.813   5.710  -0.275  0.3473 -1.7889  1.6796
  122OSM    H5G12900   4.923   5.805  -0.177  0.4600 -1.0672 -2.0824
  122OSM    C6F12901   4.759   5.920  -0.264  0.4142  0.0194 -0.1632
  122OSM    H6F12902   4.729   5.988  -0.182 -0.3159  0.4015 -0.7363
  122OSM    H6G12903   4.659   5.894  -0.304 -0.1896  2.0470 -0.0820
  122OSM    C7F12904   4.842   5.987  -0.377 -0.1559  0.4443 -0.1141
  122OSM    H7F12905   4.855   5.926  -0.468  0.9596 -0.6669  0.7551
  122OSM    H7G12906   4.940   5.989  -0.324 -0.2178 -0.4717  0.0383
  122OSM    C8F12907   4.809   6.142  -0.409  0.1225  1.3375  0.4920
  122OSM    H8F12908   4.908   6.170  -0.452  0.6242 -2.4600 -1.2605
  122OSM    H8G12909   4.791   6.202  -0.318 -2.2478  0.2103  0.8196
  122OSM    C9F12910   4.687   6.152  -0.497  0.2343  0.0611 -0.1023
  122OSM    H9F12911   4.609   6.078  -0.473  0.7019 -0.0829  1.0341
  122OSM   C10F12912   4.676   6.243  -0.594  0.0914 -0.0144  0.0487
  122OSM   H10F12913   4.580   6.251  -0.646 -0.5865  3.0889  1.5531
  122OSM   C11F12914   4.776   6.346  -0.621  0.1438 -0.3411 -0.2564
  122OSM   H11F12915   4.823   6.373  -0.524  0.6930 -0.1907 -0.5578
  122OSM   H11G12916   4.735   6.444  -0.653 -3.5846 -1.2554  1.2256
  122OSM   C12F12917   4.881   6.307  -0.733 -0.6933 -0.0509  0.2708
  122OSM   H12F12918   4.846   6.296  -0.838 -3.0435  0.1133  0.9680
  122OSM   H12G12919   4.938   6.219  -0.698 -1.4926 -0.0273  1.6733
  122OSM   C13F12920   4.982   6.423  -0.746  0.4330  0.5261  0.4269
  122OSM   H13F12921   5.079   6.388  -0.788  1.3500  2.3393  0.9051
  122OSM   H13G12922   5.006   6.460  -0.644  0.7675 -2.3995  1.5203
  122OSM   C14F12923   4.942   6.541  -0.844 -0.7998  0.4663  0.3671
  122OSM   H14F12924   5.023   6.617  -0.843 -1.0024  0.7031  2.0351
  122OSM   H14G12925   4.856   6.590  -0.794 -0.9052  0.1750  0.4795
  122OSM   C15F12926   4.931   6.504  -0.992 -0.6248  0.1016 -0.2243
  122OSM   H15F12927   4.841   6.439  -0.990 -0.1576 -0.5439  0.6052
  122OSM   H15G12928   5.019   6.447  -1.031 -2.6121 -3.3394 -0.0986
  122OSM   C16F12929   4.906   6.634  -1.075 -0.0818 -0.1731 -0.4581
  122OSM   H16F12930   4.979   6.716  -1.059 -1.0130  0.4910  0.5399
  122OSM   H16G12931   4.803   6.670  -1.050 -0.3827 -0.5242 -1.1824
  122OSM   C17F12932   4.899   6.616  -1.233  0.0736 -0.0333  0.3241
  122OSM   H17F12933   4.828   6.532  -1.246 -0.8550  0.1939  3.1900
  122OSM   H17G12934   5.001   6.585  -1.263  0.0720 -1.0917  1.3610
  122OSM   C18F12935   4.864   6.747  -1.307  1.4023  0.0421 -0.1659
  122OSM   H18F12936   4.761   6.781  -1.282  0.1463 -1.8212 -2.3523
  122OSM   H18G12937   4.885   6.726  -1.414  0.8596  0.1605 -0.2986
  122OSM   H18H12938   4.944   6.822  -1.290  0.5759  0.3477  3.0196
  123OSM      N12939   1.870   4.286   4.050  0.1342 -0.4435  0.3981
  123OSM    C1512940   1.940   4.410   4.079 -0.1005 -0.6620  0.3717
  123OSM   H15A12941   2.033   4.424   4.026 -0.0200  0.3095  0.7413
  123OSM   H15B12942   1.959   4.430   4.184 -2.3076  1.0167  0.5329
  123OSM   H15C12943   1.887   4.495   4.037  1.7196  0.5216  0.3535
  123OSM    C1412944   1.866   4.253   3.904  0.2602 -0.1974  0.2808
  123OSM   H14A12945   1.794   4.176   3.884 -0.1764  0.4075 -0.5659
  123OSM   H14B12946   1.961   4.223   3.862 -0.4661 -1.6975 -0.3286
  123OSM   H14C12947   1.831   4.344   3.857 -0.2340 -0.6410 -0.2120
  123OSM    C1312948   1.947   4.179   4.120 -0.0964  0.2734 -0.1600
  123OSM   H13A12949   2.039   4.154   4.069  2.0512  0.4728  3.2721
  123OSM   H13B12950   1.893   4.086   4.122 -1.4142  0.9229 -2.3961
  123OSM   H13C12951   1.979   4.205   4.220  0.8863  1.2601 -0.7121
  123OSM    C1212952   1.730   4.294   4.111 -0.1495  0.7641 -0.1142
  123OSM   H12A12953   1.682   4.202   4.082 -1.0095  0.5229  1.8933
  123OSM   H12B12954   1.670   4.373   4.069 -1.5226 -0.3105 -0.2210
  123OSM    C1112955   1.729   4.296   4.270  0.9933 -0.0656 -0.0489
  123OSM   H11A12956   1.785   4.213   4.319  1.2750  0.0549 -0.1660
  123OSM   H11B12957   1.621   4.280   4.292  1.4513 -0.1455  2.4351
  123OSM      P12958   1.879   4.440   4.414  0.2098  0.7047 -0.2007
  123OSM    O1312959   1.984   4.343   4.377 -0.0726 -0.3064  0.4985
  123OSM    O1412960   1.921   4.576   4.410 -0.3311  0.0280  0.3228
  123OSM    O1112961   1.815   4.410   4.558  0.1460 -0.3239 -0.0688
  123OSM    O1212962   1.756   4.427   4.318 -0.3570  0.0174 -0.3818
  123OSM    C1S12963   1.906   4.362   4.655 -0.3764 -0.2769 -0.2760
  123OSM    H1S12964   1.985   4.436   4.678  2.8367 -2.9525 -1.8584
  123OSM    H1T12965   1.956   4.268   4.623  4.0185  1.4387  0.7525
  123OSM     NF12966   1.910   4.313   4.889  0.0018 -0.2010  0.1199
  123OSM    HNF12967   1.941   4.221   4.910 -0.5692 -0.0086  2.0005
  123OSM    C2S12968   1.824   4.320   4.775 -0.8685  0.2016 -0.0061
  123OSM    H2S12969   1.755   4.404   4.796  0.1431  0.8729  0.7114
  123OSM    C3S12970   1.754   4.184   4.744 -0.3700 -0.2370 -0.3500
  123OSM    H3S12971   1.840   4.121   4.710  0.8781  1.9359 -1.4338
  123OSM     O312972   1.664   4.181   4.631  0.2920 -0.1100 -0.2773
  123OSM    HO312973   1.706   4.251   4.582  0.9943 -0.3032  0.0332
  123OSM    C4S12974   1.677   4.131   4.860  0.1035 -0.1078 -1.0497
  123OSM    H4S12975   1.619   4.215   4.901  0.4841 -0.3594  0.0232
  123OSM    C5S12976   1.672   4.008   4.916 -1.1283  0.0988  0.1640
  123OSM    H5S12977   1.735   3.931   4.869 -0.8330 -0.0277  0.7647
  123OSM    C6S12978   1.572   3.968   5.020 -0.2046 -0.7747 -0.5618
  123OSM    H6S12979   1.555   3.860   4.997  0.0588 -1.2324  1.2221
  123OSM    H6T12980   1.479   4.028   5.010 -0.6783 -1.1692  1.0765
  123OSM    C7S12981   1.633   4.005   5.161  0.4353 -0.0987 -0.9989
  123OSM    H7S12982   1.553   3.983   5.235  0.2986 -0.4002 -1.2329
  123OSM    H7T12983   1.659   4.112   5.168  1.8322 -0.4955  0.4959
  123OSM    C8S12984   1.752   3.918   5.208  1.1123 -0.5302  1.0268
  123OSM    H8S12985   1.844   3.931   5.148  0.7306 -1.1523  0.2935
  123OSM    H8T12986   1.725   3.810   5.211 -1.6447  0.0921  1.3202
  123OSM    C9S12987   1.787   3.969   5.351 -0.1427  0.7872 -0.3715
  123OSM    H9S12988   1.696   3.949   5.411 -0.0276 -1.5214 -0.9060
  123OSM    H9T12989   1.808   4.078   5.357  0.5235  0.6098  0.8862
  123OSM   C10S12990   1.904   3.888   5.409  0.1736  0.8353 -0.4085
  123OSM   H10S12991   1.992   3.910   5.344  1.1594 -0.5695  0.3961
  123OSM   H10T12992   1.874   3.782   5.392  0.9049  0.8625 -2.0378
  123OSM   C11S12993   1.935   3.900   5.558  0.5460  0.4137  0.3348
  123OSM   H11S12994   2.024   3.839   5.582  0.7339  0.0153 -1.2823
  123OSM   H11T12995   1.849   3.874   5.623  0.6848  0.7158  0.6396
  123OSM   C12S12996   1.975   4.050   5.595  0.4485  0.0683  0.1290
  123OSM   H12S12997   1.888   4.113   5.569 -0.0647 -0.9967 -0.7992
  123OSM   H12T12998   2.064   4.069   5.532  1.4914 -1.2427  1.1516
  123OSM   C13S12999   2.016   4.071   5.739 -0.0350  0.3458  0.1332
  123OSM   H13S13000   2.119   4.031   5.750  0.2105  1.0239  0.4151
  123OSM   H13T13001   1.950   4.016   5.808  1.0139 -0.1712  0.7508
  123OSM   C14S13002   2.034   4.216   5.781 -0.5366 -0.2210 -0.0754
  123OSM   H14S13003   1.937   4.269   5.772 -0.3953  0.4007  1.7263
  123OSM   H14T13004   2.106   4.260   5.709 -0.2420 -1.4903 -0.5868
  123OSM   C15S13005   2.062   4.257   5.930  0.3428 -0.0689 -0.0457
  123OSM   H15S13006   1.969   4.231   5.986 -2.2605  0.5750 -3.7033
  123OSM   H15T13007   2.071   4.367   5.928  0.1020 -0.0456 -1.8752
  123OSM   C16S13008   2.192   4.202   5.990  0.5950  0.8033  0.2092
  123OSM   H16S13009   2.266   4.189   5.908 -0.1445 -0.0187 -0.3537
  123OSM   H16T13010   2.170   4.096   6.013  0.9564  0.5041 -0.7641
  123OSM   C17S13011   2.253   4.278   6.115 -0.1591  0.8938 -0.8185
  123OSM   H17S13012   2.294   4.372   6.073 -1.3004  0.8441 -2.1275
  123OSM   H17T13013   2.326   4.210   6.164 -0.6732  1.0241  0.1529
  123OSM   C18S13014   2.146   4.313   6.219  0.0596  0.3899  0.7193
  123OSM   H18S13015   2.070   4.377   6.169  1.2391  1.3804  0.1446
  123OSM   H18T13016   2.190   4.385   6.291  1.0303  0.5709 -0.0282
  123OSM   H18U13017   2.110   4.222   6.271 -1.0145  0.5961  0.3704
  123OSM    C1F13018   1.957   4.423   4.954 -0.2076  0.6118  0.1163
  123OSM     OF13019   1.900   4.532   4.931  0.1059 -0.1514 -0.2074
  123OSM    C2F13020   2.069   4.409   5.050  0.0329  0.0162 -0.2508
  123OSM    H2F13021   2.154   4.472   5.015 -1.0676  1.0260 -1.1806
  123OSM    H2G13022   2.101   4.303   5.056  1.6572  0.5790  3.0062
  123OSM    C3F13023   2.031   4.442   5.195  0.2072  0.2306 -0.4018
  123OSM    H3F13024   2.002   4.550   5.194  1.5179  0.6316  1.0470
  123OSM    H3G13025   2.122   4.454   5.257 -0.6786  0.1323  0.9651
  123OSM    C4F13026   1.932   4.343   5.268  0.1180  0.6444 -0.4314
  123OSM    H4F13027   1.977   4.242   5.258  1.0117  1.1819 -2.3932
  123OSM    H4G13028   1.832   4.342   5.220 -0.1402 -0.4565  0.0848
  123OSM    C5F13029   1.913   4.360   5.424 -0.1120 -0.0406 -0.0751
  123OSM    H5F13030   2.008   4.324   5.468 -0.1673  0.5661  0.5742
  123OSM    H5G13031   1.820   4.301   5.440  0.6085 -0.6227  2.3424
  123OSM    C6F13032   1.873   4.505   5.464 -0.7190  0.0935  0.0992
  123OSM    H6F13033   1.779   4.534   5.412  0.0029 -1.5886 -2.3129
  123OSM    H6G13034   1.963   4.567   5.446  1.0512 -2.0324  1.1581
  123OSM    C7F13035   1.872   4.502   5.618  0.2456 -0.1530  0.0975
  123OSM    H7F13036   1.973   4.477   5.657 -0.3599  0.2503  2.0302
  123OSM    H7G13037   1.806   4.423   5.660  0.3570 -0.8816 -1.0679
  123OSM    C8F13038   1.825   4.632   5.680  0.0411 -0.2680  0.4568
  123OSM    H8F13039   1.734   4.656   5.622  0.4470 -1.8157 -0.8972
  123OSM    H8G13040   1.899   4.706   5.643 -1.0566 -0.1613 -1.6351
  123OSM    C9F13041   1.793   4.635   5.832  0.0344 -0.6339 -0.0766
  123OSM    H9F13042   1.689   4.612   5.861  0.5945 -1.7825  1.0998
  123OSM   C10F13043   1.886   4.645   5.927 -0.3598 -0.2533  0.2979
  123OSM   H10F13044   1.856   4.645   6.033 -0.7703  0.0887  0.1836
  123OSM   C11F13045   2.028   4.669   5.903 -0.3859  0.1565  0.4862
  123OSM   H11F13046   2.058   4.650   5.798 -0.4151 -3.7234  1.0301
  123OSM   H11G13047   2.080   4.604   5.978 -1.1709 -0.4163  0.5479
  123OSM   C12F13048   2.058   4.820   5.925 -0.0324  0.8704  0.1520
  123OSM   H12F13049   2.014   4.884   5.846 -0.6651  0.3927  0.1082
  123OSM   H12G13050   2.168   4.813   5.907 -0.2007 -1.4535 -0.2943
  123OSM   C13F13051   2.037   4.867   6.077  0.7649  0.1008  0.7385
  123OSM   H13F13052   1.927   4.859   6.094  1.1403 -0.4405  3.4016
  123OSM   H13G13053   2.064   4.974   6.078 -1.4491  0.7370 -0.6962
  123OSM   C14F13054   2.112   4.786   6.180 -0.0710  0.3652  0.2696
  123OSM   H14F13055   2.218   4.792   6.149  0.8850 -1.1014  2.9173
  123OSM   H14G13056   2.092   4.677   6.179  0.9721  0.1581  0.6042
  123OSM   C15F13057   2.102   4.845   6.322 -0.1281 -0.7762 -0.4544
  123OSM   H15F13058   2.030   4.785   6.382 -1.1085 -0.5772 -1.3920
  123OSM   H15G13059   2.038   4.936   6.312  0.7811 -0.2310 -1.5974
  123OSM   C16F13060   2.242   4.866   6.397  0.4510  0.0064 -0.4124
  123OSM   H16F13061   2.299   4.944   6.342  1.7695 -0.5079  0.1707
  123OSM   H16G13062   2.300   4.771   6.401 -1.8287 -1.5013 -1.2848
  123OSM   C17F13063   2.223   4.923   6.541  0.1147 -0.1989 -0.0648
  123OSM   H17F13064   2.181   4.839   6.600  0.8820 -0.5785 -0.0479
  123OSM   H17G13065   2.157   5.012   6.550  1.7298  1.1497 -1.0174
  123OSM   C18F13066   2.356   4.949   6.609 -0.2433 -0.4374  0.1165
  123OSM   H18F13067   2.380   5.055   6.584  0.7632 -1.0076 -1.5249
  123OSM   H18G13068   2.427   4.879   6.560 -0.4519  0.3205 -1.3241
  123OSM   H18H13069   2.354   4.925   6.717  1.5004  0.2569  0.3319
  124OSM      N13070   1.933   5.902   4.420 -0.8595 -0.1554 -0.5855
  124OSM    C1513071   2.072   5.919   4.353 -0.4786 -0.2503  0.6355
  124OSM   H15A13072   2.151   5.884   4.418  0.7421  0.0921 -0.6134
  124OSM   H15B13073   2.089   6.025   4.339 -0.9157  0.0459  2.1292
  124OSM   H15C13074   2.080   5.870   4.257  0.7012  1.7786 -0.3785
  124OSM    C1413075   1.840   5.975   4.329 -0.2699 -0.4203  0.0967
  124OSM   H14A13076   1.748   5.984   4.384  0.6525  1.5001  1.4405
  124OSM   H14B13077   1.821   5.922   4.237  1.4127  1.8486 -1.6693
  124OSM   H14C13078   1.866   6.078   4.306 -1.5593 -0.1551 -0.2239
  124OSM    C1313079   1.905   5.756   4.428  0.2219 -0.4358 -0.9707
  124OSM   H13A13080   1.918   5.704   4.334  0.7203 -3.4120  0.6153
  124OSM   H13B13081   1.804   5.738   4.459  0.1244 -1.3446 -1.7896
  124OSM   H13C13082   1.977   5.708   4.493  1.3039  1.0860 -0.9621
  124OSM    C1213083   1.922   5.977   4.556 -0.1909  0.1983  0.1029
  124OSM   H12A13084   1.930   6.081   4.529  2.5949 -0.0447 -0.3802
  124OSM   H12B13085   2.009   5.952   4.615 -0.5915 -1.0456  0.2012
  124OSM    C1113086   1.798   5.955   4.648 -0.2176  0.1390  0.4248
  124OSM   H11A13087   1.812   6.003   4.747 -1.2522  0.0163  0.6454
  124OSM   H11B13088   1.796   5.845   4.662 -1.3004  0.1517  0.4364
  124OSM      P13089   1.547   5.908   4.607 -0.1609  0.6881  0.3264
  124OSM    O1313090   1.430   5.987   4.559  0.3735  0.2924  0.5466
  124OSM    O1413091   1.575   5.775   4.543  0.6391  0.0701 -0.7865
  124OSM    O1113092   1.541   5.893   4.768 -0.3341  0.0342  0.1592
  124OSM    O1213093   1.676   6.000   4.585 -0.2990  0.1092  0.0654
  124OSM    C1S13094   1.565   5.765   4.827  0.4364  0.3653  0.0140
  124OSM    H1S13095   1.665   5.723   4.804  0.2795 -0.8059  1.3360
  124OSM    H1T13096   1.489   5.694   4.787 -0.1451  0.7319  0.4480
  124OSM     NF13097   1.590   5.644   5.035 -0.0251  0.5919 -0.4816
  124OSM    HNF13098   1.506   5.597   5.063  0.0648  0.3499 -0.6143
  124OSM    C2S13099   1.556   5.772   4.980 -0.1973  0.5205 -0.5465
  124OSM    H2S13100   1.631   5.846   5.014 -0.3756  0.5546 -0.2193
  124OSM    C3S13101   1.409   5.818   5.018  0.0751 -0.4728  0.3974
  124OSM    H3S13102   1.339   5.745   4.973  0.1873  0.6406 -1.7126
  124OSM     O313103   1.369   5.946   4.956  0.9697 -0.3117  0.3148
  124OSM    HO313104   1.431   5.952   4.883 -0.1078 -1.9976 -0.8183
  124OSM    C4S13105   1.387   5.823   5.169  0.5852 -0.6004  0.3471
  124OSM    H4S13106   1.338   5.730   5.201 -1.8357  0.1155 -1.0027
  124OSM    C5S13107   1.418   5.917   5.260  0.1117 -0.0810  0.1772
  124OSM    H5S13108   1.448   6.016   5.223 -1.7188 -0.5375 -2.8411
  124OSM    C6S13109   1.401   5.901   5.412  0.2147  0.0426  0.3047
  124OSM    H6S13110   1.484   5.959   5.458  2.2017 -1.2879 -1.4023
  124OSM    H6T13111   1.410   5.797   5.451 -0.2436  0.0196  0.3515
  124OSM    C7S13112   1.260   5.959   5.453 -0.3456  0.0425 -0.0643
  124OSM    H7S13113   1.173   5.911   5.404 -0.7457 -2.0509  2.4401
  124OSM    H7T13114   1.265   6.069   5.441  2.1563 -0.2523 -2.8399
  124OSM    C8S13115   1.250   5.920   5.604  0.0898 -0.5242 -0.1593
  124OSM    H8S13116   1.272   5.813   5.624  0.9793  0.1715  3.4734
  124OSM    H8T13117   1.148   5.945   5.639  1.1070  1.9698  1.3142
  124OSM    C9S13118   1.327   6.006   5.696 -0.0724  0.0988 -0.3925
  124OSM    H9S13119   1.296   6.111   5.676  0.1953  0.3696  0.5472
  124OSM    H9T13120   1.434   5.987   5.677 -0.1775 -2.9712  1.4818
  124OSM   C10S13121   1.295   5.981   5.845 -0.4356  0.0843  0.3043
  124OSM   H10S13122   1.343   5.892   5.891 -0.9896 -0.5144 -0.2580
  124OSM   H10T13123   1.185   5.966   5.854 -0.5450 -0.9389 -2.0679
  124OSM   C11S13124   1.345   6.099   5.933 -0.1288  0.0102  0.2285
  124OSM   H11S13125   1.301   6.190   5.888 -1.6873 -0.6493  0.3644
  124OSM   H11T13126   1.455   6.093   5.918 -0.3396  0.6692 -1.8159
  124OSM   C12S13127   1.307   6.075   6.077  0.3060 -0.1033 -0.1503
  124OSM   H12S13128   1.355   5.983   6.115  0.0440 -0.1098  0.1607
  124OSM   H12T13129   1.197   6.063   6.087  0.2763  0.7290  0.6672
  124OSM   C13S13130   1.347   6.189   6.168 -0.3021 -0.4084 -0.3229
  124OSM   H13S13131   1.298   6.283   6.133 -0.5287 -0.0714  0.8700
  124OSM   H13T13132   1.456   6.189   6.148  0.1732 -0.9853  2.0357
  124OSM   C14S13133   1.328   6.160   6.318 -0.3602  0.3781  0.1301
  124OSM   H14S13134   1.375   6.247   6.368 -2.4676  1.7776 -0.1939
  124OSM   H14T13135   1.374   6.063   6.346  0.2886  0.6863  0.1393
  124OSM   C15S13136   1.183   6.152   6.369 -0.1225  0.0308  0.9044
  124OSM   H15S13137   1.114   6.115   6.291 -0.0947  2.6316 -0.4597
  124OSM   H15T13138   1.153   6.256   6.392 -0.7998 -0.1936  1.0567
  124OSM   C16S13139   1.174   6.053   6.486 -0.1810 -0.6270 -0.2004
  124OSM   H16S13140   1.265   6.043   6.550 -1.3526 -2.4128  1.3018
  124OSM   H16T13141   1.166   5.950   6.446  1.1447 -1.0545  0.5503
  124OSM   C17S13142   1.052   6.085   6.576 -0.3065  0.1819 -0.7604
  124OSM   H17S13143   1.064   6.190   6.609 -1.0728  0.9950 -2.8909
  124OSM   H17T13144   1.055   6.020   6.666 -0.7624  1.5295  0.2649
  124OSM   C18S13145   0.922   6.062   6.506 -0.8441  0.7298  0.2560
  124OSM   H18S13146   0.835   6.080   6.572 -1.2586  1.0188 -0.3683
  124OSM   H18T13147   0.921   5.953   6.485 -3.0796  0.7745 -0.0158
  124OSM   H18U13148   0.918   6.122   6.413  3.0133  0.7900 -0.0632
  124OSM    C1F13149   1.714   5.590   5.037  0.0762 -1.4186  0.3283
  124OSM     OF13150   1.807   5.648   4.981  0.1734  0.3756  0.5265
  124OSM    C2F13151   1.738   5.471   5.116  0.0339  0.1196 -0.2442
  124OSM    H2F13152   1.825   5.420   5.070  0.0098  1.4659 -1.8984
  124OSM    H2G13153   1.650   5.404   5.109  1.5517 -1.8591 -1.2781
  124OSM    C3F13154   1.781   5.501   5.263 -0.1126  0.4619  0.0063
  124OSM    H3F13155   1.856   5.583   5.266  0.4561 -0.0591  2.8717
  124OSM    H3G13156   1.837   5.424   5.320 -0.8717 -0.1476 -0.0504
  124OSM    C4F13157   1.662   5.544   5.353  0.4014  0.4016  0.0659
  124OSM    H4F13158   1.581   5.468   5.353  2.3172 -1.7653  0.5786
  124OSM    H4G13159   1.626   5.641   5.311  2.0341  1.3900  0.8525
  124OSM    C5F13160   1.700   5.554   5.495 -0.2365 -0.9988 -0.9878
  124OSM    H5F13161   1.790   5.617   5.510 -0.5370 -0.8197  0.1830
  124OSM    H5G13162   1.720   5.449   5.528 -0.5425 -0.8871 -0.4496
  124OSM    C6F13163   1.601   5.617   5.594  0.2291 -0.0873  0.6163
  124OSM    H6F13164   1.503   5.569   5.573  0.8432 -0.3044 -2.0741
  124OSM    H6G13165   1.589   5.722   5.560  1.8893 -0.3943 -1.1039
  124OSM    C7F13166   1.633   5.605   5.739  0.8005 -0.0662 -0.3219
  124OSM    H7F13167   1.601   5.698   5.789 -1.8303 -0.8908 -0.3001
  124OSM    H7G13168   1.743   5.613   5.756  0.4840 -1.0139  2.7422
  124OSM    C8F13169   1.594   5.481   5.820  0.5630  0.3888 -0.3991
  124OSM    H8F13170   1.663   5.473   5.907 -0.5588 -1.1825  0.4098
  124OSM    H8G13171   1.611   5.385   5.768  1.4847 -0.1708  0.8767
  124OSM    C9F13172   1.459   5.490   5.885 -0.3148  0.4452 -0.8546
  124OSM    H9F13173   1.374   5.449   5.828  1.4450 -1.8215 -2.0421
  124OSM   C10F13174   1.428   5.547   6.005 -0.6093  0.5003  0.5061
  124OSM   H10F13175   1.326   5.556   6.045  0.0563  1.6536  2.0333
  124OSM   C11F13176   1.531   5.591   6.103 -0.0083 -0.5318 -0.9150
  124OSM   H11F13177   1.515   5.696   6.135  0.3651 -0.4826 -0.8773
  124OSM   H11G13178   1.638   5.585   6.073  0.7740 -0.5385  1.6569
  124OSM   C12F13179   1.507   5.528   6.241  0.4353  0.0732 -0.1208
  124OSM   H12F13180   1.591   5.546   6.311  0.0796  0.2510  0.2619
  124OSM   H12G13181   1.475   5.424   6.221 -1.2522  0.7265 -1.0255
  124OSM   C13F13182   1.376   5.584   6.306 -0.0956 -0.3934 -0.3957
  124OSM   H13F13183   1.294   5.552   6.238 -0.7859  2.5483 -1.0997
  124OSM   H13G13184   1.384   5.694   6.301 -1.2955 -0.0363  2.9669
  124OSM   C14F13185   1.375   5.560   6.461  0.8749 -0.4320  0.2895
  124OSM   H14F13186   1.471   5.517   6.494  0.4820 -2.1213 -0.6209
  124OSM   H14G13187   1.303   5.478   6.478  1.5122 -0.6612  2.0013
  124OSM   C15F13188   1.335   5.677   6.543  0.2604 -0.1828  0.0543
  124OSM   H15F13189   1.226   5.699   6.539  0.9147  3.3856 -1.5430
  124OSM   H15G13190   1.384   5.769   6.506 -2.1352  0.3870 -1.9370
  124OSM   C16F13191   1.371   5.658   6.689  0.0061 -0.3999 -0.7687
  124OSM   H16F13192   1.480   5.635   6.690  0.3639  1.1244 -1.6651
  124OSM   H16G13193   1.315   5.576   6.739  2.1448 -1.7872 -0.5311
  124OSM   C17F13194   1.344   5.795   6.761 -1.1277 -0.0156 -0.5611
  124OSM   H17F13195   1.234   5.809   6.776 -1.3759 -3.0342  1.3366
  124OSM   H17G13196   1.384   5.869   6.689 -0.3163  1.9473  1.7613
  124OSM   C18F13197   1.421   5.811   6.895  0.3362  0.2571  0.5046
  124OSM   H18F13198   1.391   5.914   6.924 -1.3145 -0.0976  0.1969
  124OSM   H18G13199   1.531   5.801   6.887  0.5594  1.2909  1.8338
  124OSM   H18H13200   1.384   5.741   6.974 -0.9982  0.5546  0.1759
  125OSM      N13201   6.318   2.040   4.481  0.3335  0.2915 -0.0430
  125OSM    C1513202   6.236   2.027   4.604  0.1201  0.5177 -0.4424
  125OSM   H15A13203   6.187   1.931   4.596 -0.2361  0.3068  2.8151
  125OSM   H15B13204   6.166   2.108   4.616 -2.0438 -1.6100  3.7266
  125OSM   H15C13205   6.300   2.015   4.690 -0.2044 -0.2927 -0.3007
  125OSM    C1413206   6.382   1.916   4.434 -0.2267 -0.7162  0.1175
  125OSM   H14A13207   6.305   1.842   4.421 -1.0724  0.1901 -0.1123
  125OSM   H14B13208   6.453   1.877   4.506  0.7008  0.3774 -0.1730
  125OSM   H14C13209   6.433   1.935   4.341  0.1791  1.2063  0.6999
  125OSM    C1313210   6.218   2.082   4.371  0.0535 -0.0184  0.3783
  125OSM   H13A13211   6.172   2.173   4.408 -0.2767  0.1720 -0.4758
  125OSM   H13B13212   6.137   2.011   4.356  0.5518 -0.3255 -0.9472
  125OSM   H13C13213   6.268   2.103   4.278  0.3839  0.9159  0.7527
  125OSM    C1213214   6.410   2.154   4.508  0.2855  0.3735  0.1765
  125OSM   H12A13215   6.351   2.235   4.547 -1.1070 -0.4156 -0.2170
  125OSM   H12B13216   6.437   2.183   4.407 -1.2929 -1.1289 -0.7288
  125OSM    C1113217   6.525   2.122   4.595 -0.9003 -0.5092  0.3466
  125OSM   H11A13218   6.505   2.084   4.697  0.0928  2.1759  1.6518
  125OSM   H11B13219   6.573   2.221   4.612 -0.5235 -1.1662  3.7286
  125OSM      P13220   6.723   2.102   4.427  0.2625  0.0986 -0.2785
  125OSM    O1313221   6.830   2.006   4.385 -0.4500  0.1844 -0.4324
  125OSM    O1413222   6.637   2.167   4.321  0.0569  0.2150 -0.2800
  125OSM    O1113223   6.793   2.224   4.504  0.2500  0.1906  0.4901
  125OSM    O1213224   6.623   2.038   4.534  0.1504  0.4392 -0.2895
  125OSM    C1S13225   6.847   2.204   4.639  1.1787 -0.6999 -0.0995
  125OSM    H1S13226   6.796   2.124   4.698 -1.1150  0.8720  0.1847
  125OSM    H1T13227   6.825   2.293   4.701  1.7602 -1.3489  1.0649
  125OSM     NF13228   7.042   2.195   4.774  0.0109  0.7570  0.4686
  125OSM    HNF13229   7.075   2.286   4.797  0.9878  0.7495 -0.8572
  125OSM    C2S13230   6.998   2.191   4.638  0.2322  0.9877  0.6875
  125OSM    H2S13231   7.030   2.094   4.593  2.8340  1.1540  2.0000
  125OSM    C3S13232   7.064   2.291   4.543 -0.6784 -0.4329 -0.1700
  125OSM    H3S13233   7.033   2.391   4.578  0.4329 -0.0030 -0.4026
  125OSM     O313234   7.030   2.279   4.403  0.0465 -0.1609  0.2082
  125OSM    HO313235   6.940   2.247   4.401 -0.1985  0.0761 -4.2465
  125OSM    C4S13236   7.215   2.296   4.557  1.0674 -0.0724  0.0673
  125OSM    H4S13237   7.261   2.198   4.535 -0.1849 -0.2889 -1.8531
  125OSM    C5S13238   7.295   2.404   4.586  0.0186  0.4350  0.5035
  125OSM    H5S13239   7.262   2.508   4.595  0.0663  0.4156  0.8871
  125OSM    C6S13240   7.441   2.387   4.609  0.6213  0.0348  0.3570
  125OSM    H6S13241   7.505   2.452   4.544 -1.5089  3.8768  1.8138
  125OSM    H6T13242   7.464   2.278   4.599 -1.1634 -0.3313 -0.1558
  125OSM    C7S13243   7.476   2.420   4.750  0.1805 -0.2821  0.6818
  125OSM    H7S13244   7.424   2.344   4.811 -1.4578  0.1897 -0.0726
  125OSM    H7T13245   7.458   2.526   4.781 -0.4879 -0.1623 -0.0936
  125OSM    C8S13246   7.626   2.395   4.781  0.0918 -0.7644 -0.5324
  125OSM    H8S13247   7.673   2.488   4.743 -1.2617 -0.1414 -0.7390
  125OSM    H8T13248   7.660   2.303   4.727 -0.7509 -2.7021  2.0458
  125OSM    C9S13249   7.651   2.374   4.931  0.6146 -0.7417 -0.8215
  125OSM    H9S13250   7.581   2.299   4.974 -0.6489  0.3162 -0.9429
  125OSM    H9T13251   7.625   2.470   4.981 -0.8040 -1.2072 -0.5966
  125OSM   C10S13252   7.797   2.342   4.951 -0.0715  0.5367  0.2387
  125OSM   H10S13253   7.860   2.431   4.931  1.1215 -0.2540  0.3911
  125OSM   H10T13254   7.820   2.259   4.881  0.6569  0.2748  0.7739
  125OSM   C11S13255   7.826   2.264   5.082 -0.3269  0.2763 -0.7205
  125OSM   H11S13256   7.924   2.218   5.057 -1.3954 -1.5806 -1.7576
  125OSM   H11T13257   7.751   2.182   5.089  0.8773 -0.8555 -0.8205
  125OSM   C12S13258   7.827   2.353   5.210 -0.3247  0.3442  0.4481
  125OSM   H12S13259   7.737   2.417   5.217 -0.1005  1.2558 -3.1470
  125OSM   H12T13260   7.911   2.424   5.189 -0.3313 -0.0399 -0.9332
  125OSM   C13S13261   7.866   2.275   5.335 -0.0425  0.1586  0.6297
  125OSM   H13S13262   7.894   2.347   5.414  2.4907 -3.0964  2.9951
  125OSM   H13T13263   7.956   2.213   5.314  0.0285  0.5146 -0.1516
  125OSM   C14S13264   7.760   2.176   5.373 -0.3001 -0.2078  0.5464
  125OSM   H14S13265   7.745   2.104   5.290 -0.7071 -2.0585  2.1541
  125OSM   H14T13266   7.669   2.238   5.390  0.4601  0.8989  0.7049
  125OSM   C15S13267   7.800   2.099   5.502  0.0089 -0.8011 -0.4067
  125OSM   H15S13268   7.894   2.045   5.479  1.4356  1.2652  0.3535
  125OSM   H15T13269   7.716   2.027   5.517 -1.0920  0.4971 -0.1015
  125OSM   C16S13270   7.811   2.187   5.634 -0.4579 -0.9637  0.1962
  125OSM   H16S13271   7.713   2.231   5.664 -0.2502  0.1894 -0.7536
  125OSM   H16T13272   7.874   2.272   5.602  0.0093 -2.0521 -1.9930
  125OSM   C17S13273   7.876   2.108   5.747 -0.3340 -0.4578 -0.0548
  125OSM   H17S13274   7.837   2.004   5.750  1.2002 -1.0521  2.6236
  125OSM   H17T13275   7.836   2.167   5.833 -0.4978 -0.7725  0.0867
  125OSM   C18S13276   8.029   2.121   5.749 -0.2823  0.7788 -0.2284
  125OSM   H18S13277   8.055   2.223   5.785 -1.4146  1.2146 -0.6086
  125OSM   H18T13278   8.076   2.093   5.653  0.9017 -1.5875  0.9664
  125OSM   H18U13279   8.073   2.056   5.827  0.3600 -2.3720 -3.0249
  125OSM    C1F13280   7.013   2.096   4.866 -0.4722 -0.4657  0.4812
  125OSM     OF13281   6.967   1.986   4.841 -0.1322 -0.4143 -0.0757
  125OSM    C2F13282   7.045   2.146   5.002 -0.5659 -0.4930  0.0521
  125OSM    H2F13283   6.957   2.203   5.039 -1.0898 -2.5529  2.2546
  125OSM    H2G13284   7.140   2.204   5.000 -0.5083 -0.6085 -0.6363
  125OSM    C3F13285   7.042   2.029   5.100  0.7579  0.4018 -0.3364
  125OSM    H3F13286   7.131   1.963   5.102  1.0127  0.7195  2.2774
  125OSM    H3G13287   6.963   1.953   5.081  0.8685  0.7225 -2.3146
  125OSM    C4F13288   7.037   2.082   5.246  0.5656 -0.4967 -0.0387
  125OSM    H4F13289   6.972   2.173   5.250  0.7470 -0.4091  1.2370
  125OSM    H4G13290   7.138   2.114   5.279  0.2938 -0.0815  0.4078
  125OSM    C5F13291   6.986   1.982   5.345 -0.1506 -0.3309 -0.7228
  125OSM    H5F13292   7.021   1.879   5.323  0.1045  0.0642 -2.3408
  125OSM    H5G13293   6.876   1.986   5.338 -0.1118 -0.4000 -1.4944
  125OSM    C6F13294   7.027   2.013   5.491 -0.0078  0.2001  0.0738
  125OSM    H6F13295   6.997   2.119   5.509  0.3379  0.4612 -0.8202
  125OSM    H6G13296   7.138   2.007   5.489 -0.0136 -1.3431 -3.4077
  125OSM    C7F13297   6.987   1.909   5.600 -0.2157 -0.0906 -0.4514
  125OSM    H7F13298   7.040   1.814   5.581 -1.4671 -0.6919 -1.0596
  125OSM    H7G13299   6.880   1.879   5.589  0.5088 -3.0473 -0.2076
  125OSM    C8F13300   7.010   1.963   5.743 -0.1904  0.2876  0.2759
  125OSM    H8F13301   7.091   2.038   5.735 -2.6666  3.0887 -0.1175
  125OSM    H8G13302   7.043   1.878   5.807 -2.3120  0.0246  1.1008
  125OSM    C9F13303   6.893   2.035   5.792  0.3530 -0.2473 -0.5210
  125OSM    H9F13304   6.817   2.080   5.726 -2.2244  2.4002  3.7434
  125OSM   C10F13305   6.852   2.051   5.920  0.1144  0.4055 -0.4528
  125OSM   H10F13306   6.766   2.115   5.943  1.7415  2.0650  1.4291
  125OSM   C11F13307   6.927   1.994   6.047  0.4368 -0.7063 -0.8544
  125OSM   H11F13308   6.908   1.885   6.057 -0.9193 -0.3534  0.9050
  125OSM   H11G13309   6.880   2.041   6.136 -0.7146 -0.3364 -1.6371
  125OSM   C12F13310   7.077   2.000   6.051 -0.5289 -0.1480 -1.5494
  125OSM   H12F13311   7.101   2.108   6.037 -1.7522  0.4434  0.5319
  125OSM   H12G13312   7.125   1.945   5.967  1.4975 -0.1416 -0.4536
  125OSM   C13F13313   7.139   1.958   6.187 -0.1133 -0.0721 -0.0461
  125OSM   H13F13314   7.134   1.848   6.195  0.7849 -0.2595 -1.5992
  125OSM   H13G13315   7.078   2.010   6.264  2.0008  2.0587  0.3107
  125OSM   C14F13316   7.282   2.003   6.186 -0.3029 -1.1583  0.2692
  125OSM   H14F13317   7.281   2.115   6.187  0.2494 -1.0874 -1.9716
  125OSM   H14G13318   7.328   1.981   6.087  0.8809  1.3119  0.1915
  125OSM   C15F13319   7.360   1.932   6.296  0.5246 -0.2566  0.4448
  125OSM   H15F13320   7.356   1.822   6.280 -3.0935 -0.3191  0.9782
  125OSM   H15G13321   7.301   1.943   6.389  1.4073 -0.2325  1.0138
  125OSM   C16F13322   7.498   1.981   6.323  0.2571 -0.0079  0.0147
  125OSM   H16F13323   7.566   1.964   6.237  0.1779  0.1493 -0.0798
  125OSM   H16G13324   7.552   1.931   6.406 -0.6989 -2.8017 -0.9234
  125OSM   C17F13325   7.496   2.134   6.352  0.9642 -0.7138  0.0979
  125OSM   H17F13326   7.420   2.155   6.430 -0.4795 -1.9646 -0.9099
  125OSM   H17G13327   7.466   2.192   6.262 -0.5663 -0.3848  0.7975
  125OSM   C18F13328   7.635   2.182   6.388 -0.2166 -0.5390 -0.0898
  125OSM   H18F13329   7.710   2.121   6.334  0.8708 -0.3911  1.2263
  125OSM   H18G13330   7.653   2.161   6.495  2.8876 -0.2818 -0.4666
  125OSM   H18H13331   7.660   2.289   6.372  2.6633 -0.9556  1.1346
  126OSM      N13332   4.806   2.959   4.016 -0.4695 -0.4761  0.1677
  126OSM    C1513333   4.928   2.978   3.931  0.0704 -0.1999  0.1322
  126OSM   H15A13334   5.015   2.946   3.987  1.5106  1.2551 -1.1738
  126OSM   H15B13335   4.939   3.083   3.911  0.1194 -0.2741 -0.2316
  126OSM   H15C13336   4.936   2.913   3.845  0.4862 -0.7236  0.5553
  126OSM    C1413337   4.693   3.028   3.946  0.2705 -0.0925 -0.3267
  126OSM   H14A13338   4.603   3.020   4.005  1.5573  3.3174  2.4481
  126OSM   H14B13339   4.680   3.001   3.842 -0.4602 -0.5077 -0.1334
  126OSM   H14C13340   4.710   3.135   3.952  1.1456 -0.2891  3.7222
  126OSM    C1313341   4.786   2.811   4.030 -0.7150 -1.0736 -0.1724
  126OSM   H13A13342   4.872   2.763   4.074 -0.6721  0.6384  1.7739
  126OSM   H13B13343   4.772   2.778   3.928 -0.4772  0.6388 -0.7816
  126OSM   H13C13344   4.700   2.783   4.089 -0.6862 -0.3679  0.2191
  126OSM    C1213345   4.833   3.017   4.157 -0.1570 -0.0399 -0.8498
  126OSM   H12A13346   4.735   3.028   4.200  0.2265  0.3491 -0.0502
  126OSM   H12B13347   4.880   3.114   4.149 -0.0678  0.1037  1.0296
  126OSM    C1113348   4.923   2.940   4.259 -0.0037 -0.4576  0.6071
  126OSM   H11A13349   4.889   2.839   4.289 -1.0721  0.5617  3.1329
  126OSM   H11B13350   4.917   2.992   4.357  2.4638  2.0421 -0.4370
  126OSM      P13351   5.165   3.049   4.233  0.2582 -0.0392  0.0938
  126OSM    O1313352   5.294   3.007   4.180 -0.6238 -0.1380  0.0300
  126OSM    O1413353   5.098   3.169   4.181 -0.3566 -0.0672  0.6174
  126OSM    O1113354   5.164   3.055   4.401  0.0410  0.6221  0.9808
  126OSM    O1213355   5.057   2.935   4.209  0.4107  0.0292  0.5675
  126OSM    C1S13356   5.203   2.938   4.472  1.0668  0.1299  0.7014
  126OSM    H1S13357   5.296   2.893   4.431  0.2458  0.1364 -1.3096
  126OSM    H1T13358   5.126   2.859   4.457 -1.1545  2.3428 -0.4314
  126OSM     NF13359   5.332   2.893   4.680  0.3741 -0.6580 -0.1411
  126OSM    HNF13360   5.300   2.829   4.749 -2.0580  2.3086  1.7567
  126OSM    C2S13361   5.230   2.981   4.622 -0.6173  0.4774 -0.7646
  126OSM    H2S13362   5.263   3.086   4.636 -0.1150  0.2178  0.1026
  126OSM    C3S13363   5.090   2.983   4.696 -1.0594  0.0101  0.6491
  126OSM    H3S13364   5.037   2.885   4.696  3.0528 -2.4188  0.1969
  126OSM     O313365   5.006   3.087   4.642  0.3837  0.7588 -0.2483
  126OSM    HO313366   5.049   3.108   4.559  1.3879 -1.3686 -0.3289
  126OSM    C4S13367   5.112   3.012   4.845 -0.8739  0.2139 -0.3708
  126OSM    H4S13368   5.164   3.108   4.860 -0.3407 -0.1407  0.0665
  126OSM    C5S13369   5.110   2.928   4.949  1.1303 -0.1033 -0.0420
  126OSM    H5S13370   5.070   2.829   4.921 -1.3476  0.3583  1.5029
  126OSM    C6S13371   5.162   2.949   5.091  0.0648  0.0016  0.7828
  126OSM    H6S13372   5.192   3.055   5.100 -0.8476  0.2736  0.7540
  126OSM    H6T13373   5.258   2.893   5.092  0.5038  0.6944 -0.6524
  126OSM    C7S13374   5.065   2.898   5.205 -0.1982  0.0094  0.1592
  126OSM    H7S13375   5.042   2.792   5.181  1.8739 -0.1840 -1.2846
  126OSM    H7T13376   4.964   2.944   5.207 -0.0771  0.2494  1.1783
  126OSM    C8S13377   5.126   2.891   5.346 -1.1587 -0.4623  0.4534
  126OSM    H8S13378   5.162   2.992   5.373  2.4664 -1.9919  1.9909
  126OSM    H8T13379   5.210   2.818   5.343 -1.3634 -0.6794 -0.2176
  126OSM    C9S13380   5.019   2.851   5.453 -0.9762 -0.0800 -0.2436
  126OSM    H9S13381   4.954   2.782   5.396 -0.5834  1.1038 -2.2333
  126OSM    H9T13382   4.954   2.939   5.474  0.0376  0.5203  0.5124
  126OSM   C10S13383   5.069   2.780   5.581 -0.1522 -0.7534 -0.1034
  126OSM   H10S13384   5.141   2.839   5.641  1.4652 -1.9949 -0.7650
  126OSM   H10T13385   5.127   2.687   5.562  0.7204  0.5523 -4.9547
  126OSM   C11S13386   4.948   2.731   5.674 -0.3164 -0.1299  0.5276
  126OSM   H11S13387   4.864   2.686   5.616 -0.6927  0.9562  0.1960
  126OSM   H11T13388   4.901   2.824   5.712 -0.7450 -1.4900  3.6364
  126OSM   C12S13389   5.010   2.641   5.787 -0.5058 -0.7931  0.5455
  126OSM   H12S13390   5.074   2.562   5.742 -2.4019 -2.8258  1.2094
  126OSM   H12T13391   4.922   2.586   5.827  1.2878 -3.5372  0.9372
  126OSM   C13S13392   5.052   2.718   5.909  0.6536 -0.4139 -0.9877
  126OSM   H13S13393   4.973   2.796   5.924  1.8037  0.6365 -0.1333
  126OSM   H13T13394   5.147   2.774   5.896 -1.0278  2.8744 -0.2341
  126OSM   C14S13395   5.052   2.641   6.047  0.5316 -0.1422  0.2264
  126OSM   H14S13396   5.112   2.547   6.045  0.5164 -0.1573 -1.9663
  126OSM   H14T13397   4.945   2.613   6.064 -0.3265  2.4870 -0.4310
  126OSM   C15S13398   5.102   2.722   6.162  0.3730  0.6715  0.2789
  126OSM   H15S13399   5.066   2.827   6.164  2.2568  1.3708 -0.4341
  126OSM   H15T13400   5.213   2.725   6.170  0.3328 -0.3866  1.7689
  126OSM   C16S13401   5.066   2.667   6.308  0.7591  1.0595  0.7645
  126OSM   H16S13402   5.093   2.559   6.305  0.9095  1.1018  0.5621
  126OSM   H16T13403   4.956   2.685   6.312  0.5125 -0.3047  0.5691
  126OSM   C17S13404   5.138   2.729   6.427 -0.1146 -0.4480  0.4708
  126OSM   H17S13405   5.111   2.836   6.424 -2.4798 -1.0264 -1.4823
  126OSM   H17T13406   5.249   2.720   6.419  0.2681  2.0178  1.9836
  126OSM   C18S13407   5.092   2.662   6.557  1.1395  0.0291  0.5875
  126OSM   H18S13408   5.070   2.554   6.542 -1.1884  0.7202 -1.8148
  126OSM   H18T13409   4.997   2.710   6.592 -0.2737 -2.3552  0.2462
  126OSM   H18U13410   5.170   2.662   6.636  0.6171 -4.2921  1.3677
  126OSM    C1F13411   5.458   2.882   4.644 -1.0935  0.2096 -1.0208
  126OSM     OF13412   5.496   2.946   4.547 -0.0391  0.1586 -0.1973
  126OSM    C2F13413   5.546   2.771   4.705 -0.2080  0.1339  0.5834
  126OSM    H2F13414   5.609   2.742   4.617 -2.3061 -0.6343 -0.7317
  126OSM    H2G13415   5.485   2.680   4.719  0.2577 -0.3630 -0.4373
  126OSM    C3F13416   5.611   2.828   4.827 -0.1244 -0.3118 -0.0468
  126OSM    H3F13417   5.539   2.870   4.901 -0.4563 -3.1515  1.3947
  126OSM    H3G13418   5.694   2.897   4.803 -0.6823  0.3849 -0.0043
  126OSM    C4F13419   5.686   2.724   4.903 -0.2245  0.2430  0.0066
  126OSM    H4F13420   5.779   2.697   4.848 -1.7623 -2.8791 -1.2769
  126OSM    H4G13421   5.636   2.625   4.904 -0.2448  0.2490 -0.3059
  126OSM    C5F13422   5.716   2.765   5.049 -0.3539  0.1484 -0.5756
  126OSM    H5F13423   5.619   2.791   5.096 -1.3098 -2.5160 -0.9350
  126OSM    H5G13424   5.780   2.856   5.038  3.0138 -1.6155  2.2097
  126OSM    C6F13425   5.782   2.664   5.136 -0.2798 -0.3840 -1.0163
  126OSM    H6F13426   5.859   2.607   5.081 -0.4343 -0.1227 -1.5148
  126OSM    H6G13427   5.713   2.586   5.175  1.0685 -2.0790 -1.8909
  126OSM    C7F13428   5.857   2.723   5.253 -0.2076 -0.1238 -0.1643
  126OSM    H7F13429   5.779   2.772   5.315  1.1326  1.2431  0.5453
  126OSM    H7G13430   5.921   2.804   5.211  1.1703 -0.9092  0.3428
  126OSM    C8F13431   5.933   2.621   5.343 -0.3705 -0.1988  0.1768
  126OSM    H8F13432   6.003   2.680   5.406  1.8901 -0.0386 -2.3261
  126OSM    H8G13433   5.988   2.552   5.276 -1.7919  0.8141 -2.1518
  126OSM    C9F13434   5.834   2.528   5.414  0.3019  0.5879 -0.1939
  126OSM    H9F13435   5.795   2.452   5.345  1.7877 -0.1814 -0.2281
  126OSM   C10F13436   5.795   2.517   5.538  0.2634 -0.4012  0.2526
  126OSM   H10F13437   5.725   2.434   5.553  0.3668 -0.4058  0.7264
  126OSM   C11F13438   5.839   2.594   5.663  0.1899  0.1227  0.5120
  126OSM   H11F13439   5.745   2.605   5.722 -0.1944  1.4210 -0.2863
  126OSM   H11G13440   5.871   2.696   5.632  1.5108 -0.0222  1.3013
  126OSM   C12F13441   5.948   2.531   5.751  0.2096  0.4033  0.8431
  126OSM   H12F13442   6.040   2.538   5.688 -0.6670 -3.7188 -1.2673
  126OSM   H12G13443   5.928   2.426   5.781  1.0678 -0.5358 -1.6235
  126OSM   C13F13444   5.968   2.616   5.875 -0.1894 -0.0229 -1.0793
  126OSM   H13F13445   5.871   2.618   5.929 -0.7489 -0.7407 -2.0401
  126OSM   H13G13446   5.982   2.723   5.847 -0.3412 -0.0820 -1.3767
  126OSM   C14F13447   6.083   2.584   5.963  0.2229  0.2073  0.7157
  126OSM   H14F13448   6.176   2.562   5.906 -0.6199 -0.0202 -0.6113
  126OSM   H14G13449   6.055   2.485   6.004 -1.3650  0.4804  0.3620
  126OSM   C15F13450   6.113   2.683   6.070  0.6985  0.1192 -0.3316
  126OSM   H15F13451   6.022   2.684   6.133 -0.7011  0.0304 -2.2602
  126OSM   H15G13452   6.130   2.786   6.031 -1.9166 -0.1456 -2.4745
  126OSM   C16F13453   6.235   2.653   6.164  0.3929 -0.4839 -0.1848
  126OSM   H16F13454   6.326   2.669   6.102  0.2384 -0.5701 -0.4322
  126OSM   H16G13455   6.226   2.546   6.192 -0.4864 -0.3668 -0.0009
  126OSM   C17F13456   6.254   2.749   6.284 -0.0751  0.5387 -0.5320
  126OSM   H17F13457   6.250   2.856   6.252 -0.7522  0.1249 -1.9012
  126OSM   H17G13458   6.345   2.735   6.347 -0.4071  2.5290  0.4785
  126OSM   C18F13459   6.147   2.729   6.393  0.3888 -0.7215 -0.3323
  126OSM   H18F13460   6.121   2.622   6.407  0.1032 -1.2817 -4.1278
  126OSM   H18G13461   6.057   2.784   6.359 -0.4972 -1.6788  0.4146
  126OSM   H18H13462   6.178   2.787   6.482  3.7197 -0.0532 -1.7785
  127OSM      N13463   6.050   4.992   4.515  0.1023 -0.2193  0.7061
  127OSM    C1513464   5.991   4.959   4.648  0.3350  0.4330 -0.9380
  127OSM   H15A13465   5.896   4.909   4.640  1.0381 -1.5165  1.5447
  127OSM   H15B13466   5.994   5.046   4.712 -1.0390  0.1217 -0.4248
  127OSM   H15C13467   6.061   4.897   4.702  0.7252  0.8132 -1.0025
  127OSM    C1413468   6.055   4.876   4.432  0.7387  0.2522 -0.3421
  127OSM   H14A13469   5.955   4.839   4.411  0.5607 -0.5662  1.6794
  127OSM   H14B13470   6.115   4.800   4.481  2.5776  0.8952 -1.4908
  127OSM   H14C13471   6.103   4.891   4.336  0.9710 -0.4350 -0.3458
  127OSM    C1313472   5.957   5.086   4.443  0.1627  0.0858  0.1761
  127OSM   H13A13473   6.000   5.110   4.348  1.0264 -2.8500 -0.2922
  127OSM   H13B13474   5.954   5.179   4.498 -0.7689  0.0877  0.1383
  127OSM   H13C13475   5.860   5.043   4.424  0.6591 -0.3645 -1.4871
  127OSM    C1213476   6.187   5.056   4.533  0.0127  0.6492 -0.2953
  127OSM   H12A13477   6.242   4.983   4.590  0.3279 -1.8526 -3.5237
  127OSM   H12B13478   6.187   5.144   4.595  2.7755 -0.5231  1.5812
  127OSM    C1113479   6.270   5.079   4.402  0.5695 -0.2599 -0.1595
  127OSM   H11A13480   6.204   5.143   4.339  0.9180 -2.3719 -2.8168
  127OSM   H11B13481   6.300   4.990   4.344  3.0923  2.0683 -2.7397
  127OSM      P13482   6.519   5.104   4.508  0.3629  0.1369  0.3930
  127OSM    O1313483   6.598   5.032   4.404  0.1050  0.0226  0.0248
  127OSM    O1413484   6.593   5.214   4.582 -0.2208 -0.2335  0.3546
  127OSM    O1113485   6.463   4.992   4.608 -0.8886  0.5768  0.4840
  127OSM    O1213486   6.381   5.160   4.443  0.4045  0.5871  0.2912
  127OSM    C1S13487   6.558   4.903   4.664  0.5666  0.0683  0.6038
  127OSM    H1S13488   6.663   4.939   4.667  1.0608 -0.7878 -2.3745
  127OSM    H1T13489   6.566   4.820   4.590  0.0382  0.9808 -0.5031
  127OSM     NF13490   6.628   4.775   4.864  0.4180 -0.3838 -0.5244
  127OSM    HNF13491   6.628   4.676   4.859 -1.0573 -0.5748  1.7534
  127OSM    C2S13492   6.520   4.854   4.807  0.2436 -0.2500 -0.6052
  127OSM    H2S13493   6.495   4.936   4.878 -1.9440 -1.3017 -0.0732
  127OSM    C3S13494   6.391   4.781   4.796  0.3794  0.4608 -0.5613
  127OSM    H3S13495   6.411   4.700   4.723  2.5881 -1.6458  2.1588
  127OSM     O313496   6.285   4.873   4.767  0.0225 -0.2193  0.4654
  127OSM    HO313497   6.334   4.951   4.742  0.2406 -0.5604 -0.1917
  127OSM    C4S13498   6.363   4.706   4.930 -0.2011 -0.2901  0.0340
  127OSM    H4S13499   6.357   4.596   4.921 -0.8687 -0.3250  0.7502
  127OSM    C5S13500   6.320   4.764   5.043  0.6019  0.5487  0.4384
  127OSM    H5S13501   6.297   4.871   5.032  2.0686  0.8663  0.2791
  127OSM    C6S13502   6.290   4.693   5.174  1.2919  0.1028 -0.7854
  127OSM    H6S13503   6.182   4.697   5.198  1.3109  0.8007 -0.7934
  127OSM    H6T13504   6.349   4.751   5.248  1.7006 -0.2211 -0.8544
  127OSM    C7S13505   6.336   4.545   5.203 -0.1340  0.6621  0.2592
  127OSM    H7S13506   6.447   4.548   5.208 -0.1339 -0.4769  2.1092
  127OSM    H7T13507   6.297   4.494   5.113 -0.5418  1.7153 -0.1683
  127OSM    C8S13508   6.276   4.480   5.331 -0.0591  0.4760  0.3326
  127OSM    H8S13509   6.339   4.392   5.357  1.1701  0.8329 -1.2892
  127OSM    H8T13510   6.169   4.460   5.309 -0.5976  0.1417  2.9646
  127OSM    C9S13511   6.289   4.565   5.455  0.0014  0.2130 -0.5874
  127OSM    H9S13512   6.210   4.643   5.455  0.1121  0.4346  2.3231
  127OSM    H9T13513   6.393   4.604   5.442  1.6389 -3.4818  0.0903
  127OSM   C10S13514   6.273   4.482   5.584  0.4859  0.4688 -0.1019
  127OSM   H10S13515   6.353   4.408   5.603  1.3125  1.4794  0.4873
  127OSM   H10T13516   6.178   4.426   5.577  0.4113  0.6724 -0.8438
  127OSM   C11S13517   6.285   4.568   5.717  0.2039  0.3804  0.3916
  127OSM   H11S13518   6.209   4.648   5.715  0.1453  0.3139 -0.1660
  127OSM   H11T13519   6.375   4.631   5.702 -0.1242  0.4277 -1.7130
  127OSM   C12S13520   6.292   4.486   5.840 -0.1305 -0.1306 -0.5791
  127OSM   H12S13521   6.298   4.552   5.929  0.0831  0.3529 -0.9455
  127OSM   H12T13522   6.394   4.443   5.853  0.3687  1.2966  0.5715
  127OSM   C13S13523   6.186   4.373   5.860 -0.0684  0.1337 -1.2400
  127OSM   H13S13524   6.202   4.304   5.774 -2.6074  0.1856 -1.8541
  127OSM   H13T13525   6.086   4.422   5.857  0.1302  0.6731  0.2749
  127OSM   C14S13526   6.196   4.309   6.003 -0.0150 -0.4388  0.2530
  127OSM   H14S13527   6.219   4.392   6.073 -0.0693  0.8359 -1.1917
  127OSM   H14T13528   6.290   4.250   5.998  1.4088  1.8208 -1.8079
  127OSM   C15S13529   6.066   4.238   6.022 -0.7201 -0.2023  0.2115
  127OSM   H15S13530   6.059   4.150   5.955  0.0781 -0.3763  0.3438
  127OSM   H15T13531   5.985   4.314   6.018 -0.8053 -0.2722  0.5445
  127OSM   C16S13532   6.061   4.185   6.166  0.5242 -0.4215  0.2524
  127OSM   H16S13533   6.064   4.276   6.229 -1.7793  0.5349 -0.8798
  127OSM   H16T13534   6.151   4.123   6.187  0.7654 -0.3575 -0.5720
  127OSM   C17S13535   5.940   4.103   6.191  0.2112  0.0443 -1.0947
  127OSM   H17S13536   5.931   4.020   6.118 -1.0394  0.5692 -1.5681
  127OSM   H17T13537   5.854   4.173   6.183  1.5244  1.9121  0.3035
  127OSM   C18S13538   5.933   4.024   6.329  0.2039  0.1904  0.2366
  127OSM   H18S13539   5.967   4.085   6.416  1.8295  0.6140 -0.6641
  127OSM   H18T13540   6.014   3.948   6.325 -0.1110 -0.2303  1.4382
  127OSM   H18U13541   5.835   3.973   6.341  1.0843 -1.0196  3.4365
  127OSM    C1F13542   6.728   4.844   4.904  0.7247  0.3868 -0.1008
  127OSM     OF13543   6.732   4.965   4.913  0.0257  0.1380 -0.1348
  127OSM    C2F13544   6.856   4.764   4.909  0.7826  0.2064 -0.2792
  127OSM    H2F13545   6.911   4.764   4.812  1.9117 -3.0472  0.2202
  127OSM    H2G13546   6.833   4.663   4.948  0.8786  1.1931  2.5519
  127OSM    C3F13547   6.960   4.831   5.005  0.6842 -0.2593  0.4087
  127OSM    H3F13548   6.990   4.935   4.980  1.2990 -0.7241 -0.8724
  127OSM    H3G13549   7.059   4.781   5.005  0.3872 -0.9389 -1.5993
  127OSM    C4F13550   6.917   4.836   5.150  0.3526 -0.1482  0.2843
  127OSM    H4F13551   6.908   4.730   5.183 -0.9975 -1.2426 -3.1153
  127OSM    H4G13552   6.814   4.878   5.159  0.0529 -1.0443  1.1885
  127OSM    C5F13553   7.006   4.910   5.242 -0.3358  0.2341 -0.1980
  127OSM    H5F13554   7.019   5.020   5.231  2.8176  0.2095  1.9139
  127OSM    H5G13555   7.106   4.868   5.218  0.2764  1.1246  0.7258
  127OSM    C6F13556   6.969   4.887   5.385 -0.0030 -0.2651  0.2997
  127OSM    H6F13557   6.966   4.779   5.412  3.1476 -1.3891 -3.0149
  127OSM    H6G13558   6.869   4.933   5.399 -0.1359 -0.7403  0.9808
  127OSM    C7F13559   7.055   4.968   5.486  0.3302 -0.2237 -0.2294
  127OSM    H7F13560   7.055   5.075   5.459 -0.0976 -0.8063 -2.8305
  127OSM    H7G13561   7.161   4.935   5.489  0.0306 -1.2403 -0.3612
  127OSM    C8F13562   7.004   4.971   5.630  0.2910 -0.1876 -0.8631
  127OSM    H8F13563   6.904   5.018   5.628  1.5096  2.6017 -1.3538
  127OSM    H8G13564   7.074   5.040   5.682  1.0953 -1.6536  0.0834
  127OSM    C9F13565   7.008   4.831   5.695  0.6197 -0.5808 -0.4730
  127OSM    H9F13566   6.961   4.751   5.634 -1.4049 -0.3697  0.7128
  127OSM   C10F13567   7.044   4.802   5.825  0.3399  0.7049 -0.0803
  127OSM   H10F13568   7.021   4.699   5.858  0.5298  1.6429  3.2681
  127OSM   C11F13569   7.100   4.888   5.936  0.3148  0.2281 -0.0591
  127OSM   H11F13570   7.089   4.996   5.911  1.1801  0.0422 -1.3355
  127OSM   H11G13571   7.206   4.854   5.938 -0.0417 -1.1950 -2.4743
  127OSM   C12F13572   7.026   4.862   6.072  0.3589 -0.7980 -0.8317
  127OSM   H12F13573   6.921   4.898   6.070  0.6812  0.3816  0.8693
  127OSM   H12G13574   7.067   4.940   6.140 -1.0744 -0.2162 -0.5924
  127OSM   C13F13575   7.028   4.723   6.127  0.2956  0.1258 -0.1006
  127OSM   H13F13576   7.138   4.703   6.130  0.2635 -0.2951 -1.2379
  127OSM   H13G13577   6.975   4.653   6.060  0.4169 -0.1585  0.0974
  127OSM   C14F13578   6.982   4.723   6.274 -0.2605  0.4026  0.7792
  127OSM   H14F13579   7.007   4.621   6.310  1.7941  0.9235  0.9778
  127OSM   H14G13580   6.872   4.732   6.266 -0.3128  0.7484  1.8322
  127OSM   C15F13581   7.039   4.828   6.364 -0.1918 -0.8085 -0.6356
  127OSM   H15F13582   7.006   4.932   6.347  0.4785 -0.6895 -1.2796
  127OSM   H15G13583   7.150   4.818   6.370 -0.3698 -2.2714  1.4049
  127OSM   C16F13584   6.993   4.802   6.507  0.0014  0.3495  0.0071
  127OSM   H16F13585   6.966   4.695   6.517 -1.1045  0.5535 -0.6953
  127OSM   H16G13586   6.899   4.856   6.531  0.5152  0.5616  1.6903
  127OSM   C17F13587   7.097   4.847   6.611  0.3316 -0.2721 -0.0789
  127OSM   H17F13588   7.204   4.838   6.582  0.4758  2.4669 -0.6752
  127OSM   H17G13589   7.082   4.792   6.706 -1.1646  3.2558  1.9202
  127OSM   C18F13590   7.084   4.995   6.652  0.5439 -0.3425 -0.0522
  127OSM   H18F13591   7.073   5.049   6.556  2.4932 -0.9562 -0.6676
  127OSM   H18G13592   7.178   5.037   6.692 -0.2771  1.2920  0.2629
  127OSM   H18H13593   6.996   5.010   6.719  1.2696 -3.5790  1.8570
  128OSM      N13594   0.850   5.365   4.347  0.5278 -0.1634 -0.0905
  128OSM    C1513595   0.930   5.399   4.226 -0.4243 -0.5481 -0.7995
  128OSM   H15A13596   1.032   5.407   4.258 -0.6372  1.5006 -0.5253
  128OSM   H15B13597   0.901   5.496   4.187 -0.7103 -0.4438 -0.3352
  128OSM   H15C13598   0.914   5.320   4.154  1.1255 -1.8493  0.2360
  128OSM    C1413599   0.704   5.375   4.314 -0.1881 -0.0989  0.2370
  128OSM   H14A13600   0.672   5.313   4.232 -1.2066 -2.3267  2.2012
  128OSM   H14B13601   0.676   5.477   4.289 -0.7365 -0.5494 -1.0443
  128OSM   H14C13602   0.642   5.343   4.397  0.4737  2.7886  2.0043
  128OSM    C1313603   0.889   5.229   4.387 -0.3397  0.1173 -0.2086
  128OSM   H13A13604   0.842   5.208   4.482 -0.0613 -2.6469 -0.6190
  128OSM   H13B13605   0.993   5.229   4.414 -0.5318 -0.4169  0.5990
  128OSM   H13C13606   0.880   5.155   4.309  1.3241  0.2929 -0.5891
  128OSM    C1213607   0.872   5.468   4.462  0.6856  0.0590  0.4206
  128OSM   H12A13608   0.855   5.564   4.417 -0.2364 -0.7337 -1.0044
  128OSM   H12B13609   0.973   5.455   4.498  0.3895  0.8904  1.5940
  128OSM    C1113610   0.794   5.444   4.597  0.0811 -0.0353  0.2905
  128OSM   H11A13611   0.687   5.468   4.583  0.0632  0.5475  1.3579
  128OSM   H11B13612   0.809   5.530   4.666 -0.2130  0.2222  0.0334
  128OSM      P13613   0.951   5.286   4.723 -0.2469  0.2114  0.1486
  128OSM    O1313614   0.950   5.140   4.718 -0.6648 -0.4621  0.0286
  128OSM    O1413615   1.058   5.352   4.643  0.0384 -0.2784  0.4378
  128OSM    O1113616   0.958   5.339   4.873 -0.1524 -0.7208  0.4045
  128OSM    O1213617   0.806   5.319   4.667 -0.0307 -0.1108  0.3618
  128OSM    C1S13618   0.861   5.282   4.966  0.7411 -1.1962  0.8942
  128OSM    H1S13619   0.792   5.212   4.915 -0.9122  1.3708 -0.6482
  128OSM    H1T13620   0.817   5.367   5.023 -0.1098 -1.3153  0.4398
  128OSM     NF13621   0.838   5.127   5.166  0.8433  0.0075 -0.1817
  128OSM    HNF13622   0.811   5.154   5.258 -3.2898 -3.1295 -0.1820
  128OSM    C2S13623   0.928   5.213   5.090 -0.2062  0.6252 -0.5260
  128OSM    H2S13624   1.010   5.148   5.052 -1.6811 -1.3136 -0.5593
  128OSM    C3S13625   1.001   5.323   5.176 -0.1220  0.2725  0.0073
  128OSM    H3S13626   0.926   5.398   5.206 -1.0303 -1.1087  1.3217
  128OSM     O313627   1.096   5.387   5.091 -0.0753  0.0507  0.0954
  128OSM    HO313628   1.051   5.381   5.007 -1.2166  1.0027  0.6013
  128OSM    C4S13629   1.059   5.266   5.303  0.5414  0.0639 -0.0805
  128OSM    H4S13630   0.982   5.218   5.365  0.4890 -0.4197 -0.5087
  128OSM    C5S13631   1.186   5.251   5.338  0.2207  0.6240 -0.3123
  128OSM    H5S13632   1.254   5.281   5.257  1.2119  1.5904  0.8350
  128OSM    C6S13633   1.244   5.204   5.470  0.1343  0.9521 -0.1333
  128OSM    H6S13634   1.326   5.271   5.503  0.7448  0.2191 -0.1090
  128OSM    H6T13635   1.295   5.108   5.444  0.7202  1.5235 -1.1671
  128OSM    C7S13636   1.141   5.186   5.590 -0.4744 -0.2404  0.1489
  128OSM    H7S13637   1.063   5.111   5.567  0.2942 -0.3803 -2.2889
  128OSM    H7T13638   1.079   5.276   5.610 -0.3753 -0.0077 -0.5650
  128OSM    C8S13639   1.209   5.131   5.712 -1.0141  0.4719 -0.5000
  128OSM    H8S13640   1.287   5.206   5.739  1.5336 -2.1166 -0.2116
  128OSM    H8T13641   1.260   5.036   5.689  0.1876  1.3251 -1.4948
  128OSM    C9S13642   1.118   5.119   5.836  0.3342  0.7130  0.1491
  128OSM    H9S13643   1.034   5.053   5.803  1.2279  0.3591 -1.4987
  128OSM    H9T13644   1.065   5.214   5.862 -0.7035  0.8610 -2.2520
  128OSM   C10S13645   1.195   5.067   5.965 -0.6288 -0.3516  0.1000
  128OSM   H10S13646   1.274   5.145   5.976 -0.8950  0.2941 -1.9730
  128OSM   H10T13647   1.231   4.973   5.917 -0.9588 -0.6713  0.4717
  128OSM   C11S13648   1.103   5.039   6.080 -0.7456  0.1919 -0.0843
  128OSM   H11S13649   1.022   4.966   6.061 -0.1584 -0.1987 -1.1242
  128OSM   H11T13650   1.065   5.135   6.122 -1.1545 -0.0178  0.0358
  128OSM   C12S13651   1.175   4.977   6.203  0.1921  0.5114 -0.0852
  128OSM   H12S13652   1.253   5.052   6.226 -1.3043  1.8174  0.9356
  128OSM   H12T13653   1.221   4.881   6.170  0.5408  0.8381 -0.5610
  128OSM   C13S13654   1.089   4.929   6.323  0.6445 -0.0097 -0.2887
  128OSM   H13S13655   1.020   4.843   6.306  0.5344  0.4197 -2.2243
  128OSM   H13T13656   1.020   5.010   6.352  1.0987  1.0583 -2.0470
  128OSM   C14S13657   1.169   4.905   6.455 -0.0633  0.8835 -0.8492
  128OSM   H14S13658   1.102   4.876   6.540  1.3105 -0.4597 -0.1599
  128OSM   H14T13659   1.217   5.000   6.485  0.4677  0.7543 -1.2754
  128OSM   C15S13660   1.275   4.792   6.444  0.6111 -0.1256 -0.6441
  128OSM   H15S13661   1.219   4.719   6.382 -1.8447  0.6027  0.6138
  128OSM   H15T13662   1.290   4.750   6.545 -0.1464 -1.0232 -0.8991
  128OSM   C16S13663   1.414   4.824   6.389 -0.2502  0.0488  0.2943
  128OSM   H16S13664   1.460   4.898   6.459 -1.5779 -0.1875  1.4552
  128OSM   H16T13665   1.413   4.871   6.288 -0.6451  1.4943  0.9440
  128OSM   C17S13666   1.511   4.702   6.393 -0.1026 -0.1696 -0.0944
  128OSM   H17S13667   1.528   4.655   6.492  4.6739  1.1565 -0.0115
  128OSM   H17T13668   1.611   4.747   6.375 -0.0696 -0.0093  0.4733
  128OSM   C18S13669   1.477   4.592   6.289 -0.9037 -0.4748  0.1510
  128OSM   H18S13670   1.390   4.531   6.320 -0.3686 -0.2624  2.2171
  128OSM   H18T13671   1.567   4.529   6.273  0.5304  1.0562  1.7189
  128OSM   H18U13672   1.462   4.642   6.191  1.6613 -0.2078 -0.1699
  128OSM    C1F13673   0.773   5.022   5.119  0.4889  0.3975  0.0819
  128OSM     OF13674   0.793   4.987   5.003 -0.1145 -0.6334 -0.6160
  128OSM    C2F13675   0.671   4.956   5.212 -0.3646  0.4088  0.9978
  128OSM    H2F13676   0.578   5.014   5.196 -0.3951  0.2028  0.4150
  128OSM    H2G13677   0.719   4.973   5.311  0.3001  0.1391  0.7304
  128OSM    C3F13678   0.672   4.805   5.192 -0.2330 -0.1362 -0.5938
  128OSM    H3F13679   0.776   4.769   5.198  0.4318  1.6846 -0.3778
  128OSM    H3G13680   0.634   4.770   5.094  1.1971  0.3349 -1.3306
  128OSM    C4F13681   0.601   4.727   5.312  0.3978  0.4760  1.0562
  128OSM    H4F13682   0.500   4.692   5.283  0.6739  0.8912 -0.5446
  128OSM    H4G13683   0.587   4.799   5.395  2.5293 -0.7691  2.5713
  128OSM    C5F13684   0.672   4.605   5.375  0.1065 -0.0684 -0.4798
  128OSM    H5F13685   0.751   4.638   5.445  0.3412  1.5835 -1.4556
  128OSM    H5G13686   0.724   4.543   5.299 -1.0174 -1.9738  0.2229
  128OSM    C6F13687   0.572   4.506   5.439 -0.0407  0.4774 -0.1756
  128OSM    H6F13688   0.542   4.427   5.366  1.1331  0.9651 -1.2148
  128OSM    H6G13689   0.481   4.563   5.468 -0.0953 -0.2005  1.0847
  128OSM    C7F13690   0.623   4.446   5.573  0.7375  0.6031  0.4925
  128OSM    H7F13691   0.624   4.531   5.644 -1.4679  1.8544 -0.8602
  128OSM    H7G13692   0.729   4.424   5.547  0.3001  0.0682 -0.9008
  128OSM    C8F13693   0.553   4.324   5.630 -0.4048 -0.0993  0.4254
  128OSM    H8F13694   0.591   4.285   5.727  0.8878 -1.0702 -0.4396
  128OSM    H8G13695   0.551   4.245   5.552  0.7922 -0.1895  0.4695
  128OSM    C9F13696   0.409   4.353   5.666  0.3585 -0.4683 -0.7302
  128OSM    H9F13697   0.331   4.332   5.591 -2.0011 -1.0366  1.7571
  128OSM   C10F13698   0.367   4.403   5.788  0.5179  0.4678  0.6718
  128OSM   H10F13699   0.258   4.397   5.802  0.6239 -3.2173  0.8247
  128OSM   C11F13700   0.456   4.441   5.909  0.5052 -0.7472 -0.1604
  128OSM   H11F13701   0.426   4.541   5.946  0.9283 -0.5432 -0.3593
  128OSM   H11G13702   0.564   4.457   5.889  0.1023  0.7562 -1.2741
  128OSM   C12F13703   0.434   4.359   6.034  0.0094 -0.3450  0.1431
  128OSM   H12F13704   0.492   4.264   6.032 -0.5500 -0.8188  2.7178
  128OSM   H12G13705   0.324   4.347   6.045 -0.1847  0.3648 -0.8247
  128OSM   C13F13706   0.489   4.430   6.164  0.4228  0.0461 -0.0718
  128OSM   H13F13707   0.437   4.527   6.178 -0.5856 -0.6046  0.8128
  128OSM   H13G13708   0.599   4.445   6.160  0.2262  1.5436 -0.7280
  128OSM   C14F13709   0.475   4.349   6.287 -0.4869 -0.0354  1.0282
  128OSM   H14F13710   0.533   4.255   6.273  0.9007  0.8220  0.8534
  128OSM   H14G13711   0.371   4.315   6.310 -0.9453 -0.3485 -1.3030
  128OSM   C15F13712   0.523   4.426   6.401 -0.2769  0.2473 -0.3576
  128OSM   H15F13713   0.449   4.501   6.433  0.3125 -0.0028  1.7591
  128OSM   H15G13714   0.623   4.472   6.383 -0.3357  0.2910 -0.5823
  128OSM   C16F13715   0.528   4.340   6.529  0.2819 -0.2176 -0.3366
  128OSM   H16F13716   0.602   4.259   6.537  1.7859  1.2471  1.6454
  128OSM   H16G13717   0.423   4.304   6.534  0.1565 -0.0658 -1.5432
  128OSM   C17F13718   0.554   4.430   6.652 -0.4305  0.5576  0.5531
  128OSM   H17F13719   0.464   4.494   6.664 -0.3623  0.6070  0.8044
  128OSM   H17G13720   0.638   4.500   6.633 -0.2599  0.8062  2.0391
  128OSM   C18F13721   0.579   4.354   6.775 -0.3208 -0.0695  0.1219
  128OSM   H18F13722   0.495   4.289   6.809  1.2354 -0.7075  3.1090
  128OSM   H18G13723   0.616   4.414   6.861 -0.4932  0.5793 -0.2561
  128OSM   H18H13724   0.665   4.286   6.756 -1.0862 -0.8733 -0.5271
  129OSM      N13725   6.581   2.556   4.350 -0.6140  0.1117  0.2795
  129OSM    C1513726   6.488   2.450   4.297 -0.0319  0.1252  0.2192
  129OSM   H15A13727   6.447   2.486   4.204  0.0288  1.1566  0.5733
  129OSM   H15B13728   6.411   2.448   4.373 -1.5341 -0.8419 -1.2479
  129OSM   H15C13729   6.526   2.350   4.287  2.3028  0.9402  0.3369
  129OSM    C1413730   6.674   2.587   4.229  0.2209 -0.3675  0.5571
  129OSM   H14A13731   6.726   2.497   4.199  0.6808  0.0196  0.1726
  129OSM   H14B13732   6.753   2.660   4.244  0.0136  0.0994 -0.4945
  129OSM   H14C13733   6.607   2.622   4.151 -0.3607 -1.1950  0.6746
  129OSM    C1313734   6.495   2.667   4.388 -0.1294 -0.2835 -0.3071
  129OSM   H13A13735   6.414   2.639   4.453  1.7940 -0.5272  2.1057
  129OSM   H13B13736   6.441   2.697   4.299 -0.2342  1.3897  0.2758
  129OSM   H13C13737   6.563   2.743   4.424  0.1828 -0.3282 -0.7742
  129OSM    C1213738   6.659   2.493   4.468  0.1358 -0.6576  0.0015
  129OSM   H12A13739   6.702   2.395   4.453  0.5598 -0.5691  0.5879
  129OSM   H12B13740   6.591   2.475   4.550  0.4562 -1.4357  0.1041
  129OSM    C1113741   6.779   2.573   4.526  0.1017 -0.1944 -0.2178
  129OSM   H11A13742   6.847   2.605   4.444  0.6680  0.4522  0.4827
  129OSM   H11B13743   6.839   2.511   4.596  1.2872  0.1571 -0.8921
  129OSM      P13744   6.683   2.692   4.736  0.2203 -0.2895  0.0090
  129OSM    O1313745   6.627   2.829   4.764  0.1387  0.6090 -0.7561
  129OSM    O1413746   6.591   2.579   4.741  0.4664  0.4238 -0.6226
  129OSM    O1113747   6.811   2.671   4.828 -0.4816  0.8420 -0.3681
  129OSM    O1213748   6.738   2.699   4.587  0.6675 -0.0019 -0.1449
  129OSM    C1S13749   6.932   2.736   4.801 -0.0540 -0.2808  0.0505
  129OSM    H1S13750   6.917   2.845   4.812 -2.7948 -0.6729  0.9986
  129OSM    H1T13751   6.984   2.713   4.705  0.4317 -3.2273  0.9259
  129OSM     NF13752   7.118   2.817   4.948 -0.1134 -0.6047 -0.4569
  129OSM    HNF13753   7.206   2.817   4.901 -0.1473  0.4748 -0.5247
  129OSM    C2S13754   7.020   2.713   4.924  0.1523  0.1390  0.2980
  129OSM    H2S13755   6.952   2.712   5.012  1.9775 -1.2125  1.7856
  129OSM    C3S13756   7.078   2.572   4.907 -0.4518 -0.2286 -0.3949
  129OSM    H3S13757   7.151   2.581   4.824  0.4238  1.0106  0.4823
  129OSM     O313758   6.987   2.470   4.875 -0.7805 -0.1188  0.1253
  129OSM    HO313759   6.907   2.518   4.851 -0.8000 -0.2734 -0.1353
  129OSM    C4S13760   7.142   2.528   5.040  0.1107  0.7378  0.2417
  129OSM    H4S13761   7.073   2.541   5.125 -0.1828 -1.1567  0.3285
  129OSM    C5S13762   7.272   2.492   5.062 -0.8204 -0.5735  0.5443
  129OSM    H5S13763   7.344   2.498   4.979 -2.0164  2.1974 -0.4168
  129OSM    C6S13764   7.340   2.458   5.195  0.3688 -0.0903  0.2663
  129OSM    H6S13765   7.385   2.554   5.228 -3.0612  2.0035 -0.6556
  129OSM    H6T13766   7.417   2.382   5.169 -0.3593 -0.6895 -0.2006
  129OSM    C7S13767   7.250   2.410   5.305 -0.5164 -0.9438  0.4261
  129OSM    H7S13768   7.184   2.332   5.263 -0.3779 -0.0176 -1.6184
  129OSM    H7T13769   7.179   2.483   5.351  0.4326  1.9348 -2.2895
  129OSM    C8S13770   7.321   2.337   5.415 -0.8632  0.2334  0.2174
  129OSM    H8S13771   7.420   2.386   5.432 -0.4930  0.5170 -2.4346
  129OSM    H8T13772   7.342   2.229   5.399  1.4124  0.3934  1.6133
  129OSM    C9S13773   7.244   2.359   5.550  0.0903  0.7218  0.5152
  129OSM    H9S13774   7.144   2.310   5.551 -1.2735  3.3261  0.4174
  129OSM    H9T13775   7.232   2.469   5.557 -1.6269  0.6342 -0.4490
  129OSM   C10S13776   7.318   2.276   5.655 -0.4195 -0.0890 -0.1934
  129OSM   H10S13777   7.427   2.278   5.630 -0.9708 -0.6524 -2.9830
  129OSM   H10T13778   7.287   2.170   5.655  0.1578 -0.2650 -1.0773
  129OSM   C11S13779   7.284   2.318   5.799 -0.0785 -0.4539  0.6967
  129OSM   H11S13780   7.336   2.253   5.874 -0.3914  1.9902  3.1844
  129OSM   H11T13781   7.179   2.288   5.820 -0.1562 -1.8841 -1.4260
  129OSM   C12S13782   7.317   2.460   5.843 -0.5519 -0.2629 -0.3343
  129OSM   H12S13783   7.237   2.526   5.802  0.2759  0.1503 -1.3148
  129OSM   H12T13784   7.410   2.497   5.796 -0.8575  0.0537 -0.6995
  129OSM   C13S13785   7.332   2.481   5.994 -0.4650  0.3124 -0.3182
  129OSM   H13S13786   7.409   2.407   6.025 -0.9594 -0.8462 -1.7081
  129OSM   H13T13787   7.247   2.432   6.047  0.5271 -0.0591  0.9825
  129OSM   C14S13788   7.357   2.625   6.039  0.0558 -0.3481  0.2361
  129OSM   H14S13789   7.270   2.690   6.012 -0.3697 -1.1321 -0.3088
  129OSM   H14T13790   7.448   2.661   5.988 -2.3487  1.2055 -3.3840
  129OSM   C15S13791   7.372   2.632   6.196 -0.5581  0.3342  0.5656
  129OSM   H15S13792   7.448   2.553   6.215  1.2250  0.9652 -3.0557
  129OSM   H15T13793   7.278   2.603   6.246 -1.6665  1.6392 -0.6579
  129OSM   C16S13794   7.429   2.763   6.262 -0.8440 -0.2055  0.7254
  129OSM   H16S13795   7.518   2.796   6.205 -0.4330 -0.7826  1.0305
  129OSM   H16T13796   7.462   2.739   6.365  2.0305 -0.6463 -0.2245
  129OSM   C17S13797   7.334   2.874   6.247  0.2912  0.3250 -0.5940
  129OSM   H17S13798   7.241   2.830   6.289 -0.3437 -0.0391 -2.3048
  129OSM   H17T13799   7.330   2.896   6.138  0.9968  1.4350 -0.4105
  129OSM   C18S13800   7.365   3.005   6.326 -0.4248  0.8548 -0.0323
  129OSM   H18S13801   7.370   2.980   6.434  2.1051 -0.9081 -0.4672
  129OSM   H18T13802   7.287   3.081   6.304 -0.3774  0.3217 -2.2758
  129OSM   H18U13803   7.463   3.048   6.297  0.2864 -0.2695  0.6167
  129OSM    C1F13804   7.088   2.932   5.012 -0.3129  0.2203  0.6947
  129OSM     OF13805   6.976   2.953   5.055  0.3469 -0.9418  0.0125
  129OSM    C2F13806   7.202   3.024   5.023  0.5058 -0.3516  0.0568
  129OSM    H2F13807   7.179   3.130   4.997 -0.3171 -0.5642 -0.1180
  129OSM    H2G13808   7.280   2.990   4.952  0.2187 -0.5525 -0.1622
  129OSM    C3F13809   7.268   3.013   5.164 -0.2485  0.3678 -0.1157
  129OSM    H3F13810   7.190   3.044   5.236  0.7132 -0.6279  1.4254
  129OSM    H3G13811   7.328   3.105   5.178 -0.0149 -0.0434  1.8880
  129OSM    C4F13812   7.324   2.878   5.217  0.2108  0.0485 -0.1505
  129OSM    H4F13813   7.424   2.870   5.170  0.3027  0.1473  0.0278
  129OSM    H4G13814   7.271   2.783   5.193 -0.4892  0.1595  0.8660
  129OSM    C5F13815   7.337   2.880   5.369  1.1277 -0.2174  0.2614
  129OSM    H5F13816   7.369   2.979   5.407  0.6606 -0.0571  0.2399
  129OSM    H5G13817   7.407   2.795   5.386 -0.3364 -2.5829 -4.0685
  129OSM    C6F13818   7.207   2.837   5.438  0.2785  0.3991 -0.0029
  129OSM    H6F13819   7.180   2.738   5.394  1.4852 -0.2827  0.7615
  129OSM    H6G13820   7.124   2.910   5.428  0.8593  1.6011  2.9035
  129OSM    C7F13821   7.240   2.805   5.582 -0.0144 -0.1865 -0.8286
  129OSM    H7F13822   7.301   2.887   5.626  0.3362 -0.3195 -1.0584
  129OSM    H7G13823   7.310   2.719   5.575  0.4000 -0.1128  1.5598
  129OSM    C8F13824   7.114   2.760   5.668 -0.3555 -0.0887  0.3220
  129OSM    H8F13825   7.164   2.717   5.758  1.9006  2.5482  0.4520
  129OSM    H8G13826   7.058   2.670   5.634  1.3817 -1.0935  0.0281
  129OSM    C9F13827   7.023   2.877   5.691 -0.2351 -0.5060 -0.0524
  129OSM    H9F13828   7.008   2.934   5.597  1.3385 -0.4258 -0.2860
  129OSM   C10F13829   6.975   2.925   5.802  0.1361 -0.5093  0.4157
  129OSM   H10F13830   6.911   3.015   5.793 -0.3201 -1.0388 -4.0775
  129OSM   C11F13831   6.980   2.869   5.939 -0.0343 -0.0974  0.6372
  129OSM   H11F13832   7.016   2.764   5.930  0.5654  0.1638 -0.2042
  129OSM   H11G13833   6.879   2.861   5.985 -1.4340 -0.1409 -2.2592
  129OSM   C12F13834   7.075   2.942   6.035  0.8451  0.0999 -0.0433
  129OSM   H12F13835   7.169   2.960   5.978  0.4638  0.9417 -0.4208
  129OSM   H12G13836   7.095   2.868   6.114  1.7124 -0.1019 -0.4394
  129OSM   C13F13837   7.017   3.071   6.092  0.0793  0.2530 -0.0203
  129OSM   H13F13838   6.991   3.134   6.004  0.9596  1.3362  0.4748
  129OSM   H13G13839   7.094   3.130   6.146 -0.5392  0.5792  0.5191
  129OSM   C14F13840   6.894   3.061   6.181 -0.2275 -0.2831  0.0766
  129OSM   H14F13841   6.822   3.000   6.122  1.9004 -0.4388 -2.5509
  129OSM   H14G13842   6.852   3.164   6.181  0.7490  0.1728 -1.6694
  129OSM   C15F13843   6.922   3.011   6.318 -0.2658 -0.6002 -0.3475
  129OSM   H15F13844   6.980   3.086   6.376 -0.5302 -0.6062 -0.0714
  129OSM   H15G13845   6.992   2.925   6.318 -1.3576 -1.6040 -3.2885
  129OSM   C16F13846   6.796   2.972   6.395  0.1509 -0.5766 -0.2031
  129OSM   H16F13847   6.710   3.039   6.372  0.2494 -0.9573 -1.7736
  129OSM   H16G13848   6.816   2.969   6.505  0.9794  1.6372 -0.2556
  129OSM   C17F13849   6.739   2.828   6.357 -0.1242 -0.1445 -0.1203
  129OSM   H17F13850   6.823   2.756   6.352  0.2216  0.2725 -0.3339
  129OSM   H17G13851   6.700   2.837   6.253 -0.5004 -0.6663 -0.0276
  129OSM   C18F13852   6.609   2.779   6.428 -0.3316 -1.2539  0.3009
  129OSM   H18F13853   6.533   2.858   6.447  0.7606 -0.2906  0.7780
  129OSM   H18G13854   6.642   2.748   6.530 -1.1410  0.5115  1.1529
  129OSM   H18H13855   6.563   2.690   6.379  0.8073 -1.3145 -0.6735
  130OSM      N13856   3.093   5.766   4.350  0.0522 -0.5487 -0.7651
  130OSM    C1513857   3.133   5.709   4.486  0.6146 -0.3303 -0.1337
  130OSM   H15A13858   3.180   5.612   4.474  0.3439 -0.3565 -1.0943
  130OSM   H15B13859   3.043   5.693   4.543  0.3776  0.4726 -0.2843
  130OSM   H15C13860   3.190   5.783   4.540  0.4562  1.3210 -2.1148
  130OSM    C1413861   3.040   5.660   4.270 -0.1636  0.3557 -0.0243
  130OSM   H14A13862   3.119   5.586   4.267  0.4206  0.6671  3.7609
  130OSM   H14B13863   3.013   5.697   4.172  0.8233 -1.9822 -1.2668
  130OSM   H14C13864   2.954   5.608   4.309  1.2508 -2.5146 -0.4525
  130OSM    C1313865   2.988   5.868   4.379 -0.0583 -0.0532  0.2585
  130OSM   H13A13866   2.951   5.921   4.293  0.8720  2.1322  1.1217
  130OSM   H13B13867   3.021   5.929   4.462  0.8470  0.9278 -0.7959
  130OSM   H13C13868   2.898   5.817   4.408 -1.5839 -0.6404 -4.5797
  130OSM    C1213869   3.213   5.827   4.289 -1.0200 -0.0682 -0.2404
  130OSM   H12A13870   3.251   5.910   4.348 -2.8391  1.2464 -0.8434
  130OSM   H12B13871   3.184   5.851   4.188 -1.8816  0.4254  0.1147
  130OSM    C1113872   3.341   5.737   4.272 -0.3312  0.2410 -0.2032
  130OSM   H11A13873   3.417   5.786   4.207 -0.6057 -1.1743 -1.6588
  130OSM   H11B13874   3.308   5.648   4.215 -0.8817  0.5289 -0.3522
  130OSM      P13875   3.503   5.804   4.458  0.2703  0.4701 -0.1561
  130OSM    O1313876   3.638   5.750   4.443  0.5937  0.1155 -0.1851
  130OSM    O1413877   3.463   5.938   4.415 -0.3655 -0.0949 -0.1399
  130OSM    O1113878   3.461   5.787   4.607  0.1106 -0.4002  0.5421
  130OSM    O1213879   3.401   5.701   4.397 -0.1360  0.2010 -0.4546
  130OSM    C1S13880   3.546   5.714   4.695 -0.1421 -0.2159 -0.4589
  130OSM    H1S13881   3.647   5.760   4.703 -0.3276 -0.0796  1.4723
  130OSM    H1T13882   3.564   5.609   4.663  0.1247 -1.0128  2.0679
  130OSM     NF13883   3.596   5.667   4.935  0.0240  0.2900  0.6888
  130OSM    HNF13884   3.590   5.570   4.957  1.5716  0.5532  2.5693
  130OSM    C2S13885   3.494   5.709   4.843  0.1717 -0.5875  0.1215
  130OSM    H2S13886   3.457   5.808   4.876  1.2236 -0.4038  0.7886
  130OSM    C3S13887   3.364   5.619   4.844 -0.3383  0.2038  0.9084
  130OSM    H3S13888   3.376   5.512   4.817  0.4252  0.2909  0.8736
  130OSM     O313889   3.270   5.675   4.761  0.2081 -0.2365 -0.0109
  130OSM    HO313890   3.323   5.737   4.711  0.7647  0.1082  0.9655
  130OSM    C4S13891   3.302   5.633   4.986  0.9017  1.1195  0.5827
  130OSM    H4S13892   3.261   5.733   5.004 -0.0049  0.4474  2.5961
  130OSM    C5S13893   3.316   5.550   5.091 -0.3670  0.1081  0.0851
  130OSM    H5S13894   3.387   5.467   5.075  0.8456  1.5340 -2.4796
  130OSM    C6S13895   3.279   5.583   5.233 -0.4174  0.2155  0.3842
  130OSM    H6S13896   3.365   5.607   5.300 -0.1413  0.2869  0.0083
  130OSM    H6T13897   3.237   5.496   5.288  2.1903 -0.4830  1.4419
  130OSM    C7S13898   3.170   5.687   5.226 -0.2039 -0.0779 -0.2003
  130OSM    H7S13899   3.093   5.674   5.147  0.6990  0.8142 -1.2577
  130OSM    H7T13900   3.214   5.788   5.219  2.2053 -1.0593 -0.1811
  130OSM    C8S13901   3.100   5.677   5.365 -0.3066 -0.3847  0.3951
  130OSM    H8S13902   3.040   5.584   5.376 -1.1237  0.0612 -0.2080
  130OSM    H8T13903   3.031   5.764   5.370 -0.9192 -0.6543 -2.1713
  130OSM    C9S13904   3.204   5.690   5.479  0.6544 -0.5539 -0.0827
  130OSM    H9S13905   3.271   5.775   5.456 -0.7554  0.5740 -0.1768
  130OSM    H9T13906   3.263   5.596   5.481  1.0592 -0.3111 -0.5635
  130OSM   C10S13907   3.149   5.693   5.622 -0.1418 -0.0927 -0.5846
  130OSM   H10S13908   3.072   5.612   5.625 -0.4926  0.2814  0.8751
  130OSM   H10T13909   3.100   5.789   5.646 -1.8218 -1.2384  0.8605
  130OSM   C11S13910   3.260   5.660   5.723 -0.3573  0.1042 -0.8850
  130OSM   H11S13911   3.348   5.726   5.707 -0.3837  1.7853  4.2154
  130OSM   H11T13912   3.275   5.550   5.722  0.6121  0.2089  0.2606
  130OSM   C12S13913   3.221   5.689   5.872 -0.0833  0.1589 -0.1587
  130OSM   H12S13914   3.135   5.624   5.899  0.2654 -1.0079 -1.6557
  130OSM   H12T13915   3.178   5.790   5.888 -0.4321 -0.0570  0.2722
  130OSM   C13S13916   3.336   5.678   5.983  0.0182  0.1236  0.4254
  130OSM   H13S13917   3.405   5.761   5.958  1.0867 -0.8377  0.0922
  130OSM   H13T13918   3.384   5.578   5.980 -0.7240 -0.2220 -1.0904
  130OSM   C14S13919   3.282   5.703   6.133 -0.3589 -0.3652  0.2346
  130OSM   H14S13920   3.206   5.623   6.145 -2.6735  1.6343 -0.3591
  130OSM   H14T13921   3.236   5.804   6.133 -0.8532 -0.5890  0.1982
  130OSM   C15S13922   3.396   5.684   6.236  0.2249 -0.0407 -0.5478
  130OSM   H15S13923   3.462   5.771   6.218 -1.4351  1.0813 -1.4651
  130OSM   H15T13924   3.443   5.589   6.205  1.8116  0.2340  0.8333
  130OSM   C16S13925   3.352   5.658   6.383 -0.0753  0.5409  1.0769
  130OSM   H16S13926   3.316   5.554   6.397  0.5675  0.3420  1.2699
  130OSM   H16T13927   3.279   5.740   6.403  0.7974  1.6495 -0.0752
  130OSM   C17S13928   3.467   5.685   6.475 -0.0923  0.3927 -0.0259
  130OSM   H17S13929   3.506   5.789   6.467 -1.3312  0.9400  0.7713
  130OSM   H17T13930   3.543   5.611   6.442 -1.8273 -1.3857 -0.2198
  130OSM   C18S13931   3.439   5.649   6.622  0.2090  0.3414  0.2679
  130OSM   H18S13932   3.511   5.686   6.698  1.9060  0.3125 -1.2620
  130OSM   H18T13933   3.418   5.540   6.634 -0.7150  0.4667 -0.1000
  130OSM   H18U13934   3.345   5.699   6.653  0.9168  1.0409  1.3624
  130OSM    C1F13935   3.691   5.751   4.976 -0.3205 -0.1119  0.2497
  130OSM     OF13936   3.691   5.869   4.938  0.0304  0.3524 -0.0362
  130OSM    C2F13937   3.794   5.693   5.065 -0.1578 -0.2328  0.2096
  130OSM    H2F13938   3.889   5.720   5.013 -0.6206 -0.1946 -0.6355
  130OSM    H2G13939   3.774   5.585   5.055 -0.8910  0.0868 -3.1062
  130OSM    C3F13940   3.801   5.754   5.207  0.1605  0.5838 -0.3141
  130OSM    H3F13941   3.780   5.863   5.204  1.4214  0.8636  0.4141
  130OSM    H3G13942   3.903   5.735   5.246 -0.0490  0.4849  0.2009
  130OSM    C4F13943   3.717   5.671   5.299  0.4317  0.6024  0.4153
  130OSM    H4F13944   3.763   5.571   5.288 -0.1927  0.5049 -1.9713
  130OSM    H4G13945   3.612   5.672   5.262  1.0205  1.1528 -1.3765
  130OSM    C5F13946   3.724   5.708   5.445  0.7827 -0.2461 -0.0708
  130OSM    H5F13947   3.670   5.803   5.469  1.7075 -0.0746  1.4423
  130OSM    H5G13948   3.831   5.715   5.472  0.9391 -3.3844  0.3998
  130OSM    C6F13949   3.664   5.602   5.547 -0.0444 -0.4786 -0.1125
  130OSM    H6F13950   3.706   5.500   5.548  0.3341 -0.3187  0.4564
  130OSM    H6G13951   3.558   5.587   5.518 -0.1100  1.6800 -1.2229
  130OSM    C7F13952   3.642   5.657   5.689 -0.2124 -0.2564  0.3085
  130OSM    H7F13953   3.598   5.579   5.755  1.2075 -0.0274  1.5837
  130OSM    H7G13954   3.564   5.736   5.675  0.8213  0.8272  0.5344
  130OSM    C8F13955   3.770   5.715   5.753  0.2727 -0.5685 -0.1573
  130OSM    H8F13956   3.732   5.775   5.839 -2.4397 -1.5436 -0.5884
  130OSM    H8G13957   3.822   5.790   5.691 -2.0962  2.4219  1.2053
  130OSM    C9F13958   3.859   5.602   5.799 -0.0993  0.5155 -0.0491
  130OSM    H9F13959   3.883   5.522   5.727 -0.4733 -0.9357  1.3906
  130OSM   C10F13960   3.908   5.576   5.923 -0.1407 -0.7340  0.2931
  130OSM   H10F13961   3.972   5.489   5.945 -0.6527 -1.6756 -1.6943
  130OSM   C11F13962   3.895   5.667   6.045 -0.4109  0.2308  0.3520
  130OSM   H11F13963   3.859   5.768   6.017  0.4097  0.8430  1.4044
  130OSM   H11G13964   3.987   5.673   6.108 -0.6702 -2.2513  1.0900
  130OSM   C12F13965   3.795   5.593   6.138  0.1650  0.2195 -1.1655
  130OSM   H12F13966   3.833   5.489   6.149  4.1429  1.5365 -0.8808
  130OSM   H12G13967   3.696   5.590   6.088 -0.3833 -0.1529 -0.0760
  130OSM   C13F13968   3.770   5.667   6.280  0.2416  0.2680  0.7671
  130OSM   H13F13969   3.681   5.608   6.312 -0.3125  1.5111  1.5885
  130OSM   H13G13970   3.750   5.775   6.263 -1.4671 -0.0041  0.8900
  130OSM   C14F13971   3.888   5.631   6.372  0.1284  0.8603 -0.5866
  130OSM   H14F13972   3.964   5.711   6.355  0.9600  0.5418  1.3777
  130OSM   H14G13973   3.918   5.526   6.355 -2.0783 -0.2825  1.9446
  130OSM   C15F13974   3.838   5.622   6.516 -0.0104 -0.4839  0.5378
  130OSM   H15F13975   3.770   5.535   6.526  0.4110 -0.8661  0.1379
  130OSM   H15G13976   3.773   5.703   6.556  1.2604  1.0115 -0.2959
  130OSM   C16F13977   3.960   5.602   6.606 -0.8926 -0.3328  1.1108
  130OSM   H16F13978   4.050   5.663   6.582 -0.4668 -1.5818 -0.6691
  130OSM   H16G13979   4.005   5.505   6.578 -0.6671  0.1394 -0.2195
  130OSM   C17F13980   3.946   5.628   6.750 -0.1219  0.2932 -0.7910
  130OSM   H17F13981   3.873   5.554   6.788  0.4906 -0.1506 -0.4559
  130OSM   H17G13982   3.902   5.729   6.761  0.2384  0.3342  0.4192
  130OSM   C18F13983   4.080   5.618   6.823 -0.3524  0.2196 -0.2072
  130OSM   H18F13984   4.149   5.689   6.774 -1.2651  2.0649  1.0570
  130OSM   H18G13985   4.119   5.514   6.819 -3.0080 -0.8257 -1.4419
  130OSM   H18H13986   4.051   5.646   6.927 -0.3442 -0.3886 -0.0369
  131OSM      N13987   6.726   1.165   4.635  0.1259  0.4698 -0.5282
  131OSM    C1513988   6.700   1.041   4.560 -0.7508  0.5759 -0.5913
  131OSM   H15A13989   6.597   1.007   4.569 -1.0966  1.8390  0.5225
  131OSM   H15B13990   6.761   0.967   4.610  0.5708  2.1977  0.2999
  131OSM   H15C13991   6.732   1.036   4.457 -0.9746 -0.8852 -0.6182
  131OSM    C1413992   6.654   1.154   4.772  0.6250 -0.6789  0.4888
  131OSM   H14A13993   6.692   1.233   4.836  1.4786  0.0223 -0.8328
  131OSM   H14B13994   6.671   1.061   4.824  0.6522  0.0595  1.8410
  131OSM   H14C13995   6.546   1.159   4.763  0.2618 -2.9713  2.5229
  131OSM    C1313996   6.872   1.186   4.643 -0.4381 -0.4493 -0.2713
  131OSM   H13A13997   6.920   1.112   4.706  0.2013 -0.3930 -0.6853
  131OSM   H13B13998   6.894   1.280   4.690 -0.6333 -0.1336 -0.8083
  131OSM   H13C13999   6.909   1.179   4.542  1.3324 -0.2101  0.3194
  131OSM    C1214000   6.670   1.289   4.558  0.1321  0.6288 -0.1275
  131OSM   H12A14001   6.670   1.372   4.627  1.1100  0.6082 -0.0885
  131OSM   H12B14002   6.567   1.270   4.531  0.0567 -1.9516  1.6241
  131OSM    C1114003   6.733   1.332   4.424  0.4801  0.3686 -0.2663
  131OSM   H11A14004   6.747   1.237   4.367  2.5946 -0.2779  1.1877
  131OSM   H11B14005   6.833   1.380   4.425  0.8972 -0.2539 -2.9393
  131OSM      P14006   6.612   1.558   4.420 -0.0509  0.1529 -0.1781
  131OSM    O1314007   6.642   1.663   4.324  0.1753 -0.1829  0.1384
  131OSM    O1414008   6.475   1.547   4.485  0.0272 -0.1868 -0.7850
  131OSM    O1114009   6.712   1.574   4.545 -0.2340 -0.1310  0.2065
  131OSM    O1214010   6.644   1.417   4.352 -0.4416 -0.5562 -0.2571
  131OSM    C1S14011   6.723   1.692   4.621  0.3810 -0.1607  0.1186
  131OSM    H1S14012   6.624   1.742   4.628  0.6842  0.5225 -0.3668
  131OSM    H1T14013   6.785   1.769   4.572  0.6750 -0.9526 -0.7875
  131OSM     NF14014   6.768   1.790   4.838  0.0373  0.0003 -0.2220
  131OSM    HNF14015   6.846   1.850   4.851 -1.2893  2.0448 -1.2270
  131OSM    C2S14016   6.783   1.663   4.760  0.3440  0.5069 -0.5461
  131OSM    H2S14017   6.725   1.585   4.812  1.2336 -1.6570 -2.6084
  131OSM    C3S14018   6.931   1.611   4.756  0.2696  1.2291  0.3090
  131OSM    H3S14019   6.985   1.685   4.692  0.7709 -0.9087 -1.8584
  131OSM     O314020   6.936   1.493   4.675 -0.1753  0.0136  0.2389
  131OSM    HO314021   6.851   1.490   4.630 -1.0461  2.3188  1.5403
  131OSM    C4S14022   6.999   1.597   4.894 -0.5530  0.2316  0.3697
  131OSM    H4S14023   6.991   1.499   4.942 -0.2168 -0.7438 -1.4870
  131OSM    C5S14024   7.091   1.678   4.940 -0.0521 -0.0234  0.2567
  131OSM    H5S14025   7.101   1.771   4.883 -0.0526 -1.3810 -2.1260
  131OSM    C6S14026   7.171   1.657   5.069  0.2350  0.1165  0.0773
  131OSM    H6S14027   7.200   1.759   5.102  1.7643  0.5946 -2.5261
  131OSM    H6T14028   7.269   1.609   5.051  1.4957  2.6778 -0.2408
  131OSM    C7S14029   7.085   1.600   5.180 -0.4847  0.6689  0.3203
  131OSM    H7S14030   7.054   1.495   5.163  2.2214 -0.2485  0.5840
  131OSM    H7T14031   6.990   1.654   5.199 -1.1082 -1.0513  2.5651
  131OSM    C8S14032   7.167   1.597   5.313 -0.3525 -0.8142 -0.6596
  131OSM    H8S14033   7.189   1.703   5.337 -0.4573 -0.8460 -0.4240
  131OSM    H8T14034   7.264   1.545   5.297 -0.2404 -0.3013 -1.7598
  131OSM    C9S14035   7.093   1.539   5.436  0.3345 -0.0595  0.2386
  131OSM    H9S14036   7.058   1.437   5.409  0.0550 -0.2025  1.1223
  131OSM    H9T14037   7.003   1.603   5.451  2.9589  4.1789 -0.3651
  131OSM   C10S14038   7.170   1.552   5.562  0.5393 -0.5174 -0.9930
  131OSM   H10S14039   7.197   1.659   5.577  0.5380 -0.7769  1.2146
  131OSM   H10T14040   7.269   1.502   5.557  2.1172  2.2404  0.0860
  131OSM   C11S14041   7.095   1.506   5.689 -0.2699  0.4282  0.6700
  131OSM   H11S14042   7.043   1.415   5.654  1.5036 -0.1368 -0.6313
  131OSM   H11T14043   7.010   1.577   5.698 -2.0460 -1.5526  0.0725
  131OSM   C12S14044   7.172   1.489   5.821 -0.0105  0.3105  0.0772
  131OSM   H12S14045   7.230   1.578   5.852 -1.0630  0.4344  1.7908
  131OSM   H12T14046   7.251   1.414   5.797 -0.4942  0.1492 -1.1132
  131OSM   C13S14047   7.090   1.452   5.941  0.1873  0.2239 -0.3828
  131OSM   H13S14048   7.017   1.373   5.912  0.6020 -0.8099  1.2921
  131OSM   H13T14049   7.035   1.542   5.975  0.1123  0.0749 -0.1130
  131OSM   C14S14050   7.189   1.407   6.054 -0.1753  0.2610  0.2563
  131OSM   H14S14051   7.245   1.500   6.075 -2.2837  1.4357  0.9560
  131OSM   H14T14052   7.246   1.321   6.013  1.1098  2.1327 -2.1707
  131OSM   C15S14053   7.109   1.367   6.177 -0.2163 -0.2457  0.2105
  131OSM   H15S14054   7.016   1.320   6.140 -1.6760  0.9556  2.1360
  131OSM   H15T14055   7.075   1.456   6.233  0.4109 -1.6525  3.0626
  131OSM   C16S14056   7.159   1.264   6.281  0.3884 -0.1798  0.4314
  131OSM   H16S14057   7.179   1.164   6.237  1.4443 -0.2827  1.0830
  131OSM   H16T14058   7.083   1.242   6.359 -0.3631 -0.0308 -0.2544
  131OSM   C17S14059   7.290   1.305   6.356  0.5872 -0.7311  0.0489
  131OSM   H17S14060   7.263   1.390   6.422  1.4088  2.6170 -3.5644
  131OSM   H17T14061   7.357   1.344   6.276 -2.4588  1.1802 -1.7475
  131OSM   C18S14062   7.366   1.191   6.414 -0.5822 -0.7499 -0.6688
  131OSM   H18S14063   7.465   1.218   6.457 -1.4985 -1.5356  2.1763
  131OSM   H18T14064   7.389   1.111   6.341 -0.4008 -2.2764  0.9892
  131OSM   H18U14065   7.304   1.154   6.499  0.1210  0.6822  0.5180
  131OSM    C1F14066   6.649   1.838   4.881 -0.4917  0.0055 -0.6163
  131OSM     OF14067   6.546   1.774   4.861  0.1352  0.3771  0.2941
  131OSM    C2F14068   6.644   1.960   4.967  0.7202 -0.0081 -0.0424
  131OSM    H2F14069   6.562   2.030   4.938  0.8506  1.8178  3.4282
  131OSM    H2G14070   6.734   2.024   4.961  0.6143  0.2661  0.9961
  131OSM    C3F14071   6.607   1.912   5.110 -0.6739 -0.4749  0.0998
  131OSM    H3F14072   6.685   1.839   5.141  1.9369  1.5163 -1.2409
  131OSM    H3G14073   6.510   1.860   5.115 -0.3034 -1.2706 -0.6572
  131OSM    C4F14074   6.588   2.033   5.201 -0.0336  0.0535 -0.2691
  131OSM    H4F14075   6.501   2.095   5.172 -1.2367  0.5191  3.7304
  131OSM    H4G14076   6.676   2.100   5.191  0.2829 -0.3635 -0.3280
  131OSM    C5F14077   6.555   1.991   5.346 -0.6611  0.6067  0.5787
  131OSM    H5F14078   6.638   1.923   5.376  0.6009  1.6707 -0.3914
  131OSM    H5G14079   6.455   1.942   5.350 -1.0359  1.2431 -0.6273
  131OSM    C6F14080   6.548   2.093   5.457 -0.2833 -0.6658  0.0370
  131OSM    H6F14081   6.504   2.043   5.545 -1.8175  0.6266  0.0485
  131OSM    H6G14082   6.482   2.175   5.421  2.5775  2.6872  1.7672
  131OSM    C7F14083   6.673   2.167   5.489  0.3456  0.1103 -0.3112
  131OSM    H7F14084   6.729   2.200   5.399 -0.4842  0.2851 -0.7740
  131OSM    H7G14085   6.741   2.098   5.544 -0.4915 -0.5911 -0.1246
  131OSM    C8F14086   6.657   2.294   5.573 -0.6272 -0.5185  0.0032
  131OSM    H8F14087   6.610   2.266   5.670 -1.3294  2.6268  0.6789
  131OSM    H8G14088   6.594   2.364   5.514  0.5514 -1.2500 -2.2584
  131OSM    C9F14089   6.790   2.362   5.595  0.4577  1.5899 -0.0762
  131OSM    H9F14090   6.849   2.355   5.503 -0.8585 -2.6722 -0.7935
  131OSM   C10F14091   6.849   2.399   5.716 -0.9446  0.1098 -0.1466
  131OSM   H10F14092   6.953   2.434   5.711 -1.0213  0.4711  0.6420
  131OSM   C11F14093   6.792   2.415   5.860  0.3490 -0.1750 -0.8923
  131OSM   H11F14094   6.835   2.334   5.921  0.8763  1.1578  0.5810
  131OSM   H11G14095   6.684   2.399   5.843  0.8849 -3.9063 -1.5998
  131OSM   C12F14096   6.826   2.548   5.938  0.4095 -0.1441  0.2674
  131OSM   H12F14097   6.832   2.635   5.869 -0.4402  1.3564  1.9803
  131OSM   H12G14098   6.922   2.543   5.993 -0.0556  0.9854  1.2223
  131OSM   C13F14099   6.730   2.568   6.056  0.3293  0.1762  0.4288
  131OSM   H13F14100   6.633   2.576   6.001 -0.8289 -3.4882  1.6746
  131OSM   H13G14101   6.753   2.669   6.098  0.2405  0.1994  0.4222
  131OSM   C14F14102   6.724   2.459   6.161  0.5240  0.4132  0.0687
  131OSM   H14F14103   6.693   2.358   6.126  1.6033  0.0802  0.0497
  131OSM   H14G14104   6.647   2.497   6.233 -0.7696  1.3516 -1.7393
  131OSM   C15F14105   6.854   2.440   6.241  0.4451 -0.1360 -0.9004
  131OSM   H15F14106   6.911   2.535   6.246 -2.1394  1.5093 -0.7875
  131OSM   H15G14107   6.908   2.366   6.177 -0.8819  0.9051 -3.3607
  131OSM   C16F14108   6.847   2.378   6.380  0.0042  0.3467 -0.6696
  131OSM   H16F14109   6.774   2.295   6.386 -0.2430  0.6656  1.7597
  131OSM   H16G14110   6.816   2.456   6.453  0.1953 -0.3228  0.1437
  131OSM   C17F14111   6.981   2.311   6.408  0.2441  0.5438  0.2292
  131OSM   H17F14112   7.062   2.388   6.401  0.0353  0.7663  0.2290
  131OSM   H17G14113   7.005   2.232   6.334  1.1398  1.4334 -0.4747
  131OSM   C18F14114   6.995   2.255   6.548 -0.2483  0.6238 -0.6282
  131OSM   H18F14115   7.085   2.191   6.557 -1.0405 -0.3948  0.3739
  131OSM   H18G14116   6.904   2.199   6.578  1.0140 -0.0378  2.2693
  131OSM   H18H14117   6.999   2.339   6.622  1.0781 -0.5235  0.6589
  132OSM      N14118   5.315   2.227   4.004 -0.4251 -0.1438  0.1866
  132OSM    C1514119   5.301   2.222   3.852  0.1199  0.2129  0.4224
  132OSM   H15A14120   5.309   2.322   3.812  0.5155 -0.4782 -1.2955
  132OSM   H15B14121   5.203   2.188   3.821  0.0009 -0.6764  1.6727
  132OSM   H15C14122   5.370   2.157   3.801  0.8290  1.2312  0.0680
  132OSM    C1414123   5.322   2.094   4.050  0.3066 -0.3056  0.4138
  132OSM   H14A14124   5.402   2.031   4.015 -1.1286 -1.7301 -0.4229
  132OSM   H14B14125   5.237   2.032   4.026 -0.7107  0.3118  2.2365
  132OSM   H14C14126   5.328   2.103   4.157  1.3174  3.5603  0.2197
  132OSM    C1314127   5.456   2.279   4.015  0.0197 -0.2698 -0.2385
  132OSM   H13A14128   5.525   2.206   3.976 -0.1112 -0.2834 -0.4435
  132OSM   H13B14129   5.480   2.311   4.116  0.2792  0.0467 -0.3984
  132OSM   H13C14130   5.473   2.359   3.944  1.3933 -1.2515 -1.0516
  132OSM    C1214131   5.200   2.310   4.054  0.1952 -0.1467 -0.1586
  132OSM   H12A14132   5.105   2.264   4.030 -1.3715  1.6287  2.1712
  132OSM   H12B14133   5.204   2.409   4.011 -0.2989 -0.8663 -1.9714
  132OSM    C1114134   5.196   2.328   4.210  1.2065  0.3527  0.1745
  132OSM   H11A14135   5.188   2.225   4.253  2.7065 -0.2796 -0.9908
  132OSM   H11B14136   5.102   2.377   4.242  1.3035  1.8874 -1.7263
  132OSM      P14137   5.325   2.547   4.273 -0.2253  0.0619  0.0553
  132OSM    O1314138   5.455   2.575   4.332 -0.0804 -0.0755  0.0520
  132OSM    O1414139   5.289   2.610   4.146 -0.6663 -0.2471  0.2261
  132OSM    O1114140   5.213   2.575   4.381  0.1912 -0.5041  0.5614
  132OSM    O1214141   5.315   2.392   4.259 -0.1433  0.9395 -0.1901
  132OSM    C1S14142   5.216   2.520   4.507 -0.2326  0.2795 -0.3620
  132OSM    H1S14143   5.296   2.571   4.564 -0.1929 -0.8521  0.6386
  132OSM    H1T14144   5.250   2.414   4.506  0.5851  0.5309 -1.7785
  132OSM     NF14145   5.082   2.507   4.734  0.2191  0.3757  0.1197
  132OSM    HNF14146   5.030   2.425   4.756  0.3903 -0.3356 -1.8844
  132OSM    C2S14147   5.079   2.548   4.590  0.4136 -0.0298 -0.0135
  132OSM    H2S14148   5.072   2.658   4.590  0.6663 -0.0091 -0.8054
  132OSM    C3S14149   4.956   2.486   4.514 -0.3593 -0.4697  0.0405
  132OSM    H3S14150   4.967   2.377   4.496  0.1014 -0.4958  0.4407
  132OSM     O314151   4.955   2.533   4.373 -0.1829 -0.1744  0.2060
  132OSM    HO314152   5.045   2.566   4.367 -0.2167  0.0096  0.6420
  132OSM    C4S14153   4.825   2.500   4.590 -0.8224  0.9671 -0.0586
  132OSM    H4S14154   4.797   2.414   4.651  1.7776  0.0566 -0.0074
  132OSM    C5S14155   4.746   2.609   4.576 -0.4190 -1.0973 -0.0570
  132OSM    H5S14156   4.775   2.693   4.512 -0.0447  0.2520  1.7928
  132OSM    C6S14157   4.615   2.639   4.647  0.5411 -0.2157 -0.0161
  132OSM    H6S14158   4.530   2.583   4.602 -0.5355 -0.3958  2.1202
  132OSM    H6T14159   4.588   2.745   4.627 -0.5437 -1.0797 -3.9885
  132OSM    C7S14160   4.625   2.617   4.796  0.4015  0.1202  0.0470
  132OSM    H7S14161   4.622   2.506   4.805 -1.0077  0.0523 -0.9583
  132OSM    H7T14162   4.525   2.651   4.832 -0.2292 -0.7557 -0.8169
  132OSM    C8S14163   4.738   2.687   4.875  0.6351  0.5421  0.2448
  132OSM    H8S14164   4.725   2.795   4.850  0.9419  0.2746 -1.1688
  132OSM    H8T14165   4.840   2.666   4.838 -0.0513  1.1732 -2.2118
  132OSM    C9S14166   4.730   2.665   5.028 -0.0617 -0.5962  0.0060
  132OSM    H9S14167   4.636   2.719   5.051  0.2692 -1.2037  3.2891
  132OSM    H9T14168   4.814   2.723   5.071 -0.2904  0.4965 -0.9673
  132OSM   C10S14169   4.729   2.523   5.069 -0.4029  0.2165  0.3709
  132OSM   H10S14170   4.816   2.460   5.041  0.6938  0.9280  1.9827
  132OSM   H10T14171   4.641   2.476   5.020  0.7764 -0.6271 -1.0204
  132OSM   C11S14172   4.712   2.493   5.219 -0.1927  0.3308  0.5481
  132OSM   H11S14173   4.690   2.386   5.237 -1.0065  0.4395  0.2254
  132OSM   H11T14174   4.623   2.550   5.255  0.6144  1.0614  1.4347
  132OSM   C12S14175   4.840   2.524   5.292 -0.2418  0.8272 -0.1274
  132OSM   H12S14176   4.844   2.634   5.309  0.1168  0.9042 -0.6803
  132OSM   H12T14177   4.926   2.500   5.225 -0.0979  0.1798  0.2876
  132OSM   C13S14178   4.858   2.458   5.428  0.0072  0.3469 -0.2693
  132OSM   H13S14179   4.756   2.451   5.470  0.3099 -1.6677  0.2463
  132OSM   H13T14180   4.938   2.508   5.487  1.4679 -1.5491 -0.5311
  132OSM   C14S14181   4.913   2.314   5.410 -0.2557  0.4468 -0.3061
  132OSM   H14S14182   5.015   2.319   5.365  1.0873 -4.1250  1.5815
  132OSM   H14T14183   4.850   2.269   5.331 -2.0356  0.8893  0.8029
  132OSM   C15S14184   4.921   2.234   5.542  0.5875  0.2806  0.1222
  132OSM   H15S14185   4.937   2.127   5.517  0.3525 -0.1611  1.7146
  132OSM   H15T14186   4.823   2.228   5.593 -0.2335 -1.2070 -1.5560
  132OSM   C16S14187   5.022   2.290   5.646 -0.2957  0.2587 -0.3659
  132OSM   H16S14188   4.985   2.380   5.700 -3.3086 -1.0352 -0.0795
  132OSM   H16T14189   5.119   2.320   5.601 -0.2675 -0.0235 -0.4979
  132OSM   C17S14190   5.062   2.178   5.751  0.3516 -0.0362 -0.0291
  132OSM   H17S14191   5.146   2.218   5.813 -1.6028  1.3503  1.9074
  132OSM   H17T14192   5.097   2.085   5.702 -0.1171 -1.0216  1.4248
  132OSM   C18S14193   4.957   2.133   5.852 -0.2543  0.5061  0.4321
  132OSM   H18S14194   4.923   2.216   5.918 -3.6561  0.0798 -0.5774
  132OSM   H18T14195   5.004   2.050   5.909 -0.5302 -0.1078 -0.2207
  132OSM   H18U14196   4.863   2.084   5.818  0.1303  0.3879 -0.4874
  132OSM    C1F14197   5.162   2.562   4.822 -0.0855 -0.2520 -0.7400
  132OSM     OF14198   5.229   2.662   4.802  0.7291 -0.0089  0.3386
  132OSM    C2F14199   5.170   2.497   4.950 -0.9262  0.0609  0.0928
  132OSM    H2F14200   5.224   2.402   4.929 -0.2923 -0.1158  2.2851
  132OSM    H2G14201   5.068   2.477   4.988 -1.2991 -1.5830 -1.6234
  132OSM    C3F14202   5.261   2.564   5.052 -0.1286 -0.2477 -0.4852
  132OSM    H3F14203   5.248   2.674   5.051 -1.3454 -0.3652  0.8142
  132OSM    H3G14204   5.362   2.547   5.007 -0.4625 -1.9219 -0.6747
  132OSM    C4F14205   5.238   2.499   5.186 -0.0120 -0.8159 -0.2941
  132OSM    H4F14206   5.237   2.388   5.182  1.5442 -0.9338  1.2158
  132OSM    H4G14207   5.139   2.540   5.214  0.6712  0.1923  0.7383
  132OSM    C5F14208   5.336   2.545   5.293 -0.2812 -0.0011  0.4297
  132OSM    H5F14209   5.331   2.656   5.293  2.6752  0.2499 -1.3863
  132OSM    H5G14210   5.444   2.524   5.278 -0.1375  0.1468  1.2204
  132OSM    C6F14211   5.299   2.492   5.440  0.0433  0.0996 -0.0822
  132OSM    H6F14212   5.315   2.383   5.451 -0.1533  0.1384  0.6232
  132OSM    H6G14213   5.193   2.514   5.467  0.2229  0.3042  0.4727
  132OSM    C7F14214   5.393   2.552   5.540 -0.3991  0.2205  0.0179
  132OSM    H7F14215   5.390   2.663   5.529  0.5267  0.2553  0.0224
  132OSM    H7G14216   5.497   2.524   5.513  0.0634  1.8982 -0.0482
  132OSM    C8F14217   5.390   2.513   5.691 -0.8338  0.7888 -0.4710
  132OSM    H8F14218   5.299   2.552   5.741 -0.2734  0.3370  0.9632
  132OSM    H8G14219   5.482   2.560   5.733  1.4805 -1.9495 -2.1262
  132OSM    C9F14220   5.391   2.370   5.727  0.1493 -0.3461  0.6357
  132OSM    H9F14221   5.314   2.314   5.671  1.8573  0.7946 -3.2071
  132OSM   C10F14222   5.469   2.313   5.817  0.3536  0.0302  0.7370
  132OSM   H10F14223   5.442   2.208   5.839 -1.5992 -0.0775 -1.8121
  132OSM   C11F14224   5.585   2.375   5.889  0.0143  0.1142 -0.1618
  132OSM   H11F14225   5.639   2.440   5.816  1.4604 -2.3995 -1.4702
  132OSM   H11G14226   5.658   2.298   5.920 -0.0650 -0.6460 -1.7294
  132OSM   C12F14227   5.533   2.459   6.007 -0.6095 -0.8706 -0.5700
  132OSM   H12F14228   5.470   2.547   5.982  0.7852  0.3182 -0.0450
  132OSM   H12G14229   5.632   2.494   6.044 -0.5212 -0.1781 -1.4314
  132OSM   C13F14230   5.439   2.386   6.110 -0.1335  0.5732 -0.5051
  132OSM   H13F14231   5.485   2.288   6.135 -1.6545  0.4367  2.1266
  132OSM   H13G14232   5.339   2.368   6.065 -1.4453  0.6153  2.1951
  132OSM   C14F14233   5.418   2.475   6.233  0.6124  0.3140  0.5325
  132OSM   H14F14234   5.335   2.431   6.292  0.8332  0.6730  1.1212
  132OSM   H14G14235   5.387   2.580   6.212  0.1525 -0.0298 -0.6100
  132OSM   C15F14236   5.550   2.490   6.318  0.3372 -0.0572  0.3571
  132OSM   H15F14237   5.616   2.554   6.256  0.3429 -0.8836 -0.5133
  132OSM   H15G14238   5.596   2.390   6.332 -0.2806 -0.5311 -0.8438
  132OSM   C16F14239   5.530   2.544   6.461 -0.6161 -0.5608  0.5483
  132OSM   H16F14240   5.489   2.646   6.453 -0.3777 -0.4565  0.6454
  132OSM   H16G14241   5.629   2.550   6.511 -0.5169 -0.4961  0.3449
  132OSM   C17F14242   5.445   2.448   6.546 -0.2469  0.3110  0.5477
  132OSM   H17F14243   5.497   2.350   6.560 -0.5502 -0.0192 -0.5268
  132OSM   H17G14244   5.348   2.438   6.494 -0.3690  3.2778  0.0682
  132OSM   C18F14245   5.428   2.513   6.683 -0.2965 -0.1723 -0.5824
  132OSM   H18F14246   5.530   2.506   6.726 -1.4892 -0.5369  2.4355
  132OSM   H18G14247   5.355   2.455   6.744  1.4702 -2.0112 -0.0888
  132OSM   H18H14248   5.397   2.619   6.686 -0.9232 -0.3649  0.9818
  133OSM      N14249   3.485   2.531   4.033 -0.0140  0.0589  0.0926
  133OSM    C1514250   3.348   2.586   4.002 -0.6571 -0.3362 -0.1578
  133OSM   H15A14251   3.278   2.521   4.051  2.2596 -2.2710  1.7628
  133OSM   H15B14252   3.332   2.583   3.895  2.0891  0.1835 -0.6585
  133OSM   H15C14253   3.344   2.690   4.033  2.3553 -0.1614 -0.0606
  133OSM    C1414254   3.465   2.391   3.990  0.2728  0.4839  0.3089
  133OSM   H14A14255   3.404   2.371   3.903 -1.2149  3.5443  0.5206
  133OSM   H14B14256   3.402   2.344   4.063 -1.6690  0.8706 -1.0502
  133OSM   H14C14257   3.561   2.343   3.976 -0.3361  0.0314 -3.6417
  133OSM    C1314258   3.587   2.595   3.947  0.4764 -0.3537  0.3249
  133OSM   H13A14259   3.595   2.702   3.963 -0.5341  0.0061 -1.2528
  133OSM   H13B14260   3.560   2.575   3.844 -1.1865  0.0868  0.6513
  133OSM   H13C14261   3.684   2.547   3.949  1.5798  1.6878 -0.1163
  133OSM    C1214262   3.518   2.541   4.176  0.0065 -0.2168  0.1536
  133OSM   H12A14263   3.615   2.498   4.194 -0.5048 -1.4178  0.1761
  133OSM   H12B14264   3.445   2.483   4.230 -1.4041  1.4380  0.1152
  133OSM    C1114265   3.522   2.688   4.242 -0.1835  0.0561  0.4231
  133OSM   H11A14266   3.593   2.742   4.177  1.6242 -1.2589  1.2065
  133OSM   H11B14267   3.565   2.689   4.345 -0.6662 -4.1445  0.8348
  133OSM      P14268   3.294   2.704   4.356  0.3168 -0.0044 -0.4520
  133OSM    O1314269   3.169   2.772   4.329 -0.0138 -0.3330 -0.0429
  133OSM    O1414270   3.288   2.557   4.362  0.0988  0.2905  0.1190
  133OSM    O1114271   3.355   2.755   4.499  0.1147  0.7872  0.1402
  133OSM    O1214272   3.401   2.765   4.254  1.1768 -0.3513  0.0058
  133OSM    C1S14273   3.295   2.730   4.622  0.5574 -0.7975  0.1842
  133OSM    H1S14274   3.240   2.634   4.611  0.8308 -0.8230 -1.0596
  133OSM    H1T14275   3.218   2.808   4.640 -1.4058 -2.3759 -0.9264
  133OSM     NF14276   3.334   2.665   4.862 -0.8043  0.5389 -0.1576
  133OSM    HNF14277   3.274   2.731   4.906  0.6568  1.3575  0.6967
  133OSM    C2S14278   3.402   2.722   4.743  0.5106 -0.2623  0.5309
  133OSM    H2S14279   3.479   2.654   4.698  1.1484  0.9504 -0.2619
  133OSM    C3S14280   3.479   2.858   4.756  0.3629  0.3773  0.1776
  133OSM    H3S14281   3.405   2.939   4.775 -0.0457 -0.2495  1.3829
  133OSM     O314282   3.533   2.907   4.631  0.0938  1.1234  0.0568
  133OSM    HO314283   3.481   2.859   4.567 -0.5889 -0.4736  1.6980
  133OSM    C4S14284   3.568   2.860   4.880  0.1306 -0.2570  0.2866
  133OSM    H4S14285   3.524   2.895   4.975 -0.0539  0.9582 -0.2155
  133OSM    C5S14286   3.701   2.831   4.884 -0.1092 -0.2286  0.5316
  133OSM    H5S14287   3.746   2.795   4.790 -0.8196 -1.0743  0.5062
  133OSM    C6S14288   3.792   2.855   5.001 -0.0860  0.0250 -0.1354
  133OSM    H6S14289   3.884   2.905   4.962 -0.0592 -1.4502 -2.0793
  133OSM    H6T14290   3.807   2.755   5.047 -1.7107  0.9440  2.7201
  133OSM    C7S14291   3.732   2.942   5.113  0.7171  0.0629 -0.3626
  133OSM    H7S14292   3.636   2.895   5.145  0.5111 -0.2665 -1.4050
  133OSM    H7T14293   3.715   3.040   5.062  0.6487  0.4312  0.3502
  133OSM    C8S14294   3.830   2.962   5.232 -0.7350 -0.0442 -0.3858
  133OSM    H8S14295   3.803   3.052   5.291  1.5542  1.9225 -2.1316
  133OSM    H8T14296   3.938   2.975   5.209 -0.1161  0.6133  2.4150
  133OSM    C9S14297   3.827   2.836   5.325  0.4009 -0.1536  0.1500
  133OSM    H9S14298   3.858   2.749   5.264  2.6022  1.2140 -0.8082
  133OSM    H9T14299   3.720   2.821   5.354  0.0233  2.1355  0.1465
  133OSM   C10S14300   3.912   2.860   5.449 -0.0604 -0.8047 -0.1441
  133OSM   H10S14301   3.863   2.934   5.516  3.7956 -0.0191  2.0684
  133OSM   H10T14302   4.015   2.890   5.422 -0.2222  1.9431  1.9234
  133OSM   C11S14303   3.919   2.736   5.540 -0.4012 -0.0933  0.3002
  133OSM   H11S14304   4.015   2.682   5.523 -0.2332  0.2880  0.0050
  133OSM   H11T14305   3.831   2.668   5.538 -1.2684  1.0028  0.6208
  133OSM   C12S14306   3.923   2.776   5.686  0.0302  0.5149 -0.5336
  133OSM   H12S14307   3.826   2.821   5.715 -1.7310 -3.0807 -0.3185
  133OSM   H12T14308   4.006   2.849   5.704  1.5618 -0.7680 -1.9960
  133OSM   C13S14309   3.954   2.669   5.784  0.2541  0.2727 -0.0804
  133OSM   H13S14310   4.048   2.614   5.763 -0.3214  0.4092 -3.5620
  133OSM   H13T14311   3.877   2.590   5.779  1.8699 -1.2931 -1.8373
  133OSM   C14S14312   3.949   2.719   5.933 -0.3755  0.0392  0.3497
  133OSM   H14S14313   3.849   2.701   5.977 -0.2272  1.4339  1.3153
  133OSM   H14T14314   3.959   2.829   5.927  3.0096 -0.1631 -0.1432
  133OSM   C15S14315   4.062   2.657   6.017 -0.0927 -0.9428  0.8711
  133OSM   H15S14316   4.153   2.681   5.959 -0.8266  0.0961  0.1167
  133OSM   H15T14317   4.048   2.548   6.034 -0.2314 -0.7812  1.8962
  133OSM   C16S14318   4.064   2.723   6.159 -0.1415 -0.3492  0.1690
  133OSM   H16S14319   3.968   2.686   6.202  0.1491 -0.2979  0.8719
  133OSM   H16T14320   4.073   2.834   6.157 -4.3363  0.1567 -0.6429
  133OSM   C17S14321   4.176   2.671   6.243 -0.2767  0.6369 -0.2479
  133OSM   H17S14322   4.267   2.692   6.183 -0.9068 -1.3729 -2.0212
  133OSM   H17T14323   4.175   2.561   6.258  1.4029  0.8147  1.6937
  133OSM   C18S14324   4.189   2.732   6.387  0.0639 -0.2798 -0.1424
  133OSM   H18S14325   4.184   2.841   6.369 -1.6236 -0.2947  0.0387
  133OSM   H18T14326   4.273   2.691   6.447  0.0458  0.8378  0.6682
  133OSM   H18U14327   4.092   2.708   6.435 -1.2679  2.5190 -1.2179
  133OSM    C1F14328   3.311   2.533   4.860  0.0893  0.2609  0.6930
  133OSM     OF14329   3.355   2.464   4.776  0.5930  0.9306  0.2540
  133OSM    C2F14330   3.233   2.472   4.970  0.7690  0.3213  0.3215
  133OSM    H2F14331   3.285   2.380   5.006 -2.3338 -2.1806 -1.0712
  133OSM    H2G14332   3.141   2.435   4.920  0.0066  1.7798  0.6019
  133OSM    C3F14333   3.206   2.566   5.089  0.4309 -0.0641  0.7021
  133OSM    H3F14334   3.139   2.518   5.164  0.4178  2.1422  2.2052
  133OSM    H3G14335   3.155   2.655   5.045 -0.4959 -1.0921 -0.3560
  133OSM    C4F14336   3.330   2.617   5.171  0.2473 -0.0474 -0.0232
  133OSM    H4F14337   3.293   2.694   5.242  0.2236 -1.4461  1.5167
  133OSM    H4G14338   3.410   2.661   5.107  2.5644 -1.5756  1.6747
  133OSM    C5F14339   3.397   2.508   5.256  0.0639  0.4665 -0.2943
  133OSM    H5F14340   3.414   2.417   5.194  0.3383  0.8175 -0.7431
  133OSM    H5G14341   3.325   2.469   5.332 -0.3975  0.7239 -0.5972
  133OSM    C6F14342   3.528   2.552   5.334 -0.1522 -0.3098 -0.3945
  133OSM    H6F14343   3.587   2.602   5.254 -2.6364  0.7533 -1.6898
  133OSM    H6G14344   3.584   2.467   5.377  0.2004  0.3333  0.4228
  133OSM    C7F14345   3.508   2.657   5.448  0.0072 -0.0496  0.6451
  133OSM    H7F14346   3.471   2.751   5.403  0.0631 -1.0498 -1.6510
  133OSM    H7G14347   3.614   2.677   5.476  0.3538 -0.0754 -0.5667
  133OSM    C8F14348   3.426   2.611   5.566 -0.4262 -0.4116  0.3459
  133OSM    H8F14349   3.367   2.520   5.541 -2.7458  0.8028  1.1344
  133OSM    H8G14350   3.351   2.690   5.589 -0.0189  0.4139 -1.0365
  133OSM    C9F14351   3.514   2.585   5.686 -0.0859  0.5840  0.2241
  133OSM    H9F14352   3.602   2.522   5.665 -0.2212  1.0294 -1.8130
  133OSM   C10F14353   3.490   2.617   5.818 -0.0020 -0.0541  0.3131
  133OSM   H10F14354   3.562   2.588   5.895  0.5235 -0.7735 -0.4318
  133OSM   C11F14355   3.379   2.707   5.869  0.5369 -0.3441  0.0990
  133OSM   H11F14356   3.346   2.770   5.784  1.3740 -1.8878 -1.4294
  133OSM   H11G14357   3.430   2.784   5.932  0.7441  0.2065 -0.7216
  133OSM   C12F14358   3.262   2.632   5.922  0.4316  0.0887  0.0418
  133OSM   H12F14359   3.262   2.593   6.026 -2.2695 -1.3701 -0.4122
  133OSM   H12G14360   3.243   2.540   5.862  1.6938 -1.5270  1.9503
  133OSM   C13F14361   3.130   2.719   5.917  0.2724 -0.0776 -0.3230
  133OSM   H13F14362   3.121   2.768   5.818  1.8345  2.6478  0.7622
  133OSM   H13G14363   3.142   2.806   5.984 -2.0679 -0.3695  0.6064
  133OSM   C14F14364   3.004   2.638   5.947  0.2613 -0.8328 -0.5065
  133OSM   H14F14365   3.006   2.582   6.042  1.9420  0.9725  0.6028
  133OSM   H14G14366   3.009   2.562   5.866 -0.6872  1.1843 -2.5836
  133OSM   C15F14367   2.870   2.720   5.934  0.7128  0.5070  0.0488
  133OSM   H15F14368   2.785   2.654   5.908 -0.8155  1.6955  1.8044
  133OSM   H15G14369   2.891   2.796   5.856 -0.2112  0.4285 -0.2762
  133OSM   C16F14370   2.825   2.795   6.061 -0.3645 -0.4410 -0.5969
  133OSM   H16F14371   2.744   2.865   6.034 -0.0768 -0.2125 -0.8744
  133OSM   H16G14372   2.912   2.859   6.087 -0.7090 -0.6979  1.3258
  133OSM   C17F14373   2.781   2.705   6.180 -0.3649 -0.4584 -0.6331
  133OSM   H17F14374   2.857   2.627   6.202  0.6295  1.0076  1.4482
  133OSM   H17G14375   2.686   2.653   6.153 -0.3323 -1.1502  0.4920
  133OSM   C18F14376   2.752   2.788   6.305 -0.1305  0.0731  0.2739
  133OSM   H18F14377   2.841   2.837   6.348  0.2050 -0.7596  0.5579
  133OSM   H18G14378   2.709   2.730   6.389  1.0783 -0.0217  0.8517
  133OSM   H18H14379   2.676   2.866   6.287 -0.5757 -0.2197  0.8750
  134OSM      N14380   4.252   5.447   4.541  0.4301 -0.0033 -0.3178
  134OSM    C1514381   4.129   5.500   4.469  0.0461  0.6863 -0.6719
  134OSM   H15A14382   4.153   5.590   4.414 -2.0713  2.7697  1.5781
  134OSM   H15B14383   4.043   5.524   4.530 -0.5239 -0.1236 -1.1341
  134OSM   H15C14384   4.102   5.437   4.385  2.2071  0.3583 -1.1806
  134OSM    C1414385   4.352   5.416   4.434  0.3882  0.2386 -0.1465
  134OSM   H14A14386   4.449   5.396   4.476  0.6537 -3.4638 -2.0819
  134OSM   H14B14387   4.359   5.501   4.369  0.1096  0.2460 -0.1712
  134OSM   H14C14388   4.316   5.336   4.370  2.3940 -0.3351 -0.6388
  134OSM    C1314389   4.299   5.563   4.624  0.1480 -0.1331  0.0279
  134OSM   H13A14390   4.231   5.583   4.705 -0.2881 -3.6292  0.6860
  134OSM   H13B14391   4.308   5.657   4.571 -1.5745 -0.6992 -1.3814
  134OSM   H13C14392   4.398   5.548   4.665  1.4616  2.3817 -1.9092
  134OSM    C1214393   4.236   5.313   4.613 -0.9340 -0.0973 -0.5745
  134OSM   H12A14394   4.330   5.282   4.657 -2.0816 -0.7505  1.5493
  134OSM   H12B14395   4.221   5.231   4.544  1.4270 -1.3958  0.3405
  134OSM    C1114396   4.136   5.296   4.732  0.4496 -0.5467  1.0509
  134OSM   H11A14397   4.159   5.366   4.814  0.9248 -0.9137  1.2345
  134OSM   H11B14398   4.153   5.197   4.779  0.4878 -0.2342  1.7032
  134OSM      P14399   3.916   5.427   4.738 -0.5603 -0.3481 -0.2203
  134OSM    O1314400   3.981   5.562   4.738  0.3370 -0.6189  0.0920
  134OSM    O1414401   3.779   5.426   4.676  0.2043  0.2379 -0.1028
  134OSM    O1114402   3.908   5.384   4.895 -0.5220  0.0542  0.6005
  134OSM    O1214403   4.006   5.314   4.675 -0.1285  0.2815  0.0626
  134OSM    C1S14404   3.887   5.243   4.923 -0.4198  0.1961  0.1087
  134OSM    H1S14405   3.986   5.202   4.953 -0.8534 -1.2930 -0.3979
  134OSM    H1T14406   3.861   5.179   4.835  5.0893 -0.8385 -1.1327
  134OSM     NF14407   3.820   5.086   5.096  0.1519  0.1026 -0.2609
  134OSM    HNF14408   3.743   5.024   5.082  0.0738  0.1876 -0.2078
  134OSM    C2S14409   3.792   5.219   5.040 -0.7520 -0.0172  0.5639
  134OSM    H2S14410   3.819   5.295   5.117 -1.2660  1.7930 -0.9625
  134OSM    C3S14411   3.647   5.243   4.988 -0.2693 -0.2629 -0.6636
  134OSM    H3S14412   3.625   5.170   4.908 -0.9162  0.7317 -1.4210
  134OSM     O314413   3.627   5.372   4.931  0.1573 -0.0471 -0.3079
  134OSM    HO314414   3.716   5.390   4.900 -0.5418  2.0796 -1.2259
  134OSM    C4S14415   3.549   5.227   5.100 -0.1582  0.3165 -0.2957
  134OSM    H4S14416   3.569   5.290   5.187 -3.1567  1.2090 -0.1474
  134OSM    C5S14417   3.427   5.180   5.104 -0.4731  1.1160  0.0624
  134OSM    H5S14418   3.394   5.137   5.008  0.4432  1.3676 -0.3759
  134OSM    C6S14419   3.327   5.164   5.217  0.3055 -0.7775 -0.2438
  134OSM    H6S14420   3.309   5.058   5.245  0.0252 -0.0112  2.9259
  134OSM    H6T14421   3.235   5.217   5.188  0.8661  0.4056  0.0891
  134OSM    C7S14422   3.359   5.235   5.346 -0.4931 -0.0504 -0.9574
  134OSM    H7S14423   3.268   5.230   5.410  0.7694 -1.8580  0.7980
  134OSM    H7T14424   3.380   5.344   5.332 -0.1322  0.4184  2.3332
  134OSM    C8S14425   3.470   5.164   5.424  0.5508 -0.2034 -0.1939
  134OSM    H8S14426   3.569   5.179   5.376 -0.3160 -0.1380 -2.0665
  134OSM    H8T14427   3.432   5.061   5.433 -2.2328  0.6966 -0.6816
  134OSM    C9S14428   3.484   5.221   5.564  0.1874  0.3653 -0.1999
  134OSM    H9S14429   3.385   5.227   5.614 -0.4080 -0.2031 -1.2721
  134OSM    H9T14430   3.521   5.323   5.540 -0.2799  0.1184 -2.2143
  134OSM   C10S14431   3.590   5.147   5.649  0.8683  0.8188 -0.7299
  134OSM   H10S14432   3.683   5.146   5.589  0.8597  1.3469 -0.7564
  134OSM   H10T14433   3.570   5.039   5.662 -1.2863  0.9410 -2.4447
  134OSM   C11S14434   3.618   5.213   5.783  0.0362 -0.4861 -0.4689
  134OSM   H11S14435   3.651   5.318   5.767 -3.1773  0.3940 -2.4317
  134OSM   H11T14436   3.701   5.164   5.838  0.2938 -0.4660 -0.8426
  134OSM   C12S14437   3.501   5.225   5.878  0.0818 -0.3686  0.2548
  134OSM   H12S14438   3.482   5.117   5.888 -0.3106 -0.1796  1.6172
  134OSM   H12T14439   3.413   5.284   5.843  1.2382  1.0414 -0.4191
  134OSM   C13S14440   3.528   5.285   6.022 -0.3904 -0.4043  0.8219
  134OSM   H13S14441   3.435   5.274   6.082 -0.7168  0.5792  0.5080
  134OSM   H13T14442   3.558   5.392   6.018 -0.5793 -0.3516 -3.1812
  134OSM   C14S14443   3.635   5.212   6.107  0.5103  0.0193  0.0038
  134OSM   H14S14444   3.739   5.250   6.096  1.0648 -0.7102  2.1458
  134OSM   H14T14445   3.631   5.106   6.073  0.4759 -0.4986  1.5180
  134OSM   C15S14446   3.600   5.232   6.260  0.0778  0.0649 -0.0980
  134OSM   H15S14447   3.506   5.182   6.292 -0.9852  1.5954 -0.7351
  134OSM   H15T14448   3.593   5.339   6.288  0.1024 -0.3056  1.4061
  134OSM   C16S14449   3.711   5.182   6.361  0.5695  0.1522  0.2356
  134OSM   H16S14450   3.812   5.216   6.329  0.4713  1.2981  1.0954
  134OSM   H16T14451   3.722   5.072   6.351  1.0311  0.2767 -0.7379
  134OSM   C17S14452   3.691   5.218   6.513 -0.4442 -0.1131 -0.8867
  134OSM   H17S14453   3.592   5.179   6.544 -0.1885 -0.2027 -0.1776
  134OSM   H17T14454   3.690   5.328   6.521  1.6251  0.0391 -1.9205
  134OSM   C18S14455   3.804   5.178   6.614  0.0870  0.3602 -0.0391
  134OSM   H18S14456   3.819   5.068   6.624  3.3615  0.7693  0.3881
  134OSM   H18T14457   3.787   5.217   6.717  1.8514 -1.1996  0.8979
  134OSM   H18U14458   3.902   5.209   6.572  0.0781  1.1399  0.4937
  134OSM    C1F14459   3.916   5.051   5.185 -0.0236 -0.0523  0.0362
  134OSM     OF14460   3.985   5.140   5.231 -0.0859 -0.1818 -0.2914
  134OSM    C2F14461   3.926   4.906   5.219 -0.6857  0.5819 -0.1262
  134OSM    H2F14462   4.028   4.875   5.189 -0.5108  0.2544  0.7534
  134OSM    H2G14463   3.845   4.854   5.162  0.3828 -1.9851  0.5314
  134OSM    C3F14464   3.921   4.882   5.372  0.8376 -0.3493  0.0390
  134OSM    H3F14465   3.814   4.900   5.394  0.9164  1.1029 -0.6832
  134OSM    H3G14466   3.984   4.957   5.424 -0.3447  1.1271 -0.6183
  134OSM    C4F14467   3.961   4.742   5.416 -0.3263 -0.1642  0.7021
  134OSM    H4F14468   4.055   4.727   5.358  0.3439 -0.1205  1.7356
  134OSM    H4G14469   3.884   4.666   5.390 -1.4669  0.0464  3.1906
  134OSM    C5F14470   3.998   4.729   5.566 -0.4480 -0.1168  0.1363
  134OSM    H5F14471   4.072   4.809   5.585  0.7178 -0.8341 -1.2275
  134OSM    H5G14472   4.059   4.637   5.579  0.0211 -0.0702 -1.4907
  134OSM    C6F14473   3.868   4.723   5.642 -0.2562 -0.3958 -0.0605
  134OSM    H6F14474   3.815   4.631   5.608  0.5974 -1.0867  0.4112
  134OSM    H6G14475   3.804   4.811   5.619  0.9660  0.5400  0.0533
  134OSM    C7F14476   3.891   4.718   5.793  0.4163  0.5352  0.5751
  134OSM    H7F14477   3.921   4.813   5.843  0.8274 -0.6813  2.7553
  134OSM    H7G14478   3.965   4.637   5.808 -0.0648  0.0446  0.3357
  134OSM    C8F14479   3.765   4.672   5.874  0.0475  0.4547 -1.2411
  134OSM    H8F14480   3.805   4.625   5.967 -0.0826  1.0754 -0.8656
  134OSM    H8G14481   3.722   4.580   5.829  2.1179 -1.0376 -0.3485
  134OSM    C9F14482   3.655   4.770   5.896 -1.0661 -0.7094  0.1414
  134OSM    H9F14483   3.624   4.818   5.803 -0.1000 -2.4397 -1.1337
  134OSM   C10F14484   3.605   4.812   6.011  0.2608  0.0590  0.4917
  134OSM   H10F14485   3.538   4.898   5.992  0.0480 -0.9860 -5.1612
  134OSM   C11F14486   3.637   4.781   6.155 -0.2029  0.7966  0.6803
  134OSM   H11F14487   3.692   4.872   6.187 -0.9958  0.6649  2.5868
  134OSM   H11G14488   3.707   4.695   6.164 -1.1103  0.1086  1.3906
  134OSM   C12F14489   3.519   4.786   6.250  0.4227 -0.1299  0.2831
  134OSM   H12F14490   3.458   4.875   6.225  0.0698 -1.0560 -2.4815
  134OSM   H12G14491   3.549   4.801   6.356  0.4504 -0.0208  0.2596
  134OSM   C13F14492   3.429   4.658   6.238  0.6467 -0.0360  0.7201
  134OSM   H13F14493   3.503   4.575   6.236  0.4702 -0.1823  0.0520
  134OSM   H13G14494   3.367   4.651   6.146  1.3164  0.7734  0.1992
  134OSM   C14F14495   3.334   4.635   6.360 -0.2286  0.2675  0.4478
  134OSM   H14F14496   3.244   4.696   6.339  1.0769  1.8363 -0.9583
  134OSM   H14G14497   3.372   4.683   6.454 -0.4721 -0.7144  1.0597
  134OSM   C15F14498   3.315   4.489   6.399 -0.7500 -0.1803 -0.1988
  134OSM   H15F14499   3.415   4.450   6.427  1.0657  2.5168 -2.3830
  134OSM   H15G14500   3.287   4.434   6.307 -1.9091 -0.3742  0.2417
  134OSM   C16F14501   3.200   4.460   6.501 -0.2776  0.1471 -0.4841
  134OSM   H16F14502   3.100   4.439   6.459 -0.9212 -2.0530  1.9087
  134OSM   H16G14503   3.190   4.541   6.577 -3.6950 -0.3974 -0.1996
  134OSM   C17F14504   3.241   4.333   6.591 -0.5033 -0.2238 -0.1296
  134OSM   H17F14505   3.289   4.254   6.530  1.4673  0.6051  0.2673
  134OSM   H17G14506   3.143   4.296   6.628 -0.8508  1.7739  1.1373
  134OSM   C18F14507   3.344   4.358   6.707 -0.6169 -0.4030 -0.1672
  134OSM   H18F14508   3.294   4.431   6.774 -0.1439  1.2773 -1.5955
  134OSM   H18G14509   3.436   4.410   6.673 -2.0739  3.4568  1.2024
  134OSM   H18H14510   3.374   4.268   6.765  0.4334  0.4376  0.6474
  135OSM      N14511   3.818   4.904   4.632  0.2439  1.1014 -0.2384
  135OSM    C1514512   3.903   4.902   4.755 -0.2750 -0.0413 -0.4548
  135OSM   H15A14513   3.924   4.803   4.791 -0.4983  0.5802  1.5308
  135OSM   H15B14514   3.838   4.939   4.833  0.0474 -0.1328 -0.1379
  135OSM   H15C14515   3.990   4.966   4.746  1.9317 -1.9096  4.0084
  135OSM    C1414516   3.682   4.857   4.656  0.3663  0.2902  0.0177
  135OSM   H14A14517   3.673   4.751   4.638  0.3787  0.4801 -1.1981
  135OSM   H14B14518   3.616   4.910   4.589 -0.1944  0.3079  0.5733
  135OSM   H14C14519   3.647   4.875   4.757 -1.5509 -0.6417 -0.4340
  135OSM    C1314520   3.812   5.041   4.577 -0.0862 -0.7468  0.3504
  135OSM   H13A14521   3.762   5.034   4.481  1.0324  0.3944 -0.3525
  135OSM   H13B14522   3.907   5.086   4.553 -0.9563  0.6722 -0.6486
  135OSM   H13C14523   3.750   5.116   4.625  2.1571 -0.2682  2.6928
  135OSM    C1214524   3.888   4.817   4.535  1.2087 -0.0026 -0.4863
  135OSM   H12A14525   3.980   4.872   4.521  1.4890 -0.7482 -1.6148
  135OSM   H12B14526   3.830   4.809   4.445  0.4212  0.5149 -0.0430
  135OSM    C1114527   3.925   4.670   4.587  1.0519  0.4717  0.4511
  135OSM   H11A14528   4.006   4.682   4.662  1.2624  0.5527  0.2091
  135OSM   H11B14529   3.971   4.614   4.503  0.5387  0.0061  0.4674
  135OSM      P14530   3.740   4.497   4.588 -0.1016  0.4398 -0.2119
  135OSM    O1314531   3.606   4.558   4.583 -0.0718 -0.0948  0.1875
  135OSM    O1414532   3.797   4.450   4.461  0.4949  0.1963  0.2606
  135OSM    O1114533   3.744   4.378   4.689  0.3877 -0.3493 -0.2412
  135OSM    O1214534   3.827   4.601   4.663 -0.0025 -0.1642  0.1184
  135OSM    C1S14535   3.867   4.329   4.749  0.3498  0.0694  0.1037
  135OSM    H1S14536   3.944   4.406   4.769  0.8848 -0.6024  0.6961
  135OSM    H1T14537   3.908   4.248   4.685 -1.4437  0.2664 -1.3795
  135OSM     NF14538   3.958   4.292   4.972  0.3393 -0.1849 -0.8783
  135OSM    HNF14539   4.022   4.216   4.966 -1.4381 -2.0452  1.7304
  135OSM    C2S14540   3.834   4.292   4.899  0.5011 -0.7547  0.3447
  135OSM    H2S14541   3.777   4.379   4.940  0.3307 -0.2387 -0.9291
  135OSM    C3S14542   3.749   4.166   4.906  0.3213  1.0601 -0.0005
  135OSM    H3S14543   3.805   4.085   4.853 -0.4093 -2.3580  3.9620
  135OSM     O314544   3.620   4.169   4.846  0.0945  0.1466  0.0274
  135OSM    HO314545   3.622   4.248   4.790 -1.7105 -0.4245 -0.9251
  135OSM    C4S14546   3.742   4.121   5.054  0.4334  0.2226  0.0546
  135OSM    H4S14547   3.808   4.044   5.097  0.6134  2.0466  3.4938
  135OSM    C5S14548   3.660   4.182   5.136  0.4945  0.0290  0.3847
  135OSM    H5S14549   3.592   4.260   5.099  0.0770 -0.5860 -0.1643
  135OSM    C6S14550   3.634   4.160   5.282  0.1141 -0.2363 -0.3036
  135OSM    H6S14551   3.720   4.104   5.325  0.2174  0.3008  0.1969
  135OSM    H6T14552   3.537   4.111   5.308  0.0707 -2.0329 -3.3481
  135OSM    C7S14553   3.627   4.299   5.353 -0.4555  0.4595  0.7780
  135OSM    H7S14554   3.522   4.334   5.345 -0.3955  0.4128 -0.3571
  135OSM    H7T14555   3.703   4.369   5.311 -0.8645  0.1297 -0.5490
  135OSM    C8S14556   3.652   4.274   5.503 -0.1618 -0.5150  0.3011
  135OSM    H8S14557   3.678   4.364   5.562 -0.1011 -0.0911 -0.3609
  135OSM    H8T14558   3.734   4.200   5.514  0.7942  0.4378 -0.2412
  135OSM    C9S14559   3.521   4.224   5.571  0.1154 -0.5612 -0.6101
  135OSM    H9S14560   3.505   4.120   5.537  1.6441 -1.3702  0.9795
  135OSM    H9T14561   3.440   4.292   5.536 -0.3328 -0.5566  0.3936
  135OSM   C10S14562   3.520   4.212   5.721  0.4233 -0.4241 -0.0077
  135OSM   H10S14563   3.528   4.314   5.766 -1.7070 -0.5755  0.8162
  135OSM   H10T14564   3.610   4.158   5.758  0.7465  0.7083  0.9090
  135OSM   C11S14565   3.393   4.149   5.784  0.1674 -0.4038 -0.4395
  135OSM   H11S14566   3.374   4.051   5.735 -0.5943  0.7467 -2.5970
  135OSM   H11T14567   3.305   4.206   5.746 -0.2833 -0.2166  0.8525
  135OSM   C12S14568   3.395   4.146   5.936  0.5852 -0.0398  0.1323
  135OSM   H12S14569   3.404   4.254   5.962 -0.5070 -0.2046  1.3010
  135OSM   H12T14570   3.490   4.092   5.958 -0.2018 -2.3099 -1.7159
  135OSM   C13S14571   3.284   4.076   6.015  0.2994 -0.1415  0.8653
  135OSM   H13S14572   3.275   3.967   5.992 -2.6849 -0.4271  2.8847
  135OSM   H13T14573   3.193   4.120   5.970 -0.1049 -0.8378  0.9869
  135OSM   C14S14574   3.276   4.091   6.167  0.0880 -0.2154 -0.3378
  135OSM   H14S14575   3.236   4.191   6.194  0.8716 -0.3029  1.2556
  135OSM   H14T14576   3.381   4.082   6.202  0.8754  2.0135 -1.9010
  135OSM   C15S14577   3.213   3.974   6.247  0.2760 -0.4330  0.2671
  135OSM   H15S14578   3.262   3.957   6.345 -1.2131  1.0746  1.3194
  135OSM   H15T14579   3.236   3.886   6.183  0.5118  0.4728 -0.9173
  135OSM   C16S14580   3.058   3.984   6.281 -0.5711 -1.1947  0.1015
  135OSM   H16S14581   3.002   4.032   6.199  0.8737 -1.6927 -1.2177
  135OSM   H16T14582   3.044   4.045   6.373  3.2554  2.1728 -1.2238
  135OSM   C17S14583   2.986   3.850   6.308  0.5312  0.1094  0.4965
  135OSM   H17S14584   3.025   3.776   6.236 -1.1022  0.9840 -1.3917
  135OSM   H17T14585   2.877   3.865   6.290  0.7797  1.4258 -0.0699
  135OSM   C18S14586   2.992   3.806   6.459 -0.6207  0.2297  0.0609
  135OSM   H18S14587   3.085   3.753   6.487  0.4580  1.2338 -1.4049
  135OSM   H18T14588   2.898   3.753   6.487 -1.9284  1.1618 -2.2545
  135OSM   H18U14589   2.971   3.894   6.524 -1.4337 -1.6718  2.5091
  135OSM    C1F14590   4.007   4.404   5.026  0.4871 -0.2539  0.8236
  135OSM     OF14591   3.947   4.511   5.012  0.2287 -0.4368 -0.1865
  135OSM    C2F14592   4.131   4.395   5.110 -0.2833  0.1862  0.3356
  135OSM    H2F14593   4.217   4.431   5.050  1.8936 -0.4323  2.8895
  135OSM    H2G14594   4.138   4.289   5.144  0.2661  0.2278  0.3584
  135OSM    C3F14595   4.111   4.488   5.233  0.7829 -0.4281 -0.1698
  135OSM    H3F14596   4.011   4.479   5.281  1.3326 -0.7856  0.9413
  135OSM    H3G14597   4.122   4.594   5.200  1.7586 -0.1410  1.0029
  135OSM    C4F14598   4.219   4.472   5.333 -0.3387  0.0277 -1.3533
  135OSM    H4F14599   4.215   4.565   5.393 -0.0627 -0.9970  0.3295
  135OSM    H4G14600   4.319   4.476   5.285 -0.2270 -2.0249 -1.3899
  135OSM    C5F14601   4.238   4.354   5.422 -0.0799  0.3456 -0.3466
  135OSM    H5F14602   4.314   4.368   5.502  0.3134  1.0057 -0.8309
  135OSM    H5G14603   4.264   4.261   5.367 -2.1346 -0.4101 -0.1644
  135OSM    C6F14604   4.107   4.327   5.501  0.0895 -0.6864  0.1386
  135OSM    H6F14605   4.030   4.276   5.439  0.2511  0.1344 -0.7616
  135OSM    H6G14606   4.064   4.426   5.525  0.2945 -0.9150  1.5049
  135OSM    C7F14607   4.130   4.246   5.627 -0.4489 -0.2466 -0.0008
  135OSM    H7F14608   4.232   4.262   5.669 -0.3819 -0.3653 -0.1176
  135OSM    H7G14609   4.131   4.141   5.593 -0.2063  0.3770 -2.0855
  135OSM    C8F14610   4.022   4.266   5.733 -0.1074 -0.4577  0.1354
  135OSM    H8F14611   3.928   4.213   5.706  0.0641 -0.3129 -0.7824
  135OSM    H8G14612   4.004   4.376   5.733  1.4612 -0.1715  0.2585
  135OSM    C9F14613   4.084   4.213   5.864  0.3350 -0.4658 -0.4034
  135OSM    H9F14614   4.182   4.165   5.848 -0.1898 -1.4178 -0.8986
  135OSM   C10F14615   4.040   4.253   5.984  0.4318 -0.4720 -0.3870
  135OSM   H10F14616   4.098   4.221   6.072  2.1554 -1.5310 -1.8180
  135OSM   C11F14617   3.907   4.338   6.005 -0.2470  0.8957 -0.2071
  135OSM   H11F14618   3.858   4.355   5.906  2.2257  0.0888 -1.6633
  135OSM   H11G14619   3.934   4.438   6.044  2.8643 -0.2129  0.8074
  135OSM   C12F14620   3.806   4.274   6.101  0.0166 -0.3273 -0.1629
  135OSM   H12F14621   3.853   4.201   6.171  0.3760 -0.0378 -0.0992
  135OSM   H12G14622   3.721   4.227   6.047 -0.0216  0.2454 -0.5995
  135OSM   C13F14623   3.738   4.375   6.191  0.0596 -0.0809  0.6712
  135OSM   H13F14624   3.678   4.439   6.123 -1.5168 -0.5713  1.5512
  135OSM   H13G14625   3.808   4.436   6.251 -2.2295 -0.3287  3.8258
  135OSM   C14F14626   3.654   4.297   6.290 -0.6926 -0.2075  0.1948
  135OSM   H14F14627   3.604   4.225   6.221  1.8035 -1.7175 -0.1559
  135OSM   H14G14628   3.575   4.365   6.330  0.0821  1.6943 -1.3493
  135OSM   C15F14629   3.730   4.220   6.403 -0.6527  0.4921  0.8189
  135OSM   H15F14630   3.827   4.270   6.421 -0.9711  0.8716  1.4999
  135OSM   H15G14631   3.759   4.116   6.375  1.3383  1.4437 -0.9028
  135OSM   C16F14632   3.658   4.223   6.535  0.0536 -0.0478 -0.3276
  135OSM   H16F14633   3.564   4.165   6.520  0.5862 -1.8138  2.4655
  135OSM   H16G14634   3.626   4.328   6.551  1.2880  0.1722  0.8450
  135OSM   C17F14635   3.738   4.168   6.649  0.4011 -0.2491 -0.6137
  135OSM   H17F14636   3.838   4.212   6.666  1.5405 -2.5557 -0.9975
  135OSM   H17G14637   3.768   4.064   6.624  2.7495  0.4359 -0.8127
  135OSM   C18F14638   3.663   4.178   6.783  0.1150 -0.6675  0.7521
  135OSM   H18F14639   3.703   4.134   6.876 -1.4044  1.2631  2.3952
  135OSM   H18G14640   3.559   4.142   6.767 -0.1099  0.0859  0.4705
  135OSM   H18H14641   3.656   4.283   6.819  1.5965 -0.3895  0.3016
  136OSM      N14642   1.161   5.820   4.183 -0.6732 -0.4077 -0.1506
  136OSM    C1514643   1.274   5.915   4.208 -0.2520  0.0535  0.5859
  136OSM   H15A14644   1.239   6.008   4.250 -1.4412  0.1666 -0.6108
  136OSM   H15B14645   1.329   5.939   4.118 -0.7613  0.4165  0.3670
  136OSM   H15C14646   1.339   5.877   4.286  0.0097  1.6068  1.1695
  136OSM    C1414647   1.035   5.891   4.133 -0.3003 -0.3131  0.0671
  136OSM   H14A14648   0.954   5.820   4.121 -2.0874  1.4085  1.3008
  136OSM   H14B14649   1.050   5.947   4.042 -0.4061  0.3644  0.4626
  136OSM   H14C14650   1.003   5.958   4.211 -0.6330  0.1502 -0.4601
  136OSM    C1314651   1.196   5.730   4.073 -0.5504 -0.5706  0.0785
  136OSM   H13A14652   1.236   5.783   3.988 -3.4579 -0.0812 -1.0954
  136OSM   H13B14653   1.110   5.681   4.030 -1.0863  2.1416 -2.2358
  136OSM   H13C14654   1.270   5.656   4.100  1.5519  0.4546 -2.3186
  136OSM    C1214655   1.128   5.733   4.301  0.3955 -0.1569  0.5781
  136OSM   H12A14656   1.202   5.654   4.299  0.8610  0.1783 -3.2796
  136OSM   H12B14657   1.036   5.679   4.282  0.8759 -0.7477 -0.1205
  136OSM    C1114658   1.124   5.791   4.437 -0.8523 -0.1345  0.2634
  136OSM   H11A14659   1.226   5.824   4.468  0.3810 -3.1584 -0.2320
  136OSM   H11B14660   1.106   5.724   4.523 -0.1697 -3.3935 -1.9434
  136OSM      P14661   0.886   5.902   4.475  0.0910  0.0598  0.0893
  136OSM    O1314662   0.835   6.037   4.429 -0.0468 -0.3628 -0.1366
  136OSM    O1414663   0.812   5.780   4.437 -0.3086  0.2572 -0.2464
  136OSM    O1114664   0.903   5.903   4.627 -0.5068 -0.3457 -0.1345
  136OSM    O1214665   1.036   5.901   4.431 -0.0202  0.4858 -1.1897
  136OSM    C1S14666   0.998   5.981   4.692 -0.4333 -0.1405 -0.4458
  136OSM    H1S14667   0.978   6.089   4.678  3.0716  0.6651 -0.0285
  136OSM    H1T14668   1.103   5.971   4.659  0.2365  2.3075  0.7755
  136OSM     NF14669   1.086   6.023   4.918  0.4545  0.6307 -0.4382
  136OSM    HNF14670   1.177   5.990   4.944 -0.2393 -0.2535  1.0298
  136OSM    C2S14671   1.007   5.931   4.838  1.4818  0.0977 -0.6692
  136OSM    H2S14672   0.901   5.947   4.867  0.8157 -1.7972 -1.8566
  136OSM    C3S14673   1.042   5.778   4.858  1.1725 -0.0468 -0.7201
  136OSM    H3S14674   1.152   5.767   4.852  1.6915  0.8452  3.8449
  136OSM     O314675   0.992   5.690   4.758  0.4203 -0.1965  0.0599
  136OSM    HO314676   0.971   5.756   4.691  1.9510 -0.7655 -1.0235
  136OSM    C4S14677   1.000   5.731   5.002  0.2232  0.2010  0.0909
  136OSM    H4S14678   1.080   5.704   5.073 -0.2101 -4.8976 -0.9957
  136OSM    C5S14679   0.871   5.714   5.041 -0.6176 -0.4001  0.0164
  136OSM    H5S14680   0.792   5.742   4.971  0.0856 -0.0985 -0.6671
  136OSM    C6S14681   0.825   5.669   5.178 -0.1038  0.0433  0.2702
  136OSM    H6S14682   0.797   5.561   5.178 -1.2256  0.3132 -0.1786
  136OSM    H6T14683   0.734   5.724   5.211 -0.0737 -0.7523  1.7491
  136OSM    C7S14684   0.929   5.691   5.290 -0.8625 -0.3394  0.7408
  136OSM    H7S14685   0.949   5.800   5.297  0.7068 -0.5931  0.4744
  136OSM    H7T14686   1.024   5.636   5.272 -0.3306  0.3244  1.4511
  136OSM    C8S14687   0.884   5.639   5.423 -0.3410  0.3987  0.6474
  136OSM    H8S14688   0.910   5.532   5.432  3.1503  0.9027 -1.4205
  136OSM    H8T14689   0.778   5.662   5.450 -0.1347  0.0078  1.8304
  136OSM    C9S14690   0.965   5.701   5.538 -0.2473 -0.3665 -0.3392
  136OSM    H9S14691   0.954   5.812   5.537 -3.0263 -0.5462  0.3354
  136OSM    H9T14692   1.072   5.674   5.529 -0.3664 -0.6812 -0.8545
  136OSM   C10S14693   0.903   5.651   5.668 -0.0908 -0.0902  0.1851
  136OSM   H10S14694   0.885   5.544   5.646 -1.9072  0.5686 -1.9727
  136OSM   H10T14695   0.806   5.705   5.674 -0.8658 -1.3090 -0.8864
  136OSM   C11S14696   0.986   5.662   5.793 -0.0558  0.0958  0.2976
  136OSM   H11S14697   1.078   5.712   5.757 -0.6721  0.7904 -0.3531
  136OSM   H11T14698   1.014   5.558   5.822  2.1392 -0.1812 -2.3989
  136OSM   C12S14699   0.926   5.748   5.903  1.0110 -0.2026 -0.1056
  136OSM   H12S14700   0.825   5.708   5.927 -0.0458  1.3436 -1.8156
  136OSM   H12T14701   0.904   5.853   5.876 -0.3606 -0.5683 -0.5247
  136OSM   C13S14702   1.004   5.739   6.035  0.7619  0.3795  0.1280
  136OSM   H13S14703   0.975   5.827   6.096 -3.0417 -1.3111  1.0163
  136OSM   H13T14704   1.114   5.734   6.016  0.7833 -0.5301  0.4628
  136OSM   C14S14705   0.965   5.617   6.105  0.9281  0.3345  0.1661
  136OSM   H14S14706   1.004   5.529   6.050  1.7422  0.0202  1.2122
  136OSM   H14T14707   0.854   5.617   6.101  0.9140  1.6417 -3.4682
  136OSM   C15S14708   1.001   5.597   6.254  0.2468 -0.5805  0.0116
  136OSM   H15S14709   1.096   5.652   6.273 -0.8832  1.1136  0.9323
  136OSM   H15T14710   1.012   5.487   6.266  1.7159 -0.5760 -1.0223
  136OSM   C16S14711   0.901   5.650   6.356 -0.0188 -0.2831 -0.0490
  136OSM   H16S14712   0.793   5.633   6.334 -0.4211  2.8610 -0.9650
  136OSM   H16T14713   0.919   5.759   6.353  4.8900 -0.8816 -1.2462
  136OSM   C17S14714   0.937   5.599   6.497  0.2976 -0.1121  0.0346
  136OSM   H17S14715   1.037   5.645   6.512  0.8188 -1.4023  0.6554
  136OSM   H17T14716   0.949   5.489   6.504 -1.3989 -0.2676  1.2303
  136OSM   C18S14717   0.854   5.659   6.608  0.0163  0.4434 -0.2791
  136OSM   H18S14718   0.860   5.608   6.707  1.3389 -2.3606 -1.6578
  136OSM   H18T14719   0.749   5.643   6.577 -0.9627 -1.9991  3.6563
  136OSM   H18U14720   0.879   5.767   6.615 -0.5299  0.4629  2.0131
  136OSM    C1F14721   1.063   6.155   4.944  0.5579 -0.7170 -0.7675
  136OSM     OF14722   0.965   6.211   4.897  0.0421 -0.5414  0.4013
  136OSM    C2F14723   1.169   6.228   5.030 -0.0556 -0.4313  0.1089
  136OSM    H2F14724   1.267   6.231   4.976  0.7335 -0.4835  1.4907
  136OSM    H2G14725   1.193   6.173   5.123 -0.4034 -2.1544 -0.7811
  136OSM    C3F14726   1.127   6.374   5.054 -0.1135 -0.8223  0.1113
  136OSM    H3F14727   1.029   6.373   5.106 -0.8542  2.5490 -0.9426
  136OSM    H3G14728   1.106   6.425   4.957  1.4479  1.0790  0.6907
  136OSM    C4F14729   1.238   6.455   5.128 -0.1545  0.1350  0.7638
  136OSM    H4F14730   1.198   6.558   5.115  0.7829  0.2423 -1.8454
  136OSM    H4G14731   1.338   6.446   5.082  0.8723  2.1416  2.4405
  136OSM    C5F14732   1.240   6.425   5.277 -0.5742 -1.0188 -0.3169
  136OSM    H5F14733   1.272   6.320   5.298  1.6177 -0.2900  0.2191
  136OSM    H5G14734   1.133   6.434   5.305  0.1234  0.3544  2.2946
  136OSM    C6F14735   1.315   6.524   5.365 -0.0252  0.2145  0.0346
  136OSM    H6F14736   1.260   6.620   5.363 -4.3412 -2.0421 -0.1934
  136OSM    H6G14737   1.414   6.544   5.317  1.7286 -1.5400  2.6191
  136OSM    C7F14738   1.328   6.468   5.506 -0.4818  0.4559 -0.7630
  136OSM    H7F14739   1.276   6.371   5.520 -1.7184  1.3795  1.7401
  136OSM    H7G14740   1.269   6.535   5.572 -0.3302 -0.0185 -0.1330
  136OSM    C8F14741   1.477   6.475   5.556 -0.5866 -0.7475 -0.1828
  136OSM    H8F14742   1.500   6.584   5.557  1.7154 -1.1809  1.5934
  136OSM    H8G14743   1.538   6.443   5.469  1.7772  3.3151 -0.2981
  136OSM    C9F14744   1.502   6.381   5.673 -0.2002  0.2540  0.3513
  136OSM    H9F14745   1.500   6.279   5.633 -0.9066 -0.0481  1.1307
  136OSM   C10F14746   1.541   6.410   5.795 -0.1344  0.5732 -0.5617
  136OSM   H10F14747   1.550   6.336   5.876 -2.0195 -0.9150 -1.6023
  136OSM   C11F14748   1.563   6.550   5.851 -0.1455  0.2808  0.4128
  136OSM   H11F14749   1.460   6.589   5.858 -0.8063 -1.3559  0.2066
  136OSM   H11G14750   1.616   6.604   5.769  1.8829 -4.3837 -1.7478
  136OSM   C12F14751   1.633   6.580   5.984  0.1920  0.3749  1.2478
  136OSM   H12F14752   1.668   6.685   5.992  1.7642 -0.1405  1.4825
  136OSM   H12G14753   1.724   6.518   5.978 -0.8709 -1.0973 -2.5844
  136OSM   C13F14754   1.544   6.546   6.097 -0.4232 -0.6512 -0.4775
  136OSM   H13F14755   1.477   6.458   6.086  0.0090 -1.5247  2.7884
  136OSM   H13G14756   1.484   6.638   6.114  1.2847  0.1946  1.4535
  136OSM   C14F14757   1.622   6.538   6.231 -0.0787 -0.3062 -0.2797
  136OSM   H14F14758   1.654   6.432   6.241 -1.6612 -0.8367 -0.3890
  136OSM   H14G14759   1.541   6.554   6.306 -0.6988  2.8116 -1.4541
  136OSM   C15F14760   1.733   6.639   6.255  0.7897  0.0657 -0.1423
  136OSM   H15F14761   1.673   6.733   6.258  0.0435 -0.4109  0.7183
  136OSM   H15G14762   1.813   6.647   6.179 -0.6164  0.3215 -1.6575
  136OSM   C16F14763   1.791   6.621   6.394 -0.6893 -0.2770 -0.1451
  136OSM   H16F14764   1.840   6.522   6.408  1.5303  1.1993  5.0960
  136OSM   H16G14765   1.724   6.636   6.481  0.0177  4.0849 -0.1406
  136OSM   C17F14766   1.916   6.714   6.418  0.5102  0.4131 -0.2883
  136OSM   H17F14767   1.947   6.713   6.525 -0.1269  3.4204 -0.0088
  136OSM   H17G14768   1.871   6.815   6.414  0.0251  0.2115 -0.0596
  136OSM   C18F14769   2.038   6.701   6.330 -0.4081 -0.1532  0.0579
  136OSM   H18F14770   2.108   6.785   6.348 -0.6382  0.0930 -0.1747
  136OSM   H18G14771   2.014   6.714   6.222  0.8478 -2.6724 -0.6173
  136OSM   H18H14772   2.087   6.602   6.344 -1.7749 -0.9085 -0.3188
  137OSM      N14773   5.435   5.838   4.900 -0.2258  0.2982 -0.8172
  137OSM    C1514774   5.510   5.913   5.005 -0.3548  0.2045  0.2172
  137OSM   H15A14775   5.493   5.868   5.102 -0.1981 -0.5348 -0.0905
  137OSM   H15B14776   5.462   6.010   5.015  2.4640  1.6101  1.1988
  137OSM   H15C14777   5.616   5.916   4.985  0.0123  0.3335  2.0250
  137OSM    C1414778   5.288   5.843   4.936  0.3944 -0.1647 -0.2601
  137OSM   H14A14779   5.226   5.784   4.871 -3.0797 -0.5343  3.0630
  137OSM   H14B14780   5.236   5.937   4.925  1.0368 -0.0081 -2.3796
  137OSM   H14C14781   5.265   5.792   5.028  0.9499 -0.1131 -0.0847
  137OSM    C1314782   5.440   5.906   4.766 -0.4973 -0.2802  0.5203
  137OSM   H13A14783   5.408   6.008   4.776  0.3309  0.0566 -0.1841
  137OSM   H13B14784   5.381   5.852   4.693 -1.3813  1.1662  0.1277
  137OSM   H13C14785   5.542   5.915   4.731 -0.7139  2.9159  0.4212
  137OSM    C1214786   5.475   5.691   4.901  0.2036 -0.0106 -0.4044
  137OSM   H12A14787   5.483   5.651   5.001  2.8149  0.1603 -0.4745
  137OSM   H12B14788   5.577   5.690   4.863 -0.5900  1.7272 -2.8537
  137OSM    C1114789   5.393   5.585   4.819 -0.1690  0.2092  0.5380
  137OSM   H11A14790   5.439   5.485   4.837  0.9973  0.8996  1.5311
  137OSM   H11B14791   5.414   5.592   4.710  2.7361 -1.6787  0.8346
  137OSM      P14792   5.172   5.471   4.892  0.2468 -0.1320 -0.2658
  137OSM    O1314793   5.027   5.514   4.887  0.1221 -0.1955 -0.7940
  137OSM    O1414794   5.207   5.345   4.826 -0.0942  0.6189  0.4965
  137OSM    O1114795   5.214   5.467   5.045  0.0880  0.1470  0.1928
  137OSM    O1214796   5.257   5.594   4.848 -0.1186  0.4388  0.7082
  137OSM    C1S14797   5.329   5.392   5.086 -0.5760  0.6036  0.4328
  137OSM    H1S14798   5.422   5.452   5.079 -1.0820  1.5291  1.4068
  137OSM    H1T14799   5.354   5.294   5.040 -1.7223 -0.2188  1.4903
  137OSM     NF14800   5.424   5.237   5.244 -0.1800 -0.3735  0.4732
  137OSM    HNF14801   5.395   5.149   5.206  0.0469 -0.6259  0.8713
  137OSM    C2S14802   5.321   5.339   5.232 -0.2652 -0.1438  1.2601
  137OSM    H2S14803   5.345   5.425   5.298 -1.9588  1.1858  0.2556
  137OSM    C3S14804   5.178   5.287   5.253  0.0025 -0.0555  0.2915
  137OSM    H3S14805   5.157   5.206   5.180  0.3001  0.8079 -0.7940
  137OSM     O314806   5.075   5.385   5.241  0.2317 -0.3546 -0.2450
  137OSM    HO314807   5.116   5.441   5.175  0.9804  2.1043  2.1059
  137OSM    C4S14808   5.168   5.243   5.382  0.3758  0.1189 -0.8028
  137OSM    H4S14809   5.209   5.321   5.448  1.6001  0.7423 -2.2582
  137OSM    C5S14810   5.127   5.123   5.427  0.7372  0.6002  0.1427
  137OSM    H5S14811   5.089   5.048   5.356  1.1216 -0.2018  0.7675
  137OSM    C6S14812   5.130   5.079   5.569 -0.1018 -0.4785  0.3544
  137OSM    H6S14813   5.162   4.973   5.568  0.5347 -0.3191 -2.0704
  137OSM    H6T14814   5.029   5.084   5.614 -1.2343 -0.8325 -2.0197
  137OSM    C7S14815   5.217   5.170   5.658 -0.0092 -0.1199 -0.1923
  137OSM    H7S14816   5.189   5.277   5.651  0.6683  0.1240  0.5977
  137OSM    H7T14817   5.314   5.168   5.603 -0.3039 -0.6620 -0.6981
  137OSM    C8S14818   5.228   5.114   5.800 -1.1053  0.4208  0.1399
  137OSM    H8S14819   5.124   5.126   5.836 -1.1205  0.2119  0.1653
  137OSM    H8T14820   5.307   5.175   5.850  0.1994 -0.3362 -0.9217
  137OSM    C9S14821   5.270   4.957   5.810  0.3102  0.3719 -0.6801
  137OSM    H9S14822   5.368   4.940   5.760  0.3241 -1.2761 -0.1471
  137OSM    H9T14823   5.190   4.891   5.771  0.5234 -0.4157  0.1918
  137OSM   C10S14824   5.301   4.900   5.953  0.3162  0.2610 -0.2891
  137OSM   H10S14825   5.368   4.972   6.005 -1.5810  1.7936  0.1349
  137OSM   H10T14826   5.340   4.798   5.935 -1.2433 -0.3030 -0.5684
  137OSM   C11S14827   5.173   4.888   6.034 -0.2163  0.3866  0.4371
  137OSM   H11S14828   5.093   4.819   5.997  0.2388  0.4911 -0.7948
  137OSM   H11T14829   5.141   4.994   6.042  0.8313  0.7257  0.2844
  137OSM   C12S14830   5.202   4.846   6.180 -0.3385  0.5128 -0.8974
  137OSM   H12S14831   5.303   4.871   6.220 -0.2924 -2.2147  0.9814
  137OSM   H12T14832   5.200   4.735   6.188 -0.1359  0.4260 -1.8941
  137OSM   C13S14833   5.091   4.898   6.279  0.2423  0.4732  0.3333
  137OSM   H13S14834   4.993   4.878   6.229 -1.0308  1.3755  2.3398
  137OSM   H13T14835   5.107   5.008   6.277 -0.2756  0.6333 -3.6101
  137OSM   C14S14836   5.100   4.840   6.425  0.5284  0.2257  0.4256
  137OSM   H14S14837   5.084   4.730   6.427  0.7630 -0.1155 -4.1749
  137OSM   H14T14838   5.019   4.875   6.491  0.7851  0.6182  0.5374
  137OSM   C15S14839   5.223   4.880   6.497  0.2490  1.0003 -0.4787
  137OSM   H15S14840   5.249   4.989   6.495 -2.7773  1.8073 -0.9347
  137OSM   H15T14841   5.307   4.829   6.446 -1.9961 -2.9363 -0.5971
  137OSM   C16S14842   5.213   4.827   6.639  0.0830 -0.1477  0.7124
  137OSM   H16S14843   5.165   4.727   6.631 -4.3030  1.6978  1.1288
  137OSM   H16T14844   5.140   4.887   6.698 -0.5585  2.1077 -2.1821
  137OSM   C17S14845   5.346   4.813   6.717  0.1426  0.2665  0.7465
  137OSM   H17S14846   5.407   4.901   6.687 -1.0596  1.2684  1.1432
  137OSM   H17T14847   5.402   4.723   6.684 -0.1302 -0.3857  1.9984
  137OSM   C18S14848   5.316   4.819   6.867 -0.2934 -0.3006  0.0442
  137OSM   H18S14849   5.403   4.769   6.916 -1.0250 -1.0582  0.5878
  137OSM   H18T14850   5.229   4.758   6.900 -0.7801  0.0571 -0.5527
  137OSM   H18U14851   5.296   4.924   6.896 -3.2495 -0.5019 -1.0105
  137OSM    C1F14852   5.560   5.266   5.250  0.5350  0.2193 -0.4239
  137OSM     OF14853   5.605   5.379   5.266 -0.0192  0.0970 -0.3275
  137OSM    C2F14854   5.653   5.147   5.243  0.2704 -0.0646  0.4235
  137OSM    H2F14855   5.724   5.150   5.158 -0.0006 -0.9677  0.1546
  137OSM    H2G14856   5.586   5.059   5.232  0.6154 -0.1430 -1.1892
  137OSM    C3F14857   5.727   5.130   5.377 -0.1512  0.3561 -0.3946
  137OSM    H3F14858   5.783   5.222   5.401  1.5072  0.1075 -2.9033
  137OSM    H3G14859   5.798   5.046   5.363 -1.5419 -1.3736  2.0397
  137OSM    C4F14860   5.625   5.081   5.483  0.2770 -0.3629 -1.1353
  137OSM    H4F14861   5.568   4.992   5.449  0.1979 -0.3017 -1.1639
  137OSM    H4G14862   5.549   5.161   5.497  2.3550  1.8184 -1.5942
  137OSM    C5F14863   5.678   5.043   5.617 -0.0175  0.1893 -0.5246
  137OSM    H5F14864   5.772   4.986   5.600  0.4951  0.4666  1.2031
  137OSM    H5G14865   5.613   4.970   5.669  2.0331 -0.0801  1.8859
  137OSM    C6F14866   5.701   5.149   5.729 -0.1696  0.6370 -0.1645
  137OSM    H6F14867   5.603   5.198   5.747  0.7744  2.8048 -0.7178
  137OSM    H6G14868   5.749   5.227   5.667 -1.3619  1.0394 -0.6267
  137OSM    C7F14869   5.784   5.108   5.849  0.2947 -0.3107 -0.7592
  137OSM    H7F14870   5.831   5.197   5.895 -0.4446 -1.5907  2.8020
  137OSM    H7G14871   5.870   5.047   5.813  1.3966  0.3907  0.5936
  137OSM    C8F14872   5.705   5.026   5.958 -0.3782  0.7706  0.1498
  137OSM    H8F14873   5.636   4.949   5.917 -0.0668  0.3570  0.3878
  137OSM    H8G14874   5.635   5.090   6.016  0.0086  2.5201 -1.2024
  137OSM    C9F14875   5.795   4.958   6.060 -0.3783 -0.1971  0.2535
  137OSM    H9F14876   5.832   5.028   6.137 -0.7946  0.6638 -0.3093
  137OSM   C10F14877   5.845   4.836   6.061 -0.3269  0.2201  0.5784
  137OSM   H10F14878   5.922   4.815   6.137 -1.3280  0.6508  1.7495
  137OSM   C11F14879   5.812   4.724   5.965  0.4695  1.0404 -0.3659
  137OSM   H11F14880   5.705   4.735   5.937  0.0951  0.4956  0.8133
  137OSM   H11G14881   5.810   4.621   6.007  0.5711  0.9392 -0.6082
  137OSM   C12F14882   5.901   4.722   5.841  0.3179  0.1680  0.0206
  137OSM   H12F14883   5.983   4.650   5.861  0.5209 -0.0106 -1.3427
  137OSM   H12G14884   5.939   4.824   5.820  0.2549 -0.3770 -3.2598
  137OSM   C13F14885   5.833   4.681   5.712  0.2581 -0.0179  0.5230
  137OSM   H13F14886   5.737   4.734   5.697 -2.1222 -3.8085  0.8460
  137OSM   H13G14887   5.804   4.574   5.720  2.4083 -0.8947 -1.7836
  137OSM   C14F14888   5.905   4.689   5.571  0.1003 -0.8586  0.1852
  137OSM   H14F14889   5.979   4.607   5.561  2.9520  1.4500  0.8767
  137OSM   H14G14890   5.972   4.777   5.578 -0.8010 -0.1672  0.3537
  137OSM   C15F14891   5.819   4.708   5.446 -0.8526 -0.2335  0.3176
  137OSM   H15F14892   5.739   4.783   5.463 -2.1305 -1.9336  2.3661
  137OSM   H15G14893   5.754   4.621   5.421  1.3757 -1.0478 -3.6071
  137OSM   C16F14894   5.915   4.741   5.326  0.6928  0.2331  0.7802
  137OSM   H16F14895   6.010   4.682   5.329  1.5796  1.2488 -2.8109
  137OSM   H16G14896   5.948   4.847   5.331  0.7219  0.2139  1.0151
  137OSM   C17F14897   5.847   4.703   5.189  0.7204  0.2667  0.0989
  137OSM   H17F14898   5.797   4.604   5.181 -1.5656  1.2246  1.6757
  137OSM   H17G14899   5.939   4.697   5.126  0.8375 -2.4019  0.4199
  137OSM   C18F14900   5.750   4.813   5.135 -0.5744  0.3614  0.4199
  137OSM   H18F14901   5.709   4.793   5.033  0.1377 -1.4477  0.4409
  137OSM   H18G14902   5.815   4.903   5.130 -1.1258  0.7554  0.3576
  137OSM   H18H14903   5.671   4.834   5.210  0.2065  0.3670  1.2592
  138OSM      N14904   6.197   1.316   4.296 -0.4266 -0.4413 -0.3813
  138OSM    C1514905   6.167   1.405   4.407  0.6935 -0.0902 -0.1341
  138OSM   H15A14906   6.242   1.389   4.483  0.9528  0.8994 -0.1736
  138OSM   H15B14907   6.073   1.380   4.454  1.1244 -0.1195  0.7246
  138OSM   H15C14908   6.173   1.510   4.382 -0.4890  0.5302  1.9369
  138OSM    C1414909   6.076   1.294   4.209  0.5872  0.5995  0.6810
  138OSM   H14A14910   6.025   1.385   4.180  0.8956  0.7883  0.7358
  138OSM   H14B14911   6.010   1.226   4.261  0.0393 -0.0542 -0.8323
  138OSM   H14C14912   6.109   1.243   4.120  0.2822  1.1574  0.2434
  138OSM    C1314913   6.316   1.372   4.214  0.0637  0.9611 -0.4122
  138OSM   H13A14914   6.289   1.466   4.168  0.3624  0.0251 -2.6496
  138OSM   H13B14915   6.346   1.292   4.148  2.5957 -1.3352  3.1783
  138OSM   H13C14916   6.405   1.389   4.273  1.7804 -0.8524 -2.3127
  138OSM    C1214917   6.231   1.170   4.360 -0.4614  0.0049 -0.1001
  138OSM   H12A14918   6.240   1.108   4.271  0.7311  1.6833 -1.2027
  138OSM   H12B14919   6.143   1.130   4.409  0.3181 -1.0689  0.4652
  138OSM    C1114920   6.357   1.149   4.439  0.5514 -0.1094 -0.8706
  138OSM   H11A14921   6.449   1.196   4.399  0.0813 -0.0566 -1.9188
  138OSM   H11B14922   6.371   1.039   4.455 -0.5992 -0.2684 -0.8955
  138OSM      P14923   6.256   1.134   4.684 -0.4638 -0.3386  0.4219
  138OSM    O1314924   6.114   1.122   4.650 -0.3722  0.3178 -0.1259
  138OSM    O1414925   6.334   1.016   4.725 -0.3355  0.7255  0.3560
  138OSM    O1114926   6.268   1.234   4.803  0.4696 -0.0391 -0.4696
  138OSM    O1214927   6.342   1.210   4.572  0.6627  0.0241  0.4825
  138OSM    C1S14928   6.195   1.198   4.925  0.4314  0.3851 -0.4087
  138OSM    H1S14929   6.233   1.103   4.969  2.2408  0.3423 -1.9273
  138OSM    H1T14930   6.084   1.201   4.912  0.2201 -0.8918  0.8051
  138OSM     NF14931   6.177   1.234   5.158  0.3122  0.5376 -0.0499
  138OSM    HNF14932   6.081   1.240   5.184 -0.0024 -0.3382 -0.9497
  138OSM    C2S14933   6.215   1.297   5.041  0.9123 -0.1498 -0.0451
  138OSM    H2S14934   6.323   1.324   5.045  1.2233 -1.3103 -0.0896
  138OSM    C3S14935   6.134   1.428   5.005  0.8595 -0.5062 -0.5498
  138OSM    H3S14936   6.027   1.404   5.023  0.6753  0.2620 -0.5859
  138OSM     O314937   6.138   1.474   4.872  0.4400 -0.0014  0.3522
  138OSM    HO314938   6.171   1.395   4.828  0.9430 -0.0170  0.7432
  138OSM    C4S14939   6.181   1.535   5.089  0.7069  0.3021  0.3658
  138OSM    H4S14940   6.279   1.563   5.048  0.1720 -0.4577 -1.5599
  138OSM    C5S14941   6.130   1.611   5.188  0.1334  0.1320 -0.3821
  138OSM    H5S14942   6.024   1.597   5.212  0.5807 -1.5067  0.7702
  138OSM    C6S14943   6.203   1.717   5.269  0.2702 -0.5893  0.0282
  138OSM    H6S14944   6.189   1.817   5.222 -0.7865 -1.1556 -0.9033
  138OSM    H6T14945   6.311   1.690   5.272  0.9891  1.9571  3.0745
  138OSM    C7S14946   6.163   1.727   5.418  0.2524 -0.4626  0.0297
  138OSM    H7S14947   6.166   1.625   5.463  0.3489  0.5436  2.5003
  138OSM    H7T14948   6.060   1.769   5.424  1.3392  2.4286 -0.4140
  138OSM    C8S14949   6.260   1.834   5.484 -0.1745  0.5635 -0.1461
  138OSM    H8S14950   6.255   1.928   5.425  1.4373  0.8899  0.2031
  138OSM    H8T14951   6.364   1.797   5.474  0.0903  1.6498 -1.7652
  138OSM    C9S14952   6.218   1.867   5.632 -0.0485 -0.2057 -0.3217
  138OSM    H9S14953   6.110   1.893   5.627  0.3949  2.3583  1.6491
  138OSM    H9T14954   6.270   1.955   5.675 -1.4054  0.9962 -1.0339
  138OSM   C10S14955   6.243   1.755   5.741 -0.0660 -0.4472  0.2428
  138OSM   H10S14956   6.350   1.769   5.766  0.8889 -3.7280 -1.5020
  138OSM   H10T14957   6.228   1.652   5.703 -1.1035 -0.0998 -0.3397
  138OSM   C11S14958   6.166   1.778   5.876  0.2790  0.2579 -0.2459
  138OSM   H11S14959   6.058   1.796   5.862 -0.0221 -1.2430  0.0216
  138OSM   H11T14960   6.206   1.865   5.932 -1.5688 -0.2357  1.9850
  138OSM   C12S14961   6.183   1.661   5.969 -0.4245 -0.6429  0.3714
  138OSM   H12S14962   6.288   1.656   6.005 -0.4369 -2.5057  0.2611
  138OSM   H12T14963   6.149   1.562   5.932 -1.7444  0.1541 -0.6228
  138OSM   C13S14964   6.106   1.696   6.103 -0.1154 -0.1637  0.0841
  138OSM   H13S14965   5.996   1.697   6.088 -0.3836 -0.3790  1.8640
  138OSM   H13T14966   6.139   1.797   6.135 -0.1168 -0.3186  0.5855
  138OSM   C14S14967   6.150   1.603   6.222  0.2543 -0.9135 -0.3848
  138OSM   H14S14968   6.245   1.552   6.198 -0.4946 -2.2812 -0.5493
  138OSM   H14T14969   6.074   1.523   6.231 -0.5944 -0.1412 -0.5024
  138OSM   C15S14970   6.158   1.679   6.356  0.5207 -0.0538 -1.0481
  138OSM   H15S14971   6.063   1.729   6.383  1.6484  0.3748  2.7040
  138OSM   H15T14972   6.220   1.769   6.339 -0.8188  1.6222  2.1449
  138OSM   C16S14973   6.212   1.594   6.469 -0.1421  0.4053 -0.5078
  138OSM   H16S14974   6.322   1.580   6.463 -0.0715  0.4755  0.4263
  138OSM   H16T14975   6.164   1.494   6.463  1.0110 -0.0768 -2.8157
  138OSM   C17S14976   6.187   1.651   6.611 -0.9232 -0.8952  0.2098
  138OSM   H17S14977   6.213   1.579   6.691 -1.3218 -3.0878 -1.5248
  138OSM   H17T14978   6.077   1.663   6.622 -0.7274  1.0531  0.4727
  138OSM   C18S14979   6.258   1.784   6.641 -0.0521  0.1589 -0.2310
  138OSM   H18S14980   6.352   1.762   6.695 -1.4155 -2.0816  1.4002
  138OSM   H18T14981   6.200   1.838   6.719  2.3299  2.4767  0.0932
  138OSM   H18U14982   6.260   1.863   6.562 -0.4947  2.6596  2.1069
  138OSM    C1F14983   6.258   1.149   5.219 -0.3411 -0.4274  0.1570
  138OSM     OF14984   6.366   1.124   5.173 -0.1595 -0.3208 -0.0949
  138OSM    C2F14985   6.201   1.089   5.350  0.3809  0.0667 -0.0281
  138OSM    H2F14986   6.214   0.979   5.349  0.5811  0.0868 -1.7947
  138OSM    H2G14987   6.094   1.116   5.343  0.6139  1.7962  1.9181
  138OSM    C3F14988   6.262   1.162   5.463 -0.2198  0.2420 -0.7722
  138OSM    H3F14989   6.255   1.270   5.439 -0.2185  0.2189 -0.8771
  138OSM    H3G14990   6.369   1.142   5.485  0.2948  1.1062 -2.3371
  138OSM    C4F14991   6.198   1.147   5.605 -0.0839 -0.3449 -0.5617
  138OSM    H4F14992   6.191   1.038   5.623  1.2651 -0.6031 -1.4454
  138OSM    H4G14993   6.094   1.187   5.599 -0.2780 -0.7188  0.2604
  138OSM    C5F14994   6.272   1.215   5.724  0.2489 -0.6580 -0.3135
  138OSM    H5F14995   6.289   1.321   5.698  0.7142 -0.7344 -0.3265
  138OSM    H5G14996   6.371   1.172   5.753 -0.6049 -1.4077  1.7052
  138OSM    C6F14997   6.187   1.212   5.849 -0.5927  0.4410 -0.6550
  138OSM    H6F14998   6.150   1.109   5.870 -0.5716  0.6661  0.5224
  138OSM    H6G14999   6.092   1.269   5.842 -0.9397 -0.0076  0.3122
  138OSM    C7F15000   6.264   1.255   5.973  0.9017  0.1940 -0.2073
  138OSM    H7F15001   6.295   1.362   5.975 -0.7081  0.6784  1.7268
  138OSM    H7G15002   6.356   1.194   5.976 -0.3664 -1.7589  0.6303
  138OSM    C8F15003   6.185   1.240   6.111  0.9146  0.1425 -0.0962
  138OSM    H8F15004   6.121   1.150   6.110 -0.7658  1.2548  1.1571
  138OSM    H8G15005   6.117   1.326   6.126  0.5763 -0.1987  0.3354
  138OSM    C9F15006   6.274   1.255   6.228  0.0823  0.4152 -0.1568
  138OSM    H9F15007   6.358   1.326   6.223 -0.2664  0.8822  0.4099
  138OSM   C10F15008   6.268   1.167   6.334  0.0268 -0.5960 -0.7033
  138OSM   H10F15009   6.329   1.196   6.421 -1.2478  1.4125 -0.4019
  138OSM   C11F15010   6.167   1.061   6.361  0.3921  0.3232  0.5501
  138OSM   H11F15011   6.217   0.972   6.402  3.1316  1.3489 -0.3380
  138OSM   H11G15012   6.108   1.025   6.274  2.5271 -0.8117 -0.5076
  138OSM   C12F15013   6.060   1.099   6.467 -1.0407  0.5386  0.5001
  138OSM   H12F15014   6.107   1.131   6.562 -1.3087  1.9563  0.1857
  138OSM   H12G15015   5.986   1.017   6.477 -1.1777  0.2999 -1.7703
  138OSM   C13F15016   5.964   1.207   6.406 -0.6826  0.2112  0.2783
  138OSM   H13F15017   5.931   1.176   6.304  1.2568  2.0131 -0.9785
  138OSM   H13G15018   6.028   1.295   6.387 -1.8025  0.3233 -4.0300
  138OSM   C14F15019   5.841   1.242   6.488 -0.0395 -0.3882 -0.0156
  138OSM   H14F15020   5.794   1.142   6.501  1.1895 -0.8785  0.8003
  138OSM   H14G15021   5.770   1.301   6.426 -0.2559 -0.1807  0.4254
  138OSM   C15F15022   5.882   1.327   6.614 -0.0005 -0.1000 -0.1871
  138OSM   H15F15023   5.920   1.429   6.593 -0.2112 -0.0000 -0.0883
  138OSM   H15G15024   5.967   1.280   6.669 -1.5740 -1.1196  1.4867
  138OSM   C16F15025   5.761   1.335   6.710 -0.1180 -0.2463 -0.5473
  138OSM   H16F15026   5.663   1.321   6.659  0.0421 -0.6268 -0.7576
  138OSM   H16G15027   5.753   1.434   6.758 -1.2826 -0.2858 -0.6243
  138OSM   C17F15028   5.757   1.222   6.808 -1.1041 -0.6226  0.4330
  138OSM   H17F15029   5.849   1.223   6.869 -1.2189  0.1066  0.6023
  138OSM   H17G15030   5.743   1.124   6.757 -0.4714 -1.3112  1.5299
  138OSM   C18F15031   5.648   1.228   6.912 -0.3351 -0.3219  0.5727
  138OSM   H18F15032   5.549   1.200   6.868 -1.1268  0.1635  1.9636
  138OSM   H18G15033   5.647   1.329   6.958 -1.2620  0.2464 -0.6090
  138OSM   H18H15034   5.665   1.155   6.994 -1.0933  0.4664  1.4501
  139OSM      N15035   0.341   4.114   4.003 -0.0792  0.0576 -0.8143
  139OSM    C1515036   0.265   4.065   3.883 -0.8309 -0.6559 -0.0799
  139OSM   H15A15037   0.163   4.043   3.909 -0.8946 -0.1962  0.0541
  139OSM   H15B15038   0.307   3.971   3.850  1.4386  0.4632 -0.5818
  139OSM   H15C15039   0.292   4.130   3.801  1.2748 -1.4247 -0.0713
  139OSM    C1415040   0.487   4.121   3.969 -0.0094  0.2093 -0.1095
  139OSM   H14A15041   0.515   4.185   3.887  2.9333 -0.4473  0.2679
  139OSM   H14B15042   0.524   4.021   3.954 -4.0870 -1.8325  1.6703
  139OSM   H14C15043   0.539   4.162   4.054  0.2510 -0.6932  0.1750
  139OSM    C1315044   0.282   4.247   4.039  0.1835 -0.2043  0.3787
  139OSM   H13A15045   0.331   4.332   3.993 -0.3920  0.5143  1.0612
  139OSM   H13B15046   0.288   4.269   4.144 -1.2275  1.7068  0.1247
  139OSM   H13C15047   0.178   4.252   4.010  0.1849 -2.0103 -0.0318
  139OSM    C1215048   0.322   4.015   4.111  0.1221 -0.2480 -0.8220
  139OSM   H12A15049   0.344   3.918   4.068  1.5071 -0.3133  0.0018
  139OSM   H12B15050   0.219   4.023   4.142  0.4204 -0.0378  0.1266
  139OSM    C1115051   0.420   4.024   4.236  0.6977  0.3793 -1.1242
  139OSM   H11A15052   0.526   4.022   4.203  1.7001  1.8750  1.6928
  139OSM   H11B15053   0.403   3.931   4.294 -2.2372 -0.4258 -3.0666
  139OSM      P15054   0.511   4.217   4.376  0.2707  0.3269  0.2071
  139OSM    O1315055   0.595   4.273   4.268  0.2821  0.2671 -0.8994
  139OSM    O1415056   0.454   4.315   4.473 -0.2158  0.0578 -0.0013
  139OSM    O1115057   0.579   4.091   4.451 -0.3440  0.1673  0.2841
  139OSM    O1215058   0.389   4.147   4.308  0.1040 -0.4739 -0.1496
  139OSM    C1S15059   0.673   4.120   4.555 -0.1352 -0.4147 -0.1688
  139OSM    H1S15060   0.652   4.222   4.592 -2.1255 -1.6187  2.3019
  139OSM    H1T15061   0.775   4.114   4.512  0.2918  0.0140  0.7684
  139OSM     NF15062   0.756   4.082   4.783 -0.5516  0.3070  0.9411
  139OSM    HNF15063   0.842   4.035   4.804  0.0961 -0.0253 -1.9964
  139OSM    C2S15064   0.667   4.025   4.678  0.1520  0.3765  0.1944
  139OSM    H2S15065   0.559   4.028   4.704  0.3070  0.0535  0.8737
  139OSM    C3S15066   0.698   3.877   4.641 -0.9019 -0.3021  0.4006
  139OSM    H3S15067   0.804   3.878   4.608 -0.9711  1.9645  0.0863
  139OSM     O315068   0.626   3.833   4.529 -0.2934  0.2198  0.4450
  139OSM    HO315069   0.606   3.920   4.493  1.3955 -0.4748 -2.4601
  139OSM    C4S15070   0.693   3.802   4.774 -0.3867  0.0216 -0.4670
  139OSM    H4S15071   0.790   3.782   4.822 -0.9642 -0.0287  0.7181
  139OSM    C5S15072   0.591   3.755   4.846 -0.4247 -0.3906  0.2012
  139OSM    H5S15073   0.490   3.758   4.803  0.3323  0.4971 -1.6122
  139OSM    C6S15074   0.594   3.693   4.978 -0.4594  0.1713 -0.0578
  139OSM    H6S15075   0.567   3.587   4.961 -3.1944  0.8266 -0.2690
  139OSM    H6T15076   0.508   3.734   5.036 -2.1538 -0.3777 -2.0689
  139OSM    C7S15077   0.715   3.707   5.072  0.0931 -0.0118  0.5873
  139OSM    H7S15078   0.727   3.814   5.100 -1.2971 -0.1021  1.6463
  139OSM    H7T15079   0.797   3.666   5.008 -0.9990 -2.4327  0.6036
  139OSM    C8S15080   0.700   3.619   5.196 -0.9759  0.2647 -0.3493
  139OSM    H8S15081   0.709   3.516   5.157  1.6137  0.4316 -0.3781
  139OSM    H8T15082   0.603   3.636   5.248 -2.0330 -1.3347 -1.7131
  139OSM    C9S15083   0.823   3.641   5.292 -0.6967  0.7440 -0.1241
  139OSM    H9S15084   0.824   3.746   5.326  0.2311 -0.1023  2.6758
  139OSM    H9T15085   0.908   3.598   5.235  0.7869  0.4185  2.2324
  139OSM   C10S15086   0.814   3.556   5.424 -1.2208 -0.2005 -0.0717
  139OSM   H10S15087   0.831   3.448   5.405  0.7960 -0.2294  1.4841
  139OSM   H10T15088   0.714   3.571   5.470 -1.6131  1.3527 -1.3127
  139OSM   C11S15089   0.914   3.607   5.528  0.0432  0.1740  0.0838
  139OSM   H11S15090   0.907   3.716   5.548  2.0568  0.0647  1.8310
  139OSM   H11T15091   1.021   3.599   5.498  0.0147 -0.1065  0.0588
  139OSM   C12S15092   0.885   3.549   5.671  0.0665  0.8321 -0.0289
  139OSM   H12S15093   0.901   3.439   5.676  2.2166  0.8897 -2.7377
  139OSM   H12T15094   0.783   3.582   5.699  1.0592  2.4888  1.9047
  139OSM   C13S15095   0.978   3.609   5.784  0.7465  0.1740  0.2147
  139OSM   H13S15096   0.927   3.706   5.799  1.2311  0.2051  1.7620
  139OSM   H13T15097   1.084   3.621   5.752  0.9396  1.0942  1.1596
  139OSM   C14S15098   0.963   3.533   5.910 -0.3956  0.3350 -0.1394
  139OSM   H14S15099   1.031   3.445   5.903 -3.9336 -2.6062 -0.8354
  139OSM   H14T15100   0.862   3.487   5.910 -0.3987  0.2500 -2.1907
  139OSM   C15S15101   1.009   3.611   6.031  0.1790 -0.4799  0.5382
  139OSM   H15S15102   0.968   3.713   6.044  1.0711  0.1406 -1.1387
  139OSM   H15T15103   1.119   3.625   6.018 -0.2369  1.2642 -1.7776
  139OSM   C16S15104   0.977   3.547   6.172 -0.2918  0.2060  0.2654
  139OSM   H16S15105   1.028   3.450   6.190 -0.5067 -0.3406 -1.7901
  139OSM   H16T15106   0.869   3.521   6.169  0.1231 -1.6524  0.1212
  139OSM   C17S15107   1.032   3.622   6.293  0.1687 -0.2282  0.0502
  139OSM   H17S15108   0.997   3.728   6.289 -2.2579 -1.0112 -2.1571
  139OSM   H17T15109   1.143   3.623   6.290  0.2752 -0.8520  1.9631
  139OSM   C18S15110   1.001   3.563   6.429  0.1926  0.1807  0.8871
  139OSM   H18S15111   1.085   3.494   6.452  1.0462  0.0188 -2.2322
  139OSM   H18T15112   0.906   3.505   6.428  0.5561 -0.4349  1.1837
  139OSM   H18U15113   1.000   3.637   6.512  0.8707  0.5871  0.5389
  139OSM    C1F15114   0.720   4.189   4.852 -0.3716 -0.6334  0.1615
  139OSM     OF15115   0.614   4.243   4.822  0.4581 -0.4850  0.0194
  139OSM    C2F15116   0.802   4.225   4.969 -0.3335 -0.0213 -0.2876
  139OSM    H2F15117   0.800   4.335   4.986  1.2871  0.1418 -0.9770
  139OSM    H2G15118   0.908   4.197   4.953 -0.6028 -0.9241 -0.5735
  139OSM    C3F15119   0.756   4.156   5.099 -0.6779  0.1056 -0.5929
  139OSM    H3F15120   0.768   4.047   5.080  0.6840 -0.3753  2.4919
  139OSM    H3G15121   0.650   4.178   5.125 -0.0489  2.2890  0.3316
  139OSM    C4F15122   0.859   4.190   5.210  0.5333 -0.1806 -0.0675
  139OSM    H4F15123   0.856   4.301   5.214  0.4812 -0.1295 -1.3149
  139OSM    H4G15124   0.960   4.155   5.178  0.8091 -0.9118  1.4808
  139OSM    C5F15125   0.822   4.130   5.347  0.6827  0.1067  0.3065
  139OSM    H5F15126   0.814   4.021   5.326 -0.3389  0.5143 -1.5766
  139OSM    H5G15127   0.730   4.176   5.388  1.1158 -0.5984  2.1848
  139OSM    C6F15128   0.920   4.148   5.457 -0.4882  0.2854  1.2811
  139OSM    H6F15129   0.938   4.256   5.475 -2.2023  0.8801 -0.2462
  139OSM    H6G15130   1.016   4.109   5.418 -0.1644  1.7392  0.5410
  139OSM    C7F15131   0.876   4.073   5.585 -0.0673  0.9056 -0.1778
  139OSM    H7F15132   0.905   3.966   5.591 -2.4539  0.2256  0.1971
  139OSM    H7G15133   0.765   4.077   5.579 -0.2599  0.4713  2.2309
  139OSM    C8F15134   0.931   4.126   5.717  0.0884 -0.5304 -0.0977
  139OSM    H8F15135   0.890   4.065   5.800  0.6476 -1.7032 -0.6539
  139OSM    H8G15136   0.893   4.228   5.739 -2.3993 -1.3553 -0.3412
  139OSM    C9F15137   1.081   4.126   5.710 -0.0155 -0.7141  0.8609
  139OSM    H9F15138   1.128   4.184   5.629 -0.2206 -2.7596 -0.8077
  139OSM   C10F15139   1.155   4.041   5.782 -0.0245 -0.2091 -0.2386
  139OSM   H10F15140   1.261   4.062   5.761 -0.1615  2.9200  1.6352
  139OSM   C11F15141   1.120   3.933   5.877  0.3445  0.1236 -0.3804
  139OSM   H11F15142   1.131   3.835   5.826  0.5761  0.7102 -1.4937
  139OSM   H11G15143   1.013   3.931   5.908 -0.4097  0.7260 -2.6909
  139OSM   C12F15144   1.203   3.936   6.004 -0.0397 -0.3704  0.1766
  139OSM   H12F15145   1.310   3.924   5.977  0.7824  3.7600  0.8471
  139OSM   H12G15146   1.168   3.848   6.063 -0.6579  0.3893  0.9812
  139OSM   C13F15147   1.190   4.071   6.090  0.9673 -0.3780  0.3038
  139OSM   H13F15148   1.080   4.084   6.099  0.8874 -0.2657 -0.6890
  139OSM   H13G15149   1.210   4.163   6.032  0.4621 -1.6430 -2.0007
  139OSM   C14F15150   1.256   4.069   6.227  0.2961  0.5055 -0.6051
  139OSM   H14F15151   1.269   4.173   6.263  0.1900 -0.0353  1.0687
  139OSM   H14G15152   1.361   4.034   6.224  0.7261  1.7688 -0.9213
  139OSM   C15F15153   1.183   3.979   6.328 -0.1799 -0.5599 -0.4988
  139OSM   H15F15154   1.185   3.879   6.280  0.6223 -0.8720  0.1612
  139OSM   H15G15155   1.075   4.002   6.341 -0.4792 -2.2494  0.2875
  139OSM   C16F15156   1.254   3.978   6.466  0.0151  0.4072  0.2811
  139OSM   H16F15157   1.264   4.080   6.508 -2.0211  0.3362  1.0169
  139OSM   H16G15158   1.358   3.943   6.448 -0.0603  1.3163 -2.4508
  139OSM   C17F15159   1.187   3.881   6.566 -0.1111 -0.6971  0.1894
  139OSM   H17F15160   1.162   3.781   6.523 -1.4359 -0.9241  1.4006
  139OSM   H17G15161   1.089   3.930   6.581  0.2410  0.3838 -0.8864
  139OSM   C18F15162   1.257   3.869   6.701 -0.5172  0.0361  0.3826
  139OSM   H18F15163   1.367   3.867   6.687 -0.2274  4.1340  0.8030
  139OSM   H18G15164   1.224   3.785   6.766  0.3746  0.7118  1.7888
  139OSM   H18H15165   1.232   3.964   6.753 -1.2211  0.4802 -0.7556
  140OSM      N15166   3.106   1.282   4.327 -0.5632  0.1844 -0.1536
  140OSM    C1515167   2.965   1.299   4.368 -0.1179  0.3940  0.1992
  140OSM   H15A15168   2.908   1.362   4.303 -0.5480  1.1107  1.2500
  140OSM   H15B15169   2.949   1.336   4.468  0.5075 -0.9784  0.8452
  140OSM   H15C15170   2.917   1.202   4.367 -4.1686  2.2129  0.3414
  140OSM    C1415171   3.106   1.192   4.205 -0.1972  0.1821  0.3209
  140OSM   H14A15172   3.059   1.235   4.118  1.3742  0.6747 -0.3218
  140OSM   H14B15173   3.064   1.096   4.228 -0.3192  0.7355  2.6610
  140OSM   H14C15174   3.207   1.172   4.173 -1.3507 -0.3043 -3.5353
  140OSM    C1315175   3.164   1.409   4.294  0.4957 -0.9955  0.1705
  140OSM   H13A15176   3.140   1.479   4.373 -1.4039 -0.0904 -1.1339
  140OSM   H13B15177   3.108   1.459   4.216  0.4287  0.7939  1.2998
  140OSM   H13C15178   3.268   1.401   4.267  0.1345  0.1332 -1.6837
  140OSM    C1215179   3.188   1.217   4.439  0.4494 -0.2940 -0.3495
  140OSM   H12A15180   3.184   1.281   4.526  1.4560 -0.8052  0.0775
  140OSM   H12B15181   3.294   1.223   4.419  0.5896 -2.5456 -0.4845
  140OSM    C1115182   3.144   1.075   4.486  0.1544 -0.5697  0.0545
  140OSM   H11A15183   3.035   1.079   4.505  0.1341  0.2449 -0.1992
  140OSM   H11B15184   3.181   1.054   4.589  1.5894  0.1981 -0.2801
  140OSM      P15185   3.116   0.845   4.387  0.3077  0.1646  0.1384
  140OSM    O1315186   3.008   0.863   4.289  0.4357 -0.1184 -0.1422
  140OSM    O1415187   3.220   0.747   4.352  0.2364  0.6992 -0.1708
  140OSM    O1115188   3.060   0.802   4.529  0.2812  0.9663  0.2594
  140OSM    O1215189   3.198   0.972   4.405  0.4795 -0.3996 -0.2096
  140OSM    C1S15190   3.146   0.776   4.643  0.3610 -0.3109 -0.0797
  140OSM    H1S15191   3.233   0.845   4.644 -0.0099  0.1713  1.2180
  140OSM    H1T15192   3.194   0.676   4.641  3.3722  1.0010  0.6615
  140OSM     NF15193   3.169   0.790   4.888 -0.6291  0.4755  0.2811
  140OSM    HNF15194   3.189   0.698   4.923  2.7713  1.5203  1.4537
  140OSM    C2S15195   3.080   0.797   4.782  0.3139 -0.1139  0.6292
  140OSM    H2S15196   3.041   0.900   4.769 -1.1165 -0.6530  0.4836
  140OSM    C3S15197   2.957   0.697   4.777 -0.7692  0.5082  0.6233
  140OSM    H3S15198   2.988   0.601   4.731 -0.2793  1.6446 -1.5521
  140OSM     O315199   2.853   0.738   4.687  0.3675 -0.0771 -0.0429
  140OSM    HO315200   2.907   0.766   4.612  1.3489  2.4298  1.4716
  140OSM    C4S15201   2.902   0.671   4.918  0.8740  0.0307  0.1319
  140OSM    H4S15202   2.856   0.761   4.961 -0.8572 -1.6929  2.0826
  140OSM    C5S15203   2.924   0.558   4.994  0.0935  0.0431  0.7198
  140OSM    H5S15204   2.971   0.471   4.946 -0.6188  0.5001 -0.8477
  140OSM    C6S15205   2.884   0.544   5.138  0.4482 -0.4305 -0.4826
  140OSM    H6S15206   2.934   0.463   5.196 -3.6263 -1.2485  2.2817
  140OSM    H6T15207   2.781   0.504   5.130 -0.2373  0.4263  2.6910
  140OSM    C7S15208   2.896   0.668   5.239  0.0077 -0.5690 -0.4043
  140OSM    H7S15209   2.850   0.763   5.204 -0.7844 -1.3198 -1.4635
  140OSM    H7T15210   3.005   0.688   5.239  0.0237 -0.6565 -0.1085
  140OSM    C8S15211   2.846   0.631   5.376  0.3628 -1.1612 -0.3723
  140OSM    H8S15212   2.876   0.527   5.403 -0.1068 -1.3088 -0.4033
  140OSM    H8T15213   2.736   0.622   5.363  0.3798 -0.9242 -0.6991
  140OSM    C9S15214   2.891   0.733   5.478  0.0057  0.6082  0.0805
  140OSM    H9S15215   2.900   0.833   5.431  1.4411  0.1554 -0.6541
  140OSM    H9T15216   2.988   0.698   5.518 -0.3343  0.2425  0.6049
  140OSM   C10S15217   2.794   0.729   5.599  0.9598  0.2872 -0.4016
  140OSM   H10S15218   2.787   0.621   5.625 -0.2320  0.8898  2.1213
  140OSM   H10T15219   2.689   0.760   5.579  0.8755 -1.0295 -2.2730
  140OSM   C11S15220   2.849   0.810   5.718  0.5768 -0.5285 -0.2279
  140OSM   H11S15221   2.831   0.920   5.718 -1.9075 -0.8882 -0.1307
  140OSM   H11T15222   2.957   0.788   5.734  0.9935  2.5381  2.0417
  140OSM   C12S15223   2.790   0.749   5.848  0.5278  0.0106 -0.3610
  140OSM   H12S15224   2.812   0.640   5.855 -1.1106 -0.2564  1.5427
  140OSM   H12T15225   2.679   0.752   5.854  0.6187  1.4095  3.7870
  140OSM   C13S15226   2.846   0.819   5.973  0.5654 -0.3596  0.1501
  140OSM   H13S15227   2.838   0.930   5.963  1.1365 -0.4705 -1.8314
  140OSM   H13T15228   2.954   0.798   5.978  0.7085  0.4255  0.5220
  140OSM   C14S15229   2.793   0.759   6.112  0.0849 -0.3009  0.4061
  140OSM   H14S15230   2.682   0.759   6.108  0.1287 -0.9687 -1.9517
  140OSM   H14T15231   2.833   0.819   6.197  1.6708 -2.1489  1.0341
  140OSM   C15S15232   2.830   0.610   6.122 -0.4950  0.4237 -0.4207
  140OSM   H15S15233   2.940   0.596   6.107 -0.2260 -0.5919  2.1573
  140OSM   H15T15234   2.796   0.552   6.033 -0.3909  1.2869 -1.0389
  140OSM   C16S15235   2.811   0.559   6.267 -0.0277  0.1718 -0.5124
  140OSM   H16S15236   2.862   0.633   6.332 -0.3544  0.0006 -0.0487
  140OSM   H16T15237   2.856   0.459   6.283  1.2003  0.8640  0.5964
  140OSM   C17S15238   2.666   0.566   6.302 -0.5251  0.1464 -0.6189
  140OSM   H17S15239   2.599   0.516   6.230 -0.5186  0.3279 -0.7547
  140OSM   H17T15240   2.628   0.671   6.304 -1.0082  0.0230  2.6504
  140OSM   C18S15241   2.646   0.505   6.440  0.0907 -0.9512  0.1892
  140OSM   H18S15242   2.536   0.494   6.441 -0.0422  0.2701  0.1568
  140OSM   H18T15243   2.678   0.568   6.526 -2.1901  2.0490 -0.9970
  140OSM   H18U15244   2.695   0.406   6.449  2.7021  0.0741 -1.3520
  140OSM    C1F15245   3.260   0.884   4.914  0.0219  0.0598  0.7782
  140OSM     OF15246   3.256   0.989   4.853  0.9697  0.0049 -0.1518
  140OSM    C2F15247   3.366   0.860   5.013 -0.4897 -0.0728 -0.1354
  140OSM    H2F15248   3.458   0.819   4.966  0.1948 -0.2921  1.3334
  140OSM    H2G15249   3.327   0.796   5.095 -0.8940 -1.6726 -1.5210
  140OSM    C3F15250   3.421   0.983   5.088  0.0300 -0.5252  0.2529
  140OSM    H3F15251   3.462   1.055   5.014 -2.8528  1.4521  0.4138
  140OSM    H3G15252   3.503   0.953   5.157  2.0232 -2.1436 -2.6024
  140OSM    C4F15253   3.310   1.059   5.164  0.5579  0.9378  0.8991
  140OSM    H4F15254   3.238   1.097   5.090  0.3253 -0.7929  0.1829
  140OSM    H4G15255   3.347   1.156   5.202 -1.0710  2.2753 -0.7386
  140OSM    C5F15256   3.237   0.981   5.275 -0.6351  0.4113 -0.2885
  140OSM    H5F15257   3.210   0.881   5.235  1.9046  0.8770 -3.5743
  140OSM    H5G15258   3.136   1.028   5.283 -0.3304  0.7829  2.5980
  140OSM    C6F15259   3.328   0.997   5.401  0.2570 -0.2936  0.1533
  140OSM    H6F15260   3.438   0.988   5.389  0.3397 -0.1354  0.7521
  140OSM    H6G15261   3.315   0.903   5.459  1.7265  0.2058  1.3471
  140OSM    C7F15262   3.299   1.121   5.489 -0.2447 -0.3920  0.3821
  140OSM    H7F15263   3.296   1.218   5.436 -2.1603 -0.7936 -0.3328
  140OSM    H7G15264   3.374   1.115   5.571 -0.7465 -0.0288  0.8719
  140OSM    C8F15265   3.157   1.121   5.562 -1.1772  0.2706  0.3871
  140OSM    H8F15266   3.081   1.145   5.485  0.0862  0.4429 -0.8490
  140OSM    H8G15267   3.152   1.214   5.623  0.0502 -0.5446  1.8185
  140OSM    C9F15268   3.145   1.000   5.657 -0.6925 -0.0740  0.2828
  140OSM    H9F15269   3.086   0.918   5.614 -1.5072  0.6029  0.0802
  140OSM   C10F15270   3.219   0.968   5.768  0.2471  0.1506  0.5665
  140OSM   H10F15271   3.206   0.877   5.828 -1.2293  1.0094  1.6328
  140OSM   C11F15272   3.319   1.060   5.832  0.2637 -0.0320  0.2539
  140OSM   H11F15273   3.315   1.162   5.787 -0.8344 -0.3954 -0.5105
  140OSM   H11G15274   3.428   1.038   5.827  0.6821  1.9681 -0.7684
  140OSM   C12F15275   3.283   1.076   5.984 -0.2927  0.0284  0.3883
  140OSM   H12F15276   3.233   0.986   6.025 -0.5913  0.6275  1.3715
  140OSM   H12G15277   3.209   1.158   5.979 -0.9703 -0.5919 -0.0389
  140OSM   C13F15278   3.410   1.112   6.073  0.0328 -0.7335  0.3915
  140OSM   H13F15279   3.472   1.201   6.051  2.4765 -2.1448  1.1713
  140OSM   H13G15280   3.469   1.018   6.065 -0.3672 -1.0982  1.5403
  140OSM   C14F15281   3.380   1.138   6.217 -0.6086  0.8543  0.0228
  140OSM   H14F15282   3.316   1.050   6.239  0.1807 -0.1528 -1.5114
  140OSM   H14G15283   3.336   1.235   6.250 -0.7945  0.8071 -0.0881
  140OSM   C15F15284   3.506   1.131   6.308  0.0503  0.0645  0.6044
  140OSM   H15F15285   3.557   1.229   6.323  0.9384  0.1062 -2.1517
  140OSM   H15G15286   3.581   1.059   6.270  0.9334 -0.6098  3.3594
  140OSM   C16F15287   3.465   1.083   6.446  0.6235  0.7066 -0.0171
  140OSM   H16F15288   3.433   0.977   6.452  2.0585  0.2486  0.1801
  140OSM   H16G15289   3.383   1.146   6.486 -0.3740  0.4425 -1.5994
  140OSM   C17F15290   3.578   1.099   6.550  0.2250  0.8595  0.4923
  140OSM   H17F15291   3.669   1.065   6.497 -0.2528  1.6219 -0.8607
  140OSM   H17G15292   3.549   1.015   6.617 -0.7331 -1.3107 -2.4080
  140OSM   C18F15293   3.591   1.245   6.595 -0.7654 -0.5531  0.3149
  140OSM   H18F15294   3.673   1.255   6.670  0.8434  1.7821 -1.6223
  140OSM   H18G15295   3.499   1.282   6.644 -0.5175 -0.7869  0.9777
  140OSM   H18H15296   3.613   1.316   6.513  0.3332  0.8659  1.7492
  141OSM      N15297   5.727   6.656   4.788  0.2109 -0.2280  0.7729
  141OSM    C1515298   5.625   6.614   4.688 -1.0187  0.4209  0.3236
  141OSM   H15A15299   5.527   6.590   4.725 -1.8356 -1.2586 -2.5654
  141OSM   H15B15300   5.647   6.532   4.621  0.8947  0.6523  0.6193
  141OSM   H15C15301   5.619   6.695   4.617  2.3032 -0.6450 -1.4001
  141OSM    C1415302   5.861   6.678   4.718  0.4889 -0.4749 -0.4535
  141OSM   H14A15303   5.865   6.758   4.645 -0.6952 -0.0197 -0.0373
  141OSM   H14B15304   5.891   6.580   4.685  0.7636 -0.1448 -1.2182
  141OSM   H14C15305   5.940   6.695   4.791 -0.0265  1.5646 -0.3158
  141OSM    C1315306   5.678   6.793   4.836 -0.6640 -0.0270  0.4251
  141OSM   H13A15307   5.580   6.782   4.879 -1.0862  1.4130 -0.0963
  141OSM   H13B15308   5.676   6.861   4.751 -0.4650  1.1600  1.3431
  141OSM   H13C15309   5.742   6.846   4.905 -0.7440  1.3702 -0.5209
  141OSM    C1215310   5.745   6.547   4.899 -0.2962 -0.2249 -0.9362
  141OSM   H12A15311   5.766   6.457   4.843  1.2502  0.2369 -1.1490
  141OSM   H12B15312   5.651   6.538   4.951 -0.3628 -0.2254 -1.0541
  141OSM    C1115313   5.852   6.575   5.002 -0.7932 -0.0461 -0.2038
  141OSM   H11A15314   5.836   6.515   5.094 -0.2395  0.2584  0.1002
  141OSM   H11B15315   5.853   6.678   5.044  2.8766 -0.7116  1.8245
  141OSM      P15316   6.044   6.414   4.937 -0.4090  0.1063 -0.0554
  141OSM    O1315317   5.949   6.341   4.851 -0.0605  0.0450  0.1539
  141OSM    O1415318   6.183   6.426   4.886  0.2219  0.0411  0.1403
  141OSM    O1115319   6.051   6.357   5.078 -0.3837  0.0349  0.2422
  141OSM    O1215320   5.984   6.561   4.949  0.0867 -0.4380  0.1806
  141OSM    C1S15321   6.119   6.432   5.187  0.5363  0.4299  0.7427
  141OSM    H1S15322   6.046   6.506   5.228 -0.3508  0.3022 -0.5370
  141OSM    H1T15323   6.212   6.483   5.154  0.9077 -1.4118 -1.1997
  141OSM     NF15324   6.205   6.411   5.406 -0.0341 -0.2547 -0.1917
  141OSM    HNF15325   6.303   6.427   5.402 -0.1680  0.5143 -0.5727
  141OSM    C2S15326   6.152   6.331   5.301 -0.8428  0.6005 -0.0544
  141OSM    H2S15327   6.062   6.280   5.341 -0.9482  1.1928  0.4896
  141OSM    C3S15328   6.250   6.223   5.247  0.3304 -0.4738  0.7999
  141OSM    H3S15329   6.339   6.277   5.207  1.1464  0.1153  3.2372
  141OSM     O315330   6.208   6.145   5.133  0.3733  0.6970 -0.0297
  141OSM    HO315331   6.116   6.174   5.132  0.0474 -0.2802  0.3152
  141OSM    C4S15332   6.300   6.136   5.366  0.7914 -0.9187  0.3567
  141OSM    H4S15333   6.374   6.190   5.428  0.5651 -0.2665  0.0680
  141OSM    C5S15334   6.251   6.015   5.405  0.7028  0.1876 -0.9000
  141OSM    H5S15335   6.160   5.972   5.360 -2.1482  2.0977  2.4809
  141OSM    C6S15336   6.294   5.936   5.524  0.3731 -0.0333  0.3594
  141OSM    H6S15337   6.405   5.929   5.520  0.4523 -0.9367  2.4025
  141OSM    H6T15338   6.249   5.835   5.508  2.3875 -0.6593 -1.8766
  141OSM    C7S15339   6.266   5.997   5.665  0.0412 -0.3097  0.4668
  141OSM    H7S15340   6.158   6.020   5.651  0.3074 -0.4786 -2.4958
  141OSM    H7T15341   6.316   6.096   5.665 -1.2089  0.3516  0.0571
  141OSM    C8S15342   6.302   5.926   5.793 -0.6177  0.3849  0.6622
  141OSM    H8S15343   6.413   5.930   5.792 -0.4794 -2.1417 -0.3576
  141OSM    H8T15344   6.267   5.821   5.794 -0.3287  0.2284 -1.2708
  141OSM    C9S15345   6.260   5.991   5.925 -0.1509  0.1542  0.2295
  141OSM    H9S15346   6.150   6.005   5.911 -0.0295  0.9909  0.0740
  141OSM    H9T15347   6.309   6.089   5.942 -0.1939 -0.3116  4.0303
  141OSM   C10S15348   6.303   5.896   6.041 -0.3601 -0.2719 -0.0891
  141OSM   H10S15349   6.414   5.886   6.044 -0.3548 -0.6113 -1.0062
  141OSM   H10T15350   6.261   5.794   6.027 -1.2191 -0.0923  1.0704
  141OSM   C11S15351   6.257   5.956   6.174  0.3019 -0.0546  0.3721
  141OSM   H11S15352   6.172   6.026   6.157  1.8064  1.9226  0.5833
  141OSM   H11T15353   6.333   6.025   6.216 -1.2583  1.0165  1.5912
  141OSM   C12S15354   6.226   5.848   6.284 -0.5153 -0.3263  0.4602
  141OSM   H12S15355   6.313   5.780   6.294 -2.0490 -2.1754  2.1456
  141OSM   H12T15356   6.135   5.788   6.260  1.1839 -3.1819  0.7299
  141OSM   C13S15357   6.208   5.913   6.422 -0.2902  0.0249  0.0620
  141OSM   H13S15358   6.101   5.909   6.451 -0.5998 -1.9898 -1.1216
  141OSM   H13T15359   6.229   6.021   6.415 -0.4109  0.0821  0.5673
  141OSM   C14S15360   6.298   5.851   6.530  0.1904 -0.2113  0.3847
  141OSM   H14S15361   6.408   5.850   6.513  0.3471 -3.2993  0.9936
  141OSM   H14T15362   6.272   5.743   6.533  1.8922 -0.6324  1.6619
  141OSM   C15S15363   6.275   5.929   6.664 -0.4023  0.4972  0.5516
  141OSM   H15S15364   6.176   5.908   6.708  0.4793  2.0680  3.5312
  141OSM   H15T15365   6.269   6.038   6.641 -0.1015  0.4752  0.3525
  141OSM   C16S15366   6.374   5.867   6.767  0.6134 -0.5097  0.1466
  141OSM   H16S15367   6.479   5.872   6.732  0.2726  0.6165 -0.7660
  141OSM   H16T15368   6.356   5.757   6.774  0.5107 -0.7060 -2.2917
  141OSM   C17S15369   6.387   5.921   6.907  0.2573  0.2835 -0.4737
  141OSM   H17S15370   6.289   5.955   6.947  0.7726  0.0842  1.0395
  141OSM   H17T15371   6.446   6.014   6.896  1.8479 -0.6222 -0.0163
  141OSM   C18S15372   6.464   5.828   7.004 -0.3938  0.1705 -0.5928
  141OSM   H18S15373   6.541   5.887   7.058  0.9963 -1.7313 -0.3809
  141OSM   H18T15374   6.523   5.754   6.946  0.1901 -1.6794  2.1390
  141OSM   H18U15375   6.399   5.784   7.083  0.2224  1.0745  0.4637
  141OSM    C1F15376   6.124   6.480   5.491 -0.2415 -0.3020  0.6826
  141OSM     OF15377   6.006   6.480   5.477 -0.4257  0.2355  0.0138
  141OSM    C2F15378   6.191   6.564   5.592 -0.3418  0.2283  0.2561
  141OSM    H2F15379   6.150   6.664   5.564 -1.5113 -0.1434  0.5902
  141OSM    H2G15380   6.301   6.569   5.574 -0.3446  1.1544  0.4625
  141OSM    C3F15381   6.161   6.535   5.738  0.0811  1.1824  0.8089
  141OSM    H3F15382   6.227   6.458   5.784  0.9846  0.5884 -1.3514
  141OSM    H3G15383   6.059   6.490   5.745  0.1053  1.0072  0.0942
  141OSM    C4F15384   6.162   6.666   5.818  0.7530 -0.1074  0.4693
  141OSM    H4F15385   6.087   6.727   5.763  1.2132 -1.4341 -1.7584
  141OSM    H4G15386   6.261   6.714   5.812  0.1089  1.3192  0.7442
  141OSM    C5F15387   6.129   6.640   5.971 -0.5439 -0.2522 -0.0316
  141OSM    H5F15388   6.213   6.581   6.013 -1.2898 -0.4137  1.2530
  141OSM    H5G15389   6.034   6.585   5.982 -0.4968 -0.7957 -1.9276
  141OSM    C6F15390   6.121   6.764   6.056  0.1208 -0.5707 -0.4316
  141OSM    H6F15391   6.050   6.826   5.999  1.1792 -0.6394 -1.8688
  141OSM    H6G15392   6.220   6.814   6.068  0.6456 -1.5392 -0.6358
  141OSM    C7F15393   6.067   6.738   6.197 -0.3967  0.2449  0.6204
  141OSM    H7F15394   6.137   6.665   6.243  0.1264 -0.1126 -0.7121
  141OSM    H7G15395   5.972   6.682   6.201 -0.5104  0.2495 -1.2025
  141OSM    C8F15396   6.068   6.871   6.282 -1.1248 -1.1045 -0.1417
  141OSM    H8F15397   5.984   6.938   6.255 -2.7859 -3.6688 -1.8237
  141OSM    H8G15398   6.165   6.922   6.268 -1.1577 -1.3986 -1.5769
  141OSM    C9F15399   6.071   6.829   6.432  0.4467 -0.2080 -0.6697
  141OSM    H9F15400   6.028   6.735   6.468 -1.0239  1.5730  2.6674
  141OSM   C10F15401   6.114   6.899   6.541 -0.0283  0.5356  0.2932
  141OSM   H10F15402   6.102   6.851   6.640 -0.0112 -0.9157 -0.3790
  141OSM   C11F15403   6.165   7.042   6.536 -0.8296 -0.2017  0.1738
  141OSM   H11F15404   6.145   7.104   6.626  1.5557  0.6051  0.2118
  141OSM   H11G15405   6.108   7.099   6.460  0.6750  0.7421 -0.2946
  141OSM   C12F15406   6.314   7.051   6.493 -0.3239  0.2617 -0.0630
  141OSM   H12F15407   6.340   7.158   6.479  0.7630 -0.1492 -1.3542
  141OSM   H12G15408   6.324   7.007   6.392 -0.7858  0.6347 -0.2816
  141OSM   C13F15409   6.420   7.011   6.601  0.4427  0.0986  0.5566
  141OSM   H13F15410   6.517   7.015   6.546 -0.2453  3.5464 -0.6747
  141OSM   H13G15411   6.401   6.903   6.620  0.0078  0.2870  1.2566
  141OSM   C14F15412   6.414   7.093   6.730  0.0931 -0.1721  0.0984
  141OSM   H14F15413   6.319   7.066   6.779 -0.7615  1.2322 -0.7153
  141OSM   H14G15414   6.393   7.192   6.683 -5.5830 -0.3373  1.6384
  141OSM   C15F15415   6.530   7.064   6.827 -0.0451  0.7707  0.8466
  141OSM   H15F15416   6.518   7.137   6.910  0.5436  2.0435 -0.1580
  141OSM   H15G15417   6.631   7.088   6.788  0.4707 -0.1961  1.5537
  141OSM   C16F15418   6.544   6.920   6.884  0.0317  0.3163  0.6484
  141OSM   H16F15419   6.539   6.847   6.800 -1.1759 -1.3041  2.0718
  141OSM   H16G15420   6.461   6.900   6.954  1.1341  2.2300  2.6168
  141OSM   C17F15421   6.675   6.901   6.955  0.0595 -1.2245 -0.5236
  141OSM   H17F15422   6.755   6.960   6.906 -1.3492  0.6473 -0.7034
  141OSM   H17G15423   6.698   6.792   6.957 -0.3744 -1.3118  0.0958
  141OSM   C18F15424   6.665   6.938   7.106 -0.0560  0.3234  0.0710
  141OSM   H18F15425   6.738   6.880   7.167  0.4340 -1.0423 -1.7053
  141OSM   H18G15426   6.563   6.911   7.140 -0.0360  2.2501  1.8827
  141OSM   H18H15427   6.676   7.047   7.121  3.1340 -0.2436  3.3625
  142OSM      N15428   0.697   2.064   3.965  0.3604  0.6001 -0.2080
  142OSM    C1515429   0.594   2.169   3.972 -0.0804  0.3660 -0.4973
  142OSM   H15A15430   0.651   2.260   3.983 -0.3946  0.4940  0.1100
  142OSM   H15B15431   0.536   2.155   4.062 -0.3702  2.6545 -0.2820
  142OSM   H15C15432   0.528   2.172   3.887 -1.0457 -0.3065  0.2183
  142OSM    C1415433   0.753   2.062   3.822 -0.2048 -0.0740 -0.2439
  142OSM   H14A15434   0.792   2.159   3.792 -0.4054  0.1073  0.0689
  142OSM   H14B15435   0.681   2.019   3.754 -1.0422 -0.4235  0.8258
  142OSM   H14C15436   0.842   2.002   3.822  0.5613  0.7774  3.4361
  142OSM    C1315437   0.806   2.093   4.060 -0.2926 -0.0648  0.6761
  142OSM   H13A15438   0.883   2.020   4.040  1.0676  1.6719 -0.7322
  142OSM   H13B15439   0.779   2.092   4.165 -1.7779  1.5480  0.3457
  142OSM   H13C15440   0.853   2.186   4.034  0.2205 -0.8646 -1.4552
  142OSM    C1215441   0.638   1.929   3.993 -0.9617  0.3096 -0.1860
  142OSM   H12A15442   0.709   1.850   3.972 -1.2516 -0.3099  1.0902
  142OSM   H12B15443   0.547   1.921   3.935 -2.4053  1.0947  1.8708
  142OSM    C1115444   0.589   1.906   4.139 -0.6119  0.1067  0.4643
  142OSM   H11A15445   0.514   1.825   4.152  0.0451 -0.7960 -1.0548
  142OSM   H11B15446   0.538   1.998   4.174 -1.2585  0.6199 -1.6558
  142OSM      P15447   0.769   1.737   4.219  0.1364  0.1681  0.1201
  142OSM    O1315448   0.673   1.636   4.182 -0.4818  0.4282 -0.1031
  142OSM    O1415449   0.896   1.741   4.142 -0.2310  0.1938 -0.3799
  142OSM    O1115450   0.823   1.719   4.377 -0.2833 -0.5192 -0.1562
  142OSM    O1215451   0.701   1.878   4.226 -0.0593 -0.1611 -0.1683
  142OSM    C1S15452   0.927   1.808   4.421 -0.4320  0.5992 -0.7211
  142OSM    H1S15453   0.889   1.911   4.404 -1.2358  0.5088  0.4110
  142OSM    H1T15454   1.022   1.786   4.368  1.3803 -0.4684  2.6497
  142OSM     NF15455   1.046   1.899   4.611 -0.1307  0.8714 -0.0683
  142OSM    HNF15456   1.141   1.872   4.624 -0.1711  0.6275 -0.2756
  142OSM    C2S15457   0.958   1.793   4.574  0.9600  0.6274 -0.1971
  142OSM    H2S15458   0.859   1.807   4.624  1.2604  0.9321  0.3263
  142OSM    C3S15459   1.013   1.650   4.620 -0.1664 -0.9080 -0.2606
  142OSM    H3S15460   1.108   1.639   4.563 -0.2617 -0.7140 -0.4551
  142OSM     O315461   0.920   1.552   4.570 -0.3356 -0.1508 -0.0336
  142OSM    HO315462   0.881   1.604   4.499 -0.3498 -2.0069 -1.4740
  142OSM    C4S15463   1.033   1.631   4.770  0.4690  0.8346  0.4782
  142OSM    H4S15464   0.945   1.592   4.823  1.6749 -0.4325  1.6284
  142OSM    C5S15465   1.145   1.634   4.837 -0.1748  0.0124 -0.0387
  142OSM    H5S15466   1.241   1.636   4.785  0.9270  2.9293  1.8386
  142OSM    C6S15467   1.151   1.601   4.983 -0.3605 -0.5578  0.4545
  142OSM    H6S15468   1.113   1.688   5.041  1.0689  2.3002 -2.5214
  142OSM    H6T15469   1.259   1.599   5.008  0.2329  4.3436 -0.6044
  142OSM    C7S15470   1.083   1.476   5.032 -0.0863  1.3479 -0.2198
  142OSM    H7S15471   1.130   1.391   4.978  0.1777  0.4307  1.3859
  142OSM    H7T15472   0.973   1.471   5.016  0.2903 -0.0701 -2.9011
  142OSM    C8S15473   1.133   1.436   5.178  0.2614  0.5794  0.5086
  142OSM    H8S15474   1.077   1.500   5.249  0.9343  0.7349  0.9068
  142OSM    H8T15475   1.242   1.446   5.197 -0.3510  2.9191  3.5809
  142OSM    C9S15476   1.108   1.289   5.216 -0.2192 -0.2218  0.0499
  142OSM    H9S15477   1.181   1.234   5.153  1.7609 -0.0113  2.0203
  142OSM    H9T15478   1.005   1.268   5.179  0.1941 -2.0845 -0.1494
  142OSM   C10S15479   1.113   1.264   5.367 -0.3658  0.2802  0.1883
  142OSM   H10S15480   1.115   1.153   5.373  1.5866  0.2787  0.1565
  142OSM   H10T15481   1.020   1.305   5.412  0.7027  3.3602 -0.1309
  142OSM   C11S15482   1.237   1.315   5.447 -0.1728 -0.6682  0.6927
  142OSM   H11S15483   1.240   1.426   5.455  1.8770 -0.6097 -0.2341
  142OSM   H11T15484   1.321   1.295   5.377 -0.3299 -0.2280  0.3760
  142OSM   C12S15485   1.272   1.239   5.573  0.5743  0.1136 -0.4258
  142OSM   H12S15486   1.269   1.132   5.540  0.7732 -0.1124  0.2754
  142OSM   H12T15487   1.194   1.257   5.649  0.5228 -3.4498  0.5614
  142OSM   C13S15488   1.402   1.273   5.629 -0.9019 -0.6853 -0.7776
  142OSM   H13S15489   1.482   1.237   5.561  2.4484  1.4735  1.7385
  142OSM   H13T15490   1.408   1.219   5.725 -1.6879  2.0213  0.9042
  142OSM   C14S15491   1.429   1.424   5.658  0.2107  0.2015 -0.0450
  142OSM   H14S15492   1.428   1.492   5.570 -2.8171  0.3084 -0.0506
  142OSM   H14T15493   1.518   1.428   5.723 -0.6860  0.4729  1.2001
  142OSM   C15S15494   1.319   1.493   5.754 -0.1775 -0.3755  0.5023
  142OSM   H15S15495   1.260   1.409   5.797 -0.8436  0.3634  1.0641
  142OSM   H15T15496   1.247   1.560   5.703 -1.4181 -1.4819  0.7342
  142OSM   C16S15497   1.387   1.576   5.869  0.4713 -0.4806  0.4518
  142OSM   H16S15498   1.318   1.647   5.919  1.3304  0.4004  0.3901
  142OSM   H16T15499   1.468   1.639   5.829  0.0964  0.3244  0.9399
  142OSM   C17S15500   1.441   1.498   5.987 -0.2925 -0.1753  0.3094
  142OSM   H17S15501   1.537   1.448   5.961 -0.0148 -0.2760  1.4841
  142OSM   H17T15502   1.369   1.419   6.017 -1.2756  1.6965  3.2934
  142OSM   C18S15503   1.467   1.574   6.114 -0.2844  0.2042 -0.1919
  142OSM   H18S15504   1.493   1.515   6.205 -1.4775  2.2382  1.5809
  142OSM   H18T15505   1.375   1.631   6.142 -0.1769  0.1598  0.2581
  142OSM   H18U15506   1.535   1.661   6.099  0.5121 -0.3506  0.1486
  142OSM    C1F15507   1.011   2.023   4.610  0.3675  0.0162 -0.2135
  142OSM     OF15508   0.896   2.058   4.615 -0.0074  0.9742  0.0201
  142OSM    C2F15509   1.118   2.117   4.590 -0.4666  0.0550 -0.8370
  142OSM    H2F15510   1.214   2.071   4.561 -0.3290  0.4279 -0.9803
  142OSM    H2G15511   1.138   2.177   4.682  1.3073 -0.9329 -0.5411
  142OSM    C3F15512   1.079   2.230   4.491 -0.1642  0.3117  0.8517
  142OSM    H3F15513   0.980   2.270   4.520 -0.7851 -0.8962  0.4736
  142OSM    H3G15514   1.077   2.193   4.386 -1.1268  1.4584  0.4426
  142OSM    C4F15515   1.179   2.346   4.493 -0.2658 -0.9341 -0.5640
  142OSM    H4F15516   1.157   2.398   4.398 -0.2283  0.0786 -0.0336
  142OSM    H4G15517   1.282   2.305   4.490  0.1064 -0.1714  0.7499
  142OSM    C5F15518   1.150   2.448   4.602  1.3981 -0.2725 -0.2412
  142OSM    H5F15519   1.174   2.407   4.703  2.1175 -1.8849 -1.0289
  142OSM    H5G15520   1.041   2.466   4.592  1.3979 -0.5001 -0.6561
  142OSM    C6F15521   1.224   2.582   4.591  0.3914  1.1448  0.2377
  142OSM    H6F15522   1.187   2.632   4.499  0.4314  1.6881  0.5115
  142OSM    H6G15523   1.326   2.550   4.563 -0.1096  1.2381 -1.8747
  142OSM    C7F15524   1.210   2.665   4.716 -0.0514 -0.3743  0.3713
  142OSM    H7F15525   1.102   2.667   4.741 -0.2856 -2.7907 -0.2327
  142OSM    H7G15526   1.236   2.770   4.687 -1.6826  0.7739  2.8018
  142OSM    C8F15527   1.286   2.604   4.836 -0.1722 -0.6194  0.4303
  142OSM    H8F15528   1.259   2.500   4.861 -2.4533  0.5478  3.4250
  142OSM    H8G15529   1.257   2.659   4.928 -0.2985 -1.9719  1.2114
  142OSM    C9F15530   1.440   2.613   4.826  0.8109 -0.3506  0.0015
  142OSM    H9F15531   1.464   2.591   4.721  0.6395 -2.0090  0.2816
  142OSM   C10F15532   1.535   2.628   4.922  0.4405  0.2364 -0.3181
  142OSM   H10F15533   1.635   2.605   4.881  0.0551 -1.2907 -0.4630
  142OSM   C11F15534   1.521   2.667   5.069 -0.1075  0.7307  0.0649
  142OSM   H11F15535   1.604   2.611   5.117  0.8639  0.0224 -2.2577
  142OSM   H11G15536   1.424   2.634   5.112  0.1992  0.5086  0.5873
  142OSM   C12F15537   1.537   2.820   5.086  0.1716  0.1323  0.1844
  142OSM   H12F15538   1.450   2.864   5.032  1.2439 -0.1578 -1.8796
  142OSM   H12G15539   1.626   2.845   5.026 -0.1152  0.6652 -0.0236
  142OSM   C13F15540   1.541   2.877   5.228  0.2072 -0.4295  0.3243
  142OSM   H13F15541   1.547   2.987   5.213  0.5392 -0.4101  0.5940
  142OSM   H13G15542   1.630   2.850   5.288 -0.0107  2.3395  2.0710
  142OSM   C14F15543   1.420   2.842   5.306  1.1737  0.7277  0.5069
  142OSM   H14F15544   1.420   2.732   5.298  1.6597  0.5468  2.4577
  142OSM   H14G15545   1.326   2.887   5.267  1.8266  0.9197 -0.9183
  142OSM   C15F15546   1.442   2.869   5.457  0.6014 -0.1134 -0.1714
  142OSM   H15F15547   1.458   2.978   5.469 -0.9523  0.3160 -1.6057
  142OSM   H15G15548   1.537   2.820   5.487  0.3029 -2.4773 -2.6762
  142OSM   C16F15549   1.317   2.819   5.541 -0.1559 -0.2925 -0.6799
  142OSM   H16F15550   1.304   2.709   5.549 -1.2116 -0.0464  3.3013
  142OSM   H16G15551   1.228   2.863   5.491 -1.4890  0.1465  1.8954
  142OSM   C17F15552   1.329   2.879   5.684  0.0004  0.4033  0.3104
  142OSM   H17F15553   1.308   2.987   5.681 -1.0522  0.1826 -1.3773
  142OSM   H17G15554   1.431   2.846   5.714 -1.0413 -2.1545  1.3732
  142OSM   C18F15555   1.222   2.823   5.786  0.0338  0.4057  0.3075
  142OSM   H18F15556   1.121   2.847   5.748 -0.4179  1.6252  2.1655
  142OSM   H18G15557   1.227   2.869   5.886 -0.9312  0.6299  0.2580
  142OSM   H18H15558   1.245   2.714   5.797 -0.3807  0.1588 -1.0626
  143OSM      N15559   0.222   6.009   4.599 -0.5790  0.2060  0.1008
  143OSM    C1515560   0.088   5.992   4.535  0.2234  0.2376  0.2425
  143OSM   H15A15561   0.032   5.900   4.547 -0.1633  0.1000 -2.1594
  143OSM   H15B15562   0.104   6.003   4.429 -0.4467 -0.8276  0.0228
  143OSM   H15C15563   0.027   6.076   4.567  0.3039 -0.2360  1.7322
  143OSM    C1415564   0.315   5.905   4.543  0.2652 -0.2923 -0.0325
  143OSM   H14A15565   0.295   5.808   4.586  1.3032  0.3077  1.9103
  143OSM   H14B15566   0.419   5.931   4.554  0.5269 -1.5509  0.7295
  143OSM   H14C15567   0.298   5.913   4.437 -0.4981 -0.4174  0.0769
  143OSM    C1315568   0.275   6.138   4.549 -0.6234 -0.2840 -0.0863
  143OSM   H13A15569   0.225   6.222   4.594  1.6138  1.1977 -0.2125
  143OSM   H13B15570   0.282   6.150   4.442 -0.7905 -1.1812 -0.2034
  143OSM   H13C15571   0.379   6.143   4.578 -0.1380  1.8435 -1.9337
  143OSM    C1215572   0.217   6.011   4.750  0.0795  0.8203  0.0350
  143OSM   H12A15573   0.207   5.906   4.772  0.3062  0.9917  0.9775
  143OSM   H12B15574   0.122   6.054   4.776  0.4025  1.2228  0.5811
  143OSM    C1115575   0.339   6.066   4.836  0.9145 -0.2240  0.0736
  143OSM   H11A15576   0.428   6.010   4.801  1.4363  0.7428 -0.1841
  143OSM   H11B15577   0.311   6.031   4.938  0.7518  2.4982  1.0678
  143OSM      P15578   0.248   6.300   4.904 -0.2222 -0.0605 -0.7039
  143OSM    O1315579   0.294   6.440   4.901  0.1809  0.0908 -0.2783
  143OSM    O1415580   0.120   6.275   4.843  0.1231 -0.4722 -0.4061
  143OSM    O1115581   0.245   6.239   5.059  0.1711  0.4000  0.3370
  143OSM    O1215582   0.355   6.208   4.832 -0.2338 -0.0348 -0.2958
  143OSM    C1S15583   0.112   6.192   5.100 -0.0334  1.2732  0.1323
  143OSM    H1S15584   0.073   6.115   5.029  3.1636 -0.5847  0.2107
  143OSM    H1T15585   0.035   6.271   5.113 -0.3371  0.7454  1.9259
  143OSM     NF15586  -0.009   6.099   5.300 -0.5239 -0.7407  0.9179
  143OSM    HNF15587  -0.053   6.150   5.375 -2.0277 -1.5109  0.6077
  143OSM    C2S15588   0.124   6.140   5.248 -0.3227 -0.0946 -0.5506
  143OSM    H2S15589   0.194   6.054   5.248 -0.5084 -0.2461 -0.6047
  143OSM    C3S15590   0.188   6.256   5.332  0.1327 -0.1554 -0.1951
  143OSM    H3S15591   0.119   6.343   5.334  0.6925  0.4619 -2.9194
  143OSM     O315592   0.312   6.309   5.289  0.0471  0.0818  0.1998
  143OSM    HO315593   0.310   6.270   5.202 -1.0919 -2.4952  1.2816
  143OSM    C4S15594   0.203   6.201   5.479  0.3497 -0.0915  0.3421
  143OSM    H4S15595   0.108   6.185   5.532  0.5685  0.0148  0.7715
  143OSM    C5S15596   0.317   6.172   5.545 -0.1323 -0.1773  0.5220
  143OSM    H5S15597   0.413   6.171   5.491  1.0665  0.3836  2.5254
  143OSM    C6S15598   0.328   6.109   5.685 -0.6991 -0.3390 -0.5113
  143OSM    H6S15599   0.377   6.184   5.751  1.3865 -1.3405 -0.8367
  143OSM    H6T15600   0.392   6.019   5.673  0.4512  0.3751  0.0564
  143OSM    C7S15601   0.197   6.069   5.753 -0.2399 -0.6775  0.7061
  143OSM    H7S15602   0.153   5.993   5.685  0.6767 -0.4190 -0.1997
  143OSM    H7T15603   0.132   6.157   5.769 -0.4235 -0.8286  0.7966
  143OSM    C8S15604   0.209   5.995   5.879 -0.2749 -0.7139  0.2501
  143OSM    H8S15605   0.261   6.059   5.953  1.9935 -1.2635 -0.8007
  143OSM    H8T15606   0.282   5.912   5.868  1.7084  0.7878  1.5727
  143OSM    C9S15607   0.075   5.928   5.932 -0.2106  0.0696 -0.4645
  143OSM    H9S15608   0.017   5.887   5.847 -1.7172 -1.9297  1.4168
  143OSM    H9T15609   0.014   6.008   5.980 -2.9689 -1.3623 -1.3317
  143OSM   C10S15610   0.110   5.812   6.032 -0.2180  0.7378 -0.3376
  143OSM   H10S15611   0.179   5.851   6.110  0.2067 -1.8279  0.6519
  143OSM   H10T15612   0.161   5.727   5.982  0.0885  0.8245 -0.1731
  143OSM   C11S15613  -0.011   5.748   6.112  0.2495  0.6320 -0.1505
  143OSM   H11S15614   0.020   5.670   6.185  2.3320 -0.1487 -1.7598
  143OSM   H11T15615  -0.081   5.709   6.035  0.9212  0.8287 -0.8842
  143OSM   C12S15616  -0.090   5.856   6.189 -0.3975 -0.8324  0.0469
  143OSM   H12S15617  -0.178   5.793   6.217 -0.3932 -0.5676  0.6712
  143OSM   H12T15618  -0.127   5.938   6.123 -2.1039 -2.7617 -1.5359
  143OSM   C13S15619  -0.040   5.913   6.316 -0.4775 -0.3863 -0.0372
  143OSM   H13S15620   0.007   6.008   6.285  0.0155 -0.9556 -1.0950
  143OSM   H13T15621   0.030   5.862   6.385 -0.5818  1.6177  1.6241
  143OSM   C14S15622  -0.160   5.960   6.398 -0.1499  0.3466  0.2356
  143OSM   H14S15623  -0.217   5.868   6.420  0.3648 -0.1852 -0.5959
  143OSM   H14T15624  -0.215   6.037   6.340 -2.5284  0.9085  2.9955
  143OSM   C15S15625  -0.122   6.021   6.536  0.1170  0.6909 -0.0467
  143OSM   H15S15626  -0.211   6.052   6.594  0.7016  1.6733  0.3437
  143OSM   H15T15627  -0.071   6.119   6.523 -0.4742  1.2620  1.7031
  143OSM   C16S15628  -0.024   5.937   6.624  0.1358  0.0111  0.1668
  143OSM   H16S15629   0.078   5.930   6.580 -0.8093 -2.0683 -1.9254
  143OSM   H16T15630  -0.064   5.833   6.618  1.9421 -0.6770 -0.7944
  143OSM   C17S15631  -0.010   5.999   6.765  0.1993 -0.3398  0.2412
  143OSM   H17S15632  -0.114   6.029   6.793 -0.6851 -1.8987 -1.2105
  143OSM   H17T15633   0.046   6.092   6.742  0.6085 -0.8149 -0.7286
  143OSM   C18S15634   0.049   5.916   6.881  0.1485  0.2145 -0.8969
  143OSM   H18S15635   0.159   5.911   6.861  0.8712  2.8262  1.6852
  143OSM   H18T15636   0.011   5.812   6.882  3.7849 -1.2638  1.3309
  143OSM   H18U15637   0.027   5.962   6.980 -0.6309  0.7875 -1.3223
  143OSM    C1F15638  -0.061   5.979   5.265  0.6370 -0.7653 -0.2619
  143OSM     OF15639  -0.005   5.909   5.184 -0.3130  0.0989  0.1527
  143OSM    C2F15640  -0.194   5.937   5.322  0.9471  0.3043  1.2342
  143OSM    H2F15641  -0.264   5.943   5.236  0.7194  3.7508  1.5243
  143OSM    H2G15642  -0.218   6.004   5.407  1.3916 -0.2823  1.8282
  143OSM    C3F15643  -0.183   5.799   5.393  0.1305  0.4716  0.5240
  143OSM    H3F15644  -0.150   5.724   5.318 -0.3860  0.4122  0.3553
  143OSM    H3G15645  -0.286   5.779   5.429 -1.5114 -1.2035 -4.2660
  143OSM    C4F15646  -0.076   5.786   5.507 -0.2443  0.7149  0.5907
  143OSM    H4F15647  -0.071   5.881   5.564 -0.2014  1.8713 -1.2657
  143OSM    H4G15648   0.019   5.786   5.450 -0.7474  0.3308 -0.2724
  143OSM    C5F15649  -0.079   5.669   5.607  0.5391 -0.0460  0.3330
  143OSM    H5F15650   0.012   5.678   5.670 -0.2019 -0.0877  1.4387
  143OSM    H5G15651  -0.079   5.571   5.554 -1.5498 -1.3494  2.4865
  143OSM    C6F15652  -0.200   5.670   5.703  0.0140  0.7926  0.2033
  143OSM    H6F15653  -0.293   5.670   5.643  0.2155  0.1837 -0.1227
  143OSM    H6G15654  -0.200   5.761   5.766  1.7982  0.2941  0.9946
  143OSM    C7F15655  -0.189   5.543   5.793  0.6721  0.0855 -0.5011
  143OSM    H7F15656  -0.093   5.542   5.850  1.0105 -0.9553 -1.0599
  143OSM    H7G15657  -0.201   5.456   5.724 -0.5046  0.1952 -0.4481
  143OSM    C8F15658  -0.306   5.532   5.892 -0.1679 -0.0854  0.2057
  143OSM    H8F15659  -0.402   5.554   5.839  0.0798 -0.2677 -0.3290
  143OSM    H8G15660  -0.295   5.608   5.972 -0.0271  0.4880 -0.3544
  143OSM    C9F15661  -0.313   5.391   5.954  0.3166  0.3406 -0.3545
  143OSM    H9F15662  -0.349   5.313   5.886  0.8433  1.1496 -1.6061
  143OSM   C10F15663  -0.277   5.349   6.077 -0.6468 -0.3821 -0.2362
  143OSM   H10F15664  -0.314   5.253   6.117 -1.5679  0.0272 -0.0823
  143OSM   C11F15665  -0.231   5.441   6.189 -0.3569 -0.9715 -0.0690
  143OSM   H11F15666  -0.286   5.537   6.187  1.8505  0.3715 -0.1181
  143OSM   H11G15667  -0.123   5.465   6.175 -0.3156 -0.9212  0.3336
  143OSM   C12F15668  -0.259   5.384   6.330  0.4434  0.4837  0.6788
  143OSM   H12F15669  -0.188   5.299   6.341  2.2795  1.8239 -0.3114
  143OSM   H12G15670  -0.360   5.338   6.329  0.3625  0.6597 -0.7986
  143OSM   C13F15671  -0.237   5.483   6.448  0.0516  0.4473  0.3470
  143OSM   H13F15672  -0.287   5.580   6.424 -1.7926 -0.7412 -0.8662
  143OSM   H13G15673  -0.130   5.512   6.444  0.3519 -0.7614 -1.3789
  143OSM   C14F15674  -0.268   5.429   6.588  0.7274  0.1409  0.4167
  143OSM   H14F15675  -0.220   5.499   6.660  1.1502  0.4692 -0.1760
  143OSM   H14G15676  -0.220   5.331   6.609  0.0387 -0.0352  1.2160
  143OSM   C15F15677  -0.416   5.433   6.637  0.2571 -0.7436 -0.5732
  143OSM   H15F15678  -0.477   5.384   6.558  2.0574 -0.7771 -2.0160
  143OSM   H15G15679  -0.454   5.536   6.653  0.1662 -1.2121  2.9480
  143OSM   C16F15680  -0.450   5.351   6.768  0.5401  0.0023  0.1025
  143OSM   H16F15681  -0.375   5.373   6.847  0.8165 -1.0373  0.1371
  143OSM   H16G15682  -0.432   5.245   6.742  1.3560 -0.0731  0.9312
  143OSM   C17F15683  -0.588   5.365   6.833  0.5179 -1.1983  0.1614
  143OSM   H17F15684  -0.598   5.463   6.884 -2.5071 -0.7350 -1.0884
  143OSM   H17G15685  -0.575   5.286   6.910 -0.0229 -0.9896  0.4725
  143OSM   C18F15686  -0.717   5.355   6.747  0.6609  0.1559  0.1813
  143OSM   H18F15687  -0.726   5.250   6.712 -1.1162  0.2005  0.3766
  143OSM   H18G15688  -0.709   5.407   6.650  0.0642  0.0470  0.0689
  143OSM   H18H15689  -0.810   5.374   6.806  0.4705 -0.4299  0.0732
  144OSM      N15690   6.236   0.011   5.018  0.3635 -0.0639  0.4823
  144OSM    C1515691   6.197  -0.028   5.160  0.3684 -0.9679  0.8822
  144OSM   H15A15692   6.283  -0.079   5.202  0.1862 -1.6915  0.4026
  144OSM   H15B15693   6.113  -0.095   5.150 -0.1095 -0.0963 -1.4859
  144OSM   H15C15694   6.158   0.054   5.218  0.3869 -1.3603  1.4596
  144OSM    C1415695   6.111   0.039   4.946 -0.5608 -0.0866  0.7974
  144OSM   H14A15696   6.042  -0.043   4.963 -0.4880 -0.5298 -0.8913
  144OSM   H14B15697   6.128   0.054   4.841 -1.0162 -1.0308  0.5776
  144OSM   H14C15698   6.066   0.133   4.976 -0.9622  0.1464 -0.4830
  144OSM    C1315699   6.311   0.139   5.035 -0.4869 -0.3037 -0.0413
  144OSM   H13A15700   6.246   0.223   5.052  1.4225  1.4362 -0.9557
  144OSM   H13B15701   6.352   0.175   4.942 -0.3901 -1.6791 -0.5516
  144OSM   H13C15702   6.396   0.140   5.102  0.1577 -0.3578 -0.8435
  144OSM    C1215703   6.319  -0.094   4.953  1.1932  0.4459 -0.2302
  144OSM   H12A15704   6.347  -0.054   4.857 -1.3147  1.2373 -0.7066
  144OSM   H12B15705   6.249  -0.176   4.939 -0.3466  0.9940  3.2091
  144OSM    C1115706   6.448  -0.147   5.022  0.6403  0.4329  0.7411
  144OSM   H11A15707   6.500  -0.051   5.042  0.5817  0.3305  1.4193
  144OSM   H11B15708   6.492  -0.214   4.945 -0.6509 -2.0880  2.0877
  144OSM      P15709   6.526  -0.311   5.198 -0.3368 -0.0550 -0.5304
  144OSM    O1315710   6.485  -0.365   5.332 -0.3508  0.1510  0.2291
  144OSM    O1415711   6.562  -0.416   5.097 -0.1712  0.0193 -0.3701
  144OSM    O1115712   6.646  -0.209   5.227  0.2072  0.0406 -0.2766
  144OSM    O1215713   6.416  -0.223   5.138  0.1400  0.5178  0.2050
  144OSM    C1S15714   6.632  -0.078   5.294 -0.3908  0.0340  0.1833
  144OSM    H1S15715   6.528  -0.063   5.329 -0.4809  0.0006 -0.0719
  144OSM    H1T15716   6.646   0.011   5.230 -0.4423  0.7407  1.1341
  144OSM     NF15717   6.702   0.054   5.481 -0.1479 -0.4729  0.1556
  144OSM    HNF15718   6.778   0.118   5.488  1.2201 -1.6607 -2.4689
  144OSM    C2S15719   6.726  -0.070   5.413 -0.4099 -0.2431 -0.5224
  144OSM    H2S15720   6.700  -0.157   5.477 -0.1336  0.7536  1.0044
  144OSM    C3S15721   6.872  -0.087   5.380 -0.2915 -1.0467 -0.6353
  144OSM    H3S15722   6.901   0.008   5.331 -1.6764 -0.3853 -0.2362
  144OSM     O315723   6.912  -0.176   5.274 -0.6329  0.1656 -0.3443
  144OSM    HO315724   6.829  -0.213   5.242 -0.3524  0.8796 -1.9500
  144OSM    C4S15725   6.960  -0.105   5.501 -0.0523  0.8216  0.2042
  144OSM    H4S15726   6.964  -0.015   5.565  1.4059 -0.6978  2.3764
  144OSM    C5S15727   7.022  -0.213   5.553 -0.3245 -0.6023 -0.6399
  144OSM    H5S15728   7.013  -0.310   5.502  2.6507 -0.5325 -1.5042
  144OSM    C6S15729   7.092  -0.218   5.688  0.0082  0.1889  0.4091
  144OSM    H6S15730   7.201  -0.199   5.679  0.4847 -2.7975 -1.6661
  144OSM    H6T15731   7.089  -0.321   5.729 -1.2862  0.2542  0.5107
  144OSM    C7S15732   7.032  -0.131   5.797 -0.0876  0.2947 -0.8142
  144OSM    H7S15733   6.921  -0.133   5.801 -0.0772  0.9927  0.4309
  144OSM    H7T15734   7.054  -0.022   5.792 -1.9068  0.8503  1.4481
  144OSM    C8S15735   7.073  -0.167   5.942  0.4547 -0.1549  0.4168
  144OSM    H8S15736   7.183  -0.151   5.948  0.6316  1.2401 -3.4849
  144OSM    H8T15737   7.056  -0.275   5.960  0.5159 -0.1954  0.2336
  144OSM    C9S15738   7.005  -0.096   6.062 -0.1067 -0.4205 -0.1634
  144OSM    H9S15739   6.902  -0.129   6.087 -0.0543  1.8552  3.9613
  144OSM    H9T15740   6.998   0.014   6.046 -0.4314 -0.3261  0.5854
  144OSM   C10S15741   7.082  -0.119   6.192 -0.1733 -0.4162  0.3147
  144OSM   H10S15742   7.193  -0.113   6.183 -0.1809 -0.4336  0.2175
  144OSM   H10T15743   7.052  -0.211   6.247  0.7497 -1.7869 -1.3958
  144OSM   C11S15744   7.042  -0.017   6.306  0.9353  0.6895 -0.2992
  144OSM   H11S15745   7.066   0.087   6.277  1.8612 -0.3453 -3.7289
  144OSM   H11T15746   7.107  -0.037   6.394  0.8125 -0.2029 -0.3972
  144OSM   C12S15747   6.897  -0.038   6.347 -0.1956  0.8636  1.1054
  144OSM   H12S15748   6.889  -0.146   6.374 -0.6743  0.3877 -0.7913
  144OSM   H12T15749   6.823  -0.030   6.264 -2.3750  0.9875  2.9514
  144OSM   C13S15750   6.840   0.032   6.468 -0.0621 -0.2591 -0.2097
  144OSM   H13S15751   6.730   0.018   6.475 -0.0664 -0.7780 -1.1117
  144OSM   H13T15752   6.860   0.141   6.458  1.5443 -0.3252  1.6094
  144OSM   C14S15753   6.904  -0.011   6.598 -0.1135  0.0314  0.8467
  144OSM   H14S15754   6.901   0.069   6.675  2.1044  0.5509  0.4655
  144OSM   H14T15755   7.013  -0.024   6.585 -0.2525  1.2264 -2.8270
  144OSM   C15S15756   6.842  -0.134   6.656 -0.5345  0.5426 -0.1443
  144OSM   H15S15757   6.832  -0.205   6.571  4.2493  1.0874 -1.4407
  144OSM   H15T15758   6.744  -0.119   6.707 -1.2025 -1.0534 -0.9076
  144OSM   C16S15759   6.935  -0.203   6.755  0.2113 -1.2332  0.0000
  144OSM   H16S15760   6.956  -0.136   6.841  1.1626 -0.9200 -0.4610
  144OSM   H16T15761   7.032  -0.228   6.706  2.6614 -0.1998  3.8959
  144OSM   C17S15762   6.872  -0.338   6.794  0.0609 -0.7652 -0.7695
  144OSM   H17S15763   6.840  -0.390   6.701  0.2817 -0.0102 -1.2739
  144OSM   H17T15764   6.783  -0.319   6.858  1.8330 -2.0456  2.2881
  144OSM   C18S15765   6.971  -0.426   6.867  0.3978  0.3514 -0.7270
  144OSM   H18S15766   7.071  -0.437   6.821 -0.4331 -1.7707 -2.2082
  144OSM   H18T15767   6.921  -0.525   6.873  2.0570 -0.4453  0.5269
  144OSM   H18U15768   6.977  -0.396   6.973 -1.9452 -0.8952 -0.1681
  144OSM    C1F15769   6.595   0.068   5.556  0.4623 -0.1418 -0.1278
  144OSM     OF15770   6.507  -0.016   5.558  0.1733  0.0648 -0.2163
  144OSM    C2F15771   6.588   0.189   5.648  0.0389 -0.4994 -0.7869
  144OSM    H2F15772   6.496   0.248   5.630  0.0396 -0.1455  0.3159
  144OSM    H2G15773   6.671   0.262   5.634  0.3264 -1.0034 -1.7923
  144OSM    C3F15774   6.612   0.162   5.800 -0.5299  0.1413  0.3590
  144OSM    H3F15775   6.707   0.108   5.814 -0.8709 -0.4154  0.5469
  144OSM    H3G15776   6.528   0.100   5.837  0.4221 -0.7202  1.1139
  144OSM    C4F15777   6.619   0.274   5.901  0.0616 -0.3843  0.1947
  144OSM    H4F15778   6.535   0.346   5.894 -1.5367 -2.2836 -1.8782
  144OSM    H4G15779   6.713   0.331   5.887  0.3394 -0.3091  2.1943
  144OSM    C5F15780   6.621   0.227   6.052  0.8373  0.5113 -0.0432
  144OSM    H5F15781   6.700   0.150   6.059 -0.1878 -0.4595  1.5306
  144OSM    H5G15782   6.523   0.182   6.080  0.9582  1.4801  2.0728
  144OSM    C6F15783   6.655   0.347   6.143  0.2480  0.0570 -0.8782
  144OSM    H6F15784   6.573   0.422   6.140 -0.7161 -0.8335  1.4335
  144OSM    H6G15785   6.748   0.401   6.113 -0.7069  1.9076 -0.6875
  144OSM    C7F15786   6.666   0.311   6.291 -0.0297 -0.3337 -0.0487
  144OSM    H7F15787   6.763   0.259   6.307 -0.8524 -1.0968  3.2393
  144OSM    H7G15788   6.586   0.239   6.320 -0.9077  1.2639  1.6945
  144OSM    C8F15789   6.673   0.428   6.392 -0.6072  0.3340  0.2278
  144OSM    H8F15790   6.680   0.375   6.490 -2.4617 -2.3913 -0.9797
  144OSM    H8G15791   6.578   0.483   6.378  0.2546  1.7616 -0.2585
  144OSM    C9F15792   6.796   0.521   6.380  0.3683  0.1793  0.0859
  144OSM    H9F15793   6.818   0.555   6.278 -0.8208 -2.9125 -1.3215
  144OSM   C10F15794   6.893   0.547   6.473  0.1147  0.1619  0.1092
  144OSM   H10F15795   6.979   0.610   6.445 -1.4829  2.1926 -0.5071
  144OSM   C11F15796   6.896   0.493   6.611  0.5058 -0.1556 -0.5614
  144OSM   H11F15797   6.803   0.440   6.641  1.2509 -2.2942 -1.8440
  144OSM   H11G15798   6.917   0.576   6.682  2.0991  0.8172 -2.0974
  144OSM   C12F15799   7.011   0.401   6.633  0.0377  0.7249 -0.3370
  144OSM   H12F15800   7.106   0.455   6.616  0.5330 -0.2140 -0.5857
  144OSM   H12G15801   7.017   0.317   6.560 -0.2340  0.4128 -0.0066
  144OSM   C13F15802   7.007   0.348   6.779  0.1890 -0.4688  0.0296
  144OSM   H13F15803   6.908   0.309   6.811  1.4788 -0.6236  4.5532
  144OSM   H13G15804   7.026   0.442   6.834 -2.0253  0.6814 -1.0369
  144OSM   C14F15805   7.107   0.242   6.810 -0.0533 -0.7549  0.0059
  144OSM   H14F15806   7.212   0.262   6.780  0.6698 -2.1986  1.4305
  144OSM   H14G15807   7.074   0.152   6.753 -1.3503 -0.0105 -0.4680
  144OSM   C15F15808   7.090   0.196   6.957 -0.5425 -0.6113  0.2658
  144OSM   H15F15809   6.984   0.178   6.986 -1.2286  0.6575 -1.2812
  144OSM   H15G15810   7.126   0.270   7.031 -0.9651  0.1217 -0.2523
  144OSM   C16F15811   7.175   0.069   6.976 -0.4450 -0.9147  0.0606
  144OSM   H16F15812   7.278   0.089   6.938 -0.4592 -1.3736 -0.2199
  144OSM   H16G15813   7.130  -0.007   6.909  0.5869 -1.4270 -0.0754
  144OSM   C17F15814   7.171   0.024   7.128 -0.4775 -0.3548 -0.4039
  144OSM   H17F15815   7.063  -0.000   7.141  0.0764 -2.2037  1.3326
  144OSM   H17G15816   7.204   0.108   7.193 -1.5010  1.1340 -1.7229
  144OSM   C18F15817   7.258  -0.100   7.158  0.2132  0.4194 -0.8012
  144OSM   H18F15818   7.248  -0.171   7.073 -0.8197  0.4385 -0.7131
  144OSM   H18G15819   7.225  -0.158   7.246  0.1756  0.8664 -0.5182
  144OSM   H18H15820   7.365  -0.074   7.169  0.0619  0.8294 -0.2394
  145SAPE     N15821   1.620   2.337   0.068 -0.1067  0.0709  0.5119
  145SAPE   HN115822   1.564   2.423   0.050 -2.2773 -1.3612  0.0738
  145SAPE   HN215823   1.580   2.295   0.155 -1.9323  1.1779  0.2727
  145SAPE   HN315824   1.716   2.374   0.082  0.7921 -1.0384 -2.1386
  145SAPE   C1215825   1.611   2.232  -0.039 -0.4134  0.3861  0.0855
  145SAPE  H12A15826   1.649   2.134  -0.003  1.8983  0.6298 -1.4658
  145SAPE  H12B15827   1.669   2.267  -0.127 -1.8512  1.8227 -0.3418
  145SAPE   C1115828   1.466   2.209  -0.087  0.1629 -0.2890  0.1114
  145SAPE  H11A15829   1.413   2.173   0.004  0.6311  0.2343  0.5996
  145SAPE  H11B15830   1.465   2.126  -0.161 -0.3475 -0.4256  0.2672
  145SAPE     P15831   1.409   2.362  -0.291  0.3919  0.3883 -0.0003
  145SAPE   O1315832   1.310   2.467  -0.318  0.7003  0.6225 -0.0239
  145SAPE   O1415833   1.547   2.394  -0.319 -0.5946 -0.0716 -0.0460
  145SAPE   O1215834   1.391   2.318  -0.140 -0.3201 -0.6752  0.3233
  145SAPE   O1115835   1.378   2.229  -0.373 -0.3056  0.1001 -0.7322
  145SAPE    C115836   1.265   2.147  -0.347 -0.0732 -0.4784  0.0696
  145SAPE    HA15837   1.294   2.040  -0.337 -0.0734 -0.3527  1.6821
  145SAPE    HB15838   1.212   2.163  -0.251  0.3996 -2.0912  0.6325
  145SAPE    C215839   1.162   2.148  -0.459  0.0446 -0.0625 -0.3404
  145SAPE    HS15840   1.075   2.084  -0.432  0.5415  0.4342  2.8044
  145SAPE   O2115841   1.227   2.112  -0.585  0.0635 -0.2116  0.2059
  145SAPE   C2115842   1.232   1.983  -0.607  0.8655  0.5159 -0.6836
  145SAPE   O2215843   1.198   1.896  -0.531  0.7643  0.0807  0.1095
  145SAPE   C2215844   1.284   1.953  -0.748  0.1306 -0.2848  0.1654
  145SAPE   H2R15845   1.369   2.023  -0.764 -1.0194  0.5520 -2.8092
  145SAPE   H2S15846   1.318   1.848  -0.756 -0.6515 -0.4118 -2.2678
  145SAPE    C315847   1.098   2.288  -0.475  0.3396  0.3626  0.7119
  145SAPE    HX15848   1.188   2.347  -0.499  0.6398 -0.2533  0.2880
  145SAPE    HY15849   1.061   2.326  -0.378  0.8902  0.9420  0.6954
  145SAPE   O3115850   0.995   2.295  -0.570  0.0169  0.0709  0.8212
  145SAPE   C3115851   0.913   2.402  -0.571  0.0487 -0.7176 -0.0930
  145SAPE   O3215852   0.925   2.501  -0.500  0.1180 -0.2987 -0.4924
  145SAPE   C3215853   0.785   2.361  -0.649  0.0741  0.6652  0.2111
  145SAPE   H2X15854   0.734   2.458  -0.665  2.9697  2.3504  0.3512
  145SAPE   H2Y15855   0.727   2.305  -0.573  0.0595 -2.1373 -1.7176
  145SAPE   C2315856   1.174   1.981  -0.858 -0.8162 -0.1386  0.4799
  145SAPE   H3R15857   1.109   2.061  -0.818 -2.2938 -1.2622  0.3849
  145SAPE   H3S15858   1.104   1.897  -0.840 -0.8532  0.2649  2.4578
  145SAPE   C2415859   1.211   2.015  -1.001 -0.1233  0.6872  0.4034
  145SAPE   H4R15860   1.261   2.114  -1.003 -1.1092  1.2301  1.2735
  145SAPE   H4S15861   1.119   2.016  -1.064  0.3362 -0.6236 -0.3337
  145SAPE   C2515862   1.305   1.905  -1.065  0.0441 -0.1096  0.0019
  145SAPE   H5R15863   1.376   1.869  -0.989  0.1351 -2.2958 -1.0513
  145SAPE   C2615864   1.291   1.846  -1.185 -0.1934 -0.1368 -0.2926
  145SAPE   H6R15865   1.375   1.782  -1.215  0.6501  1.3531 -1.2242
  145SAPE   C2715866   1.199   1.888  -1.296  0.1131 -0.2074  0.5177
  145SAPE   H7R15867   1.198   1.999  -1.296 -0.3914 -0.2078 -0.1996
  145SAPE   H7S15868   1.095   1.854  -1.277 -0.4025  1.4214  0.7990
  145SAPE   C2815869   1.242   1.833  -1.435 -0.2468 -0.6076 -0.0971
  145SAPE   H8R15870   1.275   1.728  -1.430  2.4035  0.1784  1.6276
  145SAPE   C2915871   1.256   1.897  -1.557 -0.0481 -0.1049  0.5030
  145SAPE   H9R15872   1.282   1.839  -1.646 -0.1417  0.6838 -0.0499
  145SAPE  C21015873   1.209   2.033  -1.593  0.3098 -0.1121 -0.1789
  145SAPE  H10R15874   1.187   2.094  -1.503  0.6728 -0.3125  0.0491
  145SAPE  H10S15875   1.116   2.015  -1.651 -0.3457 -1.8718  1.2926
  145SAPE  C21115876   1.304   2.109  -1.675  0.2710 -0.1343  0.0746
  145SAPE  H11R15877   1.389   2.156  -1.624  0.0641 -0.2489  0.5372
  145SAPE  C21215878   1.296   2.133  -1.810  0.4465 -0.5419 -0.4676
  145SAPE  H12R15879   1.377   2.189  -1.858  0.0935 -0.0271 -0.4695
  145SAPE  C21315880   1.191   2.089  -1.903  0.3907 -0.2882  0.2415
  145SAPE  H13R15881   1.129   2.175  -1.935  0.1912 -0.8481 -0.9030
  145SAPE  H13S15882   1.123   2.022  -1.847  2.5102 -0.8979  2.2959
  145SAPE  C21415883   1.241   2.004  -2.017 -0.5311  0.5193 -0.1832
  145SAPE  H14R15884   1.270   1.900  -1.994 -2.1589 -0.4166 -2.0686
  145SAPE  C21515885   1.220   2.025  -2.148 -0.0993 -0.4688 -0.1503
  145SAPE  H15R15886   1.269   1.968  -2.228  0.2748  1.4864 -1.3876
  145SAPE  C21615887   1.158   2.158  -2.200  0.0325  0.1671  0.1964
  145SAPE  H16R15888   1.083   2.210  -2.138  0.5371 -0.0710  1.0188
  145SAPE  H16S15889   1.093   2.127  -2.285  2.0778 -0.8924 -1.0695
  145SAPE  C21715890   1.268   2.248  -2.266  1.2768  0.1753  0.2609
  145SAPE  H17R15891   1.329   2.195  -2.342 -1.2751 -1.8696 -0.4858
  145SAPE  H17S15892   1.339   2.271  -2.183  0.3431 -0.4024  1.2367
  145SAPE  C21815893   1.202   2.381  -2.320  0.6829  0.9500 -1.2990
  145SAPE  H18R15894   1.145   2.429  -2.238  0.5413 -0.0695 -0.7886
  145SAPE  H18S15895   1.135   2.368  -2.408 -0.5957  0.0062 -0.2185
  145SAPE  C21915896   1.299   2.487  -2.370 -0.1875  0.2069 -0.4372
  145SAPE  H19R15897   1.326   2.470  -2.476 -0.8254 -1.5805 -0.3465
  145SAPE  H19S15898   1.389   2.480  -2.305  0.0864 -0.1167 -0.8497
  145SAPE  C22015899   1.242   2.631  -2.355 -0.3078  0.1826  0.0445
  145SAPE  H20R15900   1.215   2.634  -2.247 -1.0461  0.0110 -0.1233
  145SAPE  H20S15901   1.162   2.638  -2.432  2.2358 -1.6032 -2.9945
  145SAPE  H20T15902   1.322   2.703  -2.380 -0.7432  0.8609  0.5759
  145SAPE   C3315903   0.790   2.258  -0.763  1.2930  0.7674 -0.1480
  145SAPE   H3X15904   0.701   2.193  -0.776  2.2956 -0.1618 -3.2245
  145SAPE   H3Y15905   0.867   2.182  -0.738  0.3663  0.0754  0.7184
  145SAPE   C3415906   0.819   2.321  -0.898 -0.5077  0.1125  0.1804
  145SAPE   H4X15907   0.914   2.377  -0.883  0.5453 -1.9199  1.5745
  145SAPE   H4Y15908   0.742   2.394  -0.930  1.6734  1.2528 -2.8693
  145SAPE   C3515909   0.842   2.219  -1.008 -0.0418 -0.0347 -0.0654
  145SAPE   H5X15910   0.751   2.162  -1.037  0.3557 -0.6353 -0.1362
  145SAPE   H5Y15911   0.917   2.140  -0.984 -1.8638 -1.2150  2.1127
  145SAPE   C3615912   0.882   2.308  -1.124 -0.0382  0.9688 -0.4633
  145SAPE   H6X15913   0.988   2.341  -1.131  0.6262 -0.9345  0.0909
  145SAPE   H6Y15914   0.809   2.391  -1.132 -0.8409  0.2654 -0.5261
  145SAPE   C3715915   0.861   2.229  -1.255 -0.2655  0.0699 -0.2804
  145SAPE   H7X15916   0.753   2.207  -1.273 -0.2079 -0.2130 -0.2898
  145SAPE   H7Y15917   0.911   2.131  -1.241 -0.3699 -0.0389 -0.6522
  145SAPE   C3815918   0.917   2.302  -1.373  0.6207  0.0224 -0.4038
  145SAPE   H8X15919   1.028   2.295  -1.365  0.6146  0.0719 -0.2796
  145SAPE   H8Y15920   0.891   2.409  -1.384  0.7824 -0.1088 -2.5544
  145SAPE   C3915921   0.875   2.231  -1.503  0.9218  0.0654  0.4235
  145SAPE   H9X15922   0.767   2.255  -1.509  0.6626 -1.2666 -0.6619
  145SAPE   H9Y15923   0.886   2.122  -1.485 -1.5059 -0.1046  1.1780
  145SAPE  C31015924   0.950   2.279  -1.626  0.0628 -0.2271 -0.1305
  145SAPE  H10X15925   0.931   2.203  -1.704  0.0327  0.1589 -0.5038
  145SAPE  H10Y15926   1.060   2.289  -1.610  0.2831 -1.8207 -0.5148
  145SAPE  C31115927   0.893   2.406  -1.687  0.1447 -0.4351  0.2950
  145SAPE  H11X15928   0.907   2.496  -1.623 -0.8044  1.0560 -1.5043
  145SAPE  H11Y15929   0.784   2.386  -1.688  0.0309  0.1779 -0.7285
  145SAPE  C31215930   0.941   2.436  -1.825  0.7437 -0.0548  0.0587
  145SAPE  H12X15931   0.882   2.520  -1.867  5.2792  2.6818 -1.5794
  145SAPE  H12Y15932   0.918   2.346  -1.885  1.3332 -1.0880  1.3091
  145SAPE  C31315933   1.088   2.470  -1.829  0.5428 -0.6289 -0.5079
  145SAPE  H13X15934   1.149   2.389  -1.784 -2.2470 -2.0490  0.9990
  145SAPE  H13Y15935   1.091   2.560  -1.764 -0.4854 -0.8630 -0.1094
  145SAPE  C31415936   1.145   2.496  -1.964 -0.6527 -0.3604  0.7296
  145SAPE  H14X15937   1.072   2.565  -2.012  0.4438  0.8703  0.7636
  145SAPE  H14Y15938   1.151   2.403  -2.023  2.4638  0.2013 -0.0272
  145SAPE  C31515939   1.279   2.568  -1.964 -0.1962 -0.8125 -0.9326
  145SAPE  H15X15940   1.262   2.651  -1.892  3.7645  0.4427 -1.2022
  145SAPE  H15Y15941   1.321   2.619  -2.054  1.3673 -1.9718 -0.9165
  145SAPE  C31615942   1.393   2.478  -1.900  0.3208 -0.2893  0.2754
  145SAPE  H16X15943   1.396   2.388  -1.965  0.6510 -0.1393  0.0850
  145SAPE  H16Y15944   1.361   2.446  -1.798 -1.3031  0.9499  0.2039
  145SAPE  C31715945   1.527   2.540  -1.868  0.0719  0.0306  1.3142
  145SAPE  H17X15946   1.582   2.462  -1.811 -0.4346 -1.2672  0.0837
  145SAPE  H17Y15947   1.522   2.635  -1.809 -0.1535  0.0208  1.3148
  145SAPE  C31815948   1.598   2.569  -2.003 -0.1153  1.0124  0.5519
  145SAPE  H18X15949   1.604   2.679  -2.014 -1.1427  1.1710  1.4374
  145SAPE  H18Y15950   1.538   2.532  -2.090  1.4107 -0.4308  0.0670
  145SAPE  H18Z15951   1.703   2.536  -2.015  0.1976  2.1874 -0.0640
  146SAPE     N15952   0.193   3.573   0.111 -0.3083  1.0122 -0.7306
  146SAPE   HN115953   0.248   3.625   0.182  1.4096 -2.7410  0.9718
  146SAPE   HN215954   0.237   3.581   0.017 -0.5081  0.4935 -0.8698
  146SAPE   HN315955   0.100   3.619   0.102 -0.0821  1.6214 -0.0421
  146SAPE   C1215956   0.186   3.428   0.145 -0.2182  0.1048 -0.6983
  146SAPE  H12A15957   0.166   3.416   0.254  0.8554  1.0516 -0.3822
  146SAPE  H12B15958   0.287   3.384   0.131 -0.3691 -0.9715  1.2172
  146SAPE   C1115959   0.081   3.345   0.059  0.2279  0.2523  0.0314
  146SAPE  H11A15960   0.076   3.243   0.103  0.6961 -0.0484 -0.5891
  146SAPE  H11B15961   0.109   3.337  -0.049 -2.4342 -0.8806 -0.6694
  146SAPE     P15962  -0.149   3.346  -0.061  0.0429  0.2522 -0.3724
  146SAPE   O1315963  -0.134   3.201  -0.062 -0.4554  0.0156 -0.4944
  146SAPE   O1415964  -0.281   3.413  -0.036 -0.1146 -0.4511  0.0901
  146SAPE   O1215965  -0.048   3.407   0.055  0.3757 -0.2882  0.2299
  146SAPE   O1115966  -0.086   3.392  -0.195  0.4149  0.5463  0.0766
  146SAPE    C115967  -0.069   3.532  -0.232  1.0763  0.2543 -0.5847
  146SAPE    HA15968  -0.110   3.597  -0.152 -1.0622 -1.6904 -0.0174
  146SAPE    HB15969   0.036   3.562  -0.252  1.9491 -3.0117 -1.4102
  146SAPE    C215970  -0.164   3.581  -0.343 -0.0851 -0.2290  0.6508
  146SAPE    HS15971  -0.262   3.538  -0.311 -0.6147  0.2769 -0.2420
  146SAPE   O2115972  -0.118   3.527  -0.472 -0.1070  0.0741 -0.6124
  146SAPE   C2115973  -0.221   3.530  -0.554  0.8169 -0.6326  0.3184
  146SAPE   O2215974  -0.334   3.558  -0.522  0.2958 -0.0149 -0.0500
  146SAPE   C2215975  -0.173   3.516  -0.697 -0.3061  0.6279 -0.6906
  146SAPE   H2R15976  -0.086   3.447  -0.709  0.1580  1.6008 -3.9018
  146SAPE   H2S15977  -0.255   3.467  -0.753  0.9531 -2.2538 -0.2194
  146SAPE    C315978  -0.160   3.739  -0.326  0.5466 -0.4583  0.4158
  146SAPE    HX15979  -0.063   3.765  -0.374  1.2310  0.7471  2.3622
  146SAPE    HY15980  -0.165   3.778  -0.222 -0.7613  0.2705  0.1045
  146SAPE   O3115981  -0.266   3.807  -0.405  0.4605 -0.4545  0.2220
  146SAPE   C3115982  -0.384   3.814  -0.343  0.5048 -0.6666 -0.3876
  146SAPE   O3215983  -0.410   3.760  -0.236  0.1279 -0.2736  0.5496
  146SAPE   C3215984  -0.497   3.889  -0.416 -0.1646 -0.2653  0.0644
  146SAPE   H2X15985  -0.476   3.998  -0.417 -0.0592 -0.2605 -2.1012
  146SAPE   H2Y15986  -0.589   3.864  -0.359  1.0203 -2.6521  1.0814
  146SAPE   C2315987  -0.125   3.652  -0.739  0.3129  0.1322 -0.0480
  146SAPE   H3R15988  -0.052   3.691  -0.665  0.5262  1.4576 -0.9118
  146SAPE   H3S15989  -0.219   3.712  -0.739 -0.0588 -0.4396 -0.3398
  146SAPE   C2415990  -0.048   3.655  -0.868  0.2127 -0.3252  0.9638
  146SAPE   H4R15991   0.025   3.571  -0.869 -0.4970 -1.0183  3.3369
  146SAPE   H4S15992  -0.001   3.756  -0.868  0.1758 -0.3066  0.5880
  146SAPE   C2515993  -0.145   3.642  -0.982  0.1038 -0.8104 -0.5871
  146SAPE   H5R15994  -0.247   3.608  -0.959  0.1226 -0.4271  0.0990
  146SAPE   C2615995  -0.116   3.639  -1.109  0.1764 -0.3851  0.2424
  146SAPE   H6R15996  -0.198   3.634  -1.182  0.4348  0.8119 -0.1491
  146SAPE   C2715997   0.026   3.666  -1.166  0.1696  0.4642 -0.0189
  146SAPE   H7R15998   0.052   3.588  -1.241  2.4765 -0.4679  1.6227
  146SAPE   H7S15999   0.104   3.641  -1.091 -0.6382  2.0704  1.4175
  146SAPE   C2816000   0.044   3.803  -1.213 -0.0571  0.3264  0.0788
  146SAPE   H8R16001  -0.003   3.879  -1.150 -1.0436  0.5040 -0.8480
  146SAPE   C2916002   0.121   3.836  -1.325  0.0820  0.4790 -0.1478
  146SAPE   H9R16003   0.141   3.944  -1.333  0.3760  0.3368 -1.5864
  146SAPE  C21016004   0.212   3.739  -1.407  0.3040 -0.0591 -0.8497
  146SAPE  H10R16005   0.161   3.642  -1.419  0.5154 -0.4384  1.0712
  146SAPE  H10S16006   0.303   3.718  -1.346 -0.4874 -1.0893 -0.0006
  146SAPE  C21116007   0.259   3.769  -1.543  0.1306  0.0122 -0.4314
  146SAPE  H11R16008   0.360   3.812  -1.546  1.0047 -1.9833 -2.0803
  146SAPE  C21216009   0.191   3.741  -1.654  0.6959  0.0373  0.3366
  146SAPE  H12R16010   0.230   3.759  -1.755  1.3992 -2.2054  0.1568
  146SAPE  C21316011   0.049   3.687  -1.660  0.6384 -0.5219 -0.4224
  146SAPE  H13R16012  -0.007   3.771  -1.705  0.8220 -0.3270 -0.2906
  146SAPE  H13S16013   0.002   3.677  -1.560  1.0499 -0.0053 -0.1701
  146SAPE  C21416014   0.020   3.567  -1.751 -0.3779  0.3897  0.0869
  146SAPE  H14R16015   0.097   3.488  -1.749 -1.9554 -1.1859  2.2753
  146SAPE  C21516016  -0.081   3.541  -1.836 -0.7655  0.0751 -0.0602
  146SAPE  H15R16017  -0.094   3.455  -1.903 -4.4716  2.8039 -3.4371
  146SAPE  C21616018  -0.202   3.633  -1.865 -0.3235 -0.6494 -0.4932
  146SAPE  H16R16019  -0.201   3.685  -1.963  3.5536  1.9656  0.6893
  146SAPE  H16S16020  -0.203   3.720  -1.797 -0.7175 -0.6119 -0.5421
  146SAPE  C21716021  -0.342   3.561  -1.845 -0.6079  0.2993 -0.5537
  146SAPE  H17R16022  -0.339   3.467  -1.904 -0.4590  0.2818 -0.5162
  146SAPE  H17S16023  -0.429   3.619  -1.882 -1.4341 -0.2347  0.4873
  146SAPE  C21816024  -0.373   3.514  -1.696 -0.1636 -0.1696  0.5848
  146SAPE  H18R16025  -0.282   3.454  -1.673  0.7301  0.1062 -1.8974
  146SAPE  H18S16026  -0.448   3.432  -1.694  1.2769 -1.5786 -0.3528
  146SAPE  C21916027  -0.399   3.623  -1.590  0.4841  0.6831 -0.1104
  146SAPE  H19R16028  -0.467   3.695  -1.641  0.3614  0.6903  0.0652
  146SAPE  H19S16029  -0.299   3.668  -1.572  1.0824 -1.0537  1.1085
  146SAPE  C22016030  -0.452   3.563  -1.459  0.2985  0.1269  0.0988
  146SAPE  H20R16031  -0.370   3.505  -1.413  0.3859  1.2957  1.5054
  146SAPE  H20S16032  -0.548   3.511  -1.480 -1.2236  2.0630  1.7968
  146SAPE  H20T16033  -0.470   3.646  -1.387 -1.4260  1.2538 -1.5263
  146SAPE   C3316034  -0.509   3.842  -0.569  0.2909 -0.3099  0.5395
  146SAPE   H3X16035  -0.532   3.733  -0.567 -1.8779  0.1159  0.3582
  146SAPE   H3Y16036  -0.417   3.859  -0.629  1.2527 -2.0469  1.3962
  146SAPE   C3416037  -0.636   3.906  -0.635  0.2250 -0.0761  0.1586
  146SAPE   H4X16038  -0.628   4.016  -0.639  0.5247 -0.0954  0.1634
  146SAPE   H4Y16039  -0.727   3.881  -0.576 -1.2468  1.9179 -1.1471
  146SAPE   C3516040  -0.662   3.858  -0.779  0.7305 -0.2088 -0.3685
  146SAPE   H5X16041  -0.756   3.903  -0.816  0.8147 -0.5959 -1.0701
  146SAPE   H5Y16042  -0.673   3.747  -0.782 -1.8518 -0.0282  0.2874
  146SAPE   C3616043  -0.553   3.898  -0.881  0.6637  0.1851  0.1031
  146SAPE   H6X16044  -0.458   3.870  -0.832 -0.2544 -3.7931 -0.0840
  146SAPE   H6Y16045  -0.559   4.009  -0.886 -3.1907  0.2626  2.2274
  146SAPE   C3716046  -0.579   3.842  -1.028 -0.1300 -0.2204 -0.2497
  146SAPE   H7X16047  -0.579   3.731  -1.018 -4.7126 -0.2774  1.1899
  146SAPE   H7Y16048  -0.490   3.868  -1.089  1.2329  0.1821  1.8010
  146SAPE   C3816049  -0.706   3.898  -1.095 -0.0730  0.2179  0.2240
  146SAPE   H8X16050  -0.698   4.009  -1.091  1.1418  0.1601 -0.0300
  146SAPE   H8Y16051  -0.795   3.882  -1.031  0.5310 -2.3475  0.5289
  146SAPE   C3916052  -0.722   3.842  -1.230 -0.5229  0.1352  0.1240
  146SAPE   H9X16053  -0.736   3.732  -1.224 -2.6498  0.3625  0.1073
  146SAPE   H9Y16054  -0.627   3.846  -1.289 -0.3313 -1.3065  0.2839
  146SAPE  C31016055  -0.840   3.902  -1.299 -0.4762  0.1270 -0.1618
  146SAPE  H10X16056  -0.849   4.010  -1.273  2.2744 -0.3789  3.8844
  146SAPE  H10Y16057  -0.929   3.848  -1.260 -1.2310 -0.9323 -3.0877
  146SAPE  C31116058  -0.853   3.885  -1.447 -0.6802  0.2725 -0.8129
  146SAPE  H11X16059  -0.862   3.779  -1.482  0.9016  0.6262 -2.4670
  146SAPE  H11Y16060  -0.771   3.926  -1.510  0.3556 -0.4083  0.0610
  146SAPE  C31216061  -0.978   3.959  -1.502  0.0376 -0.1089 -0.4685
  146SAPE  H12X16062  -0.966   4.069  -1.492  1.2115 -0.3112  0.5816
  146SAPE  H12Y16063  -1.064   3.929  -1.440 -0.2757  0.9032 -0.3902
  146SAPE  C31316064  -1.001   3.925  -1.646  0.2930  0.2835 -0.2267
  146SAPE  H13X16065  -1.111   3.933  -1.659  0.1543  0.8411  1.1140
  146SAPE  H13Y16066  -0.960   3.826  -1.674 -0.0868 -0.0356  0.3235
  146SAPE  C31416067  -0.946   4.036  -1.743 -0.7044  0.0559 -0.1566
  146SAPE  H14X16068  -0.989   4.133  -1.711 -0.4486 -1.1052  4.4096
  146SAPE  H14Y16069  -0.996   4.005  -1.838 -0.3620 -1.6336  0.1815
  146SAPE  C31516070  -0.795   4.042  -1.771  0.4211 -0.2548  0.0767
  146SAPE  H15X16071  -0.782   3.936  -1.803 -1.9747 -1.4566  2.5966
  146SAPE  H15Y16072  -0.740   4.051  -1.675 -0.7784 -2.3549  1.0516
  146SAPE  C31616073  -0.756   4.147  -1.876 -0.2056 -0.4409  0.4486
  146SAPE  H16X16074  -0.647   4.139  -1.891 -0.4656 -1.0855 -1.3166
  146SAPE  H16Y16075  -0.795   4.244  -1.840  1.5703 -0.2212  1.9256
  146SAPE  C31716076  -0.829   4.124  -2.012  0.0140 -0.8332  0.6246
  146SAPE  H17X16077  -0.940   4.126  -2.004  0.0372 -1.5360  1.3470
  146SAPE  H17Y16078  -0.798   4.023  -2.049  2.3595  0.7390 -2.1223
  146SAPE  C31816079  -0.784   4.232  -2.111 -1.1645 -0.4618 -0.2232
  146SAPE  H18X16080  -0.842   4.225  -2.205 -2.4690  1.1117  0.4177
  146SAPE  H18Y16081  -0.677   4.206  -2.124 -1.2406 -1.0939  0.3473
  146SAPE  H18Z16082  -0.791   4.330  -2.059  1.2921  0.3774 -1.3243
  147SAPE     N16083   4.681   5.970   0.703 -0.3338 -0.7121  0.3782
  147SAPE   HN116084   4.617   5.891   0.726 -0.0384 -0.8921  0.5901
  147SAPE   HN216085   4.755   5.976   0.775 -1.1882 -1.3810  1.3407
  147SAPE   HN316086   4.615   6.050   0.713  0.0841 -0.2184 -0.6748
  147SAPE   C1216087   4.733   5.960   0.566 -0.3641 -0.2702  0.7265
  147SAPE  H12A16088   4.659   6.009   0.499  0.6400  2.4542  1.4734
  147SAPE  H12B16089   4.746   5.850   0.555 -1.0652 -0.5417  2.2704
  147SAPE   C1116090   4.864   6.037   0.550 -0.4528 -0.1132  0.4750
  147SAPE  H11A16091   4.918   6.012   0.456 -0.7453 -1.8599  0.7340
  147SAPE  H11B16092   4.935   6.017   0.634  0.2448 -1.4750 -0.3901
  147SAPE     P16093   4.883   6.286   0.637 -0.2191  0.4184 -0.4958
  147SAPE   O1316094   4.824   6.271   0.775 -0.4389  0.3754 -0.6595
  147SAPE   O1416095   5.030   6.302   0.624  0.7536 -0.3419 -0.8170
  147SAPE   O1216096   4.827   6.170   0.548  0.4117 -0.7785 -0.3022
  147SAPE   O1116097   4.822   6.406   0.567 -0.7868 -0.2632 -0.5818
  147SAPE    C116098   4.825   6.419   0.425 -0.5652 -0.0306 -0.2823
  147SAPE    HA16099   4.841   6.320   0.376  1.7459  0.2574 -0.1892
  147SAPE    HB16100   4.738   6.476   0.387 -0.1632  1.7510  1.3344
  147SAPE    C216101   4.940   6.519   0.385  0.2284 -0.7928  0.2195
  147SAPE    HS16102   4.992   6.558   0.475 -0.6637  0.5755  0.1679
  147SAPE   O2116103   4.881   6.626   0.303 -0.3302  0.3714  0.2852
  147SAPE   C2116104   4.909   6.748   0.351 -0.2872 -0.1308  0.5943
  147SAPE   O2216105   4.973   6.769   0.453  0.1203 -0.2729 -0.8713
  147SAPE   C2216106   4.833   6.852   0.268  0.0327  0.4888  0.5757
  147SAPE   H2R16107   4.785   6.791   0.188 -0.0625  0.4011  0.6983
  147SAPE   H2S16108   4.751   6.897   0.329 -0.9184  1.4420 -1.3300
  147SAPE    C316109   5.055   6.446   0.297  0.4422  0.5367  0.5128
  147SAPE    HX16110   5.100   6.377   0.372 -1.5402 -2.3355 -0.7655
  147SAPE    HY16111   5.130   6.519   0.259  0.9165 -0.3416 -0.3008
  147SAPE   O3116112   4.995   6.366   0.191  0.4011 -0.0304 -0.2810
  147SAPE   C3116113   5.069   6.273   0.147  0.9137 -0.3091 -0.5590
  147SAPE   O3216114   5.186   6.245   0.186 -0.3579 -0.4922  0.1411
  147SAPE   C3216115   4.996   6.201   0.032 -0.1453  0.2431  0.9230
  147SAPE   H2X16116   4.996   6.268  -0.057 -0.4756  1.2011  1.6370
  147SAPE   H2Y16117   4.892   6.180   0.066 -0.2421 -0.1053  0.4303
  147SAPE   C2316118   4.914   6.976   0.220 -0.5750 -0.3039  0.3268
  147SAPE   H3R16119   4.963   7.023   0.308  2.7942  0.0620 -1.5780
  147SAPE   H3S16120   4.844   7.048   0.171 -0.1813  0.2487  0.5652
  147SAPE   C2416121   5.023   6.944   0.122 -0.8104 -0.1262 -0.0119
  147SAPE   H4R16122   5.069   7.040   0.091  2.1015 -0.5375  2.5851
  147SAPE   H4S16123   4.977   6.889   0.037  0.0338 -1.8528  0.6012
  147SAPE   C2516124   5.142   6.865   0.172 -0.5397  0.0622  0.9968
  147SAPE   H5R16125   5.191   6.921   0.253  2.1580  0.2992 -0.6743
  147SAPE   C2616126   5.219   6.770   0.111  0.3701  0.7191  0.0806
  147SAPE   H6R16127   5.300   6.719   0.166 -0.7444  1.4386  2.5342
  147SAPE   C2716128   5.173   6.710  -0.020 -0.3211 -0.6230  0.4340
  147SAPE   H7R16129   5.207   6.781  -0.098  1.3148 -0.8714  0.8823
  147SAPE   H7S16130   5.063   6.712  -0.039  0.0224 -2.4295 -2.1547
  147SAPE   C2816131   5.220   6.569  -0.039 -0.3012  0.4348 -0.2483
  147SAPE   H8R16132   5.249   6.517   0.054 -1.2249  0.9919  0.3625
  147SAPE   C2916133   5.230   6.503  -0.163  0.5205  0.2352 -0.2244
  147SAPE   H9R16134   5.258   6.397  -0.155 -0.6190 -0.0299  0.4015
  147SAPE  C21016135   5.195   6.558  -0.304 -0.4577  0.2770  0.2923
  147SAPE  H10R16136   5.237   6.488  -0.379  2.0505 -1.7207  3.3267
  147SAPE  H10S16137   5.250   6.654  -0.304 -1.3651  0.8129  0.5845
  147SAPE  C21116138   5.046   6.581  -0.343 -0.4468  0.5073 -0.5333
  147SAPE  H11R16139   4.986   6.519  -0.275  2.2744 -1.8069 -0.0013
  147SAPE  C21216140   5.001   6.654  -0.448  0.5288 -0.1478  0.0311
  147SAPE  H12R16141   4.893   6.664  -0.462  0.6580  0.2350 -0.7468
  147SAPE  C21316142   5.090   6.727  -0.545 -0.7318 -0.1515  0.2120
  147SAPE  H13R16143   5.109   6.663  -0.634 -1.5399 -0.6585  0.3960
  147SAPE  H13S16144   5.190   6.728  -0.497 -1.1752 -0.6362  1.1737
  147SAPE  C21416145   5.064   6.873  -0.575  0.8066  0.3120  0.0814
  147SAPE  H14R16146   5.028   6.899  -0.675 -0.8208 -1.1656  0.2427
  147SAPE  C21516147   5.090   6.976  -0.496 -0.9986  0.3005  0.2205
  147SAPE  H15R16148   5.062   7.077  -0.530 -0.6727  0.3620  0.1380
  147SAPE  C21616149   5.157   6.986  -0.362 -0.0584  0.6160  0.1579
  147SAPE  H16R16150   5.200   6.892  -0.321 -0.7360  0.9853  1.7505
  147SAPE  H16S16151   5.079   7.010  -0.288 -0.3232  2.2742 -0.6164
  147SAPE  C21716152   5.271   7.084  -0.363  0.6868  0.6349 -0.0644
  147SAPE  H17R16153   5.308   7.097  -0.260 -0.6304 -1.9693  0.8240
  147SAPE  H17S16154   5.244   7.188  -0.394  1.8277  0.6677 -1.0211
  147SAPE  C21816155   5.395   7.043  -0.441 -0.0363  0.6625 -0.5741
  147SAPE  H18R16156   5.374   7.019  -0.548  1.1392  0.5514 -0.7950
  147SAPE  H18S16157   5.448   6.951  -0.409  1.4745  0.6476 -2.8343
  147SAPE  C21916158   5.498   7.147  -0.425  0.1321  0.1113 -0.2719
  147SAPE  H19R16159   5.519   7.155  -0.316  1.4623 -1.3030 -0.3840
  147SAPE  H19S16160   5.446   7.239  -0.457  1.0393  0.0775 -1.9650
  147SAPE  C22016161   5.619   7.122  -0.515  0.0813 -0.3329  0.4719
  147SAPE  H20R16162   5.679   7.034  -0.483 -0.0907 -1.5366 -2.2465
  147SAPE  H20S16163   5.671   7.219  -0.529  1.3424 -0.6780  2.3967
  147SAPE  H20T16164   5.583   7.100  -0.617  2.6861 -1.2450 -0.3484
  147SAPE   C3316165   5.061   6.059   0.003  0.0981 -0.4784 -0.4868
  147SAPE   H3X16166   4.988   6.001  -0.057 -1.8995  0.2918  1.0656
  147SAPE   H3Y16167   5.080   6.011   0.102  0.2116  3.5894  1.6556
  147SAPE   C3416168   5.192   6.057  -0.077 -0.2589 -0.4296 -0.4001
  147SAPE   H4X16169   5.256   5.973  -0.044  0.4135  0.6883  1.2744
  147SAPE   H4Y16170   5.244   6.154  -0.062 -0.8774 -0.0550 -0.6188
  147SAPE   C3516171   5.174   6.055  -0.232  0.6610  0.0930 -0.2566
  147SAPE   H5X16172   5.099   6.135  -0.252  0.2858  0.0425  0.8764
  147SAPE   H5Y16173   5.138   5.953  -0.259  2.3090 -0.6088  0.0997
  147SAPE   C3616174   5.294   6.074  -0.326 -0.1612 -0.2877 -1.1308
  147SAPE   H6X16175   5.372   5.996  -0.312 -0.4218 -0.5772 -1.2819
  147SAPE   H6Y16176   5.342   6.174  -0.314  1.4811 -0.9323 -1.9919
  147SAPE   C3716177   5.241   6.060  -0.473  0.0962  0.1559  0.1647
  147SAPE   H7X16178   5.176   6.144  -0.504 -0.4005 -0.1428  0.3761
  147SAPE   H7Y16179   5.184   5.964  -0.477 -1.1424  0.7247  2.1449
  147SAPE   C3816180   5.345   6.053  -0.584  0.2394  0.3993 -0.9051
  147SAPE   H8X16181   5.414   5.968  -0.561 -0.8994 -0.3457 -0.0957
  147SAPE   H8Y16182   5.407   6.144  -0.588  0.1358  0.5606  0.6553
  147SAPE   C3916183   5.285   6.034  -0.732 -0.3878  0.3827 -0.3372
  147SAPE   H9X16184   5.204   6.107  -0.755 -0.6971 -0.2049 -1.1838
  147SAPE   H9Y16185   5.252   5.931  -0.759  2.3132 -0.9299  0.9509
  147SAPE  C31016186   5.398   6.057  -0.831 -0.4708 -0.8758  0.4409
  147SAPE  H10X16187   5.471   5.977  -0.808  1.8743  0.8606 -0.5542
  147SAPE  H10Y16188   5.440   6.159  -0.819  1.8052 -1.9345  2.2011
  147SAPE  C31116189   5.356   6.055  -0.982  0.0158  0.8175 -0.2779
  147SAPE  H11X16190   5.284   6.136  -1.004 -1.7596 -0.6056  0.0898
  147SAPE  H11Y16191   5.287   5.972  -1.008  1.2767 -0.4573  0.2890
  147SAPE  C31216192   5.477   6.061  -1.075  0.1281 -0.4582 -0.3302
  147SAPE  H12X16193   5.534   5.967  -1.059 -1.5300 -1.9083 -2.4658
  147SAPE  H12Y16194   5.543   6.149  -1.062  0.3730 -0.2277 -2.6618
  147SAPE  C31316195   5.434   6.057  -1.226  0.6728  0.6497 -0.0111
  147SAPE  H13X16196   5.384   6.151  -1.258  1.6046  1.2749  0.3418
  147SAPE  H13Y16197   5.364   5.971  -1.236 -1.1553  2.1834 -0.9341
  147SAPE  C31416198   5.557   6.031  -1.313  0.2271 -0.2373  0.7183
  147SAPE  H14X16199   5.606   5.935  -1.287  2.5271  0.8873  0.7966
  147SAPE  H14Y16200   5.632   6.113  -1.308 -1.1991  1.2612 -1.1174
  147SAPE  C31516201   5.503   6.021  -1.457  0.2251 -0.3266  0.0884
  147SAPE  H15X16202   5.474   6.124  -1.487 -0.1063 -0.5453 -0.3655
  147SAPE  H15Y16203   5.410   5.962  -1.445 -0.3590  1.0226  3.0124
  147SAPE  C31616204   5.593   5.958  -1.562  0.1349  0.8090  0.7911
  147SAPE  H16X16205   5.611   5.853  -1.530  1.8817  1.1446  1.0287
  147SAPE  H16Y16206   5.690   6.013  -1.564  0.2630  0.5751 -0.9638
  147SAPE  C31716207   5.539   5.958  -1.713 -0.0806 -0.4602  0.4936
  147SAPE  H17X16208   5.516   6.061  -1.747  2.8740 -0.6341 -2.5289
  147SAPE  H17Y16209   5.446   5.897  -1.707  1.0413 -2.2110  0.6794
  147SAPE  C31816210   5.637   5.896  -1.806 -0.8712  0.0101 -0.7265
  147SAPE  H18X16211   5.597   5.867  -1.906 -0.7405  1.6282 -1.2898
  147SAPE  H18Y16212   5.667   5.805  -1.750  0.6418  1.0060  0.1361
  147SAPE  H18Z16213   5.728   5.959  -1.819  0.0047 -1.0429  0.2052
  148SAPE     N16214   1.586   0.504   0.273 -0.2432 -0.3237 -0.4548
  148SAPE   HN116215   1.491   0.503   0.231 -0.4765  0.7910  0.0245
  148SAPE   HN216216   1.598   0.588   0.332 -2.5536 -0.8825  0.9178
  148SAPE   HN316217   1.658   0.517   0.198  0.5612 -1.8197  0.0082
  148SAPE   C1216218   1.616   0.391   0.353  0.0560 -0.0716  0.5552
  148SAPE  H12A16219   1.533   0.371   0.424 -0.9368  1.5437 -0.1093
  148SAPE  H12B16220   1.707   0.409   0.414  0.3062 -1.9350  0.7879
  148SAPE   C1116221   1.649   0.268   0.258  0.2000 -1.0044 -0.9072
  148SAPE  H11A16222   1.555   0.256   0.201  1.5979 -2.6052 -3.0524
  148SAPE  H11B16223   1.669   0.172   0.309  0.1705 -2.0341 -2.7318
  148SAPE     P16224   1.776   0.221   0.038  0.5584  0.0319 -0.0807
  148SAPE   O1316225   1.877   0.288  -0.049  0.4133 -0.8222 -0.3625
  148SAPE   O1416226   1.803   0.079   0.080  0.1988 -0.5747  0.6931
  148SAPE   O1216227   1.753   0.306   0.166  0.2056 -0.4638 -0.3651
  148SAPE   O1116228   1.636   0.222  -0.030  0.0890 -0.2920  0.1602
  148SAPE    C116229   1.591   0.352  -0.084 -0.2503  0.3860  0.5523
  148SAPE    HA16230   1.495   0.376  -0.033 -1.2463 -0.0785 -1.0176
  148SAPE    HB16231   1.653   0.441  -0.062 -1.1888  1.4054 -0.8285
  148SAPE    C216232   1.567   0.350  -0.234 -0.2329  1.0389  0.3653
  148SAPE    HS16233   1.514   0.444  -0.261  0.2904  1.0597 -0.6332
  148SAPE   O2116234   1.487   0.237  -0.270 -0.4466  0.1608  0.3106
  148SAPE   C2116235   1.355   0.249  -0.235  0.3822  0.2496  0.0811
  148SAPE   O2216236   1.307   0.349  -0.183 -0.1681 -0.6867  0.5401
  148SAPE   C2216237   1.267   0.134  -0.275  0.3098  0.4037  0.3654
  148SAPE   H2R16238   1.334   0.045  -0.275 -0.1299  0.0576  1.2115
  148SAPE   H2S16239   1.199   0.112  -0.190  0.6184 -0.8744  0.2967
  148SAPE    C316240   1.696   0.348  -0.317 -0.1643 -0.2415  0.5309
  148SAPE    HX16241   1.742   0.247  -0.311  0.2162 -0.1495 -0.4811
  148SAPE    HY16242   1.766   0.430  -0.291  0.6891  0.0934 -2.4008
  148SAPE   O3116243   1.667   0.367  -0.456 -0.5502  0.0033 -0.5349
  148SAPE   C3116244   1.763   0.398  -0.537  0.2548  0.0777 -0.5235
  148SAPE   O3216245   1.876   0.417  -0.504 -0.1112  0.2925  0.2879
  148SAPE   C3216246   1.703   0.422  -0.681 -0.1419  0.3346 -0.2143
  148SAPE   H2X16247   1.676   0.529  -0.692 -1.2970 -0.1224 -2.1009
  148SAPE   H2Y16248   1.612   0.363  -0.703 -0.4985  0.8175 -0.0681
  148SAPE   C2316249   1.195   0.163  -0.418 -0.1799 -0.1065 -0.1209
  148SAPE   H3R16250   1.113   0.237  -0.405  0.2197  0.4452 -0.6850
  148SAPE   H3S16251   1.149   0.063  -0.433  0.4865 -0.4079 -0.1773
  148SAPE   C2416252   1.288   0.192  -0.536 -0.2862 -0.9246 -0.5598
  148SAPE   H4R16253   1.336   0.291  -0.518 -1.5647 -0.0613 -1.6266
  148SAPE   H4S16254   1.224   0.218  -0.623 -1.6063 -2.1492  0.0085
  148SAPE   C2516255   1.394   0.085  -0.559  0.0647 -0.8528 -0.1703
  148SAPE   H5R16256   1.467   0.060  -0.480  1.3610 -3.3565 -2.0107
  148SAPE   C2616257   1.396   0.012  -0.677 -0.1099  0.1718  0.4003
  148SAPE   H6R16258   1.480  -0.055  -0.697 -0.5582 -0.5500  0.8903
  148SAPE   C2716259   1.292   0.004  -0.790  0.1631 -0.2411  0.1086
  148SAPE   H7R16260   1.190   0.024  -0.749 -0.1680  1.4607 -1.4244
  148SAPE   H7S16261   1.297  -0.099  -0.829 -0.7992 -0.6511  1.0128
  148SAPE   C2816262   1.336   0.107  -0.894  0.7059 -0.4511 -0.2465
  148SAPE   H8R16263   1.324   0.207  -0.851  1.2871 -0.6638  0.4287
  148SAPE   C2916264   1.388   0.090  -1.020  0.2521  0.1356  0.6182
  148SAPE   H9R16265   1.406   0.185  -1.073 -1.5068 -0.3651 -0.9603
  148SAPE  C21016266   1.420  -0.045  -1.094 -0.2131 -0.6862 -0.7838
  148SAPE  H10R16267   1.332  -0.112  -1.105 -0.8179  0.0874 -0.7412
  148SAPE  H10S16268   1.493  -0.100  -1.032 -0.2488  0.0027 -0.1197
  148SAPE  C21116269   1.488  -0.027  -1.222  0.3412 -0.0121  0.5499
  148SAPE  H11R16270   1.595  -0.003  -1.211  0.3327 -0.0175  0.6409
  148SAPE  C21216271   1.437  -0.057  -1.348 -0.1507 -0.4867 -0.0232
  148SAPE  H12R16272   1.497  -0.030  -1.436  0.8634 -0.9588  0.5095
  148SAPE  C21316273   1.298  -0.099  -1.380  0.4865  0.1335  0.4714
  148SAPE  H13R16274   1.265  -0.164  -1.297 -1.8322  0.4015 -0.1555
  148SAPE  H13S16275   1.297  -0.172  -1.463  1.4968 -3.2097  3.2038
  148SAPE  C21416276   1.191   0.002  -1.415 -0.3606  0.1168 -0.0079
  148SAPE  H14R16277   1.149   0.048  -1.325 -0.9292  1.3461 -0.8728
  148SAPE  C21516278   1.141   0.035  -1.536 -0.8362  0.3350  0.0556
  148SAPE  H15R16279   1.056   0.104  -1.538 -0.1284  1.4302  2.9236
  148SAPE  C21616280   1.196  -0.019  -1.663 -0.1762  0.7863  0.3308
  148SAPE  H16R16281   1.150  -0.119  -1.676  0.4780  0.5294 -0.0819
  148SAPE  H16S16282   1.307  -0.022  -1.656 -0.0167  2.3091 -1.1394
  148SAPE  C21716283   1.158   0.063  -1.787  0.2204  0.1624  0.2844
  148SAPE  H17R16284   1.222   0.030  -1.871  0.1892 -2.2917  1.1436
  148SAPE  H17S16285   1.188   0.169  -1.773  1.8940 -0.4404  1.6511
  148SAPE  C21816286   1.015   0.062  -1.815  0.8015  0.8827 -0.8163
  148SAPE  H18R16287   0.947   0.104  -1.738  0.7261 -2.1128  0.9513
  148SAPE  H18S16288   0.988  -0.046  -1.818 -0.4968  1.1387  0.7001
  148SAPE  C21916289   0.981   0.132  -1.950  0.6108 -0.3699 -0.4897
  148SAPE  H19R16290   1.013   0.238  -1.959  1.6884 -0.6568 -0.2177
  148SAPE  H19S16291   0.870   0.129  -1.953  0.6017 -1.0408  0.1242
  148SAPE  C22016292   1.019   0.052  -2.074 -0.5227 -0.3893  0.0652
  148SAPE  H20R16293   0.965  -0.044  -2.086 -2.8329  0.9400 -0.6929
  148SAPE  H20S16294   1.129   0.044  -2.092 -0.5641  1.3063 -1.2521
  148SAPE  H20T16295   0.998   0.114  -2.164  0.3574 -0.6468 -0.3388
  148SAPE   C3316296   1.806   0.394  -0.791  0.5888  0.3950 -0.5211
  148SAPE   H3X16297   1.856   0.296  -0.770 -1.1585 -0.7084 -1.2703
  148SAPE   H3Y16298   1.893   0.463  -0.792  1.6427 -0.8302  1.1845
  148SAPE   C3416299   1.744   0.371  -0.929  0.6370 -0.3538 -0.0003
  148SAPE   H4X16300   1.696   0.464  -0.966  1.0337 -0.5082 -0.9408
  148SAPE   H4Y16301   1.667   0.294  -0.910  0.4039 -0.1698 -0.1810
  148SAPE   C3516302   1.846   0.325  -1.041 -0.2346  0.0091 -0.3504
  148SAPE   H5X16303   1.910   0.246  -0.997  0.4758  0.8065  0.0624
  148SAPE   H5Y16304   1.919   0.403  -1.069  0.6778  0.4135  2.7677
  148SAPE   C3616305   1.769   0.256  -1.162 -0.9535 -0.5863 -0.4085
  148SAPE   H6X16306   1.708   0.171  -1.124  0.2143 -0.1488  2.8402
  148SAPE   H6Y16307   1.852   0.224  -1.229 -0.3251 -0.2700  0.2032
  148SAPE   C3716308   1.691   0.365  -1.230 -0.5131  0.7066 -0.7107
  148SAPE   H7X16309   1.758   0.454  -1.234  0.3922  0.0119 -2.7732
  148SAPE   H7Y16310   1.612   0.402  -1.161 -0.5678  0.9504 -0.9002
  148SAPE   C3816311   1.620   0.333  -1.360  0.2225  0.7185 -0.0576
  148SAPE   H8X16312   1.573   0.429  -1.391 -2.6433 -0.5383  0.0868
  148SAPE   H8Y16313   1.540   0.259  -1.337 -1.3345  2.7450  1.3664
  148SAPE   C3916314   1.707   0.291  -1.476  0.1899  0.3772  0.4717
  148SAPE   H9X16315   1.773   0.207  -1.445  2.8647  2.2921  0.3356
  148SAPE   H9Y16316   1.771   0.381  -1.485  1.4393 -0.5321 -0.0459
  148SAPE  C31016317   1.623   0.253  -1.599  0.2137 -0.0635  0.2504
  148SAPE  H10X16318   1.562   0.336  -1.643  0.5636 -0.1807 -0.4712
  148SAPE  H10Y16319   1.547   0.174  -1.581  1.6029 -1.9890 -1.8503
  148SAPE  C31116320   1.706   0.211  -1.717  0.1742 -0.5980  0.3531
  148SAPE  H11X16321   1.765   0.119  -1.696 -1.1643 -1.6363 -0.2427
  148SAPE  H11Y16322   1.782   0.287  -1.745 -0.3844 -1.2603 -3.4948
  148SAPE  C31216323   1.634   0.186  -1.851 -0.3248  0.0171  0.5875
  148SAPE  H12X16324   1.707   0.184  -1.934 -0.8094 -1.0084  0.1736
  148SAPE  H12Y16325   1.554   0.258  -1.878  0.7695  0.0876 -2.9950
  148SAPE  C31316326   1.577   0.046  -1.860 -0.1966  0.4111  0.7688
  148SAPE  H13X16327   1.496   0.026  -1.787 -0.5637 -3.6164 -0.4532
  148SAPE  H13Y16328   1.656  -0.031  -1.844 -0.1063  0.4002  0.2917
  148SAPE  C31416329   1.508   0.011  -1.991 -0.1148 -0.3785  0.1043
  148SAPE  H14X16330   1.578   0.040  -2.072  0.4903 -1.2907  0.2825
  148SAPE  H14Y16331   1.415   0.069  -2.011 -0.4376 -1.2079 -0.8964
  148SAPE  C31516332   1.472  -0.149  -1.988 -0.2812 -0.3046 -0.1223
  148SAPE  H15X16333   1.427  -0.176  -1.889 -1.2027  0.8595 -0.2073
  148SAPE  H15Y16334   1.565  -0.210  -1.984  0.4959  0.8201  3.6036
  148SAPE  C31616335   1.386  -0.211  -2.100  0.0328  0.5032 -0.6749
  148SAPE  H16X16336   1.420  -0.184  -2.202 -1.8889  1.0410 -1.2176
  148SAPE  H16Y16337   1.289  -0.156  -2.093 -0.1509  0.0131  1.4187
  148SAPE  C31716338   1.374  -0.369  -2.088 -0.7912 -0.4683  0.2752
  148SAPE  H17X16339   1.344  -0.393  -1.984  0.6469 -1.0216  0.5822
  148SAPE  H17Y16340   1.477  -0.407  -2.106  0.7922  3.2413  0.4836
  148SAPE  C31816341   1.270  -0.417  -2.188  0.5315 -0.0967 -0.3538
  148SAPE  H18X16342   1.260  -0.528  -2.199 -0.6888 -0.0894  0.4627
  148SAPE  H18Y16343   1.303  -0.381  -2.288 -0.7034  1.1628 -0.3367
  148SAPE  H18Z16344   1.175  -0.365  -2.163  0.2326 -1.4424  1.5329
  149SAPE     N16345   0.480   1.813   0.229 -0.0650 -0.1502 -0.2836
  149SAPE   HN116346   0.538   1.820   0.315  0.7634  1.1323 -0.9191
  149SAPE   HN216347   0.379   1.796   0.244  0.2387 -2.4059 -0.4394
  149SAPE   HN316348   0.529   1.744   0.168  2.4280  2.3584 -1.3622
  149SAPE   C1216349   0.514   1.950   0.160 -0.7695  0.0936  0.1967
  149SAPE  H12A16350   0.498   2.034   0.231  1.2397  1.0158 -0.3756
  149SAPE  H12B16351   0.441   1.971   0.079 -0.2585  0.8371 -0.0739
  149SAPE   C1116352   0.659   1.959   0.116 -0.1980  0.0643 -0.2150
  149SAPE  H11A16353   0.667   2.067   0.092 -2.7843  0.5189  0.6274
  149SAPE  H11B16354   0.689   1.898   0.028  2.1310  0.3116  0.3487
  149SAPE     P16355   0.899   1.887   0.212  0.1739  0.1170  0.1424
  149SAPE   O1316356   0.995   1.989   0.262 -0.1418 -0.0346  0.5411
  149SAPE   O1416357   0.904   1.759   0.282  0.6345  0.2196 -0.3172
  149SAPE   O1216358   0.745   1.932   0.220  0.4374 -0.1266 -0.3052
  149SAPE   O1116359   0.913   1.849   0.057 -0.0931 -0.1835 -0.0734
  149SAPE    C116360   0.962   1.951  -0.039  0.4176  0.0143  0.3413
  149SAPE    HA16361   0.878   1.976  -0.107 -1.0750 -0.2963  1.9831
  149SAPE    HB16362   0.994   2.049   0.004  0.1167 -0.1858  1.0413
  149SAPE    C216363   1.071   1.885  -0.126  0.1824  0.4748  0.0635
  149SAPE    HS16364   1.082   1.955  -0.212  0.7776 -2.9963 -2.8865
  149SAPE   O2116365   1.046   1.756  -0.183 -0.2892  0.2365  0.1045
  149SAPE   C2116366   0.951   1.754  -0.276  0.1914 -0.4855 -0.0418
  149SAPE   O2216367   0.887   1.851  -0.316  0.0617  0.4571  0.3644
  149SAPE   C2216368   0.926   1.607  -0.324 -0.1969  0.5313  0.5145
  149SAPE   H2R16369   0.933   1.536  -0.238 -0.3605  0.3384  0.3684
  149SAPE   H2S16370   0.821   1.612  -0.359  0.1155 -0.4086 -0.6322
  149SAPE    C316371   1.209   1.895  -0.052 -0.2811  0.1529 -0.4710
  149SAPE    HX16372   1.218   1.824   0.033 -0.6102  1.2636  0.5215
  149SAPE    HY16373   1.217   1.994  -0.001  3.7473  0.6765 -1.7602
  149SAPE   O3116374   1.315   1.888  -0.137 -0.5287 -0.8674  0.5950
  149SAPE   C3116375   1.377   1.764  -0.158  1.2272  0.1781  0.2353
  149SAPE   O3216376   1.362   1.669  -0.082  0.7851  0.1075 -0.1616
  149SAPE   C3216377   1.471   1.783  -0.271 -0.7905  0.0590 -0.3209
  149SAPE   H2X16378   1.557   1.842  -0.232 -0.6230 -0.7488  0.5759
  149SAPE   H2Y16379   1.428   1.843  -0.354  0.7902  0.5498 -0.8389
  149SAPE   C2316380   1.035   1.564  -0.425 -0.4398 -0.6518  0.7939
  149SAPE   H3R16381   1.135   1.545  -0.381  0.7939 -1.3664 -2.1070
  149SAPE   H3S16382   1.041   1.642  -0.503 -2.4759 -1.2968 -0.0849
  149SAPE   C2416383   0.993   1.439  -0.505  0.4060  0.5353 -0.3206
  149SAPE   H4R16384   0.916   1.467  -0.580  3.1383  1.1517 -3.0972
  149SAPE   H4S16385   0.954   1.361  -0.435 -0.5409  1.3036  0.0305
  149SAPE   C2516386   1.111   1.372  -0.576 -0.3848  0.0665 -0.4087
  149SAPE   H5R16387   1.195   1.353  -0.508 -0.3808  1.6355  0.0757
  149SAPE   C2616388   1.120   1.366  -0.709 -0.5883 -0.4775  0.4214
  149SAPE   H6R16389   1.211   1.327  -0.757  0.5669  1.1844  1.1462
  149SAPE   C2716390   1.028   1.407  -0.827 -0.2688  0.3401 -0.0780
  149SAPE   H7R16391   0.931   1.410  -0.774  0.9602 -0.1525  2.3540
  149SAPE   H7S16392   1.037   1.332  -0.909  0.8130  0.9093 -0.5090
  149SAPE   C2816393   1.080   1.543  -0.867 -0.3465 -0.0554  0.1011
  149SAPE   H8R16394   1.072   1.618  -0.788 -3.2008 -1.4530  1.2843
  149SAPE   C2916395   1.133   1.581  -0.983  0.3073  0.0481  0.2113
  149SAPE   H9R16396   1.157   1.687  -1.000  2.3176 -0.4313 -0.2599
  149SAPE  C21016397   1.171   1.495  -1.107  0.2785 -0.9509 -0.4923
  149SAPE  H10R16398   1.183   1.389  -1.077  3.8539 -0.8663 -1.2579
  149SAPE  H10S16399   1.271   1.523  -1.147  0.2027  0.1264  0.0349
  149SAPE  C21116400   1.063   1.493  -1.209  0.1472 -0.6459  0.9856
  149SAPE  H11R16401   0.961   1.519  -1.176 -0.0397 -1.7950  1.3545
  149SAPE  C21216402   1.083   1.478  -1.346 -0.2944  0.2411 -0.1834
  149SAPE  H12R16403   0.994   1.488  -1.410  0.2020 -0.4529 -0.9972
  149SAPE  C21316404   1.209   1.443  -1.416 -0.3020  0.1331 -0.0225
  149SAPE  H13R16405   1.255   1.369  -1.347 -2.0773  0.0276  1.1136
  149SAPE  H13S16406   1.285   1.524  -1.421  0.9747 -0.6655  3.6965
  149SAPE  C21416407   1.186   1.380  -1.548 -0.9594  0.0479 -0.0920
  149SAPE  H14R16408   1.177   1.271  -1.543  1.9413 -0.2367  1.5197
  149SAPE  C21516409   1.186   1.434  -1.675 -0.1050  0.0517 -0.5502
  149SAPE  H15R16410   1.166   1.367  -1.760 -0.7369 -0.0479 -0.3246
  149SAPE  C21616411   1.203   1.576  -1.717 -0.5351  0.3350  0.2625
  149SAPE  H16R16412   1.290   1.612  -1.658  0.1400 -1.9951  0.7919
  149SAPE  H16S16413   1.118   1.639  -1.683 -1.2986 -1.9168  2.9114
  149SAPE  C21716414   1.231   1.601  -1.866  0.0908  0.4554  0.7522
  149SAPE  H17R16415   1.313   1.539  -1.909  0.7910 -0.0901  2.7717
  149SAPE  H17S16416   1.263   1.707  -1.880 -0.7964  0.7051  0.5707
  149SAPE  C21816417   1.109   1.564  -1.963 -0.8136  0.0273  0.2211
  149SAPE  H18R16418   1.036   1.647  -1.955 -1.6164 -0.7379  1.0856
  149SAPE  H18S16419   1.062   1.465  -1.944 -2.6956  0.8986  0.3105
  149SAPE  C21916420   1.150   1.534  -2.111 -0.0258 -0.3517  0.6547
  149SAPE  H19R16421   1.061   1.481  -2.151 -1.5136  2.3185  0.1394
  149SAPE  H19S16422   1.238   1.468  -2.098 -0.7844 -1.2232  1.4847
  149SAPE  C22016423   1.168   1.662  -2.191 -0.6479 -0.3552  0.4264
  149SAPE  H20R16424   1.090   1.735  -2.161 -0.2364  0.8159 -1.2324
  149SAPE  H20S16425   1.160   1.639  -2.299  1.0166  1.4172 -0.1351
  149SAPE  H20T16426   1.264   1.716  -2.173 -0.5170 -0.1667 -0.7670
  149SAPE   C3316427   1.535   1.649  -0.321 -0.1317 -0.2510  0.0124
  149SAPE   H3X16428   1.571   1.597  -0.230  1.4306 -3.1152 -2.0706
  149SAPE   H3Y16429   1.612   1.675  -0.396  0.6210 -1.1963  0.4369
  149SAPE   C3416430   1.440   1.562  -0.398  0.3042  0.3110  0.0743
  149SAPE   H4X16431   1.339   1.557  -0.351  0.4578 -1.9372  0.2750
  149SAPE   H4Y16432   1.480   1.458  -0.391 -0.0863  0.2185  1.0977
  149SAPE   C3516433   1.430   1.610  -0.548 -0.5966  0.0674  0.1262
  149SAPE   H5X16434   1.414   1.720  -0.542  1.2958  0.3241  0.9361
  149SAPE   H5Y16435   1.337   1.571  -0.595  0.1727  1.7342 -3.0017
  149SAPE   C3616436   1.551   1.568  -0.637  0.7506 -0.2181 -0.4314
  149SAPE   H6X16437   1.579   1.462  -0.615  2.2945  0.4210  0.8987
  149SAPE   H6Y16438   1.648   1.611  -0.604  2.1028 -1.8959 -2.0174
  149SAPE   C3716439   1.526   1.600  -0.783  0.0094  0.1376  0.3262
  149SAPE   H7X16440   1.514   1.710  -0.797  1.7413  0.3493  0.2100
  149SAPE   H7Y16441   1.432   1.549  -0.809  1.9109 -2.2390 -2.5266
  149SAPE   C3816442   1.631   1.546  -0.882 -0.5373 -0.2457  0.2623
  149SAPE   H8X16443   1.667   1.443  -0.861 -0.2334 -0.5310 -1.5083
  149SAPE   H8Y16444   1.725   1.603  -0.864 -0.1165 -0.0902 -2.1026
  149SAPE   C3916445   1.582   1.555  -1.025 -0.5756 -0.4568  0.4049
  149SAPE   H9X16446   1.515   1.643  -1.038  0.7393  0.7497  1.4233
  149SAPE   H9Y16447   1.523   1.464  -1.046 -0.9054  0.0438 -0.9807
  149SAPE  C31016448   1.702   1.581  -1.126  0.1485 -0.6312 -0.4664
  149SAPE  H10X16449   1.782   1.504  -1.118  2.1082  1.3845  0.2922
  149SAPE  H10Y16450   1.761   1.666  -1.086  2.0988 -1.9613 -0.3717
  149SAPE  C31116451   1.649   1.611  -1.261  0.0982 -0.0238 -0.3721
  149SAPE  H11X16452   1.728   1.660  -1.322 -0.0040  0.3972 -0.1627
  149SAPE  H11Y16453   1.573   1.690  -1.247  0.6115  0.4281 -0.0705
  149SAPE  C31216454   1.604   1.492  -1.348  0.5626  0.1041 -0.0189
  149SAPE  H12X16455   1.515   1.439  -1.307  0.9298 -0.6546 -0.1775
  149SAPE  H12Y16456   1.696   1.430  -1.354 -0.1203 -0.8049 -2.6432
  149SAPE  C31316457   1.564   1.532  -1.496  0.2600 -0.0403 -0.8009
  149SAPE  H13X16458   1.484   1.608  -1.485  1.8184  1.4730  0.9378
  149SAPE  H13Y16459   1.525   1.445  -1.553  1.1917 -0.2747 -1.1008
  149SAPE  C31416460   1.676   1.603  -1.574 -0.1406  0.0585  0.0982
  149SAPE  H14X16461   1.759   1.531  -1.591  1.0453  1.1811  0.9115
  149SAPE  H14Y16462   1.714   1.690  -1.516 -0.3782  1.7975 -2.2374
  149SAPE  C31516463   1.632   1.646  -1.714 -0.1390 -0.4792 -0.2143
  149SAPE  H15X16464   1.721   1.697  -1.759  0.8012 -1.5188  0.4057
  149SAPE  H15Y16465   1.557   1.727  -1.705  0.8115  0.2920  1.1834
  149SAPE  C31616466   1.604   1.537  -1.822 -0.0544  0.4631 -0.4813
  149SAPE  H16X16467   1.510   1.492  -1.782 -1.6738  2.8761 -1.3538
  149SAPE  H16Y16468   1.682   1.458  -1.826 -0.8850 -0.3432 -1.2911
  149SAPE  C31716469   1.583   1.580  -1.969 -0.7315  0.4102  0.2233
  149SAPE  H17X16470   1.527   1.676  -1.965 -1.3739  0.1044 -0.9729
  149SAPE  H17Y16471   1.534   1.495  -2.021 -0.3268 -0.3573  1.0728
  149SAPE  C31816472   1.713   1.603  -2.047  0.1447 -0.5372 -0.1824
  149SAPE  H18X16473   1.772   1.509  -2.057  1.6465  0.4223 -0.6068
  149SAPE  H18Y16474   1.762   1.694  -2.006 -1.4090  0.4619 -0.4602
  149SAPE  H18Z16475   1.672   1.628  -2.148 -0.0528  0.6528  0.1770
  150SAPE     N16476   4.294   3.572   8.767 -0.7810 -0.0835 -0.2549
  150SAPE   HN116477   4.358   3.610   8.694 -1.1922  0.6559 -0.2384
  150SAPE   HN216478   4.233   3.641   8.816  1.2358  2.7582 -1.4921
  150SAPE   HN316479   4.353   3.520   8.835 -1.0569  0.7466  0.6358
  150SAPE   C1216480   4.192   3.480   8.704 -0.4695 -0.1254 -0.1579
  150SAPE  H12A16481   4.128   3.439   8.785 -1.3486  1.2330 -0.1432
  150SAPE  H12B16482   4.246   3.399   8.649 -1.6911 -1.0169 -0.0874
  150SAPE   C1116483   4.117   3.563   8.601  0.1780  0.0338 -0.5150
  150SAPE  H11A16484   4.052   3.631   8.660 -0.8722 -2.2699  1.1285
  150SAPE  H11B16485   4.043   3.500   8.547  0.5217  1.1795 -2.4153
  150SAPE     P16486   4.150   3.688   8.394  0.2726  0.0512  0.4746
  150SAPE   O1316487   4.030   3.768   8.434  0.1895 -0.1822 -0.1661
  150SAPE   O1416488   4.256   3.758   8.317 -1.1064  0.5147 -0.2776
  150SAPE   O1216489   4.217   3.624   8.517  0.0168 -0.2333 -0.1054
  150SAPE   O1116490   4.102   3.564   8.321 -0.5360  0.3372  0.2049
  150SAPE    C116491   4.050   3.584   8.187  0.5794  0.0126  0.3180
  150SAPE    HA16492   3.949   3.538   8.179  1.1402 -1.1873 -0.1855
  150SAPE    HB16493   4.029   3.689   8.160 -2.1253 -1.0481 -2.3300
  150SAPE    C216494   4.139   3.514   8.076  0.0042  0.3699 -0.4133
  150SAPE    HS16495   4.081   3.499   7.983 -0.7391 -1.9181  0.3419
  150SAPE   O2116496   4.171   3.384   8.128 -0.0960  0.4695 -0.5522
  150SAPE   C2116497   4.166   3.281   8.034 -0.3019 -0.3036  0.2149
  150SAPE   O2216498   4.134   3.294   7.918 -0.1431  0.3748 -0.9192
  150SAPE   C2216499   4.212   3.153   8.103 -0.4053 -0.1058 -0.7839
  150SAPE   H2R16500   4.267   3.190   8.193 -0.4356 -1.0868 -0.3484
  150SAPE   H2S16501   4.120   3.104   8.140  1.2165 -0.9057  2.6936
  150SAPE    C316502   4.270   3.592   8.039  0.0809  0.7432  0.0995
  150SAPE    HX16503   4.344   3.582   8.122 -1.1529 -2.7017  0.9659
  150SAPE    HY16504   4.254   3.701   8.027 -2.1186  0.1913 -3.2465
  150SAPE   O3116505   4.312   3.552   7.904  0.0068 -0.1534  0.4796
  150SAPE   C3116506   4.408   3.451   7.906  0.2255 -0.2026 -0.0901
  150SAPE   O3216507   4.449   3.405   8.011 -0.2781  0.0008 -0.6490
  150SAPE   C3216508   4.424   3.404   7.767  0.6702 -0.2768 -0.9042
  150SAPE   H2X16509   4.332   3.434   7.712 -0.3399  1.1047  1.4183
  150SAPE   H2Y16510   4.405   3.295   7.779 -3.1882  0.3538  0.1327
  150SAPE   C2316511   4.305   3.078   8.007  0.4261  0.0287 -0.0630
  150SAPE   H3R16512   4.366   3.007   8.067  2.2540 -0.4824 -2.3898
  150SAPE   H3S16513   4.369   3.147   7.948 -0.3469  1.1767  0.3985
  150SAPE   C2416514   4.229   2.986   7.911 -0.4330  0.2230 -0.0491
  150SAPE   H4R16515   4.161   3.053   7.855 -0.5597 -0.0578 -0.2314
  150SAPE   H4S16516   4.160   2.924   7.972 -0.1480  1.3228  1.4727
  150SAPE   C2516517   4.329   2.911   7.826 -0.1963 -0.1690 -0.0070
  150SAPE   H5R16518   4.391   2.848   7.892  0.5058  0.7499  0.2163
  150SAPE   C2616519   4.361   2.936   7.693 -0.3474  0.2407 -0.3071
  150SAPE   H6R16520   4.432   2.870   7.641  0.1588 -0.7471  1.5460
  150SAPE   C2716521   4.287   3.032   7.597 -0.2293  0.0251 -0.8485
  150SAPE   H7R16522   4.363   3.069   7.525 -0.5498  0.8053 -0.7972
  150SAPE   H7S16523   4.245   3.123   7.645  0.7802 -0.2295  0.6197
  150SAPE   C2816524   4.181   2.949   7.529 -0.3915 -0.0071  0.0831
  150SAPE   H8R16525   4.095   2.925   7.593 -2.7759 -0.2184 -3.0044
  150SAPE   C2916526   4.173   2.923   7.399  0.2608  0.6484 -0.4726
  150SAPE   H9R16527   4.089   2.863   7.361  0.1066  0.6543 -0.1462
  150SAPE  C21016528   4.285   2.946   7.306 -0.2576  0.9790 -0.0700
  150SAPE  H10R16529   4.300   2.867   7.229 -2.9434  0.6158 -0.3347
  150SAPE  H10S16530   4.373   2.943   7.374 -1.0112  0.0801  0.8974
  150SAPE  C21116531   4.268   3.069   7.225 -0.1692 -0.1644 -1.3973
  150SAPE  H11R16532   4.164   3.106   7.222  0.3310  1.5669  0.2851
  150SAPE  C21216533   4.366   3.132   7.161 -0.1375 -0.7384 -0.3428
  150SAPE  H12R16534   4.338   3.216   7.096 -0.7417 -0.5655  0.1277
  150SAPE  C21316535   4.513   3.085   7.160  0.2023  0.2453 -0.5617
  150SAPE  H13R16536   4.543   3.081   7.053 -0.0584  2.4227 -0.7583
  150SAPE  H13S16537   4.517   2.981   7.199  2.7434 -0.1243 -1.6452
  150SAPE  C21416538   4.618   3.165   7.230  0.0582 -0.3347 -0.1888
  150SAPE  H14R16539   4.637   3.138   7.334 -0.9905  1.0567  0.3887
  150SAPE  C21516540   4.693   3.264   7.173 -0.1661  0.2187  0.1258
  150SAPE  H15R16541   4.769   3.304   7.242  0.5180  1.1998 -1.1477
  150SAPE  C21616542   4.698   3.326   7.034  0.2382 -0.0126 -0.1745
  150SAPE  H16R16543   4.684   3.436   7.046 -0.4223 -0.0777 -0.3198
  150SAPE  H16S16544   4.619   3.286   6.968  1.9935 -2.5518 -0.8816
  150SAPE  C21716545   4.819   3.304   6.944  0.0188  0.5707 -0.3016
  150SAPE  H17R16546   4.905   3.336   7.006  0.9328  1.0868 -1.7783
  150SAPE  H17S16547   4.805   3.380   6.864 -1.1040 -1.4513 -2.1318
  150SAPE  C21816548   4.830   3.163   6.887 -0.1919 -0.0613  0.1702
  150SAPE  H18R16549   4.744   3.141   6.820  0.9876  0.4014 -1.5677
  150SAPE  H18S16550   4.823   3.093   6.973 -1.6765 -0.3504 -0.1501
  150SAPE  C21916551   4.973   3.142   6.828 -0.5683  0.8848  0.2320
  150SAPE  H19R16552   5.054   3.155   6.903  0.0996  1.8098 -0.6175
  150SAPE  H19S16553   4.997   3.221   6.754  0.6473 -0.3981 -0.8150
  150SAPE  C22016554   4.987   3.008   6.763  0.9778 -0.1197 -0.6382
  150SAPE  H20R16555   4.889   2.972   6.725  0.2167  2.8501 -1.7086
  150SAPE  H20S16556   5.015   2.927   6.835 -2.0349 -1.0363 -0.3488
  150SAPE  H20T16557   5.058   3.006   6.678  2.1407  2.1593  0.1961
  150SAPE   C3316558   4.553   3.460   7.705 -0.4063 -0.3746 -0.6679
  150SAPE   H3X16559   4.630   3.449   7.784  2.1321 -0.9643 -3.0754
  150SAPE   H3Y16560   4.550   3.565   7.669  1.0256  1.1048  3.0451
  150SAPE   C3416561   4.609   3.365   7.587 -0.2661 -0.1048  0.7003
  150SAPE   H4X16562   4.525   3.361   7.514 -1.0847  1.4345  1.5116
  150SAPE   H4Y16563   4.627   3.269   7.640  0.0556  1.0130  2.7176
  150SAPE   C3516564   4.729   3.423   7.520 -0.5332  0.1132 -0.2248
  150SAPE   H5X16565   4.771   3.335   7.466 -0.2005 -0.4438  0.8983
  150SAPE   H5Y16566   4.810   3.455   7.589 -2.6424  2.6038  1.2836
  150SAPE   C3616567   4.713   3.549   7.439  0.0891 -0.3164  0.3167
  150SAPE   H6X16568   4.687   3.638   7.500 -0.9090 -0.2753 -0.1496
  150SAPE   H6Y16569   4.630   3.546   7.365 -0.5818  0.9714  0.9921
  150SAPE   C3716570   4.837   3.581   7.345 -0.4215 -0.6475 -0.2725
  150SAPE   H7X16571   4.856   3.498   7.274 -1.2595 -1.5176  0.4818
  150SAPE   H7Y16572   4.923   3.592   7.415  1.5422  0.0503 -2.6884
  150SAPE   C3816573   4.806   3.715   7.276  0.4807 -0.2186 -0.5234
  150SAPE   H8X16574   4.781   3.789   7.355  1.8323 -0.1373 -0.1618
  150SAPE   H8Y16575   4.710   3.706   7.220 -0.5115 -1.6574  1.2660
  150SAPE   C3916576   4.919   3.754   7.187  0.8441 -0.0093 -1.0922
  150SAPE   H9X16577   4.927   3.671   7.114  1.1641  0.9292 -2.1457
  150SAPE   H9Y16578   5.013   3.758   7.247  2.1375  0.6392 -3.0646
  150SAPE  C31016579   4.897   3.888   7.133  0.5765 -0.2502 -0.5210
  150SAPE  H10X16580   4.860   3.956   7.213  0.3147 -1.6312  0.5707
  150SAPE  H10Y16581   4.816   3.895   7.058 -0.2686  0.7852  0.4397
  150SAPE  C31116582   5.017   3.963   7.069  0.2153 -0.5650 -0.7913
  150SAPE  H11X16583   5.086   3.974   7.155  1.1833 -0.7550 -1.5271
  150SAPE  H11Y16584   4.994   4.058   7.017  0.3840 -0.0046  0.1358
  150SAPE  C31216585   5.101   3.872   6.971  0.5154 -0.1659 -1.4083
  150SAPE  H12X16586   5.096   3.770   7.015  2.3177  0.2019 -0.2253
  150SAPE  H12Y16587   5.207   3.904   6.960  0.5943 -0.5429 -1.7825
  150SAPE  C31316588   5.036   3.862   6.835  0.8720 -0.3321  0.2203
  150SAPE  H13X16589   5.032   3.960   6.782 -1.0262 -0.0057  0.8790
  150SAPE  H13Y16590   4.927   3.843   6.849  0.4136  2.1966  0.5872
  150SAPE  C31416591   5.102   3.765   6.733 -0.9919  0.1416  0.0326
  150SAPE  H14X16592   5.119   3.673   6.792  0.4597 -0.1775 -0.8221
  150SAPE  H14Y16593   5.206   3.796   6.710 -0.2321 -1.1873  1.5341
  150SAPE  C31516594   5.029   3.748   6.609  0.3705 -0.3538  0.2783
  150SAPE  H15X16595   5.022   3.852   6.571  3.5469 -0.3642 -0.6150
  150SAPE  H15Y16596   4.925   3.711   6.622  0.4853 -0.8659 -0.2047
  150SAPE  C31616597   5.085   3.643   6.508  0.6083 -0.8160 -0.0044
  150SAPE  H16X16598   5.167   3.699   6.459 -1.9109  0.7363 -2.7852
  150SAPE  H16Y16599   5.006   3.626   6.432  2.0633  0.2794 -1.8473
  150SAPE  C31716600   5.132   3.508   6.566  0.1774 -0.2407  0.2082
  150SAPE  H17X16601   5.050   3.456   6.619  0.8005 -2.5836 -1.0029
  150SAPE  H17Y16602   5.205   3.534   6.645 -1.7716 -0.3815  2.1308
  150SAPE  C31816603   5.218   3.413   6.477 -0.1236  0.3501  0.1226
  150SAPE  H18X16604   5.286   3.469   6.409 -1.4735  0.7067 -0.9732
  150SAPE  H18Y16605   5.143   3.353   6.422  0.7677 -0.7286  0.0485
  150SAPE  H18Z16606   5.277   3.335   6.529 -0.0416  0.2253 -0.1591
  151SAPE     N16607   5.191   0.674   0.375  0.5310 -0.6482 -0.7269
  151SAPE   HN116608   5.115   0.701   0.309 -1.9805 -4.9568  0.0418
  151SAPE   HN216609   5.156   0.693   0.471  1.5901  3.9060 -1.0273
  151SAPE   HN316610   5.278   0.727   0.355 -0.8876  1.5422 -1.3668
  151SAPE   C1216611   5.203   0.526   0.350 -0.2215  0.2593 -0.4621
  151SAPE  H12A16612   5.258   0.505   0.256 -2.1858 -1.1990 -1.3517
  151SAPE  H12B16613   5.101   0.491   0.322 -0.6474 -0.3515  1.6761
  151SAPE   C1116614   5.260   0.449   0.464 -0.9287  0.1808 -0.7710
  151SAPE  H11A16615   5.234   0.342   0.458 -2.6381  0.5787 -0.9851
  151SAPE  H11B16616   5.202   0.478   0.555 -0.0046 -0.4823  0.0556
  151SAPE     P16617   5.516   0.426   0.397 -0.4031  0.3054 -0.4237
  151SAPE   O1316618   5.596   0.543   0.348 -0.6193 -0.2580  0.0669
  151SAPE   O1416619   5.589   0.317   0.464  0.4812  0.2358 -1.1040
  151SAPE   O1216620   5.399   0.479   0.487  0.6933 -0.1783 -0.0740
  151SAPE   O1116621   5.439   0.362   0.280 -0.1522  0.0977  0.4205
  151SAPE    C116622   5.496   0.290   0.169  0.1404 -0.5057 -0.8721
  151SAPE    HA16623   5.586   0.235   0.201 -1.2940 -1.5628  1.6017
  151SAPE    HB16624   5.420   0.218   0.130 -0.0658 -1.5156  1.2704
  151SAPE    C216625   5.530   0.389   0.056 -0.3185  0.6761  0.6370
  151SAPE    HS16626   5.599   0.458   0.110  0.7846 -0.8353  1.2191
  151SAPE   O2116627   5.418   0.454   0.007 -1.0819 -0.2070  0.1543
  151SAPE   C2116628   5.437   0.574  -0.038  0.1576  0.2802  0.2152
  151SAPE   O2216629   5.543   0.637  -0.034  0.2800  0.3003  0.1748
  151SAPE   C2216630   5.308   0.631  -0.103 -0.4131  0.6292 -0.1087
  151SAPE   H2R16631   5.244   0.541  -0.116  1.7566 -0.8674 -1.0199
  151SAPE   H2S16632   5.266   0.712  -0.039 -0.7095 -1.0790  1.9678
  151SAPE    C316633   5.601   0.306  -0.059  0.1480 -0.8184  0.7920
  151SAPE    HX16634   5.520   0.251  -0.112 -1.1903  1.5510  0.2646
  151SAPE    HY16635   5.666   0.225  -0.020  4.0361  1.0777 -1.2306
  151SAPE   O3116636   5.688   0.384  -0.151  0.8248  0.3340  0.2143
  151SAPE   C3116637   5.805   0.418  -0.095  0.5230  0.3633 -0.5096
  151SAPE   O3216638   5.849   0.374   0.009 -0.1426 -0.1415  0.6315
  151SAPE   C3216639   5.879   0.513  -0.191  0.1286 -0.5055  0.9301
  151SAPE   H2X16640   5.956   0.568  -0.132  0.0191  0.9571 -0.2382
  151SAPE   H2Y16641   5.800   0.585  -0.221 -0.7368 -2.2546 -1.3049
  151SAPE   C2316642   5.331   0.691  -0.244 -0.3473  0.4635 -0.3216
  151SAPE   H3R16643   5.378   0.628  -0.322  0.0279  0.2993  0.0382
  151SAPE   H3S16644   5.409   0.767  -0.221  2.3540 -2.3737  0.6004
  151SAPE   C2416645   5.210   0.771  -0.301 -0.2018 -1.1073  0.0688
  151SAPE   H4R16646   5.245   0.830  -0.388 -1.4833 -1.4128 -0.6755
  151SAPE   H4S16647   5.168   0.831  -0.217 -1.3964 -0.8626 -0.6799
  151SAPE   C2516648   5.110   0.675  -0.355 -0.1155 -0.4953 -0.5910
  151SAPE   H5R16649   5.035   0.647  -0.279  0.0721  0.7075  0.0644
  151SAPE   C2616650   5.103   0.619  -0.477 -0.7311  0.2915 -0.4000
  151SAPE   H6R16651   5.027   0.545  -0.506  0.8754 -1.6115 -0.0175
  151SAPE   C2716652   5.203   0.648  -0.583  0.0795 -0.5543  0.3880
  151SAPE   H7R16653   5.296   0.629  -0.525  1.2345 -1.7118 -1.7077
  151SAPE   H7S16654   5.198   0.749  -0.628  2.3499 -0.6234 -0.1639
  151SAPE   C2816655   5.208   0.533  -0.691  0.9069 -0.5760 -0.3534
  151SAPE   H8R16656   5.252   0.442  -0.648 -0.9060 -0.5906  1.6226
  151SAPE   C2916657   5.181   0.541  -0.823  0.9830  0.1723  0.5068
  151SAPE   H9R16658   5.200   0.452  -0.884 -2.2826 -0.2157 -0.1039
  151SAPE  C21016659   5.131   0.668  -0.891 -0.5299 -1.1483 -0.6654
  151SAPE  H10R16660   5.086   0.737  -0.817  0.7402 -1.0509  0.0615
  151SAPE  H10S16661   5.050   0.643  -0.962 -1.6429  1.3218 -0.3693
  151SAPE  C21116662   5.238   0.748  -0.959 -0.0294 -0.1212 -1.6834
  151SAPE  H11R16663   5.258   0.842  -0.905 -1.1035 -1.6270  1.6011
  151SAPE  C21216664   5.317   0.713  -1.061  0.3535  0.3949 -0.1960
  151SAPE  H12R16665   5.384   0.790  -1.103  1.6177  0.3610  1.6519
  151SAPE  C21316666   5.304   0.579  -1.134 -0.8080 -0.5804 -0.8141
  151SAPE  H13R16667   5.197   0.551  -1.146  0.0607 -3.8693 -1.9608
  151SAPE  H13S16668   5.352   0.497  -1.076 -0.7206 -1.3704 -1.9474
  151SAPE  C21416669   5.356   0.570  -1.277  0.5425 -0.1187 -0.4405
  151SAPE  H14R16670   5.420   0.483  -1.296 -0.4138 -1.3685  1.7202
  151SAPE  C21516671   5.314   0.652  -1.379 -0.4309 -0.5460  0.1816
  151SAPE  H15R16672   5.338   0.632  -1.484 -0.7525  2.9504 -0.6993
  151SAPE  C21616673   5.219   0.763  -1.371  0.8760  0.8225  0.4991
  151SAPE  H16R16674   5.238   0.820  -1.465  0.8215  2.1714  1.2906
  151SAPE  H16S16675   5.231   0.824  -1.279  2.2303 -0.7635  1.4280
  151SAPE  C21716676   5.069   0.712  -1.380  0.3005 -0.6087  0.0802
  151SAPE  H17R16677   5.004   0.799  -1.358  1.3331 -0.5608  3.5145
  151SAPE  H17S16678   5.042   0.651  -1.292 -2.1300 -0.7749 -0.6984
  151SAPE  C21816679   5.022   0.654  -1.515 -0.5567  0.0815  0.3067
  151SAPE  H18R16680   4.924   0.609  -1.489 -0.0005 -0.6624  1.1575
  151SAPE  H18S16681   5.087   0.571  -1.551  0.6293  1.5021 -0.9894
  151SAPE  C21916682   5.000   0.765  -1.619 -0.7836 -0.5173  0.0738
  151SAPE  H19R16683   5.094   0.817  -1.646 -0.0807 -2.0981 -0.6264
  151SAPE  H19S16684   4.939   0.850  -1.580  1.1187  1.5166 -1.1256
  151SAPE  C22016685   4.948   0.696  -1.749 -0.3889 -0.0217 -0.4903
  151SAPE  H20R16686   4.853   0.640  -1.732 -0.4931 -0.2296 -1.6441
  151SAPE  H20S16687   5.029   0.636  -1.796 -0.7766 -0.4427 -0.6245
  151SAPE  H20T16688   4.913   0.771  -1.824 -1.5889 -0.0841 -0.0065
  151SAPE   C3316689   5.944   0.430  -0.307  0.2740 -0.3349 -0.4837
  151SAPE   H3X16690   5.871   0.385  -0.377 -0.4133  0.4371 -0.2868
  151SAPE   H3Y16691   5.993   0.344  -0.257  3.0790  1.2941 -0.2008
  151SAPE   C3416692   6.058   0.506  -0.371  0.5700 -0.8778 -1.0348
  151SAPE   H4X16693   6.122   0.554  -0.294 -2.0371 -1.7682  1.9095
  151SAPE   H4Y16694   6.021   0.579  -0.446 -1.0669  0.0477  0.5988
  151SAPE   C3516695   6.148   0.420  -0.457  0.6641  0.1713 -1.2389
  151SAPE   H5X16696   6.178   0.329  -0.400  1.9688  1.4598  0.2355
  151SAPE   H5Y16697   6.246   0.463  -0.487 -0.3284  3.6692  0.0500
  151SAPE   C3616698   6.084   0.385  -0.591 -0.0772  0.1177  0.2528
  151SAPE   H6X16699   6.042   0.479  -0.633 -1.8891 -1.9391 -3.0279
  151SAPE   H6Y16700   6.008   0.306  -0.573 -0.8893  1.0101  0.8104
  151SAPE   C3716701   6.193   0.349  -0.692  0.0710  0.2636 -0.1530
  151SAPE   H7X16702   6.263   0.273  -0.650  0.2188 -0.0736 -0.9998
  151SAPE   H7Y16703   6.249   0.442  -0.716 -0.7633  0.3211 -2.0154
  151SAPE   C3816704   6.145   0.303  -0.831  0.3215  0.2577  0.0829
  151SAPE   H8X16705   6.070   0.375  -0.871 -0.5927 -1.7765 -2.1379
  151SAPE   H8Y16706   6.092   0.207  -0.811 -0.3178  0.4225 -0.7748
  151SAPE   C3916707   6.262   0.285  -0.930 -0.2617  0.0305 -0.4725
  151SAPE   H9X16708   6.352   0.237  -0.885  0.8106  1.7351 -0.7042
  151SAPE   H9Y16709   6.293   0.384  -0.970  3.4900 -0.1849  1.4792
  151SAPE  C31016710   6.219   0.206  -1.051  0.5653  0.2061  0.2385
  151SAPE  H10X16711   6.151   0.261  -1.120 -0.1261  0.2013  0.8953
  151SAPE  H10Y16712   6.150   0.127  -1.014 -1.0720  3.1834  4.3816
  151SAPE  C31116713   6.323   0.145  -1.146 -0.6974 -0.0791 -0.2452
  151SAPE  H11X16714   6.389   0.082  -1.083 -1.8563 -2.0185 -0.8750
  151SAPE  H11Y16715   6.380   0.234  -1.181 -0.1189  0.3211  1.6295
  151SAPE  C31216716   6.273   0.056  -1.262  0.6483 -0.0349  0.4631
  151SAPE  H12X16717   6.209  -0.021  -1.215  0.1664 -0.6965 -1.2000
  151SAPE  H12Y16718   6.360   0.016  -1.318  1.2648  0.9061  0.7178
  151SAPE  C31316719   6.186   0.133  -1.365  0.1426 -0.6503  0.6921
  151SAPE  H13X16720   6.113   0.208  -1.327  0.4043 -0.1000  0.1343
  151SAPE  H13Y16721   6.127   0.059  -1.424  0.8557 -1.3148  0.7885
  151SAPE  C31416722   6.267   0.196  -1.483  0.1212  0.2874 -0.3855
  151SAPE  H14X16723   6.198   0.206  -1.570  1.9376  0.0415 -1.9071
  151SAPE  H14Y16724   6.347   0.123  -1.508  0.5041 -0.5724  2.8370
  151SAPE  C31516725   6.327   0.334  -1.463 -0.1498 -1.2205  0.1422
  151SAPE  H15X16726   6.414   0.322  -1.396 -1.4732  0.2640  2.2470
  151SAPE  H15Y16727   6.256   0.393  -1.401  1.0533 -1.7687  2.1170
  151SAPE  C31616728   6.349   0.404  -1.591  0.2542 -0.2159 -0.5399
  151SAPE  H16X16729   6.248   0.423  -1.634 -0.6963  1.8624  2.2960
  151SAPE  H16Y16730   6.418   0.339  -1.649  1.7585 -0.6476  1.6090
  151SAPE  C31716731   6.422   0.535  -1.569 -0.2410 -0.0408 -0.3016
  151SAPE  H17X16732   6.530   0.508  -1.561  0.0082  1.4625  2.5142
  151SAPE  H17Y16733   6.392   0.591  -1.478  1.0105  1.3452 -0.7072
  151SAPE  C31816734   6.396   0.626  -1.683  0.0617 -0.0287 -0.5822
  151SAPE  H18X16735   6.288   0.651  -1.691 -0.1314 -0.8419 -0.6005
  151SAPE  H18Y16736   6.425   0.582  -1.780 -2.0887  0.6339 -1.5986
  151SAPE  H18Z16737   6.447   0.724  -1.667 -2.0796  0.8476  1.8200
  152SAPE     N16738   4.968   3.497   8.762  0.1047 -0.5724  0.4258
  152SAPE   HN116739   4.912   3.445   8.692 -1.6564 -0.1631  1.4798
  152SAPE   HN216740   5.026   3.568   8.713 -2.4279  2.2344  1.1394
  152SAPE   HN316741   5.039   3.435   8.807  1.1935 -1.2278 -2.0566
  152SAPE   C1216742   4.896   3.574   8.869 -0.0785 -0.1023 -0.3544
  152SAPE  H12A16743   4.965   3.620   8.943 -1.3276  1.0453  0.1461
  152SAPE  H12B16744   4.827   3.503   8.919 -0.2575 -0.1938 -0.7337
  152SAPE   C1116745   4.808   3.675   8.806  0.0437  0.2161 -0.2556
  152SAPE  H11A16746   4.747   3.724   8.885  0.5398  0.0960  0.2085
  152SAPE  H11B16747   4.730   3.631   8.740  0.7697 -0.3235 -0.7578
  152SAPE     P16748   4.797   3.903   8.694  0.2317  0.0655 -0.0409
  152SAPE   O1316749   4.681   3.864   8.608  0.7854  0.1878  0.5100
  152SAPE   O1416750   4.766   3.989   8.809 -0.2250 -0.7730  0.1094
  152SAPE   O1216751   4.881   3.777   8.735  0.0006  0.4080 -0.0223
  152SAPE   O1116752   4.905   3.980   8.604  0.2282 -0.1977  0.1286
  152SAPE    C116753   4.954   3.935   8.475 -0.3978 -0.0252 -0.3297
  152SAPE    HA16754   5.061   3.965   8.473 -0.5814  0.7192  0.5927
  152SAPE    HB16755   4.936   3.829   8.447  1.4021 -0.8325  1.3605
  152SAPE    C216756   4.895   4.025   8.361  0.1142 -0.1373  0.8705
  152SAPE    HS16757   4.956   4.014   8.268  3.4764 -2.5572  3.1017
  152SAPE   O2116758   4.891   4.162   8.406 -0.1763  0.3497  0.0679
  152SAPE   C2116759   5.008   4.220   8.416  0.3092  0.1244  0.7202
  152SAPE   O2216760   5.115   4.175   8.380 -0.2415 -1.0197  0.2472
  152SAPE   C2216761   4.995   4.356   8.467 -0.2859 -0.3456  0.7215
  152SAPE   H2R16762   4.891   4.393   8.481  0.6656  2.9884 -0.2424
  152SAPE   H2S16763   5.046   4.353   8.566 -0.7521  1.6795  1.0662
  152SAPE    C316764   4.750   3.986   8.318 -0.1297 -0.2185 -0.2972
  152SAPE    HX16765   4.714   4.077   8.265  1.9195  1.3998  0.9473
  152SAPE    HY16766   4.688   3.982   8.410  1.5259  1.2648  0.9548
  152SAPE   O3116767   4.762   3.868   8.237  0.1789  0.1433  0.2227
  152SAPE   C3116768   4.658   3.856   8.155 -0.1986  0.3950  0.2838
  152SAPE   O3216769   4.567   3.934   8.146  0.8780  0.5518  0.1017
  152SAPE   C3216770   4.689   3.739   8.058  0.1506 -0.5021  0.1463
  152SAPE   H2X16771   4.642   3.650   8.104 -0.5094 -0.2740 -0.0791
  152SAPE   H2Y16772   4.799   3.725   8.047  0.0800 -1.1753  0.2646
  152SAPE   C2316773   5.058   4.472   8.392  0.0041  0.1329  0.4626
  152SAPE   H3R16774   5.012   4.473   8.291  0.1981 -0.2922  0.3683
  152SAPE   H3S16775   5.165   4.451   8.372 -0.4173  0.2721 -2.4131
  152SAPE   C2416776   5.055   4.618   8.452 -0.4473  0.3981  0.6672
  152SAPE   H4R16777   4.951   4.657   8.451 -1.0441 -1.0594 -0.9197
  152SAPE   H4S16778   5.116   4.683   8.385  0.4352 -0.3661  0.7048
  152SAPE   C2516779   5.112   4.618   8.593 -0.6050  0.0417 -0.6890
  152SAPE   H5R16780   5.081   4.528   8.648 -1.5867  0.0974 -1.1361
  152SAPE   C2616781   5.194   4.713   8.649 -0.3102 -0.4938 -0.5781
  152SAPE   H6R16782   5.225   4.701   8.753 -2.6755 -1.0919  0.1256
  152SAPE   C2716783   5.241   4.835   8.572 -0.1059  0.6464 -0.7294
  152SAPE   H7R16784   5.177   4.917   8.610 -0.7314 -0.3425  0.4772
  152SAPE   H7S16785   5.224   4.816   8.464  0.6319 -1.0404 -0.5807
  152SAPE   C2816786   5.384   4.850   8.613  0.1872 -0.2274  0.8480
  152SAPE   H8R16787   5.399   4.934   8.682  0.1687  0.0822  0.4797
  152SAPE   C2916788   5.490   4.789   8.542  0.0900 -0.5395 -0.0646
  152SAPE   H9R16789   5.591   4.806   8.583  0.6836 -3.4479 -0.0735
  152SAPE  C21016790   5.480   4.690   8.432 -0.2093  0.1869  0.5474
  152SAPE  H10R16791   5.377   4.650   8.437  0.4241 -1.3576  2.8264
  152SAPE  H10S16792   5.553   4.607   8.445  0.3193  0.7195  1.0237
  152SAPE  C21116793   5.501   4.757   8.294 -0.2136  0.1457 -0.3285
  152SAPE  H11R16794   5.564   4.846   8.304 -0.9566  0.7405 -0.8332
  152SAPE  C21216795   5.449   4.731   8.177  0.9123  0.5733  0.1313
  152SAPE  H12R16796   5.477   4.792   8.090 -2.3676  0.3675 -1.2307
  152SAPE  C21316797   5.354   4.620   8.143  0.2989 -0.2000 -0.1266
  152SAPE  H13R16798   5.299   4.651   8.052  2.0267 -0.9816 -1.4824
  152SAPE  H13S16799   5.275   4.616   8.221 -1.3447  2.0558 -1.5708
  152SAPE  C21416800   5.403   4.480   8.124 -0.0819 -0.0396  0.0928
  152SAPE  H14R16801   5.475   4.443   8.198 -0.3291 -0.5956  0.0565
  152SAPE  C21516802   5.381   4.406   8.015 -0.9365 -0.0652 -0.2558
  152SAPE  H15R16803   5.428   4.310   7.989 -0.2271  1.0742 -3.5870
  152SAPE  C21616804   5.290   4.446   7.904  0.1303  0.1291 -0.3647
  152SAPE  H16R16805   5.303   4.378   7.817 -0.5428  0.7063 -0.9281
  152SAPE  H16S16806   5.323   4.549   7.879 -0.2712  0.9022  2.0615
  152SAPE  C21716807   5.141   4.444   7.947 -0.2209 -0.1989  0.8188
  152SAPE  H17R16808   5.091   4.483   7.856  0.7579  2.8151  1.4715
  152SAPE  H17S16809   5.113   4.521   8.022 -0.1272 -0.6662  1.3378
  152SAPE  C21816810   5.065   4.312   7.983  0.2622 -0.2142  0.5102
  152SAPE  H18R16811   5.099   4.279   8.084  1.7748  1.1335  0.4742
  152SAPE  H18S16812   5.087   4.236   7.906 -0.5736  1.2184 -1.2254
  152SAPE  C21916813   4.914   4.343   7.989  0.6102  0.3309 -0.2678
  152SAPE  H19R16814   4.883   4.407   7.904  1.0771  2.2490  0.9330
  152SAPE  H19S16815   4.889   4.399   8.082 -3.0955 -1.8373  0.2240
  152SAPE  C22016816   4.830   4.213   8.004 -0.2871  0.0258 -0.1570
  152SAPE  H20R16817   4.838   4.146   7.915  0.2502 -0.4946  0.2714
  152SAPE  H20S16818   4.723   4.240   8.013 -0.3400  0.4743 -1.7524
  152SAPE  H20T16819   4.866   4.165   8.098 -0.0922 -2.9980 -1.6317
  152SAPE   C3316820   4.630   3.760   7.913  0.5975  0.3462 -1.4321
  152SAPE   H3X16821   4.529   3.802   7.931  0.1747 -0.6623 -1.3402
  152SAPE   H3Y16822   4.621   3.656   7.875 -2.0622  0.7965 -2.2269
  152SAPE   C3416823   4.712   3.846   7.812 -0.3992 -0.2230  0.2282
  152SAPE   H4X16824   4.714   3.948   7.856 -0.0233  1.3090 -3.0349
  152SAPE   H4Y16825   4.635   3.862   7.734 -1.7974 -3.0357  0.9045
  152SAPE   C3516826   4.856   3.799   7.775 -0.2483 -0.7230 -0.5530
  152SAPE   H5X16827   4.840   3.695   7.741  2.5767 -0.9690 -1.3550
  152SAPE   H5Y16828   4.921   3.782   7.864 -0.5652 -0.2340 -0.2237
  152SAPE   C3616829   4.935   3.858   7.659  0.0569 -0.0675 -0.2613
  152SAPE   H6X16830   4.865   3.870   7.574  0.4066  0.9012 -0.4210
  152SAPE   H6Y16831   5.016   3.786   7.635 -0.4026 -0.8022  0.3206
  152SAPE   C3716832   4.986   3.999   7.673  0.1067  0.3170  0.2766
  152SAPE   H7X16833   5.061   3.998   7.755  0.3447  0.8500  0.0710
  152SAPE   H7Y16834   4.905   4.063   7.713  0.3038  2.1034 -1.9466
  152SAPE   C3816835   5.044   4.058   7.540  0.6770  0.4623 -0.4321
  152SAPE   H8X16836   4.962   4.065   7.466  0.2283  0.6554  0.0797
  152SAPE   H8Y16837   5.112   3.980   7.499  0.3994 -0.5524  0.9713
  152SAPE   C3916838   5.122   4.188   7.553  0.2392  0.5761 -0.1456
  152SAPE   H9X16839   5.208   4.179   7.623  1.3994 -0.4004 -1.6116
  152SAPE   H9Y16840   5.058   4.267   7.597  0.0082  0.3641 -0.0970
  152SAPE  C31016841   5.162   4.247   7.419 -0.2449  1.2970 -0.2541
  152SAPE  H10X16842   5.197   4.352   7.427  1.8163  0.7076 -0.9508
  152SAPE  H10Y16843   5.064   4.246   7.368 -1.7872 -2.5436  2.3162
  152SAPE  C31116844   5.266   4.163   7.343  0.2740  0.4975  0.5855
  152SAPE  H11X16845   5.225   4.060   7.339  0.1412  0.5461  0.6874
  152SAPE  H11Y16846   5.360   4.148   7.401 -0.1812 -0.3657  1.1207
  152SAPE  C31216847   5.294   4.199   7.195 -0.7403 -0.3681  0.0249
  152SAPE  H12X16848   5.318   4.307   7.190  2.3185 -0.7792  2.4342
  152SAPE  H12Y16849   5.208   4.179   7.128  1.5716 -0.8932 -3.0492
  152SAPE  C31316850   5.417   4.127   7.141  0.2719  0.9585  0.5194
  152SAPE  H13X16851   5.392   4.019   7.145  1.0169  0.7500 -0.1173
  152SAPE  H13Y16852   5.498   4.148   7.214 -1.9433  1.2883  3.0125
  152SAPE  C31416853   5.445   4.167   6.992  0.3582  0.0462  0.1786
  152SAPE  H14X16854   5.350   4.175   6.935 -1.0322 -0.7669  2.2497
  152SAPE  H14Y16855   5.521   4.108   6.934  0.1403  0.1946 -0.2638
  152SAPE  C31516856   5.513   4.307   6.989 -0.1323 -0.5079 -0.1542
  152SAPE  H15X16857   5.587   4.298   7.071 -0.6584  1.3994  0.5817
  152SAPE  H15Y16858   5.445   4.390   7.016 -1.9313 -1.3061 -1.8896
  152SAPE  C31616859   5.571   4.340   6.852 -0.7776  0.2017 -0.0454
  152SAPE  H16X16860   5.488   4.367   6.782  0.3245 -2.1003 -2.4277
  152SAPE  H16Y16861   5.608   4.252   6.795 -0.8028  1.1808 -1.6492
  152SAPE  C31716862   5.691   4.438   6.850 -0.5152 -0.0918 -0.7152
  152SAPE  H17X16863   5.721   4.438   6.743 -1.3905 -2.3567 -1.0216
  152SAPE  H17Y16864   5.759   4.385   6.919 -2.2849 -1.6582 -0.0706
  152SAPE  C31816865   5.646   4.576   6.897 -0.1754 -0.4236  0.4009
  152SAPE  H18X16866   5.596   4.572   6.996  0.7138 -0.2245  0.8700
  152SAPE  H18Y16867   5.577   4.609   6.816  1.2832 -1.0262 -1.1358
  152SAPE  H18Z16868   5.730   4.647   6.885  0.6873 -1.7730 -2.3322
  153SAPE     N16869   6.316   4.384   0.516  0.0607 -0.5465 -0.0275
  153SAPE   HN116870   6.364   4.292   0.507  0.4757 -0.3714  0.3665
  153SAPE   HN216871   6.256   4.388   0.601 -0.3592 -4.6583  0.1020
  153SAPE   HN316872   6.251   4.371   0.436 -0.8112  0.8413  0.4131
  153SAPE   C1216873   6.411   4.488   0.485 -0.2352 -0.6249  0.8679
  153SAPE  H12A16874   6.491   4.491   0.563  0.4796 -0.3793  0.1405
  153SAPE  H12B16875   6.352   4.581   0.476  0.7065 -0.1279 -0.4847
  153SAPE   C1116876   6.485   4.433   0.357  0.2686 -0.6794 -0.0436
  153SAPE  H11A16877   6.539   4.338   0.375 -1.2312 -1.9754 -1.8949
  153SAPE  H11B16878   6.557   4.514   0.332 -1.9441  0.9743 -1.4374
  153SAPE     P16879   6.377   4.312   0.146 -0.0278  0.1047 -0.0070
  153SAPE   O1316880   6.349   4.182   0.217 -0.1474  0.0816 -0.1869
  153SAPE   O1416881   6.293   4.352   0.033  0.0934 -0.7983 -0.2606
  153SAPE   O1216882   6.390   4.424   0.251  0.6385  0.1058  0.0490
  153SAPE   O1116883   6.523   4.309   0.089 -0.3195 -0.3963 -0.2730
  153SAPE    C116884   6.578   4.427   0.022  0.4269 -0.2065 -0.3309
  153SAPE    HA16885   6.542   4.523   0.065  2.0921 -0.4261  1.7526
  153SAPE    HB16886   6.687   4.427   0.045  0.3762  1.8044  0.0862
  153SAPE    C216887   6.558   4.424  -0.133 -0.1416  0.7291 -0.4965
  153SAPE    HS16888   6.451   4.448  -0.148 -1.2535 -1.7769  2.5223
  153SAPE   O2116889   6.572   4.294  -0.190 -0.3273 -0.2384  0.0763
  153SAPE   C2116890   6.685   4.241  -0.225 -0.1448  0.4324 -0.4845
  153SAPE   O2216891   6.795   4.276  -0.177  0.3867  0.0664 -0.0795
  153SAPE   C2216892   6.661   4.115  -0.315 -0.7200 -1.3139  0.0045
  153SAPE   H2R16893   6.765   4.076  -0.319  1.3524  3.5766 -2.1394
  153SAPE   H2S16894   6.595   4.049  -0.254 -1.5433 -0.5536 -0.0449
  153SAPE    C316895   6.640   4.535  -0.196 -0.3331  0.6371  0.1624
  153SAPE    HX16896   6.739   4.518  -0.150 -0.5234 -0.7883  0.0680
  153SAPE    HY16897   6.599   4.624  -0.144 -1.8715 -0.4603  0.9199
  153SAPE   O3116898   6.632   4.548  -0.340  0.6191 -0.5048  0.0337
  153SAPE   C3116899   6.716   4.651  -0.391  0.1695  0.0302  0.3663
  153SAPE   O3216900   6.774   4.727  -0.313 -0.2289  0.1073  0.0843
  153SAPE   C3216901   6.724   4.642  -0.548 -0.3351 -0.0464  0.6723
  153SAPE   H2X16902   6.793   4.562  -0.584  1.3799  1.2759  0.8539
  153SAPE   H2Y16903   6.759   4.741  -0.586 -2.7646 -0.0030 -1.6873
  153SAPE   C2316904   6.599   4.160  -0.448  0.0805 -0.5260  0.1950
  153SAPE   H3R16905   6.506   4.218  -0.427 -0.5037 -1.9050  1.6052
  153SAPE   H3S16906   6.561   4.074  -0.507  1.3517  0.0314 -1.5141
  153SAPE   C2416907   6.708   4.239  -0.527  0.9798 -0.3725  0.5671
  153SAPE   H4R16908   6.738   4.325  -0.463  2.5409 -0.4739  0.0061
  153SAPE   H4S16909   6.659   4.285  -0.616 -0.1822  0.5989  1.6754
  153SAPE   C2516910   6.829   4.164  -0.568  0.6777 -0.1195  0.4549
  153SAPE   H5R16911   6.900   4.140  -0.488 -1.1903 -3.8034  1.2175
  153SAPE   C2616912   6.854   4.133  -0.697 -0.0980  0.7978 -0.2908
  153SAPE   H6R16913   6.941   4.067  -0.709 -1.2784 -0.8641 -0.0142
  153SAPE   C2716914   6.770   4.135  -0.819 -0.5223  0.0233 -0.0341
  153SAPE   H7R16915   6.839   4.156  -0.904  0.0766  0.3078  0.5208
  153SAPE   H7S16916   6.693   4.216  -0.814 -0.3918  0.1530 -0.1111
  153SAPE   C2816917   6.699   4.000  -0.839 -0.0579  0.1042 -0.3202
  153SAPE   H8R16918   6.708   3.918  -0.767 -2.5522  0.0219 -0.0363
  153SAPE   C2916919   6.612   3.985  -0.940 -0.0692 -0.0351  0.5020
  153SAPE   H9R16920   6.551   3.894  -0.938  0.2353 -0.2368  1.2768
  153SAPE  C21016921   6.561   4.096  -1.033 -0.4768 -0.1327 -0.6782
  153SAPE  H10R16922   6.552   4.196  -0.986  1.9559  0.0498 -0.4947
  153SAPE  H10S16923   6.456   4.064  -1.055  0.3140 -1.6760 -2.5145
  153SAPE  C21116924   6.635   4.099  -1.158 -0.3241 -0.3376  0.0732
  153SAPE  H11R16925   6.723   4.166  -1.162  0.4654 -1.3671 -0.3542
  153SAPE  C21216926   6.616   4.023  -1.269 -0.6150  0.1582  0.0148
  153SAPE  H12R16927   6.695   4.030  -1.346  1.4048 -0.1635  1.9359
  153SAPE  C21316928   6.495   3.938  -1.302 -0.1558 -0.0014  0.3133
  153SAPE  H13R16929   6.464   3.881  -1.212  2.0679 -0.0975  1.0572
  153SAPE  H13S16930   6.531   3.871  -1.383 -0.9935  0.4158 -0.4158
  153SAPE  C21416931   6.378   4.015  -1.356  0.0588 -1.2558 -1.1393
  153SAPE  H14R16932   6.297   4.045  -1.287  0.8971 -1.0993 -0.1986
  153SAPE  C21516933   6.369   4.072  -1.478 -0.1939  0.2724 -0.0268
  153SAPE  H15R16934   6.278   4.131  -1.496  0.4278  1.7847  1.5364
  153SAPE  C21616935   6.475   4.057  -1.588 -0.2249 -0.7324 -0.6723
  153SAPE  H16R16936   6.565   4.001  -1.556  0.5487  1.1017  0.5340
  153SAPE  H16S16937   6.511   4.160  -1.608  1.4089 -1.2636 -0.6144
  153SAPE  C21716938   6.421   4.019  -1.723 -0.1600  0.1187 -0.3438
  153SAPE  H17R16939   6.332   4.077  -1.757 -0.4086 -0.4633 -0.7103
  153SAPE  H17S16940   6.388   3.913  -1.715 -1.2727  0.5279  0.7433
  153SAPE  C21816941   6.523   4.020  -1.844 -0.4518  0.7456  0.5996
  153SAPE  H18R16942   6.482   3.945  -1.915 -0.3490  1.3582 -0.1192
  153SAPE  H18S16943   6.624   3.982  -1.817 -0.5653  0.3864  0.5209
  153SAPE  C21916944   6.551   4.158  -1.915 -0.1658  0.4356 -0.2803
  153SAPE  H19R16945   6.605   4.149  -2.011 -0.3136 -0.5849 -0.2802
  153SAPE  H19S16946   6.624   4.209  -1.848  0.8750 -1.8087  0.3865
  153SAPE  C22016947   6.434   4.240  -1.944  0.1825 -0.5011 -0.4436
  153SAPE  H20R16948   6.389   4.285  -1.852  1.9431 -1.3378  0.8807
  153SAPE  H20S16949   6.347   4.186  -1.987 -0.3404  0.0878 -0.1413
  153SAPE  H20T16950   6.468   4.319  -2.014  1.4595 -0.0442  0.6553
  153SAPE   C3316951   6.592   4.634  -0.618  0.0144  0.4831 -0.1446
  153SAPE   H3X16952   6.515   4.704  -0.581 -1.2812 -0.3491 -1.1378
  153SAPE   H3Y16953   6.559   4.528  -0.604  2.0636 -0.1259  0.3132
  153SAPE   C3416954   6.607   4.655  -0.773 -0.4278  0.2662 -0.2247
  153SAPE   H4X16955   6.620   4.551  -0.811 -0.7480 -0.0063  0.3963
  153SAPE   H4Y16956   6.695   4.714  -0.808 -0.1154 -0.4013 -0.6006
  153SAPE   C3516957   6.470   4.701  -0.831 -0.1815  1.0161  0.4220
  153SAPE   H5X16958   6.460   4.800  -0.781  2.0719  2.1498 -1.1830
  153SAPE   H5Y16959   6.394   4.628  -0.797  1.4127 -1.2469 -0.6116
  153SAPE   C3616960   6.472   4.710  -0.984 -0.1134  0.1747  0.2916
  153SAPE   H6X16961   6.557   4.776  -1.008 -1.1104  1.4491  0.1542
  153SAPE   H6Y16962   6.387   4.774  -1.014 -0.1331 -0.6459 -1.5446
  153SAPE   C3716963   6.483   4.579  -1.066 -0.1140  0.1255  0.2151
  153SAPE   H7X16964   6.391   4.518  -1.051 -0.8601  1.5035  1.4881
  153SAPE   H7Y16965   6.571   4.520  -1.035  1.2697 -0.1253 -3.6753
  153SAPE   C3816966   6.502   4.599  -1.222 -0.6758  0.0904  0.5044
  153SAPE   H8X16967   6.576   4.681  -1.233  0.0528 -0.5301  0.6985
  153SAPE   H8Y16968   6.407   4.645  -1.256 -0.7246 -0.0674  0.4254
  153SAPE   C3916969   6.544   4.475  -1.294  0.6020 -0.2534 -0.3754
  153SAPE   H9X16970   6.493   4.384  -1.255  1.5296 -0.9696 -0.7804
  153SAPE   H9Y16971   6.648   4.438  -1.278  1.0267  0.9213 -0.2970
  153SAPE  C31016972   6.531   4.487  -1.448 -1.2714  0.4828 -0.6363
  153SAPE  H10X16973   6.563   4.391  -1.494 -1.8195  0.1432 -0.3216
  153SAPE  H10Y16974   6.600   4.570  -1.477 -0.4553 -0.6676 -2.1428
  153SAPE  C31116975   6.395   4.506  -1.511 -0.1624  0.7354 -0.1751
  153SAPE  H11X16976   6.345   4.596  -1.469 -2.6396  0.3357 -2.0207
  153SAPE  H11Y16977   6.329   4.419  -1.489  1.2361  0.0768  1.5924
  153SAPE  C31216978   6.396   4.524  -1.663 -0.1741 -0.2470 -0.2245
  153SAPE  H12X16979   6.399   4.431  -1.724 -0.1187 -0.5138  0.1860
  153SAPE  H12Y16980   6.480   4.592  -1.689  0.7141 -0.7035  1.3851
  153SAPE  C31316981   6.258   4.574  -1.707  0.0619  0.1279 -0.1110
  153SAPE  H13X16982   6.240   4.658  -1.635  1.8836 -0.6150  1.2897
  153SAPE  H13Y16983   6.188   4.491  -1.684  0.8118 -0.5678 -0.2908
  153SAPE  C31416984   6.251   4.604  -1.858 -0.8971  0.0625  0.4138
  153SAPE  H14X16985   6.206   4.517  -1.910 -1.8578  1.9367 -2.1178
  153SAPE  H14Y16986   6.350   4.618  -1.908 -2.7077  0.2535 -3.5372
  153SAPE  C31516987   6.152   4.726  -1.884  0.7014 -0.0954 -0.0446
  153SAPE  H15X16988   6.064   4.712  -1.817  0.7323 -1.0319 -0.1809
  153SAPE  H15Y16989   6.117   4.719  -1.989 -0.9483 -0.7625  0.5179
  153SAPE  C31616990   6.216   4.864  -1.840 -0.6894 -0.5407 -0.9494
  153SAPE  H16X16991   6.314   4.878  -1.891 -0.4648  0.8238 -0.1592
  153SAPE  H16Y16992   6.231   4.863  -1.730 -0.4365  1.8122 -0.9294
  153SAPE  C31716993   6.131   4.978  -1.884  0.2691  0.2766  0.3339
  153SAPE  H17X16994   6.125   4.968  -1.995  0.2168  1.1489  0.2499
  153SAPE  H17Y16995   6.191   5.071  -1.870  1.8019 -0.5908 -0.2653
  153SAPE  C31816996   5.996   4.985  -1.826 -0.3294  0.1499  0.1544
  153SAPE  H18X16997   6.009   5.021  -1.722  0.1496  1.4918 -0.3584
  153SAPE  H18Y16998   5.939   4.889  -1.817  0.7047 -0.6256 -1.2884
  153SAPE  H18Z16999   5.932   5.063  -1.871 -0.1596 -0.8869 -2.0174
  154SAPE     N17000   3.413   2.495   0.124 -0.3371  0.7811  0.3730
  154SAPE   HN117001   3.400   2.453   0.030 -1.6417 -0.3983  1.0460
  154SAPE   HN217002   3.514   2.519   0.121 -0.1791  0.0483 -0.6436
  154SAPE   HN317003   3.407   2.420   0.196 -1.8094  1.4894  1.0210
  154SAPE   C1217004   3.314   2.607   0.135  0.4578 -0.4403 -0.4675
  154SAPE  H12A17005   3.345   2.659   0.228  0.6251 -1.8211  0.2816
  154SAPE  H12B17006   3.214   2.559   0.149  0.3442 -0.3855 -1.0777
  154SAPE   C1117007   3.297   2.707   0.024  0.8439 -0.8970  0.1012
  154SAPE  H11A17008   3.207   2.765   0.053 -0.1684 -1.4745 -1.7291
  154SAPE  H11B17009   3.262   2.665  -0.072  1.1657 -0.2413 -0.3107
  154SAPE     P17010   3.404   2.920  -0.066 -0.0519  0.5734 -0.1570
  154SAPE   O1317011   3.309   3.014  -0.006 -0.2662 -0.0532  0.2128
  154SAPE   O1417012   3.537   2.968  -0.109  0.4904 -0.1514  0.6675
  154SAPE   O1217013   3.422   2.783   0.029  0.7293 -0.5098  0.0097
  154SAPE   O1117014   3.325   2.862  -0.195 -0.2600 -0.6565  0.0900
  154SAPE    C117015   3.222   2.935  -0.261 -0.2929  0.3260  0.4920
  154SAPE    HA17016   3.158   2.989  -0.188  0.2330 -1.1713  2.1237
  154SAPE    HB17017   3.277   3.003  -0.329  0.7307  0.5145  1.4800
  154SAPE    C217018   3.134   2.837  -0.339 -0.2102  0.3558  0.0150
  154SAPE    HS17019   3.098   2.761  -0.267 -1.7381 -0.1613 -1.2307
  154SAPE   O2117020   3.202   2.774  -0.450  0.5267  0.4386 -0.5363
  154SAPE   C2117021   3.131   2.682  -0.510 -0.0615  0.0758 -0.4050
  154SAPE   O2217022   3.026   2.636  -0.478 -0.5037  0.1965  0.0643
  154SAPE   C2217023   3.206   2.631  -0.630  0.1349 -0.7818  0.2443
  154SAPE   H2R17024   3.215   2.706  -0.711  0.8862  0.9840  1.8586
  154SAPE   H2S17025   3.308   2.608  -0.592 -0.0453  0.5498  1.6538
  154SAPE    C317026   3.008   2.914  -0.393 -0.8355  0.9692  0.0803
  154SAPE    HX17027   2.959   2.950  -0.300 -1.3354  0.3817  0.0470
  154SAPE    HY17028   2.937   2.839  -0.434 -1.2163  0.8497  0.9464
  154SAPE   O3117029   3.056   3.018  -0.476 -0.3248 -0.4392 -0.2600
  154SAPE   C3117030   3.036   3.000  -0.600 -0.5706  0.0926  0.8369
  154SAPE   O3217031   2.967   2.914  -0.652 -0.2574 -0.7170  0.0329
  154SAPE   C3217032   3.115   3.108  -0.681  0.2654  0.9001 -0.2883
  154SAPE   H2X17033   3.191   3.145  -0.610 -0.2642  1.2399  0.1109
  154SAPE   H2Y17034   3.042   3.191  -0.695  1.2623  1.6153 -1.4458
  154SAPE   C2317035   3.145   2.500  -0.689 -0.5744  0.1109  0.2141
  154SAPE   H3R17036   3.055   2.523  -0.751  0.4235  0.2333 -1.2639
  154SAPE   H3S17037   3.119   2.433  -0.605  0.2994 -0.5996 -0.0681
  154SAPE   C2417038   3.236   2.418  -0.792  0.0499 -0.6994 -0.7710
  154SAPE   H4R17039   3.326   2.400  -0.729  0.4513 -0.2324 -1.1984
  154SAPE   H4S17040   3.265   2.477  -0.882  2.3747 -0.0390  0.3347
  154SAPE   C2517041   3.176   2.287  -0.834  0.3104  0.1747  0.2093
  154SAPE   H5R17042   3.184   2.202  -0.763 -1.6044  0.9844  1.4713
  154SAPE   C2617043   3.089   2.275  -0.932  0.0584  0.0376  0.1082
  154SAPE   H6R17044   3.040   2.179  -0.951 -1.0376  0.6784 -0.4412
  154SAPE   C2717045   3.040   2.387  -1.023 -0.0925 -0.1865  0.1117
  154SAPE   H7R17046   3.028   2.351  -1.128  1.9731 -0.5642 -0.0328
  154SAPE   H7S17047   3.118   2.466  -1.032 -0.3733  0.1041  0.2215
  154SAPE   C2817048   2.902   2.432  -0.971  0.4297  0.3849  0.0912
  154SAPE   H8R17049   2.898   2.450  -0.863  1.3357 -0.9880  0.3763
  154SAPE   C2917050   2.790   2.460  -1.038 -0.0950  0.0850 -0.5141
  154SAPE   H9R17051   2.701   2.478  -0.975  0.5871 -1.7441  1.0745
  154SAPE  C21017052   2.786   2.451  -1.194  0.5257  0.3426  0.3431
  154SAPE  H10R17053   2.767   2.344  -1.218  3.1793  0.0249 -0.6591
  154SAPE  H10S17054   2.886   2.473  -1.236  0.7616  0.2619  0.8545
  154SAPE  C21117055   2.697   2.550  -1.268 -0.0594 -0.1113 -0.0984
  154SAPE  H11R17056   2.650   2.624  -1.202  1.1702 -0.3056  1.0349
  154SAPE  C21217057   2.681   2.561  -1.403  0.1323 -0.3210 -0.0450
  154SAPE  H12R17058   2.633   2.646  -1.453  0.9727 -0.2947 -0.8189
  154SAPE  C21317059   2.746   2.463  -1.502  1.3537  0.9700 -0.2598
  154SAPE  H13R17060   2.792   2.376  -1.451 -1.8180 -0.4500  0.4182
  154SAPE  H13S17061   2.835   2.501  -1.557  2.5149 -2.0233 -0.6665
  154SAPE  C21417062   2.642   2.411  -1.592  0.2943  0.9253  0.3465
  154SAPE  H14R17063   2.546   2.465  -1.585 -0.6244 -0.4058 -1.1129
  154SAPE  C21517064   2.650   2.301  -1.664 -0.6153 -0.3351 -0.1365
  154SAPE  H15R17065   2.560   2.266  -1.716  0.7506 -2.1375 -1.4162
  154SAPE  C21617066   2.767   2.214  -1.682  0.5781 -0.0906 -0.6349
  154SAPE  H16R17067   2.731   2.113  -1.654 -2.2637  1.4132  1.6432
  154SAPE  H16S17068   2.841   2.229  -1.600  0.0295  1.7287 -0.4278
  154SAPE  C21717069   2.830   2.211  -1.827  0.5936  0.7478 -0.0787
  154SAPE  H17R17070   2.915   2.140  -1.833 -0.1878 -0.1330 -1.0510
  154SAPE  H17S17071   2.866   2.311  -1.861  0.9442  0.2734 -1.1398
  154SAPE  C21817072   2.728   2.157  -1.929  0.6170  0.0298 -0.4062
  154SAPE  H18R17073   2.781   2.174  -2.026  2.0251  0.2775  0.3740
  154SAPE  H18S17074   2.634   2.216  -1.926  1.3006  1.1133  0.7145
  154SAPE  C21917075   2.683   2.012  -1.899  0.2279  0.2871 -0.1339
  154SAPE  H19R17076   2.601   1.995  -1.972  0.7823  1.1622 -0.9893
  154SAPE  H19S17077   2.639   1.996  -1.798  2.4866 -0.2184  0.8294
  154SAPE  C22017078   2.783   1.893  -1.918 -0.4757  0.1204  0.4878
  154SAPE  H20R17079   2.734   1.794  -1.932  2.2244 -1.1305 -0.8330
  154SAPE  H20S17080   2.848   1.895  -1.827 -1.4386 -0.6968  1.2173
  154SAPE  H20T17081   2.848   1.908  -2.006 -1.7216 -1.6558 -0.7981
  154SAPE   C3317082   3.164   3.060  -0.816 -0.1593 -0.0708  0.0936
  154SAPE   H3X17083   3.078   3.047  -0.886  1.1610  1.8852 -2.0472
  154SAPE   H3Y17084   3.200   2.955  -0.807 -1.2255 -0.5671 -1.0574
  154SAPE   C3417085   3.257   3.159  -0.897  0.2413 -0.2480  0.1327
  154SAPE   H4X17086   3.334   3.208  -0.833  1.3256  0.5439 -1.6969
  154SAPE   H4Y17087   3.201   3.246  -0.938  0.6554  1.6468  3.2600
  154SAPE   C3517088   3.329   3.096  -1.017 -0.8433  0.0004 -0.3744
  154SAPE   H5X17089   3.262   3.035  -1.081 -1.4716  0.5265 -0.2339
  154SAPE   H5Y17090   3.401   3.023  -0.976 -3.0107 -2.0985 -0.0955
  154SAPE   C3617091   3.403   3.199  -1.096  0.8614 -0.6856  0.5500
  154SAPE   H6X17092   3.496   3.149  -1.129  0.0759 -2.5888  1.0633
  154SAPE   H6Y17093   3.443   3.282  -1.034  1.2081  0.8906 -1.6929
  154SAPE   C3717094   3.320   3.257  -1.211 -0.3434 -0.4687  0.1644
  154SAPE   H7X17095   3.224   3.297  -1.172 -1.4926 -2.4030 -0.5391
  154SAPE   H7Y17096   3.298   3.185  -1.293 -3.6378  1.0518 -0.4412
  154SAPE   C3817097   3.410   3.360  -1.300  0.5131 -0.0877 -0.5571
  154SAPE   H8X17098   3.518   3.336  -1.300  1.4360  3.4742  0.1584
  154SAPE   H8Y17099   3.397   3.455  -1.243  1.9974 -0.8189  1.0809
  154SAPE   C3917100   3.356   3.382  -1.442 -0.1254  0.3578  0.3354
  154SAPE   H9X17101   3.247   3.398  -1.454  0.2278  1.3171 -2.1197
  154SAPE   H9Y17102   3.365   3.291  -1.505  0.2543  0.0934  0.7604
  154SAPE  C31017103   3.433   3.494  -1.510  0.0135  0.4219 -0.8041
  154SAPE  H10X17104   3.542   3.483  -1.490 -0.1977 -0.3349 -0.0225
  154SAPE  H10Y17105   3.414   3.585  -1.449  1.0406 -0.3644  0.7392
  154SAPE  C31117106   3.399   3.529  -1.655 -0.1660  0.7102 -0.8068
  154SAPE  H11X17107   3.488   3.579  -1.700 -1.0834  0.4035 -3.1219
  154SAPE  H11Y17108   3.318   3.604  -1.669  0.0816  0.9442 -1.0214
  154SAPE  C31217109   3.379   3.412  -1.744 -0.1928 -0.2970 -0.2976
  154SAPE  H12X17110   3.273   3.377  -1.739 -0.3413  0.3154  1.0126
  154SAPE  H12Y17111   3.447   3.335  -1.702 -0.8400 -0.3706  0.6365
  154SAPE  C31317112   3.436   3.426  -1.887  0.9280  0.7507 -0.1682
  154SAPE  H13X17113   3.542   3.394  -1.886  1.2275  1.6780 -0.6832
  154SAPE  H13Y17114   3.446   3.534  -1.915  1.6553  1.0159  1.0308
  154SAPE  C31417115   3.340   3.361  -1.988  0.0857 -1.1450  0.5566
  154SAPE  H14X17116   3.244   3.417  -1.988  0.3302 -0.6631 -1.0464
  154SAPE  H14Y17117   3.328   3.253  -1.962  0.9022 -1.6892 -1.1924
  154SAPE  C31517118   3.398   3.382  -2.129  0.1756  0.2050  0.7196
  154SAPE  H15X17119   3.508   3.373  -2.124  0.4383  0.0029 -2.8441
  154SAPE  H15Y17120   3.377   3.481  -2.174 -1.5531  0.4323  1.9356
  154SAPE  C31617121   3.359   3.268  -2.228  0.1821 -0.6441 -0.8078
  154SAPE  H16X17122   3.248   3.256  -2.227 -0.2110  2.1733 -0.4086
  154SAPE  H16Y17123   3.401   3.174  -2.189  1.1344  0.1996  0.2757
  154SAPE  C31717124   3.410   3.291  -2.365 -0.2539 -0.5094  0.2418
  154SAPE  H17X17125   3.521   3.293  -2.363 -0.1959 -0.7007 -1.3512
  154SAPE  H17Y17126   3.380   3.392  -2.401  1.2792 -0.4191 -0.9024
  154SAPE  C31817127   3.359   3.168  -2.441  0.2566 -0.6884  0.1307
  154SAPE  H18X17128   3.376   3.191  -2.548 -0.7273  0.3238  0.1749
  154SAPE  H18Y17129   3.250   3.155  -2.423  0.0411  2.6236  2.0241
  154SAPE  H18Z17130   3.413   3.076  -2.408 -1.0292 -1.0730  1.2328
  155SAPE     N17131   3.730   2.580   8.622 -0.2714 -0.0497  0.4339
  155SAPE   HN117132   3.804   2.650   8.644 -1.0344  0.8746  0.1136
  155SAPE   HN217133   3.750   2.493   8.676  2.8696 -1.0889 -2.0912
  155SAPE   HN317134   3.750   2.551   8.524  4.4959 -1.4824  1.5314
  155SAPE   C1217135   3.593   2.640   8.648  0.1249 -0.1666 -0.5704
  155SAPE  H12A17136   3.599   2.749   8.667  1.6492 -0.2724 -0.3872
  155SAPE  H12B17137   3.562   2.583   8.738  1.6783  0.2587  0.2631
  155SAPE   C1117138   3.483   2.611   8.537 -0.9146  0.0837  0.2437
  155SAPE  H11A17139   3.511   2.649   8.437  1.7592 -0.4948  0.6905
  155SAPE  H11B17140   3.384   2.659   8.555 -1.7806 -1.1889 -0.9081
  155SAPE     P17141   3.397   2.368   8.620  0.0842  0.3966  0.0294
  155SAPE   O1317142   3.460   2.366   8.753 -0.7127  0.7455 -0.0427
  155SAPE   O1417143   3.259   2.416   8.623 -0.1279 -0.2305  0.1253
  155SAPE   O1217144   3.482   2.468   8.523  0.0016  0.1824 -0.4020
  155SAPE   O1117145   3.408   2.229   8.548  1.4014  0.3692  0.3568
  155SAPE    C117146   3.395   2.222   8.410  0.0385  0.2736  0.3492
  155SAPE    HA17147   3.305   2.275   8.373  0.0137 -0.2661 -0.3786
  155SAPE    HB17148   3.482   2.260   8.353  0.1250 -1.6271 -0.8859
  155SAPE    C217149   3.377   2.070   8.382 -0.5514 -0.0028  0.1612
  155SAPE    HS17150   3.469   2.020   8.420 -0.2794  0.9241  0.7583
  155SAPE   O2117151   3.363   2.036   8.241 -0.5518 -0.1220 -0.1923
  155SAPE   C2117152   3.469   2.047   8.168  0.0461  0.1748 -0.3682
  155SAPE   O2217153   3.579   2.077   8.204  0.3329 -0.4470  0.4076
  155SAPE   C2217154   3.441   2.007   8.022 -0.3904  0.2671 -0.4984
  155SAPE   H2R17155   3.413   1.901   8.008  0.4082  0.0960 -0.8443
  155SAPE   H2S17156   3.360   2.074   7.986 -0.9939 -0.2241 -0.0837
  155SAPE    C317157   3.255   2.012   8.459 -0.4930  0.0705  0.0940
  155SAPE    HX17158   3.166   2.072   8.429  0.2988  2.2920  1.8715
  155SAPE    HY17159   3.261   2.037   8.567 -2.0878  0.1805  0.1850
  155SAPE   O3117160   3.229   1.870   8.442 -0.0338 -0.1248  0.4008
  155SAPE   C3117161   3.324   1.788   8.474  0.0085  0.8981 -0.0566
  155SAPE   O3217162   3.437   1.818   8.514 -0.5365  0.0024  0.0568
  155SAPE   C3217163   3.276   1.643   8.479  0.7403 -0.2624  0.0665
  155SAPE   H2X17164   3.168   1.642   8.451  0.2882 -0.1323  1.7235
  155SAPE   H2Y17165   3.293   1.623   8.587  1.5263  0.1243  0.0154
  155SAPE   C2317166   3.568   2.015   7.936  0.3604  0.2879 -0.0877
  155SAPE   H3R17167   3.548   1.944   7.853 -0.3854  0.9756 -0.5149
  155SAPE   H3S17168   3.657   1.977   7.990 -0.4735  1.5560  2.3197
  155SAPE   C2417169   3.605   2.163   7.887 -0.0425  0.3782 -1.2426
  155SAPE   H4R17170   3.657   2.203   7.977 -1.8223  1.2392 -0.5690
  155SAPE   H4S17171   3.514   2.225   7.874  0.0532  0.4047 -1.7849
  155SAPE   C2517172   3.696   2.158   7.769 -0.6577  0.2455 -0.5763
  155SAPE   H5R17173   3.804   2.152   7.783 -0.4870 -1.0561 -2.0946
  155SAPE   C2617174   3.656   2.151   7.636  0.1240  0.3048 -0.3429
  155SAPE   H6R17175   3.728   2.159   7.553 -0.1099  1.2205 -0.4624
  155SAPE   C2717176   3.512   2.152   7.591  0.3043 -0.0613  0.4507
  155SAPE   H7R17177   3.489   2.250   7.542 -0.6889  0.4665  1.9187
  155SAPE   H7S17178   3.435   2.134   7.669 -0.9416  1.1789 -0.4306
  155SAPE   C2817179   3.482   2.051   7.484  0.8500  0.4992 -0.2674
  155SAPE   H8R17180   3.473   1.948   7.523 -0.6905  1.0930  1.0633
  155SAPE   C2917181   3.472   2.066   7.350 -0.0984 -0.1152 -0.1132
  155SAPE   H9R17182   3.450   1.974   7.295 -0.7606 -0.0826  0.0897
  155SAPE  C21017183   3.501   2.194   7.272  0.4662 -0.6734  0.2589
  155SAPE  H10R17184   3.472   2.281   7.334  0.1159  0.2842 -1.2109
  155SAPE  H10S17185   3.447   2.191   7.175 -1.0815  1.4656  0.9837
  155SAPE  C21117186   3.649   2.219   7.244  0.4698  0.3537  0.1879
  155SAPE  H11R17187   3.716   2.187   7.325  1.4065  0.5620 -0.4770
  155SAPE  C21217188   3.695   2.269   7.134 -1.1004 -0.3580  0.6606
  155SAPE  H12R17189   3.805   2.283   7.130 -1.3042  1.8581  1.3326
  155SAPE  C21317190   3.624   2.317   7.006 -0.3435 -0.7753 -0.4757
  155SAPE  H13R17191   3.531   2.258   6.990 -1.6653  0.3907  2.3040
  155SAPE  H13S17192   3.690   2.293   6.920 -0.5082 -2.5068 -0.1731
  155SAPE  C21417193   3.589   2.462   7.019 -0.5047 -0.4897 -0.2691
  155SAPE  H14R17194   3.563   2.495   7.120  1.8038 -1.5885  0.7557
  155SAPE  C21517195   3.579   2.558   6.919 -0.1151 -0.0627  0.2677
  155SAPE  H15R17196   3.575   2.666   6.939  3.5404  0.4266 -0.8203
  155SAPE  C21617197   3.612   2.539   6.775 -0.7140  0.0964  0.6607
  155SAPE  H16R17198   3.569   2.606   6.697  0.1921 -1.0283 -0.8484
  155SAPE  H16S17199   3.587   2.435   6.746 -4.7731  0.8761  0.7321
  155SAPE  C21717200   3.767   2.543   6.770  0.7290  0.1778  0.0535
  155SAPE  H17R17201   3.816   2.472   6.840  2.3997  1.4706  0.2494
  155SAPE  H17S17202   3.791   2.646   6.804 -1.4250  0.8916 -0.4292
  155SAPE  C21817203   3.828   2.508   6.640  0.0697  0.4711  0.0202
  155SAPE  H18R17204   3.816   2.602   6.581 -0.1547  0.9775  0.8509
  155SAPE  H18S17205   3.783   2.422   6.587  2.1643 -1.6394  1.4956
  155SAPE  C21917206   3.978   2.494   6.644 -0.1061 -0.0252 -0.2197
  155SAPE  H19R17207   4.007   2.433   6.732 -0.5584  0.8710  0.5717
  155SAPE  H19S17208   4.032   2.592   6.649  1.4452 -0.8523 -0.1129
  155SAPE  C22017209   4.024   2.442   6.513 -0.6491 -0.2825 -0.7512
  155SAPE  H20R17210   3.995   2.514   6.434 -1.6435  0.5192  0.3091
  155SAPE  H20S17211   3.967   2.348   6.493  0.5319 -0.9856 -0.8816
  155SAPE  H20T17212   4.131   2.412   6.508 -0.3618  0.6242 -0.2401
  155SAPE   C3317213   3.348   1.545   8.382  0.7869 -0.6342  0.1305
  155SAPE   H3X17214   3.283   1.455   8.380 -1.2940  0.7899  0.6217
  155SAPE   H3Y17215   3.443   1.510   8.429  0.9666  0.1750  0.3827
  155SAPE   C3417216   3.387   1.605   8.244 -0.0278  0.3650 -0.4567
  155SAPE   H4X17217   3.484   1.659   8.252 -0.6100  1.2441  1.0374
  155SAPE   H4Y17218   3.297   1.661   8.210 -0.8315 -0.9507 -0.5724
  155SAPE   C3517219   3.401   1.481   8.148 -0.3001 -0.3220  0.2511
  155SAPE   H5X17220   3.300   1.437   8.135 -0.8884  0.8519  0.6288
  155SAPE   H5Y17221   3.458   1.393   8.183 -1.9987 -2.5564 -2.2306
  155SAPE   C3617222   3.460   1.525   8.015  0.2359 -0.3360  0.4383
  155SAPE   H6X17223   3.570   1.536   8.022  0.3423 -1.1432  0.2355
  155SAPE   H6Y17224   3.432   1.628   7.988  0.0149 -0.2057  1.1398
  155SAPE   C3717225   3.434   1.421   7.901  0.1519 -0.3251  0.5594
  155SAPE   H7X17226   3.337   1.448   7.854  1.9027  1.7378 -2.2324
  155SAPE   H7Y17227   3.440   1.320   7.948 -1.3886 -1.2180 -1.0327
  155SAPE   C3817228   3.540   1.428   7.802 -0.5790 -0.1994  0.2831
  155SAPE   H8X17229   3.628   1.381   7.851 -1.0683 -1.6378 -0.1818
  155SAPE   H8Y17230   3.552   1.534   7.769 -0.3304 -0.0976  0.6874
  155SAPE   C3917231   3.526   1.338   7.673  0.3007 -0.2528 -0.5445
  155SAPE   H9X17232   3.485   1.239   7.702 -0.4217  0.3477  0.5701
  155SAPE   H9Y17233   3.631   1.328   7.639 -0.0214  1.7363 -2.4394
  155SAPE  C31017234   3.446   1.419   7.570 -0.8758  0.7738 -0.4320
  155SAPE  H10X17235   3.488   1.522   7.567  0.2914  0.3588  0.6611
  155SAPE  H10Y17236   3.344   1.416   7.614 -1.0795 -0.0806 -0.9366
  155SAPE  C31117237   3.449   1.359   7.434  0.2005  0.2395 -0.1077
  155SAPE  H11X17238   3.400   1.260   7.431 -1.7357  1.0764  1.5464
  155SAPE  H11Y17239   3.555   1.360   7.400  0.0041 -0.3269 -0.7508
  155SAPE  C31217240   3.374   1.452   7.343  0.1144  0.4335 -0.7912
  155SAPE  H12X17241   3.407   1.558   7.350 -1.2194  0.7486  1.7862
  155SAPE  H12Y17242   3.271   1.469   7.380  0.9082  0.4710  1.5795
  155SAPE  C31317243   3.388   1.400   7.200 -0.6454 -0.6146 -0.4186
  155SAPE  H13X17244   3.317   1.315   7.194  0.2949 -1.3965 -0.7836
  155SAPE  H13Y17245   3.495   1.371   7.187 -0.5209 -0.0741 -0.6322
  155SAPE  C31417246   3.334   1.496   7.090 -0.4621 -0.2729 -0.2991
  155SAPE  H14X17247   3.375   1.598   7.109 -1.5629  0.2315 -0.5152
  155SAPE  H14Y17248   3.224   1.508   7.101 -0.4137  1.8590 -1.4438
  155SAPE  C31517249   3.373   1.467   6.949  1.0547  0.7506  0.4787
  155SAPE  H15X17250   3.371   1.356   6.937 -0.4352  0.8813 -0.8585
  155SAPE  H15Y17251   3.482   1.486   6.937  0.9350  0.5955 -1.1605
  155SAPE  C31617252   3.289   1.546   6.846  0.1813  0.4252  0.5585
  155SAPE  H16X17253   3.309   1.655   6.850 -2.0245  0.8476  1.2642
  155SAPE  H16Y17254   3.179   1.536   6.858 -0.4714  4.3071 -0.9643
  155SAPE  C31717255   3.317   1.516   6.697 -0.8631  0.2475  0.7100
  155SAPE  H17X17256   3.222   1.534   6.643 -2.7130 -3.1244  2.5394
  155SAPE  H17Y17257   3.337   1.407   6.693  2.4107  0.6344  2.6693
  155SAPE  C31817258   3.436   1.589   6.625 -0.3361  0.4126  0.1892
  155SAPE  H18X17259   3.437   1.542   6.524  0.8068 -2.6299  1.4839
  155SAPE  H18Y17260   3.539   1.560   6.656  0.3020 -2.0837 -3.5951
  155SAPE  H18Z17261   3.415   1.698   6.628 -0.0977  0.4536  0.4725
  156SAPE     N17262   4.274   2.646   0.205  0.7500  0.3003  0.1223
  156SAPE   HN117263   4.359   2.598   0.239 -0.0643 -1.0337  0.3250
  156SAPE   HN217264   4.294   2.748   0.198  1.2934  0.3000  1.4234
  156SAPE   HN317265   4.202   2.615   0.273  1.1759  0.5617  0.7046
  156SAPE   C1217266   4.239   2.579   0.071 -0.4354 -0.4657  0.1016
  156SAPE  H12A17267   4.242   2.470   0.087 -1.5942 -0.8755 -2.0372
  156SAPE  H12B17268   4.330   2.600   0.010 -0.2747 -0.0675  0.4708
  156SAPE   C1117269   4.101   2.616   0.012 -0.7910  0.1227  0.3108
  156SAPE  H11A17270   4.031   2.548   0.065 -1.8129  1.7677  1.1663
  156SAPE  H11B17271   4.109   2.596  -0.097  1.0308  4.4961 -0.5706
  156SAPE     P17272   3.924   2.801  -0.019 -0.0699 -0.1925 -0.0628
  156SAPE   O1317273   3.819   2.734   0.065 -0.2512 -0.1957 -0.8433
  156SAPE   O1417274   3.930   2.949  -0.018 -0.5488  0.2631  0.2097
  156SAPE   O1217275   4.073   2.750   0.027 -0.0785  0.6506 -0.8956
  156SAPE   O1117276   3.908   2.746  -0.163 -0.1249  0.5015 -0.5188
  156SAPE    C117277   3.976   2.790  -0.276  0.1958 -0.6338 -0.2435
  156SAPE    HA17278   4.083   2.801  -0.246  0.1261 -0.2020 -0.1581
  156SAPE    HB17279   3.978   2.706  -0.349  1.3936 -0.7835 -0.0664
  156SAPE    C217280   3.919   2.921  -0.336 -0.5729  0.4193 -0.2237
  156SAPE    HS17281   3.924   2.995  -0.253  0.4053 -1.1115  1.1429
  156SAPE   O2117282   3.782   2.903  -0.371 -0.3153  0.5540 -0.7209
  156SAPE   C2117283   3.718   3.015  -0.396 -0.0983 -0.8438  0.2828
  156SAPE   O2217284   3.749   3.129  -0.353 -0.6862  0.3691 -0.0012
  156SAPE   C2217285   3.583   2.975  -0.458  0.1489 -0.2867 -0.0456
  156SAPE   H2R17286   3.540   2.907  -0.382 -0.5236 -0.7801 -0.8527
  156SAPE   H2S17287   3.524   3.068  -0.442  0.2174 -0.5225  1.7960
  156SAPE    C317288   4.007   2.967  -0.458  0.5933 -0.2447 -0.3411
  156SAPE    HX17289   4.103   3.001  -0.413  0.7472 -0.1292 -0.7538
  156SAPE    HY17290   3.963   3.055  -0.510  1.0548 -0.6575 -1.4606
  156SAPE   O3117291   4.029   2.864  -0.554  0.3731  0.0135 -0.3793
  156SAPE   C3117292   4.143   2.795  -0.545 -0.6118  0.3936  1.2646
  156SAPE   O3217293   4.219   2.809  -0.451  0.4191  0.5453  0.2399
  156SAPE   C3217294   4.162   2.696  -0.663 -0.1659 -0.6141  0.4487
  156SAPE   H2X17295   4.253   2.637  -0.639  1.3348  1.3814 -0.0018
  156SAPE   H2Y17296   4.186   2.764  -0.747 -1.2246 -2.1106 -1.1059
  156SAPE   C2317297   3.597   2.907  -0.595  0.0477 -0.5008  0.7070
  156SAPE   H3R17298   3.526   2.823  -0.615 -1.7963  1.0481  0.4583
  156SAPE   H3S17299   3.695   2.860  -0.614 -0.0800 -0.3737 -0.3224
  156SAPE   C2417300   3.566   3.005  -0.706  0.2587 -0.1726  0.5468
  156SAPE   H4R17301   3.460   3.034  -0.694 -0.5436 -2.4886 -0.4072
  156SAPE   H4S17302   3.568   2.951  -0.803  0.6383 -1.3875  1.2053
  156SAPE   C2517303   3.669   3.115  -0.717  0.0168 -0.0339 -0.4358
  156SAPE   H5R17304   3.647   3.198  -0.649  0.1488  0.1575 -0.6253
  156SAPE   C2617305   3.767   3.126  -0.807  0.0864 -0.5086  0.4554
  156SAPE   H6R17306   3.830   3.216  -0.803 -2.3494  1.4583 -1.8427
  156SAPE   C2717307   3.807   3.028  -0.914 -0.8119 -0.2911  0.3959
  156SAPE   H7R17308   3.722   2.963  -0.943 -0.2631 -0.5075 -0.7779
  156SAPE   H7S17309   3.877   2.954  -0.869 -0.6087 -0.5630 -0.3557
  156SAPE   C2817310   3.878   3.077  -1.039  0.3778 -0.1576  0.4025
  156SAPE   H8R17311   3.950   3.161  -1.037  1.1046 -0.7702  0.1949
  156SAPE   C2917312   3.841   3.042  -1.164 -0.1775 -0.0483  0.9632
  156SAPE   H9R17313   3.892   3.093  -1.247 -2.0945  2.2146  1.0419
  156SAPE  C21017314   3.749   2.923  -1.203 -0.3270 -0.1437 -0.1224
  156SAPE  H10R17315   3.642   2.947  -1.186 -0.5124 -1.8344  1.3582
  156SAPE  H10S17316   3.779   2.842  -1.134  0.5258 -1.5019 -2.0209
  156SAPE  C21117317   3.768   2.880  -1.349  0.1424  0.3798  0.3960
  156SAPE  H11R17318   3.851   2.810  -1.367 -2.5144 -3.1000  0.6306
  156SAPE  C21217319   3.693   2.916  -1.456  0.4282  0.2340 -0.1628
  156SAPE  H12R17320   3.727   2.905  -1.561  0.9107 -1.1764  0.1205
  156SAPE  C21317321   3.576   3.016  -1.443 -0.5549 -0.1911 -0.0010
  156SAPE  H13R17322   3.593   3.084  -1.530  0.0581 -0.2846  0.0441
  156SAPE  H13S17323   3.600   3.088  -1.362  1.7726 -2.7723  1.7930
  156SAPE  C21417324   3.432   2.966  -1.430  0.2017 -0.5183  0.4926
  156SAPE  H14R17325   3.394   2.967  -1.327 -0.6839 -1.2344  0.1882
  156SAPE  C21517326   3.359   2.915  -1.531 -0.1151  0.3559  0.0788
  156SAPE  H15R17327   3.255   2.895  -1.502 -0.3412  2.5847  0.9453
  156SAPE  C21617328   3.399   2.862  -1.665  0.5435  0.4098 -1.1148
  156SAPE  H16R17329   3.395   2.751  -1.671  0.8600  0.1786  1.6170
  156SAPE  H16S17330   3.501   2.897  -1.692 -0.6138  3.2593 -2.2000
  156SAPE  C21717331   3.306   2.914  -1.777  0.9881  0.4120  0.0176
  156SAPE  H17R17332   3.280   3.022  -1.781 -1.0806 -0.0659 -1.1764
  156SAPE  H17S17333   3.210   2.863  -1.750  1.0311 -0.2569 -1.0386
  156SAPE  C21817334   3.346   2.865  -1.913 -0.2880 -0.0301  0.1672
  156SAPE  H18R17335   3.326   2.755  -1.916 -2.1446  0.2449  0.9166
  156SAPE  H18S17336   3.453   2.889  -1.926 -0.6354  2.2746  1.0792
  156SAPE  C21917337   3.263   2.919  -2.026 -0.3661 -0.1162 -0.1606
  156SAPE  H19R17338   3.262   3.029  -2.019 -0.0649 -0.1328  0.2071
  156SAPE  H19S17339   3.161   2.877  -2.021 -0.4274  0.0792  0.2458
  156SAPE  C22017340   3.318   2.884  -2.162 -0.1004  1.2968  0.0751
  156SAPE  H20R17341   3.314   2.774  -2.179 -2.9622  1.3873 -0.3047
  156SAPE  H20S17342   3.422   2.924  -2.167  0.6837 -0.1955  2.4908
  156SAPE  H20T17343   3.250   2.929  -2.237  0.2993 -0.1810 -1.2218
  156SAPE   C3317344   4.042   2.609  -0.688 -0.9172  0.3366 -0.1110
  156SAPE   H3X17345   3.950   2.671  -0.674 -0.6723  0.4829  0.8979
  156SAPE   H3Y17346   4.051   2.529  -0.612 -0.4366  2.7111  2.4745
  156SAPE   C3417347   4.054   2.529  -0.823  0.5584  0.0054  1.1251
  156SAPE   H4X17348   4.006   2.429  -0.817  0.9321 -0.2609 -0.0962
  156SAPE   H4Y17349   4.164   2.518  -0.837  0.8714  2.4503  1.2265
  156SAPE   C3517350   3.999   2.606  -0.949 -0.3446  0.7285 -0.4422
  156SAPE   H5X17351   4.054   2.702  -0.955  1.1392  0.1235  2.0908
  156SAPE   H5Y17352   3.889   2.619  -0.939 -0.5535 -2.3310  4.0828
  156SAPE   C3617353   4.017   2.526  -1.071  0.5512 -0.7405 -0.3683
  156SAPE   H6X17354   3.956   2.434  -1.063 -1.2117  0.4764  1.3552
  156SAPE   H6Y17355   4.122   2.503  -1.098  1.4030  1.1956  0.9796
  156SAPE   C3717356   3.970   2.602  -1.195  0.6564  0.3872  0.8084
  156SAPE   H7X17357   4.037   2.690  -1.209  0.9521  0.0637  0.1520
  156SAPE   H7Y17358   3.866   2.641  -1.195 -0.2026 -1.0501 -4.6955
  156SAPE   C3817359   3.993   2.516  -1.322 -0.5254  0.0127 -0.2645
  156SAPE   H8X17360   3.954   2.413  -1.307 -0.5230  0.2629  1.7106
  156SAPE   H8Y17361   4.103   2.501  -1.324 -0.4796 -0.0447  1.2832
  156SAPE   C3917362   3.930   2.572  -1.449  0.0194 -0.0048 -0.1924
  156SAPE   H9X17363   3.968   2.676  -1.458  0.1237 -0.0524 -0.3069
  156SAPE   H9Y17364   3.821   2.587  -1.436  0.0378  1.8621 -1.7732
  156SAPE  C31017365   3.965   2.498  -1.582 -0.5217 -0.1015  0.1110
  156SAPE  H10X17366   3.930   2.392  -1.585 -0.0242 -0.2453 -1.8825
  156SAPE  H10Y17367   4.075   2.492  -1.573 -0.4696  0.5129 -0.0736
  156SAPE  C31117368   3.926   2.562  -1.719  0.1334  0.1672 -0.7558
  156SAPE  H11X17369   3.817   2.579  -1.729 -0.1247 -1.0609 -0.2236
  156SAPE  H11Y17370   3.941   2.487  -1.800  0.0084 -0.8620  0.1373
  156SAPE  C31217371   4.022   2.673  -1.751  0.3295  0.3237  0.4058
  156SAPE  H12X17372   4.120   2.624  -1.767 -0.2784 -0.5104 -0.9451
  156SAPE  H12Y17373   4.038   2.739  -1.664  0.0971  2.5627 -1.1818
  156SAPE  C31317374   3.986   2.740  -1.882 -0.6271  0.1302  0.7860
  156SAPE  H13X17375   3.884   2.785  -1.885 -0.2954  0.8396 -0.4158
  156SAPE  H13Y17376   3.992   2.669  -1.966 -0.6153  0.7162  0.2825
  156SAPE  C31417377   4.097   2.847  -1.918 -0.2525 -0.3284  0.0847
  156SAPE  H14X17378   4.183   2.785  -1.952 -0.5751 -0.7749  0.0678
  156SAPE  H14Y17379   4.107   2.913  -1.830 -1.4960  0.6578 -0.4778
  156SAPE  C31517380   4.071   2.929  -2.045 -0.0167 -0.6259 -0.1780
  156SAPE  H15X17381   3.962   2.951  -2.047 -0.0369 -0.4487  1.4953
  156SAPE  H15Y17382   4.092   2.861  -2.130 -1.5302 -0.0003 -1.0879
  156SAPE  C31617383   4.158   3.058  -2.056  0.0099 -0.2596 -0.6009
  156SAPE  H16X17384   4.120   3.128  -1.978 -0.4933  0.1053 -1.1629
  156SAPE  H16Y17385   4.135   3.112  -2.150  2.1684  0.2611 -0.8819
  156SAPE  C31717386   4.311   3.038  -2.033 -0.4097  0.4583  0.1001
  156SAPE  H17X17387   4.323   2.980  -1.939  1.0185  0.5383 -0.0187
  156SAPE  H17Y17388   4.345   3.143  -2.018 -2.3547  1.0256  0.9135
  156SAPE  C31817389   4.383   2.981  -2.150  0.2665 -0.1305 -0.4793
  156SAPE  H18X17390   4.494   2.989  -2.141  0.4497  2.5722 -3.1508
  156SAPE  H18Y17391   4.356   3.037  -2.243 -0.5908  3.2830  1.6534
  156SAPE  H18Z17392   4.348   2.876  -2.153  0.4629 -0.2227  0.3019
  157SAPE     N17393   6.264   0.934   0.368 -0.1959  0.3012  0.8657
  157SAPE   HN117394   6.297   0.976   0.457 -0.3027 -2.4892  2.3497
  157SAPE   HN217395   6.171   0.978   0.353 -1.3540 -2.3304 -0.2567
  157SAPE   HN317396   6.250   0.831   0.374 -0.5161  0.2993  0.1318
  157SAPE   C1217397   6.358   0.971   0.249  0.8965  0.4305  0.1042
  157SAPE  H12A17398   6.351   1.082   0.237 -0.2113  0.4298  0.6559
  157SAPE  H12B17399   6.325   0.922   0.155 -0.9403  0.5389  0.6469
  157SAPE   C1117400   6.497   0.932   0.286 -0.7412  0.0561 -0.0316
  157SAPE  H11A17401   6.525   1.004   0.366 -2.5705 -1.8835  2.5375
  157SAPE  H11B17402   6.569   0.952   0.204  0.0210 -0.0865  0.5856
  157SAPE     P17403   6.525   0.668   0.258 -0.3422 -0.2809  0.2484
  157SAPE   O1317404   6.649   0.604   0.303  0.1875  0.0940 -0.1656
  157SAPE   O1417405   6.401   0.588   0.282  0.0213  0.0800  0.2383
  157SAPE   O1217406   6.517   0.804   0.340 -0.3272 -0.4109  0.3724
  157SAPE   O1117407   6.540   0.711   0.106 -0.4233 -0.0005  0.2441
  157SAPE    C117408   6.426   0.698   0.018  0.3869 -0.8025  0.6225
  157SAPE    HA17409   6.353   0.621   0.051  1.5896 -2.9238 -1.3535
  157SAPE    HB17410   6.372   0.794   0.002  0.9806 -0.2853  1.6685
  157SAPE    C217411   6.464   0.647  -0.132 -0.2479 -0.5006 -0.0176
  157SAPE    HS17412   6.371   0.617  -0.185 -0.4871  2.1921 -1.3186
  157SAPE   O2117413   6.547   0.529  -0.121 -0.4515  0.1982 -1.1497
  157SAPE   C2117414   6.483   0.424  -0.093  0.1819 -0.1434 -0.0941
  157SAPE   O2217415   6.362   0.408  -0.083 -0.3728 -0.0653  0.1017
  157SAPE   C2217416   6.580   0.307  -0.093  0.1499  0.2920 -0.3157
  157SAPE   H2R17417   6.632   0.290   0.003  1.2972  0.6407 -0.8483
  157SAPE   H2S17418   6.521   0.215  -0.113 -0.1906  0.6005 -0.7675
  157SAPE    C317419   6.524   0.759  -0.223 -0.1755 -0.3510  0.3611
  157SAPE    HX17420   6.618   0.805  -0.185 -0.1014  0.6277 -0.9152
  157SAPE    HY17421   6.456   0.847  -0.227  0.9769  0.5523  0.1545
  157SAPE   O3117422   6.540   0.715  -0.359  0.0976  0.2443 -0.3005
  157SAPE   C3117423   6.653   0.658  -0.396  0.1486 -0.0059 -0.8553
  157SAPE   O3217424   6.751   0.642  -0.320 -0.1500  0.0239  0.0812
  157SAPE   C3217425   6.640   0.617  -0.546  0.3354 -0.3099  0.3271
  157SAPE   H2X17426   6.744   0.595  -0.577  0.2396 -1.4897  0.7665
  157SAPE   H2Y17427   6.616   0.713  -0.595 -0.7898  0.1817  1.7457
  157SAPE   C2317428   6.685   0.308  -0.211  0.2145  0.4583 -0.3730
  157SAPE   H3R17429   6.742   0.404  -0.215 -1.8217  1.7817  0.6972
  157SAPE   H3S17430   6.627   0.299  -0.305 -0.8220 -1.4383  0.3993
  157SAPE   C2417431   6.768   0.179  -0.220  0.0769  0.6832 -0.0828
  157SAPE   H4R17432   6.827   0.161  -0.128  1.6107 -0.7863 -1.2826
  157SAPE   H4S17433   6.852   0.193  -0.292  0.8550 -1.0976  0.4406
  157SAPE   C2517434   6.695   0.046  -0.257 -0.7000 -0.3159 -0.4336
  157SAPE   H5R17435   6.669  -0.020  -0.173  0.3993 -1.6627 -1.1152
  157SAPE   C2617436   6.667  -0.001  -0.377 -0.2137  0.7928  0.3168
  157SAPE   H6R17437   6.605  -0.092  -0.377  0.7194  0.1494 -0.3768
  157SAPE   C2717438   6.706   0.067  -0.509  0.1627 -0.1567  0.0741
  157SAPE   H7R17439   6.764  -0.011  -0.561 -1.4885 -1.6250  0.3381
  157SAPE   H7S17440   6.772   0.156  -0.494 -0.0970  0.2666 -1.1696
  157SAPE   C2817441   6.580   0.091  -0.589 -0.4463  0.0964  0.7267
  157SAPE   H8R17442   6.511   0.169  -0.553 -0.5633  0.1398  0.4112
  157SAPE   C2917443   6.546   0.037  -0.712 -0.0563 -0.2421  0.0055
  157SAPE   H9R17444   6.446   0.061  -0.750 -0.1463  0.2316  0.5265
  157SAPE  C21017445   6.624  -0.062  -0.795 -0.3074 -0.8666  0.8429
  157SAPE  H10R17446   6.558  -0.142  -0.833  0.5929 -1.6488  0.8888
  157SAPE  H10S17447   6.701  -0.113  -0.733 -0.8209 -3.1695 -0.2871
  157SAPE  C21117448   6.697  -0.007  -0.916 -0.2215  0.0677  0.5008
  157SAPE  H11R17449   6.772   0.067  -0.885  1.2483 -0.9674 -0.3876
  157SAPE  C21217450   6.671  -0.032  -1.046  0.8277  0.7870 -0.1635
  157SAPE  H12R17451   6.740   0.013  -1.119  2.9920 -2.3540 -0.2423
  157SAPE  C21317452   6.568  -0.126  -1.102  0.2464 -0.6078 -1.0551
  157SAPE  H13R17453   6.507  -0.073  -1.179  0.2353 -0.7447 -1.1404
  157SAPE  H13S17454   6.493  -0.156  -1.025  0.3598 -0.0069 -0.7006
  157SAPE  C21417455   6.638  -0.245  -1.164  0.5647 -0.1943  0.2812
  157SAPE  H14R17456   6.712  -0.293  -1.099  1.4378 -0.1233 -0.6226
  157SAPE  C21517457   6.611  -0.292  -1.288 -0.0880 -0.1730  1.0445
  157SAPE  H15R17458   6.670  -0.375  -1.332  1.3571  0.6283  1.4005
  157SAPE  C21617459   6.516  -0.220  -1.384 -0.3875  0.1169 -0.3357
  157SAPE  H16R17460   6.552  -0.118  -1.411  1.3045  0.1674  1.8497
  157SAPE  H16S17461   6.422  -0.204  -1.326  0.1930 -0.0989  0.6896
  157SAPE  C21717462   6.495  -0.297  -1.520 -0.0858 -0.4330  0.1471
  157SAPE  H17R17463   6.417  -0.250  -1.582 -0.7194 -1.4195  0.1735
  157SAPE  H17S17464   6.464  -0.403  -1.510  0.0083 -0.5545 -0.7676
  157SAPE  C21817465   6.618  -0.276  -1.619  0.1685  0.5407 -0.6551
  157SAPE  H18R17466   6.702  -0.268  -1.546  1.0117 -1.9432 -1.2212
  157SAPE  H18S17467   6.618  -0.178  -1.670 -0.8317  1.3492  0.8409
  157SAPE  C21917468   6.635  -0.392  -1.711 -0.2433  0.3879  0.1454
  157SAPE  H19R17469   6.712  -0.359  -1.785 -0.2298 -0.6268 -0.3089
  157SAPE  H19S17470   6.539  -0.410  -1.765 -0.6247 -0.5630  1.1172
  157SAPE  C22017471   6.681  -0.531  -1.660 -0.3358 -0.0015 -0.0812
  157SAPE  H20R17472   6.593  -0.579  -1.613  0.0208 -1.2988 -0.7090
  157SAPE  H20S17473   6.764  -0.524  -1.586 -2.2971 -0.5251  2.2836
  157SAPE  H20T17474   6.700  -0.604  -1.741  1.2358 -1.1993  1.2903
  157SAPE   C3317475   6.566   0.482  -0.580 -0.1140 -0.2078  1.4289
  157SAPE   H3X17476   6.471   0.472  -0.524 -0.1959 -1.4855  1.1041
  157SAPE   H3Y17477   6.630   0.397  -0.545  2.5846  1.5247  1.0325
  157SAPE   C3417478   6.528   0.454  -0.725  0.4224 -0.1063  0.5055
  157SAPE   H4X17479   6.449   0.522  -0.762  2.5153  2.9534  1.2934
  157SAPE   H4Y17480   6.483   0.352  -0.727  0.9703 -0.4053  1.8469
  157SAPE   C3517481   6.651   0.467  -0.818  0.0284 -0.3662 -0.7285
  157SAPE   H5X17482   6.717   0.379  -0.799 -0.0985 -0.0768  1.2906
  157SAPE   H5Y17483   6.702   0.563  -0.795 -1.1188  0.4166 -1.3731
  157SAPE   C3617484   6.607   0.469  -0.961 -0.0056  0.1620  0.3648
  157SAPE   H6X17485   6.552   0.380  -0.998 -2.0810  1.6197 -0.2518
  157SAPE   H6Y17486   6.702   0.477  -1.019 -0.1951 -0.4166 -0.0348
  157SAPE   C3717487   6.534   0.594  -1.003  1.3681 -0.3029 -0.2804
  157SAPE   H7X17488   6.575   0.678  -0.943  0.4073 -1.7183  2.5106
  157SAPE   H7Y17489   6.427   0.591  -0.973  0.5852  2.1678 -2.3995
  157SAPE   C3817490   6.540   0.611  -1.157 -0.3847 -0.1558  0.0510
  157SAPE   H8X17491   6.443   0.653  -1.193 -0.2606  0.2494  0.1832
  157SAPE   H8Y17492   6.576   0.516  -1.201  1.2369  0.4729 -0.0576
  157SAPE   C3917493   6.650   0.715  -1.198  0.4003 -0.1318  1.2447
  157SAPE   H9X17494   6.750   0.676  -1.172  0.9530 -0.9731 -1.7845
  157SAPE   H9Y17495   6.623   0.804  -1.137  0.0828 -0.3950  1.4906
  157SAPE  C31017496   6.631   0.747  -1.345 -0.6414 -0.1461 -0.4657
  157SAPE  H10X17497   6.528   0.787  -1.355 -0.3899  0.6402 -0.0266
  157SAPE  H10Y17498   6.630   0.648  -1.395  1.5228  0.1421 -1.1615
  157SAPE  C31117499   6.729   0.848  -1.412  0.4331 -1.1916 -0.4219
  157SAPE  H11X17500   6.830   0.803  -1.403 -0.7145 -3.5321  3.3418
  157SAPE  H11Y17501   6.736   0.940  -1.349 -1.8491 -1.5735  0.5291
  157SAPE  C31217502   6.694   0.889  -1.557  0.5459 -0.4262  0.0268
  157SAPE  H12X17503   6.615   0.967  -1.552  0.8129 -0.1485 -0.0795
  157SAPE  H12Y17504   6.638   0.804  -1.602 -4.7871  2.2799  0.7310
  157SAPE  C31317505   6.805   0.948  -1.645 -1.0707 -1.2390 -0.1189
  157SAPE  H13X17506   6.894   0.882  -1.653 -0.7687 -0.9013  0.4395
  157SAPE  H13Y17507   6.854   1.038  -1.602  2.6373 -1.9701 -2.3264
  157SAPE  C31417508   6.794   0.958  -1.799  0.9331 -0.0091 -0.0890
  157SAPE  H14X17509   6.892   0.972  -1.849  1.2510 -0.4946  0.3871
  157SAPE  H14Y17510   6.734   1.050  -1.815 -0.3765 -0.7572  0.3614
  157SAPE  C31517511   6.719   0.826  -1.851  0.1622 -0.5362  0.1525
  157SAPE  H15X17512   6.616   0.828  -1.809  0.7671  1.4005  1.7196
  157SAPE  H15Y17513   6.771   0.736  -1.812  0.6023 -0.0622  0.6723
  157SAPE  C31617514   6.714   0.797  -2.006  0.2325 -0.1047  0.2725
  157SAPE  H16X17515   6.813   0.814  -2.052  0.7033  1.7537  1.8450
  157SAPE  H16Y17516   6.645   0.877  -2.042  0.6632 -0.0147 -0.3683
  157SAPE  C31717517   6.669   0.651  -2.039  0.2904 -0.0788 -0.1654
  157SAPE  H17X17518   6.597   0.625  -1.959 -1.3349 -0.7805 -1.7889
  157SAPE  H17Y17519   6.747   0.573  -2.022  1.1221  1.2664  2.7211
  157SAPE  C31817520   6.593   0.631  -2.172  0.2872 -0.2845  0.2672
  157SAPE  H18X17521   6.586   0.520  -2.178  0.1252 -0.3875  1.9444
  157SAPE  H18Y17522   6.647   0.663  -2.264 -1.3543 -1.7835 -1.3157
  157SAPE  H18Z17523   6.499   0.689  -2.164 -0.9729 -1.5999 -3.1433
  158SAPE     N17524   1.865   5.591   0.005  0.4452  0.3370  0.1703
  158SAPE   HN117525   1.770   5.633   0.013 -0.5231 -1.6016 -0.4225
  158SAPE   HN217526   1.870   5.491   0.034  2.2233  0.6963  1.2447
  158SAPE   HN317527   1.922   5.640   0.077  0.7241 -2.6951  2.2096
  158SAPE   C1217528   1.922   5.596  -0.136  0.2011 -0.3525 -0.0886
  158SAPE  H12A17529   1.896   5.499  -0.185  0.5508 -1.9255  2.6541
  158SAPE  H12B17530   2.032   5.601  -0.122  0.4014  0.2776 -1.7007
  158SAPE   C1117531   1.869   5.724  -0.214 -0.8896  0.9561 -0.0021
  158SAPE  H11A17532   1.761   5.746  -0.229 -1.1356 -1.1343 -1.6651
  158SAPE  H11B17533   1.912   5.725  -0.316 -0.6166  0.7160  0.1107
  158SAPE     P17534   2.039   5.926  -0.165  0.0537  0.2114  0.2886
  158SAPE   O1317535   2.025   6.055  -0.092 -0.7714  0.0278 -0.3532
  158SAPE   O1417536   2.158   5.848  -0.131 -0.5080  0.1544  0.5819
  158SAPE   O1217537   1.918   5.830  -0.137 -0.0390  0.2049 -0.4543
  158SAPE   O1117538   2.031   5.951  -0.324 -0.7312  0.4898  0.4989
  158SAPE    C117539   2.127   6.049  -0.370 -0.1993  0.2146 -0.1902
  158SAPE    HA17540   2.137   6.144  -0.312 -0.2831  0.2449 -0.2252
  158SAPE    HB17541   2.227   6.000  -0.376 -0.7549 -1.1447  1.1925
  158SAPE    C217542   2.092   6.090  -0.506  0.6632  0.7286  0.2317
  158SAPE    HS17543   2.179   6.146  -0.546  0.5447  0.1193 -0.9084
  158SAPE   O2117544   1.972   6.167  -0.506  0.0438 -0.3947  0.4033
  158SAPE   C2117545   1.983   6.296  -0.479 -0.0708  0.0579 -0.2381
  158SAPE   O2217546   2.088   6.358  -0.456  0.4004  0.5619 -0.1949
  158SAPE   C2217547   1.846   6.359  -0.488  0.3400 -0.1333  0.0161
  158SAPE   H2R17548   1.783   6.311  -0.565  0.5028  2.6101 -1.9824
  158SAPE   H2S17549   1.794   6.351  -0.390 -0.5788  1.2359 -0.3417
  158SAPE    C317550   2.072   5.956  -0.593 -0.0570  1.1733 -0.1238
  158SAPE    HX17551   1.983   5.909  -0.545 -0.6389  2.8253  0.4689
  158SAPE    HY17552   2.156   5.882  -0.591  1.4137  2.7061 -2.0385
  158SAPE   O3117553   2.050   5.979  -0.732 -0.0479  0.2555 -0.1235
  158SAPE   C3117554   2.156   6.010  -0.808  0.0006 -0.5094 -0.3465
  158SAPE   O3217555   2.265   6.043  -0.765 -0.5178 -0.0964 -0.7877
  158SAPE   C3217556   2.117   6.005  -0.951  0.1884 -0.1094 -0.4116
  158SAPE   H2X17557   2.027   6.069  -0.965  0.2608  0.4233  1.3421
  158SAPE   H2Y17558   2.103   5.897  -0.973  0.5567 -0.2540  0.0499
  158SAPE   C2317559   1.873   6.511  -0.515 -0.7835  0.7923 -0.4121
  158SAPE   H3R17560   1.937   6.530  -0.604 -0.4788  0.1180 -0.3487
  158SAPE   H3S17561   1.926   6.549  -0.425 -2.9440 -1.2413  1.8352
  158SAPE   C2417562   1.744   6.596  -0.513  0.0710 -0.5286  0.4601
  158SAPE   H4R17563   1.694   6.560  -0.421 -0.4955 -4.5693 -1.2295
  158SAPE   H4S17564   1.665   6.564  -0.584 -2.3076  3.3518  1.0823
  158SAPE   C2517565   1.763   6.750  -0.508  0.4803 -0.2709  0.2257
  158SAPE   H5R17566   1.724   6.796  -0.416  2.2968  0.1191  0.8437
  158SAPE   C2617567   1.814   6.828  -0.605  0.1287 -0.5242  0.0666
  158SAPE   H6R17568   1.828   6.933  -0.578  3.6260 -0.4045 -1.6658
  158SAPE   C2717569   1.870   6.790  -0.741  0.5381  0.3144 -0.2071
  158SAPE   H7R17570   1.943   6.707  -0.732 -0.6343 -0.7809 -0.4886
  158SAPE   H7S17571   1.941   6.872  -0.767  1.0119  0.0744  0.3066
  158SAPE   C2817572   1.769   6.746  -0.847 -0.3906 -0.3915  0.0795
  158SAPE   H8R17573   1.664   6.761  -0.818 -0.0753 -0.9643  1.6266
  158SAPE   C2917574   1.795   6.681  -0.967  1.0081 -0.4967  0.2042
  158SAPE   H9R17575   1.709   6.671  -1.035 -0.5227 -0.2903  2.0371
  158SAPE  C21017576   1.931   6.643  -1.022  0.0727  0.6071  0.3708
  158SAPE  H10R17577   2.005   6.642  -0.939 -1.0702 -1.5637  1.4637
  158SAPE  H10S17578   1.967   6.730  -1.080  3.1695 -0.9523 -0.2658
  158SAPE  C21117579   1.948   6.511  -1.098  0.1681  0.0529 -0.4332
  158SAPE  H11R17580   2.031   6.448  -1.062  0.6212  0.8501 -0.0403
  158SAPE  C21217581   1.883   6.465  -1.204 -0.1947  0.9925 -0.6883
  158SAPE  H12R17582   1.918   6.366  -1.236 -2.2491 -0.3549  0.9785
  158SAPE  C21317583   1.774   6.521  -1.286  0.0529  0.1134  0.0806
  158SAPE  H13R17584   1.702   6.581  -1.225 -0.5849  1.6130 -2.0342
  158SAPE  H13S17585   1.723   6.429  -1.320  1.7879 -1.2053  0.8961
  158SAPE  C21417586   1.824   6.605  -1.401  1.0393 -0.7199  0.3583
  158SAPE  H14R17587   1.886   6.694  -1.382 -0.2545  0.4032 -0.4439
  158SAPE  C21517588   1.769   6.616  -1.527  0.5019 -0.1168  0.0715
  158SAPE  H15R17589   1.817   6.693  -1.589  1.5451 -1.9324 -1.4828
  158SAPE  C21617590   1.646   6.545  -1.588 -0.3177  0.4339 -0.0267
  158SAPE  H16R17591   1.565   6.613  -1.622 -2.5790 -0.8817  2.3191
  158SAPE  H16S17592   1.600   6.478  -1.512 -1.2039 -1.4367 -2.1099
  158SAPE  C21717593   1.683   6.449  -1.710 -0.2433  0.5426 -0.1102
  158SAPE  H17R17594   1.737   6.497  -1.794  0.0344 -1.6286 -1.2235
  158SAPE  H17S17595   1.586   6.421  -1.755  0.4957  2.2043 -3.0036
  158SAPE  C21817596   1.765   6.319  -1.664 -0.1072  0.4884 -0.3059
  158SAPE  H18R17597   1.716   6.266  -1.580  0.0722 -2.1519 -1.7710
  158SAPE  H18S17598   1.869   6.345  -1.635  0.3306 -0.0499 -1.3551
  158SAPE  C21917599   1.772   6.224  -1.778  0.6409 -0.3225  0.1184
  158SAPE  H19R17600   1.860   6.157  -1.774  0.4329 -0.5767  0.5557
  158SAPE  H19S17601   1.799   6.275  -1.873  0.3529 -2.5906 -1.2451
  158SAPE  C22017602   1.655   6.129  -1.791 -0.0332 -0.1905  0.7262
  158SAPE  H20R17603   1.683   6.065  -1.878  2.0247 -0.2289  1.3526
  158SAPE  H20S17604   1.570   6.193  -1.822  1.6668  2.4316  1.0950
  158SAPE  H20T17605   1.633   6.076  -1.696  0.8467 -1.7134  0.1202
  158SAPE   C3317606   2.227   6.064  -1.034  1.1154  0.1967  0.1080
  158SAPE   H3X17607   2.301   5.983  -1.053  0.2708 -0.3436 -1.0317
  158SAPE   H3Y17608   2.267   6.155  -0.985  2.0965 -0.1369 -0.0408
  158SAPE   C3417609   2.191   6.100  -1.183 -0.1368 -0.2491 -0.8591
  158SAPE   H4X17610   2.105   6.170  -1.178  0.9799  1.1222  2.8990
  158SAPE   H4Y17611   2.169   6.007  -1.239 -1.0331 -0.9097  0.5481
  158SAPE   C3517612   2.313   6.172  -1.238 -0.0337 -0.3353  0.0086
  158SAPE   H5X17613   2.411   6.123  -1.223  1.8538  2.9503 -0.5854
  158SAPE   H5Y17614   2.335   6.263  -1.178  2.1028 -0.4791 -0.4953
  158SAPE   C3617615   2.297   6.214  -1.384 -0.1658 -0.6679 -0.0106
  158SAPE   H6X17616   2.250   6.134  -1.444 -0.1285  0.9916 -2.4019
  158SAPE   H6Y17617   2.396   6.224  -1.432 -0.5081  0.8021 -0.4529
  158SAPE   C3717618   2.224   6.344  -1.409  0.1034  0.3215 -0.6875
  158SAPE   H7X17619   2.253   6.430  -1.344 -3.6495  1.7947 -0.7128
  158SAPE   H7Y17620   2.114   6.340  -1.398 -0.3948  1.1916 -4.2447
  158SAPE   C3817621   2.229   6.401  -1.558  0.0098  1.2420  0.1237
  158SAPE   H8X17622   2.198   6.312  -1.616  1.6265 -0.7611  2.1139
  158SAPE   H8Y17623   2.332   6.414  -1.598 -0.6212  0.0887 -2.0285
  158SAPE   C3917624   2.144   6.521  -1.584  0.6650 -0.1079  0.0694
  158SAPE   H9X17625   2.191   6.604  -1.526 -1.7007  1.5018 -0.1734
  158SAPE   H9Y17626   2.044   6.513  -1.537  0.3933  1.7060 -0.0983
  158SAPE  C31017627   2.152   6.557  -1.731 -0.0395 -0.6858  1.0771
  158SAPE  H10X17628   2.134   6.471  -1.799 -0.5818 -0.3011  0.7192
  158SAPE  H10Y17629   2.244   6.613  -1.756 -0.1565 -1.1683 -0.5399
  158SAPE  C31117630   2.043   6.658  -1.772 -0.5962 -0.1694  0.6576
  158SAPE  H11X17631   2.041   6.734  -1.690  1.0596  0.2172  0.3791
  158SAPE  H11Y17632   1.947   6.604  -1.760 -0.8031  0.0183 -0.1265
  158SAPE  C31217633   2.068   6.713  -1.915  0.0669  0.3007  0.3169
  158SAPE  H12X17634   2.166   6.766  -1.920 -0.8538  2.0417 -0.0011
  158SAPE  H12Y17635   1.982   6.783  -1.923 -0.7216 -0.4775  1.5964
  158SAPE  C31317636   2.064   6.609  -2.033  0.0160  0.2707 -1.0388
  158SAPE  H13X17637   2.135   6.525  -2.018  1.1556  1.3723 -0.2178
  158SAPE  H13Y17638   2.089   6.665  -2.126  1.8544  0.3176 -0.5496
  158SAPE  C31417639   1.930   6.544  -2.046  0.1980  0.0364  0.8651
  158SAPE  H14X17640   1.862   6.625  -2.080  1.5809  0.1925 -1.7083
  158SAPE  H14Y17641   1.897   6.495  -1.952  0.4169 -0.7203  0.5507
  158SAPE  C31517642   1.922   6.434  -2.155 -0.0847 -0.6047 -0.3734
  158SAPE  H15X17643   2.000   6.358  -2.131  0.9773  0.3163 -0.7834
  158SAPE  H15Y17644   1.945   6.466  -2.259 -0.1280 -1.6790 -0.7245
  158SAPE  C31617645   1.780   6.373  -2.176 -0.4458  0.3850 -0.5888
  158SAPE  H16X17646   1.710   6.429  -2.241 -0.9557 -0.3099 -0.6456
  158SAPE  H16Y17647   1.724   6.362  -2.081  0.4836 -1.6145 -0.2198
  158SAPE  C31717648   1.783   6.225  -2.232 -0.2530 -0.6095  0.7315
  158SAPE  H17X17649   1.827   6.172  -2.145  1.8763  2.9743  2.0859
  158SAPE  H17Y17650   1.843   6.211  -2.324 -0.5451 -0.4456  0.5150
  158SAPE  C31817651   1.633   6.185  -2.256 -0.5640  0.3160 -0.3850
  158SAPE  H18X17652   1.572   6.249  -2.324 -3.5394  1.7965  3.3009
  158SAPE  H18Y17653   1.574   6.167  -2.164 -0.4007  0.9524 -0.1524
  158SAPE  H18Z17654   1.634   6.083  -2.298  2.7664  0.8154 -1.7976
  159SAPE     N17655   3.610   4.068   4.329  0.0179 -0.6756  0.4077
  159SAPE   HN117656   3.647   3.991   4.270 -0.7129 -0.7034 -0.0377
  159SAPE   HN217657   3.507   4.082   4.320  0.2712  1.3577  0.0485
  159SAPE   HN317658   3.651   4.156   4.292  0.4820  0.2290  2.9031
  159SAPE   C1217659   3.666   4.059   4.468  0.2578 -0.0744 -0.4280
  159SAPE  H12A17660   3.634   3.964   4.517  3.1979  0.2311  2.3969
  159SAPE  H12B17661   3.621   4.133   4.538  0.9269 -1.5695  1.6940
  159SAPE   C1117662   3.825   4.062   4.468  1.1555 -0.0529 -0.2965
  159SAPE  H11A17663   3.851   4.059   4.576 -1.0570 -0.4313  0.2823
  159SAPE  H11B17664   3.853   4.154   4.413  0.1477  0.8141  0.5882
  159SAPE     P17665   4.040   3.945   4.411  0.2978 -0.0852  0.0089
  159SAPE   O1317666   4.092   3.831   4.338  0.0848 -0.5262  0.0454
  159SAPE   O1417667   4.081   4.079   4.363 -0.2438 -0.3419  0.3053
  159SAPE   O1217668   3.878   3.952   4.400  0.7498  0.4774  0.0246
  159SAPE   O1117669   4.066   3.945   4.565 -0.9243 -0.3181 -0.3150
  159SAPE    C117670   4.043   3.835   4.647 -0.2055 -0.4151  0.5717
  159SAPE    HA17671   3.940   3.801   4.625 -0.1969  0.5617 -1.1844
  159SAPE    HB17672   4.104   3.745   4.625 -1.5915 -0.7856 -2.1279
  159SAPE    C217673   4.057   3.867   4.800  0.2587 -0.6990 -0.6490
  159SAPE    HS17674   3.973   3.936   4.822 -1.1178 -2.0789 -1.3830
  159SAPE   O2117675   4.189   3.921   4.823  0.8015  0.4747 -0.0339
  159SAPE   C2117676   4.194   4.008   4.919 -0.4168  0.3783 -0.5961
  159SAPE   O2217677   4.101   4.059   4.971 -0.0577 -0.2875 -0.6130
  159SAPE   C2217678   4.340   4.020   4.969  0.5019  0.6414  0.4245
  159SAPE   H2R17679   4.375   3.917   4.986  0.7619  0.9392  1.7885
  159SAPE   H2S17680   4.404   4.074   4.896  0.1940 -3.0790 -2.9411
  159SAPE    C317681   4.046   3.734   4.873  0.2057  0.5585  0.5065
  159SAPE    HX17682   4.117   3.658   4.834  1.5609  1.1032  1.8211
  159SAPE    HY17683   3.942   3.700   4.850  0.5062  1.3896 -2.5469
  159SAPE   O3117684   4.075   3.755   5.016 -0.5371  0.0056  0.1828
  159SAPE   C3117685   3.977   3.765   5.104  0.0940 -0.5341  0.4284
  159SAPE   O3217686   3.860   3.768   5.076 -0.3218 -0.2750  0.2337
  159SAPE   C3217687   4.039   3.773   5.245  0.3795 -0.8121  0.3519
  159SAPE   H2X17688   4.087   3.873   5.237  1.8795 -1.6557 -2.5756
  159SAPE   H2Y17689   4.109   3.687   5.250 -1.2654 -2.1361  1.7397
  159SAPE   C2317690   4.356   4.100   5.097 -0.3287  0.3148  0.3563
  159SAPE   H3R17691   4.283   4.063   5.171  1.3408  0.2783  2.0636
  159SAPE   H3S17692   4.348   4.210   5.088  2.1310  0.6948  1.9588
  159SAPE   C2417693   4.494   4.075   5.161  1.3678  1.0547  0.0379
  159SAPE   H4R17694   4.516   3.966   5.169  1.2552  0.9572 -0.9448
  159SAPE   H4S17695   4.486   4.119   5.263  0.2539  2.2950 -0.5531
  159SAPE   C2517696   4.612   4.126   5.072  0.6464 -0.4786  0.4912
  159SAPE   H5R17697   4.628   4.079   4.974 -2.0133  2.2593 -1.4373
  159SAPE   C2617698   4.687   4.234   5.120 -0.3834  0.2803  0.6183
  159SAPE   H6R17699   4.746   4.294   5.049  0.6455 -1.2848  0.1042
  159SAPE   C2717700   4.655   4.302   5.257  0.3077  0.2663 -0.2952
  159SAPE   H7R17701   4.551   4.307   5.295  0.6314  2.1505  0.4471
  159SAPE   H7S17702   4.686   4.409   5.252  1.3530 -0.0652 -1.7754
  159SAPE   C2817703   4.748   4.251   5.369 -0.8046  0.0887  0.4177
  159SAPE   H8R17704   4.848   4.222   5.333 -0.3905  0.8192  0.9471
  159SAPE   C2917705   4.720   4.233   5.502  1.1256  0.5895 -0.5933
  159SAPE   H9R17706   4.796   4.198   5.574  0.5706  2.2607  0.8816
  159SAPE  C21017707   4.584   4.261   5.563 -0.5617  0.5819  0.5378
  159SAPE  H10R17708   4.504   4.277   5.488 -1.1461  1.1424  1.2567
  159SAPE  H10S17709   4.596   4.362   5.608 -2.1236  0.9692  0.1641
  159SAPE  C21117710   4.539   4.167   5.676  0.3266 -0.3606  0.1642
  159SAPE  H11R17711   4.437   4.131   5.654 -0.2339  1.7502 -0.9647
  159SAPE  C21217712   4.599   4.104   5.777  0.5390 -0.4613 -0.9998
  159SAPE  H12R17713   4.525   4.055   5.842  1.6389  0.0451  0.7003
  159SAPE  C21317714   4.745   4.109   5.822 -0.3938 -0.4446  0.4355
  159SAPE  H13R17715   4.778   4.214   5.806  1.8406 -0.8518  1.9909
  159SAPE  H13S17716   4.809   4.048   5.755 -0.1814  1.9723 -1.7154
  159SAPE  C21417717   4.762   4.079   5.972  0.4123  0.7663 -0.6717
  159SAPE  H14R17718   4.813   3.985   5.998 -0.2306  0.7076  0.4241
  159SAPE  C21517719   4.724   4.161   6.076 -0.8548  0.3511 -0.0728
  159SAPE  H15R17720   4.736   4.132   6.181 -0.3416  2.2391  0.4385
  159SAPE  C21617721   4.668   4.303   6.048 -0.6365  0.1434  0.1596
  159SAPE  H16R17722   4.608   4.313   5.955 -1.0691  1.5430  0.5572
  159SAPE  H16S17723   4.750   4.374   6.022 -0.6955  0.3729  0.5928
  159SAPE  C21717724   4.593   4.356   6.173 -0.2040 -1.1440  0.1190
  159SAPE  H17R17725   4.539   4.446   6.138 -1.1388 -0.8288  2.2166
  159SAPE  H17S17726   4.669   4.370   6.253 -1.3650 -1.2035  1.2639
  159SAPE  C21817727   4.484   4.265   6.228  1.0270 -0.0833  0.7853
  159SAPE  H18R17728   4.423   4.325   6.298 -2.2867  1.0382 -2.6732
  159SAPE  H18S17729   4.543   4.186   6.278 -1.4474 -0.8886  2.5945
  159SAPE  C21917730   4.388   4.186   6.132  0.6865 -0.3173 -0.0774
  159SAPE  H19R17731   4.440   4.137   6.047  0.2721  0.0523 -0.5508
  159SAPE  H19S17732   4.316   4.257   6.085  1.6549 -0.0884 -1.2675
  159SAPE  C22017733   4.303   4.088   6.219 -0.4704  0.0952 -0.1692
  159SAPE  H20R17734   4.361   4.009   6.271  0.0395 -0.2606 -1.2444
  159SAPE  H20S17735   4.231   4.022   6.166  0.8762 -0.9478 -0.7535
  159SAPE  H20T17736   4.250   4.158   6.287 -1.1899 -0.6026  0.0031
  159SAPE   C3317737   3.937   3.742   5.357  0.2827  0.5121  0.1959
  159SAPE   H3X17738   4.010   3.718   5.438  0.3537 -0.8461 -0.2446
  159SAPE   H3Y17739   3.867   3.660   5.331  0.1151 -0.2143  2.7199
  159SAPE   C3417740   3.858   3.855   5.398 -0.5479  0.0285 -0.9965
  159SAPE   H4X17741   3.807   3.891   5.306 -0.9206 -1.2273 -1.2995
  159SAPE   H4Y17742   3.919   3.939   5.439 -1.4307 -0.1424  0.7646
  159SAPE   C3517743   3.739   3.821   5.491 -0.1047 -0.2107 -0.9155
  159SAPE   H5X17744   3.689   3.722   5.487  1.9768 -1.4234  0.7773
  159SAPE   H5Y17745   3.659   3.895   5.470  0.8745  1.1869  0.0654
  159SAPE   C3617746   3.780   3.832   5.638 -0.6041 -0.6751 -0.2936
  159SAPE   H6X17747   3.821   3.933   5.659 -0.9326 -0.3173 -1.3515
  159SAPE   H6Y17748   3.859   3.756   5.657  0.7642  0.8175  0.1241
  159SAPE   C3717749   3.665   3.815   5.736  0.0889  0.0488  0.0159
  159SAPE   H7X17750   3.612   3.720   5.715  0.7439 -0.0546 -1.3415
  159SAPE   H7Y17751   3.592   3.898   5.722  0.5660  1.3114  3.8923
  159SAPE   C3817752   3.690   3.818   5.887  0.7464  0.3713 -0.4193
  159SAPE   H8X17753   3.739   3.722   5.913  1.1379 -0.1147 -2.7621
  159SAPE   H8Y17754   3.589   3.830   5.931  0.6524 -0.0199 -0.5276
  159SAPE   C3917755   3.769   3.939   5.939 -0.2739  0.4105 -0.3694
  159SAPE   H9X17756   3.701   4.025   5.921 -1.4963  0.1092  2.3241
  159SAPE   H9Y17757   3.862   3.948   5.879 -0.5068 -0.3764 -0.8646
  159SAPE  C31017758   3.816   3.929   6.081  0.3468 -0.0755 -0.2051
  159SAPE  H10X17759   3.735   3.942   6.156  0.9920  0.0806  0.4733
  159SAPE  H10Y17760   3.894   4.005   6.102 -0.7251  0.5916  1.5502
  159SAPE  C31117761   3.896   3.794   6.126  0.2095 -0.7011 -0.1150
  159SAPE  H11X17762   3.829   3.706   6.114 -3.1866  1.8961 -2.2461
  159SAPE  H11Y17763   3.921   3.802   6.234  0.9300  2.4258 -0.4127
  159SAPE  C31217764   4.029   3.770   6.049 -0.8950  0.1596 -0.0643
  159SAPE  H12X17765   4.102   3.713   6.111  0.1968  2.6369  1.1108
  159SAPE  H12Y17766   4.078   3.869   6.035 -1.7544  0.3805 -1.7510
  159SAPE  C31317767   4.027   3.703   5.909  0.1858  0.3932  0.0325
  159SAPE  H13X17768   3.958   3.772   5.855  0.0972  0.1083 -0.2249
  159SAPE  H13Y17769   3.984   3.601   5.911 -1.8395  1.1450 -1.4121
  159SAPE  C31417770   4.167   3.702   5.841 -0.7389 -0.4275  0.3572
  159SAPE  H14X17771   4.204   3.598   5.837  0.8143  0.1419 -2.1564
  159SAPE  H14Y17772   4.239   3.764   5.899  1.0528 -2.3853  0.3127
  159SAPE  C31517773   4.164   3.762   5.700  0.0736 -0.2978  0.2359
  159SAPE  H15X17774   4.134   3.868   5.697 -0.9801 -0.5938  0.0135
  159SAPE  H15Y17775   4.092   3.697   5.646  0.8808 -0.3440 -0.8034
  159SAPE  C31617776   4.299   3.734   5.638 -0.8085 -0.5940  0.4937
  159SAPE  H16X17777   4.330   3.628   5.648  2.0070  0.0745 -0.2863
  159SAPE  H16Y17778   4.376   3.798   5.686  0.5801 -0.6705 -1.5022
  159SAPE  C31717779   4.299   3.773   5.491 -0.1890  0.5518  0.8586
  159SAPE  H17X17780   4.275   3.880   5.471 -0.7926 -0.2349 -4.0859
  159SAPE  H17Y17781   4.221   3.706   5.447  0.1328  0.8218 -0.1569
  159SAPE  C31817782   4.426   3.751   5.406  0.4842 -0.0432 -0.4567
  159SAPE  H18X17783   4.511   3.816   5.437  0.3672  0.6915 -1.6183
  159SAPE  H18Y17784   4.395   3.775   5.302  0.7889 -1.5515 -0.9255
  159SAPE  H18Z17785   4.459   3.645   5.407  1.2436  0.1882  0.6770
  160SAPE     N17786   1.948   1.068   4.249 -0.3168 -0.4603  0.5519
  160SAPE   HN117787   1.932   0.970   4.279 -0.2034 -1.2119 -1.6128
  160SAPE   HN217788   2.017   1.067   4.171  2.1129 -2.6718  2.5166
  160SAPE   HN317789   1.988   1.112   4.333  0.7495 -3.6535  1.8765
  160SAPE   C1217790   1.816   1.132   4.215  0.8167  0.5286  0.1333
  160SAPE  H12A17791   1.739   1.115   4.293 -1.4298  1.3728 -1.7624
  160SAPE  H12B17792   1.780   1.077   4.126  1.8737  0.5837 -0.3382
  160SAPE   C1117793   1.835   1.280   4.189  0.1086  0.1654 -0.3626
  160SAPE  H11A17794   1.732   1.316   4.169 -0.4432 -0.8535  0.4736
  160SAPE  H11B17795   1.895   1.280   4.096 -0.4995 -0.5838 -0.7694
  160SAPE     P17796   1.861   1.502   4.326 -0.2600  0.0237  0.0415
  160SAPE   O1317797   1.971   1.562   4.399  0.4584 -0.1752 -0.3029
  160SAPE   O1417798   1.806   1.568   4.204  0.2344  0.3213  0.1781
  160SAPE   O1217799   1.890   1.345   4.302 -0.3164 -0.4394  0.0991
  160SAPE   O1117800   1.738   1.491   4.415  0.6042  0.2671 -0.3527
  160SAPE    C117801   1.703   1.588   4.515  0.0429 -0.5943 -0.0432
  160SAPE    HA17802   1.784   1.607   4.590 -0.1501  2.3311 -0.4641
  160SAPE    HB17803   1.665   1.685   4.475 -0.1504 -0.4499  0.4833
  160SAPE    C217804   1.587   1.541   4.617 -0.0651  0.3709 -0.0750
  160SAPE    HS17805   1.542   1.627   4.670 -1.0059  0.7266 -1.4047
  160SAPE   O2117806   1.632   1.437   4.708  0.2847  0.2354 -0.2455
  160SAPE   C2117807   1.691   1.480   4.816  0.6392  0.1336  0.1834
  160SAPE   O2217808   1.697   1.599   4.851 -0.4839 -0.4049  0.3501
  160SAPE   C2217809   1.737   1.366   4.903  0.4729 -0.0193  0.5338
  160SAPE   H2R17810   1.802   1.293   4.850 -0.0354  0.0576 -0.2139
  160SAPE   H2S17811   1.788   1.405   4.994 -1.3236 -1.3311  2.1636
  160SAPE    C317812   1.463   1.472   4.543 -0.5838  0.9407 -0.4364
  160SAPE    HX17813   1.497   1.394   4.471  1.1394  0.9423  0.3256
  160SAPE    HY17814   1.410   1.545   4.478  1.6415  2.7809 -0.3128
  160SAPE   O3117815   1.367   1.424   4.637  0.1961 -0.2246  0.0425
  160SAPE   C3117816   1.340   1.294   4.635 -0.7095  0.5710 -0.7310
  160SAPE   O3217817   1.413   1.205   4.582 -0.3870 -0.0098 -0.1992
  160SAPE   C3217818   1.196   1.264   4.679  0.1043  0.0773 -0.3218
  160SAPE   H2X17819   1.127   1.282   4.594  0.6330  0.2539 -0.7183
  160SAPE   H2Y17820   1.164   1.336   4.757 -0.5359  0.0682 -0.5697
  160SAPE   C2317821   1.613   1.301   4.967 -0.5116 -0.2080 -0.6969
  160SAPE   H3R17822   1.650   1.203   5.003 -1.0659 -0.5614 -1.0710
  160SAPE   H3S17823   1.538   1.288   4.885  0.2265  1.6696 -1.7440
  160SAPE   C2417824   1.541   1.395   5.077  0.1600  0.3501 -0.5755
  160SAPE   H4R17825   1.443   1.344   5.087  0.3439 -0.1168 -1.1165
  160SAPE   H4S17826   1.527   1.493   5.025 -1.2198  0.9838  0.8922
  160SAPE   C2517827   1.611   1.405   5.207 -0.7286  0.3619  0.1658
  160SAPE   H5R17828   1.680   1.326   5.238 -1.0656  1.2553  3.5591
  160SAPE   C2617829   1.607   1.507   5.293  0.1473  0.3423 -0.2697
  160SAPE   H6R17830   1.672   1.498   5.382 -1.9930 -0.9530  1.2477
  160SAPE   C2717831   1.519   1.627   5.287 -0.0622 -0.2216  0.6137
  160SAPE   H7R17832   1.491   1.657   5.390 -0.3701 -0.3350  0.5618
  160SAPE   H7S17833   1.417   1.606   5.248 -0.8387 -0.1096  2.4766
  160SAPE   C2817834   1.578   1.754   5.223 -0.1485 -0.4354  0.4247
  160SAPE   H8R17835   1.628   1.738   5.126 -1.1409 -0.9225 -0.0248
  160SAPE   C2917836   1.598   1.875   5.278  0.2809  0.5328 -0.2156
  160SAPE   H9R17837   1.655   1.946   5.215  1.2226  0.8265  0.9433
  160SAPE  C21017838   1.578   1.918   5.426 -0.2919  0.0904  0.6714
  160SAPE  H10R17839   1.489   1.868   5.468 -0.9215 -0.1463 -0.8741
  160SAPE  H10S17840   1.549   2.025   5.433  1.8961  0.7405  0.5255
  160SAPE  C21117841   1.703   1.901   5.502  0.7776 -0.2755 -0.2974
  160SAPE  H11R17842   1.794   1.911   5.442  1.0250 -0.4312  0.0517
  160SAPE  C21217843   1.709   1.912   5.636 -0.6632  0.0053 -0.2737
  160SAPE  H12R17844   1.812   1.899   5.673  0.2870 -2.7790 -3.3756
  160SAPE  C21317845   1.589   1.924   5.726  0.6558  0.1105 -1.1127
  160SAPE  H13R17846   1.505   1.856   5.702 -0.4814  1.1620 -0.2436
  160SAPE  H13S17847   1.547   2.026   5.712 -0.3994 -0.4161 -1.8696
  160SAPE  C21417848   1.622   1.895   5.869  0.5039  0.4836 -0.8273
  160SAPE  H14R17849   1.617   1.789   5.900  1.0520  0.9029  0.7535
  160SAPE  C21517850   1.643   1.992   5.964 -0.7609 -0.2302 -0.2031
  160SAPE  H15R17851   1.656   1.962   6.069 -0.8960 -1.8825 -0.6412
  160SAPE  C21617852   1.631   2.144   5.946 -0.5959  1.0587 -0.3140
  160SAPE  H16R17853   1.538   2.184   5.992 -0.8390 -1.2167  1.3257
  160SAPE  H16S17854   1.640   2.163   5.837  1.9894 -0.5175 -0.4656
  160SAPE  C21717855   1.745   2.221   6.012  0.2925 -0.2647 -0.6708
  160SAPE  H17R17856   1.744   2.323   5.967 -0.0434 -1.1068 -2.6874
  160SAPE  H17S17857   1.848   2.192   5.981 -0.2596 -0.7408 -2.1815
  160SAPE  C21817858   1.729   2.248   6.162  0.2059  0.3079  0.0113
  160SAPE  H18R17859   1.721   2.152   6.218 -0.6984  0.8828  0.9017
  160SAPE  H18S17860   1.635   2.305   6.175 -0.6038 -1.1821  1.1101
  160SAPE  C21917861   1.851   2.327   6.199  0.4695  0.4351  0.1639
  160SAPE  H19R17862   1.849   2.411   6.127 -1.5593  1.0121  0.8058
  160SAPE  H19S17863   1.937   2.266   6.164 -0.8184 -1.1519 -0.3357
  160SAPE  C22017864   1.848   2.376   6.341 -0.1473  0.4293  0.2243
  160SAPE  H20R17865   1.881   2.303   6.417  0.9721  2.7741  2.1238
  160SAPE  H20S17866   1.745   2.399   6.378 -0.4635  0.0736 -0.4138
  160SAPE  H20T17867   1.903   2.473   6.348 -0.4286  0.5313  1.1704
  160SAPE   C3317868   1.185   1.112   4.719  0.2608  0.2260 -0.2129
  160SAPE   H3X17869   1.246   1.099   4.811  0.2655 -0.5247 -0.3229
  160SAPE   H3Y17870   1.219   1.043   4.640  0.1841  0.4227 -0.4186
  160SAPE   C3417871   1.038   1.083   4.758 -0.1178 -0.2844 -0.4380
  160SAPE   H4X17872   0.981   1.107   4.666  0.4601  0.4871 -0.6134
  160SAPE   H4Y17873   1.000   1.160   4.828  0.1774 -0.2820 -0.2789
  160SAPE   C3517874   1.013   0.945   4.809 -0.2249  0.1440 -0.4502
  160SAPE   H5X17875   1.046   0.865   4.739  0.2740 -1.1265  1.1706
  160SAPE   H5Y17876   0.902   0.944   4.819 -0.0812  0.0925  1.7448
  160SAPE   C3617877   1.073   0.927   4.951 -0.3732  0.7852  0.4893
  160SAPE   H6X17878   1.152   1.003   4.967  0.0013  0.5830 -0.3682
  160SAPE   H6Y17879   1.098   0.820   4.969 -2.8355  0.3456  1.7672
  160SAPE   C3717880   0.972   0.957   5.056  0.8882  0.2071  1.2821
  160SAPE   H7X17881   0.882   0.895   5.034 -1.1054  3.1701  0.4845
  160SAPE   H7Y17882   0.932   1.060   5.067  0.4227 -0.0897  2.6674
  160SAPE   C3817883   1.018   0.920   5.196 -0.5581 -0.7655 -0.1357
  160SAPE   H8X17884   1.101   0.992   5.212 -0.7980 -0.3110 -0.8876
  160SAPE   H8Y17885   1.060   0.817   5.203  1.5457 -0.0132 -0.8550
  160SAPE   C3917886   0.916   0.946   5.305  0.0509  0.0867 -0.7502
  160SAPE   H9X17887   0.831   0.875   5.292  0.1187 -0.8837  2.9679
  160SAPE   H9Y17888   0.881   1.050   5.285 -3.4298 -0.6858  0.5067
  160SAPE  C31017889   0.948   0.929   5.456 -0.8272 -0.3630  0.6102
  160SAPE  H10X17890   1.057   0.948   5.456 -1.0792  1.7439 -2.5788
  160SAPE  H10Y17891   0.945   0.820   5.477 -1.4584 -0.5612 -0.4145
  160SAPE  C31117892   0.878   1.021   5.548  0.2887 -0.4622 -0.1266
  160SAPE  H11X17893   0.769   0.999   5.543 -0.2199  1.7088  0.3793
  160SAPE  H11Y17894   0.889   1.127   5.515 -0.4967 -0.3828 -0.1420
  160SAPE  C31217895   0.930   0.995   5.688  0.5801  0.2177  0.4415
  160SAPE  H12X17896   1.025   1.050   5.705 -1.0377  2.9833  1.2596
  160SAPE  H12Y17897   0.945   0.886   5.705  0.2167  0.1522  0.3496
  160SAPE  C31317898   0.853   1.067   5.792 -0.3819  0.1272  0.8579
  160SAPE  H13X17899   0.776   0.995   5.828 -0.3965  1.3128  3.4350
  160SAPE  H13Y17900   0.807   1.158   5.748  1.9426  0.1068 -1.8655
  160SAPE  C31417901   0.942   1.116   5.906 -0.8985 -0.3156  0.4732
  160SAPE  H14X17902   0.874   1.167   5.978 -0.5803  1.8144 -0.6526
  160SAPE  H14Y17903   1.018   1.190   5.873 -1.0636  0.2857  1.4028
  160SAPE  C31517904   1.024   1.005   5.976  0.1960  0.3665 -0.7093
  160SAPE  H15X17905   1.109   0.973   5.912  0.0541  1.0641 -1.2631
  160SAPE  H15Y17906   0.968   0.911   5.992  1.8221 -0.8310 -1.7820
  160SAPE  C31617907   1.092   1.044   6.111 -0.4396  0.8736 -0.3408
  160SAPE  H16X17908   1.136   0.953   6.159 -2.0037 -1.0422 -2.3320
  160SAPE  H16Y17909   1.007   1.071   6.177  0.5127 -0.0349  1.3294
  160SAPE  C31717910   1.195   1.152   6.111 -0.4036 -0.5379 -1.0087
  160SAPE  H17X17911   1.225   1.179   6.214  0.2841  0.3201 -1.4215
  160SAPE  H17Y17912   1.140   1.242   6.076 -0.5057  0.1269  0.7918
  160SAPE  C31817913   1.316   1.112   6.027  0.6324 -0.2211 -0.0784
  160SAPE  H18X17914   1.370   1.023   6.069  2.6660  0.7139 -0.5630
  160SAPE  H18Y17915   1.398   1.186   6.042 -0.5080  0.9526  0.6176
  160SAPE  H18Z17916   1.286   1.090   5.923  0.7968  0.6987 -0.3231
  161SAPE     N17917   2.005   3.103   4.214 -0.3682 -0.2980 -0.1821
  161SAPE   HN117918   1.969   3.199   4.228  2.2184  0.5292  1.4365
  161SAPE   HN217919   1.999   3.091   4.111  1.3039 -0.0635 -0.3301
  161SAPE   HN317920   1.950   3.024   4.254 -0.6890 -0.4236 -0.8598
  161SAPE   C1217921   2.149   3.123   4.260  0.0536  0.0180 -0.2460
  161SAPE  H12A17922   2.187   3.195   4.185 -1.6473  0.4466 -0.7346
  161SAPE  H12B17923   2.197   3.023   4.263  1.3561  0.6314  0.0924
  161SAPE   C1117924   2.174   3.181   4.399 -0.4058 -0.5206 -0.1332
  161SAPE  H11A17925   2.282   3.199   4.415 -0.2818  0.5930 -2.0194
  161SAPE  H11B17926   2.142   3.094   4.461 -0.3466 -0.8169 -0.5131
  161SAPE     P17927   2.136   3.444   4.447 -0.0990  0.6370 -0.3905
  161SAPE   O1317928   2.248   3.461   4.352  0.1978  0.4826 -0.0520
  161SAPE   O1417929   2.023   3.536   4.440  0.0818  0.2074  0.4177
  161SAPE   O1217930   2.093   3.296   4.429 -0.2644 -0.2520  0.1287
  161SAPE   O1117931   2.202   3.441   4.589  0.6087 -0.0238  0.1021
  161SAPE    C117932   2.126   3.458   4.710  0.0770 -0.5778  0.2581
  161SAPE    HA17933   2.029   3.404   4.709 -1.2049  1.5835 -1.7864
  161SAPE    HB17934   2.185   3.415   4.794 -0.1984 -0.9245  0.2781
  161SAPE    C217935   2.113   3.603   4.753  0.4388  0.3473  0.8248
  161SAPE    HS17936   2.078   3.666   4.668  1.4639 -0.1734 -0.0026
  161SAPE   O2117937   2.242   3.654   4.800 -0.1022  0.7379 -0.5668
  161SAPE   C2117938   2.246   3.792   4.813 -0.2507  0.6689 -0.9012
  161SAPE   O2217939   2.153   3.863   4.784  0.1470 -0.4609 -0.2602
  161SAPE   C2217940   2.385   3.835   4.854  0.2490 -0.3061  0.1345
  161SAPE   H2R17941   2.411   3.766   4.938  0.9799  0.2337  0.3555
  161SAPE   H2S17942   2.464   3.819   4.778 -0.9411  0.1881 -1.2451
  161SAPE    C317943   2.000   3.609   4.859  0.9936  0.5362 -0.4480
  161SAPE    HX17944   1.917   3.545   4.820  1.5512 -1.3206  1.1916
  161SAPE    HY17945   1.965   3.714   4.868  1.5224  0.7676 -1.0399
  161SAPE   O3117946   2.030   3.549   4.988  0.6004  0.5134 -0.2692
  161SAPE   C3117947   2.059   3.633   5.091  0.0689  0.0272 -0.2525
  161SAPE   O3217948   2.067   3.750   5.086 -0.0135 -0.5913  0.0118
  161SAPE   C3217949   2.045   3.554   5.219 -0.2214 -0.2004 -1.7585
  161SAPE   H2X17950   2.073   3.448   5.198 -1.9783 -0.8389 -1.0862
  161SAPE   H2Y17951   1.938   3.566   5.246  0.0144  0.2819 -0.9975
  161SAPE   C2317952   2.373   3.976   4.926  0.2444 -0.2605  0.4159
  161SAPE   H3R17953   2.298   3.983   5.008 -1.9591  0.0081 -1.5321
  161SAPE   H3S17954   2.333   4.051   4.855  1.0589  2.1441  2.3385
  161SAPE   C2417955   2.508   4.039   4.962  0.6202 -0.3726  0.3280
  161SAPE   H4R17956   2.493   4.144   4.993  0.1905 -0.4077  0.2454
  161SAPE   H4S17957   2.565   4.047   4.867  0.8314  2.3821  0.6107
  161SAPE   C2517958   2.585   3.960   5.067  0.4059 -0.6555  0.2104
  161SAPE   H5R17959   2.642   3.875   5.029  1.0890  1.3327 -3.7271
  161SAPE   C2617960   2.562   3.967   5.203  0.1408 -0.1640  0.0681
  161SAPE   H6R17961   2.636   3.912   5.264 -0.2229 -0.1530  0.5257
  161SAPE   C2717962   2.468   4.056   5.277  0.7016  0.9248 -0.1413
  161SAPE   H7R17963   2.369   4.008   5.289  1.3874 -0.3610  0.6357
  161SAPE   H7S17964   2.452   4.153   5.227 -3.6300 -0.0290 -0.9772
  161SAPE   C2817965   2.490   4.104   5.420 -0.0376 -0.0611  0.0441
  161SAPE   H8R17966   2.518   4.210   5.419 -1.7085  0.4171  0.6399
  161SAPE   C2917967   2.508   4.032   5.529 -0.1594 -0.4649 -0.7692
  161SAPE   H9R17968   2.525   4.096   5.617 -0.7889 -0.1500 -0.8733
  161SAPE  C21017969   2.492   3.884   5.550 -0.0875  0.5051 -0.6636
  161SAPE  H10R17970   2.569   3.833   5.613  0.2275 -0.0914 -1.5211
  161SAPE  H10S17971   2.501   3.831   5.453  0.8563  0.4307 -0.5470
  161SAPE  C21117972   2.352   3.859   5.611  0.2514  0.4069  0.1709
  161SAPE  H11R17973   2.270   3.894   5.547 -0.2990 -3.1431 -1.2567
  161SAPE  C21217974   2.315   3.807   5.727  0.2282  0.2084  1.0132
  161SAPE  H12R17975   2.207   3.796   5.745  0.0215  0.6117  0.0719
  161SAPE  C21317976   2.402   3.753   5.840 -0.0144  0.4877 -0.6831
  161SAPE  H13R17977   2.391   3.828   5.921  0.4704  0.2581 -0.3988
  161SAPE  H13S17978   2.511   3.744   5.824  0.1297  0.5682  0.1788
  161SAPE  C21417979   2.365   3.616   5.886  0.2017 -0.0624 -0.1454
  161SAPE  H14R17980   2.438   3.537   5.866  1.9565  1.1754  1.0782
  161SAPE  C21517981   2.254   3.574   5.939  0.1118 -0.4460 -0.3101
  161SAPE  H15R17982   2.246   3.467   5.963  1.2311 -0.7565 -1.2220
  161SAPE  C21617983   2.134   3.653   5.984  0.0279  0.2656 -1.2251
  161SAPE  H16R17984   2.058   3.659   5.904 -0.3464  1.0212 -0.8231
  161SAPE  H16S17985   2.170   3.758   5.991 -1.8321  0.9191 -0.9670
  161SAPE  C21717986   2.061   3.616   6.114 -0.3553  0.6033  0.3664
  161SAPE  H17R17987   2.044   3.507   6.114 -0.2614  0.5881  0.3331
  161SAPE  H17S17988   1.961   3.662   6.130 -0.6158  0.3520 -0.4600
  161SAPE  C21817989   2.143   3.659   6.238 -0.2354  0.1679  0.2677
  161SAPE  H18R17990   2.250   3.628   6.229 -0.7251 -1.0254 -2.0774
  161SAPE  H18S17991   2.103   3.598   6.322 -1.0790  0.7486  0.3013
  161SAPE  C21917992   2.111   3.807   6.273  0.3812  0.1747 -0.6625
  161SAPE  H19R17993   2.005   3.830   6.249  0.0034  0.5606  1.2276
  161SAPE  H19S17994   2.179   3.872   6.214  0.0797  0.3248 -0.8474
  161SAPE  C22017995   2.125   3.836   6.428  0.3484  0.3249  0.7558
  161SAPE  H20R17996   2.224   3.823   6.476  1.2506  0.1215 -1.0812
  161SAPE  H20S17997   2.042   3.780   6.477 -2.4900  0.2145 -3.5614
  161SAPE  H20T17998   2.102   3.944   6.440 -1.3535  0.3510 -1.9182
  161SAPE   C3317999   2.131   3.605   5.346 -0.2695  0.1132 -0.0955
  161SAPE   H3X18000   2.114   3.714   5.365  1.9057  0.1237  2.5060
  161SAPE   H3Y18001   2.238   3.588   5.321 -0.6534 -0.6289 -1.2906
  161SAPE   C3418002   2.106   3.535   5.477 -0.3637  0.0460 -0.1238
  161SAPE   H4X18003   1.999   3.556   5.498 -0.2512  1.7300 -1.0362
  161SAPE   H4Y18004   2.171   3.584   5.553 -0.2892  0.7477 -0.6320
  161SAPE   C3518005   2.131   3.380   5.467 -0.3088 -0.2245 -0.5032
  161SAPE   H5X18006   2.227   3.367   5.413  0.3843 -1.8211  1.0129
  161SAPE   H5Y18007   2.051   3.336   5.404  0.2069 -1.0165 -0.6229
  161SAPE   C3618008   2.145   3.312   5.608 -0.2241  0.0636  0.4224
  161SAPE   H6X18009   2.059   3.350   5.668 -0.2584 -0.2298  0.5624
  161SAPE   H6Y18010   2.243   3.339   5.651 -0.0006 -0.5724  0.3301
  161SAPE   C3718011   2.138   3.156   5.599 -0.0954 -1.2605 -0.5244
  161SAPE   H7X18012   2.215   3.130   5.523 -0.2139 -0.2596 -1.0110
  161SAPE   H7Y18013   2.038   3.118   5.571 -0.1252 -0.5532 -1.4538
  161SAPE   C3818014   2.180   3.074   5.723 -0.7584  0.2699 -0.2156
  161SAPE   H8X18015   2.175   2.964   5.706  1.9871  0.1328 -0.4456
  161SAPE   H8Y18016   2.111   3.096   5.808  1.2610 -0.1568  1.6273
  161SAPE   C3918017   2.321   3.111   5.791  0.1606  0.0905 -0.1354
  161SAPE   H9X18018   2.315   3.214   5.831  0.0532  1.2336 -2.8552
  161SAPE   H9Y18019   2.392   3.126   5.707 -1.3263  1.7760 -1.1663
  161SAPE  C31018020   2.365   3.013   5.900  0.2538 -0.5500  0.0385
  161SAPE  H10X18021   2.380   2.911   5.858 -0.0671 -0.8195  0.5741
  161SAPE  H10Y18022   2.279   3.003   5.969 -0.4718  0.0928 -0.7319
  161SAPE  C31118023   2.491   3.064   5.979  0.4023  0.9257 -0.0188
  161SAPE  H11X18024   2.583   3.054   5.918  0.6719 -0.4612  0.5828
  161SAPE  H11Y18025   2.509   2.993   6.062 -1.2159  0.5922  0.0652
  161SAPE  C31218026   2.479   3.212   6.033  0.0981  0.1281  0.2713
  161SAPE  H12X18027   2.382   3.236   6.081  0.5146  1.7221  0.3840
  161SAPE  H12Y18028   2.487   3.280   5.945  1.2115 -0.0825  0.1889
  161SAPE  C31318029   2.581   3.246   6.139  0.3872 -0.3745  0.2638
  161SAPE  H13X18030   2.682   3.225   6.098 -0.9379 -1.7189 -2.5466
  161SAPE  H13Y18031   2.561   3.189   6.233  0.6762  0.3309  0.7679
  161SAPE  C31418032   2.582   3.390   6.177 -0.6130 -0.3318 -0.9709
  161SAPE  H14X18033   2.477   3.426   6.177 -0.3318  0.5370 -1.9437
  161SAPE  H14Y18034   2.627   3.445   6.092  1.3099 -3.2169 -1.9539
  161SAPE  C31518035   2.651   3.428   6.311 -0.3686  0.5041 -0.5354
  161SAPE  H15X18036   2.604   3.369   6.393  0.3624 -0.7383 -0.9807
  161SAPE  H15Y18037   2.630   3.535   6.334 -0.9067  0.3439 -0.2472
  161SAPE  C31618038   2.808   3.415   6.301 -0.3772 -0.3494 -0.1110
  161SAPE  H16X18039   2.849   3.496   6.236  2.4322 -0.1381  1.7476
  161SAPE  H16Y18040   2.827   3.314   6.259 -1.0503 -0.1092 -1.0422
  161SAPE  C31718041   2.886   3.428   6.435  0.5772  0.1037  0.7201
  161SAPE  H17X18042   2.846   3.353   6.506 -0.6841 -0.4687 -0.5436
  161SAPE  H17Y18043   2.873   3.526   6.487 -2.1512 -0.8783  2.0967
  161SAPE  C31818044   3.034   3.407   6.432 -0.4752  0.3317  0.6903
  161SAPE  H18X18045   3.061   3.305   6.396  1.0297  0.7733  0.5151
  161SAPE  H18Y18046   3.084   3.417   6.531 -0.3630  2.9751  0.4214
  161SAPE  H18Z18047   3.083   3.481   6.366  1.6432  0.6160  2.4638
  162SAPE     N18048   5.567   2.993   4.278  0.0196  0.5606  0.1879
  162SAPE   HN118049   5.490   3.027   4.217  0.4244 -0.4606 -0.9317
  162SAPE   HN218050   5.560   2.981   4.381  3.4545 -0.8500  0.3979
  162SAPE   HN318051   5.637   3.065   4.253  1.1463  0.0617  1.7584
  162SAPE   C1218052   5.599   2.853   4.216  0.1549  0.1958 -0.3904
  162SAPE  H12A18053   5.614   2.878   4.109  0.7909 -1.7389 -0.7988
  162SAPE  H12B18054   5.516   2.780   4.231  0.4982  0.3087  2.6733
  162SAPE   C1118055   5.734   2.801   4.267  0.2222  0.5602  0.7947
  162SAPE  H11A18056   5.757   2.702   4.220 -0.2830 -0.0516  1.7957
  162SAPE  H11B18057   5.728   2.789   4.378 -1.7796 -3.5011  0.4614
  162SAPE     P18058   5.974   2.885   4.322  0.3815 -0.0224  0.1572
  162SAPE   O1318059   6.035   2.750   4.311 -0.1379 -0.1130 -0.3751
  162SAPE   O1418060   6.046   2.999   4.275 -0.3671  0.7894  0.0322
  162SAPE   O1218061   5.841   2.888   4.232  0.1334 -0.7461  0.2291
  162SAPE   O1118062   5.923   2.913   4.468 -0.2469 -0.1003 -0.3186
  162SAPE    C118063   5.836   3.016   4.509  0.1670 -0.0636 -0.2239
  162SAPE    HA18064   5.803   3.081   4.425 -2.5707  0.4106  1.0843
  162SAPE    HB18065   5.752   2.978   4.570  0.5710  0.7573  0.8852
  162SAPE    C218066   5.908   3.111   4.607 -0.3370 -0.1151  0.0750
  162SAPE    HS18067   5.987   3.157   4.544  0.0744  3.0270  2.6318
  162SAPE   O2118068   5.955   3.032   4.724  0.4935 -0.1287  0.3788
  162SAPE   C2118069   6.047   3.098   4.795  0.7475 -0.1031  0.5778
  162SAPE   O2218070   6.094   3.209   4.772  0.1868 -0.1274 -0.0214
  162SAPE   C2218071   6.082   3.015   4.922 -0.2921 -0.4076 -0.4440
  162SAPE   H2R18072   5.984   2.990   4.967 -1.6625  1.1084 -2.4238
  162SAPE   H2S18073   6.145   2.926   4.898 -0.1605 -0.4430  0.0220
  162SAPE    C318074   5.801   3.221   4.640 -0.9424 -0.1774 -0.0966
  162SAPE    HX18075   5.777   3.269   4.543  0.9046 -0.3025 -0.6553
  162SAPE    HY18076   5.865   3.291   4.698 -2.4066  0.8847  0.2780
  162SAPE   O3118077   5.677   3.165   4.697 -0.2744 -0.6748  0.1374
  162SAPE   C3118078   5.621   3.262   4.770 -0.2084  0.6308 -0.5861
  162SAPE   O3218079   5.644   3.381   4.768  0.8065 -0.1113 -0.6466
  162SAPE   C3218080   5.524   3.197   4.873  0.0573  0.0640 -0.6833
  162SAPE   H2X18081   5.488   3.104   4.823 -1.6014  1.0551 -1.3937
  162SAPE   H2Y18082   5.430   3.253   4.890  0.4862  0.7998 -0.6928
  162SAPE   C2318083   6.154   3.094   5.035 -0.3319 -0.1752 -0.1391
  162SAPE   H3R18084   6.084   3.173   5.068 -2.3394 -1.7552 -0.4132
  162SAPE   H3S18085   6.248   3.148   5.009 -1.1593  1.5294  0.2929
  162SAPE   C2418086   6.170   2.992   5.153 -0.3709  0.6545 -0.5373
  162SAPE   H4R18087   6.244   2.921   5.110 -1.3081 -1.7936  1.6603
  162SAPE   H4S18088   6.079   2.932   5.175  1.5484 -2.0577  0.5040
  162SAPE   C2518089   6.211   3.064   5.279 -0.0297  0.2324  0.6235
  162SAPE   H5R18090   6.318   3.087   5.278  0.5959 -2.3064  1.3916
  162SAPE   C2618091   6.135   3.098   5.385  0.1774 -0.2768  0.6828
  162SAPE   H6R18092   6.185   3.142   5.473  1.1460 -0.1548  0.0926
  162SAPE   C2718093   5.986   3.065   5.413  0.0202 -0.1367  0.1734
  162SAPE   H7R18094   5.936   3.007   5.332 -1.3085  1.7807 -0.4510
  162SAPE   H7S18095   5.937   3.165   5.409 -0.5077 -0.4296 -2.0161
  162SAPE   C2818096   5.945   2.997   5.540  0.1624  0.1293 -0.1916
  162SAPE   H8R18097   5.909   2.894   5.524 -0.0639  0.5414 -2.8798
  162SAPE   C2918098   5.953   3.052   5.662 -0.1332 -0.3528  0.7432
  162SAPE   H9R18099   5.897   2.995   5.737 -0.3552  1.4517  2.0249
  162SAPE  C21018100   5.992   3.188   5.696  0.0920 -0.5333 -0.4453
  162SAPE  H10R18101   5.906   3.232   5.750  1.9556  0.1856  2.1749
  162SAPE  H10S18102   6.008   3.246   5.602 -1.6485 -0.4032 -0.6800
  162SAPE  C21118103   6.116   3.201   5.786  0.9665 -0.7856  0.6442
  162SAPE  H11R18104   6.207   3.202   5.725 -0.9328 -1.7926 -2.4791
  162SAPE  C21218105   6.113   3.207   5.919 -0.2620  0.6292 -0.6004
  162SAPE  H12R18106   6.210   3.216   5.970 -0.7723  1.2177  0.2975
  162SAPE  C21318107   5.997   3.188   6.017 -0.5230 -0.3125  0.8162
  162SAPE  H13R18108   5.903   3.223   5.969 -0.0120 -0.4189 -0.3002
  162SAPE  H13S18109   6.029   3.259   6.096  0.9599 -0.4323  0.3600
  162SAPE  C21418110   5.979   3.045   6.051  0.3851 -0.0372 -0.1213
  162SAPE  H14R18111   5.954   2.976   5.969  2.1593 -0.2112 -0.5552
  162SAPE  C21518112   5.973   3.004   6.179 -0.4946  0.8015  0.2002
  162SAPE  H15R18113   5.959   2.895   6.186  0.7812  0.2936 -3.2665
  162SAPE  C21618114   6.000   3.095   6.293  0.3133 -0.8949  0.1222
  162SAPE  H16R18115   6.069   3.179   6.267  0.9550 -1.8400 -1.3536
  162SAPE  H16S18116   6.045   3.034   6.374  0.3924 -3.0155 -1.4341
  162SAPE  C21718117   5.873   3.150   6.367 -0.5446 -0.1792 -0.3672
  162SAPE  H17R18118   5.799   3.069   6.384  1.5905 -2.5533 -1.6137
  162SAPE  H17S18119   5.817   3.226   6.309 -0.1805 -0.2097 -0.7680
  162SAPE  C21818120   5.918   3.201   6.504  0.1399 -0.3746 -0.2544
  162SAPE  H18R18121   5.979   3.290   6.477 -1.6265  1.9555  2.7998
  162SAPE  H18S18122   5.971   3.126   6.567 -1.4602 -2.1897 -0.9592
  162SAPE  C21918123   5.805   3.266   6.591 -0.1204  0.7678 -0.7566
  162SAPE  H19R18124   5.754   3.174   6.628  1.2851 -0.1848 -1.1223
  162SAPE  H19S18125   5.734   3.327   6.531 -1.4525  1.3117  1.2856
  162SAPE  C22018126   5.852   3.343   6.716  0.4386  0.0972  0.4134
  162SAPE  H20R18127   5.768   3.376   6.781 -1.1461 -1.2014 -0.8786
  162SAPE  H20S18128   5.907   3.433   6.681 -0.1263  0.3058  0.0431
  162SAPE  H20T18129   5.917   3.283   6.783  0.7259  2.5837  2.5548
  162SAPE   C3318130   5.585   3.153   5.007  0.8126 -0.1156 -0.3219
  162SAPE   H3X18131   5.673   3.085   5.002 -0.1387 -1.4070 -0.0946
  162SAPE   H3Y18132   5.501   3.091   5.045 -0.6935  1.3750 -1.1006
  162SAPE   C3418133   5.600   3.278   5.100 -0.2256  0.3683 -0.0608
  162SAPE   H4X18134   5.505   3.336   5.099 -0.1969  0.4939 -3.0033
  162SAPE   H4Y18135   5.681   3.337   5.050 -0.4687  1.4365  0.7652
  162SAPE   C3518136   5.639   3.243   5.245 -0.1726 -0.3643 -0.4951
  162SAPE   H5X18137   5.659   3.335   5.303  0.4710  0.1855 -1.5583
  162SAPE   H5Y18138   5.735   3.188   5.233  1.3311  1.0798  3.4725
  162SAPE   C3618139   5.530   3.162   5.307 -0.1219 -0.0026  0.1600
  162SAPE   H6X18140   5.539   3.056   5.272  0.8655  0.3593 -0.7351
  162SAPE   H6Y18141   5.426   3.197   5.293 -0.1171  1.0814  2.4332
  162SAPE   C3718142   5.550   3.157   5.456  0.4904  0.0068  0.1403
  162SAPE   H7X18143   5.535   3.263   5.486 -0.4471  0.7705 -2.7299
  162SAPE   H7Y18144   5.652   3.123   5.484  0.3981  0.4205  0.9998
  162SAPE   C3818145   5.455   3.049   5.518  0.1079 -0.5107 -0.2135
  162SAPE   H8X18146   5.494   2.952   5.480 -0.0025 -0.0971 -1.4251
  162SAPE   H8Y18147   5.353   3.058   5.476  0.7635 -0.6088 -1.9268
  162SAPE   C3918148   5.454   3.053   5.671  0.2166 -0.4061  0.0409
  162SAPE   H9X18149   5.359   3.011   5.709  0.7353  0.8329  3.0279
  162SAPE   H9Y18150   5.455   3.160   5.704 -2.7784 -0.3335  0.1605
  162SAPE  C31018151   5.564   2.974   5.751  0.0687 -0.0843  0.2671
  162SAPE  H10X18152   5.661   3.027   5.745  0.5434 -0.9878 -0.2552
  162SAPE  H10Y18153   5.583   2.885   5.688  0.3126  1.5303 -2.1105
  162SAPE  C31118154   5.526   2.956   5.895 -0.4913  0.4128  0.7039
  162SAPE  H11X18155   5.422   2.920   5.908  0.5263 -2.8805  0.6304
  162SAPE  H11Y18156   5.526   3.058   5.939  0.3564  1.2797 -1.2177
  162SAPE  C31218157   5.631   2.871   5.979  0.3301  0.2977 -0.4167
  162SAPE  H12X18158   5.735   2.910   5.974  0.0788  0.9305 -0.9099
  162SAPE  H12Y18159   5.630   2.769   5.935 -1.3692 -1.0423  2.4341
  162SAPE  C31318160   5.579   2.841   6.120 -0.0298 -0.5125 -0.5324
  162SAPE  H13X18161   5.680   2.803   6.147  0.8275  1.4229 -0.8246
  162SAPE  H13Y18162   5.512   2.753   6.119  0.5751 -0.9858 -0.3764
  162SAPE  C31418163   5.533   2.966   6.206  0.2253  0.4651 -0.1024
  162SAPE  H14X18164   5.433   3.005   6.176  0.0598 -0.1904 -0.4218
  162SAPE  H14Y18165   5.607   3.048   6.196  1.5355 -0.5813  0.6114
  162SAPE  C31518166   5.528   2.933   6.362 -0.2689  0.0985  0.3430
  162SAPE  H15X18167   5.627   2.900   6.399 -0.2128  0.5626  0.6282
  162SAPE  H15Y18168   5.451   2.854   6.377  1.2610 -1.3815  0.6277
  162SAPE  C31618169   5.491   3.056   6.441  0.5480 -0.5982  0.0812
  162SAPE  H16X18170   5.396   3.096   6.401  0.4203 -0.7822  0.1953
  162SAPE  H16Y18171   5.566   3.138   6.430  1.6594 -1.6293 -0.3188
  162SAPE  C31718172   5.478   3.038   6.590  0.0759  0.1999  0.0545
  162SAPE  H17X18173   5.429   3.134   6.620  0.5001  0.1205  1.0518
  162SAPE  H17Y18174   5.577   3.021   6.638 -0.4611 -1.1955  0.7280
  162SAPE  C31818175   5.392   2.920   6.632  0.0093  0.1358 -0.3743
  162SAPE  H18X18176   5.293   2.927   6.581  0.1338  1.8849 -0.4569
  162SAPE  H18Y18177   5.376   2.925   6.742 -2.9549 -1.1398 -0.6326
  162SAPE  H18Z18178   5.432   2.824   6.592 -0.7445  1.0490 -3.6271
  163SAPE     N18179   6.756   5.225   4.792 -0.2140  0.2265  0.2648
  163SAPE   HN118180   6.686   5.216   4.715 -0.8136 -0.2341  0.8531
  163SAPE   HN218181   6.796   5.134   4.820  0.0162  0.5533  1.0223
  163SAPE   HN318182   6.704   5.271   4.869 -1.7939 -0.1975 -0.4954
  163SAPE   C1218183   6.877   5.308   4.764  0.3149 -0.2556 -0.4147
  163SAPE  H12A18184   6.926   5.326   4.862 -1.1859 -3.9561  1.2252
  163SAPE  H12B18185   6.848   5.406   4.720 -0.0146 -0.0261  0.2931
  163SAPE   C1118186   6.965   5.233   4.661  0.0176  0.5020  0.0165
  163SAPE  H11A18187   7.042   5.302   4.620 -1.3841  1.8769 -0.4144
  163SAPE  H11B18188   6.902   5.208   4.573  0.3942 -0.0311 -0.1024
  163SAPE     P18189   7.167   5.104   4.778 -0.2007 -0.1325 -0.5444
  163SAPE   O1318190   7.189   4.965   4.824 -0.3775  0.2542  0.5297
  163SAPE   O1418191   7.260   5.164   4.687 -0.1389 -0.3711  0.0322
  163SAPE   O1218192   7.014   5.111   4.720 -0.1817  1.0204  0.1554
  163SAPE   O1118193   7.158   5.192   4.909  0.1715  0.3930  0.2093
  163SAPE    C118194   7.256   5.204   5.011  0.3910 -0.1868 -0.2005
  163SAPE    HA18195   7.246   5.138   5.100  0.6236 -0.5656 -0.4530
  163SAPE    HB18196   7.355   5.169   4.976  0.8613 -0.7901  1.6034
  163SAPE    C218197   7.255   5.349   5.076  0.1911  0.1203  0.0918
  163SAPE    HS18198   7.348   5.370   5.134  1.3074 -1.6591 -0.9415
  163SAPE   O2118199   7.146   5.374   5.155  0.5924 -0.4232  0.0955
  163SAPE   C2118200   7.143   5.308   5.272  0.0403 -0.1091  0.8966
  163SAPE   O2218201   7.229   5.232   5.309 -0.3450 -0.1839  0.1011
  163SAPE   C2218202   7.028   5.341   5.367  0.8301 -0.2279 -0.5562
  163SAPE   H2R18203   6.983   5.433   5.323  1.5613  0.8612  0.8777
  163SAPE   H2S18204   6.957   5.257   5.372 -1.5728  1.6288 -1.5707
  163SAPE    C318205   7.263   5.447   4.955  0.3434  0.1246 -0.5511
  163SAPE    HX18206   7.167   5.446   4.900  0.3998  0.5050 -0.6579
  163SAPE    HY18207   7.338   5.397   4.890 -0.5644 -1.5074 -0.4072
  163SAPE   O3118208   7.303   5.579   4.998 -0.0602 -0.2235 -0.5719
  163SAPE   C3118209   7.200   5.656   5.038  0.5570 -0.0661 -0.0549
  163SAPE   O3218210   7.080   5.633   5.039  0.0271  0.1968 -0.2527
  163SAPE   C3218211   7.249   5.798   5.084  0.2657  0.0969 -1.1131
  163SAPE   H2X18212   7.221   5.861   4.997 -0.2551 -1.2999 -1.9949
  163SAPE   H2Y18213   7.359   5.784   5.093  0.1402 -0.3972 -0.1972
  163SAPE   C2318214   7.076   5.377   5.508 -0.2806  0.0403  0.5374
  163SAPE   H3R18215   7.154   5.456   5.500 -0.1157 -0.1997 -0.4224
  163SAPE   H3S18216   7.123   5.290   5.558  0.2385 -1.3247 -2.0891
  163SAPE   C2418217   6.971   5.438   5.598  0.6611  0.2607  0.4150
  163SAPE   H4R18218   6.931   5.515   5.529  0.7063  0.3692  0.5095
  163SAPE   H4S18219   7.016   5.498   5.680 -1.2850  0.5108  1.3453
  163SAPE   C2518220   6.867   5.339   5.640  0.3733 -0.3318 -0.1574
  163SAPE   H5R18221   6.792   5.317   5.563  1.8046 -0.2095 -1.6619
  163SAPE   C2618222   6.867   5.272   5.754 -0.6094 -0.1819 -0.2028
  163SAPE   H6R18223   6.784   5.204   5.783 -1.4752  1.1399  0.5543
  163SAPE   C2718224   6.968   5.302   5.859 -0.2718 -0.2939 -0.4935
  163SAPE   H7R18225   7.056   5.352   5.814  1.1164 -0.5507  1.7656
  163SAPE   H7S18226   6.999   5.198   5.882  1.3292 -0.5060 -3.2473
  163SAPE   C2818227   6.920   5.390   5.974 -0.6677  0.3207  0.6859
  163SAPE   H8R18228   6.924   5.493   5.938  0.5367  0.6423  1.6834
  163SAPE   C2918229   6.912   5.349   6.108 -0.4819 -0.0820  0.1016
  163SAPE   H9R18230   6.868   5.422   6.177 -2.0033 -1.4836  0.6737
  163SAPE  C21018231   6.944   5.215   6.159 -0.6313 -0.5381 -0.3211
  163SAPE  H10R18232   7.055   5.207   6.156 -0.7778 -3.0722 -1.3640
  163SAPE  H10S18233   6.909   5.140   6.085  0.7276 -0.8668 -0.6653
  163SAPE  C21118234   6.886   5.186   6.294 -0.4128 -0.2440 -0.0956
  163SAPE  H11R18235   6.796   5.124   6.302 -0.5449 -0.2218 -1.2952
  163SAPE  C21218236   6.928   5.252   6.404  0.3009  0.5428  0.0553
  163SAPE  H12R18237   6.873   5.231   6.497 -3.5988  1.3141 -1.8365
  163SAPE  C21318238   7.029   5.361   6.423  0.1376  0.1141 -0.1686
  163SAPE  H13R18239   7.090   5.394   6.336  0.6134  1.9021  0.7943
  163SAPE  H13S18240   7.102   5.328   6.499 -0.1660 -3.4087 -1.2383
  163SAPE  C21418241   6.966   5.486   6.478  0.0292  0.0812 -0.0474
  163SAPE  H14R18242   6.932   5.553   6.397 -1.3369 -0.7520 -0.2046
  163SAPE  C21518243   6.937   5.508   6.606 -0.0351 -0.1821 -1.0175
  163SAPE  H15R18244   6.909   5.608   6.644 -0.3592 -1.3432  2.1436
  163SAPE  C21618245   6.988   5.422   6.724 -0.2061  0.2971  0.0704
  163SAPE  H16R18246   7.028   5.322   6.698  3.7524  1.1304  2.1401
  163SAPE  H16S18247   6.904   5.408   6.795  1.2769  0.6877  1.9818
  163SAPE  C21718248   7.092   5.509   6.795 -0.6994 -0.1598 -0.1467
  163SAPE  H17R18249   7.059   5.609   6.829  1.2180  0.6709 -0.5844
  163SAPE  H17S18250   7.180   5.525   6.728  1.2970 -2.0162  1.8507
  163SAPE  C21818251   7.149   5.418   6.906 -0.3966 -0.4553 -0.2039
  163SAPE  H18R18252   7.224   5.354   6.857 -2.3435 -2.5775 -0.5816
  163SAPE  H18S18253   7.065   5.354   6.939 -1.1417  0.5307 -0.1305
  163SAPE  C21918254   7.218   5.503   7.015  0.4676 -0.0790 -0.2885
  163SAPE  H19R18255   7.251   5.434   7.095 -2.0567  0.8551  1.7213
  163SAPE  H19S18256   7.145   5.572   7.064 -1.0925  0.2599 -2.9312
  163SAPE  C22018257   7.333   5.587   6.968  0.0099  0.4968  0.1902
  163SAPE  H20R18258   7.324   5.620   6.862  0.3076  2.5949  0.7619
  163SAPE  H20S18259   7.429   5.535   6.990  0.5806  0.2135 -2.6023
  163SAPE  H20T18260   7.327   5.680   7.029 -2.2114  0.0647  0.7226
  163SAPE   C3318261   7.175   5.849   5.215  0.3258  0.4747  0.3169
  163SAPE   H3X18262   7.067   5.822   5.209  0.8861 -2.3100  1.3620
  163SAPE   H3Y18263   7.174   5.960   5.211  3.8902  0.6216  0.5299
  163SAPE   C3418264   7.216   5.776   5.345  0.1805  0.1770 -0.5676
  163SAPE   H4X18265   7.326   5.763   5.349  0.0026 -1.2575  2.0760
  163SAPE   H4Y18266   7.179   5.671   5.344  3.9860 -1.3524  0.7726
  163SAPE   C3518267   7.163   5.844   5.477  0.6467  0.2391  0.5532
  163SAPE   H5X18268   7.055   5.855   5.454  0.7598 -2.7114 -1.9449
  163SAPE   H5Y18269   7.212   5.943   5.481  0.4229  0.3582  0.3735
  163SAPE   C3618270   7.179   5.763   5.599 -0.3027 -0.0134  0.7168
  163SAPE   H6X18271   7.127   5.666   5.585 -0.0364 -0.2751  1.4575
  163SAPE   H6Y18272   7.115   5.805   5.679 -0.4903 -2.0996  1.7363
  163SAPE   C3718273   7.322   5.741   5.650 -0.2243  0.1509 -0.0718
  163SAPE   H7X18274   7.365   5.843   5.658  0.1570  0.0976 -1.2610
  163SAPE   H7Y18275   7.378   5.680   5.576  1.0172 -0.1479  1.0746
  163SAPE   C3818276   7.326   5.654   5.774  0.8669 -0.0735  0.1260
  163SAPE   H8X18277   7.429   5.613   5.773  1.1126  0.2428  2.8892
  163SAPE   H8Y18278   7.265   5.563   5.756  0.9229 -0.0221 -0.3271
  163SAPE   C3918279   7.278   5.719   5.908  0.0995 -0.9457 -0.0263
  163SAPE   H9X18280   7.169   5.737   5.898  0.4256  0.4412 -1.5188
  163SAPE   H9Y18281   7.332   5.815   5.924  0.9499 -1.7790  2.6325
  163SAPE  C31018282   7.308   5.640   6.033  0.1058 -0.0332  0.2402
  163SAPE  H10X18283   7.407   5.591   6.022 -0.1862 -0.4763 -0.5004
  163SAPE  H10Y18284   7.240   5.554   6.023  1.7958 -1.4988  0.8816
  163SAPE  C31118285   7.274   5.717   6.158 -0.5271 -0.0154  0.1304
  163SAPE  H11X18286   7.183   5.780   6.147 -0.9446 -0.5606  0.3920
  163SAPE  H11Y18287   7.352   5.788   6.190 -0.9797  0.4802  0.1443
  163SAPE  C31218288   7.260   5.623   6.281 -0.0716 -0.3209 -0.4385
  163SAPE  H12X18289   7.334   5.542   6.261  1.1047 -0.0078  2.2516
  163SAPE  H12Y18290   7.159   5.577   6.278 -0.0011 -0.4670 -0.6578
  163SAPE  C31318291   7.286   5.692   6.411 -0.3900 -0.6039 -0.2313
  163SAPE  H13X18292   7.384   5.744   6.413 -0.1506 -1.0603 -0.1780
  163SAPE  H13Y18293   7.288   5.605   6.480  1.7139 -0.4882 -0.0772
  163SAPE  C31418294   7.190   5.801   6.450  0.3690 -0.2610 -0.3977
  163SAPE  H14X18295   7.091   5.752   6.439  0.1593  0.2729 -0.9492
  163SAPE  H14Y18296   7.197   5.884   6.377 -0.5055 -0.1872 -0.4082
  163SAPE  C31518297   7.197   5.850   6.594 -0.3024  0.0171  0.1222
  163SAPE  H15X18298   7.193   5.768   6.668 -0.9783  0.5668  0.7055
  163SAPE  H15Y18299   7.116   5.919   6.625  1.2481  0.9089  2.4566
  163SAPE  C31618300   7.326   5.942   6.613  0.8820 -0.0333 -0.6917
  163SAPE  H16X18301   7.331   6.028   6.542 -1.1103  0.4756 -0.2791
  163SAPE  H16Y18302   7.404   5.872   6.579 -1.2411 -1.7576 -2.2990
  163SAPE  C31718303   7.341   5.988   6.761  0.0152  0.3330 -0.2888
  163SAPE  H17X18304   7.281   5.935   6.838  1.8324  0.4197  1.2445
  163SAPE  H17Y18305   7.312   6.094   6.778 -0.1827  0.8442 -3.3154
  163SAPE  C31818306   7.474   5.971   6.823 -0.9414  0.2563  0.7148
  163SAPE  H18X18307   7.475   5.974   6.934  2.3977 -2.3287  0.9075
  163SAPE  H18Y18308   7.552   6.043   6.787 -0.2860 -1.6021 -1.8618
  163SAPE  H18Z18309   7.495   5.865   6.800  0.7343  1.1107 -2.3377
  164SAPE     N18310   4.663   5.386   5.029 -0.8419 -0.8026  0.4600
  164SAPE   HN118311   4.655   5.477   5.077 -0.8124 -0.5341 -0.0400
  164SAPE   HN218312   4.614   5.387   4.937  0.6793 -1.3324 -0.3956
  164SAPE   HN318313   4.622   5.309   5.087 -2.1036  0.2130  0.9576
  164SAPE   C1218314   4.808   5.363   4.991  0.7642  0.1660 -0.7608
  164SAPE  H12A18315   4.872   5.376   5.081 -0.0815 -0.2461 -0.0864
  164SAPE  H12B18316   4.827   5.446   4.920  0.1469 -0.0473 -1.1864
  164SAPE   C1118317   4.832   5.226   4.929 -0.6609  0.0443  0.2039
  164SAPE  H11A18318   4.814   5.146   5.004 -0.1677  1.2500  1.6635
  164SAPE  H11B18319   4.938   5.223   4.897 -1.1117  0.0186 -1.3772
  164SAPE     P18320   4.777   5.092   4.716  0.1218 -0.1486  0.1376
  164SAPE   O1318321   4.678   5.104   4.608  0.4928 -0.1565  0.3076
  164SAPE   O1418322   4.917   5.094   4.681 -0.1826 -0.4362 -0.4829
  164SAPE   O1218323   4.745   5.213   4.824  0.0546 -0.1939 -0.3010
  164SAPE   O1118324   4.740   4.960   4.801  0.1729  0.2224  0.6966
  164SAPE    C118325   4.843   4.893   4.874  0.1630 -0.0565 -0.1087
  164SAPE    HA18326   4.866   4.798   4.820 -1.1640  1.1458 -3.0000
  164SAPE    HB18327   4.938   4.950   4.881 -1.0239  1.8835  0.7449
  164SAPE    C218328   4.799   4.858   5.017  0.2824 -0.0936  0.5102
  164SAPE    HS18329   4.803   4.946   5.085 -1.0449  0.1712  0.2619
  164SAPE   O2118330   4.881   4.752   5.063 -0.1892  0.2700 -0.3108
  164SAPE   C2118331   4.926   4.755   5.191  0.6620  0.2139 -0.7801
  164SAPE   O2218332   4.892   4.836   5.275  0.0560 -0.1474  0.3371
  164SAPE   C2218333   5.025   4.646   5.212  0.0035  0.2592 -1.0440
  164SAPE   H2R18334   4.983   4.543   5.200  0.3868 -0.7145  3.7876
  164SAPE   H2S18335   5.108   4.641   5.138  0.2649  0.6573 -0.7840
  164SAPE    C318336   4.652   4.804   5.014 -0.4022 -0.4803  0.2120
  164SAPE    HX18337   4.641   4.728   4.934  0.2627  0.4650 -0.8079
  164SAPE    HY18338   4.581   4.880   4.974  1.2580 -0.2842 -2.6277
  164SAPE   O3118339   4.607   4.747   5.135  0.1009 -0.4170 -0.2239
  164SAPE   C3118340   4.576   4.838   5.223 -0.0021 -0.0718  0.0005
  164SAPE   O3218341   4.588   4.959   5.218 -0.5219 -0.1289 -0.2284
  164SAPE   C3218342   4.517   4.755   5.337  0.7088  0.3299 -0.1666
  164SAPE   H2X18343   4.568   4.657   5.343  0.7538  0.4350  2.0044
  164SAPE   H2Y18344   4.408   4.738   5.322  1.0754 -0.6964 -1.9757
  164SAPE   C2318345   5.082   4.651   5.366  0.0086  0.4692  0.1786
  164SAPE   H3R18346   5.112   4.757   5.374 -2.7283  1.5371 -1.7782
  164SAPE   H3S18347   5.175   4.591   5.356 -0.9846 -1.1681  0.4555
  164SAPE   C2418348   4.999   4.585   5.470  0.7961  0.4742 -0.8521
  164SAPE   H4R18349   4.978   4.478   5.446  1.9082  0.4608 -1.8481
  164SAPE   H4S18350   4.898   4.632   5.466  1.1149  1.3623  0.7094
  164SAPE   C2518351   5.053   4.595   5.610 -0.1374 -0.0085 -0.4134
  164SAPE   H5R18352   5.132   4.523   5.631 -1.5806 -1.6277 -0.3101
  164SAPE   C2618353   5.013   4.668   5.713  0.4332 -0.5339 -0.1758
  164SAPE   H6R18354   5.059   4.659   5.812 -3.5504 -0.2858  1.9181
  164SAPE   C2718355   4.907   4.778   5.705 -0.9626 -0.0558  0.3177
  164SAPE   H7R18356   4.811   4.721   5.702 -0.1458 -1.4334 -0.9486
  164SAPE   H7S18357   4.911   4.829   5.607 -1.5804 -2.5753 -1.1306
  164SAPE   C2818358   4.896   4.870   5.822 -0.2040 -0.1611  0.7802
  164SAPE   H8R18359   4.974   4.947   5.815  2.1848 -2.6077 -3.5820
  164SAPE   C2918360   4.810   4.866   5.926  0.0254 -0.1423  0.2453
  164SAPE   H9R18361   4.826   4.942   6.004 -2.4503 -2.6758  3.5053
  164SAPE  C21018362   4.711   4.761   5.963  0.5679 -0.2863 -0.0506
  164SAPE  H10R18363   4.767   4.669   5.990 -0.1299  0.0721  2.9374
  164SAPE  H10S18364   4.663   4.734   5.866  0.9029 -0.4654 -0.1690
  164SAPE  C21118365   4.604   4.775   6.071 -1.0278  0.2866  0.3138
  164SAPE  H11R18366   4.508   4.816   6.037 -2.2174 -2.1840  0.4399
  164SAPE  C21218367   4.601   4.753   6.204 -0.2666  0.3458 -0.0339
  164SAPE  H12R18368   4.504   4.775   6.251  0.4521 -0.4292  1.9349
  164SAPE  C21318369   4.705   4.690   6.298  0.0299 -0.4607  0.0200
  164SAPE  H13R18370   4.793   4.649   6.245 -0.4060 -0.2689 -0.8702
  164SAPE  H13S18371   4.653   4.604   6.346  0.5274  0.0157  1.4572
  164SAPE  C21418372   4.742   4.783   6.409 -0.2491  0.1774  0.2367
  164SAPE  H14R18373   4.788   4.877   6.374 -0.0648 -0.8207 -2.3683
  164SAPE  C21518374   4.723   4.765   6.541 -0.4846  1.1050  0.4718
  164SAPE  H15R18375   4.758   4.840   6.614  4.0467 -1.2792  1.1028
  164SAPE  C21618376   4.666   4.647   6.612  0.5834 -0.0940 -0.2146
  164SAPE  H16R18377   4.656   4.557   6.547  3.3072 -0.1668 -0.6445
  164SAPE  H16S18378   4.565   4.669   6.651 -0.5285 -0.6599 -2.6011
  164SAPE  C21718379   4.759   4.620   6.730 -0.2491 -0.8627  0.5135
  164SAPE  H17R18380   4.865   4.598   6.705 -0.8371 -0.3022 -3.1123
  164SAPE  H17S18381   4.715   4.533   6.783  0.0031 -0.9006  0.6599
  164SAPE  C21818382   4.770   4.737   6.832  1.1839  0.3314  0.2632
  164SAPE  H18R18383   4.844   4.810   6.794  0.9453  0.6875  0.4694
  164SAPE  H18S18384   4.813   4.688   6.922  0.8610  1.0647  0.8302
  164SAPE  C21918385   4.636   4.800   6.868 -0.6419 -0.1585 -0.4574
  164SAPE  H19R18386   4.563   4.718   6.849  0.2516 -0.3987 -3.3141
  164SAPE  H19S18387   4.619   4.885   6.800 -0.0775 -0.0256 -0.4406
  164SAPE  C22018388   4.632   4.846   7.016 -0.1866 -0.1717  0.8078
  164SAPE  H20R18389   4.650   4.766   7.090 -2.4350 -0.0769  1.5358
  164SAPE  H20S18390   4.529   4.881   7.040 -1.9014 -3.4369 -1.1007
  164SAPE  H20T18391   4.708   4.925   7.035 -0.5359  0.6855 -1.1044
  164SAPE   C3318392   4.553   4.814   5.473 -0.7410  0.5237  0.3341
  164SAPE   H3X18393   4.535   4.924   5.465 -0.2272  0.6192  0.4574
  164SAPE   H3Y18394   4.658   4.797   5.504 -0.9250  0.8220  1.1596
  164SAPE   C3418395   4.464   4.765   5.598  0.0793  0.0581  0.0543
  164SAPE   H4X18396   4.354   4.772   5.587  0.0751  0.4798  0.3208
  164SAPE   H4Y18397   4.497   4.820   5.689 -0.4502 -0.6899  0.7078
  164SAPE   C3518398   4.488   4.614   5.621 -0.6841  0.3026  0.5425
  164SAPE   H5X18399   4.596   4.600   5.643 -0.4970 -0.6584 -0.8371
  164SAPE   H5Y18400   4.468   4.553   5.530 -1.0229  0.3343  0.5928
  164SAPE   C3618401   4.396   4.538   5.721  0.0493 -0.6553 -0.0599
  164SAPE   H6X18402   4.460   4.457   5.762 -0.5466 -1.1722 -0.1322
  164SAPE   H6Y18403   4.313   4.491   5.664  0.0052  2.5506 -2.9870
  164SAPE   C3718404   4.339   4.609   5.840  0.8973 -0.3272  0.1631
  164SAPE   H7X18405   4.255   4.667   5.795  0.4560 -2.2214 -1.5819
  164SAPE   H7Y18406   4.421   4.674   5.878  1.4475 -0.2101 -1.1748
  164SAPE   C3818407   4.271   4.525   5.944  0.2542 -0.2374  0.6764
  164SAPE   H8X18408   4.352   4.456   5.974  1.1224 -0.0693 -1.1049
  164SAPE   H8Y18409   4.188   4.471   5.893 -0.1028  1.6594 -0.9059
  164SAPE   C3918410   4.222   4.607   6.062  0.2710 -0.9316 -0.3745
  164SAPE   H9X18411   4.129   4.662   6.035  1.2325  0.3109 -1.3394
  164SAPE   H9Y18412   4.294   4.687   6.090  2.8768 -1.7703 -3.9007
  164SAPE  C31018413   4.214   4.519   6.189 -0.0986 -0.0800 -0.0046
  164SAPE  H10X18414   4.316   4.478   6.206 -0.0144 -0.6526 -1.6984
  164SAPE  H10Y18415   4.138   4.440   6.171 -1.1098  0.9288 -0.2527
  164SAPE  C31118416   4.182   4.593   6.323 -0.2766  0.0507 -0.1181
  164SAPE  H11X18417   4.082   4.640   6.316  0.2620  1.2341 -0.0506
  164SAPE  H11Y18418   4.261   4.669   6.339 -0.7816  0.7855 -1.0439
  164SAPE  C31218419   4.174   4.487   6.430 -0.2109  0.3557  0.7170
  164SAPE  H12X18420   4.270   4.432   6.428  0.6203  1.6418  2.4106
  164SAPE  H12Y18421   4.088   4.424   6.399 -1.4480  1.7505  1.1734
  164SAPE  C31318422   4.161   4.555   6.568 -0.0134  0.7178  0.2079
  164SAPE  H13X18423   4.250   4.619   6.584 -0.3444  0.9109  1.4105
  164SAPE  H13Y18424   4.175   4.472   6.641  1.7185  1.4566  0.7545
  164SAPE  C31418425   4.033   4.638   6.594  0.5186 -0.4459  0.1602
  164SAPE  H14X18426   4.038   4.717   6.516  0.6053  0.9939  1.5680
  164SAPE  H14Y18427   4.043   4.693   6.690 -2.4768  2.4816 -1.0014
  164SAPE  C31518428   3.891   4.561   6.590 -0.8289  0.0486  0.3183
  164SAPE  H15X18429   3.900   4.479   6.664 -2.9462  0.4397  1.0821
  164SAPE  H15Y18430   3.891   4.513   6.490 -1.9711  2.8743 -1.1729
  164SAPE  C31618431   3.774   4.651   6.619 -0.0224  0.4288 -0.0977
  164SAPE  H16X18432   3.677   4.617   6.574  0.1416 -0.2332  0.0292
  164SAPE  H16Y18433   3.792   4.753   6.580 -0.8989 -0.3456 -2.7852
  164SAPE  C31718434   3.734   4.647   6.767 -0.1162  0.6574 -0.4440
  164SAPE  H17X18435   3.820   4.672   6.832 -0.7720  1.2095  0.2229
  164SAPE  H17Y18436   3.713   4.541   6.792  2.7765  0.4303  1.5161
  164SAPE  C31818437   3.622   4.755   6.792 -0.1910  0.5191 -0.3833
  164SAPE  H18X18438   3.524   4.724   6.748 -1.1549  2.1570  0.5016
  164SAPE  H18Y18439   3.652   4.854   6.751  2.6831  0.7657  2.0047
  164SAPE  H18Z18440   3.601   4.764   6.900 -0.7497  1.2691 -0.5438
  165SAPE     N18441   4.300   5.967   5.100 -0.1094 -0.2713  0.3281
  165SAPE   HN118442   4.360   5.900   5.153  0.8296  0.1326 -0.1980
  165SAPE   HN218443   4.339   6.061   5.082  0.7853 -0.6612  0.1442
  165SAPE   HN318444   4.211   5.961   5.153 -1.4047  0.5485 -1.6428
  165SAPE   C1218445   4.265   5.897   4.973  0.3505  0.6468 -0.2532
  165SAPE  H12A18446   4.356   5.894   4.910  0.7391  1.3156  0.2614
  165SAPE  H12B18447   4.191   5.956   4.915  0.4787  2.3618  1.2157
  165SAPE   C1118448   4.217   5.757   5.007  0.3173 -0.2257 -0.0165
  165SAPE  H11A18449   4.193   5.701   4.914  0.2813 -0.8641  0.3727
  165SAPE  H11B18450   4.120   5.755   5.061 -0.0300  0.1660 -0.6188
  165SAPE     P18451   4.359   5.540   5.078 -0.0280  0.0204  0.1000
  165SAPE   O1318452   4.420   5.523   4.941 -0.5321 -0.0247  0.2773
  165SAPE   O1418453   4.452   5.522   5.193 -0.2228  0.2741 -0.1490
  165SAPE   O1218454   4.315   5.695   5.093 -0.0368 -0.1518 -0.8179
  165SAPE   O1118455   4.230   5.449   5.096 -0.6102  0.3578 -0.1161
  165SAPE    C118456   4.129   5.488   5.191  0.3778 -0.2916 -0.0550
  165SAPE    HA18457   4.090   5.591   5.177 -0.0429 -0.1151  2.0643
  165SAPE    HB18458   4.042   5.423   5.171 -1.7864  1.7423  1.9889
  165SAPE    C218459   4.173   5.474   5.345  0.0927  0.0240 -0.7655
  165SAPE    HS18460   4.249   5.548   5.376 -0.4091 -0.9071  3.2414
  165SAPE   O2118461   4.224   5.343   5.378  0.1483  0.5098 -0.0466
  165SAPE   C2118462   4.325   5.321   5.452 -0.5697 -0.4874  0.3902
  165SAPE   O2218463   4.407   5.406   5.493  0.0165  0.5073  0.0716
  165SAPE   C2218464   4.355   5.176   5.464 -0.9294  0.1524  0.0743
  165SAPE   H2R18465   4.301   5.127   5.380 -0.8829 -0.3235  0.3210
  165SAPE   H2S18466   4.462   5.179   5.434 -1.3434  1.3339 -1.4063
  165SAPE    C318467   4.054   5.500   5.440  0.1757  0.2323 -0.2888
  165SAPE    HX18468   3.984   5.419   5.412  1.8637 -1.4058  0.0192
  165SAPE    HY18469   4.014   5.602   5.420  1.1088  1.0518  1.7181
  165SAPE   O3118470   4.084   5.477   5.573 -0.0843 -0.3921 -0.4008
  165SAPE   C3118471   4.173   5.558   5.631 -0.3529 -0.2716 -0.0413
  165SAPE   O3218472   4.202   5.673   5.601 -0.1753  0.5937 -0.1950
  165SAPE   C3218473   4.225   5.492   5.755 -0.8231 -0.1247  0.1636
  165SAPE   H2X18474   4.320   5.443   5.725 -0.4511  0.9184 -0.4008
  165SAPE   H2Y18475   4.143   5.423   5.787 -0.7605  0.4790  1.7198
  165SAPE   C2318476   4.338   5.109   5.597 -0.2227 -0.2597  0.0964
  165SAPE   H3R18477   4.360   5.168   5.688 -0.1826  0.9712 -0.6900
  165SAPE   H3S18478   4.415   5.029   5.608  0.0860 -0.0397 -0.4056
  165SAPE   C2418479   4.205   5.033   5.611  0.0073  0.1573  0.2913
  165SAPE   H4R18480   4.204   4.978   5.708 -1.5064  3.4073  2.3091
  165SAPE   H4S18481   4.204   4.956   5.531 -2.0090  0.7559 -0.3370
  165SAPE   C2518482   4.083   5.128   5.596 -0.8622  0.0337  0.6621
  165SAPE   H5R18483   4.069   5.181   5.501  1.3666 -0.1689  0.1717
  165SAPE   C2618484   4.001   5.166   5.695  0.5846  0.4113  0.3962
  165SAPE   H6R18485   3.917   5.231   5.668 -0.5875 -1.1802  0.0449
  165SAPE   C2718486   4.004   5.119   5.835  0.1424 -0.0506 -0.0526
  165SAPE   H7R18487   3.979   5.012   5.854  0.2728 -0.2100 -0.7409
  165SAPE   H7S18488   3.924   5.172   5.890 -0.9382 -1.3547 -0.3052
  165SAPE   C2818489   4.134   5.154   5.905 -0.4201  0.1237 -0.6298
  165SAPE   H8R18490   4.218   5.179   5.838  1.8926  0.7255  2.2722
  165SAPE   C2918491   4.168   5.127   6.034  0.7584  0.5501 -0.2088
  165SAPE   H9R18492   4.271   5.146   6.069  0.8660 -0.0386 -0.1957
  165SAPE  C21018493   4.069   5.092   6.142  0.1382  0.6125  0.4456
  165SAPE  H10R18494   4.094   4.986   6.163  1.5109  1.2337  2.3228
  165SAPE  H10S18495   3.964   5.097   6.108  0.7903 -1.5356 -2.2888
  165SAPE  C21118496   4.082   5.166   6.271  0.4089 -0.3038 -0.2624
  165SAPE  H11R18497   4.088   5.275   6.252  0.6945 -0.0679  1.0727
  165SAPE  C21218498   4.113   5.113   6.394 -0.9537  0.3526 -0.3280
  165SAPE  H12R18499   4.122   5.194   6.468 -2.6802  2.7929 -2.5468
  165SAPE  C21318500   4.130   4.973   6.442  0.2093 -0.0832  0.2681
  165SAPE  H13R18501   4.087   4.908   6.363 -0.3308  1.2437 -0.5456
  165SAPE  H13S18502   4.069   4.945   6.531  1.0899 -0.9804  0.6178
  165SAPE  C21418503   4.273   4.933   6.452 -0.6372  0.0270  0.4040
  165SAPE  H14R18504   4.330   4.937   6.358  0.3348 -1.5297  0.8896
  165SAPE  C21518505   4.354   4.932   6.562  0.3149  0.6544 -0.0232
  165SAPE  H15R18506   4.449   4.878   6.552  0.2214  0.4250  0.3313
  165SAPE  C21618507   4.308   4.952   6.700 -0.1981  0.0986 -0.0194
  165SAPE  H16R18508   4.342   4.874   6.770 -0.4517  1.1499  1.3112
  165SAPE  H16S18509   4.197   4.957   6.698 -0.1881  1.0413  0.9426
  165SAPE  C21718510   4.341   5.095   6.759  0.2483  0.5666 -0.1461
  165SAPE  H17R18511   4.308   5.178   6.691  1.2614  0.6175 -0.5873
  165SAPE  H17S18512   4.449   5.118   6.759 -0.0037  1.8995  0.9015
  165SAPE  C21818513   4.296   5.103   6.898  0.3296 -0.0442  0.0298
  165SAPE  H18R18514   4.389   5.098   6.959  1.4686  1.7822 -1.4479
  165SAPE  H18S18515   4.228   5.023   6.935 -0.5272  1.0890  0.9993
  165SAPE  C21918516   4.225   5.236   6.940  0.2596  0.3283 -0.3278
  165SAPE  H19R18517   4.142   5.248   6.867  0.4935  0.7213 -0.5402
  165SAPE  H19S18518   4.286   5.330   6.938 -0.1182  0.7316  2.7899
  165SAPE  C22018519   4.164   5.231   7.084  0.4191 -0.1113  0.2906
  165SAPE  H20R18520   4.084   5.155   7.073 -0.6816  0.9674  0.6913
  165SAPE  H20S18521   4.123   5.328   7.118  2.5280  0.8561  0.2489
  165SAPE  H20T18522   4.247   5.202   7.151  2.2687 -0.5721 -2.0336
  165SAPE   C3318523   4.255   5.587   5.870 -0.2066 -0.5242  0.1072
  165SAPE   H3X18524   4.179   5.663   5.900 -0.4849 -1.0126  0.6521
  165SAPE   H3Y18525   4.348   5.648   5.860 -1.5181  1.5493  0.0051
  165SAPE   C3418526   4.257   5.505   5.995 -0.6267 -0.3860 -0.3301
  165SAPE   H4X18527   4.263   5.396   5.975  0.5466 -0.5177  0.6457
  165SAPE   H4Y18528   4.171   5.542   6.055 -0.9136 -2.4100  0.5661
  165SAPE   C3518529   4.381   5.547   6.073  0.8501 -0.8314  0.3083
  165SAPE   H5X18530   4.380   5.656   6.095  2.0243 -0.5353 -0.9915
  165SAPE   H5Y18531   4.463   5.524   6.002 -1.6366 -1.8545 -2.4313
  165SAPE   C3618532   4.390   5.475   6.205  0.2412  0.3979 -0.5788
  165SAPE   H6X18533   4.491   5.508   6.237  0.5707 -0.3208 -0.8606
  165SAPE   H6Y18534   4.403   5.366   6.185  1.2473  0.5905 -1.0218
  165SAPE   C3718535   4.283   5.501   6.302  0.4203 -0.1711 -0.1775
  165SAPE   H7X18536   4.198   5.437   6.270  1.1133 -0.3044 -1.8386
  165SAPE   H7Y18537   4.261   5.610   6.302 -0.9249 -0.3903  1.6979
  165SAPE   C3818538   4.322   5.454   6.444 -0.3796 -0.1829 -0.6056
  165SAPE   H8X18539   4.366   5.352   6.441  0.5149  0.1957 -0.5134
  165SAPE   H8Y18540   4.223   5.455   6.496  0.1655 -1.4456  0.5336
  165SAPE   C3918541   4.410   5.551   6.533  0.7796 -0.1666  0.6904
  165SAPE   H9X18542   4.354   5.646   6.542 -0.8296 -1.0222  0.1495
  165SAPE   H9Y18543   4.506   5.560   6.477  0.4792 -1.4782 -0.0763
  165SAPE  C31018544   4.443   5.480   6.665  0.3602 -0.1343 -0.1872
  165SAPE  H10X18545   4.503   5.388   6.648 -0.8990 -1.8514  3.6381
  165SAPE  H10Y18546   4.348   5.452   6.715 -0.3743  0.6078 -1.1244
  165SAPE  C31118547   4.528   5.564   6.765 -1.2089  0.6883  0.5271
  165SAPE  H11X18548   4.476   5.659   6.790 -0.2039  1.1627  0.9024
  165SAPE  H11Y18549   4.619   5.589   6.705  1.1494 -2.5738  2.4196
  165SAPE  C31218550   4.577   5.481   6.878  0.9587  0.7843 -1.1440
  165SAPE  H12X18551   4.612   5.381   6.845  0.2876 -0.1808  0.9162
  165SAPE  H12Y18552   4.486   5.464   6.940  0.3690  0.5973 -2.0531
  165SAPE  C31318553   4.683   5.561   6.955 -0.3177 -0.5381  0.3107
  165SAPE  H13X18554   4.713   5.515   7.052  1.1345  0.6806  0.4797
  165SAPE  H13Y18555   4.627   5.652   6.986  0.8536  1.1165 -2.1744
  165SAPE  C31418556   4.805   5.614   6.881 -0.0524 -0.5507  0.2793
  165SAPE  H14X18557   4.779   5.673   6.790  0.2589 -2.5328 -1.1553
  165SAPE  H14Y18558   4.859   5.531   6.829 -0.3830 -0.8473  0.4093
  165SAPE  C31518559   4.905   5.701   6.963 -0.0217  0.1338  0.1527
  165SAPE  H15X18560   4.964   5.642   7.037 -2.4784  0.2219  2.3009
  165SAPE  H15Y18561   4.844   5.766   7.029 -2.0983 -2.1153  0.5713
  165SAPE  C31618562   5.003   5.785   6.875 -0.1965 -0.3021 -0.0545
  165SAPE  H16X18563   4.958   5.883   6.847 -0.2921 -1.0793 -2.8930
  165SAPE  H16Y18564   5.023   5.720   6.788  0.6911 -1.7898  1.1972
  165SAPE  C31718565   5.128   5.829   6.946 -0.9804  0.0998 -0.0630
  165SAPE  H17X18566   5.095   5.883   7.037 -0.6276  0.2260 -0.0092
  165SAPE  H17Y18567   5.179   5.899   6.877 -0.2998  0.3476  0.6808
  165SAPE  C31818568   5.220   5.711   6.982 -0.4718 -0.2312  0.5804
  165SAPE  H18X18569   5.174   5.671   7.075 -0.5388 -0.3758  0.4843
  165SAPE  H18Y18570   5.321   5.747   7.013  0.5202  0.1361 -2.7109
  165SAPE  H18Z18571   5.223   5.639   6.898 -2.3169 -0.7565  0.9312
  166SAPE     N18572   3.830   0.251   4.364 -0.3785 -0.4789  0.2181
  166SAPE   HN118573   3.903   0.249   4.290 -2.9748 -1.1964 -2.5269
  166SAPE   HN218574   3.795   0.153   4.369  0.0790 -0.8188 -2.1398
  166SAPE   HN318575   3.748   0.311   4.344  0.0582  0.0344 -0.0516
  166SAPE   C1218576   3.890   0.319   4.477 -0.0055  0.4048  0.3650
  166SAPE  H12A18577   3.984   0.367   4.444 -0.3641  2.0251  1.5430
  166SAPE  H12B18578   3.901   0.233   4.547 -7.0542 -1.0688  0.4760
  166SAPE   C1118579   3.803   0.430   4.536  0.2947  0.8002  0.7469
  166SAPE  H11A18580   3.867   0.486   4.607 -0.6379  1.0762  1.3980
  166SAPE  H11B18581   3.717   0.383   4.589  0.3422 -0.8361 -0.5481
  166SAPE     P18582   3.611   0.520   4.376 -0.0344 -0.9959 -0.0558
  166SAPE   O1318583   3.579   0.658   4.322 -0.7096  0.1344 -0.1278
  166SAPE   O1418584   3.619   0.408   4.279 -0.5567 -0.3644  0.0381
  166SAPE   O1218585   3.758   0.526   4.437  0.0697  0.0960 -0.5110
  166SAPE   O1118586   3.525   0.488   4.507  0.1139 -0.0639  0.6640
  166SAPE    C118587   3.448   0.578   4.584 -0.1080 -0.5830 -0.0927
  166SAPE    HA18588   3.468   0.684   4.561 -0.4694 -0.0046  1.9906
  166SAPE    HB18589   3.341   0.557   4.567 -0.5842  0.5199  1.3215
  166SAPE    C218590   3.469   0.564   4.740  0.1975 -0.0879  0.1086
  166SAPE    HS18591   3.389   0.631   4.779 -1.7725 -2.9260  1.2936
  166SAPE   O2118592   3.606   0.577   4.783 -0.1920 -0.2414  1.0394
  166SAPE   C2118593   3.646   0.704   4.779  0.0305  0.0468  0.2364
  166SAPE   O2218594   3.575   0.798   4.753  0.3071 -0.4186 -1.1215
  166SAPE   C2218595   3.796   0.719   4.816  0.1213  1.0687  0.1973
  166SAPE   H2R18596   3.829   0.620   4.852  0.0524  0.6887 -0.7608
  166SAPE   H2S18597   3.857   0.738   4.725  1.1889  0.6649  0.8208
  166SAPE    C318598   3.407   0.426   4.787 -0.3858 -0.8107 -0.1085
  166SAPE    HX18599   3.461   0.351   4.726 -1.9799  0.7045 -3.7250
  166SAPE    HY18600   3.302   0.428   4.750 -0.1650  0.9383 -0.7700
  166SAPE   O3118601   3.423   0.401   4.931  0.7731 -0.0733  0.2469
  166SAPE   C3118602   3.328   0.461   5.007  0.0533 -0.5551 -0.2657
  166SAPE   O3218603   3.241   0.537   4.967 -0.5531 -0.3671  0.3989
  166SAPE   C3218604   3.339   0.421   5.156  0.0084 -0.2458  0.7955
  166SAPE   H2X18605   3.427   0.482   5.187 -0.5091 -0.8521  3.7199
  166SAPE   H2Y18606   3.363   0.313   5.167 -0.3406 -0.2049  2.0589
  166SAPE   C2318607   3.808   0.837   4.919 -0.4915 -0.7907  0.5303
  166SAPE   H3R18608   3.741   0.922   4.896 -0.8404 -1.6102 -1.8177
  166SAPE   H3S18609   3.913   0.873   4.906 -0.7797 -1.0136 -3.5690
  166SAPE   C2418610   3.778   0.797   5.065  0.3092  0.8525 -0.0772
  166SAPE   H4R18611   3.671   0.768   5.067  0.6061 -0.3813 -0.7727
  166SAPE   H4S18612   3.796   0.880   5.136  2.1136  1.4698 -1.1669
  166SAPE   C2518613   3.858   0.678   5.113 -0.5017 -0.1539 -0.1740
  166SAPE   H5R18614   3.953   0.660   5.060 -0.2145 -1.3204  0.6965
  166SAPE   C2618615   3.832   0.595   5.217 -0.2521  0.6128  0.2383
  166SAPE   H6R18616   3.901   0.512   5.238 -1.4774 -0.6693 -0.6604
  166SAPE   C2718617   3.705   0.609   5.301 -0.1970  1.1694 -0.0352
  166SAPE   H7R18618   3.679   0.515   5.353  0.1449  0.2674 -1.4432
  166SAPE   H7S18619   3.615   0.625   5.237  0.9499  2.2239 -1.4589
  166SAPE   C2818620   3.709   0.714   5.411  0.1090 -0.3834  0.0219
  166SAPE   H8R18621   3.795   0.782   5.421  0.5521 -1.1201  1.5721
  166SAPE   C2918622   3.607   0.740   5.499 -0.0423 -0.2992  0.6130
  166SAPE   H9R18623   3.610   0.817   5.577 -2.1158  0.5559 -0.0725
  166SAPE  C21018624   3.485   0.659   5.522 -0.5185  0.4502 -0.0831
  166SAPE  H10R18625   3.441   0.638   5.422 -2.4071  0.5266  0.6815
  166SAPE  H10S18626   3.400   0.714   5.567  1.1461  0.1677  3.7533
  166SAPE  C21118627   3.517   0.536   5.608 -0.3260 -0.5996 -0.1257
  166SAPE  H11R18628   3.599   0.484   5.556  0.8286  0.4199  0.6131
  166SAPE  C21218629   3.460   0.501   5.723 -0.3524  0.4985 -1.1706
  166SAPE  H12R18630   3.509   0.413   5.766  1.8818  1.8013 -0.8612
  166SAPE  C21318631   3.357   0.570   5.805 -0.1871 -0.8290 -0.0006
  166SAPE  H13R18632   3.296   0.496   5.862 -0.0666 -1.4130 -0.6119
  166SAPE  H13S18633   3.293   0.637   5.745  0.0522  1.9011  2.5924
  166SAPE  C21418634   3.443   0.662   5.893  0.1565 -0.4113 -0.2726
  166SAPE  H14R18635   3.541   0.696   5.858  0.0344  0.9363  0.6387
  166SAPE  C21518636   3.424   0.693   6.021 -0.1945  0.3043 -0.1319
  166SAPE  H15R18637   3.510   0.733   6.076  1.2967  1.4479 -3.0701
  166SAPE  C21618638   3.293   0.673   6.097  0.2711 -0.7490  0.4392
  166SAPE  H16R18639   3.218   0.600   6.057 -4.5577  3.9235 -0.2579
  166SAPE  H16S18640   3.233   0.766   6.096  0.0323 -0.9028  0.3488
  166SAPE  C21718641   3.328   0.653   6.252 -0.3925  0.5657  0.4328
  166SAPE  H17R18642   3.404   0.726   6.287  1.8340 -1.0654 -0.7650
  166SAPE  H17S18643   3.363   0.550   6.273 -0.4279  0.7425  1.4117
  166SAPE  C21818644   3.195   0.675   6.331 -0.3692  0.0749 -0.2119
  166SAPE  H18R18645   3.121   0.593   6.321 -0.2912  0.0150 -0.3001
  166SAPE  H18S18646   3.141   0.762   6.288 -2.0614 -0.1916  1.2549
  166SAPE  C21918647   3.229   0.682   6.483 -0.3928 -0.0007  0.0592
  166SAPE  H19R18648   3.319   0.744   6.501  0.2416 -0.6698 -0.7207
  166SAPE  H19S18649   3.246   0.574   6.505  0.5433  0.0696 -0.2803
  166SAPE  C22018650   3.097   0.723   6.558  0.4844 -0.5934  0.2118
  166SAPE  H20R18651   3.072   0.827   6.528 -1.8148 -0.9795  0.6607
  166SAPE  H20S18652   3.117   0.697   6.664  0.8863  1.4721  0.6887
  166SAPE  H20T18653   3.018   0.660   6.513  0.0237 -0.6335  1.0587
  166SAPE   C3318654   3.227   0.459   5.250  0.3196 -0.1579 -0.4711
  166SAPE   H3X18655   3.141   0.418   5.193 -1.3352  1.1269  1.0203
  166SAPE   H3Y18656   3.203   0.566   5.265  1.1778  0.4521 -2.9219
  166SAPE   C3418657   3.244   0.387   5.386  0.3291  1.0828  0.6725
  166SAPE   H4X18658   3.328   0.438   5.438  2.3151 -0.7071 -0.5766
  166SAPE   H4Y18659   3.273   0.280   5.382 -1.9397  0.3357  2.4055
  166SAPE   C3518660   3.125   0.406   5.471  0.6295  0.0268 -0.4487
  166SAPE   H5X18661   3.034   0.361   5.426  1.3950 -0.3836 -1.6034
  166SAPE   H5Y18662   3.105   0.513   5.492 -4.0589 -0.2545 -2.1965
  166SAPE   C3618663   3.128   0.343   5.602 -0.2808 -0.1763  0.4036
  166SAPE   H6X18664   3.200   0.377   5.679  1.1681 -0.9990 -0.5474
  166SAPE   H6Y18665   3.168   0.240   5.585  1.3127  0.3789  0.6453
  166SAPE   C3718666   2.983   0.333   5.661 -0.0519 -0.1182  0.0656
  166SAPE   H7X18667   2.923   0.264   5.599 -0.9946 -0.3471  1.1922
  166SAPE   H7Y18668   2.946   0.437   5.657  0.3047 -0.0334 -3.5330
  166SAPE   C3818669   2.982   0.285   5.807  1.1892  0.7263  0.8131
  166SAPE   H8X18670   3.033   0.358   5.874  1.2505 -0.4866  2.1535
  166SAPE   H8Y18671   3.039   0.192   5.827  0.1503 -0.4380 -1.3898
  166SAPE   C3918672   2.836   0.248   5.846 -0.5494 -0.8265  0.2858
  166SAPE   H9X18673   2.783   0.179   5.777 -0.9928 -1.7407  1.4809
  166SAPE   H9Y18674   2.792   0.349   5.833  1.5575 -0.0422 -1.4053
  166SAPE  C31018675   2.841   0.186   5.994  0.5099  0.1636  0.9380
  166SAPE  H10X18676   2.892   0.246   6.073  2.5315 -1.2517  0.7992
  166SAPE  H10Y18677   2.902   0.094   5.980 -0.7286 -0.4872 -0.4102
  166SAPE  C31118678   2.703   0.157   6.038 -0.9572  0.2202 -0.3809
  166SAPE  H11X18679   2.655   0.078   5.977 -0.5882 -0.7236  0.5200
  166SAPE  H11Y18680   2.650   0.255   6.037 -0.3974  0.5301  0.0616
  166SAPE  C31218681   2.710   0.105   6.187 -0.5710 -0.5097  0.0856
  166SAPE  H12X18682   2.755   0.181   6.254 -1.4848  0.7395 -0.6657
  166SAPE  H12Y18683   2.776   0.016   6.185 -2.4275 -1.9608 -0.0222
  166SAPE  C31318684   2.576   0.055   6.251 -0.0528 -0.9316 -0.5624
  166SAPE  H13X18685   2.548  -0.046   6.214  0.5442 -1.2560 -0.1406
  166SAPE  H13Y18686   2.493   0.127   6.234  0.4848  0.0105  0.6530
  166SAPE  C31418687   2.604   0.041   6.400 -0.2360 -0.4941  0.8025
  166SAPE  H14X18688   2.611   0.145   6.438 -0.4509 -0.3903  0.5603
  166SAPE  H14Y18689   2.698  -0.017   6.410  0.8470  1.5405  4.2708
  166SAPE  C31518690   2.489  -0.025   6.477  0.3128 -0.3369 -0.2281
  166SAPE  H15X18691   2.466  -0.124   6.435  1.5378  0.1444 -2.1496
  166SAPE  H15Y18692   2.401   0.041   6.462  1.1713  1.1532  0.9050
  166SAPE  C31618693   2.520  -0.032   6.628  0.0498 -0.0101  0.2611
  166SAPE  H16X18694   2.564   0.067   6.656 -1.1487  0.9993 -1.2519
  166SAPE  H16Y18695   2.601  -0.105   6.652 -2.4911 -2.7715  0.9604
  166SAPE  C31718696   2.408  -0.076   6.727  0.3824 -0.2198 -0.6578
  166SAPE  H17X18697   2.369  -0.175   6.694  1.2965 -0.7895 -0.0793
  166SAPE  H17Y18698   2.331   0.004   6.722 -2.0571 -2.3637  0.1450
  166SAPE  C31818699   2.453  -0.088   6.876  0.2073 -0.0433  0.4270
  166SAPE  H18X18700   2.366  -0.100   6.944  0.9360  0.5307  1.4842
  166SAPE  H18Y18701   2.501   0.004   6.915 -1.7624 -0.3715  4.0310
  166SAPE  H18Z18702   2.530  -0.168   6.882 -0.2417 -0.6258 -1.1782
  167SAPE     N18703   3.684   3.197   4.292 -0.1550 -0.3942 -0.1109
  167SAPE   HN118704   3.618   3.123   4.324  0.6452 -0.2332  2.1086
  167SAPE   HN218705   3.702   3.186   4.190 -2.1205 -1.3920 -0.4048
  167SAPE   HN318706   3.773   3.180   4.342 -0.0561 -3.1531 -1.0772
  167SAPE   C1218707   3.629   3.337   4.312  0.1131 -0.4654  0.0297
  167SAPE  H12A18708   3.563   3.341   4.401  0.5423 -1.2440  0.3946
  167SAPE  H12B18709   3.570   3.366   4.222 -0.7753 -0.8484  0.4796
  167SAPE   C1118710   3.753   3.430   4.327  0.2148 -0.2867 -0.1324
  167SAPE  H11A18711   3.803   3.402   4.422  1.2065  1.2999 -0.1596
  167SAPE  H11B18712   3.715   3.533   4.342  1.7661  0.1598  1.0011
  167SAPE     P18713   3.981   3.371   4.205  0.1984 -0.1479 -0.2455
  167SAPE   O1318714   3.972   3.238   4.272  0.1044 -0.0456  0.2661
  167SAPE   O1418715   4.027   3.368   4.062  0.2140  0.5766 -0.0049
  167SAPE   O1218716   3.838   3.436   4.215 -0.4979  0.4646 -0.0898
  167SAPE   O1118717   4.073   3.465   4.287 -0.2390 -0.2962  0.2701
  167SAPE    C118718   4.049   3.499   4.423  0.8030  0.4804  0.7619
  167SAPE    HA18719   4.094   3.599   4.441 -3.6476  2.6524  1.3852
  167SAPE    HB18720   3.943   3.521   4.450  0.2544 -2.7513  1.6542
  167SAPE    C218721   4.107   3.388   4.509 -1.0159 -0.3221 -0.1527
  167SAPE    HS18722   4.101   3.290   4.456  0.8335  0.7235 -2.4747
  167SAPE   O2118723   4.060   3.404   4.639  0.1842 -0.3769 -0.0559
  167SAPE   C2118724   4.002   3.294   4.692 -0.1361  0.3036  0.1188
  167SAPE   O2218725   3.987   3.182   4.638 -0.4568 -0.0800 -0.2264
  167SAPE   C2218726   3.945   3.324   4.828 -0.4307 -1.1789 -0.1383
  167SAPE   H2R18727   3.970   3.430   4.850 -2.3203 -0.8753  0.6939
  167SAPE   H2S18728   3.834   3.330   4.819 -0.4427 -0.0757  0.5793
  167SAPE    C318729   4.261   3.397   4.521 -0.1384  0.0688 -0.4066
  167SAPE    HX18730   4.295   3.490   4.571 -0.8635  0.1037  0.0292
  167SAPE    HY18731   4.291   3.395   4.414 -0.8510 -0.0264 -0.6086
  167SAPE   O3118732   4.315   3.282   4.596  0.2095 -0.1140 -0.7994
  167SAPE   C3118733   4.434   3.249   4.555 -0.1140  0.4928  0.5529
  167SAPE   O3218734   4.497   3.300   4.467  0.4423  0.1819  0.1722
  167SAPE   C3218735   4.485   3.126   4.638 -0.1958 -0.0579 -0.1173
  167SAPE   H2X18736   4.561   3.074   4.577 -0.6003 -0.5511 -0.2012
  167SAPE   H2Y18737   4.400   3.057   4.657 -1.3872  0.6718 -2.4757
  167SAPE   C2318738   4.002   3.238   4.939 -0.5432 -0.0513  0.5498
  167SAPE   H3R18739   3.999   3.135   4.897 -2.1191  1.4058 -3.4236
  167SAPE   H3S18740   3.958   3.242   5.041 -0.4467  2.9314  0.5577
  167SAPE   C2418741   4.146   3.274   4.974  0.1372  0.1054  0.0364
  167SAPE   H4R18742   4.205   3.251   4.882  0.2649 -2.4251  0.6656
  167SAPE   H4S18743   4.165   3.205   5.059 -1.8439  0.3941  0.7470
  167SAPE   C2518744   4.172   3.411   5.026 -0.7520  0.2754 -0.9502
  167SAPE   H5R18745   4.167   3.493   4.952  0.2484  0.9016 -0.3451
  167SAPE   C2618746   4.210   3.436   5.151 -0.0465 -0.2031  0.4868
  167SAPE   H6R18747   4.228   3.537   5.190 -1.0686 -0.2120  1.0006
  167SAPE   C2718748   4.222   3.340   5.272  0.4622 -0.0532 -0.2298
  167SAPE   H7R18749   4.296   3.386   5.340  0.3762  1.7586 -1.2968
  167SAPE   H7S18750   4.268   3.241   5.251 -0.4791 -0.5808  0.1334
  167SAPE   C2818751   4.097   3.314   5.337  0.3269 -0.2291 -0.0259
  167SAPE   H8R18752   4.026   3.259   5.274 -0.6253  0.4683  0.4071
  167SAPE   C2918753   4.077   3.324   5.472 -0.6611  0.1670 -0.3473
  167SAPE   H9R18754   3.974   3.305   5.505 -1.2836  4.0321  0.3753
  167SAPE  C21018755   4.165   3.371   5.584  0.0742  0.1090 -0.1469
  167SAPE  H10R18756   4.099   3.418   5.659  0.6991 -1.0364  1.1556
  167SAPE  H10S18757   4.235   3.440   5.532  0.6176  0.7408  1.3712
  167SAPE  C21118758   4.249   3.262   5.647 -0.0589  0.8644  0.1318
  167SAPE  H11R18759   4.348   3.244   5.602  0.4377 -1.9967  2.0810
  167SAPE  C21218760   4.221   3.173   5.743 -0.3242  0.6571  0.1380
  167SAPE  H12R18761   4.305   3.106   5.765 -0.4084 -0.2567 -2.0368
  167SAPE  C21318762   4.087   3.143   5.800  0.3108 -0.6895  0.7567
  167SAPE  H13R18763   4.027   3.076   5.735  1.3251 -2.9800  2.0574
  167SAPE  H13S18764   4.030   3.238   5.814 -1.1479 -1.0353 -2.0264
  167SAPE  C21418765   4.113   3.078   5.935 -0.3975 -0.7117  0.0618
  167SAPE  H14R18766   4.080   2.974   5.933  0.1305 -0.9899  2.4407
  167SAPE  C21518767   4.173   3.120   6.049 -0.1773 -0.2449 -0.3302
  167SAPE  H15R18768   4.178   3.061   6.142  2.3406 -0.4891 -0.5324
  167SAPE  C21618769   4.210   3.259   6.089 -0.0352 -0.5970  0.0495
  167SAPE  H16R18770   4.164   3.333   6.021  0.4235 -1.0585 -0.7805
  167SAPE  H16S18771   4.318   3.274   6.064 -0.2616 -0.3164 -0.7753
  167SAPE  C21718772   4.194   3.300   6.241  0.4795 -0.7018  0.2987
  167SAPE  H17R18773   4.293   3.281   6.288  1.5850 -1.9782 -2.3408
  167SAPE  H17S18774   4.116   3.237   6.290  1.5400 -1.9280  0.4527
  167SAPE  C21818775   4.162   3.445   6.270  0.9946 -0.3851  1.1026
  167SAPE  H18R18776   4.076   3.480   6.210  1.0004 -0.0512  1.2845
  167SAPE  H18S18777   4.255   3.503   6.250  3.1511 -3.6451  1.0184
  167SAPE  C21918778   4.122   3.483   6.422  0.2216 -0.0333 -0.2685
  167SAPE  H19R18779   4.191   3.429   6.490  1.0131  0.8862 -0.3298
  167SAPE  H19S18780   4.030   3.421   6.435 -0.4108  0.8838 -0.2980
  167SAPE  C22018781   4.112   3.634   6.461  0.6482  0.3777 -0.3515
  167SAPE  H20R18782   4.212   3.682   6.451 -0.0815  1.8686 -0.8618
  167SAPE  H20S18783   4.067   3.645   6.562 -1.1105  1.0716 -1.1684
  167SAPE  H20T18784   4.049   3.678   6.381  1.9703  1.3268 -0.9211
  167SAPE   C3318785   4.540   3.177   4.771  0.6169  0.0576  1.0159
  167SAPE   H3X18786   4.461   3.226   4.831  0.6885  1.2870  0.1574
  167SAPE   H3Y18787   4.616   3.257   4.755 -0.2088  0.5869 -0.4557
  167SAPE   C3418788   4.603   3.055   4.842 -0.0888  0.5551 -0.1023
  167SAPE   H4X18789   4.681   3.009   4.777 -0.5280  1.2550 -1.1650
  167SAPE   H4Y18790   4.533   2.973   4.867  2.2738 -1.5122  0.1855
  167SAPE   C3518791   4.678   3.099   4.972 -0.3305  0.4885  0.9049
  167SAPE   H5X18792   4.743   3.184   4.944  1.1499 -0.8567  0.1240
  167SAPE   H5Y18793   4.745   3.016   5.002 -0.9970 -1.4546 -2.4555
  167SAPE   C3618794   4.586   3.134   5.095  0.0716  0.8437 -0.1880
  167SAPE   H6X18795   4.551   3.039   5.140 -0.8247  2.3063  2.4925
  167SAPE   H6Y18796   4.502   3.190   5.048 -2.0364 -1.1688  0.9858
  167SAPE   C3718797   4.662   3.203   5.210 -0.5250 -0.3870 -0.1942
  167SAPE   H7X18798   4.725   3.288   5.176 -0.0028 -0.6668  0.0651
  167SAPE   H7Y18799   4.735   3.129   5.249 -0.1840 -0.1325 -0.3399
  167SAPE   C3818800   4.556   3.265   5.305  0.2052 -0.5308 -0.1800
  167SAPE   H8X18801   4.495   3.184   5.350 -0.2921  1.5342  3.2209
  167SAPE   H8Y18802   4.487   3.329   5.246 -0.3576  0.2322  1.2749
  167SAPE   C3918803   4.624   3.361   5.406 -0.7863 -0.0563 -0.2875
  167SAPE   H9X18804   4.547   3.435   5.437  0.2429  0.7839  0.3179
  167SAPE   H9Y18805   4.701   3.413   5.347 -1.1252 -1.5741 -2.1634
  167SAPE  C31018806   4.669   3.279   5.528 -0.1536  0.1146  0.3223
  167SAPE  H10X18807   4.750   3.205   5.510 -0.8845 -0.7863  0.6095
  167SAPE  H10Y18808   4.578   3.222   5.559 -0.1238 -1.6848 -2.5282
  167SAPE  C31118809   4.709   3.363   5.652  0.0323  0.8626  0.6973
  167SAPE  H11X18810   4.787   3.436   5.622 -0.3150  0.8057 -0.3906
  167SAPE  H11Y18811   4.756   3.287   5.718 -2.0108 -0.9935  0.1607
  167SAPE  C31218812   4.584   3.421   5.723 -0.1632  0.1441  0.1570
  167SAPE  H12X18813   4.524   3.330   5.744 -0.8846 -0.3762 -3.5806
  167SAPE  H12Y18814   4.538   3.492   5.651 -1.4389 -0.7703  0.0385
  167SAPE  C31318815   4.618   3.501   5.849 -0.8030 -0.2853  0.5250
  167SAPE  H13X18816   4.682   3.585   5.815 -1.2736 -0.1188  0.0232
  167SAPE  H13Y18817   4.675   3.434   5.916 -0.5208 -1.2689 -0.6579
  167SAPE  C31418818   4.492   3.537   5.928 -0.6545 -0.8162  0.1978
  167SAPE  H14X18819   4.427   3.447   5.932  0.6004 -1.9447 -2.6104
  167SAPE  H14Y18820   4.420   3.605   5.877  1.3324 -0.3973 -2.2070
  167SAPE  C31518821   4.533   3.598   6.066  0.5098  0.4300 -0.4536
  167SAPE  H15X18822   4.608   3.531   6.113 -0.0589  0.6776  0.8730
  167SAPE  H15Y18823   4.445   3.595   6.135  0.4509  3.5688 -0.2635
  167SAPE  C31618824   4.575   3.738   6.055 -0.3073  0.4235 -0.2366
  167SAPE  H16X18825   4.488   3.789   6.009  0.0221 -0.6940 -2.2509
  167SAPE  H16Y18826   4.670   3.749   5.998  1.8398  1.6017  3.2661
  167SAPE  C31718827   4.606   3.804   6.192  0.3095 -0.6986 -0.4011
  167SAPE  H17X18828   4.530   3.754   6.256 -1.1593  0.7076 -0.9817
  167SAPE  H17Y18829   4.590   3.914   6.190  0.5396 -0.5832  1.6388
  167SAPE  C31818830   4.751   3.779   6.238  1.0273  0.7472 -0.4750
  167SAPE  H18X18831   4.831   3.813   6.169  0.3013 -0.3319 -1.8955
  167SAPE  H18Y18832   4.761   3.669   6.248  0.6166  0.8807  1.9637
  167SAPE  H18Z18833   4.766   3.826   6.337  0.6858  2.1386 -1.0408
  168SAPE     N18834   0.126   0.806   3.914 -0.1225 -0.5505 -0.3630
  168SAPE   HN118835   0.095   0.734   3.982  0.3838 -0.2800  0.1565
  168SAPE   HN218836   0.099   0.763   3.823 -2.9976 -1.6248  0.8729
  168SAPE   HN318837   0.229   0.812   3.922 -0.2163  1.8932 -0.1123
  168SAPE   C1218838   0.078   0.947   3.938 -0.4962  0.4883 -0.2034
  168SAPE  H12A18839  -0.013   0.942   4.002 -0.4889  2.5233  0.0449
  168SAPE  H12B18840   0.059   1.008   3.847 -2.1083 -1.7656 -1.4804
  168SAPE   C1118841   0.178   1.023   4.023  0.1596  0.3690 -0.7335
  168SAPE  H11A18842   0.131   1.121   4.045  0.2933 -0.0015  1.3738
  168SAPE  H11B18843   0.265   1.048   3.958 -0.0666  1.2561 -0.7034
  168SAPE     P18844   0.130   0.947   4.277 -0.0541 -0.0954  0.1576
  168SAPE   O1318845  -0.015   0.957   4.239 -1.3048  0.3705 -0.2765
  168SAPE   O1418846   0.170   0.827   4.354  0.5858 -0.1755 -0.3650
  168SAPE   O1218847   0.211   0.959   4.143 -0.4453  0.1190 -0.0162
  168SAPE   O1118848   0.169   1.070   4.373  0.6486 -0.3072  0.2515
  168SAPE    C118849   0.238   1.185   4.328 -0.2225 -0.2683 -0.1291
  168SAPE    HA18850   0.201   1.233   4.235  4.0750  3.3636 -0.2914
  168SAPE    HB18851   0.216   1.266   4.401 -1.0446 -0.4004 -0.2192
  168SAPE    C218852   0.392   1.159   4.337 -0.2589 -0.4014 -0.0624
  168SAPE    HS18853   0.421   1.086   4.258 -0.6587  0.4393 -0.9997
  168SAPE   O2118854   0.427   1.128   4.469  0.1557  0.3974 -0.1217
  168SAPE   C2118855   0.479   1.009   4.487 -0.1603  0.4174  0.2662
  168SAPE   O2218856   0.503   0.933   4.396 -0.5586  0.0711 -0.5772
  168SAPE   C2218857   0.495   0.973   4.633  0.3313 -0.5660 -0.1890
  168SAPE   H2R18858   0.551   1.054   4.684 -1.3992  0.5584  0.0259
  168SAPE   H2S18859   0.388   0.976   4.661 -0.1898  0.4897 -2.0960
  168SAPE    C318860   0.471   1.282   4.291 -0.0082 -0.1933 -0.4234
  168SAPE    HX18861   0.420   1.312   4.197  1.2031  1.0097 -0.7292
  168SAPE    HY18862   0.579   1.272   4.270 -0.0834 -2.2749 -0.0831
  168SAPE   O3118863   0.448   1.395   4.377 -0.2498  0.7403 -0.3239
  168SAPE   C3118864   0.540   1.405   4.469  0.4717  0.3815 -0.4719
  168SAPE   O3218865   0.644   1.340   4.478 -0.3170  0.3621 -0.6940
  168SAPE   C3218866   0.496   1.504   4.576  0.1999 -0.3302  0.7675
  168SAPE   H2X18867   0.385   1.493   4.577  0.2181 -0.4768  1.7550
  168SAPE   H2Y18868   0.523   1.602   4.530  1.8675 -0.7436  0.8008
  168SAPE   C2318869   0.543   0.835   4.664  0.5387 -0.4725  0.7680
  168SAPE   H3R18870   0.642   0.824   4.615  1.1234  0.7464  1.6137
  168SAPE   H3S18871   0.469   0.769   4.614 -1.5632  0.1742  2.8357
  168SAPE   C2418872   0.548   0.801   4.816  0.2913  0.3928  0.2953
  168SAPE   H4R18873   0.602   0.893   4.846  2.3787 -0.7618  0.3079
  168SAPE   H4S18874   0.602   0.704   4.825 -1.0755 -0.8194 -2.9726
  168SAPE   C2518875   0.429   0.776   4.906  1.1454 -0.4875  0.5889
  168SAPE   H5R18876   0.340   0.742   4.852  1.0278 -0.4238  0.7427
  168SAPE   C2618877   0.425   0.794   5.037  0.5717 -0.5594 -0.1170
  168SAPE   H6R18878   0.329   0.777   5.088  0.9263  1.9981  1.6210
  168SAPE   C2718879   0.536   0.842   5.132 -0.6752 -0.2627 -0.7067
  168SAPE   H7R18880   0.501   0.922   5.200  3.9733  1.3697  0.1344
  168SAPE   H7S18881   0.615   0.892   5.072  1.7885 -2.0414  0.8310
  168SAPE   C2818882   0.603   0.725   5.197  0.1322 -0.1983 -0.2541
  168SAPE   H8R18883   0.688   0.671   5.153 -0.4852 -0.6726 -0.9074
  168SAPE   C2918884   0.560   0.663   5.306 -0.6707  0.6444  0.8768
  168SAPE   H9R18885   0.627   0.582   5.338 -1.4937 -0.2086  0.5018
  168SAPE  C21018886   0.438   0.695   5.396  0.2322 -0.2828  0.0348
  168SAPE  H10R18887   0.367   0.611   5.412 -0.7579  0.2702 -1.2604
  168SAPE  H10S18888   0.373   0.768   5.344  0.6150 -0.1709 -0.2910
  168SAPE  C21118889   0.491   0.755   5.526  0.7884  0.0451  0.7004
  168SAPE  H11R18890   0.508   0.864   5.516 -0.0504  0.0694 -0.6966
  168SAPE  C21218891   0.528   0.686   5.639  0.1289 -0.0239 -0.6189
  168SAPE  H12R18892   0.558   0.752   5.723  1.2924 -1.2007 -0.0717
  168SAPE  C21318893   0.532   0.539   5.671 -0.7747 -0.0243  0.1619
  168SAPE  H13R18894   0.570   0.520   5.774 -0.2072 -1.5186 -0.3051
  168SAPE  H13S18895   0.613   0.502   5.605 -0.5763 -0.0565  0.4192
  168SAPE  C21418896   0.400   0.466   5.664 -0.1856 -0.6620  0.0571
  168SAPE  H14R18897   0.346   0.488   5.570  3.2684  0.3330 -1.8363
  168SAPE  C21518898   0.345   0.374   5.751  0.1712  0.4301 -0.2540
  168SAPE  H15R18899   0.238   0.354   5.731  0.0988  1.6070 -1.1109
  168SAPE  C21618900   0.408   0.324   5.883  0.5997 -0.6045  0.3188
  168SAPE  H16R18901   0.513   0.361   5.883 -0.0599  1.5498 -1.9369
  168SAPE  H16S18902   0.413   0.213   5.890 -1.8179 -0.7265  0.9558
  168SAPE  C21718903   0.337   0.374   6.012 -0.4749 -0.0062  0.2543
  168SAPE  H17R18904   0.234   0.332   6.016 -0.6899  0.4787 -0.1156
  168SAPE  H17S18905   0.343   0.485   6.005  2.5358 -0.1072 -0.2579
  168SAPE  C21818906   0.416   0.323   6.138 -1.0878  0.9347 -0.0076
  168SAPE  H18R18907   0.521   0.344   6.109 -0.6868 -0.3696  0.4187
  168SAPE  H18S18908   0.389   0.216   6.148  0.5999  0.3079 -1.6432
  168SAPE  C21918909   0.378   0.389   6.267 -0.4817 -0.8614  0.3424
  168SAPE  H19R18910   0.274   0.365   6.298 -0.5582  0.9339  1.5889
  168SAPE  H19S18911   0.375   0.500   6.262  1.0056 -0.7917  0.7733
  168SAPE  C22018912   0.471   0.366   6.389  0.9797  0.5939 -0.3148
  168SAPE  H20R18913   0.461   0.454   6.456 -0.7025  0.1877  0.0005
  168SAPE  H20S18914   0.575   0.354   6.350  0.4284  0.7012 -1.8684
  168SAPE  H20T18915   0.424   0.284   6.448  1.5728  1.0647  0.8452
  168SAPE   C3318916   0.549   1.492   4.714 -0.4431  0.2350 -0.1995
  168SAPE   H3X18917   0.501   1.573   4.773 -1.5242 -2.0068  2.1906
  168SAPE   H3Y18918   0.660   1.500   4.716 -0.3413 -1.0893  0.6839
  168SAPE   C3418919   0.499   1.363   4.777 -0.7717 -0.6768  0.4531
  168SAPE   H4X18920   0.543   1.285   4.711  0.1027  1.2958 -1.4349
  168SAPE   H4Y18921   0.388   1.358   4.771 -0.8466  0.6583  0.5265
  168SAPE   C3518922   0.540   1.362   4.926  0.4615  0.2974  0.2160
  168SAPE   H5X18923   0.450   1.352   4.991  0.9700 -0.2184  0.8641
  168SAPE   H5Y18924   0.589   1.459   4.949 -1.2713  1.3816 -0.4762
  168SAPE   C3618925   0.634   1.241   4.966 -0.5853  0.0489  0.2006
  168SAPE   H6X18926   0.729   1.246   4.909 -1.1047  0.7971 -0.6163
  168SAPE   H6Y18927   0.585   1.152   4.922  0.8616 -0.3602 -0.6402
  168SAPE   C3718928   0.680   1.235   5.113  0.0683 -0.1080 -0.1630
  168SAPE   H7X18929   0.745   1.322   5.134 -0.4299 -0.0720  1.3722
  168SAPE   H7Y18930   0.743   1.145   5.127  0.2607  0.1063  0.3631
  168SAPE   C3818931   0.566   1.228   5.214  0.1039  0.2169 -0.2434
  168SAPE   H8X18932   0.509   1.137   5.184  0.1366  0.1992 -0.2514
  168SAPE   H8Y18933   0.498   1.316   5.214  0.4853  0.5132  0.8151
  168SAPE   C3918934   0.610   1.212   5.361 -0.2153  0.0977 -0.0489
  168SAPE   H9X18935   0.675   1.294   5.400 -1.5349  1.0219  0.2954
  168SAPE   H9Y18936   0.666   1.118   5.381  0.4811  0.6300  0.5838
  168SAPE  C31018937   0.484   1.206   5.461  0.2071 -0.2383  0.0158
  168SAPE  H10X18938   0.417   1.125   5.425  1.1247 -1.0451  0.0846
  168SAPE  H10Y18939   0.444   1.310   5.467 -1.7175 -0.9075 -0.2766
  168SAPE  C31118940   0.510   1.165   5.612  0.4171 -0.1213  0.1583
  168SAPE  H11X18941   0.558   1.252   5.662  1.3815  1.7028 -3.6248
  168SAPE  H11Y18942   0.572   1.073   5.603 -0.0345 -0.3037 -1.3589
  168SAPE  C31218943   0.375   1.120   5.670 -0.1507 -0.3080  0.0137
  168SAPE  H12X18944   0.324   1.046   5.605 -3.5369 -0.0980  2.1806
  168SAPE  H12Y18945   0.308   1.209   5.672 -0.1618 -0.1387 -2.8986
  168SAPE  C31318946   0.386   1.067   5.818 -0.1421 -0.3419 -0.2865
  168SAPE  H13X18947   0.353   1.148   5.887  0.5822 -0.3261  0.0496
  168SAPE  H13Y18948   0.488   1.040   5.851 -0.5999 -2.3069 -0.3836
  168SAPE  C31418949   0.297   0.944   5.842 -0.3280 -0.7160  0.0404
  168SAPE  H14X18950   0.313   0.918   5.949  0.7229  0.1998  0.1214
  168SAPE  H14Y18951   0.335   0.864   5.775  1.2321  0.4708 -0.5428
  168SAPE  C31518952   0.147   0.960   5.834 -0.6433  0.0204  0.4697
  168SAPE  H15X18953   0.114   0.998   5.735 -0.2368 -0.8254 -0.0044
  168SAPE  H15Y18954   0.121   1.043   5.904 -1.6218  0.7793 -0.7561
  168SAPE  C31618955   0.078   0.822   5.852  0.4495 -0.8423  0.3298
  168SAPE  H16X18956  -0.020   0.850   5.896  1.4699  1.0040  1.5845
  168SAPE  H16Y18957   0.135   0.773   5.933 -2.2043  0.0497  2.9328
  168SAPE  C31718958   0.072   0.731   5.728  0.6940  0.3493  0.2166
  168SAPE  H17X18959   0.177   0.724   5.692  1.6384  1.1950  2.6037
  168SAPE  H17Y18960   0.012   0.779   5.647 -0.9642 -1.1021  0.5294
  168SAPE  C31818961   0.006   0.595   5.752 -0.1654 -0.5102 -0.1509
  168SAPE  H18X18962   0.074   0.542   5.822  0.5185  0.4443 -0.0688
  168SAPE  H18Y18963   0.008   0.543   5.654  0.7154 -0.4560 -0.1680
  168SAPE  H18Z18964  -0.101   0.592   5.784  0.0513 -0.5831  0.5784
  169SAPE     N18965   6.702   3.043   4.601 -0.4822  0.6660  0.3323
  169SAPE   HN118966   6.704   3.013   4.502  2.3826 -3.2134  1.3230
  169SAPE   HN218967   6.795   3.061   4.644 -0.4350  0.7049  0.2139
  169SAPE   HN318968   6.665   2.961   4.653 -0.7791  1.4348  1.3723
  169SAPE   C1218969   6.628   3.174   4.608  0.0423  0.3381  0.1298
  169SAPE  H12A18970   6.535   3.164   4.669 -0.0804  0.8839  0.0356
  169SAPE  H12B18971   6.596   3.207   4.507 -0.1799  1.3772  0.5350
  169SAPE   C1118972   6.706   3.295   4.671  0.8259  0.5193 -1.0215
  169SAPE  H11A18973   6.748   3.249   4.763  0.6783 -0.2864 -1.3559
  169SAPE  H11B18974   6.628   3.369   4.700 -0.0705 -0.6799 -0.3067
  169SAPE     P18975   6.783   3.459   4.490 -0.3303 -0.4183 -0.5007
  169SAPE   O1318976   6.909   3.495   4.419  0.4746 -0.1988  0.8433
  169SAPE   O1418977   6.669   3.412   4.409  0.4839 -0.5941  0.2797
  169SAPE   O1218978   6.811   3.348   4.593 -0.0454  0.0751 -0.2017
  169SAPE   O1118979   6.735   3.581   4.565  0.1465  0.1256 -0.2901
  169SAPE    C118980   6.818   3.627   4.670  0.7542 -0.4463  0.0787
  169SAPE    HA18981   6.854   3.545   4.735  1.8639  0.6424  0.8858
  169SAPE    HB18982   6.904   3.686   4.632  0.2558 -1.1690 -2.3051
  169SAPE    C218983   6.740   3.726   4.763  0.0330  0.3735  0.3217
  169SAPE    HS18984   6.722   3.817   4.702 -0.2956 -1.2642 -2.1311
  169SAPE   O2118985   6.821   3.749   4.889  0.1974  0.6075  0.3244
  169SAPE   C2118986   6.802   3.866   4.944  0.2098  0.8691 -0.3678
  169SAPE   O2218987   6.749   3.966   4.899 -0.2824 -0.3396  0.4332
  169SAPE   C2218988   6.873   3.853   5.078  0.8544 -0.0485 -0.2632
  169SAPE   H2R18989   6.971   3.803   5.064  0.5311 -0.1425 -2.5738
  169SAPE   H2S18990   6.897   3.961   5.089 -0.8844  0.5996 -2.1017
  169SAPE    C318991   6.602   3.665   4.795  0.5557  0.3389 -0.2232
  169SAPE    HX18992   6.630   3.574   4.852 -0.9264  0.6812  1.1206
  169SAPE    HY18993   6.545   3.630   4.706 -0.5206  2.0628 -0.2605
  169SAPE   O3118994   6.527   3.746   4.884  0.2757 -0.3992 -0.2862
  169SAPE   C3118995   6.447   3.841   4.839  0.1495 -0.2763 -0.6893
  169SAPE   O3218996   6.431   3.867   4.721  0.5535  0.1044  0.3921
  169SAPE   C3218997   6.376   3.910   4.957  0.2157  0.9099  0.0217
  169SAPE   H2X18998   6.416   4.012   4.975 -1.5119  1.6079  0.1243
  169SAPE   H2Y18999   6.411   3.864   5.052  2.0031  0.6379 -0.7296
  169SAPE   C2319000   6.787   3.792   5.184  0.4728  0.0809 -0.6126
  169SAPE   H3R19001   6.861   3.788   5.266  0.8251 -0.9406 -0.9669
  169SAPE   H3S19002   6.748   3.690   5.165  0.7339 -0.4735  1.6190
  169SAPE   C2419003   6.666   3.876   5.242 -0.7960 -0.1642 -0.7857
  169SAPE   H4R19004   6.596   3.799   5.281  0.5900 -2.0244 -1.8180
  169SAPE   H4S19005   6.615   3.930   5.160  1.6434  1.0969 -1.5581
  169SAPE   C2519006   6.707   3.973   5.347  0.1843  0.5854  0.1628
  169SAPE   H5R19007   6.700   4.078   5.315 -0.7973  0.4374 -0.1450
  169SAPE   C2619008   6.746   3.958   5.474  0.0214 -0.4580 -0.5843
  169SAPE   H6R19009   6.792   4.048   5.517 -0.3446 -0.3447 -0.4260
  169SAPE   C2719010   6.745   3.831   5.556  0.3935  0.8740 -0.1009
  169SAPE   H7R19011   6.687   3.751   5.505  1.0886  0.7260 -0.6726
  169SAPE   H7S19012   6.694   3.855   5.652  0.8929  2.1893 -0.1375
  169SAPE   C2819013   6.888   3.785   5.573  0.0036 -0.2714 -0.8953
  169SAPE   H8R19014   6.941   3.738   5.488  1.5745 -2.3725  1.1087
  169SAPE   C2919015   6.954   3.788   5.691  0.0958 -0.5718  0.1417
  169SAPE   H9R19016   7.056   3.749   5.676 -1.0043 -3.0353 -1.4315
  169SAPE  C21019017   6.920   3.836   5.830  0.0147 -0.1491  0.3746
  169SAPE  H10R19018   6.939   3.757   5.905 -0.5344 -0.5725  0.0719
  169SAPE  H10S19019   6.818   3.880   5.826 -0.0023 -0.2798 -0.9929
  169SAPE  C21119020   6.999   3.955   5.881  0.1253  0.8107  0.2767
  169SAPE  H11R19021   7.054   4.011   5.804 -2.3336 -1.1294 -3.1096
  169SAPE  C21219022   7.010   3.994   6.012  0.5691 -0.0033 -0.3033
  169SAPE  H12R19023   7.078   4.074   6.046  1.2735 -0.8891  0.4166
  169SAPE  C21319024   6.932   3.944   6.129  0.3041 -0.1858  0.4468
  169SAPE  H13R19025   6.850   3.875   6.097 -3.0237  2.9725  1.4306
  169SAPE  H13S19026   6.874   4.025   6.178 -0.2528 -0.0861 -0.3511
  169SAPE  C21419027   7.020   3.865   6.224  0.0042  0.2127 -0.0665
  169SAPE  H14R19028   7.019   3.756   6.208 -2.8006 -0.0832  1.5620
  169SAPE  C21519029   7.082   3.907   6.335  0.1720 -0.3219  0.6708
  169SAPE  H15R19030   7.134   3.836   6.401  0.1594  0.4113  1.4893
  169SAPE  C21619031   7.085   4.051   6.379 -0.5483  0.2613  0.0732
  169SAPE  H16R19032   7.069   4.124   6.297 -1.1719  1.9948  1.6606
  169SAPE  H16S19033   7.181   4.069   6.432 -0.5301  0.0963  0.0954
  169SAPE  C21719034   6.986   4.096   6.495 -0.5366  0.3201 -0.5021
  169SAPE  H17R19035   6.886   4.083   6.448 -0.8950 -1.3483  0.6082
  169SAPE  H17S19036   7.002   4.201   6.527  2.6569 -0.0798 -0.4773
  169SAPE  C21819037   6.993   3.998   6.606 -0.3575 -0.8128  0.2569
  169SAPE  H18R19038   7.080   4.018   6.672 -0.5384 -2.9485  1.2556
  169SAPE  H18S19039   7.013   3.894   6.570  1.6403 -0.7484  1.0823
  169SAPE  C21919040   6.871   4.011   6.697 -0.3827  0.5430  0.6008
  169SAPE  H19R19041   6.776   4.019   6.640 -0.0501  0.2232 -0.0090
  169SAPE  H19S19042   6.882   4.101   6.760  1.3657  0.2293  0.7861
  169SAPE  C22019043   6.858   3.893   6.793 -0.0030  0.4293 -0.3677
  169SAPE  H20R19044   6.865   3.793   6.744  0.8231  1.3233 -2.1906
  169SAPE  H20S19045   6.770   3.904   6.860  0.5955  1.4090  0.2733
  169SAPE  H20T19046   6.948   3.899   6.858 -1.3182  1.6761  1.4345
  169SAPE   C3319047   6.220   3.920   4.946  1.0351 -0.4357  0.1275
  169SAPE   H3X19048   6.190   3.814   4.954  0.2034 -0.2551 -0.4126
  169SAPE   H3Y19049   6.194   3.961   4.846  1.3528 -1.4227 -0.3641
  169SAPE   C3419050   6.151   3.994   5.059  0.3015 -0.6717 -0.6592
  169SAPE   H4X19051   6.041   3.986   5.053  0.2959 -1.0697 -0.0903
  169SAPE   H4Y19052   6.174   4.099   5.031  2.3306 -1.2138 -1.1952
  169SAPE   C3519053   6.214   3.947   5.193  0.1956 -1.1567 -0.1601
  169SAPE   H5X19054   6.323   3.967   5.204  0.2227 -0.3396 -1.6388
  169SAPE   H5Y19055   6.201   3.837   5.200 -1.0127 -1.0006  0.1664
  169SAPE   C3619056   6.149   4.015   5.319 -0.5453  0.1835  0.6217
  169SAPE   H6X19057   6.045   3.985   5.344 -0.1632 -0.4473  1.4785
  169SAPE   H6Y19058   6.155   4.125   5.303 -0.1636 -0.1706 -2.3590
  169SAPE   C3719059   6.236   3.966   5.431 -0.8684 -0.3547 -0.3514
  169SAPE   H7X19060   6.343   3.986   5.407 -0.9423  0.0421 -0.3445
  169SAPE   H7Y19061   6.226   3.855   5.443  1.0518 -0.5106  0.1075
  169SAPE   C3819062   6.211   4.050   5.564  0.6152  0.1568  0.3686
  169SAPE   H8X19063   6.101   4.041   5.575  0.3182  0.7480 -1.6856
  169SAPE   H8Y19064   6.235   4.156   5.540  2.5776 -0.5955 -1.2619
  169SAPE   C3919065   6.272   3.993   5.686  0.3595  0.0142  0.0932
  169SAPE   H9X19066   6.259   3.883   5.682 -0.7099  0.1269  0.3204
  169SAPE   H9Y19067   6.213   4.020   5.776  1.2729  0.6052  0.5317
  169SAPE  C31019068   6.410   4.047   5.710  0.2270 -0.7703  0.2013
  169SAPE  H10X19069   6.403   4.149   5.753 -0.8757 -2.0371  3.3179
  169SAPE  H10Y19070   6.461   4.050   5.612 -3.0418  0.4137 -1.6134
  169SAPE  C31119071   6.498   3.972   5.817  0.0550  0.1558 -0.5391
  169SAPE  H11X19072   6.595   4.026   5.818 -0.2018  0.6596  1.6721
  169SAPE  H11Y19073   6.519   3.874   5.769  0.0642  0.1592 -0.5419
  169SAPE  C31219074   6.449   3.968   5.955  0.4496  0.0369 -0.8060
  169SAPE  H12X19075   6.389   3.874   5.960  0.1346  0.2418 -0.6732
  169SAPE  H12Y19076   6.380   4.050   5.984  1.4065  0.3540  0.6943
  169SAPE  C31319077   6.567   3.973   6.060 -0.0965 -0.1850 -0.1672
  169SAPE  H13X19078   6.629   4.065   6.058 -0.6945  0.2328  0.4686
  169SAPE  H13Y19079   6.627   3.880   6.044  0.1376 -0.4795  2.1621
  169SAPE  C31419080   6.515   3.963   6.204  0.0755 -0.2641 -0.2756
  169SAPE  H14X19081   6.597   3.933   6.273  0.0332 -0.1035 -0.1534
  169SAPE  H14Y19082   6.436   3.885   6.204 -2.6665  2.2958  1.0917
  169SAPE  C31519083   6.438   4.088   6.254  0.7047 -0.2852 -0.2509
  169SAPE  H15X19084   6.367   4.112   6.172 -0.7037 -3.3914 -0.0760
  169SAPE  H15Y19085   6.503   4.178   6.255  1.6496 -0.9261 -1.2840
  169SAPE  C31619086   6.362   4.074   6.385 -0.3648 -0.8379  0.8796
  169SAPE  H16X19087   6.418   4.021   6.465 -0.2868 -1.5497  0.3634
  169SAPE  H16Y19088   6.268   4.016   6.374 -0.7861  0.0033 -0.1434
  169SAPE  C31719089   6.310   4.212   6.433  0.0098  0.7093  0.1637
  169SAPE  H17X19090   6.226   4.178   6.497 -0.1695 -1.1076 -0.9488
  169SAPE  H17Y19091   6.279   4.275   6.347  0.6606 -0.1961 -0.7646
  169SAPE  C31819092   6.407   4.288   6.521  0.5836 -0.5029 -0.0197
  169SAPE  H18X19093   6.371   4.392   6.532  1.2373 -0.3454  0.6698
  169SAPE  H18Y19094   6.502   4.285   6.465  1.1107  2.9205  0.4634
  169SAPE  H18Z19095   6.424   4.240   6.620  0.7833  0.5861  0.4915
  170SAPE     N19096   5.263   6.572   5.214 -0.3457 -0.1266 -0.4410
  170SAPE   HN119097   5.242   6.671   5.189  0.0032 -0.0489 -0.4353
  170SAPE   HN219098   5.183   6.521   5.257 -1.2166 -1.3891 -3.2579
  170SAPE   HN319099   5.345   6.574   5.277 -0.0614  3.1170 -0.7523
  170SAPE   C1219100   5.289   6.510   5.081 -0.2126  0.1238 -0.0636
  170SAPE  H12A19101   5.377   6.443   5.090 -0.6996 -0.8132 -1.7965
  170SAPE  H12B19102   5.300   6.592   5.006 -2.7235  1.8891  1.3775
  170SAPE   C1119103   5.170   6.414   5.050  0.5347  0.3649  0.6556
  170SAPE  H11A19104   5.198   6.359   4.957  1.1166  1.6831  0.0205
  170SAPE  H11B19105   5.094   6.492   5.024  1.0608  0.1229 -1.8491
  170SAPE     P19106   5.017   6.226   5.136  0.2484 -0.0459  0.0139
  170SAPE   O1319107   4.879   6.264   5.185  0.1836  0.0917  0.1575
  170SAPE   O1419108   5.026   6.184   4.995  0.5628 -0.5384  0.4044
  170SAPE   O1219109   5.124   6.339   5.167  0.7799  0.2321  0.2494
  170SAPE   O1119110   5.057   6.104   5.229  0.1625 -0.2580 -0.0350
  170SAPE    C119111   5.190   6.064   5.248  0.7281  0.4467 -0.0599
  170SAPE    HA19112   5.206   5.970   5.192 -1.5494  0.8644 -1.5268
  170SAPE    HB19113   5.265   6.132   5.202  0.8704 -1.5448 -3.0178
  170SAPE    C219114   5.219   6.048   5.392 -0.3252 -0.0477 -0.2977
  170SAPE    HS19115   5.324   6.015   5.409  0.3317  2.7224  1.7665
  170SAPE   O2119116   5.127   5.950   5.452 -0.3563 -0.3870 -0.2540
  170SAPE   C2119117   5.158   5.825   5.428 -0.3355  0.1910  0.5474
  170SAPE   O2219118   5.249   5.785   5.360 -0.2404  0.0838 -0.3329
  170SAPE   C2219119   5.047   5.741   5.486  0.0076  0.8237 -0.4643
  170SAPE   H2R19120   5.004   5.789   5.577 -1.3167  0.7461 -1.0177
  170SAPE   H2S19121   4.961   5.748   5.416 -1.8919 -1.0679  1.5050
  170SAPE    C319122   5.212   6.188   5.460  0.1363  0.6930  0.3439
  170SAPE    HX19123   5.111   6.233   5.446 -0.4909 -0.8554 -0.3739
  170SAPE    HY19124   5.285   6.257   5.415 -2.3173  2.2330 -1.5467
  170SAPE   O3119125   5.238   6.159   5.603 -0.5396  0.4266  0.8846
  170SAPE   C3119126   5.240   6.269   5.681  0.1665 -0.4468  0.4536
  170SAPE   O3219127   5.221   6.385   5.640  0.3341  0.2669 -0.4335
  170SAPE   C3219128   5.292   6.223   5.814  0.4776 -0.3862 -0.2736
  170SAPE   H2X19129   5.401   6.204   5.800 -0.0407 -2.3156 -2.3853
  170SAPE   H2Y19130   5.249   6.122   5.834 -0.2212 -0.0275  0.0555
  170SAPE   C2319131   5.083   5.597   5.520 -0.4043  0.2351  0.0281
  170SAPE   H3R19132   5.109   5.540   5.429 -1.0456 -0.0916  0.0438
  170SAPE   H3S19133   4.997   5.544   5.566 -0.3012  0.6559  0.7205
  170SAPE   C2419134   5.209   5.579   5.610 -0.9575 -0.1023 -0.3697
  170SAPE   H4R19135   5.287   5.654   5.587 -0.5452 -0.8323 -1.4039
  170SAPE   H4S19136   5.253   5.484   5.573  1.1904 -0.0751  1.8030
  170SAPE   C2519137   5.190   5.560   5.755  0.4483  0.1553  0.0677
  170SAPE   H5R19138   5.144   5.462   5.779 -1.5581  0.6255 -1.5818
  170SAPE   C2619139   5.205   5.657   5.846 -0.2876  0.8321  1.0119
  170SAPE   H6R19140   5.205   5.625   5.951 -0.8999 -0.0235  0.7634
  170SAPE   C2719141   5.243   5.802   5.819  0.4431  0.3546  0.6139
  170SAPE   H7R19142   5.278   5.823   5.716 -1.2514  1.1871  0.1647
  170SAPE   H7S19143   5.334   5.829   5.877  0.6898 -0.4362  0.5995
  170SAPE   C2819144   5.118   5.880   5.838 -0.3803 -0.7250  0.3660
  170SAPE   H8R19145   5.054   5.894   5.749  0.8078  1.0875 -0.2636
  170SAPE   C2919146   5.089   5.941   5.953  0.0593 -0.2148 -0.0143
  170SAPE   H9R19147   4.994   5.995   5.965 -1.1048 -2.4960  1.8420
  170SAPE  C21019148   5.172   5.955   6.076 -0.4064  0.4516 -0.5287
  170SAPE  H10R19149   5.177   6.065   6.094  0.1268  0.5068 -0.9727
  170SAPE  H10S19150   5.277   5.925   6.054  0.2484  2.6880 -0.6581
  170SAPE  C21119151   5.108   5.886   6.195  0.5711 -0.5138  0.1050
  170SAPE  H11R19152   4.999   5.873   6.195  0.5099 -0.3688 -1.7169
  170SAPE  C21219153   5.167   5.833   6.310  0.1415  0.1410  0.7058
  170SAPE  H12R19154   5.097   5.794   6.385 -0.3811 -1.6986 -0.6638
  170SAPE  C21319155   5.316   5.829   6.339  0.5548  0.0192  0.0080
  170SAPE  H13R19156   5.346   5.933   6.365  0.1415 -0.0123  0.6247
  170SAPE  H13S19157   5.379   5.809   6.249  0.9132  0.1682  0.2228
  170SAPE  C21419158   5.357   5.723   6.439 -0.1724  0.0178  0.3328
  170SAPE  H14R19159   5.330   5.624   6.401 -1.0541  0.0663  0.7933
  170SAPE  C21519160   5.421   5.738   6.554  0.2616 -0.4091 -0.0469
  170SAPE  H15R19161   5.453   5.649   6.609  0.4846  0.0192  0.5348
  170SAPE  C21619162   5.458   5.876   6.627 -1.0049  0.6194  0.5608
  170SAPE  H16R19163   5.429   5.876   6.734 -0.8633 -0.6693  0.6210
  170SAPE  H16S19164   5.405   5.963   6.584 -0.4957 -0.0446 -1.5732
  170SAPE  C21719165   5.612   5.907   6.610  0.1270  0.1622  0.0165
  170SAPE  H17R19166   5.637   6.012   6.635  2.0390 -0.8162  2.7808
  170SAPE  H17S19167   5.625   5.904   6.500 -0.3766  0.5266 -0.0569
  170SAPE  C21819168   5.709   5.811   6.687 -0.0031  0.2070  0.0964
  170SAPE  H18R19169   5.675   5.705   6.684 -0.1601  0.1738  1.8758
  170SAPE  H18S19170   5.732   5.840   6.792  3.3392  1.1407 -0.7764
  170SAPE  C21919171   5.846   5.801   6.621  0.1484 -0.1222  0.3809
  170SAPE  H19R19172   5.903   5.882   6.673  1.3439 -0.9023  0.3207
  170SAPE  H19S19173   5.832   5.815   6.512 -0.5164 -0.1468  0.4567
  170SAPE  C22019174   5.927   5.669   6.646 -0.5954 -0.4677  0.4201
  170SAPE  H20R19175   6.034   5.684   6.622 -0.5712 -0.7019  0.3871
  170SAPE  H20S19176   5.888   5.589   6.580  1.6472 -0.0916 -1.4862
  170SAPE  H20T19177   5.916   5.626   6.747  0.9279 -1.0176  0.3725
  170SAPE   C3319178   5.263   6.320   5.925 -0.2416 -0.2942  0.3105
  170SAPE   H3X19179   5.158   6.306   5.957 -1.2530  0.4202 -2.4160
  170SAPE   H3Y19180   5.269   6.424   5.886  1.0664 -1.2753 -2.4192
  170SAPE   C3419181   5.368   6.295   6.034  0.1643 -0.3810  0.4049
  170SAPE   H4X19182   5.454   6.360   6.009 -0.3103  0.6629  1.4276
  170SAPE   H4Y19183   5.407   6.191   6.041  0.7261 -0.2086 -0.0392
  170SAPE   C3519184   5.309   6.323   6.173 -0.0165  1.2655  0.1796
  170SAPE   H5X19185   5.221   6.256   6.186 -0.2803  1.7938  1.2630
  170SAPE   H5Y19186   5.262   6.423   6.167  0.8111  1.7544  1.3993
  170SAPE   C3619187   5.407   6.317   6.285 -0.0309 -0.1469 -0.7201
  170SAPE   H6X19188   5.502   6.354   6.239  0.1105 -0.9836 -1.1348
  170SAPE   H6Y19189   5.403   6.209   6.314  0.1004 -0.2222 -0.9750
  170SAPE   C3719190   5.368   6.402   6.407 -0.4742 -0.1678 -0.1809
  170SAPE   H7X19191   5.295   6.346   6.469  0.6590  1.2061  2.5959
  170SAPE   H7Y19192   5.324   6.499   6.374  0.7944  0.1778 -0.9371
  170SAPE   C3819193   5.488   6.441   6.499  0.5316  0.6362 -0.4062
  170SAPE   H8X19194   5.549   6.515   6.443 -0.6655  1.5115 -0.5833
  170SAPE   H8Y19195   5.544   6.347   6.520 -0.7265  0.4744  2.8824
  170SAPE   C3919196   5.440   6.506   6.632 -0.3419 -0.6559  0.2156
  170SAPE   H9X19197   5.343   6.466   6.668 -0.7797  1.1742  1.1729
  170SAPE   H9Y19198   5.436   6.615   6.615 -0.1465 -0.8727 -1.4158
  170SAPE  C31019199   5.533   6.474   6.751  0.0381 -0.2754  0.0340
  170SAPE  H10X19200   5.630   6.527   6.739  0.2749 -0.2405  1.7656
  170SAPE  H10Y19201   5.543   6.364   6.758 -0.2723 -0.3145 -0.1130
  170SAPE  C31119202   5.472   6.516   6.885  0.4513 -0.4533 -0.4634
  170SAPE  H11X19203   5.435   6.430   6.944 -2.0859  0.8406 -0.0519
  170SAPE  H11Y19204   5.386   6.578   6.855  0.2128  0.7153  2.3591
  170SAPE  C31219205   5.567   6.596   6.968 -0.7161 -0.0970 -0.1235
  170SAPE  H12X19206   5.581   6.696   6.922 -1.1098  0.3323  0.6779
  170SAPE  H12Y19207   5.669   6.551   6.977  0.1605  1.7249 -0.4452
  170SAPE  C31319208   5.497   6.632   7.108 -0.1804 -0.8247 -0.1390
  170SAPE  H13X19209   5.406   6.693   7.088  0.7812  0.3425 -1.1069
  170SAPE  H13Y19210   5.572   6.692   7.163  0.7562 -0.7576 -1.4509
  170SAPE  C31419211   5.475   6.511   7.200  0.3270 -0.6860  0.4023
  170SAPE  H14X19212   5.574   6.465   7.219  1.1118  1.1219  0.8549
  170SAPE  H14Y19213   5.405   6.449   7.139 -0.0838  0.3303 -0.1838
  170SAPE  C31519214   5.405   6.555   7.326  0.1975 -0.1493 -1.0712
  170SAPE  H15X19215   5.305   6.602   7.315 -0.0212 -0.3838 -0.1489
  170SAPE  H15Y19216   5.467   6.638   7.366 -3.2684  1.9024  0.4707
  170SAPE  C31619217   5.389   6.436   7.429  0.2175 -0.1133 -0.3502
  170SAPE  H16X19218   5.491   6.433   7.473  0.8069  1.0088 -1.5537
  170SAPE  H16Y19219   5.368   6.338   7.380 -0.9380  0.9106 -2.0181
  170SAPE  C31719220   5.284   6.473   7.539 -0.8803  0.5953  0.4713
  170SAPE  H17X19221   5.272   6.389   7.611 -1.5113 -0.3614 -0.7138
  170SAPE  H17Y19222   5.187   6.471   7.485 -1.7466 -1.1939  1.9905
  170SAPE  C31819223   5.309   6.603   7.616  0.4783  0.2131  0.4662
  170SAPE  H18X19224   5.329   6.697   7.560 -1.2089 -0.7992 -2.0168
  170SAPE  H18Y19225   5.401   6.595   7.677  0.7514 -1.7356 -0.1315
  170SAPE  H18Z19226   5.221   6.605   7.684 -0.4348 -0.6891 -0.6382
  171SAPE     N19227   6.391   6.274   4.935 -0.9217  0.3293  0.2732
  171SAPE   HN119228   6.450   6.315   5.011  0.0404 -1.1009  0.3330
  171SAPE   HN219229   6.320   6.341   4.900 -0.4256  0.7157 -0.0244
  171SAPE   HN319230   6.344   6.190   4.973  2.5023 -1.2069  1.5667
  171SAPE   C1219231   6.480   6.230   4.825 -0.6359  0.2333  0.0997
  171SAPE  H12A19232   6.545   6.315   4.795  1.1591 -0.5854  1.4958
  171SAPE  H12B19233   6.412   6.194   4.745  0.3267  0.1433 -0.7007
  171SAPE   C1119234   6.564   6.103   4.865  0.2498 -0.1761 -0.3227
  171SAPE  H11A19235   6.639   6.126   4.944 -0.8916 -2.2426  1.4741
  171SAPE  H11B19236   6.627   6.076   4.777  1.2241 -2.4914  0.9867
  171SAPE     P19237   6.470   5.856   4.848  0.3740 -0.7192 -0.0219
  171SAPE   O1319238   6.374   5.860   4.733  0.3925 -0.0280 -0.1678
  171SAPE   O1419239   6.604   5.819   4.798  0.2409 -0.2964  0.1351
  171SAPE   O1219240   6.482   5.998   4.914  0.1328 -0.2063 -0.0736
  171SAPE   O1119241   6.430   5.765   4.969 -0.5222  0.2719  0.1734
  171SAPE    C119242   6.323   5.792   5.057  0.1456 -0.4806 -0.1104
  171SAPE    HA19243   6.369   5.828   5.151  0.4238 -2.7450  0.6833
  171SAPE    HB19244   6.251   5.863   5.011 -1.3056 -2.1470 -0.5250
  171SAPE    C219245   6.255   5.658   5.089  0.1584  0.0272  1.0287
  171SAPE    HS19246   6.174   5.677   5.161 -1.1981 -2.1652  0.1701
  171SAPE   O2119247   6.353   5.577   5.139  0.1071 -0.2418  0.1504
  171SAPE   C2119248   6.365   5.561   5.277  0.0807  0.4850  0.4222
  171SAPE   O2219249   6.297   5.623   5.355  0.3888 -0.5760 -0.5801
  171SAPE   C2219250   6.487   5.478   5.315 -0.4374 -0.1600  0.1051
  171SAPE   H2R19251   6.572   5.523   5.258 -0.3406 -0.1005  0.2962
  171SAPE   H2S19252   6.508   5.492   5.423 -0.2264 -2.6290  0.4283
  171SAPE    C319253   6.199   5.590   4.956  0.0791 -0.2167 -0.2521
  171SAPE    HX19254   6.281   5.541   4.900  0.3971 -1.3594  1.1604
  171SAPE    HY19255   6.150   5.660   4.884 -1.4081 -2.3229 -1.4014
  171SAPE   O3119256   6.087   5.504   4.992  0.3412 -0.0322  0.2136
  171SAPE   C3119257   6.117   5.378   5.009 -0.4290  0.2591 -0.2268
  171SAPE   O3219258   6.224   5.324   4.986 -0.0785  0.9070 -0.4058
  171SAPE   C3219259   6.002   5.309   5.090  0.3333 -0.3512  0.2795
  171SAPE   H2X19260   5.987   5.220   5.026  4.0055  0.1768 -1.6258
  171SAPE   H2Y19261   5.911   5.371   5.105  0.0005 -0.2502 -1.8797
  171SAPE   C2319262   6.474   5.332   5.282  0.3289 -0.1423  1.0551
  171SAPE   H3R19263   6.468   5.343   5.171  0.8693  1.9990  1.1995
  171SAPE   H3S19264   6.371   5.308   5.316 -1.4563  2.1753 -2.0595
  171SAPE   C2419265   6.589   5.245   5.340  0.0008  0.1979 -0.6821
  171SAPE   H4R19266   6.583   5.260   5.450  0.6964  3.1265 -0.9685
  171SAPE   H4S19267   6.682   5.298   5.311  1.0867  0.5217  2.9104
  171SAPE   C2519268   6.585   5.098   5.310  0.1212 -0.1368  0.8255
  171SAPE   H5R19269   6.583   5.072   5.203  0.8202  0.1261  0.7372
  171SAPE   C2619270   6.576   4.992   5.393 -0.2930  0.5246 -0.7156
  171SAPE   H6R19271   6.596   4.897   5.342 -1.0518  1.1091 -2.1908
  171SAPE   C2719272   6.581   4.998   5.548  0.5066  0.1723 -0.6454
  171SAPE   H7R19273   6.502   5.067   5.585 -0.9410 -0.7651 -1.8376
  171SAPE   H7S19274   6.675   5.044   5.586 -0.1842  0.3476  0.8892
  171SAPE   C2819275   6.571   4.857   5.611  0.8545 -0.4346 -0.0998
  171SAPE   H8R19276   6.540   4.782   5.536  0.6718 -0.0390 -0.4238
  171SAPE   C2919277   6.614   4.824   5.733 -0.0769 -0.0893 -0.2925
  171SAPE   H9R19278   6.615   4.718   5.763 -1.1804 -0.1518 -0.4390
  171SAPE  C21019279   6.679   4.920   5.834  0.4597  0.6387  0.6283
  171SAPE  H10R19280   6.733   5.005   5.786  1.8776 -0.1335  0.8226
  171SAPE  H10S19281   6.755   4.858   5.885 -0.9916 -0.6521  1.3019
  171SAPE  C21119282   6.582   4.970   5.938  0.2943 -0.0928 -0.9074
  171SAPE  H11R19283   6.526   5.063   5.916 -0.6895 -0.4612 -0.0809
  171SAPE  C21219284   6.562   4.914   6.063  0.3252  0.2028 -0.0819
  171SAPE  H12R19285   6.498   4.972   6.130 -1.4569  0.8138 -2.1978
  171SAPE  C21319286   6.610   4.787   6.123  0.5385 -0.0024 -0.8231
  171SAPE  H13R19287   6.653   4.811   6.222 -0.8628 -1.5427  0.2004
  171SAPE  H13S19288   6.695   4.745   6.063  0.7941 -2.7162  1.2442
  171SAPE  C21419289   6.497   4.687   6.125 -0.5033 -0.0900  0.7967
  171SAPE  H14R19290   6.460   4.670   6.023 -1.0499 -0.0944  0.9949
  171SAPE  C21519291   6.441   4.625   6.227 -0.1878  0.3092 -0.4710
  171SAPE  H15R19292   6.355   4.562   6.199  1.9632 -2.5276 -1.0782
  171SAPE  C21619293   6.461   4.634   6.379 -0.1349  0.0768 -0.0982
  171SAPE  H16R19294   6.559   4.677   6.411 -0.7258  0.5849  1.1302
  171SAPE  H16S19295   6.471   4.530   6.418 -1.0449 -0.3127 -0.8800
  171SAPE  C21719296   6.346   4.698   6.458 -0.6738  0.5276  0.3401
  171SAPE  H17R19297   6.253   4.648   6.422 -0.4558  0.6196 -0.3701
  171SAPE  H17S19298   6.347   4.803   6.421 -2.3531  1.1192  1.8148
  171SAPE  C21819299   6.367   4.686   6.612  0.5803  0.3460 -0.2639
  171SAPE  H18R19300   6.378   4.579   6.641 -2.2223 -0.7786 -2.7556
  171SAPE  H18S19301   6.280   4.726   6.668  2.9233  0.2200  3.8298
  171SAPE  C21919302   6.492   4.764   6.659 -0.0701  0.4177  0.0430
  171SAPE  H19R19303   6.571   4.764   6.580 -1.3941  1.0770 -1.3286
  171SAPE  H19S19304   6.521   4.724   6.758  0.6121  1.7765  0.4213
  171SAPE  C22019305   6.466   4.911   6.688 -0.8171  0.1828 -0.1324
  171SAPE  H20R19306   6.481   4.971   6.596 -0.2648 -0.3580 -0.4067
  171SAPE  H20S19307   6.544   4.938   6.764 -0.1491 -0.9601 -0.3763
  171SAPE  H20T19308   6.369   4.939   6.734 -0.1812  1.3779  0.5328
  171SAPE   C3319309   6.051   5.259   5.229  0.1419  0.0313  0.5585
  171SAPE   H3X19310   5.961   5.253   5.293 -1.6887 -0.3305 -1.9215
  171SAPE   H3Y19311   6.116   5.340   5.269  1.0709 -0.3332 -0.1748
  171SAPE   C3419312   6.119   5.127   5.221  0.1072  0.0191  0.6316
  171SAPE   H4X19313   6.197   5.132   5.141  0.0495  2.1666  0.6725
  171SAPE   H4Y19314   6.041   5.054   5.192  0.5342 -0.7113  1.2715
  171SAPE   C3519315   6.186   5.074   5.345  0.9227  0.4627 -0.4717
  171SAPE   H5X19316   6.290   5.110   5.362  0.5503  1.6487 -0.6260
  171SAPE   H5Y19317   6.193   4.964   5.330 -1.5133  0.0892  0.7024
  171SAPE   C3619318   6.108   5.101   5.474  0.7324  0.4646 -0.1075
  171SAPE   H6X19319   6.023   5.031   5.455  1.7270 -0.6973 -0.4333
  171SAPE   H6Y19320   6.076   5.207   5.479 -2.2385 -0.2586 -1.7269
  171SAPE   C3719321   6.175   5.047   5.603  0.2634 -0.0089 -0.2890
  171SAPE   H7X19322   6.285   5.055   5.594  0.4590 -1.1490  0.8199
  171SAPE   H7Y19323   6.133   4.944   5.599 -2.7040  1.0335  1.0392
  171SAPE   C3819324   6.128   5.125   5.723 -0.0611 -0.1002  0.5469
  171SAPE   H8X19325   6.019   5.142   5.716  0.0631  0.0915 -1.2069
  171SAPE   H8Y19326   6.165   5.227   5.701  1.2942 -0.8570 -0.9249
  171SAPE   C3919327   6.163   5.067   5.855 -0.1640 -0.4421 -0.5100
  171SAPE   H9X19328   6.271   5.044   5.868 -0.9433 -4.0901  0.8676
  171SAPE   H9Y19329   6.122   4.964   5.862  1.9478 -1.2916  0.6515
  171SAPE  C31019330   6.123   5.152   5.971  0.0645 -0.1658  0.4870
  171SAPE  H10X19331   6.023   5.200   5.965 -0.9293 -2.2631 -0.6226
  171SAPE  H10Y19332   6.192   5.237   5.950 -0.4542  0.3606  0.8826
  171SAPE  C31119333   6.138   5.080   6.102 -0.3304  0.2350  0.2308
  171SAPE  H11X19334   6.236   5.027   6.103 -0.3689  0.1188 -0.8781
  171SAPE  H11Y19335   6.075   4.991   6.123 -1.4891 -0.0078 -3.6368
  171SAPE  C31219336   6.139   5.182   6.218  0.0813 -0.2851  0.2914
  171SAPE  H12X19337   6.033   5.214   6.228  0.6906  1.4750  1.6907
  171SAPE  H12Y19338   6.216   5.262   6.210  0.8045 -0.8547  1.3342
  171SAPE  C31319339   6.194   5.103   6.335 -0.1502 -0.5620 -0.6662
  171SAPE  H13X19340   6.215   5.189   6.403  0.1030  3.1023 -4.9039
  171SAPE  H13Y19341   6.293   5.059   6.310 -0.6494 -2.2314  0.1908
  171SAPE  C31419342   6.111   4.989   6.397  0.4607 -0.4164  0.8384
  171SAPE  H14X19343   6.167   4.954   6.486  2.4920 -0.2095 -0.2988
  171SAPE  H14Y19344   6.099   4.898   6.334 -0.2342  0.3440 -0.1714
  171SAPE  C31519345   5.977   5.059   6.448 -0.2807 -0.1347  0.7418
  171SAPE  H15X19346   5.921   5.086   6.356  0.7332 -1.4973 -0.3363
  171SAPE  H15Y19347   6.000   5.143   6.517 -0.9288  0.0200  0.7793
  171SAPE  C31619348   5.890   4.952   6.520  0.7145 -0.2983 -0.4201
  171SAPE  H16X19349   5.896   4.862   6.456  2.8038 -0.2610 -0.3412
  171SAPE  H16Y19350   5.791   5.001   6.510  0.7097 -0.2534 -0.1630
  171SAPE  C31719351   5.937   4.924   6.665  0.3262  0.1359 -0.4839
  171SAPE  H17X19352   5.944   5.019   6.722  0.3594 -0.7794  1.0667
  171SAPE  H17Y19353   6.040   4.882   6.666 -0.5864 -2.2201  0.4260
  171SAPE  C31819354   5.854   4.815   6.740  0.3730 -0.4687 -0.4261
  171SAPE  H18X19355   5.892   4.794   6.843 -2.4193 -0.7712  0.6151
  171SAPE  H18Y19356   5.843   4.719   6.685  0.0142 -0.7088  0.0597
  171SAPE  H18Z19357   5.754   4.861   6.751  0.6019 -0.2703  1.0395
  172SAPE     N19358   0.145   6.645   4.835 -0.1969 -0.6242  0.2682
  172SAPE   HN119359   0.198   6.559   4.863 -0.9804 -0.9630  0.7290
  172SAPE   HN219360   0.055   6.616   4.792  0.1646 -0.8828 -0.3473
  172SAPE   HN319361   0.202   6.699   4.766 -0.1616 -0.9701  0.0230
  172SAPE   C1219362   0.108   6.713   4.962  0.2716 -0.5357  0.0951
  172SAPE  H12A19363   0.199   6.765   4.998 -0.3996 -1.3403  3.2426
  172SAPE  H12B19364   0.096   6.628   5.033  0.6582  0.2073  1.0778
  172SAPE   C1119365  -0.005   6.816   4.943 -0.3459 -0.3063 -0.4999
  172SAPE  H11A19366  -0.024   6.873   5.037  2.4209  0.1550 -0.1293
  172SAPE  H11B19367  -0.096   6.770   4.899 -0.3131  0.1413 -1.0404
  172SAPE     P19368  -0.049   7.054   4.850  0.1465 -0.5415 -0.1434
  172SAPE   O1319369   0.016   7.132   4.748 -0.3603 -0.5486  0.4327
  172SAPE   O1419370  -0.198   7.048   4.846 -0.1348  0.4393 -0.4616
  172SAPE   O1219371   0.025   6.914   4.843 -0.2930  0.3340 -0.2583
  172SAPE   O1119372  -0.013   7.093   4.996 -0.0864 -0.6358 -0.5615
  172SAPE    C119373   0.130   7.118   5.020 -0.1651  0.4989 -0.0255
  172SAPE    HA19374   0.183   7.023   5.042 -0.7786  0.3908  1.0494
  172SAPE    HB19375   0.186   7.174   4.943  1.3772 -0.6915  0.1894
  172SAPE    C219376   0.147   7.179   5.160  0.4749 -0.0408 -0.4210
  172SAPE    HS19377   0.117   7.104   5.236 -0.7548  1.3223  0.4972
  172SAPE   O2119378   0.062   7.298   5.156 -0.0190  0.4421  0.0457
  172SAPE   C2119379   0.036   7.335   5.281 -0.0906  0.0783  0.2404
  172SAPE   O2219380   0.074   7.278   5.380 -0.3754 -0.0380 -0.1873
  172SAPE   C2219381  -0.061   7.455   5.271 -0.5597  0.2343 -0.3004
  172SAPE   H2R19382  -0.021   7.522   5.192  0.2488 -0.7985 -0.7967
  172SAPE   H2S19383  -0.164   7.419   5.256 -0.2885 -1.0045  0.6409
  172SAPE    C319384   0.298   7.212   5.181 -0.3909  0.8211  0.0882
  172SAPE    HX19385   0.310   7.255   5.283  1.1583 -0.3337  0.4212
  172SAPE    HY19386   0.338   7.279   5.102 -0.4747 -0.5669 -1.1710
  172SAPE   O3119387   0.372   7.083   5.170 -0.2889 -0.6285 -0.1357
  172SAPE   C3119388   0.415   7.036   5.289 -0.0014  0.1494  0.7037
  172SAPE   O3219389   0.373   7.077   5.396  0.3156 -0.1739 -0.3228
  172SAPE   C3219390   0.504   6.917   5.262 -0.3466 -0.2515  0.1872
  172SAPE   H2X19391   0.595   6.938   5.201 -1.4811  0.1568 -1.4181
  172SAPE   H2Y19392   0.437   6.851   5.202 -0.3627  0.3257 -0.4347
  172SAPE   C2319393  -0.052   7.532   5.410  0.5435 -0.3236 -0.3607
  172SAPE   H3R19394   0.048   7.563   5.447  0.6828 -2.0681  0.8824
  172SAPE   H3S19395  -0.082   7.458   5.488 -0.8358 -0.7917 -1.2845
  172SAPE   C2419396  -0.140   7.660   5.414  0.4482  0.2669 -0.4478
  172SAPE   H4R19397  -0.120   7.721   5.323 -1.7029  0.7748 -0.6351
  172SAPE   H4S19398  -0.094   7.713   5.501  1.5394 -0.7163 -0.3955
  172SAPE   C2519399  -0.288   7.631   5.423 -0.8214 -0.0394 -0.4971
  172SAPE   H5R19400  -0.336   7.611   5.326 -1.0794 -1.4050 -0.1131
  172SAPE   C2619401  -0.359   7.619   5.536  0.0635 -0.3407  1.1534
  172SAPE   H6R19402  -0.464   7.593   5.517  0.6184  0.3098 -4.4502
  172SAPE   C2719403  -0.312   7.636   5.670 -0.2516 -0.8562 -0.5144
  172SAPE   H7R19404  -0.244   7.724   5.681 -0.1295 -1.0480  0.3783
  172SAPE   H7S19405  -0.261   7.540   5.691 -0.2126 -1.2299 -2.2079
  172SAPE   C2819406  -0.425   7.650   5.773 -0.3591 -1.0510 -0.3042
  172SAPE   H8R19407  -0.523   7.686   5.737 -1.4120 -1.2626  2.1527
  172SAPE   C2919408  -0.405   7.636   5.904 -0.2059  0.8169  0.4036
  172SAPE   H9R19409  -0.489   7.652   5.973 -0.9750  0.0189 -0.3156
  172SAPE  C21019410  -0.278   7.583   5.972  0.5929 -0.3512  0.8364
  172SAPE  H10R19411  -0.231   7.670   6.024 -1.5130  0.0877  2.1442
  172SAPE  H10S19412  -0.222   7.523   5.898  1.1738  1.8781 -0.6364
  172SAPE  C21119413  -0.315   7.482   6.077  0.3404  0.0538  0.0973
  172SAPE  H11R19414  -0.340   7.379   6.048 -0.6275  0.1705  0.4870
  172SAPE  C21219415  -0.345   7.510   6.206  1.3334  0.0488 -0.0096
  172SAPE  H12R19416  -0.380   7.430   6.273 -1.8106  0.8667 -0.4792
  172SAPE  C21319417  -0.349   7.648   6.265  0.2200 -1.1799 -0.9159
  172SAPE  H13R19418  -0.452   7.691   6.266  0.6163 -0.1898 -1.9094
  172SAPE  H13S19419  -0.297   7.721   6.200 -2.3805 -0.3436 -2.2236
  172SAPE  C21419420  -0.300   7.653   6.411 -0.4902  0.2251 -0.1622
  172SAPE  H14R19421  -0.369   7.605   6.482 -2.4611  1.4958 -1.1487
  172SAPE  C21519422  -0.208   7.738   6.460  0.4292 -0.5843  0.1655
  172SAPE  H15R19423  -0.181   7.725   6.565  0.5658  0.5287  0.2803
  172SAPE  C21619424  -0.111   7.817   6.375  0.2979  0.7558  0.4730
  172SAPE  H16R19425  -0.158   7.912   6.342 -2.0480 -0.6236 -0.4237
  172SAPE  H16S19426  -0.067   7.764   6.288  1.8736 -0.1720  1.7803
  172SAPE  C21719427   0.007   7.854   6.473 -0.8149 -0.9159  0.2894
  172SAPE  H17R19428  -0.008   7.925   6.558  1.4664  0.8089 -0.6183
  172SAPE  H17S19429   0.077   7.919   6.416 -0.2292  0.5966  2.5572
  172SAPE  C21819430   0.091   7.726   6.512 -0.9214  0.4807  0.0788
  172SAPE  H18R19431   0.120   7.678   6.416 -0.9214 -2.6453  1.5177
  172SAPE  H18S19432   0.016   7.656   6.556 -0.9437 -1.0807 -2.2683
  172SAPE  C21919433   0.212   7.754   6.600  0.2555  0.1131  0.2508
  172SAPE  H19R19434   0.177   7.754   6.706 -0.5147  0.2059  0.0009
  172SAPE  H19S19435   0.244   7.855   6.567  1.3237 -0.3051 -0.0138
  172SAPE  C22019436   0.334   7.658   6.580  0.4087 -0.0407 -0.3148
  172SAPE  H20R19437   0.390   7.666   6.676 -0.2866  1.5854 -0.0112
  172SAPE  H20S19438   0.403   7.686   6.498  0.0775 -0.8190 -0.8673
  172SAPE  H20T19439   0.305   7.552   6.562  1.2145 -0.5280  1.0863
  172SAPE   C3319440   0.543   6.851   5.396  0.3320  0.0966 -0.5350
  172SAPE   H3X19441   0.598   6.761   5.360 -1.4876 -0.7810 -1.2211
  172SAPE   H3Y19442   0.458   6.829   5.465 -0.4524  1.3914 -1.0690
  172SAPE   C3419443   0.650   6.922   5.486  0.0992 -0.8801  0.7816
  172SAPE   H4X19444   0.628   7.031   5.486 -0.5483 -1.0017  1.0732
  172SAPE   H4Y19445   0.754   6.900   5.453 -0.1311  0.1645 -0.7702
  172SAPE   C3519446   0.650   6.870   5.626 -0.5006  0.4385 -0.3164
  172SAPE   H5X19447   0.673   6.763   5.640  2.1568  0.8647 -0.8806
  172SAPE   H5Y19448   0.545   6.884   5.659 -0.8117  0.0248 -1.1173
  172SAPE   C3619449   0.724   6.950   5.733 -0.1071  0.8520 -0.1957
  172SAPE   H6X19450   0.689   7.056   5.728 -0.2906  0.8173  0.3143
  172SAPE   H6Y19451   0.833   6.945   5.716 -0.0778 -1.8522  0.3545
  172SAPE   C3719452   0.697   6.881   5.868 -0.6789 -0.0944  0.5684
  172SAPE   H7X19453   0.727   6.774   5.862 -1.2131 -0.2351  0.3667
  172SAPE   H7Y19454   0.593   6.904   5.899  0.5800  3.1577  2.8952
  172SAPE   C3819455   0.775   6.947   5.989 -0.1550 -0.2058 -0.5247
  172SAPE   H8X19456   0.755   7.056   5.995 -1.9783 -0.5515  0.6424
  172SAPE   H8Y19457   0.884   6.930   5.976 -0.3146 -1.1243 -0.7068
  172SAPE   C3919458   0.741   6.883   6.126 -0.1274  0.1830 -0.1579
  172SAPE   H9X19459   0.769   6.775   6.129  0.2725  0.2945  0.3445
  172SAPE   H9Y19460   0.631   6.890   6.136 -0.1832 -0.3182 -0.3950
  172SAPE  C31019461   0.801   6.965   6.239 -0.2019 -0.0642 -0.0869
  172SAPE  H10X19462   0.781   6.919   6.337 -0.7374  0.2381 -0.0528
  172SAPE  H10Y19463   0.764   7.069   6.253  1.5711  0.2134  3.7077
  172SAPE  C31119464   0.961   6.959   6.225  0.4118  0.2468  0.3310
  172SAPE  H11X19465   1.004   7.033   6.154  0.2251 -0.2792 -0.3399
  172SAPE  H11Y19466   0.991   6.856   6.200  1.6825  1.0404 -1.5950
  172SAPE  C31219467   1.044   7.000   6.355 -0.4214  0.3725 -0.0341
  172SAPE  H12X19468   1.152   6.980   6.339 -0.3944  1.7615 -2.0197
  172SAPE  H12Y19469   1.023   6.931   6.439  0.6211 -0.5615 -0.5117
  172SAPE  C31319470   1.012   7.137   6.396 -0.2627 -0.0917  0.2050
  172SAPE  H13X19471   1.058   7.149   6.496  1.7123  1.5195 -0.8108
  172SAPE  H13Y19472   0.903   7.127   6.412 -0.0127 -0.5974  1.6943
  172SAPE  C31419473   1.052   7.252   6.304 -0.0376 -0.2207  0.1797
  172SAPE  H14X19474   1.003   7.231   6.206  0.6987 -0.0343 -0.2360
  172SAPE  H14Y19475   1.162   7.260   6.286  0.0208  0.0950  0.6672
  172SAPE  C31519476   1.023   7.391   6.370  0.1633 -0.3820  0.9413
  172SAPE  H15X19477   1.054   7.470   6.297 -3.4154  1.3342  1.0546
  172SAPE  H15Y19478   1.070   7.398   6.470  0.4444  0.3935  0.7637
  172SAPE  C31619479   0.869   7.410   6.392  0.3950  0.4163  0.3847
  172SAPE  H16X19480   0.830   7.323   6.449 -1.7300  0.6618 -0.5842
  172SAPE  H16Y19481   0.810   7.406   6.298 -1.3981 -1.8831  1.4987
  172SAPE  C31719482   0.822   7.549   6.446  0.3129 -0.3562  0.6903
  172SAPE  H17X19483   0.866   7.557   6.548  1.6530 -2.4516  0.3486
  172SAPE  H17Y19484   0.711   7.554   6.446  0.2375 -0.7592 -1.5427
  172SAPE  C31819485   0.875   7.669   6.366 -0.6132 -0.5223 -0.1788
  172SAPE  H18X19486   0.865   7.764   6.423 -1.5860 -1.4881  1.3033
  172SAPE  H18Y19487   0.818   7.679   6.272 -1.6505 -0.9937  0.3925
  172SAPE  H18Z19488   0.984   7.666   6.343 -0.2929  0.6579  1.0480
  173SLPC     N19489   5.645   0.861   0.623 -0.3215  0.3875  0.3494
  173SLPC   C1319490   5.714   0.776   0.725  0.1470  0.1049  0.2608
  173SLPC  H13A19491   5.646   0.754   0.805 -1.1555  2.6773 -0.0298
  173SLPC  H13B19492   5.753   0.684   0.684 -1.5480 -0.8732  0.7559
  173SLPC  H13C19493   5.795   0.842   0.754  0.0806 -0.2459  1.2708
  173SLPC   C1419494   5.570   0.965   0.701 -0.1370 -0.3732  0.1941
  173SLPC  H14A19495   5.629   1.029   0.766 -2.4769 -0.2603  2.3681
  173SLPC  H14B19496   5.514   1.026   0.632 -0.1598 -1.4656 -0.7839
  173SLPC  H14C19497   5.497   0.912   0.759  1.1705 -2.0738  0.3583
  173SLPC   C1519498   5.545   0.775   0.565 -0.3764  0.6500 -0.2532
  173SLPC  H15A19499   5.493   0.829   0.487 -0.5929  1.1169  0.2130
  173SLPC  H15B19500   5.588   0.684   0.524 -0.8058  0.2344  0.2115
  173SLPC  H15C19501   5.475   0.725   0.631  2.0734  0.0373  2.0553
  173SLPC   C1219502   5.744   0.914   0.528 -0.2866  0.0061 -0.2113
  173SLPC  H12A19503   5.794   0.833   0.477  0.7962 -0.2897  1.2491
  173SLPC  H12B19504   5.823   0.956   0.589  0.4386  0.4844 -1.4419
  173SLPC   C1119505   5.696   1.008   0.424 -0.0601  0.8349 -0.4690
  173SLPC  H11A19506   5.639   1.093   0.468 -1.7968 -0.7458  0.4849
  173SLPC  H11B19507   5.623   0.961   0.354 -0.1561  0.7432 -0.3068
  173SLPC     P19508   5.880   0.982   0.242  0.1318 -0.2750  0.2288
  173SLPC   O1319509   5.931   1.083   0.151  0.5284 -0.6527  0.0415
  173SLPC   O1419510   5.983   0.887   0.306 -0.0146 -0.5855  0.5716
  173SLPC   O1219511   5.819   1.054   0.366  0.1067  0.4514 -0.7214
  173SLPC   O1119512   5.760   0.905   0.170 -0.4335  0.1686 -0.1640
  173SLPC    C119513   5.676   0.964   0.069 -0.4616  1.2053 -0.3508
  173SLPC    HA19514   5.593   0.892   0.053  0.2697 -0.0765  1.2814
  173SLPC    HB19515   5.633   1.056   0.115  0.6427  1.1903  0.7480
  173SLPC    C219516   5.742   0.991  -0.066  0.1859  0.0451  1.0126
  173SLPC    HS19517   5.819   1.069  -0.051  0.0588  1.4477 -3.9874
  173SLPC   O2119518   5.637   1.033  -0.153 -1.2546 -0.1856  0.2538
  173SLPC   C2119519   5.681   1.135  -0.234  0.0772 -0.6827  0.0751
  173SLPC   O2219520   5.787   1.190  -0.220 -0.0439  0.1684 -0.0151
  173SLPC   C2219521   5.569   1.185  -0.322 -0.2554  0.7162 -0.6830
  173SLPC   H2R19522   5.475   1.176  -0.263  0.8020 -3.3414  0.7635
  173SLPC   H2S19523   5.585   1.292  -0.344  3.8320  0.4280  0.0108
  173SLPC    C319524   5.798   0.853  -0.123  0.1814 -0.2570  0.1409
  173SLPC    HX19525   5.711   0.797  -0.161 -0.0628  0.6574 -0.6684
  173SLPC    HY19526   5.846   0.797  -0.039 -0.0742  0.3913  0.7242
  173SLPC   O3119527   5.882   0.877  -0.238  0.3691  0.5162 -0.6039
  173SLPC   C3119528   6.012   0.878  -0.219 -0.0590  0.3032 -0.5068
  173SLPC   O3219529   6.074   0.844  -0.120 -0.2475  0.3449  0.2205
  173SLPC   C3219530   6.068   0.909  -0.360 -0.0662 -0.3833  0.0126
  173SLPC   H2X19531   6.067   1.019  -0.373  2.5438 -0.4518 -1.5745
  173SLPC   H2Y19532   6.001   0.862  -0.434  0.4415 -0.8328 -0.1729
  173SLPC   C2319533   5.559   1.111  -0.459  0.1236  0.7764 -0.6313
  173SLPC   H3R19534   5.649   1.113  -0.524 -0.3496 -1.5601 -1.4516
  173SLPC   H3S19535   5.468   1.158  -0.502 -0.5150 -0.2398 -0.4249
  173SLPC   C2419536   5.513   0.966  -0.435 -0.4986 -0.6330 -1.1849
  173SLPC   H4R19537   5.442   0.958  -0.350  0.6371 -1.0051 -0.2357
  173SLPC   H4S19538   5.603   0.908  -0.406 -0.8365 -1.3615 -1.5640
  173SLPC   C2519539   5.455   0.892  -0.570  0.0054 -0.0570 -0.4875
  173SLPC   H5R19540   5.358   0.933  -0.605  1.8931  3.2383 -2.2827
  173SLPC   H5S19541   5.440   0.792  -0.524  0.0058  0.1606 -0.0094
  173SLPC   C2619542   5.536   0.900  -0.695  0.2597  0.0728  0.1047
  173SLPC   H6R19543   5.553   1.008  -0.716 -1.9198  0.4706  0.1729
  173SLPC   H6S19544   5.482   0.848  -0.777 -2.7371  1.5791  0.9852
  173SLPC   C2719545   5.675   0.831  -0.677 -0.8873 -0.6918  0.2731
  173SLPC   H7R19546   5.726   0.884  -0.594  0.6775  0.3534 -1.2851
  173SLPC   H7S19547   5.740   0.854  -0.764  0.3047  0.3464  1.4033
  173SLPC   C2819548   5.666   0.681  -0.639  0.1262  0.2595 -0.1137
  173SLPC   H8R19549   5.611   0.677  -0.543  0.2961 -1.7246 -0.0468
  173SLPC   H8S19550   5.766   0.636  -0.618  0.4726  1.4750  0.9595
  173SLPC   C2919551   5.585   0.608  -0.751  0.1955  0.1970 -0.1680
  173SLPC   H9R19552   5.478   0.635  -0.753  0.1563  0.6420  2.7336
  173SLPC  C21019553   5.637   0.527  -0.840 -0.3500  0.3994  0.7311
  173SLPC  H10R19554   5.572   0.490  -0.920  0.2481 -0.4386  0.6160
  173SLPC  C21119555   5.782   0.484  -0.862  0.3967 -0.2766 -0.0523
  173SLPC  H11R19556   5.822   0.411  -0.788  4.1659  0.0060 -1.5585
  173SLPC  H11S19557   5.848   0.572  -0.847  0.4068 -0.6511  2.5251
  173SLPC  C21219558   5.801   0.415  -0.995  0.3898 -0.4856 -0.6132
  173SLPC  H12R19559   5.786   0.489  -1.075  1.5669  1.2700  0.7123
  173SLPC  C21319560   5.833   0.282  -1.026 -0.3116 -0.7495 -0.4823
  173SLPC  H13R19561   5.842   0.256  -1.132 -0.1771 -1.1236 -0.3820
  173SLPC  C21419562   5.844   0.170  -0.923 -0.0066  0.7183  0.4902
  173SLPC  H14R19563   5.850   0.213  -0.820 -0.1767  0.1714  0.7361
  173SLPC  H14S19564   5.941   0.116  -0.937 -0.3575 -0.0381  0.8861
  173SLPC  C21519565   5.735   0.062  -0.916  0.0800 -0.0622 -0.9793
  173SLPC  H15R19566   5.756  -0.005  -0.830 -1.6841  0.1521 -0.3325
  173SLPC  H15S19567   5.737  -0.002  -1.006  1.8008 -2.6954  0.8022
  173SLPC  C21619568   5.597   0.122  -0.891 -0.9145  0.4760  0.0968
  173SLPC  H16R19569   5.566   0.191  -0.973 -0.5089 -0.9482 -1.2998
  173SLPC  H16S19570   5.597   0.172  -0.792 -0.9360 -0.6307  0.6702
  173SLPC  C21719571   5.490   0.005  -0.894 -0.0050  0.5391 -0.4107
  173SLPC  H17R19572   5.522  -0.063  -0.812  1.0475  1.3105 -0.1538
  173SLPC  H17S19573   5.501  -0.042  -0.994  2.1590  1.5697 -0.7230
  173SLPC  C21819574   5.350   0.065  -0.856 -0.5637  0.1827  0.5843
  173SLPC  H18R19575   5.331   0.161  -0.908 -2.0614 -0.0830  0.5734
  173SLPC  H18S19576   5.351   0.088  -0.747  0.5915  0.7160  0.4722
  173SLPC  H18T19577   5.273  -0.013  -0.877  1.3109 -1.6715  0.2334
  173SLPC   C3319578   6.211   0.853  -0.377 -0.1842  0.2287 -0.3945
  173SLPC   H3X19579   6.201   0.747  -0.344  0.2344  0.3827  0.2496
  173SLPC   H3Y19580   6.275   0.906  -0.303 -0.0822 -0.4761  0.0352
  173SLPC   C3419581   6.261   0.850  -0.521 -0.1365  0.2353 -0.1409
  173SLPC   H4X19582   6.371   0.831  -0.514  0.2379  2.3072  0.4711
  173SLPC   H4Y19583   6.249   0.950  -0.569  2.5015  1.8107  2.1816
  173SLPC   C3519584   6.192   0.744  -0.605  0.5005 -0.1620 -0.2106
  173SLPC   H5X19585   6.085   0.727  -0.581 -0.3155 -0.2444 -3.4512
  173SLPC   H5Y19586   6.242   0.646  -0.588 -0.1158 -0.3614  0.4632
  173SLPC   C3619587   6.199   0.787  -0.745 -0.3019  0.1702 -0.5578
  173SLPC   H6X19588   6.304   0.788  -0.783 -0.4447 -1.2917 -1.0580
  173SLPC   H6Y19589   6.160   0.891  -0.755  1.2201  0.8803  0.4476
  173SLPC   C3719590   6.120   0.706  -0.843 -0.4646  0.2489 -0.9962
  173SLPC   H7X19591   6.018   0.685  -0.803 -0.1585  0.4724 -0.0780
  173SLPC   H7Y19592   6.169   0.607  -0.853 -2.3758 -1.0268  1.2946
  173SLPC   C3819593   6.106   0.778  -0.982  0.1231 -0.2574  0.1091
  173SLPC   H8X19594   6.186   0.854  -0.995  0.0353 -0.2477 -0.4117
  173SLPC   H8Y19595   6.011   0.836  -0.984  0.4913  0.4101  1.0963
  173SLPC   C3919596   6.109   0.684  -1.101 -0.1554 -0.1077 -0.5100
  173SLPC   H9X19597   6.011   0.631  -1.106 -0.3455  0.3120 -1.2836
  173SLPC   H9Y19598   6.194   0.614  -1.088  0.5746  0.7530 -0.5746
  173SLPC  C31019599   6.127   0.764  -1.231 -0.2273  0.0602 -0.0968
  173SLPC  H10X19600   6.233   0.796  -1.223 -0.1701  0.1041 -0.9620
  173SLPC  H10Y19601   6.051   0.845  -1.228 -0.7722 -0.4690  1.4020
  173SLPC  C31119602   6.114   0.690  -1.367 -0.0768  0.0379 -0.4093
  173SLPC  H11X19603   6.204   0.625  -1.378  0.9177  1.2848  0.1739
  173SLPC  H11Y19604   6.117   0.775  -1.438 -2.9945  1.4421  0.9510
  173SLPC  C31219605   5.985   0.609  -1.389  0.2295 -0.1588  0.2412
  173SLPC  H12X19606   5.892   0.669  -1.384  0.6104  0.3566  1.7534
  173SLPC  H12Y19607   5.976   0.543  -1.300  3.0202 -2.1040 -0.7849
  173SLPC  C31319608   5.980   0.518  -1.513  0.5749 -0.1278 -1.1606
  173SLPC  H13X19609   6.040   0.429  -1.484 -0.5715 -0.2646  1.0653
  173SLPC  H13Y19610   6.026   0.579  -1.593  0.3836  0.6643 -0.6820
  173SLPC  C31419611   5.838   0.482  -1.547  0.2025 -0.5811 -0.4087
  173SLPC  H14X19612   5.825   0.453  -1.653 -1.8030 -1.0866 -0.0665
  173SLPC  H14Y19613   5.775   0.572  -1.534 -0.8769 -1.3882  0.1268
  173SLPC  C31519614   5.788   0.372  -1.445  0.4692 -0.0552  0.0765
  173SLPC  H15X19615   5.805   0.399  -1.339 -2.9647 -2.1494  1.3168
  173SLPC  H15Y19616   5.855   0.285  -1.464  1.4112  0.4483  0.9899
  173SLPC  C31619617   5.641   0.345  -1.455  0.6014 -0.2722  0.2381
  173SLPC  H16X19618   5.619   0.294  -1.551  1.0946 -2.7041  1.3482
  173SLPC  H16Y19619   5.573   0.433  -1.453 -1.6632 -1.9501  0.6271
  173SLPC  C31719620   5.573   0.245  -1.357 -0.3263 -0.3891 -0.6258
  173SLPC  H17X19621   5.561   0.301  -1.262 -0.4624  0.9293 -1.3911
  173SLPC  H17Y19622   5.634   0.155  -1.336  1.8687  1.4676  1.5721
  173SLPC  C31819623   5.432   0.201  -1.406  0.3771  0.3972  0.5248
  173SLPC  H18X19624   5.368   0.290  -1.422  0.5489  0.5549  0.7040
  173SLPC  H18Y19625   5.388   0.139  -1.324 -0.9160 -1.9519 -1.7911
  173SLPC  H18Z19626   5.432   0.152  -1.506  0.9538 -0.8890  1.1249
  174SLPC     N19627   2.091   0.930   0.208  0.8417  0.2589 -0.0384
  174SLPC   C1319628   1.993   0.860   0.299 -0.5325  0.4985  0.0393
  174SLPC  H13A19629   1.904   0.919   0.313 -0.6675 -0.0063  1.4876
  174SLPC  H13B19630   1.964   0.762   0.264 -0.8943  0.4917  0.3490
  174SLPC  H13C19631   2.022   0.846   0.403  0.1996 -0.1411 -0.2414
  174SLPC   C1419632   2.224   0.886   0.227 -0.3257  0.5402 -0.1153
  174SLPC  H14A19633   2.238   0.783   0.200  0.8530  0.3710  1.0389
  174SLPC  H14B19634   2.290   0.935   0.157 -4.0521  3.6772 -1.8223
  174SLPC  H14C19635   2.247   0.893   0.332 -0.9317 -2.0950  0.2432
  174SLPC   C1519636   2.078   1.080   0.242 -0.2607  0.6013  0.6661
  174SLPC  H15A19637   2.118   1.094   0.342 -0.1244  0.6210  0.6095
  174SLPC  H15B19638   2.131   1.140   0.169  0.6108 -0.6118  0.2659
  174SLPC  H15C19639   1.979   1.122   0.238 -0.9099 -0.8457  1.1429
  174SLPC   C1219640   2.047   0.908   0.067  0.3465 -0.5880 -0.1710
  174SLPC  H12A19641   2.064   0.804   0.044  0.2717 -0.4992 -0.6479
  174SLPC  H12B19642   2.115   0.952  -0.005  1.8978 -2.5154  0.0190
  174SLPC   C1119643   1.901   0.947   0.029  0.0575  0.0992  0.6364
  174SLPC  H11A19644   1.892   0.957  -0.081 -0.1393 -0.7118  0.5717
  174SLPC  H11B19645   1.881   1.049   0.069 -1.0448  0.3640 -0.5025
  174SLPC     P19646   1.774   0.715   0.014  0.4719 -0.0141  0.6145
  174SLPC   O1319647   1.875   0.698  -0.091  0.0047 -0.0788  0.1767
  174SLPC   O1419648   1.763   0.611   0.119 -0.0507  0.1299  0.1328
  174SLPC   O1219649   1.806   0.855   0.086 -0.1318 -0.2058  0.0416
  174SLPC   O1119650   1.637   0.731  -0.061  0.1177  0.1401 -0.0190
  174SLPC    C119651   1.610   0.850  -0.132  0.0574  0.2234  0.7199
  174SLPC    HA19652   1.627   0.945  -0.078  1.4525  1.1383 -1.2161
  174SLPC    HB19653   1.676   0.853  -0.222 -2.2233  2.7914 -1.0321
  174SLPC    C219654   1.461   0.859  -0.181  0.6926 -0.3783  0.5092
  174SLPC    HS19655   1.394   0.850  -0.093  0.1827 -0.5532  0.1089
  174SLPC   O2119656   1.448   0.744  -0.275 -0.1896  0.0179 -0.3591
  174SLPC   C2119657   1.321   0.709  -0.298  0.0713 -0.0134  0.0710
  174SLPC   O2219658   1.227   0.754  -0.236 -0.0065  0.0548  0.0637
  174SLPC   C2219659   1.322   0.608  -0.403 -0.1330 -0.2839 -0.0016
  174SLPC   H2R19660   1.423   0.612  -0.449  0.4061  0.3750  1.1787
  174SLPC   H2S19661   1.306   0.508  -0.357 -0.1790 -1.6922 -2.8616
  174SLPC    C319662   1.432   0.989  -0.263 -0.0840  0.1260  0.1309
  174SLPC    HX19663   1.452   1.082  -0.205  1.0279  0.8531 -1.3519
  174SLPC    HY19664   1.324   0.980  -0.288 -0.1880 -1.7086  1.0960
  174SLPC   O3119665   1.525   0.982  -0.372  0.5101  0.2843  0.1040
  174SLPC   C3119666   1.474   0.985  -0.494  0.1742 -0.5319  0.5400
  174SLPC   O3219667   1.356   0.988  -0.522  0.0387 -0.0418 -0.2110
  174SLPC   C3219668   1.587   1.005  -0.601 -0.1892  0.4500 -0.0188
  174SLPC   H2X19669   1.658   0.921  -0.589  1.5250  1.9215  0.5423
  174SLPC   H2Y19670   1.656   1.090  -0.581 -0.7718  0.7314  0.8735
  174SLPC   C2319671   1.220   0.630  -0.514  0.4610 -0.3601  0.8470
  174SLPC   H3R19672   1.222   0.741  -0.520 -0.9095 -0.2038  2.5554
  174SLPC   H3S19673   1.117   0.603  -0.485 -0.4073  2.0419  0.2213
  174SLPC   C2419674   1.268   0.561  -0.647  0.0074  0.5557  0.6861
  174SLPC   H4R19675   1.237   0.455  -0.661  2.5537 -0.5410  2.5755
  174SLPC   H4S19676   1.377   0.551  -0.632  0.0829  1.0017  0.4502
  174SLPC   C2519677   1.252   0.651  -0.767  0.5762 -0.4289  0.2129
  174SLPC   H5R19678   1.280   0.758  -0.758 -1.4965  0.3385 -1.7538
  174SLPC   H5S19679   1.142   0.648  -0.778  0.7167 -0.0589 -1.5799
  174SLPC   C2619680   1.310   0.594  -0.901  0.1237 -0.0210 -1.0852
  174SLPC   H6R19681   1.274   0.489  -0.907 -1.8839  0.3415  2.2963
  174SLPC   H6S19682   1.420   0.589  -0.885 -0.2775 -0.0712  2.5240
  174SLPC   C2719683   1.263   0.663  -1.024 -0.1652 -0.5924  0.3495
  174SLPC   H7R19684   1.290   0.768  -1.003  1.8333 -1.4567  2.6163
  174SLPC   H7S19685   1.152   0.671  -1.032 -0.0904 -0.2454 -0.3402
  174SLPC   C2819686   1.343   0.628  -1.157  0.3052  0.2707 -0.4126
  174SLPC   H8R19687   1.451   0.640  -1.134 -0.0818  0.4162  1.5695
  174SLPC   H8S19688   1.323   0.702  -1.237 -0.1351 -0.2930 -0.8269
  174SLPC   C2919689   1.314   0.489  -1.202 -0.6323 -0.5528 -0.4704
  174SLPC   H9R19690   1.328   0.412  -1.124  2.2110  1.4356  1.1779
  174SLPC  C21019691   1.282   0.458  -1.333  0.8530 -0.1413 -0.2409
  174SLPC  H10R19692   1.268   0.351  -1.355  0.1859 -0.7039  2.4504
  174SLPC  C21119693   1.252   0.556  -1.447 -0.2108 -0.0343 -0.7329
  174SLPC  H11R19694   1.249   0.664  -1.421 -1.0110  0.0926 -1.3128
  174SLPC  H11S19695   1.149   0.540  -1.486  0.0521  1.4671 -2.1538
  174SLPC  C21219696   1.359   0.542  -1.561  0.0198 -0.2428 -0.0666
  174SLPC  H12R19697   1.449   0.584  -1.514 -0.3589  0.4528  0.0459
  174SLPC  C21319698   1.343   0.534  -1.695 -0.8429  0.6089 -0.3175
  174SLPC  H13R19699   1.427   0.523  -1.765  0.5130  0.4880  1.2667
  174SLPC  C21419700   1.209   0.508  -1.754  0.3503  0.8778  0.7759
  174SLPC  H14R19701   1.137   0.593  -1.746 -0.7441  0.0891 -0.2654
  174SLPC  H14S19702   1.149   0.439  -1.691 -1.2938  0.3680 -1.2262
  174SLPC  C21519703   1.210   0.444  -1.895  1.0687 -0.1404  0.2672
  174SLPC  H15R19704   1.104   0.437  -1.927  0.0202  2.9493  2.6148
  174SLPC  H15S19705   1.259   0.345  -1.886  2.1922  0.4186  0.4048
  174SLPC  C21619706   1.268   0.537  -1.998 -0.4473 -0.9066 -0.4252
  174SLPC  H16R19707   1.274   0.496  -2.101  2.0906  0.4361 -0.9097
  174SLPC  H16S19708   1.376   0.542  -1.970 -0.7013  0.0295  0.4280
  174SLPC  C21719709   1.211   0.682  -2.022 -0.3520  0.6654 -0.2928
  174SLPC  H17R19710   1.149   0.725  -1.940 -0.5029  1.7459 -0.9492
  174SLPC  H17S19711   1.132   0.669  -2.099 -0.4445  1.7966 -0.4108
  174SLPC  C21819712   1.304   0.790  -2.084  0.3830  0.2514  0.2009
  174SLPC  H18R19713   1.244   0.882  -2.104  0.1745 -0.0232 -0.4559
  174SLPC  H18S19714   1.360   0.756  -2.174 -0.5224  0.9329 -0.6419
  174SLPC  H18T19715   1.377   0.821  -2.007  1.9778 -0.5204 -0.9568
  174SLPC   C3319716   1.535   0.999  -0.749 -0.0544 -0.4616 -0.3241
  174SLPC   H3X19717   1.488   0.901  -0.769 -0.5792 -0.5271  1.0793
  174SLPC   H3Y19718   1.632   0.991  -0.802  0.8563 -0.9395  1.3574
  174SLPC   C3419719   1.451   1.116  -0.797 -0.2824  0.1908  0.5849
  174SLPC   H4X19720   1.457   1.194  -0.717 -0.0007 -0.8736  1.6399
  174SLPC   H4Y19721   1.346   1.082  -0.807 -1.2023  2.3725  1.9878
  174SLPC   C3519722   1.487   1.180  -0.934  0.5190 -0.1457  0.4636
  174SLPC   H5X19723   1.593   1.214  -0.936  0.3875  0.2648  0.4227
  174SLPC   H5Y19724   1.421   1.269  -0.935 -0.3807 -0.7646  1.9388
  174SLPC   C3619725   1.457   1.089  -1.059 -0.5885 -0.5911 -0.3557
  174SLPC   H6X19726   1.349   1.107  -1.083 -0.6148  0.4704  0.4544
  174SLPC   H6Y19727   1.469   0.981  -1.037  0.8180 -0.5285 -0.7269
  174SLPC   C3719728   1.548   1.125  -1.185  0.7344 -0.1106  0.0451
  174SLPC   H7X19729   1.650   1.083  -1.168 -0.1828 -2.2020  0.7530
  174SLPC   H7Y19730   1.556   1.235  -1.195  1.6328 -0.1216  0.5700
  174SLPC   C3819731   1.496   1.067  -1.321 -0.6578 -0.4204 -0.4727
  174SLPC   H8X19732   1.395   1.106  -1.344 -0.5261 -0.1115 -0.5214
  174SLPC   H8Y19733   1.497   0.956  -1.309 -0.1767 -0.2911  0.8373
  174SLPC   C3919734   1.586   1.101  -1.441  0.3156 -0.9002  0.3601
  174SLPC   H9X19735   1.689   1.058  -1.435  0.6799 -0.8737 -3.5338
  174SLPC   H9Y19736   1.593   1.212  -1.438 -1.4504 -0.6990 -1.2195
  174SLPC  C31019737   1.530   1.054  -1.579 -0.0780 -0.0372  0.5163
  174SLPC  H10X19738   1.428   1.097  -1.593 -0.4808 -0.8556  0.8741
  174SLPC  H10Y19739   1.515   0.944  -1.581  2.7612 -0.4955 -1.0639
  174SLPC  C31119740   1.615   1.098  -1.698  0.0451  0.4767 -0.1879
  174SLPC  H11X19741   1.705   1.033  -1.692 -0.3028 -0.2003 -1.7211
  174SLPC  H11Y19742   1.664   1.197  -1.688  2.0993 -0.4714 -0.3134
  174SLPC  C31219743   1.537   1.086  -1.824  0.0520 -0.3966  0.2998
  174SLPC  H12X19744   1.435   1.129  -1.819  0.3287  0.5031 -1.1992
  174SLPC  H12Y19745   1.528   0.979  -1.854  1.4547  0.0263 -1.8205
  174SLPC  C31319746   1.601   1.157  -1.949  0.5148  0.8215 -0.1285
  174SLPC  H13X19747   1.696   1.099  -1.954 -0.8695 -1.5082 -1.5804
  174SLPC  H13Y19748   1.630   1.258  -1.914  0.7181 -0.1295  2.7088
  174SLPC  C31419749   1.520   1.141  -2.074  0.0501  0.2568 -0.1029
  174SLPC  H14X19750   1.424   1.197  -2.075 -0.0070  0.1869 -2.1644
  174SLPC  H14Y19751   1.491   1.034  -2.082  2.0798 -0.2819 -0.7807
  174SLPC  C31519752   1.605   1.188  -2.199 -0.4704 -0.2314 -1.0386
  174SLPC  H15X19753   1.681   1.114  -2.231  1.7255  1.2987  0.3109
  174SLPC  H15Y19754   1.659   1.280  -2.167 -1.2897 -0.1548  0.2158
  174SLPC  C31619755   1.522   1.225  -2.323 -0.1420  0.3252 -0.4434
  174SLPC  H16X19756   1.559   1.316  -2.374  1.8515  0.8790  1.8231
  174SLPC  H16Y19757   1.422   1.265  -2.294  1.4565  2.4754  2.7346
  174SLPC  C31719758   1.508   1.104  -2.421  0.6252  0.4875  0.1990
  174SLPC  H17X19759   1.605   1.050  -2.431  0.6623 -0.0619  2.7381
  174SLPC  H17Y19760   1.487   1.135  -2.526  1.6015  0.8061  0.0809
  174SLPC  C31819761   1.407   1.003  -2.372 -1.4818  0.1824  0.7513
  174SLPC  H18X19762   1.379   0.936  -2.456 -0.9919  3.0431 -1.8683
  174SLPC  H18Y19763   1.322   1.055  -2.323  1.5090  3.1897  3.2029
  174SLPC  H18Z19764   1.445   0.933  -2.294 -2.4270 -0.3150  0.7819
  175SLPC     N19765   2.513   2.806   0.130  0.2031  1.1287 -0.4183
  175SLPC   C1319766   2.603   2.871   0.038  0.3860  0.5401 -0.8374
  175SLPC  H13A19767   2.640   2.799  -0.033  1.5134  1.3204 -1.0762
  175SLPC  H13B19768   2.543   2.936  -0.024  0.1771  0.7516 -0.4177
  175SLPC  H13C19769   2.682   2.924   0.090 -1.1000  0.0104  2.1606
  175SLPC   C1419770   2.458   2.903   0.220 -0.1074 -0.0137 -0.4415
  175SLPC  H14A19771   2.405   2.978   0.164 -0.2573  1.4218  1.5066
  175SLPC  H14B19772   2.393   2.848   0.288 -1.1134  0.5176 -0.9551
  175SLPC  H14C19773   2.527   2.955   0.284 -1.1662 -2.7873  3.3470
  175SLPC   C1519774   2.592   2.708   0.210  0.5768 -0.2930 -0.4911
  175SLPC  H15A19775   2.683   2.749   0.251  0.2498  2.7568 -2.5157
  175SLPC  H15B19776   2.526   2.666   0.285 -0.1995  0.3567 -0.7943
  175SLPC  H15C19777   2.624   2.623   0.153  1.1962 -0.6061  0.3064
  175SLPC   C1219778   2.395   2.742   0.057 -0.5758  0.7687  0.2282
  175SLPC  H12A19779   2.316   2.813   0.041 -2.3517 -1.0649  0.4416
  175SLPC  H12B19780   2.352   2.669   0.125  2.3978 -0.7635  0.6654
  175SLPC   C1119781   2.430   2.672  -0.073  0.8836  0.3565 -0.6838
  175SLPC  H11A19782   2.453   2.745  -0.152  0.6938  0.0486 -1.0269
  175SLPC  H11B19783   2.337   2.621  -0.106  0.6254  0.9667 -0.8985
  175SLPC     P19784   2.554   2.448  -0.118  0.4264  0.1687  0.5333
  175SLPC   O1319785   2.690   2.397  -0.104 -0.5053  0.4947  0.4198
  175SLPC   O1419786   2.450   2.368  -0.053  0.1546  0.4646  0.1082
  175SLPC   O1219787   2.546   2.587  -0.065  0.6591  0.4320 -0.4996
  175SLPC   O1119788   2.518   2.482  -0.266 -0.0663 -0.8312 -0.6354
  175SLPC    C119789   2.624   2.534  -0.350 -0.1566  0.5061 -0.6525
  175SLPC    HA19790   2.723   2.559  -0.308  0.2504  0.2887 -1.4707
  175SLPC    HB19791   2.662   2.443  -0.400 -0.2651  0.5395 -0.7966
  175SLPC    C219792   2.576   2.632  -0.455 -0.4352 -0.3354  0.5847
  175SLPC    HS19793   2.543   2.724  -0.401 -0.4475 -0.6589  1.1325
  175SLPC   O2119794   2.477   2.574  -0.543 -0.2586  0.4243  0.4082
  175SLPC   C2119795   2.359   2.628  -0.542 -0.6371 -0.4604  0.1771
  175SLPC   O2219796   2.323   2.731  -0.484  0.5094  0.2893  0.4045
  175SLPC   C2219797   2.282   2.548  -0.645 -0.0086  0.5731 -0.2693
  175SLPC   H2R19798   2.350   2.499  -0.717  0.7615  0.6365  0.3998
  175SLPC   H2S19799   2.231   2.468  -0.588  0.9896 -1.4545 -2.0545
  175SLPC    C319800   2.696   2.696  -0.531  0.2740 -0.0092 -0.4529
  175SLPC    HX19801   2.753   2.615  -0.580  1.0385  1.6823 -2.4917
  175SLPC    HY19802   2.759   2.744  -0.453 -0.3671  0.2639 -0.0922
  175SLPC   O3119803   2.658   2.799  -0.624 -0.0136  0.5564 -0.4758
  175SLPC   C3119804   2.666   2.774  -0.751  0.5961 -1.2682  0.3861
  175SLPC   O3219805   2.665   2.665  -0.806  0.3452  0.1075 -0.0518
  175SLPC   C3219806   2.671   2.918  -0.826 -1.0218  0.5422 -0.0508
  175SLPC   H2X19807   2.765   2.971  -0.802 -0.9005 -0.4133  1.7033
  175SLPC   H2Y19808   2.599   2.980  -0.768 -0.7389  2.7011 -1.8363
  175SLPC   C2319809   2.192   2.651  -0.712  0.0978  0.4616 -0.8877
  175SLPC   H3R19810   2.236   2.752  -0.726  0.1033  1.1669  3.0773
  175SLPC   H3S19811   2.103   2.670  -0.648 -1.5576 -3.4907 -1.7764
  175SLPC   C2419812   2.154   2.610  -0.856  0.2217 -1.1737 -0.1458
  175SLPC   H4R19813   2.078   2.682  -0.895 -1.1687 -1.4432  1.9101
  175SLPC   H4S19814   2.095   2.517  -0.842 -2.6543  0.1179 -2.6293
  175SLPC   C2519815   2.267   2.576  -0.955 -0.3103 -0.7098 -0.7337
  175SLPC   H5R19816   2.315   2.483  -0.916  0.9912 -0.4906 -1.7421
  175SLPC   H5S19817   2.346   2.652  -0.970 -2.6098  1.7537 -0.9981
  175SLPC   C2619818   2.215   2.545  -1.097  0.3135  0.4482  0.1159
  175SLPC   H6R19819   2.154   2.634  -1.124  1.5892  0.7700 -1.9757
  175SLPC   H6S19820   2.144   2.460  -1.089 -0.6594  0.9583 -2.2821
  175SLPC   C2719821   2.316   2.532  -1.204 -0.4011  0.7155 -0.0083
  175SLPC   H7R19822   2.379   2.441  -1.193 -1.0765  0.3796  1.3478
  175SLPC   H7S19823   2.387   2.617  -1.201  1.8675 -1.1060  0.5707
  175SLPC   C2819824   2.254   2.526  -1.348  0.0237 -0.3790 -0.1897
  175SLPC   H8R19825   2.335   2.535  -1.424  0.6344 -3.2016  0.0063
  175SLPC   H8S19826   2.186   2.613  -1.353 -0.0838 -0.1299  3.0853
  175SLPC   C2919827   2.175   2.402  -1.387 -0.2065 -0.5022 -0.3980
  175SLPC   H9R19828   2.080   2.389  -1.335  0.5797  0.2448  1.2802
  175SLPC  C21019829   2.198   2.301  -1.472  0.3631 -1.1848 -0.4974
  175SLPC  H10R19830   2.129   2.216  -1.484  1.2978 -1.9714 -0.5373
  175SLPC  C21119831   2.319   2.287  -1.553  0.5276 -0.9412 -0.2610
  175SLPC  H11R19832   2.411   2.299  -1.492  0.8203 -0.0264 -0.8557
  175SLPC  H11S19833   2.335   2.371  -1.624  3.7065  0.1268  1.5254
  175SLPC  C21219834   2.313   2.160  -1.635  0.2214 -0.9791  0.5893
  175SLPC  H12R19835   2.307   2.068  -1.576 -0.5087 -0.1574  1.8664
  175SLPC  C21319836   2.308   2.152  -1.773 -0.1381  0.5118 -0.5261
  175SLPC  H13R19837   2.332   2.053  -1.814 -1.3513  0.5006 -1.2404
  175SLPC  C21419838   2.326   2.273  -1.860 -0.4737  0.5136  0.2377
  175SLPC  H14R19839   2.411   2.335  -1.825 -1.1503  2.1927 -0.9486
  175SLPC  H14S19840   2.233   2.334  -1.856  0.8733  2.6353  1.0674
  175SLPC  C21519841   2.356   2.226  -2.010 -0.1634 -0.1144 -0.2273
  175SLPC  H15R19842   2.419   2.135  -2.004  0.6240  0.3648 -1.0141
  175SLPC  H15S19843   2.414   2.304  -2.065 -1.6535 -0.2807 -2.1648
  175SLPC  C21619844   2.235   2.200  -2.101  0.2149  0.4712 -0.1919
  175SLPC  H16R19845   2.153   2.273  -2.087 -0.8856  0.6897 -5.6830
  175SLPC  H16S19846   2.198   2.100  -2.069  0.7353  0.9079  1.9262
  175SLPC  C21719847   2.255   2.202  -2.249  0.6131  0.4495 -0.7689
  175SLPC  H17R19848   2.338   2.132  -2.272  0.5795 -0.2154  1.0156
  175SLPC  H17S19849   2.290   2.302  -2.284  0.7756 -0.0935 -2.2210
  175SLPC  C21819850   2.123   2.169  -2.316 -1.0159  0.8116  0.1835
  175SLPC  H18R19851   2.080   2.069  -2.294 -1.3622  0.2372 -2.6648
  175SLPC  H18S19852   2.128   2.165  -2.427 -1.3331 -0.0143  0.1961
  175SLPC  H18T19853   2.049   2.244  -2.280 -0.4471  0.4111  2.3019
  175SLPC   C3319854   2.634   2.915  -0.974 -1.0801 -0.5681  0.3736
  175SLPC   H3X19855   2.681   2.831  -1.029 -0.2201  0.2773 -0.2089
  175SLPC   H3Y19856   2.676   3.005  -1.023 -0.0613  0.2650  2.6144
  175SLPC   C3419857   2.487   2.925  -0.988 -0.2714  0.0737  0.2580
  175SLPC   H4X19858   2.440   3.016  -0.945  1.2145  0.5650  0.9082
  175SLPC   H4Y19859   2.439   2.841  -0.933  2.9872 -1.9044  0.3347
  175SLPC   C3519860   2.444   2.930  -1.138 -0.1341  0.1407 -0.3106
  175SLPC   H5X19861   2.484   2.831  -1.171 -0.4461  0.0149 -0.3103
  175SLPC   H5Y19862   2.499   3.003  -1.201 -0.1147 -1.2823 -2.0275
  175SLPC   C3619863   2.289   2.949  -1.165 -0.8196 -0.1414 -0.1206
  175SLPC   H6X19864   2.242   3.033  -1.110  0.1080  2.0539 -2.4809
  175SLPC   H6Y19865   2.244   2.852  -1.138 -1.6409  0.4340  0.6438
  175SLPC   C3719866   2.274   2.983  -1.314  0.1833 -0.1878  0.1567
  175SLPC   H7X19867   2.321   3.083  -1.331  1.3989 -0.9470 -1.1070
  175SLPC   H7Y19868   2.164   2.988  -1.329  0.2004  1.8097  0.4295
  175SLPC   C3819869   2.334   2.893  -1.424 -0.1004  0.3662 -0.0895
  175SLPC   H8X19870   2.312   2.785  -1.409 -0.6461  0.1539 -2.1417
  175SLPC   H8Y19871   2.445   2.901  -1.424  0.2659 -2.2679  3.4540
  175SLPC   C3919872   2.276   2.915  -1.568 -0.3489 -0.0964  1.0153
  175SLPC   H9X19873   2.316   3.015  -1.595  3.0569 -1.0683  2.0405
  175SLPC   H9Y19874   2.165   2.903  -1.573 -0.2734 -0.4417 -0.2092
  175SLPC  C31019875   2.328   2.820  -1.683 -0.4628 -0.2995 -0.8032
  175SLPC  H10X19876   2.288   2.858  -1.780 -0.5365 -0.5441 -0.8700
  175SLPC  H10Y19877   2.283   2.722  -1.657  0.4763 -0.3997  0.5104
  175SLPC  C31119878   2.477   2.792  -1.703 -0.1136  0.3691  0.0001
  175SLPC  H11X19879   2.521   2.783  -1.602 -1.4274  1.4375  0.7042
  175SLPC  H11Y19880   2.525   2.881  -1.751  1.3741 -0.4293 -0.0453
  175SLPC  C31219881   2.508   2.668  -1.793  0.1779 -0.4079  0.2001
  175SLPC  H12X19882   2.428   2.594  -1.770  0.5990 -1.5073 -1.6723
  175SLPC  H12Y19883   2.610   2.628  -1.769  0.6721  1.4357  1.3563
  175SLPC  C31319884   2.494   2.709  -1.946  0.1892 -0.0339  0.3248
  175SLPC  H13X19885   2.537   2.807  -1.974 -0.3344 -0.5295 -2.5045
  175SLPC  H13Y19886   2.386   2.711  -1.972 -0.2227 -0.6598  1.8415
  175SLPC  C31419887   2.560   2.611  -2.037 -0.0387  0.6015 -0.2268
  175SLPC  H14X19888   2.540   2.508  -1.999 -0.9068  0.5137 -0.8921
  175SLPC  H14Y19889   2.668   2.629  -2.017  0.2445 -2.8493  2.4265
  175SLPC  C31519890   2.527   2.611  -2.187 -0.3670 -0.2135  0.8059
  175SLPC  H15X19891   2.592   2.535  -2.235 -1.1612  0.3469 -1.2732
  175SLPC  H15Y19892   2.554   2.710  -2.230  1.8160 -0.6762  1.0052
  175SLPC  C31619893   2.383   2.564  -2.229 -0.3674  0.3867  0.5104
  175SLPC  H16X19894   2.350   2.523  -2.131  1.0240  1.8712  1.6380
  175SLPC  H16Y19895   2.397   2.481  -2.302  0.7575 -0.8746  2.0698
  175SLPC  C31719896   2.295   2.669  -2.281 -0.6166  0.2544  0.2015
  175SLPC  H17X19897   2.332   2.720  -2.373 -0.0171 -1.6218 -0.6434
  175SLPC  H17Y19898   2.287   2.739  -2.195 -0.2956 -1.2247  1.4780
  175SLPC  C31819899   2.148   2.620  -2.304 -0.7922 -0.5006  0.6893
  175SLPC  H18X19900   2.086   2.706  -2.334 -1.1005  0.3039  3.3986
  175SLPC  H18Y19901   2.100   2.574  -2.215  2.3564 -0.6916  2.4677
  175SLPC  H18Z19902   2.143   2.542  -2.383  0.2155 -1.1590  1.2485
  176SLPC     N19903   3.533   4.685   0.151 -0.3590  0.1732  0.2033
  176SLPC   C1319904   3.666   4.740   0.189 -0.4993  0.4359  0.3344
  176SLPC  H13A19905   3.735   4.766   0.110  0.6474 -0.5567  0.9753
  176SLPC  H13B19906   3.662   4.822   0.260  1.5432 -0.4016  1.5145
  176SLPC  H13C19907   3.718   4.663   0.243  1.1808  1.3836  0.1483
  176SLPC   C1419908   3.448   4.642   0.265 -0.1481 -0.4965  0.1910
  176SLPC  H14A19909   3.441   4.724   0.334 -0.4531  0.2081 -0.6666
  176SLPC  H14B19910   3.350   4.610   0.231  0.0174  0.1065 -0.8912
  176SLPC  H14C19911   3.488   4.564   0.329 -0.7015 -1.8175 -1.0043
  176SLPC   C1519912   3.557   4.559   0.064 -0.0195 -0.6206  0.1026
  176SLPC  H15A19913   3.585   4.477   0.128 -1.4290  0.4648  2.2334
  176SLPC  H15B19914   3.461   4.538   0.019 -0.5333 -0.1445  0.9410
  176SLPC  H15C19915   3.623   4.585  -0.017 -0.7483 -1.2791 -0.7213
  176SLPC   C1219916   3.452   4.778   0.065  0.0953  0.3195 -0.0586
  176SLPC  H12A19917   3.363   4.728   0.030 -2.2485  2.2615  2.6820
  176SLPC  H12B19918   3.505   4.811  -0.023 -0.2016 -1.4021 -0.9274
  176SLPC   C1119919   3.415   4.919   0.126 -0.1414 -0.4617 -0.4201
  176SLPC  H11A19920   3.363   4.905   0.223  2.0691 -1.3606  0.7018
  176SLPC  H11B19921   3.344   4.976   0.062 -0.1613  2.0410  1.6631
  176SLPC     P19922   3.602   5.075   0.045  0.4595  0.2966 -0.2407
  176SLPC   O1319923   3.534   5.201   0.010  0.0218  0.3225 -0.1326
  176SLPC   O1419924   3.743   5.097   0.094 -0.5007  0.2696 -0.9555
  176SLPC   O1219925   3.530   4.998   0.155  0.0370 -0.1745  0.4394
  176SLPC   O1119926   3.609   4.969  -0.077  0.2717  0.2581  0.0427
  176SLPC    C119927   3.730   4.922  -0.138 -0.6176 -0.0760  0.2756
  176SLPC    HA19928   3.823   4.951  -0.085  0.7301 -2.6401 -0.5351
  176SLPC    HB19929   3.727   4.812  -0.124  0.3629  0.0808  2.0369
  176SLPC    C219930   3.736   4.964  -0.288  0.0232  0.3584  0.4722
  176SLPC    HS19931   3.830   4.930  -0.335  0.6481  2.3682  0.1455
  176SLPC   O2119932   3.735   5.110  -0.284  0.7501  0.3908 -0.4397
  176SLPC   C2119933   3.845   5.168  -0.245 -0.0391 -0.1200 -0.4077
  176SLPC   O2219934   3.954   5.112  -0.230 -0.5302 -0.2470  0.0616
  176SLPC   C2219935   3.823   5.314  -0.215 -0.0280  0.6139  0.1833
  176SLPC   H2R19936   3.719   5.316  -0.176 -0.1303 -0.5262  0.0010
  176SLPC   H2S19937   3.898   5.349  -0.141  0.7741 -0.1582 -0.2544
  176SLPC    C319938   3.617   4.913  -0.375 -0.4127 -0.8145 -0.4149
  176SLPC    HX19939   3.604   4.987  -0.458  1.7082 -0.3130 -0.3608
  176SLPC    HY19940   3.524   4.911  -0.315  0.6708 -0.5537  1.3362
  176SLPC   O3119941   3.657   4.782  -0.422 -0.5314  0.1627  0.0185
  176SLPC   C3119942   3.591   4.749  -0.524  0.5711 -0.3217 -0.0776
  176SLPC   O3219943   3.496   4.811  -0.571  0.2466  0.1243  1.0325
  176SLPC   C3219944   3.657   4.612  -0.577  0.1432  0.3949  1.2749
  176SLPC   H2X19945   3.618   4.532  -0.512 -1.0209  1.4535  1.9159
  176SLPC   H2Y19946   3.766   4.630  -0.568  0.1395  2.8430 -1.6815
  176SLPC   C2319947   3.827   5.392  -0.345 -0.5069  0.5716  0.2831
  176SLPC   H3R19948   3.800   5.498  -0.326 -1.5222  0.6684 -1.4669
  176SLPC   H3S19949   3.754   5.352  -0.419  0.0910  2.4899 -1.4368
  176SLPC   C2419950   3.965   5.412  -0.417 -0.4766 -0.1398  0.0403
  176SLPC   H4R19951   4.022   5.318  -0.405  1.6609  1.2820  1.7202
  176SLPC   H4S19952   4.031   5.486  -0.367  0.1345 -0.7348  0.1303
  176SLPC   C2519953   3.957   5.429  -0.571 -0.2457 -0.6475  0.2921
  176SLPC   H5R19954   3.924   5.534  -0.587 -0.8544 -0.5397  1.9911
  176SLPC   H5S19955   3.885   5.354  -0.612  0.9153 -1.0339 -1.1280
  176SLPC   C2619956   4.091   5.411  -0.642 -0.3332 -1.0507 -0.1220
  176SLPC   H6R19957   4.124   5.307  -0.622 -1.3708 -1.7113 -1.6470
  176SLPC   H6S19958   4.162   5.489  -0.607 -0.4764 -0.5950 -0.8151
  176SLPC   C2719959   4.078   5.422  -0.795  0.6106  0.4455  0.0089
  176SLPC   H7R19960   4.057   5.529  -0.815 -0.4731  0.6021  1.7963
  176SLPC   H7S19961   3.988   5.365  -0.826 -1.5783  2.0388  2.9781
  176SLPC   C2819962   4.198   5.373  -0.880 -0.2709  0.0872 -0.3105
  176SLPC   H8R19963   4.167   5.387  -0.986  2.6821  2.2766 -1.0320
  176SLPC   H8S19964   4.216   5.265  -0.858 -1.6460 -0.0384  0.2785
  176SLPC   C2919965   4.317   5.453  -0.840 -0.2020 -0.7569  0.2629
  176SLPC   H9R19966   4.318   5.516  -0.750  1.6731  0.8183 -0.7763
  176SLPC  C21019967   4.429   5.471  -0.917 -0.5242 -0.0895  0.8659
  176SLPC  H10R19968   4.509   5.538  -0.883  0.4380 -0.0227 -1.3719
  176SLPC  C21119969   4.468   5.396  -1.046 -0.0151 -0.1417  0.0227
  176SLPC  H11R19970   4.375   5.356  -1.093 -1.0434 -0.0404  1.8752
  176SLPC  H11S19971   4.527   5.303  -1.034  0.8569  0.0483 -2.3318
  176SLPC  C21219972   4.561   5.467  -1.133  0.1359 -0.5432  0.4571
  176SLPC  H12R19973   4.648   5.501  -1.075 -1.1602 -1.4901  3.1048
  176SLPC  C21319974   4.543   5.493  -1.262  0.5371  0.6367  0.7190
  176SLPC  H13R19975   4.629   5.547  -1.303  1.3043 -0.3773  0.9480
  176SLPC  C21419976   4.418   5.474  -1.343  0.8770  0.0926  0.2429
  176SLPC  H14R19977   4.379   5.577  -1.357 -0.4283 -0.4823 -0.4836
  176SLPC  H14S19978   4.341   5.414  -1.291  1.4547 -0.1101  0.8737
  176SLPC  C21519979   4.426   5.415  -1.486  0.4310  0.7967  0.0146
  176SLPC  H15R19980   4.498   5.475  -1.546 -0.0524  1.6480  0.2695
  176SLPC  H15S19981   4.327   5.430  -1.534  0.0926  0.2242  0.5256
  176SLPC  C21619982   4.464   5.261  -1.475 -0.0880  0.3892  0.0140
  176SLPC  H16R19983   4.380   5.207  -1.427  0.8217 -1.3692 -0.2971
  176SLPC  H16S19984   4.551   5.244  -1.408 -0.4749 -1.2360  0.1444
  176SLPC  C21719985   4.507   5.195  -1.611 -0.0035 -0.5478 -0.3803
  176SLPC  H17R19986   4.437   5.214  -1.694  0.0294 -2.3182 -0.8441
  176SLPC  H17S19987   4.513   5.085  -1.605  2.2852 -0.4125  1.9805
  176SLPC  C21819988   4.648   5.258  -1.655  0.1344 -0.3500 -0.5693
  176SLPC  H18R19989   4.626   5.367  -1.669  1.1642 -0.1473 -0.6654
  176SLPC  H18S19990   4.686   5.222  -1.753 -0.9821  0.6287 -1.3945
  176SLPC  H18T19991   4.733   5.260  -1.584  0.5566  0.1651 -1.0750
  176SLPC   C3319992   3.633   4.580  -0.728 -0.5176 -0.4077  0.0844
  176SLPC   H3X19993   3.651   4.679  -0.775 -3.1623  0.5942  0.9404
  176SLPC   H3Y19994   3.529   4.552  -0.755 -0.1615 -2.2807  0.5347
  176SLPC   C3419995   3.724   4.487  -0.795  0.2659 -0.4319  0.4377
  176SLPC   H4X19996   3.693   4.385  -0.764  0.0046 -1.1523 -1.9487
  176SLPC   H4Y19997   3.829   4.494  -0.762 -0.1790  0.7870  1.6874
  176SLPC   C3519998   3.722   4.487  -0.944 -0.5035 -0.1372 -0.0535
  176SLPC   H5X19999   3.752   4.588  -0.979  2.1618  0.1695  2.7227
  176SLPC   H5Y20000   3.618   4.460  -0.974 -1.1348  0.6253  1.3394
  176SLPC   C3620001   3.826   4.391  -1.001 -0.4271  0.7830  0.2073
  176SLPC   H6X20002   3.800   4.287  -0.973  1.7025  0.3415  0.7081
  176SLPC   H6Y20003   3.929   4.418  -0.970  0.4282 -1.3731 -0.5174
  176SLPC   C3720004   3.839   4.393  -1.151 -0.2681  0.6618  0.4597
  176SLPC   H7X20005   3.741   4.401  -1.204 -0.1094 -1.0333 -0.1408
  176SLPC   H7Y20006   3.871   4.291  -1.181 -0.5105  1.3372 -2.3723
  176SLPC   C3820007   3.941   4.488  -1.203 -0.5616  0.6224  0.5560
  176SLPC   H8X20008   4.039   4.472  -1.152 -0.9317 -0.8012  0.8898
  176SLPC   H8Y20009   3.908   4.589  -1.172 -1.6640 -0.6208  4.0155
  176SLPC   C3920010   3.957   4.483  -1.361 -0.4738 -0.1562  0.6337
  176SLPC   H9X20011   4.009   4.577  -1.391  0.0489 -0.7691 -0.4180
  176SLPC   H9Y20012   3.860   4.495  -1.413 -0.1210 -1.3070 -0.3121
  176SLPC  C31020013   4.032   4.362  -1.403 -0.0431  0.0214 -0.6847
  176SLPC  H10X20014   3.986   4.278  -1.347  0.6633  1.5471  2.3869
  176SLPC  H10Y20015   4.137   4.361  -1.367 -0.2509  1.1680  0.0054
  176SLPC  C31120016   4.036   4.339  -1.555 -0.5285  0.2968  0.0059
  176SLPC  H11X20017   4.078   4.425  -1.611  1.2357 -0.7423 -0.3721
  176SLPC  H11Y20018   3.933   4.326  -1.595  0.8619 -0.7508 -3.5887
  176SLPC  C31220019   4.123   4.209  -1.579 -0.0510 -0.4072  0.3043
  176SLPC  H12X20020   4.064   4.122  -1.542 -0.3231 -0.4559 -0.2285
  176SLPC  H12Y20021   4.212   4.228  -1.517  0.0006  3.3398 -0.6785
  176SLPC  C31320022   4.180   4.188  -1.717 -0.4509 -0.6049  0.4803
  176SLPC  H13X20023   4.279   4.238  -1.718 -0.7678  0.0862  1.5888
  176SLPC  H13Y20024   4.126   4.245  -1.795  0.5025 -0.9514 -0.4607
  176SLPC  C31420025   4.183   4.042  -1.760 -0.1260 -0.5400 -0.2623
  176SLPC  H14X20026   4.080   4.013  -1.732  1.5200 -1.6650  6.1779
  176SLPC  H14Y20027   4.250   4.001  -1.682 -0.0838  0.5209  0.2779
  176SLPC  C31520028   4.218   4.016  -1.907  0.0624  0.3209  0.0399
  176SLPC  H15X20029   4.225   3.906  -1.923 -0.4807  0.3020 -0.0861
  176SLPC  H15Y20030   4.318   4.057  -1.931  0.2529 -0.6967 -0.9528
  176SLPC  C31620031   4.120   4.065  -2.011 -0.6942 -0.5002 -0.1661
  176SLPC  H16X20032   4.092   4.172  -1.999  0.0132 -0.2045 -1.0052
  176SLPC  H16Y20033   4.034   3.997  -1.998 -0.4503 -0.7489  0.1330
  176SLPC  C31720034   4.189   4.042  -2.145  0.2930  0.2472  0.0327
  176SLPC  H17X20035   4.220   3.936  -2.157 -0.7659  0.0220 -0.8559
  176SLPC  H17Y20036   4.285   4.097  -2.152  2.0267 -2.4200  1.1912
  176SLPC  C31820037   4.102   4.087  -2.264  0.1160 -0.3888  0.2739
  176SLPC  H18X20038   4.157   4.063  -2.358 -0.5834 -1.4436  0.1224
  176SLPC  H18Y20039   4.080   4.196  -2.255 -2.1993 -0.8166  0.5124
  176SLPC  H18Z20040   4.001   4.040  -2.262  0.6834 -1.6336  0.6359
  177SLPC     N20041   4.426   4.142   8.622 -0.5179 -0.2780 -0.7840
  177SLPC   C1320042   4.555   4.191   8.550  0.3641  0.2814  0.4314
  177SLPC  H13A20043   4.645   4.144   8.586 -0.8244 -1.3671  1.3826
  177SLPC  H13B20044   4.555   4.168   8.444 -0.2480 -1.9258  0.8627
  177SLPC  H13C20045   4.577   4.296   8.564  1.7955  0.2468 -1.0816
  177SLPC   C1420046   4.307   4.206   8.554 -0.5025 -0.7590  0.1360
  177SLPC  H14A20047   4.303   4.158   8.457  2.4969 -1.0743  0.0887
  177SLPC  H14B20048   4.215   4.181   8.605 -1.6797  0.0846 -1.5040
  177SLPC  H14C20049   4.313   4.313   8.539  1.5525 -0.9348 -0.6038
  177SLPC   C1520050   4.437   4.196   8.761  0.8450  0.3201 -0.5791
  177SLPC  H15A20051   4.393   4.294   8.758 -0.6247 -0.3081 -0.7012
  177SLPC  H15B20052   4.368   4.148   8.829  2.2354 -0.1116  0.5764
  177SLPC  H15C20053   4.538   4.197   8.798  0.5361  0.5852  0.2848
  177SLPC   C1220054   4.419   3.985   8.628  0.4857 -0.4311 -0.3070
  177SLPC  H12A20055   4.503   3.952   8.686  1.4216  2.5987  0.2412
  177SLPC  H12B20056   4.435   3.945   8.529 -0.6051 -2.3976  0.2560
  177SLPC   C1120057   4.292   3.920   8.687 -0.2006  0.0020  0.4019
  177SLPC  H11A20058   4.311   3.811   8.673 -1.7320 -0.5579  2.2875
  177SLPC  H11B20059   4.206   3.944   8.621  0.4551  1.1660 -0.0549
  177SLPC     P20060   4.145   3.908   8.895 -0.4496  0.7226  0.1437
  177SLPC   O1320061   4.124   3.766   8.871  0.7178  0.0759  0.2076
  177SLPC   O1420062   4.151   3.958   9.035  0.3271 -0.8536  0.0217
  177SLPC   O1220063   4.279   3.949   8.824  0.0921  0.1780  0.3749
  177SLPC   O1120064   4.032   3.995   8.809  0.3383  0.8548 -0.2319
  177SLPC    C120065   3.992   4.124   8.843  0.4645 -0.7266 -0.7154
  177SLPC    HA20066   3.947   4.124   8.945  0.3428 -0.4086 -0.7657
  177SLPC    HB20067   4.077   4.196   8.848 -2.3793  2.9610 -1.2531
  177SLPC    C220068   3.887   4.178   8.741  0.0604 -0.1330  1.1378
  177SLPC    HS20069   3.792   4.123   8.757 -1.0945  0.0038 -3.7239
  177SLPC   O2120070   3.947   4.145   8.614 -0.1818  0.1806 -0.0062
  177SLPC   C2120071   3.857   4.144   8.514  0.8035  0.5813 -0.0220
  177SLPC   O2220072   3.738   4.170   8.526  0.3766 -0.3973 -0.4511
  177SLPC   C2220073   3.922   4.103   8.388 -0.3283  0.2095 -0.3897
  177SLPC   H2R20074   3.976   4.194   8.354 -1.2864  0.9155 -0.0892
  177SLPC   H2S20075   3.988   4.015   8.404 -1.3170 -0.2372  1.4904
  177SLPC    C320076   3.857   4.329   8.762  1.1689  0.1860  0.4107
  177SLPC    HX20077   3.850   4.349   8.872 -0.5577 -1.7964  0.7248
  177SLPC    HY20078   3.762   4.363   8.715 -0.1920 -1.6759  1.6448
  177SLPC   O3120079   3.973   4.391   8.705  0.5530  0.8049 -0.5062
  177SLPC   C3120080   3.961   4.512   8.666  0.6054 -0.0308  0.1773
  177SLPC   O3220081   3.855   4.576   8.671  0.3264  0.4151 -0.4727
  177SLPC   C3220082   4.100   4.565   8.621  0.4601  0.4944  0.5518
  177SLPC   H2X20083   4.138   4.496   8.542 -2.5991 -2.2612  1.2558
  177SLPC   H2Y20084   4.166   4.550   8.710 -0.0252 -0.3685  0.7828
  177SLPC   C2320085   3.828   4.073   8.273  0.3830  0.1721 -0.3055
  177SLPC   H3R20086   3.733   4.129   8.282  0.5127  0.2707  0.4872
  177SLPC   H3S20087   3.802   3.968   8.302  2.2520 -0.2159  0.0774
  177SLPC   C2420088   3.892   4.092   8.141  0.4810 -0.9491  0.1384
  177SLPC   H4R20089   3.943   4.190   8.135 -2.1309  0.5328  0.4992
  177SLPC   H4S20090   3.822   4.089   8.055 -1.8001 -1.6269  1.9081
  177SLPC   C2520091   3.989   3.983   8.114  0.0132 -0.1281  0.3697
  177SLPC   H5R20092   3.951   3.880   8.124 -1.8658  0.1500 -2.6397
  177SLPC   H5S20093   4.075   4.003   8.183 -0.5449  0.7049  0.8464
  177SLPC   C2620094   4.063   4.001   7.972  0.5774  0.6972 -0.5193
  177SLPC   H6R20095   4.154   3.938   7.964 -0.2974 -0.4497 -2.2371
  177SLPC   H6S20096   4.102   4.104   7.970 -1.6884  1.6098 -1.7127
  177SLPC   C2720097   3.979   3.993   7.847  0.2317  0.2681 -0.3712
  177SLPC   H7R20098   3.908   4.079   7.840  1.5711  1.4211 -0.3520
  177SLPC   H7S20099   3.914   3.904   7.858 -0.7749  0.8013 -1.6243
  177SLPC   C2820100   4.052   3.976   7.716 -0.6671 -0.1391  0.1851
  177SLPC   H8R20101   4.120   4.063   7.706  0.4767 -0.8940  1.1371
  177SLPC   H8S20102   3.977   3.993   7.636 -2.5517 -0.8312  1.7210
  177SLPC   C2920103   4.118   3.841   7.701  0.0655 -0.3897  0.2949
  177SLPC   H9R20104   4.115   3.770   7.785  0.8015 -0.0924  0.5791
  177SLPC  C21020105   4.203   3.810   7.601  0.1003 -0.0909 -0.7913
  177SLPC  H10R20106   4.247   3.710   7.609  4.1958  1.6402  2.3299
  177SLPC  C21120107   4.222   3.892   7.473 -0.1339  0.4964 -0.2369
  177SLPC  H11R20108   4.327   3.886   7.437  0.0267 -0.1260  0.3056
  177SLPC  H11S20109   4.194   3.995   7.502 -1.5941 -0.3150  1.4359
  177SLPC  C21220110   4.128   3.832   7.369 -0.2011  0.0436 -0.1424
  177SLPC  H12R20111   4.026   3.871   7.381 -0.3898 -1.2304  4.4997
  177SLPC  C21320112   4.161   3.748   7.266  0.0289 -0.4280  0.2616
  177SLPC  H13R20113   4.088   3.723   7.187  0.6957  0.7417 -0.7692
  177SLPC  C21420114   4.300   3.693   7.249  0.1704 -0.0649  0.8013
  177SLPC  H14R20115   4.351   3.696   7.348  1.1864  1.6370  0.2787
  177SLPC  H14S20116   4.361   3.741   7.169 -0.9873  0.1645  0.0357
  177SLPC  C21520117   4.274   3.548   7.212 -0.0600  0.6468  0.3480
  177SLPC  H15R20118   4.231   3.481   7.290  0.5114  2.2227  2.1031
  177SLPC  H15S20119   4.370   3.491   7.216 -2.4242 -3.7503  0.1743
  177SLPC  C21620120   4.201   3.514   7.075 -0.1578  0.5559 -0.4000
  177SLPC  H16R20121   4.100   3.560   7.069 -1.4536 -2.2374 -2.2103
  177SLPC  H16S20122   4.180   3.405   7.078 -2.0173  0.7953  4.3175
  177SLPC  C21720123   4.293   3.557   6.965  0.4595  0.6360 -0.1720
  177SLPC  H17R20124   4.388   3.502   6.979  0.1523  0.0830 -0.2561
  177SLPC  H17S20125   4.293   3.668   6.979  0.3769  0.6643 -0.3873
  177SLPC  C21820126   4.243   3.522   6.821  0.3191 -0.1696  0.2030
  177SLPC  H18R20127   4.150   3.581   6.807  1.1554  1.4069  1.0412
  177SLPC  H18S20128   4.224   3.413   6.826 -0.7292 -0.0393 -0.6747
  177SLPC  H18T20129   4.324   3.554   6.751  0.1052  0.2530  0.1441
  177SLPC   C3320130   4.102   4.711   8.564 -0.1855 -0.5821 -0.6670
  177SLPC   H3X20131   4.206   4.732   8.533 -0.1276  0.6442  0.2864
  177SLPC   H3Y20132   4.068   4.787   8.638  0.3297 -0.4840 -0.5264
  177SLPC   C3420133   4.015   4.730   8.448  0.2934 -0.5962  0.2955
  177SLPC   H4X20134   3.910   4.739   8.483  0.6642  1.9108  0.9193
  177SLPC   H4Y20135   4.022   4.647   8.374  1.7155 -1.5191  1.4005
  177SLPC   C3520136   4.063   4.849   8.372 -0.0302 -0.9328 -0.3527
  177SLPC   H5X20137   4.158   4.831   8.319 -0.1483 -0.1802 -0.8307
  177SLPC   H5Y20138   4.075   4.937   8.438 -0.8230 -1.5935  0.7088
  177SLPC   C3620139   3.952   4.899   8.273 -0.0113 -0.1930  0.1857
  177SLPC   H6X20140   3.853   4.903   8.325 -0.2991  2.6512 -0.4068
  177SLPC   H6Y20141   3.943   4.819   8.196 -0.6301 -0.9256  0.9932
  177SLPC   C3720142   3.976   5.033   8.193 -0.2653  0.8491 -0.2584
  177SLPC   H7X20143   4.069   5.004   8.140  0.3722 -0.6253  1.5714
  177SLPC   H7Y20144   4.006   5.110   8.268  1.5141 -1.9214  2.1010
  177SLPC   C3820145   3.859   5.080   8.110  0.5790 -0.0582  0.3941
  177SLPC   H8X20146   3.881   5.176   8.057 -0.4101  0.1199  0.2693
  177SLPC   H8Y20147   3.772   5.103   8.176 -0.5421  0.1996 -1.1024
  177SLPC   C3920148   3.815   4.976   8.002  0.5310 -0.0897  0.0279
  177SLPC   H9X20149   3.739   5.024   7.937 -1.5512 -2.6274  0.4321
  177SLPC   H9Y20150   3.766   4.896   8.061  1.4766 -0.1944  0.6939
  177SLPC  C31020151   3.932   4.914   7.925  1.1086 -0.1365 -0.1404
  177SLPC  H10X20152   3.989   4.848   7.994 -0.8376 -0.8036  0.9105
  177SLPC  H10Y20153   3.995   4.989   7.872 -1.3235  0.9847 -1.6725
  177SLPC  C31120154   3.882   4.833   7.812 -0.7449 -0.0965 -0.2657
  177SLPC  H11X20155   3.801   4.763   7.841  2.6222 -3.9642  0.6536
  177SLPC  H11Y20156   3.976   4.783   7.780  0.0878 -0.0626  1.9730
  177SLPC  C31220157   3.834   4.918   7.691  0.7218 -0.0795  0.6081
  177SLPC  H12X20158   3.914   4.990   7.664 -1.1647  2.5304  1.6418
  177SLPC  H12Y20159   3.744   4.979   7.713  1.0092  0.9475 -0.8934
  177SLPC  C31320160   3.804   4.825   7.572 -0.4421  0.5573  0.1868
  177SLPC  H13X20161   3.738   4.741   7.601 -0.1672 -0.3899 -1.7241
  177SLPC  H13Y20162   3.902   4.775   7.555  0.3673  0.8828  3.3598
  177SLPC  C31420163   3.757   4.892   7.450  0.1112  0.2426  0.1729
  177SLPC  H14X20164   3.807   4.990   7.433  0.9186 -0.2126 -0.1495
  177SLPC  H14Y20165   3.647   4.906   7.457  0.1777  1.1144 -0.4133
  177SLPC  C31520166   3.775   4.801   7.331 -0.0444 -0.2897 -0.5462
  177SLPC  H15X20167   3.721   4.704   7.345  0.9814 -0.6931  0.8632
  177SLPC  H15Y20168   3.883   4.774   7.330 -0.7629 -4.5783  3.2268
  177SLPC  C31620169   3.725   4.873   7.201  1.0118  0.8838 -0.9282
  177SLPC  H16X20170   3.616   4.894   7.214  0.7287 -0.4781 -0.9452
  177SLPC  H16Y20171   3.726   4.798   7.119  0.0159  1.4174 -1.4504
  177SLPC  C31720172   3.810   4.996   7.154  0.0892 -0.0967 -0.6143
  177SLPC  H17X20173   3.909   4.951   7.131  0.5088 -0.6884  2.0495
  177SLPC  H17Y20174   3.817   5.079   7.226 -2.3844 -0.5234  0.2229
  177SLPC  C31820175   3.749   5.063   7.031 -0.2210 -0.4533  0.8365
  177SLPC  H18X20176   3.644   5.093   7.048 -1.0730 -1.6446 -1.9099
  177SLPC  H18Y20177   3.736   4.994   6.945  0.0894  0.4853  0.0217
  177SLPC  H18Z20178   3.789   5.159   6.992  0.3685 -1.3378 -0.8218
  178SLPC     N20179   1.666   1.811   0.317 -0.5778 -0.4191 -0.1352
  178SLPC   C1320180   1.747   1.938   0.296 -0.1435 -0.4254  0.5157
  178SLPC  H13A20181   1.684   2.023   0.274  2.8082  1.8443  0.1892
  178SLPC  H13B20182   1.805   1.957   0.385  0.6043 -0.5654  0.0679
  178SLPC  H13C20183   1.808   1.926   0.208 -0.5037 -2.1167  0.4613
  178SLPC   C1420184   1.574   1.795   0.198  0.0168 -0.4065 -0.1992
  178SLPC  H14A20185   1.525   1.889   0.179 -0.3447 -0.6153 -0.3204
  178SLPC  H14B20186   1.625   1.761   0.110  1.6920  0.1439  0.5149
  178SLPC  H14C20187   1.494   1.724   0.216  0.2578 -0.9987 -1.4069
  178SLPC   C1520188   1.584   1.828   0.441 -0.5182  0.0715  0.4549
  178SLPC  H15A20189   1.641   1.849   0.530 -0.5401  1.0334  0.2512
  178SLPC  H15B20190   1.517   1.912   0.433 -0.6207 -0.1263 -0.9255
  178SLPC  H15C20191   1.530   1.736   0.459 -0.4351 -0.2512 -0.8756
  178SLPC   C1220192   1.759   1.689   0.329 -0.6978 -0.8032 -0.4384
  178SLPC  H12A20193   1.704   1.616   0.387 -0.3989 -0.4343  0.3320
  178SLPC  H12B20194   1.840   1.727   0.389 -0.6245  0.2065 -1.1445
  178SLPC   C1120195   1.831   1.643   0.199  0.1468 -0.5178  0.2192
  178SLPC  H11A20196   1.751   1.603   0.133 -0.4014 -0.7858  1.0250
  178SLPC  H11B20197   1.897   1.562   0.236 -2.2300 -2.6637  0.0599
  178SLPC     P20198   2.049   1.778   0.148  0.0859 -0.4218  0.1912
  178SLPC   O1320199   2.085   1.886   0.050  0.4730 -0.0342 -0.3375
  178SLPC   O1420200   2.078   1.808   0.292 -0.0369  0.3190  0.4695
  178SLPC   O1220201   1.901   1.748   0.133  0.3542 -0.1278 -0.0066
  178SLPC   O1120202   2.107   1.639   0.105 -0.5491 -0.0900 -0.2166
  178SLPC    C120203   2.180   1.641  -0.025  0.1168  0.1534  0.1860
  178SLPC    HA20204   2.230   1.736  -0.055 -0.4392  1.2228  2.4524
  178SLPC    HB20205   2.255   1.559  -0.017  0.3237  0.3485  0.2565
  178SLPC    C220206   2.104   1.591  -0.150  0.5789  0.1146  0.0603
  178SLPC    HS20207   2.027   1.670  -0.166 -1.0383 -1.4389 -0.1397
  178SLPC   O2120208   2.049   1.464  -0.113  0.2598  0.2858 -0.1854
  178SLPC   C2120209   1.913   1.454  -0.144 -0.9442  0.0878  0.0316
  178SLPC   O2220210   1.848   1.551  -0.177  0.3445 -0.0022 -0.1866
  178SLPC   C2220211   1.871   1.303  -0.135 -0.4719 -0.7014 -0.3088
  178SLPC   H2R20212   1.962   1.240  -0.138  0.6348  0.8864 -2.8735
  178SLPC   H2S20213   1.821   1.295  -0.035 -0.0127 -1.2943 -0.1209
  178SLPC    C320214   2.175   1.587  -0.285  0.2802  0.2680  1.1745
  178SLPC    HX20215   2.243   1.499  -0.292 -1.6187 -1.1815  0.2903
  178SLPC    HY20216   2.240   1.676  -0.300  0.6885 -0.0983  0.7221
  178SLPC   O3120217   2.075   1.564  -0.388  0.0545 -1.5530 -0.2510
  178SLPC   C3120218   2.024   1.674  -0.436 -0.0724 -0.4371  0.5528
  178SLPC   O3220219   2.055   1.791  -0.404  0.1172  0.1672  0.3033
  178SLPC   C3220220   1.927   1.637  -0.542  0.3490 -0.2036  0.2722
  178SLPC   H2X20221   1.822   1.665  -0.519 -0.7952 -1.5693 -2.6822
  178SLPC   H2Y20222   1.927   1.529  -0.567 -2.8603  0.4038 -3.5481
  178SLPC   C2320223   1.758   1.272  -0.237  0.5253  0.0730  0.2080
  178SLPC   H3R20224   1.696   1.363  -0.254 -0.3481 -0.7035 -0.9453
  178SLPC   H3S20225   1.689   1.212  -0.173 -0.1662  0.0528 -0.5398
  178SLPC   C2420226   1.818   1.197  -0.354  0.5751  0.2331  0.2149
  178SLPC   H4R20227   1.739   1.124  -0.381 -0.1731  0.2237  2.2289
  178SLPC   H4S20228   1.896   1.132  -0.310 -1.7008 -2.3138  0.7278
  178SLPC   C2520229   1.875   1.288  -0.459  0.0058  0.0381 -0.3239
  178SLPC   H5R20230   1.954   1.348  -0.408  0.8817 -1.7413  0.5022
  178SLPC   H5S20231   1.814   1.373  -0.496  1.4929  0.6811 -1.3946
  178SLPC   C2620232   1.947   1.206  -0.562 -0.1203  0.0524  0.3831
  178SLPC   H6R20233   1.866   1.172  -0.630  0.3954 -0.4226 -0.0013
  178SLPC   H6S20234   1.997   1.120  -0.513 -1.8787 -0.7312  0.8772
  178SLPC   C2720235   2.057   1.281  -0.637 -0.0057 -0.4208  0.3802
  178SLPC   H7R20236   2.148   1.296  -0.575  0.8301 -1.3558 -0.5628
  178SLPC   H7S20237   2.015   1.378  -0.668  1.2488 -0.4911 -1.7991
  178SLPC   C2820238   2.103   1.214  -0.775  0.1028 -0.5805  0.0251
  178SLPC   H8R20239   2.165   1.130  -0.737 -0.1663 -0.2295  1.2818
  178SLPC   H8S20240   2.168   1.293  -0.820 -0.6060 -0.1623 -0.2864
  178SLPC   C2920241   1.982   1.180  -0.858  0.1133  0.8661  0.0249
  178SLPC   H9R20242   1.909   1.105  -0.824  0.7954  0.2685  0.2137
  178SLPC  C21020243   1.953   1.220  -0.986  0.2468  0.3997 -0.1772
  178SLPC  H10R20244   1.861   1.178  -1.029 -0.4330  0.9439  0.7319
  178SLPC  C21120245   2.021   1.316  -1.079  0.1389  0.9304  0.0173
  178SLPC  H11R20246   2.088   1.381  -1.019  2.1125 -0.9471 -0.0347
  178SLPC  H11S20247   1.941   1.368  -1.136 -0.3453 -0.0495 -0.2194
  178SLPC  C21220248   2.114   1.251  -1.175  0.2286 -0.1264  0.0811
  178SLPC  H12R20249   2.201   1.210  -1.121 -1.9736 -1.5069  2.8684
  178SLPC  C21320250   2.087   1.242  -1.307 -0.4722 -0.2849  0.5651
  178SLPC  H13R20251   2.154   1.189  -1.375 -1.3053 -1.5364  0.6855
  178SLPC  C21420252   1.968   1.300  -1.381 -0.5171  0.0476 -0.1008
  178SLPC  H14R20253   1.934   1.393  -1.329 -0.3532  0.2110 -0.2856
  178SLPC  H14S20254   1.884   1.228  -1.375 -1.9551  1.5903 -0.7487
  178SLPC  C21520255   1.998   1.326  -1.532 -0.4765  0.7632 -0.3990
  178SLPC  H15R20256   2.083   1.397  -1.540  1.9110 -1.6813  1.3010
  178SLPC  H15S20257   1.904   1.370  -1.571 -0.6346  0.1000 -0.7926
  178SLPC  C21620258   2.028   1.197  -1.612  0.4236 -0.2126 -0.1360
  178SLPC  H16R20259   1.968   1.112  -1.573  0.4840  0.0020  0.4356
  178SLPC  H16S20260   2.136   1.172  -1.612  0.0827 -2.1585 -3.2494
  178SLPC  C21720261   1.975   1.211  -1.758  0.0576  0.0725 -0.1967
  178SLPC  H17R20262   1.877   1.264  -1.753  0.1811  0.3128 -0.3319
  178SLPC  H17S20263   1.954   1.106  -1.789 -3.2870  0.5256  0.1421
  178SLPC  C21820264   2.063   1.277  -1.863 -0.0468 -0.0949  0.1364
  178SLPC  H18R20265   2.166   1.241  -1.842 -0.0252 -1.3151 -1.7989
  178SLPC  H18S20266   2.053   1.387  -1.852  0.4598  0.0077 -0.3802
  178SLPC  H18T20267   2.033   1.243  -1.964 -0.4626  0.2984  0.1245
  178SLPC   C3320268   1.969   1.711  -0.674  0.5355 -0.0044 -0.3444
  178SLPC   H3X20269   1.963   1.822  -0.664 -0.4628 -0.1483  0.8781
  178SLPC   H3Y20270   1.896   1.676  -0.750  0.8108 -1.5840  0.0770
  178SLPC   C3420271   2.104   1.676  -0.742  0.8368 -0.0739  0.0895
  178SLPC   H4X20272   2.105   1.566  -0.762 -0.3972 -0.1691  0.5083
  178SLPC   H4Y20273   2.186   1.689  -0.668  1.9999 -2.3196 -0.6773
  178SLPC   C3520274   2.146   1.751  -0.870 -0.1050 -0.1311  0.0192
  178SLPC   H5X20275   2.255   1.740  -0.889 -0.3501 -2.1672 -0.4224
  178SLPC   H5Y20276   2.130   1.860  -0.853  0.1639 -0.0741 -0.0896
  178SLPC   C3620277   2.063   1.706  -0.994  0.6907  0.4159  0.1486
  178SLPC   H6X20278   1.958   1.728  -0.967  0.6010  3.3170 -2.1061
  178SLPC   H6Y20279   2.085   1.597  -0.998  0.3652  0.2963  1.2172
  178SLPC   C3720280   2.102   1.764  -1.129  0.6112 -0.3874  0.0181
  178SLPC   H7X20281   2.213   1.770  -1.128  0.5219  2.1005  1.1308
  178SLPC   H7Y20282   2.064   1.868  -1.126  0.1600 -0.5405 -0.3561
  178SLPC   C3820283   2.033   1.702  -1.246  0.3393  0.1680  0.0898
  178SLPC   H8X20284   1.923   1.689  -1.234  0.3353  0.4573  0.3904
  178SLPC   H8Y20285   2.068   1.597  -1.245 -3.2354 -1.1626  0.1603
  178SLPC   C3920286   2.073   1.777  -1.373  0.5387 -0.1866  0.0522
  178SLPC   H9X20287   2.184   1.776  -1.382  0.5133 -0.9696 -0.2849
  178SLPC   H9Y20288   2.059   1.887  -1.362  0.8575 -0.3609  3.3943
  178SLPC  C31020289   2.017   1.737  -1.501  0.5229  0.5590  0.4326
  178SLPC  H10X20290   1.908   1.755  -1.518  0.6030 -0.6213 -1.7090
  178SLPC  H10Y20291   2.029   1.627  -1.495 -2.7435 -0.1302 -2.3600
  178SLPC  C31120292   2.102   1.791  -1.620 -0.0692  0.0590 -0.0118
  178SLPC  H11X20293   2.209   1.774  -1.593 -0.2072 -2.0909 -0.6953
  178SLPC  H11Y20294   2.078   1.899  -1.628 -0.8527 -0.2455 -2.9425
  178SLPC  C31220295   2.069   1.709  -1.743 -0.7735  0.0332 -0.4940
  178SLPC  H12X20296   1.959   1.691  -1.749 -0.9759  0.9707  0.0725
  178SLPC  H12Y20297   2.104   1.604  -1.734  1.0488  0.4159 -2.4834
  178SLPC  C31320298   2.129   1.771  -1.866  0.4153  0.6291 -0.2358
  178SLPC  H13X20299   2.237   1.757  -1.842 -0.2723  0.9881  3.7766
  178SLPC  H13Y20300   2.117   1.881  -1.862  0.7336  0.8033 -2.5818
  178SLPC  C31420301   2.086   1.717  -2.003 -0.0030  0.6982 -0.2190
  178SLPC  H14X20302   1.975   1.715  -2.009 -0.1368 -0.6440  1.6736
  178SLPC  H14Y20303   2.120   1.611  -2.003 -2.4328 -0.1550  1.3046
  178SLPC  C31520304   2.150   1.786  -2.125 -0.4061 -0.4531 -0.4203
  178SLPC  H15X20305   2.117   1.891  -2.144  0.7489 -0.3448 -2.0719
  178SLPC  H15Y20306   2.127   1.725  -2.215  0.5664 -0.9151 -0.3664
  178SLPC  C31620307   2.301   1.801  -2.120  0.1588  0.3082 -0.4996
  178SLPC  H16X20308   2.340   1.710  -2.071  0.8233  1.5850  1.4820
  178SLPC  H16Y20309   2.326   1.888  -2.055 -3.9540  0.8042  0.7625
  178SLPC  C31720310   2.370   1.829  -2.250 -0.1151 -0.1750  0.0587
  178SLPC  H17X20311   2.326   1.915  -2.306 -1.3505 -0.6526  0.2632
  178SLPC  H17Y20312   2.347   1.743  -2.318 -0.5912  1.1419 -1.5244
  178SLPC  C31820313   2.522   1.835  -2.245  0.0111 -0.5167  0.3612
  178SLPC  H18X20314   2.560   1.937  -2.219  0.4298 -0.8997  1.3030
  178SLPC  H18Y20315   2.568   1.812  -2.344  0.3323 -1.8873  0.8145
  178SLPC  H18Z20316   2.551   1.765  -2.164 -0.9889 -0.4932  0.7498
  179SLPC     N20317   1.374   4.548   4.276  0.2009  0.2439 -0.2915
  179SLPC   C1320318   1.455   4.584   4.158  0.6984 -0.1813 -0.4763
  179SLPC  H13A20319   1.485   4.491   4.112  0.7407  0.1356 -1.0996
  179SLPC  H13B20320   1.396   4.635   4.083  2.2666 -0.7080 -2.1526
  179SLPC  H13C20321   1.538   4.640   4.198  0.6157 -2.2605  2.9290
  179SLPC   C1420322   1.263   4.452   4.233  0.1144 -0.3529 -0.1043
  179SLPC  H14A20323   1.209   4.425   4.322 -0.1648 -2.2024 -0.7801
  179SLPC  H14B20324   1.193   4.502   4.168  1.2727  0.4723 -0.7513
  179SLPC  H14C20325   1.294   4.363   4.180 -1.1760  0.4097 -2.2765
  179SLPC   C1520326   1.316   4.672   4.338 -0.0423  0.7448 -0.4052
  179SLPC  H15A20327   1.279   4.645   4.436  0.6628  0.2134 -0.2728
  179SLPC  H15B20328   1.395   4.743   4.356  0.0818  0.3888  0.5282
  179SLPC  H15C20329   1.240   4.721   4.279 -1.1619 -1.4693 -0.8872
  179SLPC   C1220330   1.468   4.485   4.385  0.3639 -0.2194  0.0918
  179SLPC  H12A20331   1.533   4.565   4.419  3.4703 -0.9454 -3.4010
  179SLPC  H12B20332   1.539   4.415   4.343 -0.1350 -1.2695  0.9336
  179SLPC   C1120333   1.412   4.413   4.513 -0.3194  0.1746 -0.4580
  179SLPC  H11A20334   1.504   4.368   4.557 -1.0346 -0.1109  0.7815
  179SLPC  H11B20335   1.344   4.332   4.481  2.0506 -1.8738 -0.5539
  179SLPC     P20336   1.413   4.559   4.731 -0.5353  0.0802  0.2540
  179SLPC   O1320337   1.559   4.582   4.695  0.5519 -0.7245 -0.2452
  179SLPC   O1420338   1.329   4.664   4.785  0.1013 -0.6928  0.4525
  179SLPC   O1220339   1.345   4.504   4.601 -0.4462 -0.2501  0.1808
  179SLPC   O1120340   1.397   4.436   4.827  0.1787  0.5047  0.3250
  179SLPC    C120341   1.263   4.405   4.874 -0.8633  0.4919 -0.3497
  179SLPC    HA20342   1.249   4.470   4.963  0.9256  0.6211 -0.1243
  179SLPC    HB20343   1.176   4.421   4.807 -2.8347 -2.5391  1.2524
  179SLPC    C220344   1.258   4.258   4.923 -0.0528  0.0222  0.3821
  179SLPC    HS20345   1.155   4.231   4.954  0.0079 -0.7317 -0.0528
  179SLPC   O2120346   1.342   4.243   5.037  0.0754 -0.0304 -0.4710
  179SLPC   C2120347   1.293   4.269   5.155 -0.7315 -0.0254  1.0742
  179SLPC   O2220348   1.175   4.270   5.183  0.1555 -0.0598 -0.3413
  179SLPC   C2220349   1.410   4.307   5.252 -0.0095 -0.8845  0.7935
  179SLPC   H2R20350   1.512   4.289   5.211  0.9179  2.2428  1.5061
  179SLPC   H2S20351   1.404   4.418   5.251  2.5914 -0.6824  0.2070
  179SLPC    C320352   1.294   4.161   4.808 -0.5993  0.2912 -0.4047
  179SLPC    HX20353   1.395   4.190   4.770 -0.1173  0.4278  0.9007
  179SLPC    HY20354   1.233   4.181   4.718 -0.3834 -0.8588 -0.8214
  179SLPC   O3120355   1.292   4.025   4.852  0.3012 -0.5490  0.1809
  179SLPC   C3120356   1.176   3.957   4.844  0.1931 -1.3044  0.2388
  179SLPC   O3220357   1.072   3.999   4.788 -1.1319 -0.2002  0.3296
  179SLPC   C3220358   1.194   3.825   4.897 -0.0915  0.3868  0.0210
  179SLPC   H2X20359   1.295   3.810   4.941  1.5307 -1.0814 -3.8154
  179SLPC   H2Y20360   1.184   3.749   4.817 -0.5946  0.2717  0.1869
  179SLPC   C2320361   1.400   4.229   5.391 -0.8170 -0.6992  0.4157
  179SLPC   H3R20362   1.388   4.121   5.368  2.0813 -1.3457  1.5601
  179SLPC   H3S20363   1.317   4.264   5.457 -0.7961  2.7213 -1.1769
  179SLPC   C2420364   1.538   4.250   5.456 -0.2499 -0.7083  0.4556
  179SLPC   H4R20365   1.560   4.355   5.483  1.2214 -1.1457  1.0305
  179SLPC   H4S20366   1.622   4.231   5.387  0.2603 -0.5286  1.0187
  179SLPC   C2520367   1.567   4.154   5.575  0.3965 -0.4145  0.4001
  179SLPC   H5R20368   1.675   4.145   5.600  0.5577  1.1736  0.3345
  179SLPC   H5S20369   1.527   4.053   5.553  0.2500 -0.3677  0.4524
  179SLPC   C2620370   1.496   4.206   5.702  0.2465  0.0618  0.6664
  179SLPC   H6R20371   1.386   4.202   5.693  0.3288  0.4353 -0.6687
  179SLPC   H6S20372   1.532   4.307   5.731 -0.0010 -0.6030  3.6182
  179SLPC   C2720373   1.534   4.118   5.817 -0.2958  0.3902  0.1164
  179SLPC   H7R20374   1.639   4.085   5.832  0.4037  0.6620 -3.3060
  179SLPC   H7S20375   1.482   4.021   5.804  0.0958 -0.1285  2.1506
  179SLPC   C2820376   1.491   4.181   5.947 -0.4062  0.2236  0.0546
  179SLPC   H8R20377   1.459   4.097   6.012 -2.0120  1.5433  1.0601
  179SLPC   H8S20378   1.398   4.239   5.927 -0.4594  0.7497  1.6715
  179SLPC   C2920379   1.585   4.283   6.000  0.6312 -0.0035 -0.7003
  179SLPC   H9R20380   1.579   4.384   5.955 -0.4569  0.1447 -0.2643
  179SLPC  C21020381   1.679   4.262   6.092  1.2539  0.1556  0.0297
  179SLPC  H10R20382   1.731   4.355   6.118 -2.7641  2.3564  1.0439
  179SLPC  C21120383   1.706   4.138   6.163  0.4372 -0.0069 -0.4144
  179SLPC  H11R20384   1.744   4.073   6.082 -0.7524  0.2318 -1.1767
  179SLPC  H11S20385   1.612   4.094   6.201  1.3838 -1.1022  0.7376
  179SLPC  C21220386   1.801   4.158   6.279  0.0664  0.1422 -0.0152
  179SLPC  H12R20387   1.904   4.151   6.241 -0.1091 -1.2866 -0.2861
  179SLPC  C21320388   1.775   4.211   6.399 -0.4951  0.2421  0.0377
  179SLPC  H13R20389   1.855   4.217   6.475  0.7154 -3.4211 -0.7764
  179SLPC  C21420390   1.639   4.243   6.443 -1.0892 -0.2552  0.0815
  179SLPC  H14R20391   1.566   4.170   6.402 -1.5614  1.2754 -1.9979
  179SLPC  H14S20392   1.609   4.341   6.401 -3.4411 -0.7049  0.5555
  179SLPC  C21520393   1.644   4.235   6.596  0.1393  0.9144  0.0871
  179SLPC  H15R20394   1.717   4.305   6.642 -0.2177 -0.1937  2.5122
  179SLPC  H15S20395   1.667   4.131   6.628 -1.1386  0.1354 -1.4214
  179SLPC  C21620396   1.511   4.276   6.663  0.3833 -0.3726 -0.3138
  179SLPC  H16R20397   1.527   4.265   6.773 -0.6512 -1.1165 -0.2227
  179SLPC  H16S20398   1.424   4.211   6.638  0.5114 -0.1721 -1.3361
  179SLPC  C21720399   1.463   4.420   6.633  0.3209 -0.4551  0.5380
  179SLPC  H17R20400   1.419   4.423   6.531  1.5198 -1.6667 -0.0362
  179SLPC  H17S20401   1.548   4.491   6.623  0.7856 -1.1715 -0.8235
  179SLPC  C21820402   1.357   4.471   6.731 -0.4873  0.1463  0.0186
  179SLPC  H18R20403   1.366   4.582   6.726  0.0900  0.0720 -1.1148
  179SLPC  H18S20404   1.389   4.450   6.835  2.4512 -0.3568 -0.8838
  179SLPC  H18T20405   1.254   4.453   6.695 -0.4587  1.9644 -1.1262
  179SLPC   C3320406   1.095   3.786   5.011 -0.5402  0.7034  0.3187
  179SLPC   H3X20407   1.104   3.675   5.019  1.4334  0.8999  1.4805
  179SLPC   H3Y20408   0.994   3.822   4.982 -2.0023 -0.5572  3.3777
  179SLPC   C3420409   1.120   3.859   5.142  0.2766  0.0998  0.3467
  179SLPC   H4X20410   1.029   3.861   5.206  1.7787  1.8989  2.5701
  179SLPC   H4Y20411   1.167   3.959   5.142  1.5906 -0.4993  0.7798
  179SLPC   C3520412   1.201   3.760   5.225 -0.5250  0.9787 -0.7541
  179SLPC   H5X20413   1.151   3.662   5.240  1.0674  0.2893  0.3218
  179SLPC   H5Y20414   1.304   3.734   5.192  0.5054  1.8644  1.5553
  179SLPC   C3620415   1.225   3.821   5.363 -0.2743  0.4952 -0.1809
  179SLPC   H6X20416   1.131   3.811   5.421  0.3865 -1.6437  0.6237
  179SLPC   H6Y20417   1.253   3.927   5.350 -0.7857  0.7744  0.9116
  179SLPC   C3720418   1.335   3.739   5.438  0.2832 -0.3036 -0.3413
  179SLPC   H7X20419   1.316   3.635   5.404 -1.1839  0.9304 -3.7732
  179SLPC   H7Y20420   1.331   3.766   5.546 -0.5040  2.0370 -0.8937
  179SLPC   C3820421   1.479   3.762   5.390 -0.3487 -0.0455 -0.2439
  179SLPC   H8X20422   1.508   3.870   5.391  1.0281 -0.4056  0.4470
  179SLPC   H8Y20423   1.490   3.714   5.290 -1.0001 -2.5638  0.8407
  179SLPC   C3920424   1.581   3.696   5.490 -0.2762 -0.5236  0.7048
  179SLPC   H9X20425   1.678   3.719   5.439 -1.8186 -0.0982 -2.3013
  179SLPC   H9Y20426   1.550   3.590   5.483 -3.7388  0.4671 -2.1619
  179SLPC  C31020427   1.585   3.742   5.632 -0.5493  0.1209 -0.0675
  179SLPC  H10X20428   1.494   3.717   5.691 -0.8284  0.1835 -0.4641
  179SLPC  H10Y20429   1.593   3.852   5.641 -0.7654  0.2232 -1.0049
  179SLPC  C31120430   1.692   3.670   5.718 -0.4735 -0.8479  0.6519
  179SLPC  H11X20431   1.779   3.644   5.653  0.1688 -0.2054  1.2454
  179SLPC  H11Y20432   1.663   3.566   5.744  0.1714 -0.3784  3.6398
  179SLPC  C31220433   1.738   3.751   5.832  0.0832  0.2710  0.5342
  179SLPC  H12X20434   1.689   3.850   5.826 -1.6455 -0.5313  0.6616
  179SLPC  H12Y20435   1.847   3.773   5.835  0.0392  0.4174  1.0149
  179SLPC  C31320436   1.673   3.696   5.959  0.4587  0.4127 -0.1966
  179SLPC  H13X20437   1.728   3.610   6.003 -0.7934 -0.0054  0.6175
  179SLPC  H13Y20438   1.575   3.651   5.932  0.1600  0.9227  0.0219
  179SLPC  C31420439   1.664   3.794   6.070  0.8007 -0.2463  0.6144
  179SLPC  H14X20440   1.579   3.861   6.045  1.7753  0.6826 -0.2635
  179SLPC  H14Y20441   1.756   3.854   6.084 -1.5714  3.4438  1.7905
  179SLPC  C31520442   1.637   3.718   6.205  0.2820 -0.4540  0.0732
  179SLPC  H15X20443   1.725   3.653   6.221 -0.1296 -0.9400  0.3963
  179SLPC  H15Y20444   1.546   3.658   6.182 -1.4386  2.1963 -0.4682
  179SLPC  C31620445   1.607   3.812   6.324 -0.0181 -0.4475  0.1492
  179SLPC  H16X20446   1.530   3.886   6.292  0.3924 -0.3348 -0.5887
  179SLPC  H16Y20447   1.696   3.876   6.344 -1.6052  2.1795 -0.6297
  179SLPC  C31720448   1.551   3.737   6.453  0.1804  0.2929  0.1347
  179SLPC  H17X20449   1.466   3.668   6.434 -0.5746  1.0660  0.6432
  179SLPC  H17Y20450   1.508   3.807   6.527 -1.0140 -0.7694  0.4875
  179SLPC  C31820451   1.660   3.645   6.517 -0.0944 -0.0014  0.0266
  179SLPC  H18X20452   1.612   3.582   6.594 -0.1514  1.5005  1.2699
  179SLPC  H18Y20453   1.752   3.698   6.550  1.6278 -2.3542 -0.7121
  179SLPC  H18Z20454   1.703   3.579   6.438 -0.0662  1.6661 -1.4279
  180SLPC     N20455   5.440   1.462   4.714  0.4588  0.3047 -0.7647
  180SLPC   C1320456   5.505   1.584   4.767  0.4215 -0.0436  0.1750
  180SLPC  H13A20457   5.577   1.617   4.694 -0.1036 -0.1311 -0.3903
  180SLPC  H13B20458   5.443   1.669   4.792  1.7262  0.9911  0.0434
  180SLPC  H13C20459   5.553   1.567   4.862  0.1297  0.1821  0.3630
  180SLPC   C1420460   5.539   1.356   4.686 -0.1064 -0.1595 -0.0184
  180SLPC  H14A20461   5.584   1.316   4.776 -2.6277  0.4842  1.6389
  180SLPC  H14B20462   5.496   1.273   4.631 -0.5061 -1.7740  2.5609
  180SLPC  H14C20463   5.617   1.390   4.621  1.0624  0.3781  1.6124
  180SLPC   C1520464   5.363   1.491   4.592  0.4440 -0.2261  0.1742
  180SLPC  H15A20465   5.298   1.572   4.620  0.7827 -0.1850  0.8634
  180SLPC  H15B20466   5.428   1.524   4.513  0.0931 -2.4698 -1.1612
  180SLPC  H15C20467   5.316   1.403   4.550  1.5284  0.1509 -1.9734
  180SLPC   C1220468   5.348   1.415   4.825  0.5920 -0.3038 -0.1945
  180SLPC  H12A20469   5.308   1.325   4.781 -2.2884  0.9536 -0.3357
  180SLPC  H12B20470   5.265   1.482   4.841  0.6843 -0.4594  1.0025
  180SLPC   C1120471   5.408   1.369   4.962  0.2587 -0.0150 -0.3858
  180SLPC  H11A20472   5.338   1.377   5.048 -0.7715 -3.5950 -0.7370
  180SLPC  H11B20473   5.496   1.430   4.992  0.3507  0.6047 -1.8542
  180SLPC     P20474   5.530   1.142   5.041 -0.2586  0.0430  0.3639
  180SLPC   O1320475   5.523   1.019   4.965 -0.0113 -0.2356  0.2875
  180SLPC   O1420476   5.664   1.198   5.072 -0.0426 -0.1887  0.3523
  180SLPC   O1220477   5.446   1.232   4.941  0.0178 -0.3916 -0.2612
  180SLPC   O1120478   5.435   1.135   5.165 -0.3238  0.1650  0.2775
  180SLPC    C120479   5.488   1.075   5.284 -0.2688  0.0357 -0.2088
  180SLPC    HA20480   5.413   1.003   5.323  2.3059 -2.4822  0.4326
  180SLPC    HB20481   5.587   1.025   5.283 -0.1417  0.2433 -2.0998
  180SLPC    C220482   5.499   1.185   5.397  0.3208  0.0351  0.6421
  180SLPC    HS20483   5.397   1.228   5.410  1.0040  1.9483 -0.0116
  180SLPC   O2120484   5.600   1.282   5.373 -0.1401 -0.2691 -0.2519
  180SLPC   C2120485   5.565   1.406   5.408  0.4302 -0.3020 -0.3560
  180SLPC   O2220486   5.449   1.434   5.434  0.3542 -0.3016 -0.0898
  180SLPC   C2220487   5.687   1.504   5.383  0.2654 -0.5324 -0.5945
  180SLPC   H2R20488   5.761   1.467   5.309  1.2218  2.6147 -1.4001
  180SLPC   H2S20489   5.638   1.597   5.346  1.5865  0.6087  0.3854
  180SLPC    C320490   5.534   1.111   5.530  0.0903 -0.4973  0.1776
  180SLPC    HX20491   5.642   1.083   5.532  1.5933  4.4481  2.3280
  180SLPC    HY20492   5.468   1.021   5.526 -1.8424  0.8746 -0.1500
  180SLPC   O3120493   5.516   1.186   5.650  0.0751  0.1669  0.2460
  180SLPC   C3120494   5.388   1.173   5.700  0.3258 -0.0358 -0.0265
  180SLPC   O3220495   5.294   1.118   5.649 -0.3783  0.0751  0.3368
  180SLPC   C3220496   5.388   1.246   5.839  0.1958  0.7500 -0.2144
  180SLPC   H2X20497   5.472   1.319   5.836 -1.1073  2.2862 -0.5143
  180SLPC   H2Y20498   5.412   1.173   5.919  0.6166  1.0925 -0.0272
  180SLPC   C2320499   5.766   1.550   5.503  0.2477  1.1376 -0.0933
  180SLPC   H3R20500   5.694   1.579   5.583 -0.3243 -0.4168 -0.0183
  180SLPC   H3S20501   5.827   1.641   5.484  1.2886  0.9290  1.9254
  180SLPC   C2420502   5.863   1.444   5.545  0.0407 -0.4145 -0.0891
  180SLPC   H4R20503   5.944   1.446   5.469  0.9987 -0.7264  0.8800
  180SLPC   H4S20504   5.820   1.341   5.541  0.4382 -0.7148  2.0753
  180SLPC   C2520505   5.917   1.457   5.685  0.8369 -0.4542 -0.2148
  180SLPC   H5R20506   5.945   1.564   5.690 -1.7325  0.2283  1.3311
  180SLPC   H5S20507   6.005   1.390   5.698  1.3257 -0.0355 -1.2552
  180SLPC   C2620508   5.809   1.419   5.790  0.0887 -0.2635  0.1460
  180SLPC   H6R20509   5.775   1.316   5.763  2.2652 -0.2419 -3.2454
  180SLPC   H6S20510   5.715   1.476   5.779 -0.0080  0.5191  3.6715
  180SLPC   C2720511   5.868   1.438   5.930  0.2160  0.2891 -0.2872
  180SLPC   H7R20512   5.927   1.532   5.935 -1.8667  1.6290  0.4771
  180SLPC   H7S20513   5.936   1.355   5.958 -0.5616  0.1450  1.3021
  180SLPC   C2820514   5.750   1.442   6.031 -0.4689  0.2236  0.8011
  180SLPC   H8R20515   5.788   1.414   6.131 -0.0209  1.2843  0.9455
  180SLPC   H8S20516   5.685   1.358   5.998 -0.9537  0.3036  1.5379
  180SLPC   C2920517   5.684   1.577   6.053 -0.2410 -0.7616  0.5112
  180SLPC   H9R20518   5.637   1.614   5.961  1.7449 -0.6701 -0.5320
  180SLPC  C21020519   5.674   1.649   6.168 -0.4354 -0.7151  0.2033
  180SLPC  H10R20520   5.637   1.752   6.164  1.2079 -0.0190  1.6363
  180SLPC  C21120521   5.758   1.622   6.290  1.0473 -0.0684  0.0415
  180SLPC  H11R20522   5.802   1.719   6.320 -0.5418 -0.2085  3.3277
  180SLPC  H11S20523   5.847   1.559   6.267  0.6482  0.0319 -1.9239
  180SLPC  C21220524   5.678   1.560   6.406 -0.1416 -0.1855 -0.3062
  180SLPC  H12R20525   5.608   1.482   6.373 -1.8524  0.9386  0.4934
  180SLPC  C21320526   5.682   1.598   6.537  0.0856 -0.3013  0.5700
  180SLPC  H13R20527   5.608   1.549   6.601  0.6770 -1.9231  0.0572
  180SLPC  C21420528   5.789   1.691   6.595 -0.4244  0.0937  0.1515
  180SLPC  H14R20529   5.835   1.758   6.519 -2.2513  0.6439 -0.5186
  180SLPC  H14S20530   5.875   1.631   6.631  2.0828  3.3624  0.1123
  180SLPC  C21520531   5.739   1.753   6.727 -0.1647 -0.4603  0.7511
  180SLPC  H15R20532   5.716   1.672   6.799  0.5624 -1.1055  0.2735
  180SLPC  H15S20533   5.649   1.816   6.711  1.2794  1.3959 -0.4666
  180SLPC  C21620534   5.839   1.855   6.777  0.3813 -0.6062 -0.1144
  180SLPC  H16R20535   5.856   1.939   6.705  0.4392  1.1845  1.8970
  180SLPC  H16S20536   5.935   1.804   6.800  1.2234  1.9951  2.8049
  180SLPC  C21720537   5.786   1.902   6.916 -0.6995 -0.5154  0.4293
  180SLPC  H17R20538   5.775   1.807   6.973 -2.0694 -1.9143 -1.9847
  180SLPC  H17S20539   5.684   1.944   6.909 -0.3589  0.3158  0.3533
  180SLPC  C21820540   5.884   2.012   6.966  0.4899 -0.2595 -0.2043
  180SLPC  H18R20541   5.869   2.109   6.913  0.6842 -0.1568 -0.0756
  180SLPC  H18S20542   5.988   1.976   6.951  1.3735  1.4476  1.3325
  180SLPC  H18T20543   5.868   2.026   7.075 -0.7571  0.0219 -0.4139
  180SLPC   C3320544   5.254   1.318   5.867 -0.6487 -0.1581 -0.4013
  180SLPC   H3X20545   5.170   1.249   5.890 -0.7166 -0.2262 -0.8436
  180SLPC   H3Y20546   5.223   1.380   5.780 -2.3440  1.4294  1.2353
  180SLPC   C3420547   5.271   1.418   5.988 -0.2756 -0.1592  1.1029
  180SLPC   H4X20548   5.195   1.498   5.990 -0.7104 -0.3946 -1.6078
  180SLPC   H4Y20549   5.366   1.475   5.977  1.1936 -2.5582  0.4687
  180SLPC   C3520550   5.271   1.346   6.121  0.8018  0.3254 -0.0708
  180SLPC   H5X20551   5.324   1.249   6.115  3.0081  1.3837  1.2197
  180SLPC   H5Y20552   5.165   1.325   6.149  0.7590 -0.4087 -0.7347
  180SLPC   C3620553   5.321   1.432   6.239 -0.3229  0.6053  0.1267
  180SLPC   H6X20554   5.291   1.537   6.223  0.2143  0.6113 -0.9374
  180SLPC   H6Y20555   5.432   1.436   6.237 -0.2951  0.1554 -1.8964
  180SLPC   C3720556   5.273   1.382   6.368  0.2417  0.2386  1.0420
  180SLPC   H7X20557   5.304   1.276   6.371 -1.0431 -0.2013 -0.1948
  180SLPC   H7Y20558   5.162   1.374   6.362  0.2954 -0.2443  0.6328
  180SLPC   C3820559   5.325   1.446   6.494  0.1854 -1.0496 -0.1608
  180SLPC   H8X20560   5.315   1.555   6.474 -1.4574 -1.2405 -0.4992
  180SLPC   H8Y20561   5.434   1.427   6.502  0.6235  1.2556  0.1040
  180SLPC   C3920562   5.237   1.412   6.616 -0.2433 -0.6679 -0.3517
  180SLPC   H9X20563   5.224   1.302   6.609 -2.4828 -0.5946  1.5614
  180SLPC   H9Y20564   5.140   1.466   6.615 -0.6679 -1.3776  0.7434
  180SLPC  C31020565   5.299   1.458   6.747  0.4237  0.0090  0.0032
  180SLPC  H10X20566   5.341   1.559   6.727  0.4438 -0.4127 -2.4579
  180SLPC  H10Y20567   5.386   1.396   6.778  1.4630  1.0170 -0.7879
  180SLPC  C31120568   5.206   1.461   6.871 -0.3670 -0.4774 -0.0680
  180SLPC  H11X20569   5.148   1.370   6.897  0.5787 -0.6471  1.6372
  180SLPC  H11Y20570   5.125   1.533   6.846 -0.4862 -1.3774 -2.4637
  180SLPC  C31220571   5.288   1.493   6.998  0.8919  0.6066  0.4498
  180SLPC  H12X20572   5.369   1.418   7.010  0.8511  0.8685  2.9493
  180SLPC  H12Y20573   5.229   1.491   7.092  0.1295  0.8501 -0.0161
  180SLPC  C31320574   5.354   1.635   6.998  0.2573  0.0972  0.5561
  180SLPC  H13X20575   5.280   1.708   6.956  0.1701 -0.1352  0.3027
  180SLPC  H13Y20576   5.443   1.640   6.932 -0.4995  0.2118 -0.4769
  180SLPC  C31420577   5.393   1.682   7.134  0.8299 -0.0446 -0.2793
  180SLPC  H14X20578   5.312   1.669   7.208  0.5311 -0.0782 -0.6108
  180SLPC  H14Y20579   5.426   1.788   7.139  0.6271 -0.0435  1.4152
  180SLPC  C31520580   5.521   1.606   7.181  0.2243  0.2359 -0.3696
  180SLPC  H15X20581   5.607   1.620   7.112  1.4804 -0.4600  1.0114
  180SLPC  H15Y20582   5.509   1.496   7.180  0.9403  0.0834  2.1377
  180SLPC  C31620583   5.563   1.643   7.318  0.3059 -0.1168 -0.0720
  180SLPC  H16X20584   5.568   1.754   7.319  1.4250 -0.1468  1.6140
  180SLPC  H16Y20585   5.663   1.602   7.342  0.1574 -1.0147 -0.9611
  180SLPC  C31720586   5.466   1.599   7.425  0.0811  0.1826  0.2408
  180SLPC  H17X20587   5.424   1.496   7.420 -0.7051  0.5195 -0.4578
  180SLPC  H17Y20588   5.374   1.661   7.420 -0.0087 -0.0024 -0.6047
  180SLPC  C31820589   5.517   1.626   7.561 -0.5113  0.1207 -0.4130
  180SLPC  H18X20590   5.608   1.566   7.585 -0.0843  0.9340  0.0613
  180SLPC  H18Y20591   5.433   1.600   7.630 -1.6469 -0.0826 -1.8357
  180SLPC  H18Z20592   5.541   1.732   7.582  0.5026 -0.4546  1.6067
  181SLPC     N20593   5.855   0.923   4.724 -0.2629 -0.5945  0.0058
  181SLPC   C1320594   5.915   0.930   4.587 -0.0433 -0.6211 -0.4706
  181SLPC  H13A20595   5.837   0.923   4.513 -2.1180 -2.1558  1.7292
  181SLPC  H13B20596   5.965   1.024   4.571  0.5192 -0.7590  0.4019
  181SLPC  H13C20597   5.992   0.857   4.562  0.5618 -0.0260 -0.3759
  181SLPC   C1420598   5.799   0.785   4.731  0.4552  1.1218  0.2589
  181SLPC  H14A20599   5.752   0.773   4.828  0.0458  4.4501  0.5776
  181SLPC  H14B20600   5.722   0.776   4.656 -0.3687  1.1851  1.0751
  181SLPC  H14C20601   5.880   0.715   4.724  2.1464  3.1542 -2.3474
  181SLPC   C1520602   5.739   1.027   4.734 -0.1420  0.5784  0.4118
  181SLPC  H15A20603   5.779   1.126   4.717 -0.0036  0.4740  0.1178
  181SLPC  H15B20604   5.656   0.994   4.673 -0.5918  1.8063  0.3407
  181SLPC  H15C20605   5.706   1.027   4.837 -0.5259 -0.3714  0.3008
  181SLPC   C1220606   5.965   0.949   4.824  0.0649 -0.4393 -0.4007
  181SLPC  H12A20607   6.003   1.047   4.800 -2.5276  0.7810  0.0374
  181SLPC  H12B20608   6.044   0.878   4.807  1.1137  0.3917  0.7888
  181SLPC   C1120609   5.920   0.948   4.978 -0.0192 -0.3590 -0.0781
  181SLPC  H11A20610   5.825   1.006   4.985 -0.4836 -1.0985 -0.1068
  181SLPC  H11B20611   6.007   1.006   5.016  0.3397  0.9738 -2.7385
  181SLPC     P20612   6.036   0.718   5.008 -0.1745  0.0395  0.3282
  181SLPC   O1320613   5.988   0.615   4.908 -0.0733  0.1843 -0.5341
  181SLPC   O1420614   6.157   0.789   4.970 -0.7566 -0.1521 -0.8065
  181SLPC   O1220615   5.917   0.820   5.034 -0.2982 -0.1264 -0.9674
  181SLPC   O1120616   6.049   0.649   5.143 -0.0920 -0.1798  0.3777
  181SLPC    C120617   6.062   0.722   5.266  0.0732  0.1469  0.2098
  181SLPC    HA20618   6.134   0.668   5.331  1.4868  1.8444  0.1089
  181SLPC    HB20619   6.104   0.824   5.261  0.0521  0.0801 -2.2541
  181SLPC    C220620   5.932   0.741   5.340  0.4690  0.4419  0.4183
  181SLPC    HS20621   5.898   0.841   5.305 -1.3570 -0.4786 -0.5436
  181SLPC   O2120622   5.974   0.730   5.477 -0.1401  0.0312 -0.4606
  181SLPC   C2120623   5.942   0.827   5.556 -0.2378 -0.1666  0.5580
  181SLPC   O2220624   5.891   0.935   5.526  0.5882  0.3912 -0.9859
  181SLPC   C2220625   5.999   0.784   5.693  0.3997 -0.3520 -0.3682
  181SLPC   H2R20626   5.960   0.681   5.711  1.0110 -1.3874 -4.1807
  181SLPC   H2S20627   6.109   0.781   5.679  0.4819  1.9871 -0.6663
  181SLPC    C320628   5.819   0.640   5.309  0.1757  0.0808  0.7755
  181SLPC    HX20629   5.852   0.539   5.339  0.1751 -0.8483 -2.0541
  181SLPC    HY20630   5.817   0.633   5.198  2.7590 -1.1631  0.7279
  181SLPC   O3120631   5.699   0.677   5.373  0.0217 -0.2154 -0.1061
  181SLPC   C3120632   5.604   0.587   5.357  0.2418  0.8500 -0.6184
  181SLPC   O3220633   5.616   0.478   5.303  0.1961 -0.2810  0.7014
  181SLPC   C3220634   5.478   0.645   5.415  0.2583 -1.0566 -0.2260
  181SLPC   H2X20635   5.394   0.590   5.368  0.9409 -2.6824  0.3924
  181SLPC   H2Y20636   5.473   0.751   5.380  2.0817 -0.9556 -0.2951
  181SLPC   C2320637   5.969   0.882   5.803 -0.0620 -0.1968  0.8452
  181SLPC   H3R20638   6.002   0.984   5.773  1.9162 -0.9120  0.4452
  181SLPC   H3S20639   6.037   0.856   5.887  0.0532  2.7969  1.7756
  181SLPC   C2420640   5.823   0.894   5.857  0.5201 -0.6727 -0.2156
  181SLPC   H4R20641   5.781   0.794   5.883 -2.3687  0.1717 -1.2414
  181SLPC   H4S20642   5.759   0.936   5.777 -1.3610 -1.6128  0.7138
  181SLPC   C2520643   5.810   0.987   5.978  0.2039 -0.5221  0.1011
  181SLPC   H5R20644   5.854   1.086   5.955  0.2063 -0.3180  0.9467
  181SLPC   H5S20645   5.874   0.946   6.059 -0.1901  2.4060  2.0630
  181SLPC   C2620646   5.675   1.004   6.049  0.2104  0.1827  0.2426
  181SLPC   H6R20647   5.634   0.901   6.060 -3.1391  1.5756  2.0014
  181SLPC   H6S20648   5.603   1.051   5.979  0.9301  0.7089 -0.1577
  181SLPC   C2720649   5.673   1.050   6.195 -0.1338  0.1004 -0.1168
  181SLPC   H7R20650   5.710   1.152   6.216 -0.5641  0.8690 -2.7731
  181SLPC   H7S20651   5.738   0.986   6.259 -0.3224  2.6689  2.8941
  181SLPC   C2820652   5.528   1.040   6.244  0.1906 -0.0027 -0.7358
  181SLPC   H8R20653   5.483   0.942   6.215 -0.0538 -0.0860 -0.0803
  181SLPC   H8S20654   5.468   1.119   6.194 -0.9789  1.8116  3.1402
  181SLPC   C2920655   5.529   1.067   6.391  0.5238 -0.5992 -0.3803
  181SLPC   H9R20656   5.540   1.173   6.418 -3.3619 -0.1704  0.1599
  181SLPC  C21020657   5.485   0.976   6.480  0.5168 -0.2518  0.3677
  181SLPC  H10R20658   5.479   1.006   6.586 -0.0150 -0.3377  0.3649
  181SLPC  C21120659   5.442   0.835   6.450 -0.0181 -0.2180 -0.0884
  181SLPC  H11R20660   5.503   0.786   6.371  0.5638 -1.3265  1.0044
  181SLPC  H11S20661   5.337   0.819   6.416 -0.1860 -1.4103  0.8888
  181SLPC  C21220662   5.482   0.746   6.564 -0.6533 -0.4469 -0.2193
  181SLPC  H12R20663   5.565   0.676   6.543 -1.0349 -0.9600 -0.0449
  181SLPC  C21320664   5.405   0.734   6.678 -0.8704  0.8065  0.5188
  181SLPC  H13R20665   5.427   0.660   6.757  2.3501  0.3957 -0.6355
  181SLPC  C21420666   5.287   0.823   6.701  0.7449 -0.3233  0.3034
  181SLPC  H14R20667   5.197   0.764   6.729  0.9949 -0.6102  0.5196
  181SLPC  H14S20668   5.254   0.886   6.616 -0.0567  0.3015  1.0610
  181SLPC  C21520669   5.311   0.931   6.808  0.0171 -0.6242  0.1918
  181SLPC  H15R20670   5.224   0.999   6.808 -0.2058 -0.8871 -0.8758
  181SLPC  H15S20671   5.389   1.002   6.773 -1.4655  2.5900  2.8984
  181SLPC  C21620672   5.332   0.881   6.950  0.6739  1.2550  0.5317
  181SLPC  H16R20673   5.259   0.799   6.971 -1.3290  2.9620  0.6348
  181SLPC  H16S20674   5.297   0.964   7.015  0.0194  2.0116 -0.7454
  181SLPC  C21720675   5.474   0.851   6.997 -0.4262 -0.3783  0.2142
  181SLPC  H17R20676   5.526   0.949   6.994  1.2475 -1.1178  2.5392
  181SLPC  H17S20677   5.512   0.785   6.917  2.4882  1.3389  0.0577
  181SLPC  C21820678   5.502   0.777   7.131  0.0731 -0.4244  0.3569
  181SLPC  H18R20679   5.438   0.688   7.152 -1.8869  0.3299 -1.9737
  181SLPC  H18S20680   5.464   0.844   7.212 -2.0542 -1.4248  0.2523
  181SLPC  H18T20681   5.611   0.755   7.139 -0.0110 -1.5472 -1.1957
  181SLPC   C3320682   5.462   0.628   5.563 -0.5632 -0.0244 -0.3517
  181SLPC   H3X20683   5.526   0.551   5.610 -1.2278  0.3279  1.2024
  181SLPC   H3Y20684   5.355   0.614   5.588 -1.1733  1.0288 -2.1133
  181SLPC   C3420685   5.501   0.758   5.636 -0.1578 -0.9651 -0.2900
  181SLPC   H4X20686   5.425   0.839   5.623 -2.4500 -3.1454 -1.3933
  181SLPC   H4Y20687   5.603   0.792   5.608 -0.2426  0.0977  0.6232
  181SLPC   C3520688   5.506   0.741   5.791 -2.1119  0.1697 -0.0152
  181SLPC   H5X20689   5.537   0.837   5.835 -2.1960  0.3695 -0.3873
  181SLPC   H5Y20690   5.580   0.661   5.812 -2.0274  0.6357  1.5893
  181SLPC   C3620691   5.375   0.692   5.857 -0.7911 -0.7783 -0.0563
  181SLPC   H6X20692   5.353   0.584   5.842 -1.4210 -0.5284 -1.0553
  181SLPC   H6Y20693   5.293   0.747   5.807 -0.3219 -0.8540 -0.9246
  181SLPC   C3720694   5.367   0.716   6.007 -0.3372 -0.0352  0.5176
  181SLPC   H7X20695   5.337   0.818   6.039 -1.3396 -0.3013  0.4806
  181SLPC   H7Y20696   5.466   0.697   6.053 -0.0048 -0.3733 -0.3119
  181SLPC   C3820697   5.258   0.626   6.073 -0.0795 -0.5363 -0.0805
  181SLPC   H8X20698   5.268   0.516   6.067 -0.4790 -0.5289 -1.0845
  181SLPC   H8Y20699   5.158   0.647   6.029 -0.3462 -1.3764  0.1157
  181SLPC   C3920700   5.228   0.669   6.221  0.2903 -0.2892  1.1033
  181SLPC   H9X20701   5.184   0.771   6.213  0.7749 -0.2211 -2.5493
  181SLPC   H9Y20702   5.322   0.670   6.280  1.6786  1.1290 -0.9913
  181SLPC  C31020703   5.121   0.583   6.280  0.1118 -0.0892 -0.8332
  181SLPC  H10X20704   5.140   0.475   6.260 -0.1246 -0.2974  0.0221
  181SLPC  H10Y20705   5.020   0.605   6.240 -0.7621 -1.5551  0.4313
  181SLPC  C31120706   5.129   0.596   6.437  0.1698  1.0855  0.0591
  181SLPC  H11X20707   5.113   0.702   6.466 -1.3666  0.3997  1.8873
  181SLPC  H11Y20708   5.230   0.569   6.475 -0.5324 -1.9482  0.0379
  181SLPC  C31220709   5.026   0.516   6.512  0.4042  0.1075 -0.5324
  181SLPC  H12X20710   5.020   0.414   6.468  1.3666 -0.0522 -0.3037
  181SLPC  H12Y20711   4.928   0.569   6.510  1.8939  3.0772  0.5212
  181SLPC  C31320712   5.066   0.480   6.655 -0.3689  0.7161 -0.7457
  181SLPC  H13X20713   5.075   0.567   6.724  1.2547 -2.8953  4.1548
  181SLPC  H13Y20714   5.161   0.422   6.649 -1.9832 -2.1540 -0.4043
  181SLPC  C31420715   4.977   0.375   6.717 -0.1495 -0.3832 -0.2818
  181SLPC  H14X20716   4.989   0.274   6.672 -1.8068  0.3477 -2.5644
  181SLPC  H14Y20717   4.875   0.411   6.694  0.7547  2.0355 -0.8728
  181SLPC  C31520718   5.004   0.365   6.865 -0.0790 -0.2406 -0.3201
  181SLPC  H15X20719   4.926   0.294   6.899 -0.6975  0.2766 -0.6288
  181SLPC  H15Y20720   5.006   0.461   6.921  0.7660 -1.3763  1.7224
  181SLPC  C31620721   5.142   0.298   6.885 -0.6345 -0.1229 -0.2076
  181SLPC  H16X20722   5.222   0.352   6.829  1.6306 -3.3203 -0.3502
  181SLPC  H16Y20723   5.124   0.198   6.840  1.7733 -1.4268  1.4991
  181SLPC  C31720724   5.173   0.288   7.032 -0.3283 -0.4964  0.1307
  181SLPC  H17X20725   5.149   0.196   7.090  0.2097  0.2644  1.5861
  181SLPC  H17Y20726   5.143   0.379   7.089  2.4827  0.7082 -0.1792
  181SLPC  C31820727   5.329   0.282   7.059  0.0912 -0.9168  0.2139
  181SLPC  H18X20728   5.381   0.364   7.005  0.3597 -1.3338 -0.1691
  181SLPC  H18Y20729   5.378   0.189   7.023  1.3413 -0.4783  0.7112
  181SLPC  H18Z20730   5.337   0.288   7.169 -1.0795 -2.1099  0.3817
  182SLPC     N20731   2.725   6.595   4.371  0.5850 -0.0101 -0.3232
  182SLPC   C1320732   2.594   6.554   4.418 -0.4277  0.6241  0.3989
  182SLPC  H13A20733   2.601   6.460   4.472 -0.1174  0.6742  0.4486
  182SLPC  H13B20734   2.537   6.628   4.473 -3.1255  0.6647 -2.2183
  182SLPC  H13C20735   2.539   6.536   4.328  1.7431  0.8656 -1.0472
  182SLPC   C1420736   2.773   6.509   4.252  0.6702 -0.0546  0.0079
  182SLPC  H14A20737   2.768   6.405   4.282  1.8476  0.0068  0.4574
  182SLPC  H14B20738   2.709   6.530   4.167  1.2821  3.8260  0.3340
  182SLPC  H14C20739   2.877   6.528   4.231  0.5852 -1.2245 -1.6444
  182SLPC   C1520740   2.842   6.576   4.470 -0.2574  0.5063  0.1430
  182SLPC  H15A20741   2.855   6.472   4.499 -0.1206  0.3546 -0.4455
  182SLPC  H15B20742   2.938   6.608   4.433 -0.3720  0.4666 -0.1902
  182SLPC  H15C20743   2.824   6.623   4.565 -2.3105  0.0746  0.0307
  182SLPC   C1220744   2.723   6.736   4.327 -0.5250 -0.0630  0.1635
  182SLPC  H12A20745   2.659   6.753   4.242  0.9355 -1.1307 -1.2341
  182SLPC  H12B20746   2.826   6.758   4.303 -1.0423 -0.4773 -2.9277
  182SLPC   C1120747   2.666   6.842   4.431  0.6232 -0.2311  0.2801
  182SLPC  H11A20748   2.716   6.929   4.383 -2.4014  1.7993  0.5372
  182SLPC  H11B20749   2.703   6.831   4.535  0.6604  1.3111  0.4462
  182SLPC     P20750   2.454   6.937   4.325 -0.0736 -0.0689  0.1714
  182SLPC   O1320751   2.509   6.885   4.196  0.1565 -0.4380 -0.1049
  182SLPC   O1420752   2.309   6.926   4.336 -0.2390 -0.2406 -0.5317
  182SLPC   O1220753   2.522   6.849   4.435 -1.0107 -0.1290  0.0337
  182SLPC   O1120754   2.498   7.085   4.364  0.3998  0.2035  0.6785
  182SLPC    C120755   2.480   7.142   4.491  0.1952  0.6613 -0.6732
  182SLPC    HA20756   2.388   7.203   4.497 -0.3473 -0.2389  0.3699
  182SLPC    HB20757   2.477   7.065   4.571  2.4049  0.0825 -1.0710
  182SLPC    C220758   2.609   7.221   4.520  0.5079 -0.4844 -0.4762
  182SLPC    HS20759   2.628   7.294   4.439 -2.2239  1.4289  0.4743
  182SLPC   O2120760   2.721   7.123   4.541 -0.0571  0.4316  0.1103
  182SLPC   C2120761   2.844   7.172   4.538  0.2443  0.4240  0.1527
  182SLPC   O2220762   2.875   7.287   4.511  0.2817 -0.1724  0.3927
  182SLPC   C2220763   2.945   7.062   4.571 -0.1754  0.9883 -0.1269
  182SLPC   H2R20764   2.905   6.969   4.524  3.6487 -0.4937 -0.7992
  182SLPC   H2S20765   3.045   7.084   4.528 -0.5503  1.2418 -0.8764
  182SLPC    C320766   2.586   7.310   4.650  0.1839  0.4799  0.0355
  182SLPC    HX20767   2.522   7.395   4.620  0.4366  1.2433  1.5472
  182SLPC    HY20768   2.676   7.361   4.691 -1.5201  1.2734  3.0940
  182SLPC   O3120769   2.520   7.243   4.761  1.1118 -0.2578  0.2731
  182SLPC   C3120770   2.454   7.319   4.845 -0.5488  0.0871  0.3734
  182SLPC   O3220771   2.453   7.441   4.844 -0.9812 -0.0878  0.3243
  182SLPC   C3220772   2.394   7.231   4.949  0.0000  0.3856 -0.0932
  182SLPC   H2X20773   2.402   7.125   4.919  1.7760  0.9301 -1.7713
  182SLPC   H2Y20774   2.287   7.261   4.954  0.1810  0.8556  2.0599
  182SLPC   C2320775   2.967   7.045   4.729  0.2502 -0.0725  0.3216
  182SLPC   H3R20776   2.870   7.033   4.782  0.6622 -0.0529  1.0991
  182SLPC   H3S20777   2.999   7.146   4.763  1.5949 -1.0387  2.0665
  182SLPC   C2420778   3.063   6.940   4.784 -0.1665  0.4785  0.6079
  182SLPC   H4R20779   3.160   6.948   4.730 -0.5627 -2.7201 -0.8277
  182SLPC   H4S20780   3.035   6.838   4.749  4.2544 -0.3363 -1.1951
  182SLPC   C2520781   3.084   6.944   4.938  0.0070  0.1798  0.5822
  182SLPC   H5R20782   2.988   6.911   4.983 -1.5827  0.2263 -2.4908
  182SLPC   H5S20783   3.102   7.049   4.969  0.5422  0.4291 -0.5167
  182SLPC   C2620784   3.197   6.850   4.999  0.6265 -0.8924  0.4156
  182SLPC   H6R20785   3.297   6.887   4.967  0.5379 -0.9886  0.0133
  182SLPC   H6S20786   3.178   6.753   4.948 -0.8064 -0.9878  1.0897
  182SLPC   C2720787   3.183   6.851   5.148 -0.6054  0.7474 -0.5421
  182SLPC   H7R20788   3.079   6.816   5.167 -0.1178  0.0921  1.1495
  182SLPC   H7S20789   3.209   6.953   5.184  4.1700  0.3314 -2.2166
  182SLPC   C2820790   3.287   6.753   5.217 -0.3034  0.2135  1.2537
  182SLPC   H8R20791   3.281   6.767   5.327 -1.4486  1.2285  1.0883
  182SLPC   H8S20792   3.383   6.791   5.177 -0.2285 -1.6261 -0.4778
  182SLPC   C2920793   3.272   6.612   5.164 -0.9488  0.0444  0.0962
  182SLPC   H9R20794   3.275   6.605   5.055  0.2728  0.8558  0.0488
  182SLPC  C21020795   3.272   6.500   5.237  0.9799 -0.3828 -0.8719
  182SLPC  H10R20796   3.249   6.404   5.189 -3.5698  0.3838 -0.6852
  182SLPC  C21120797   3.279   6.511   5.386  0.3177  0.1030 -1.0325
  182SLPC  H11R20798   3.251   6.413   5.429 -0.1090 -0.0932 -1.7531
  182SLPC  H11S20799   3.199   6.581   5.418  1.5733  1.0254  0.2074
  182SLPC  C21220800   3.415   6.559   5.439  0.5013 -0.7255  0.0705
  182SLPC  H12R20801   3.487   6.587   5.360  0.3748  0.0165  0.2109
  182SLPC  C21320802   3.452   6.556   5.568  0.5940 -0.2846 -0.6826
  182SLPC  H13R20803   3.553   6.592   5.594 -0.3345  1.9743  0.0257
  182SLPC  C21420804   3.378   6.480   5.683  0.0381 -0.2593  0.8704
  182SLPC  H14R20805   3.323   6.389   5.651 -0.8249  0.6186 -0.2420
  182SLPC  H14S20806   3.299   6.550   5.717  0.1185 -0.8718  2.3771
  182SLPC  C21520807   3.468   6.437   5.796  0.1962  0.4179  0.0037
  182SLPC  H15R20808   3.555   6.373   5.771 -1.5925 -2.8998  1.5304
  182SLPC  H15S20809   3.405   6.366   5.855  1.9600 -0.5946  0.7567
  182SLPC  C21620810   3.499   6.549   5.899 -0.0579 -0.4760 -0.3938
  182SLPC  H16R20811   3.409   6.607   5.927  0.8339  0.3932  0.7538
  182SLPC  H16S20812   3.579   6.622   5.875 -0.7911  0.9596  1.2767
  182SLPC  C21720813   3.536   6.487   6.032 -0.0346  0.2009 -0.2576
  182SLPC  H17R20814   3.638   6.443   6.035 -0.3560 -0.5783  3.6147
  182SLPC  H17S20815   3.465   6.409   6.065 -2.1605  2.0185 -0.2896
  182SLPC  C21820816   3.536   6.592   6.146  0.8766  0.7804 -0.2360
  182SLPC  H18R20817   3.559   6.551   6.247 -0.7149  0.9461  0.2347
  182SLPC  H18S20818   3.431   6.628   6.139  0.8104  0.8933  1.0334
  182SLPC  H18T20819   3.605   6.677   6.135  1.3800  0.7691  2.1724
  182SLPC   C3320820   2.467   7.251   5.083 -1.3475 -0.5179  0.2873
  182SLPC   H3X20821   2.476   7.361   5.099  3.1079 -0.2364 -2.4286
  182SLPC   H3Y20822   2.571   7.212   5.079 -0.3648  2.0035 -2.1206
  182SLPC   C3420823   2.400   7.184   5.206 -0.0969 -0.0982 -0.6019
  182SLPC   H4X20824   2.399   7.074   5.190  0.2425 -0.0405 -1.0342
  182SLPC   H4Y20825   2.295   7.215   5.227  0.4454  1.4423 -0.0372
  182SLPC   C3520826   2.474   7.211   5.339 -0.9496 -0.5172  0.3116
  182SLPC   H5X20827   2.493   7.320   5.340 -0.7174 -0.5280 -0.9440
  182SLPC   H5Y20828   2.574   7.167   5.319 -0.7860 -0.4131  0.8989
  182SLPC   C3620829   2.398   7.168   5.468  0.3825 -0.3855 -0.5055
  182SLPC   H6X20830   2.405   7.058   5.484 -2.1700 -0.6219 -0.5548
  182SLPC   H6Y20831   2.292   7.186   5.439  0.3638 -1.8679 -1.5022
  182SLPC   C3720832   2.442   7.257   5.585  0.0582 -0.2692 -0.0514
  182SLPC   H7X20833   2.405   7.361   5.576  0.3412 -0.0793  0.8348
  182SLPC   H7Y20834   2.553   7.260   5.587  0.1034 -1.3651  1.3068
  182SLPC   C3820835   2.391   7.209   5.729 -0.3912  0.3495  1.1052
  182SLPC   H8X20836   2.409   7.100   5.741 -1.4097 -0.0914 -0.9329
  182SLPC   H8Y20837   2.281   7.224   5.731 -0.7039 -1.6188  0.4370
  182SLPC   C3920838   2.454   7.293   5.840  0.5350  0.3122  0.4757
  182SLPC   H9X20839   2.452   7.401   5.818  2.1641 -0.3013 -3.6527
  182SLPC   H9Y20840   2.560   7.262   5.855  0.9568  1.3617 -0.2669
  182SLPC  C31020841   2.380   7.269   5.970 -0.1546  0.0192 -1.1655
  182SLPC  H10X20842   2.293   7.338   5.969 -1.4081 -1.4845 -0.7344
  182SLPC  H10Y20843   2.454   7.291   6.050 -0.6642 -2.2401  0.0271
  182SLPC  C31120844   2.309   7.133   6.003 -0.0737 -0.3189 -0.0804
  182SLPC  H11X20845   2.386   7.062   6.041  0.9494  0.9167  0.2153
  182SLPC  H11Y20846   2.262   7.103   5.907  0.8167 -3.7370  0.4017
  182SLPC  C31220847   2.199   7.127   6.119  0.0309  0.1418  0.0160
  182SLPC  H12X20848   2.124   7.050   6.093 -1.6394  1.9083 -0.6968
  182SLPC  H12Y20849   2.152   7.228   6.124 -1.8003 -0.6744 -0.0063
  182SLPC  C31320850   2.259   7.096   6.261 -0.0346  0.6141  0.2674
  182SLPC  H13X20851   2.348   7.162   6.270  0.1442  0.2933  0.9983
  182SLPC  H13Y20852   2.294   6.990   6.266  0.0118  0.5939 -0.3897
  182SLPC  C31420853   2.151   7.133   6.365  0.9249 -0.5482 -0.3221
  182SLPC  H14X20854   2.088   7.043   6.381 -0.8060  0.6785 -0.0459
  182SLPC  H14Y20855   2.086   7.214   6.328  1.5224  0.5164  0.8880
  182SLPC  C31520856   2.216   7.167   6.498 -0.0809 -0.4603  0.2866
  182SLPC  H15X20857   2.271   7.261   6.479 -2.3609  0.9572  0.3399
  182SLPC  H15Y20858   2.289   7.088   6.527  0.4252 -1.1311 -2.5487
  182SLPC  C31620859   2.112   7.200   6.605  0.2984 -0.8160 -0.5631
  182SLPC  H16X20860   2.029   7.263   6.566  0.8734  0.1508 -0.2534
  182SLPC  H16Y20861   2.163   7.263   6.681  2.4442 -1.3547 -1.4941
  182SLPC  C31720862   2.065   7.065   6.665  0.0907 -1.3190 -0.1452
  182SLPC  H17X20863   2.151   7.004   6.698  0.6867 -1.0505 -1.1491
  182SLPC  H17Y20864   2.013   7.013   6.582 -1.3662  0.2369 -0.2744
  182SLPC  C31820865   1.966   7.084   6.785  0.2100  0.0589 -0.2924
  182SLPC  H18X20866   2.015   7.144   6.864  2.6897 -0.9018 -1.0323
  182SLPC  H18Y20867   1.927   6.988   6.826  1.4318 -0.8150 -1.1048
  182SLPC  H18Z20868   1.877   7.145   6.756  1.0968  1.0052 -1.0569
  183SLPC     N20869   4.760   4.177   4.283 -0.2778  0.2108 -0.1023
  183SLPC   C1320870   4.682   4.197   4.412 -0.9712  0.7441 -0.2034
  183SLPC  H13A20871   4.731   4.267   4.478  1.4024  0.3070 -1.3823
  183SLPC  H13B20872   4.580   4.224   4.392 -1.0584  0.4673 -0.1288
  183SLPC  H13C20873   4.672   4.105   4.468 -0.2969  0.2606 -0.8486
  183SLPC   C1420874   4.905   4.144   4.312  0.6954  0.0005 -0.0896
  183SLPC  H14A20875   4.908   4.060   4.380  0.3858  0.9470  1.1381
  183SLPC  H14B20876   4.952   4.129   4.216 -2.0307  0.1922 -1.5448
  183SLPC  H14C20877   4.959   4.221   4.364  1.4120 -1.6987  1.8302
  183SLPC   C1520878   4.759   4.308   4.219 -0.3484 -0.6027 -0.0750
  183SLPC  H15A20879   4.830   4.312   4.138  0.0725 -0.0804  0.3133
  183SLPC  H15B20880   4.660   4.346   4.199 -0.3782  0.6637  2.1497
  183SLPC  H15C20881   4.803   4.374   4.292  1.2117 -1.6885  0.0002
  183SLPC   C1220882   4.691   4.073   4.191 -0.5939 -0.6127 -0.3446
  183SLPC  H12A20883   4.769   4.060   4.117  2.8799  0.9122  2.7211
  183SLPC  H12B20884   4.608   4.121   4.142 -0.2388  1.0025  0.5681
  183SLPC   C1120885   4.640   3.937   4.244 -0.3481 -0.4118 -0.6300
  183SLPC  H11A20886   4.588   3.880   4.164 -0.2240 -1.3821 -0.0340
  183SLPC  H11B20887   4.558   3.967   4.312 -0.5574  1.5289 -1.6527
  183SLPC     P20888   4.833   3.767   4.226  0.4704 -0.1958 -0.0450
  183SLPC   O1320889   4.742   3.680   4.146  0.2551 -0.5826  0.0869
  183SLPC   O1420890   4.939   3.839   4.161  0.2888 -0.1797 -0.0961
  183SLPC   O1220891   4.741   3.866   4.311 -0.3544 -0.1478 -0.2950
  183SLPC   O1120892   4.901   3.669   4.326 -0.5107 -0.3571  0.1715
  183SLPC    C120893   4.967   3.729   4.443  0.8560  0.8556 -0.2592
  183SLPC    HA20894   5.075   3.704   4.435  0.1857 -2.8886  0.3458
  183SLPC    HB20895   4.948   3.837   4.461  0.5510  0.6011  1.1245
  183SLPC    C220896   4.930   3.639   4.571 -0.1264  0.1165  0.0492
  183SLPC    HS20897   4.962   3.535   4.551 -1.7998 -0.1668 -1.4540
  183SLPC   O2120898   4.786   3.648   4.593  0.5535  0.3130  0.3054
  183SLPC   C2120899   4.720   3.541   4.637 -0.7242 -0.0326  0.1862
  183SLPC   O2220900   4.772   3.434   4.663  0.7052  0.0813  0.5571
  183SLPC   C2220901   4.579   3.574   4.663  0.3629 -0.3763  0.2250
  183SLPC   H2R20902   4.527   3.606   4.571 -1.1788  0.1399  1.2349
  183SLPC   H2S20903   4.529   3.479   4.691 -0.1112 -0.7282 -1.7096
  183SLPC    C320904   5.006   3.696   4.688 -0.1464 -0.7885 -0.6519
  183SLPC    HX20905   4.970   3.799   4.710 -0.4633 -1.0815  0.2507
  183SLPC    HY20906   5.113   3.715   4.663 -0.9176  2.4772 -2.0435
  183SLPC   O3120907   4.992   3.610   4.800 -0.4858 -0.0458 -0.0902
  183SLPC   C3120908   5.060   3.498   4.807 -0.2495  0.2443  0.1153
  183SLPC   O3220909   5.131   3.451   4.721 -0.2794  0.2356  0.1062
  183SLPC   C3220910   5.018   3.420   4.934 -0.7702 -0.7263 -0.8445
  183SLPC   H2X20911   5.035   3.313   4.907 -1.0468 -1.3687  1.3242
  183SLPC   H2Y20912   4.908   3.427   4.948 -0.4670  2.2605  0.8243
  183SLPC   C2320913   4.540   3.685   4.768 -1.1664 -0.1516  0.2080
  183SLPC   H3R20914   4.433   3.713   4.760 -1.4144 -1.1683 -0.2155
  183SLPC   H3S20915   4.597   3.772   4.729 -0.9086  0.3792  1.7104
  183SLPC   C2420916   4.573   3.664   4.916  0.5494 -0.4095 -0.4644
  183SLPC   H4R20917   4.591   3.555   4.926 -0.5373 -0.6078 -0.5948
  183SLPC   H4S20918   4.496   3.685   4.993  0.4990  0.5963 -0.7761
  183SLPC   C2520919   4.706   3.736   4.958 -0.3995  0.2371 -0.5811
  183SLPC   H5R20920   4.700   3.841   4.922 -0.0486  0.0607 -1.1713
  183SLPC   H5S20921   4.789   3.701   4.893 -1.0333 -1.4091 -0.5451
  183SLPC   C2620922   4.754   3.725   5.109 -0.4665 -1.3571  0.6977
  183SLPC   H6R20923   4.799   3.625   5.123  0.3607 -1.1572 -0.4252
  183SLPC   H6S20924   4.683   3.734   5.195  0.9118  0.3977  1.7361
  183SLPC   C2720925   4.866   3.837   5.124 -0.4305  0.2147  0.1004
  183SLPC   H7R20926   4.821   3.936   5.101  1.0623  1.1435  0.9753
  183SLPC   H7S20927   4.949   3.816   5.054 -0.8881 -0.2993 -0.2915
  183SLPC   C2820928   4.932   3.847   5.263 -0.6964 -0.0605 -1.1036
  183SLPC   H8R20929   5.021   3.913   5.260 -0.6185 -0.1982 -2.7823
  183SLPC   H8S20930   4.977   3.748   5.284  0.1873  0.2532 -1.4644
  183SLPC   C2920931   4.827   3.881   5.368 -0.6695 -0.5591 -0.2509
  183SLPC   H9R20932   4.778   3.978   5.352  0.3066  0.0055  0.1135
  183SLPC  C21020933   4.799   3.809   5.476  0.5842  0.0790 -0.2882
  183SLPC  H10R20934   4.720   3.841   5.546  0.0763 -0.0507 -0.8001
  183SLPC  C21120935   4.873   3.687   5.520 -0.0986 -0.2980  0.3864
  183SLPC  H11R20936   4.851   3.611   5.443  0.3795 -0.5956  0.5396
  183SLPC  H11S20937   4.817   3.651   5.609 -1.6204  4.6981  1.7773
  183SLPC  C21220938   5.023   3.688   5.536  0.3725 -0.5513 -0.2226
  183SLPC  H12R20939   5.069   3.658   5.440 -1.3179  0.0136 -1.2647
  183SLPC  C21320940   5.090   3.753   5.637 -0.0080  0.0357  0.0702
  183SLPC  H13R20941   5.199   3.754   5.632 -0.0346 -0.0898 -0.6412
  183SLPC  C21420942   5.027   3.814   5.761 -0.2983  0.4693  0.1637
  183SLPC  H14R20943   4.916   3.819   5.755 -0.4722 -1.4348  1.1161
  183SLPC  H14S20944   5.062   3.918   5.746  0.3141  0.1098 -1.0115
  183SLPC  C21520945   5.070   3.755   5.896 -0.3067  0.2555 -0.4907
  183SLPC  H15R20946   5.071   3.833   5.976  0.4262 -0.4016  0.1593
  183SLPC  H15S20947   5.171   3.710   5.887  0.3293  0.6257  3.0602
  183SLPC  C21620948   4.985   3.635   5.947  0.1530 -0.0922 -0.4230
  183SLPC  H16R20949   4.983   3.548   5.878 -0.9492  0.4178 -1.0524
  183SLPC  H16S20950   4.882   3.674   5.963  0.2841 -0.4263  1.4680
  183SLPC  C21720951   5.016   3.600   6.094 -0.0979 -0.3335  0.0277
  183SLPC  H17R20952   4.929   3.544   6.134 -0.2627 -0.6365 -0.7468
  183SLPC  H17S20953   5.035   3.684   6.164 -1.8693 -1.5052  2.0260
  183SLPC  C21820954   5.136   3.504   6.116 -0.0524  0.0818 -0.4710
  183SLPC  H18R20955   5.134   3.414   6.051 -0.1503 -0.0039 -0.3489
  183SLPC  H18S20956   5.149   3.473   6.221 -2.1390  1.8671  0.3913
  183SLPC  H18T20957   5.227   3.562   6.090  0.3032 -0.3396 -0.1750
  183SLPC   C3320958   5.091   3.475   5.062 -0.5978  0.4227 -0.1889
  183SLPC   H3X20959   5.056   3.579   5.081  3.2407  1.6848  0.9019
  183SLPC   H3Y20960   5.201   3.482   5.048 -0.5663 -2.1252 -1.6783
  183SLPC   C3420961   5.053   3.395   5.190  0.4481  0.1498  0.2200
  183SLPC   H4X20962   5.032   3.291   5.158  0.4590  0.5351 -1.0692
  183SLPC   H4Y20963   4.965   3.451   5.227  1.9075  2.9908 -0.3282
  183SLPC   C3520964   5.151   3.400   5.297 -0.0297 -0.4979 -0.4610
  183SLPC   H5X20965   5.171   3.504   5.332 -1.4340 -0.8028  1.4914
  183SLPC   H5Y20966   5.247   3.351   5.272  0.2001 -0.7891  0.8891
  183SLPC   C3620967   5.102   3.319   5.418 -0.5427  0.4746  0.3940
  183SLPC   H6X20968   5.113   3.210   5.401 -0.7444  0.3755  0.8620
  183SLPC   H6Y20969   4.994   3.337   5.439 -0.4896 -0.6660  1.8609
  183SLPC   C3720970   5.186   3.349   5.541 -0.3676 -0.5443 -0.1652
  183SLPC   H7X20971   5.200   3.459   5.547  0.2841 -0.5516 -1.2584
  183SLPC   H7Y20972   5.288   3.307   5.537  0.8101  2.1125  0.1349
  183SLPC   C3820973   5.125   3.304   5.673  0.0895 -0.5568  0.1020
  183SLPC   H8X20974   5.040   3.374   5.690  0.7832  0.4443 -0.4452
  183SLPC   H8Y20975   5.183   3.334   5.763 -1.3329  0.0495  0.8453
  183SLPC   C3920976   5.085   3.155   5.688 -0.1489  0.1274  0.5894
  183SLPC   H9X20977   5.165   3.093   5.643 -1.1067 -0.6631 -0.0628
  183SLPC   H9Y20978   4.989   3.141   5.634 -0.5993  2.4903  0.6561
  183SLPC  C31020979   5.064   3.090   5.830 -0.2425 -0.3562 -0.0007
  183SLPC  H10X20980   5.168   3.077   5.869 -0.6452 -3.9148  0.2427
  183SLPC  H10Y20981   5.035   2.984   5.816  0.8634 -0.3069 -3.6646
  183SLPC  C31120982   4.968   3.164   5.926  0.5301 -0.5652  0.3916
  183SLPC  H11X20983   4.861   3.146   5.902  0.5153  1.7820 -1.5859
  183SLPC  H11Y20984   4.988   3.272   5.912  0.1767 -0.1724  2.5271
  183SLPC  C31220985   4.979   3.138   6.077  0.2132 -0.7349  0.0416
  183SLPC  H12X20986   5.083   3.170   6.100 -0.4741  0.8950  1.0680
  183SLPC  H12Y20987   4.964   3.030   6.097 -1.2294 -0.3491  1.2490
  183SLPC  C31320988   4.882   3.225   6.160  0.8366 -0.6540  0.4541
  183SLPC  H13X20989   4.782   3.221   6.111  0.9663  0.8821  0.0132
  183SLPC  H13Y20990   4.906   3.331   6.138 -1.0081 -0.6962 -2.2755
  183SLPC  C31420991   4.851   3.189   6.302  0.6820 -0.6880  0.2937
  183SLPC  H14X20992   4.945   3.220   6.351 -0.2702  1.7638  0.6945
  183SLPC  H14Y20993   4.839   3.079   6.313  1.7946 -0.7752  0.7077
  183SLPC  C31520994   4.738   3.276   6.375 -0.1245 -0.1245 -0.5795
  183SLPC  H15X20995   4.635   3.262   6.337 -1.2587  0.5446  2.0224
  183SLPC  H15Y20996   4.760   3.385   6.367  1.6113 -0.3770  0.2468
  183SLPC  C31620997   4.727   3.241   6.528  0.0449 -0.2758  0.4815
  183SLPC  H16X20998   4.814   3.289   6.578  0.6543 -1.0247  0.1770
  183SLPC  H16Y20999   4.743   3.133   6.550  1.2487  0.1210  1.6817
  183SLPC  C31721000   4.593   3.292   6.597 -0.0876 -0.4134  0.3307
  183SLPC  H17X21001   4.583   3.260   6.703 -2.3365 -1.2913 -0.1003
  183SLPC  H17Y21002   4.511   3.234   6.550 -0.2821  0.5370 -0.5337
  183SLPC  C31821003   4.551   3.439   6.561  0.0716 -0.1142 -0.6799
  183SLPC  H18X21004   4.459   3.477   6.609  1.3360  2.9697 -0.4835
  183SLPC  H18Y21005   4.534   3.447   6.451 -0.7545  1.7837 -0.4438
  183SLPC  H18Z21006   4.631   3.514   6.578 -0.4352 -0.0701  1.8459
  184SLPC     N21007   5.075   1.027   4.854 -0.1048  0.3726 -0.5363
  184SLPC   C1321008   4.996   1.040   4.728  0.2542  0.3981  0.5308
  184SLPC  H13A21009   5.002   1.144   4.697 -1.4570  0.0298 -1.3104
  184SLPC  H13B21010   5.044   0.983   4.650 -3.9848  0.1125 -2.2572
  184SLPC  H13C21011   4.891   1.017   4.735 -0.7263  4.2696  1.0921
  184SLPC   C1421012   5.218   1.062   4.831 -0.2265 -0.3490 -0.0797
  184SLPC  H14A21013   5.281   1.062   4.919  0.6258 -1.2752 -0.6776
  184SLPC  H14B21014   5.274   0.998   4.766 -1.2677 -4.0098  2.3197
  184SLPC  H14C21015   5.234   1.163   4.797 -0.3013 -0.8001 -1.5039
  184SLPC   C1521016   5.063   0.883   4.894 -0.6584  0.2528 -0.4337
  184SLPC  H15A21017   5.141   0.848   4.961 -0.9336 -0.0113 -0.2463
  184SLPC  H15B21018   4.966   0.874   4.940  0.8183  1.4749  3.3566
  184SLPC  H15C21019   5.073   0.820   4.807 -0.5749 -0.1846 -0.1143
  184SLPC   C1221020   5.016   1.115   4.971  0.0645  1.1490  0.4308
  184SLPC  H12A21021   5.061   1.108   5.069 -2.7193  3.4479  2.0598
  184SLPC  H12B21022   4.915   1.079   4.983  0.5100 -0.6556 -0.8113
  184SLPC   C1121023   5.015   1.269   4.937 -0.0145  0.5420 -0.3308
  184SLPC  H11A21024   5.107   1.305   4.886 -0.2028  2.0926  0.3657
  184SLPC  H11B21025   5.031   1.332   5.027  0.0187  0.3914 -0.2312
  184SLPC     P21026   4.767   1.329   4.937  0.2127 -0.5586 -0.1492
  184SLPC   O1321027   4.662   1.374   4.840 -0.0118 -0.0760 -0.0404
  184SLPC   O1421028   4.743   1.204   5.010  0.3216 -0.6731  0.1691
  184SLPC   O1221029   4.906   1.319   4.858 -0.1582 -0.1983 -0.0628
  184SLPC   O1121030   4.797   1.446   5.042  0.3540  0.1761 -0.1187
  184SLPC    C121031   4.837   1.576   4.991 -0.5538 -0.2351  0.2229
  184SLPC    HA21032   4.948   1.583   4.983 -0.3098  0.3299  3.1836
  184SLPC    HB21033   4.804   1.597   4.887  3.0505 -1.9062 -1.4565
  184SLPC    C221034   4.780   1.695   5.073 -0.6188 -0.6944  0.4055
  184SLPC    HS21035   4.831   1.786   5.035 -0.9482 -0.5612  0.2730
  184SLPC   O2121036   4.806   1.674   5.215  0.3419  0.3973 -0.8228
  184SLPC   C2121037   4.936   1.678   5.243 -0.9164 -0.2362 -0.2414
  184SLPC   O2221038   5.023   1.717   5.172 -0.5726 -0.6365  0.0818
  184SLPC   C2221039   4.962   1.603   5.373 -0.1861 -0.3527  0.3481
  184SLPC   H2R21040   4.917   1.501   5.369 -0.9628 -0.2251  3.4103
  184SLPC   H2S21041   5.071   1.591   5.388 -0.1893  0.7809  1.4438
  184SLPC    C321042   4.626   1.700   5.051 -0.2438 -0.1914 -0.4471
  184SLPC    HX21043   4.584   1.601   5.078 -0.5531 -0.2745 -1.2189
  184SLPC    HY21044   4.590   1.719   4.948 -0.2653  0.1464 -0.3778
  184SLPC   O3121045   4.562   1.791   5.141  0.1254  0.1334  0.2590
  184SLPC   C3121046   4.589   1.921   5.108 -0.0361  0.3853 -0.6392
  184SLPC   O3221047   4.625   1.957   4.997  0.1266  0.1666 -0.3767
  184SLPC   C3221048   4.547   2.012   5.227  0.1517  0.9681  0.0603
  184SLPC   H2X21049   4.437   2.010   5.234  0.1834  1.8897  1.2109
  184SLPC   H2Y21050   4.578   2.115   5.197  1.3422  0.6065 -0.0314
  184SLPC   C2321051   4.897   1.682   5.484  0.4058 -0.1077 -0.4919
  184SLPC   H3R21052   4.786   1.685   5.489  0.4752  0.1686  1.3524
  184SLPC   H3S21053   4.936   1.785   5.482 -0.0782  0.2135  2.3978
  184SLPC   C2421054   4.939   1.623   5.619  0.0163  0.4242 -0.1796
  184SLPC   H4R21055   5.049   1.623   5.638  0.0121  0.4189 -0.1536
  184SLPC   H4S21056   4.906   1.518   5.608  0.1938  0.5389 -2.1454
  184SLPC   C2521057   4.874   1.693   5.742  0.6381  0.3315 -0.9919
  184SLPC   H5R21058   4.765   1.675   5.749  0.4708  1.6680  0.4318
  184SLPC   H5S21059   4.888   1.803   5.738 -0.9097  0.6101  0.2822
  184SLPC   C2621060   4.939   1.639   5.877  0.0187  0.3569 -0.1130
  184SLPC   H6R21061   5.048   1.645   5.857  0.2918 -4.7179 -1.4763
  184SLPC   H6S21062   4.914   1.533   5.898 -0.6722  0.7779  1.3269
  184SLPC   C2721063   4.893   1.724   5.992  0.6114  0.3305 -0.0159
  184SLPC   H7R21064   4.783   1.710   6.000  0.5390  0.0078 -1.3377
  184SLPC   H7S21065   4.909   1.833   5.978 -1.2328  0.7153  0.7127
  184SLPC   C2821066   4.965   1.685   6.127  0.5473  0.3971 -0.3696
  184SLPC   H8R21067   5.069   1.721   6.109  0.1122  1.2125 -1.3725
  184SLPC   H8S21068   4.977   1.575   6.135  2.9553  0.3761 -2.7115
  184SLPC   C2921069   4.899   1.768   6.238  0.1564  0.7983  0.3799
  184SLPC   H9R21070   4.843   1.854   6.199 -1.5650 -1.1004 -1.5807
  184SLPC  C21021071   4.899   1.750   6.375  0.2590 -0.2142 -0.0354
  184SLPC  H10R21072   4.855   1.832   6.434  1.6213  1.2514 -0.9581
  184SLPC  C21121073   4.963   1.637   6.448 -0.3362  0.7679  0.1894
  184SLPC  H11R21074   5.019   1.565   6.384 -0.4168 -0.2872  1.2787
  184SLPC  H11S21075   4.877   1.577   6.487  0.1560 -0.6050 -0.7292
  184SLPC  C21221076   5.038   1.684   6.560 -0.3518  0.2017 -0.1956
  184SLPC  H12R21077   5.146   1.664   6.552 -0.5775 -1.5112  0.5065
  184SLPC  C21321078   5.000   1.727   6.680  0.2971 -0.4669 -0.0141
  184SLPC  H13R21079   5.075   1.749   6.758 -0.2953  0.3845  0.3215
  184SLPC  C21421080   4.857   1.751   6.727 -0.1825  0.1485 -0.2973
  184SLPC  H14R21081   4.801   1.792   6.640 -2.2105  1.7633  1.6648
  184SLPC  H14S21082   4.856   1.813   6.819  1.5306  1.4790 -1.1302
  184SLPC  C21521083   4.796   1.618   6.778  0.2133  0.5440  0.2565
  184SLPC  H15R21084   4.870   1.565   6.841  1.3329  2.1413  0.3492
  184SLPC  H15S21085   4.779   1.561   6.685  1.0677 -0.8145  0.8969
  184SLPC  C21621086   4.670   1.633   6.865  0.3818  0.0966 -0.4115
  184SLPC  H16R21087   4.704   1.692   6.953  0.2784 -0.5133  0.0405
  184SLPC  H16S21088   4.648   1.526   6.880  2.8832 -0.7095 -1.8512
  184SLPC  C21721089   4.560   1.724   6.803 -0.8546 -0.0141  0.5682
  184SLPC  H17R21090   4.537   1.689   6.700 -0.8313  0.0443  0.5434
  184SLPC  H17S21091   4.591   1.830   6.799 -0.8146  0.0110  1.3428
  184SLPC  C21821092   4.433   1.716   6.882  0.3832  0.0366 -0.4383
  184SLPC  H18R21093   4.409   1.608   6.895 -1.6478  0.6394  1.4112
  184SLPC  H18S21094   4.346   1.762   6.831  0.3806 -0.4944 -0.9153
  184SLPC  H18T21095   4.444   1.761   6.983 -1.5303  2.0796 -1.0684
  184SLPC   C3321096   4.617   1.962   5.358  0.3953 -0.5026  0.8596
  184SLPC   H3X21097   4.725   1.987   5.361  0.0933  0.8413  2.3877
  184SLPC   H3Y21098   4.601   1.854   5.379 -0.5353 -0.7622 -0.9933
  184SLPC   C3421099   4.558   2.038   5.483 -0.6047  0.0852 -0.4214
  184SLPC   H4X21100   4.447   2.038   5.490 -0.5547  2.2718  1.8154
  184SLPC   H4Y21101   4.578   2.147   5.484 -1.0450  0.1758 -0.9464
  184SLPC   C3521102   4.614   1.977   5.613 -0.3229  0.4991  0.1012
  184SLPC   H5X21103   4.714   2.015   5.642 -0.0786  2.2733 -2.7019
  184SLPC   H5Y21104   4.621   1.866   5.606  0.0778  0.5235  0.0986
  184SLPC   C3621105   4.520   2.000   5.738 -0.0823  0.1783 -0.3559
  184SLPC   H6X21106   4.420   1.956   5.716  0.3468 -1.2040  0.3582
  184SLPC   H6Y21107   4.517   2.111   5.733  2.9386  0.2835 -1.9147
  184SLPC   C3721108   4.584   1.955   5.873 -0.2266 -0.2925  0.0602
  184SLPC   H7X21109   4.679   2.011   5.884 -0.5293 -0.0486  1.6761
  184SLPC   H7Y21110   4.600   1.846   5.869 -0.3600 -0.3251  0.3899
  184SLPC   C3821111   4.501   1.991   5.998 -0.1337  0.0475  0.1192
  184SLPC   H8X21112   4.417   1.920   6.014 -0.5791  0.8995  1.7712
  184SLPC   H8Y21113   4.453   2.091   5.993 -0.5300 -0.0537  1.4629
  184SLPC   C3921114   4.585   1.980   6.124  0.1890 -0.2040  0.3133
  184SLPC   H9X21115   4.671   2.050   6.127  0.9686 -1.1027 -0.2857
  184SLPC   H9Y21116   4.626   1.877   6.116 -0.6941 -0.6471  1.2756
  184SLPC  C31021117   4.496   1.996   6.250 -0.1074  0.3828  0.1823
  184SLPC  H10X21118   4.419   1.919   6.229  1.9801 -1.6387 -0.5737
  184SLPC  H10Y21119   4.448   2.095   6.265 -3.8448 -1.5441  2.3052
  184SLPC  C31121120   4.587   1.963   6.375 -0.0447  0.1383  0.1470
  184SLPC  H11X21121   4.680   2.019   6.349  0.4360 -1.5085 -1.9494
  184SLPC  H11Y21122   4.622   1.858   6.373  1.0145  0.4827 -1.2738
  184SLPC  C31221123   4.549   2.011   6.510  0.2280 -0.0520 -0.5152
  184SLPC  H12X21124   4.584   2.116   6.517  0.4342  0.0745 -2.7383
  184SLPC  H12Y21125   4.602   1.950   6.586  0.9141  1.9093  0.6591
  184SLPC  C31321126   4.400   2.007   6.533  1.2416  0.2595 -0.2911
  184SLPC  H13X21127   4.365   1.902   6.527 -0.3324  0.8227 -1.6704
  184SLPC  H13Y21128   4.343   2.056   6.452 -0.3423  1.2125  1.3354
  184SLPC  C31421129   4.349   2.070   6.672  0.0878 -0.3118  0.6345
  184SLPC  H14X21130   4.395   2.163   6.711  1.1598 -0.5158 -0.0947
  184SLPC  H14Y21131   4.384   1.987   6.737 -0.1117 -1.2727 -0.4395
  184SLPC  C31521132   4.193   2.074   6.686  0.2286 -0.6227 -0.0810
  184SLPC  H15X21133   4.158   1.969   6.702  1.4329 -0.8582  1.2399
  184SLPC  H15Y21134   4.143   2.108   6.593 -1.0734 -1.7041  0.1846
  184SLPC  C31621135   4.150   2.179   6.785  0.3351  0.1061 -0.2420
  184SLPC  H16X21136   4.163   2.285   6.752  1.8833  0.6377  1.8765
  184SLPC  H16Y21137   4.208   2.170   6.879  0.9155  0.8159 -0.5165
  184SLPC  C31721138   4.009   2.149   6.836 -0.7097 -0.5179  0.2560
  184SLPC  H17X21139   3.979   2.230   6.906 -0.3791 -3.0455  3.5101
  184SLPC  H17Y21140   4.012   2.056   6.895 -2.2475  0.4383  1.9445
  184SLPC  C31821141   3.885   2.127   6.734 -0.3287 -1.0199 -0.1778
  184SLPC  H18X21142   3.888   2.033   6.675 -2.5024 -2.0111  1.1825
  184SLPC  H18Y21143   3.874   2.211   6.661 -2.0272 -0.9642  0.0929
  184SLPC  H18Z21144   3.797   2.119   6.801 -0.4822 -0.1401 -0.2555
  185POPC     N21145   0.018   5.944   0.707  0.6638 -0.1737  0.4981
  185POPC   C1221146  -0.040   6.052   0.810 -0.4014  0.8017 -0.2264
  185POPC  H12A21147   0.043   6.062   0.879  0.6172  1.1879 -1.4808
  185POPC  H12B21148  -0.129   6.014   0.858  0.1089 -0.7229 -0.4486
  185POPC   C1321149   0.154   5.994   0.664 -0.6450  0.3320 -1.0879
  185POPC  H13A21150   0.194   5.943   0.578  1.2342  0.2731 -0.2311
  185POPC  H13B21151   0.156   6.100   0.643 -0.6639  0.1269 -2.1588
  185POPC  H13C21152   0.231   5.970   0.736 -0.8799 -0.9166 -1.2239
  185POPC   C1421153   0.013   5.814   0.774  0.2092  0.0918 -0.0797
  185POPC  H14A21154  -0.080   5.793   0.824 -0.0103  0.9364 -0.1256
  185POPC  H14B21155   0.025   5.730   0.707 -0.6734 -0.2368  0.1563
  185POPC  H14C21156   0.097   5.817   0.842  2.1932 -1.3365 -2.2939
  185POPC   C1521157  -0.080   5.938   0.587  0.4554  0.1288  0.1819
  185POPC  H15A21158  -0.094   6.035   0.541 -0.3043 -1.2139 -2.6136
  185POPC  H15B21159  -0.168   5.885   0.619 -0.3253 -0.0975 -2.1917
  185POPC  H15C21160  -0.032   5.880   0.510 -1.6408 -0.2770 -0.8921
  185POPC   C1121161  -0.063   6.189   0.757 -0.4183  0.1114  0.3199
  185POPC  H11A21162  -0.129   6.254   0.820  1.4116  1.5033  0.8908
  185POPC  H11B21163  -0.110   6.186   0.656 -3.7321  0.2544  1.7248
  185POPC     P21164   0.065   6.411   0.710  0.0331 -0.0402 -0.3229
  185POPC   O1321165   0.148   6.487   0.803 -0.0409  0.6744  0.0249
  185POPC   O1421166  -0.072   6.468   0.688  0.0599  0.0693 -0.2221
  185POPC   O1221167   0.063   6.259   0.756 -0.0880 -0.1791 -0.4115
  185POPC   O1121168   0.147   6.405   0.574  0.1500  0.8111 -0.0159
  185POPC    C121169   0.075   6.380   0.452 -0.3431 -0.1028  0.6062
  185POPC    HA21170   0.081   6.469   0.385  2.0123  0.1040  0.9988
  185POPC    HB21171  -0.033   6.363   0.470 -0.4230 -0.4056 -0.1099
  185POPC    C221172   0.135   6.261   0.369  0.5650  0.2839 -0.6129
  185POPC    HS21173   0.118   6.171   0.432 -2.1367  2.0765  1.4426
  185POPC   O2121174   0.267   6.285   0.346  0.0092 -0.4373 -0.4967
  185POPC   C2121175   0.353   6.195   0.373  0.3171 -0.0517 -0.6056
  185POPC   O2221176   0.329   6.074   0.397  0.2300 -0.2491 -0.5266
  185POPC   C2221177   0.491   6.266   0.380 -0.1858  0.6172 -0.0185
  185POPC   H2R21178   0.515   6.264   0.489 -0.0096  3.5081  0.0719
  185POPC   H2S21179   0.481   6.372   0.348 -2.0084  1.2471  2.3161
  185POPC    C321180   0.063   6.234   0.240 -0.4719 -0.6366 -0.4069
  185POPC    HX21181  -0.041   6.209   0.271 -1.2165  2.0187 -0.5418
  185POPC    HY21182   0.117   6.152   0.187 -0.5410  0.2000 -1.8377
  185POPC   O3121183   0.057   6.348   0.158 -0.4551  0.3636  0.3799
  185POPC   C3121184  -0.015   6.326   0.045 -0.1043  0.4218  0.1682
  185POPC   O3221185  -0.070   6.219   0.020  0.5282  0.1100 -0.5454
  185POPC   C3221186  -0.034   6.453  -0.039  0.7373  0.4764  0.3155
  185POPC   H2X21187   0.017   6.534   0.017  0.4131  0.7175  0.2648
  185POPC   H2Y21188  -0.143   6.473  -0.033  0.3527 -1.1845 -0.3999
  185POPC   C2321189   0.607   6.198   0.302 -0.5509  0.1567 -0.0975
  185POPC   H3R21190   0.619   6.089   0.323  0.0844 -0.0758 -1.5444
  185POPC   H3S21191   0.698   6.252   0.333  0.6823 -1.3324 -0.9737
  185POPC   C2421192   0.611   6.235   0.153 -0.0027 -0.2741  0.2275
  185POPC   H4R21193   0.711   6.207   0.114  0.3317  1.5545 -0.3059
  185POPC   H4S21194   0.609   6.346   0.150 -2.5079 -0.2704 -0.3675
  185POPC   C2521195   0.491   6.172   0.078  0.2051  0.2404  0.7417
  185POPC   H5R21196   0.406   6.238   0.103 -1.0998 -0.8735 -0.5131
  185POPC   H5S21197   0.468   6.070   0.117  0.1594  0.3002  0.8701
  185POPC   C2621198   0.498   6.172  -0.074  0.4836 -0.9009  0.1802
  185POPC   H6R21199   0.567   6.087  -0.097 -2.4992 -3.4552  0.0877
  185POPC   H6S21200   0.537   6.269  -0.114 -2.4831 -0.5627 -2.2260
  185POPC   C2721201   0.360   6.150  -0.147 -0.0054 -0.5654  0.2338
  185POPC   H7R21202   0.284   6.207  -0.088 -0.6282 -1.9637  0.8335
  185POPC   H7S21203   0.328   6.044  -0.149  2.5853 -1.4118 -0.6416
  185POPC   C2821204   0.364   6.196  -0.297 -0.2259 -0.9827 -1.1247
  185POPC   H8R21205   0.450   6.151  -0.351  0.7849 -0.1160 -0.3035
  185POPC   H8S21206   0.399   6.302  -0.295  0.4042 -1.1915  0.4650
  185POPC   C2921207   0.230   6.169  -0.365 -0.2149 -0.6264 -0.2152
  185POPC   H9121208   0.137   6.198  -0.314  1.2837  2.9177  0.7944
  185POPC  C21021209   0.221   6.114  -0.485  0.1436  0.4528 -0.2346
  185POPC  H10121210   0.118   6.086  -0.511 -0.4869  2.3928  0.0175
  185POPC  C21121211   0.330   6.068  -0.575  0.0920 -0.9561  0.6819
  185POPC  H11R21212   0.374   5.966  -0.565  0.8605 -0.5124  2.1046
  185POPC  H11S21213   0.412   6.143  -0.564 -0.4455 -0.5887  2.4217
  185POPC  C21221214   0.265   6.083  -0.713  0.0579  0.0738 -0.0392
  185POPC  H12R21215   0.232   6.187  -0.735 -0.3034 -0.1850 -0.7381
  185POPC  H12S21216   0.182   6.011  -0.725  2.5157 -3.0492  0.4995
  185POPC  C21321217   0.368   6.033  -0.816  0.6079 -0.5588  0.0692
  185POPC  H13R21218   0.400   5.930  -0.792  0.7276 -0.1130  2.0008
  185POPC  H13S21219   0.464   6.088  -0.804 -0.5057  1.0348  2.2938
  185POPC  C21421220   0.323   6.039  -0.965 -0.0767  0.8640  0.4656
  185POPC  H14R21221   0.365   6.135  -1.001  3.1466 -0.6304 -0.1361
  185POPC  H14S21222   0.212   6.047  -0.954  0.0148  2.4522  0.5186
  185POPC  C21521223   0.373   5.923  -1.050 -0.4344  0.0455  0.4783
  185POPC  H15R21224   0.338   5.829  -1.004 -0.2322 -0.4316 -0.3181
  185POPC  H15S21225   0.479   5.906  -1.022 -1.0395  0.4708  3.3351
  185POPC  C21621226   0.339   5.928  -1.204  0.7217  0.5769 -0.5145
  185POPC  H16R21227   0.408   6.002  -1.251 -1.3684  2.5499 -0.6797
  185POPC  H16S21228   0.237   5.966  -1.225  0.6605  0.4178 -0.5069
  185POPC  C21721229   0.362   5.796  -1.276  0.3129 -0.2709 -0.0276
  185POPC  H17R21230   0.296   5.723  -1.224  0.7778 -0.5079  0.2460
  185POPC  H17S21231   0.467   5.759  -1.270  0.2041 -0.4095  1.4108
  185POPC  C21821232   0.336   5.815  -1.429 -0.0501 -0.6432  0.2427
  185POPC  H18R21233   0.230   5.836  -1.453 -0.5935 -2.4975  0.7920
  185POPC  H18S21234   0.349   5.725  -1.494 -1.9257  0.8575 -2.3686
  185POPC  H18T21235   0.401   5.888  -1.482 -1.2465  0.1570 -0.1390
  185POPC   C3321236   0.010   6.445  -0.185 -0.1245 -0.0296 -0.3298
  185POPC   H3X21237   0.108   6.394  -0.196 -0.8743 -1.7858  0.8013
  185POPC   H3Y21238   0.027   6.548  -0.225 -0.2143  0.2236  0.2788
  185POPC   C3421239  -0.097   6.381  -0.271  0.2425  0.0837  0.8676
  185POPC   H4X21240  -0.193   6.431  -0.245 -0.8233 -1.9210  1.0393
  185POPC   H4Y21241  -0.100   6.275  -0.237  2.9820 -0.6123 -0.7018
  185POPC   C3521242  -0.073   6.378  -0.422  0.3694  0.0780  0.0093
  185POPC   H5X21243   0.023   6.327  -0.446 -0.3219 -0.6961 -1.2316
  185POPC   H5Y21244  -0.061   6.476  -0.474 -0.4137  0.5299  0.6611
  185POPC   C3621245  -0.167   6.288  -0.504  0.1593 -0.1317 -0.3880
  185POPC   H6X21246  -0.272   6.302  -0.473 -0.3006 -1.6126 -1.1619
  185POPC   H6Y21247  -0.143   6.184  -0.472  0.0671 -0.2062 -0.5577
  185POPC   C3721248  -0.163   6.306  -0.658 -0.0371 -0.4929 -0.6200
  185POPC   H7X21249  -0.193   6.413  -0.668  0.7747 -0.2467 -0.5386
  185POPC   H7Y21250  -0.248   6.256  -0.709 -3.4383  1.9034  2.1610
  185POPC   C3821251  -0.026   6.276  -0.713 -0.2749 -0.2733  0.2288
  185POPC   H8X21252   0.008   6.181  -0.667 -2.5775 -1.4377 -0.3326
  185POPC   H8Y21253   0.045   6.357  -0.684  2.1552 -2.4687  0.7775
  185POPC   C3921254  -0.012   6.276  -0.865 -0.1315 -0.3435  0.6189
  185POPC   H9X21255   0.090   6.238  -0.887 -0.2592  0.2691 -1.2647
  185POPC   H9Y21256  -0.032   6.376  -0.908  1.0167  0.6211  2.2528
  185POPC  C31021257  -0.108   6.173  -0.938 -0.0865 -0.4521  0.5170
  185POPC  H10X21258  -0.217   6.191  -0.933 -0.3004 -1.5928  0.1857
  185POPC  H10Y21259  -0.091   6.071  -0.899  0.5964  0.2262  2.1191
  185POPC  C31121260  -0.065   6.167  -1.087  0.1014 -0.6989  0.6382
  185POPC  H11X21261   0.040   6.135  -1.104  0.0233 -1.2045  1.0940
  185POPC  H11Y21262  -0.083   6.269  -1.129 -0.7250 -1.3762 -0.7090
  185POPC  C31221263  -0.163   6.080  -1.164 -0.1431  0.9000  0.4314
  185POPC  H12X21264  -0.272   6.102  -1.154 -0.9631 -1.2340 -2.2049
  185POPC  H12Y21265  -0.147   5.982  -1.114  0.5648  0.4029 -0.7339
  185POPC  C31321266  -0.123   6.076  -1.307  0.2195  0.7946 -0.3169
  185POPC  H13X21267  -0.025   6.025  -1.301 -0.1960 -0.1185 -1.0521
  185POPC  H13Y21268  -0.111   6.173  -1.360 -0.5160  0.7430 -0.5897
  185POPC  C31421269  -0.213   5.982  -1.396 -0.0622  0.2326  0.2323
  185POPC  H14X21270  -0.220   5.882  -1.348 -1.2900  0.9372  1.6253
  185POPC  H14Y21271  -0.145   5.983  -1.484 -2.6457  4.1188 -2.0123
  185POPC  C31521272  -0.356   6.028  -1.429  0.6414 -0.3081 -0.3487
  185POPC  H15X21273  -0.364   6.128  -1.476  0.2041  0.8064  1.9408
  185POPC  H15Y21274  -0.421   6.027  -1.339 -0.1925 -2.2474 -0.9040
  185POPC  C31621275  -0.430   5.927  -1.520  0.3034  0.3317  0.1603
  185POPC  H16X21276  -0.435   5.825  -1.477 -0.1515  1.0096  1.7994
  185POPC  H16Y21277  -0.371   5.919  -1.613 -0.5377 -0.1129 -0.3469
  185POPC  H16Z21278  -0.529   5.970  -1.549 -0.3405 -1.0149  0.3094
  186POPC     N21279   3.485   6.354   0.444  0.6694  0.2226 -0.0695
  186POPC   C1221280   3.599   6.304   0.358 -0.8754  0.0327 -0.4636
  186POPC  H12A21281   3.559   6.286   0.260 -0.6769 -2.1146 -0.2023
  186POPC  H12B21282   3.637   6.208   0.390  0.3395  1.2814  2.1051
  186POPC   C1321283   3.376   6.252   0.444  0.4667 -0.2694  0.5420
  186POPC  H13A21284   3.292   6.277   0.507 -1.3397 -0.7456 -1.5490
  186POPC  H13B21285   3.334   6.230   0.347 -1.2401 -3.5587  1.8667
  186POPC  H13C21286   3.409   6.154   0.475 -0.3948 -0.5326  0.6554
  186POPC   C1421287   3.538   6.375   0.586  0.5304 -0.2654  0.7411
  186POPC  H14A21288   3.476   6.446   0.640  1.1913 -0.0842  1.2863
  186POPC  H14B21289   3.532   6.279   0.634 -0.7078 -1.4883 -1.6928
  186POPC  H14C21290   3.634   6.425   0.588  0.1060  0.5726  1.5299
  186POPC   C1521291   3.434   6.485   0.406 -0.1564  0.1503  0.3027
  186POPC  H15A21292   3.395   6.478   0.305 -2.0916 -0.0376  1.0193
  186POPC  H15B21293   3.514   6.558   0.404  1.5850 -1.5705 -3.4358
  186POPC  H15C21294   3.362   6.521   0.478 -0.4854  1.0169 -0.4372
  186POPC   C1121295   3.716   6.400   0.335  0.3215  0.2440 -0.2838
  186POPC  H11A21296   3.665   6.492   0.298 -0.9687 -0.0363  0.7244
  186POPC  H11B21297   3.777   6.359   0.252 -0.4490  0.3793 -0.9392
  186POPC     P21298   3.887   6.322   0.512  0.1762  0.0337  0.1260
  186POPC   O1321299   3.826   6.190   0.522  0.2329 -0.2467 -0.6613
  186POPC   O1421300   3.936   6.377   0.636 -0.3954 -0.2510  1.2061
  186POPC   O1221301   3.796   6.429   0.443  0.6182  0.0980 -0.0001
  186POPC   O1121302   4.007   6.320   0.409 -0.3251  0.0401  0.1316
  186POPC    C121303   4.005   6.243   0.286 -0.1873 -0.3171 -0.4176
  186POPC    HA21304   3.979   6.307   0.199 -0.3039 -0.2898 -0.3625
  186POPC    HB21305   3.936   6.155   0.283  2.7242 -2.7417 -1.7100
  186POPC    C221306   4.144   6.184   0.250  0.0227  0.4133  0.6394
  186POPC    HS21307   4.169   6.125   0.341  1.3025  0.8374  0.5777
  186POPC   O2121308   4.234   6.296   0.221 -0.3608  0.0892  0.5106
  186POPC   C2121309   4.358   6.268   0.258 -1.4395  0.5482 -0.3542
  186POPC   O2221310   4.399   6.161   0.315  0.3238 -0.1421 -0.5739
  186POPC   C2221311   4.453   6.391   0.244 -0.3022 -0.3943 -0.2634
  186POPC   H2R21312   4.517   6.396   0.334  0.3437 -3.2953 -0.4783
  186POPC   H2S21313   4.390   6.482   0.234 -0.4868 -0.5481 -0.5210
  186POPC    C321314   4.139   6.086   0.128 -0.5477  1.0011 -0.8875
  186POPC    HX21315   4.056   6.012   0.135  0.4232  0.0212  1.0460
  186POPC    HY21316   4.229   6.022   0.126 -0.1342  1.5678 -0.7403
  186POPC   O3121317   4.127   6.158   0.007  0.4476  0.2279  0.7388
  186POPC   C3121318   4.229   6.193  -0.071  0.4013  0.3760  0.0784
  186POPC   O3221319   4.335   6.134  -0.067  0.0789  0.1091  0.0665
  186POPC   C3221320   4.192   6.312  -0.157  0.7734 -0.8219 -0.0998
  186POPC   H2X21321   4.267   6.389  -0.131 -0.8244  0.3946  1.1017
  186POPC   H2Y21322   4.095   6.341  -0.112  1.1285 -0.2838  0.3337
  186POPC   C2321323   4.531   6.376   0.119  0.0087 -0.1289  0.9009
  186POPC   H3R21324   4.466   6.379   0.029  0.1270 -1.4367  0.7617
  186POPC   H3S21325   4.594   6.285   0.111  0.1628  0.0922 -0.8564
  186POPC   C2421326   4.627   6.494   0.087 -0.1846  0.3705 -0.6753
  186POPC   H4R21327   4.713   6.481   0.157 -1.1379  3.7528  1.3364
  186POPC   H4S21328   4.579   6.589   0.118  1.0892  0.5523  0.8841
  186POPC   C2521329   4.679   6.494  -0.059 -0.0367 -0.0848  0.2687
  186POPC   H5R21330   4.730   6.399  -0.083  0.4724  0.7795 -2.3967
  186POPC   H5S21331   4.758   6.572  -0.053 -0.4209  0.3998 -0.7334
  186POPC   C2621332   4.575   6.537  -0.161  0.0633 -0.7742  0.0015
  186POPC   H6R21333   4.527   6.633  -0.129  1.1321 -0.4372  0.6499
  186POPC   H6S21334   4.488   6.469  -0.160 -1.6193  1.1649  2.9925
  186POPC   C2721335   4.636   6.549  -0.297  0.0197  0.2150  0.8089
  186POPC   H7R21336   4.678   6.451  -0.330  2.6959  1.4504  0.3157
  186POPC   H7S21337   4.733   6.602  -0.300 -0.2026  0.5829 -0.0260
  186POPC   C2821338   4.541   6.609  -0.408  0.1624  0.2147  0.2077
  186POPC   H8R21339   4.435   6.578  -0.392  0.0634 -0.7498 -1.9879
  186POPC   H8S21340   4.567   6.575  -0.510 -2.6218  1.2625 -0.9475
  186POPC   C2921341   4.545   6.756  -0.400  0.1189  0.0103 -0.5685
  186POPC   H9121342   4.536   6.788  -0.295  0.2779 -3.9657  0.8389
  186POPC  C21021343   4.570   6.840  -0.507  1.3274 -0.5351 -0.5435
  186POPC  H10121344   4.604   6.944  -0.494 -0.3027 -0.1211  0.6500
  186POPC  C21121345   4.617   6.798  -0.641 -0.1231  0.3163 -0.0118
  186POPC  H11R21346   4.569   6.707  -0.684  1.3064 -0.8646  0.8241
  186POPC  H11S21347   4.726   6.777  -0.635  0.1219  0.8460 -1.8190
  186POPC  C21221348   4.600   6.914  -0.739  0.0050 -0.3857  0.2474
  186POPC  H12R21349   4.645   7.006  -0.698  0.9608 -0.1554 -1.2366
  186POPC  H12S21350   4.491   6.936  -0.746 -0.2122 -1.2846  0.6307
  186POPC  C21321351   4.664   6.899  -0.875  0.2502  0.1492  0.5935
  186POPC  H13R21352   4.596   6.843  -0.943  1.7944 -0.8847 -0.1441
  186POPC  H13S21353   4.754   6.834  -0.872 -0.9632 -1.6182 -0.0321
  186POPC  C21421354   4.704   7.030  -0.941 -0.4520 -0.4861  0.1686
  186POPC  H14R21355   4.790   7.067  -0.881 -0.5334 -2.0538  1.2867
  186POPC  H14S21356   4.624   7.107  -0.943  0.8366  0.9410  1.3616
  186POPC  C21521357   4.754   7.007  -1.084  0.3427  0.0147  0.1482
  186POPC  H15R21358   4.669   6.982  -1.152 -1.2948 -0.1830  2.1706
  186POPC  H15S21359   4.830   6.926  -1.086  1.8868  1.3798  0.8456
  186POPC  C21621360   4.824   7.136  -1.143  0.4256 -0.6555  0.4344
  186POPC  H16R21361   4.796   7.220  -1.075 -0.2596 -0.7462  0.2718
  186POPC  H16S21362   4.787   7.153  -1.247 -1.2284 -1.7798  0.7959
  186POPC  C21721363   4.980   7.128  -1.154  0.2889 -0.4772  0.8745
  186POPC  H17R21364   5.031   7.222  -1.184 -1.2977 -0.3567 -1.6401
  186POPC  H17S21365   5.013   7.064  -1.239  1.6970  0.6422  0.5365
  186POPC  C21821366   5.046   7.078  -1.027 -0.2463 -0.1702 -0.5875
  186POPC  H18R21367   5.005   6.978  -1.003 -2.2181  0.4016 -1.3307
  186POPC  H18S21368   5.033   7.148  -0.942 -0.9816 -1.9792  0.8610
  186POPC  H18T21369   5.155   7.065  -1.043 -0.0197  2.7773 -2.1449
  186POPC   C3321370   4.177   6.294  -0.312 -0.0586  0.1857 -1.0859
  186POPC   H3X21371   4.125   6.378  -0.364 -2.0086 -0.7093 -0.6780
  186POPC   H3Y21372   4.112   6.204  -0.317  1.0318 -0.7438  0.6078
  186POPC   C3421373   4.314   6.260  -0.379 -0.3301 -0.5549 -0.1977
  186POPC   H4X21374   4.361   6.172  -0.330  0.1558  0.3495  1.0003
  186POPC   H4Y21375   4.389   6.338  -0.355  0.9031 -2.2086  1.6923
  186POPC   C3521376   4.306   6.238  -0.533  0.6462 -0.1856 -0.3136
  186POPC   H5X21377   4.396   6.294  -0.566  0.6212  0.3670  0.5375
  186POPC   H5Y21378   4.215   6.288  -0.572 -0.4949 -0.1597  2.2219
  186POPC   C3621379   4.300   6.092  -0.576  0.1270  0.0970  0.1282
  186POPC   H6X21380   4.200   6.050  -0.553  1.4677 -3.2882  0.4025
  186POPC   H6Y21381   4.377   6.036  -0.518  0.1417  0.9934  1.0048
  186POPC   C3721382   4.337   6.083  -0.720 -0.6092 -0.1811  0.4200
  186POPC   H7X21383   4.438   6.128  -0.722  0.5295 -2.5973 -0.5966
  186POPC   H7Y21384   4.260   6.137  -0.779 -2.1203  0.0200  2.4560
  186POPC   C3821385   4.341   5.933  -0.769  0.5722  0.4497 -0.2851
  186POPC   H8X21386   4.238   5.894  -0.750  0.1605  0.3336 -2.5321
  186POPC   H8Y21387   4.412   5.877  -0.705 -1.5102 -0.7611  1.0761
  186POPC   C3921388   4.394   5.917  -0.918 -0.6372  0.0161  0.9075
  186POPC   H9X21389   4.408   5.809  -0.936 -1.2402  0.4136 -2.5685
  186POPC   H9Y21390   4.485   5.982  -0.921 -0.5243 -0.1522  0.7140
  186POPC  C31021391   4.305   5.960  -1.026 -0.1592  0.1656  0.3442
  186POPC  H10X21392   4.304   6.070  -1.035  1.0213  0.0018 -3.1928
  186POPC  H10Y21393   4.199   5.932  -1.005 -0.1233  0.1682  0.5358
  186POPC  C31121394   4.347   5.909  -1.172 -0.4431 -0.5720  0.1792
  186POPC  H11X21395   4.261   5.929  -1.239  0.8252  1.7186 -0.8641
  186POPC  H11Y21396   4.348   5.799  -1.156 -0.5260 -0.1704  3.7215
  186POPC  C31221397   4.473   5.963  -1.236 -0.0815  0.5939  0.1348
  186POPC  H12X21398   4.555   5.989  -1.166  0.4628  1.4777 -0.8018
  186POPC  H12Y21399   4.428   6.054  -1.279 -0.3910 -0.0395 -0.9247
  186POPC  C31321400   4.535   5.868  -1.336  0.2462 -0.5305  0.2425
  186POPC  H13X21401   4.478   5.862  -1.431  0.9894 -0.6755 -0.2018
  186POPC  H13Y21402   4.533   5.769  -1.285  0.3341 -0.7130 -0.1060
  186POPC  C31421403   4.680   5.908  -1.365  0.7875 -0.2493  0.1570
  186POPC  H14X21404   4.733   5.896  -1.268  2.3413 -2.3409 -0.8668
  186POPC  H14Y21405   4.684   6.019  -1.371  1.4613 -0.2769  0.0582
  186POPC  C31521406   4.750   5.849  -1.490  0.0787  0.4107 -0.0786
  186POPC  H15X21407   4.739   5.741  -1.470  0.9345  0.5367  1.2342
  186POPC  H15Y21408   4.858   5.874  -1.490 -0.1887  1.6540  0.1885
  186POPC  C31621409   4.680   5.899  -1.618  0.1061 -1.1423  0.0473
  186POPC  H16X21410   4.570   5.892  -1.606 -0.2642  1.1563 -1.3620
  186POPC  H16Y21411   4.720   5.841  -1.704  0.2435 -0.9688 -0.0066
  186POPC  H16Z21412   4.697   6.008  -1.634 -2.7972 -0.5674  0.2349
  187POPC     N21413   4.804   0.185   4.541  0.4481 -0.4607 -0.0969
  187POPC   C1221414   4.783   0.151   4.684 -0.4126  0.4069  0.3260
  187POPC  H12A21415   4.741   0.051   4.690  2.9389 -1.2288 -0.8934
  187POPC  H12B21416   4.712   0.224   4.720 -1.2005 -0.0133 -0.3387
  187POPC   C1321417   4.678   0.169   4.462  0.2903  0.1217 -0.4493
  187POPC  H13A21418   4.701   0.197   4.360  1.2796 -0.0697 -0.2912
  187POPC  H13B21419   4.646   0.067   4.474 -0.8324  0.5746  0.6093
  187POPC  H13C21420   4.595   0.227   4.498  0.0411 -0.8891  0.6824
  187POPC   C1421421   4.850   0.324   4.532  0.1702 -0.4438  0.6224
  187POPC  H14A21422   4.901   0.337   4.439  0.2363  2.7800  1.0104
  187POPC  H14B21423   4.771   0.397   4.542  0.3141 -0.4295  1.8482
  187POPC  H14C21424   4.921   0.340   4.612 -1.5993  1.9011  1.8686
  187POPC   C1521425   4.908   0.100   4.478  0.2036  0.1575 -0.0224
  187POPC  H15A21426   5.004   0.134   4.512  0.7145 -0.8565 -0.4052
  187POPC  H15B21427   4.899   0.108   4.371 -1.5112 -0.7526  0.0111
  187POPC  H15C21428   4.890  -0.006   4.492 -1.3136  0.1493 -1.6624
  187POPC   C1121429   4.898   0.165   4.776  0.1157  0.4189  0.6739
  187POPC  H11A21430   4.976   0.102   4.727 -0.6603  0.4322 -0.5892
  187POPC  H11B21431   4.866   0.103   4.863  0.8923 -0.7286  0.1655
  187POPC     P21432   5.052   0.324   4.905 -0.3130  0.0910  0.3724
  187POPC   O1321433   5.122   0.447   4.855  0.1433  0.3160  0.2212
  187POPC   O1421434   5.124   0.201   4.938  0.0538  0.5237 -0.3506
  187POPC   O1221435   4.943   0.297   4.788 -0.1427 -0.0402 -0.6308
  187POPC   O1121436   4.959   0.355   5.028 -0.0303 -0.4538 -0.0631
  187POPC    C121437   4.985   0.484   5.091  0.6942  0.7697  0.5625
  187POPC    HA21438   4.892   0.508   5.148  0.4445  1.0174  0.0541
  187POPC    HB21439   5.002   0.573   5.027  0.8927  0.9254  0.8337
  187POPC    C221440   5.098   0.468   5.195  0.0131  0.7346  0.0471
  187POPC    HS21441   5.192   0.444   5.142  1.1816 -0.4752  2.5348
  187POPC   O2121442   5.068   0.370   5.293  0.5625 -0.6775 -0.3369
  187POPC   C2121443   5.158   0.313   5.367  0.0461  0.3591  1.0227
  187POPC   O2221444   5.276   0.320   5.357 -0.2131 -0.5757 -0.5332
  187POPC   C2221445   5.089   0.225   5.474  0.2204  0.6269 -0.5428
  187POPC   H2R21446   5.026   0.159   5.410 -0.4266  0.6620  0.0566
  187POPC   H2S21447   5.021   0.293   5.530  0.0294  0.4947 -0.6144
  187POPC    C321448   5.124   0.608   5.253 -0.4053  0.7815 -0.2379
  187POPC    HX21449   5.057   0.690   5.218  1.1791  1.6714 -1.3161
  187POPC    HY21450   5.223   0.636   5.211  0.4096  0.4417  1.3672
  187POPC   O3121451   5.140   0.610   5.400  0.3435  0.8996  0.2577
  187POPC   C3121452   5.027   0.627   5.469 -0.8690  0.5091  0.0054
  187POPC   O3221453   4.920   0.650   5.422 -0.4952 -0.5026 -0.7440
  187POPC   C3221454   5.056   0.594   5.618  0.2037 -0.0862  0.4260
  187POPC   H2X21455   5.082   0.689   5.669  0.9020  0.2378 -0.5085
  187POPC   H2Y21456   5.152   0.538   5.620 -0.5490 -1.4603 -0.2863
  187POPC   C2321457   5.190   0.169   5.568  0.1630  0.2885 -0.0966
  187POPC   H3R21458   5.245   0.256   5.610  0.2181 -0.3569  1.2356
  187POPC   H3S21459   5.259   0.111   5.503  1.7682  1.5478  0.4104
  187POPC   C2421460   5.146   0.086   5.687 -0.5787 -0.3806  0.7640
  187POPC   H4R21461   5.241   0.056   5.737  0.2407  0.2882 -0.3141
  187POPC   H4S21462   5.105  -0.007   5.643  3.1885 -0.9535 -2.0762
  187POPC   C2521463   5.057   0.142   5.795  0.3340  0.4318  0.0953
  187POPC   H5R21464   4.951   0.156   5.765 -0.1540 -1.9550  0.4818
  187POPC   H5S21465   5.095   0.239   5.833  0.5007  0.3095  0.2432
  187POPC   C2621466   5.061   0.066   5.932 -0.4048 -0.2137  0.7086
  187POPC   H6R21467   5.168   0.051   5.960 -0.0418  0.4375 -0.2843
  187POPC   H6S21468   5.020  -0.037   5.928 -3.0879  0.7894  0.3538
  187POPC   C2721469   4.977   0.138   6.042 -0.4116  0.0388  0.3933
  187POPC   H7R21470   4.878   0.168   6.002  0.2838  2.4788  0.2768
  187POPC   H7S21471   5.027   0.232   6.077  1.1635 -0.2555 -0.9358
  187POPC   C2821472   4.945   0.051   6.160 -0.3850  0.2759 -1.2230
  187POPC   H8R21473   4.906  -0.042   6.113 -1.7975 -1.3485  2.7042
  187POPC   H8S21474   4.861   0.094   6.219  0.5603  1.1214 -0.4728
  187POPC   C2921475   5.063  -0.004   6.241  0.3885  0.2978  0.5938
  187POPC   H9121476   5.145  -0.047   6.183  0.4852  1.7594 -0.4195
  187POPC  C21021477   5.071  -0.028   6.373 -0.5920  0.1489  0.2940
  187POPC  H10121478   5.166  -0.057   6.420  0.3594  1.6368 -0.6161
  187POPC  C21121479   4.973   0.013   6.480  0.2011  0.5655  0.4592
  187POPC  H11R21480   4.876   0.035   6.430 -0.6950  1.5729  2.5276
  187POPC  H11S21481   4.997   0.109   6.530 -1.0638  0.4114  1.4181
  187POPC  C21221482   4.946  -0.097   6.584 -0.2212 -0.1757  0.7152
  187POPC  H12R21483   5.044  -0.136   6.616  1.1477  1.2205 -1.4966
  187POPC  H12S21484   4.895  -0.183   6.535  0.2199 -0.4481  0.7282
  187POPC  C21321485   4.873  -0.038   6.708  0.0194  1.0556  0.2088
  187POPC  H13R21486   4.771  -0.000   6.686 -0.4135 -1.2219 -2.3056
  187POPC  H13S21487   4.933   0.042   6.756  1.5956  0.4692 -0.6929
  187POPC  C21421488   4.846  -0.151   6.809 -0.3503  0.1804  0.3619
  187POPC  H14R21489   4.793  -0.230   6.752 -1.7878  1.9991 -0.9386
  187POPC  H14S21490   4.774  -0.117   6.886 -1.0747  0.5673 -0.4658
  187POPC  C21521491   4.984  -0.204   6.872  0.6792 -0.4137  0.1551
  187POPC  H15R21492   5.063  -0.220   6.796  0.2577 -1.8803 -0.0099
  187POPC  H15S21493   4.948  -0.301   6.913 -2.9120  0.0317 -1.5103
  187POPC  C21621494   5.036  -0.100   6.971  0.2922  0.3752 -0.6287
  187POPC  H16R21495   5.028   0.004   6.932  1.4573  0.7764  0.1666
  187POPC  H16S21496   5.146  -0.106   6.979  0.3962  1.9526 -0.5450
  187POPC  C21721497   4.970  -0.109   7.109  0.2637 -0.1338  0.9650
  187POPC  H17R21498   4.865  -0.075   7.095 -0.0902 -0.9724  1.5361
  187POPC  H17S21499   5.019  -0.045   7.185  0.0371 -1.4108  2.2157
  187POPC  C21821500   4.967  -0.250   7.159  0.1872  0.5394 -0.2975
  187POPC  H18R21501   5.075  -0.279   7.160  0.5757  1.5572 -3.0329
  187POPC  H18S21502   4.904  -0.319   7.100 -2.5076  1.8937  0.8585
  187POPC  H18T21503   4.931  -0.259   7.264 -0.7382  1.0642 -0.5607
  187POPC   C3321504   4.933   0.539   5.688 -0.2724 -0.3818 -0.2673
  187POPC   H3X21505   4.904   0.434   5.665 -0.1412 -0.1192 -1.7285
  187POPC   H3Y21506   4.847   0.605   5.665  1.5235  2.0916 -0.2703
  187POPC   C3421507   4.948   0.541   5.843 -0.3764 -0.2199 -0.2153
  187POPC   H4X21508   4.952   0.643   5.888 -0.5266  0.2387 -1.2099
  187POPC   H4Y21509   5.050   0.503   5.864  1.0303  2.5336 -1.5037
  187POPC   C3521510   4.841   0.451   5.902  0.8874 -0.7653 -0.0543
  187POPC   H5X21511   4.862   0.343   5.886 -0.1799 -1.1470  0.9587
  187POPC   H5Y21512   4.745   0.475   5.851  0.1710 -0.9515  1.1617
  187POPC   C3621513   4.840   0.465   6.049 -0.1744 -0.5837 -0.8400
  187POPC   H6X21514   4.836   0.572   6.076 -1.1930 -1.2488  2.0556
  187POPC   H6Y21515   4.935   0.432   6.095 -0.2369  0.0702 -0.2414
  187POPC   C3721516   4.717   0.409   6.115  0.4067 -0.5012 -0.6980
  187POPC   H7X21517   4.710   0.299   6.099 -3.7893 -0.7538  1.4688
  187POPC   H7Y21518   4.630   0.452   6.060 -0.4052  2.0496  2.3498
  187POPC   C3821519   4.703   0.439   6.265  0.0172  0.6275 -0.5134
  187POPC   H8X21520   4.717   0.548   6.282 -2.7068  0.7655  1.5655
  187POPC   H8Y21521   4.789   0.389   6.315 -0.7156  0.1977  0.3470
  187POPC   C3921522   4.577   0.374   6.332 -0.7856 -0.0919 -0.4717
  187POPC   H9X21523   4.567   0.267   6.305 -0.2728 -0.6150  1.2498
  187POPC   H9Y21524   4.488   0.428   6.293 -2.2072 -1.2138  1.0495
  187POPC  C31021525   4.587   0.381   6.487 -0.7493  0.4854  0.6341
  187POPC  H10X21526   4.564   0.483   6.525  0.8374  1.0470  0.1316
  187POPC  H10Y21527   4.685   0.349   6.527 -0.3691 -0.3238 -0.8834
  187POPC  C31121528   4.479   0.287   6.543  0.1752 -0.3702 -0.3944
  187POPC  H11X21529   4.522   0.189   6.512  1.6206  0.8017 -2.3727
  187POPC  H11Y21530   4.380   0.316   6.502  0.3075 -1.8396 -1.8707
  187POPC  C31221531   4.464   0.277   6.691 -0.2602  0.0992 -0.1623
  187POPC  H12X21532   4.548   0.214   6.728 -0.7892 -0.3460  0.3078
  187POPC  H12Y21533   4.379   0.212   6.720  1.0962 -1.2151  1.0263
  187POPC  C31321534   4.471   0.406   6.761  0.1323  0.2391  0.1347
  187POPC  H13X21535   4.418   0.477   6.694  3.7999  1.1701 -2.0448
  187POPC  H13Y21536   4.577   0.435   6.770 -0.0841  1.5570 -1.2548
  187POPC  C31421537   4.401   0.410   6.893  0.0245  0.3357  0.1971
  187POPC  H14X21538   4.292   0.407   6.871  0.1581 -0.7867 -0.4119
  187POPC  H14Y21539   4.426   0.501   6.951 -0.5748  2.1005 -2.1595
  187POPC  C31521540   4.436   0.298   6.992 -0.4961 -0.0771  0.8590
  187POPC  H15X21541   4.424   0.199   6.943  0.6763  0.0414  0.2881
  187POPC  H15Y21542   4.366   0.294   7.077 -1.5670 -0.3055 -0.0095
  187POPC  C31621543   4.585   0.302   7.033  0.4196 -0.3361 -0.8806
  187POPC  H16X21544   4.595   0.406   7.070  2.0184  0.4421 -3.2535
  187POPC  H16Y21545   4.646   0.298   6.940  0.0323  1.0688 -1.2105
  187POPC  H16Z21546   4.615   0.221   7.103 -0.4999 -1.0019 -1.2346
  188POPC     N21547   4.965   4.839   4.410  0.4504  0.7522  0.5417
  188POPC   C1221548   4.807   4.809   4.396  0.3549 -0.5331 -0.6146
  188POPC  H12A21549   4.786   4.796   4.290  0.1789 -1.4455 -0.4750
  188POPC  H12B21550   4.749   4.898   4.417 -0.7311 -1.1199 -1.0254
  188POPC   C1321551   5.002   4.855   4.554 -0.6767 -0.6111  0.5186
  188POPC  H13A21552   4.943   4.922   4.615 -1.5682 -1.1430  0.2649
  188POPC  H13B21553   4.992   4.760   4.605 -0.8691 -1.1210 -0.4562
  188POPC  H13C21554   5.108   4.873   4.560 -1.0112  1.2430  2.1175
  188POPC   C1421555   5.042   4.723   4.358  0.2458 -0.0085  0.2613
  188POPC  H14A21556   4.988   4.634   4.386 -1.6901  1.1912  0.5115
  188POPC  H14B21557   5.050   4.740   4.251  4.1963  1.2684  0.5966
  188POPC  H14C21558   5.140   4.733   4.403 -0.2019  2.0102  0.9083
  188POPC   C1521559   5.001   4.959   4.339  1.0117  0.7084  0.6061
  188POPC  H15A21560   5.107   4.979   4.353  1.0449  0.8568  0.1494
  188POPC  H15B21561   4.961   5.050   4.383  1.5794  0.8519  0.8384
  188POPC  H15C21562   4.986   4.952   4.233  0.0667 -1.3891  0.8257
  188POPC   C1121563   4.757   4.693   4.482  0.1900  0.5070 -0.3388
  188POPC  H11A21564   4.646   4.683   4.482 -0.0900  2.0420  3.1212
  188POPC  H11B21565   4.778   4.727   4.586  3.9291  0.6577 -1.0182
  188POPC     P21566   4.833   4.464   4.577  0.4128 -0.0831 -0.1723
  188POPC   O1321567   4.923   4.351   4.547  0.5753 -0.0639  0.1315
  188POPC   O1421568   4.695   4.433   4.615  0.1332 -0.4730  0.3582
  188POPC   O1221569   4.826   4.568   4.464 -0.3297 -0.6542  0.0355
  188POPC   O1121570   4.905   4.560   4.681  0.2855  0.2904  0.5692
  188POPC    C121571   4.926   4.522   4.820  0.0594  0.3437 -0.0930
  188POPC    HA21572   4.846   4.453   4.856 -0.6971  0.5496 -1.3223
  188POPC    HB21573   4.913   4.609   4.888 -0.2544 -0.6890  1.2116
  188POPC    C221574   5.061   4.448   4.838 -0.1811 -0.7530  0.9873
  188POPC    HS21575   5.064   4.371   4.759 -0.0368 -1.2031  1.4236
  188POPC   O2121576   5.048   4.378   4.963 -0.7757  0.4792 -0.8440
  188POPC   C2121577   5.150   4.305   5.008  0.4212  0.6442 -0.2778
  188POPC   O2221578   5.256   4.283   4.954 -0.4553  0.9732 -0.1855
  188POPC   C2221579   5.105   4.257   5.145 -0.0693  0.0677  0.3641
  188POPC   H2R21580   5.038   4.169   5.142 -0.3387  0.0596  3.2308
  188POPC   H2S21581   5.035   4.332   5.188 -0.6796  0.5978 -1.4774
  188POPC    C321582   5.179   4.549   4.819  0.0274  0.7575 -0.0586
  188POPC    HX21583   5.151   4.623   4.741  0.7730 -0.2035 -1.2818
  188POPC    HY21584   5.258   4.481   4.779 -0.2285 -0.2441  1.0615
  188POPC   O3121585   5.227   4.613   4.939  0.3495 -0.1857 -0.1216
  188POPC   C3121586   5.342   4.682   4.918  0.2584  0.3252 -0.0356
  188POPC   O3221587   5.391   4.714   4.814  0.0159 -0.1418 -0.0941
  188POPC   C3221588   5.426   4.694   5.048  1.2137  0.0473 -0.7207
  188POPC   H2X21589   5.384   4.788   5.091  3.5062  0.9902 -0.3480
  188POPC   H2Y21590   5.531   4.705   5.013  1.1842 -1.5956 -1.3808
  188POPC   C2321591   5.224   4.227   5.232 -0.2357  0.1453  0.5525
  188POPC   H3R21592   5.301   4.305   5.216  1.7374 -1.6854  0.7624
  188POPC   H3S21593   5.267   4.133   5.193 -0.9202  0.3214 -0.6510
  188POPC   C2421594   5.196   4.243   5.383  0.1247 -0.5520  0.2755
  188POPC   H4R21595   5.129   4.332   5.386  3.2665  2.0786 -1.2069
  188POPC   H4S21596   5.279   4.282   5.446 -0.1398  0.2832  0.1240
  188POPC   C2521597   5.115   4.127   5.442  0.1084 -0.0902  0.1016
  188POPC   H5R21598   5.172   4.033   5.451 -0.3079 -0.1596  3.5572
  188POPC   H5S21599   5.032   4.108   5.371  0.4452 -0.2526 -0.2501
  188POPC   C2621600   5.061   4.163   5.581  0.6214  0.1155  0.0319
  188POPC   H6R21601   4.988   4.081   5.598  0.4252 -0.3351 -2.5967
  188POPC   H6S21602   5.004   4.258   5.583 -1.3065 -0.9329 -1.3764
  188POPC   C2721603   5.169   4.147   5.692  0.6115  0.2238 -0.3156
  188POPC   H7R21604   5.242   4.229   5.676  0.4920  0.3959  0.0262
  188POPC   H7S21605   5.219   4.049   5.674  1.4560  0.9591 -2.3205
  188POPC   C2821606   5.117   4.174   5.836  0.2071 -0.0612  0.4453
  188POPC   H8R21607   5.201   4.145   5.903 -0.6839 -1.4002  1.0224
  188POPC   H8S21608   5.044   4.093   5.859  0.5646 -0.4254  0.3034
  188POPC   C2921609   5.072   4.318   5.875 -0.2728  1.5600 -0.8451
  188POPC   H9121610   5.028   4.368   5.788 -0.9623  0.4214 -1.1695
  188POPC  C21021611   5.077   4.379   5.997 -0.0980  0.2139  0.2969
  188POPC  H10121612   5.062   4.488   5.999  1.2435  0.4431 -0.6792
  188POPC  C21121613   5.123   4.306   6.124 -0.0006  0.2509 -0.0428
  188POPC  H11R21614   5.182   4.374   6.190  2.4136 -1.4833 -0.2851
  188POPC  H11S21615   5.189   4.220   6.103 -2.7871 -2.4228  1.4356
  188POPC  C21221616   5.016   4.240   6.207 -0.7688 -0.7935 -0.9242
  188POPC  H12R21617   4.985   4.149   6.153 -0.7005 -0.0446 -2.2733
  188POPC  H12S21618   4.923   4.301   6.214 -0.7342 -0.9018  0.9975
  188POPC  C21321619   5.061   4.218   6.351  0.2289 -0.3539  0.2490
  188POPC  H13R21620   5.147   4.149   6.343 -0.6012 -1.3719 -0.0568
  188POPC  H13S21621   4.988   4.157   6.408 -0.2212 -0.8175 -0.8087
  188POPC  C21421622   5.084   4.332   6.456  0.0814  1.2254 -0.3318
  188POPC  H14R21623   4.984   4.381   6.464 -0.5583 -0.2125  0.8287
  188POPC  H14S21624   5.165   4.402   6.425  1.1095 -0.3380 -1.2984
  188POPC  C21521625   5.116   4.265   6.591  0.1467 -0.1151 -0.3945
  188POPC  H15R21626   5.211   4.207   6.585 -1.5615 -3.6029  2.4008
  188POPC  H15S21627   5.027   4.200   6.604 -2.2817  2.7216 -1.5942
  188POPC  C21621628   5.128   4.373   6.697 -0.6290 -0.5945 -0.3269
  188POPC  H16R21629   5.064   4.456   6.663 -1.3797 -1.2476 -0.5458
  188POPC  H16S21630   5.232   4.410   6.708 -0.7477 -0.3136 -0.1437
  188POPC  C21721631   5.065   4.340   6.840  0.0377  0.1322 -0.2036
  188POPC  H17R21632   5.100   4.239   6.871 -2.1627 -0.6917 -0.2469
  188POPC  H17S21633   4.957   4.351   6.819  0.4056  1.1384 -1.7483
  188POPC  C21821634   5.104   4.447   6.949  0.7880  0.2403  0.0365
  188POPC  H18R21635   5.204   4.438   6.997  0.9605 -0.1459 -0.3821
  188POPC  H18S21636   5.031   4.434   7.032 -0.8727 -0.7201 -1.5064
  188POPC  H18T21637   5.079   4.552   6.922 -0.0880 -0.1115 -0.5770
  188POPC   C3321638   5.414   4.575   5.150  0.1700  0.5006 -0.2493
  188POPC   H3X21639   5.484   4.495   5.120 -0.6042 -0.3066  0.0708
  188POPC   H3Y21640   5.312   4.534   5.165 -0.3261  1.2828 -1.3360
  188POPC   C3421641   5.454   4.626   5.291  0.0537  0.2206 -0.0006
  188POPC   H4X21642   5.392   4.713   5.323  0.2151  0.4784 -0.3832
  188POPC   H4Y21643   5.558   4.665   5.291 -0.2052  0.9602  1.0389
  188POPC   C3521644   5.440   4.516   5.394 -0.5244 -0.4804  0.1501
  188POPC   H5X21645   5.522   4.445   5.370 -0.7921 -0.9095  0.4967
  188POPC   H5Y21646   5.343   4.464   5.382  0.0708 -1.6488  0.2361
  188POPC   C3621647   5.458   4.576   5.534 -0.2831  0.7339 -0.1777
  188POPC   H6X21648   5.366   4.636   5.554  0.2491  0.9227  1.9420
  188POPC   H6Y21649   5.555   4.630   5.543 -0.1885  0.3757  1.1927
  188POPC   C3721650   5.468   4.474   5.644  0.1392 -0.5289  0.1295
  188POPC   H7X21651   5.570   4.433   5.660  1.4065  2.8831  1.6437
  188POPC   H7Y21652   5.395   4.390   5.634 -0.0371 -0.2377 -1.2477
  188POPC   C3821653   5.432   4.537   5.778  0.2348 -0.3848  0.0184
  188POPC   H8X21654   5.323   4.559   5.772  0.5965  1.1006 -2.0849
  188POPC   H8Y21655   5.485   4.633   5.797  1.4830 -1.3690  1.8837
  188POPC   C3921656   5.457   4.446   5.893 -0.2108 -0.4016  0.3771
  188POPC   H9X21657   5.566   4.429   5.897  0.1516  1.0125 -1.7960
  188POPC   H9Y21658   5.402   4.353   5.869  0.0887 -0.3103 -0.7355
  188POPC  C31021659   5.404   4.480   6.034  0.0556  0.4405 -0.1001
  188POPC  H10X21660   5.405   4.385   6.092 -0.8921  0.2016 -0.4496
  188POPC  H10Y21661   5.298   4.509   6.047 -0.6111 -2.2791  1.2442
  188POPC  C31121662   5.495   4.570   6.116 -0.1016  1.0660  0.1689
  188POPC  H11X21663   5.491   4.672   6.071  0.2612  1.1650  0.3563
  188POPC  H11Y21664   5.595   4.522   6.108 -0.9471 -0.6937 -0.3461
  188POPC  C31221665   5.452   4.563   6.265  0.7419 -0.1861 -0.2810
  188POPC  H12X21666   5.462   4.456   6.296  2.8328 -0.1779 -0.8061
  188POPC  H12Y21667   5.342   4.582   6.263  0.4858 -1.5371 -0.4708
  188POPC  C31321668   5.528   4.643   6.369  0.4271 -0.3351  0.1158
  188POPC  H13X21669   5.505   4.609   6.473  2.1196 -1.7858  0.0600
  188POPC  H13Y21670   5.518   4.752   6.350 -1.0670 -1.0725 -4.4018
  188POPC  C31421671   5.675   4.600   6.370 -0.7090 -0.1618  0.3124
  188POPC  H14X21672   5.726   4.662   6.446 -1.8838  0.1525  0.8681
  188POPC  H14Y21673   5.727   4.625   6.275  3.1252  1.2809  2.5443
  188POPC  C31521674   5.701   4.451   6.398  0.7407  0.1711  0.2657
  188POPC  H15X21675   5.685   4.383   6.312  1.3613  0.1792  0.1377
  188POPC  H15Y21676   5.646   4.412   6.486  0.9387 -2.0808 -0.5486
  188POPC  C31621677   5.850   4.423   6.435  0.1761 -0.0782  0.6251
  188POPC  H16X21678   5.909   4.480   6.360 -0.0780 -0.7172 -0.0671
  188POPC  H16Y21679   5.880   4.317   6.433  0.5509  0.0357 -0.1618
  188POPC  H16Z21680   5.868   4.460   6.538  0.1692  0.0198  0.5921
  189SAPI   C1221681   1.282   1.424   0.303  0.2859 -0.6672 -0.5673
  189SAPI    H221682   1.349   1.427   0.214  0.5480  2.2372 -0.3393
  189SAPI    O221683   1.360   1.376   0.414  0.7477 -0.7671 -0.0029
  189SAPI   HO221684   1.426   1.316   0.377 -0.0799  0.1598 -3.2669
  189SAPI   C1321685   1.222   1.567   0.329 -0.0957 -0.0666 -0.0295
  189SAPI    H321686   1.154   1.592   0.245 -0.3329 -0.7886 -0.0595
  189SAPI    O321687   1.324   1.661   0.324 -0.1719 -0.0659  0.1675
  189SAPI   HO321688   1.296   1.750   0.344 -0.8551 -0.2657  0.1053
  189SAPI   C1421689   1.136   1.564   0.456 -0.2274  0.4156  0.4442
  189SAPI    H421690   1.212   1.552   0.536  0.1423 -1.3335 -0.1317
  189SAPI    O421691   1.071   1.685   0.483 -0.2759 -0.1032  0.2669
  189SAPI   HO421692   1.022   1.715   0.407  0.1297 -1.0658 -0.3918
  189SAPI   C1521693   1.047   1.446   0.470 -0.8596  0.5344 -0.1311
  189SAPI    H521694   0.953   1.472   0.417 -1.9578 -0.5927  1.1660
  189SAPI    O521695   1.008   1.416   0.603  0.0621  0.1899  0.3983
  189SAPI   HO521696   0.990   1.499   0.647  0.5684  0.8848 -0.6857
  189SAPI   C1621697   1.084   1.311   0.394 -0.5694 -0.5057  0.5048
  189SAPI    H621698   1.143   1.254   0.469 -2.1596 -1.4300  1.1053
  189SAPI    O621699   0.967   1.226   0.368 -0.0743  0.6408  0.6810
  189SAPI   HO621700   1.000   1.142   0.400  0.9641 -0.1562 -2.1684
  189SAPI   C1121701   1.176   1.325   0.280 -0.2238  0.5386  0.2939
  189SAPI    H121702   1.115   1.367   0.197 -0.7239 -2.2749 -0.8597
  189SAPI     P21703   1.277   1.166   0.079  0.2403  0.1614 -0.6127
  189SAPI   O1321704   1.377   1.054   0.093 -0.5018 -0.1987 -1.1098
  189SAPI   O1421705   1.310   1.296   0.020  0.4198  0.2724 -0.2753
  189SAPI   O1221706   1.228   1.195   0.236  0.0810 -0.0936  0.0919
  189SAPI   O1121707   1.155   1.109   0.001 -0.1894 -0.4241 -0.6088
  189SAPI    C121708   1.030   1.175   0.017  0.1627 -0.8314  0.7917
  189SAPI    HA21709   0.988   1.147   0.115  0.2518 -2.2996  0.4280
  189SAPI    HB21710   1.031   1.286   0.013 -0.5579 -0.8413 -2.3196
  189SAPI    C221711   0.930   1.122  -0.096  0.3563 -0.0684  0.1747
  189SAPI    HS21712   0.921   1.021  -0.051  0.8058 -1.1980 -2.1233
  189SAPI   O2121713   0.987   1.118  -0.226 -0.3620  0.4407 -0.0147
  189SAPI   C2121714   0.942   1.018  -0.300 -0.6996  0.0157 -0.7807
  189SAPI   O2221715   0.870   0.930  -0.256 -0.4604 -0.1532 -0.5645
  189SAPI   C2221716   0.994   1.038  -0.446  0.4534  0.3029  0.1200
  189SAPI   H2R21717   0.957   1.139  -0.472  2.1982  0.6462 -1.2593
  189SAPI   H2S21718   1.105   1.044  -0.448  0.4230  1.0292 -1.6348
  189SAPI    C321719   0.798   1.203  -0.105 -0.1417 -0.7106 -0.7351
  189SAPI    HX21720   0.847   1.302  -0.092  1.2675 -1.5293  0.5715
  189SAPI    HY21721   0.738   1.175  -0.016 -0.9773  2.6434 -0.0920
  189SAPI   O3121722   0.714   1.192  -0.225  0.1996  0.1777  0.6302
  189SAPI   C3121723   0.642   1.299  -0.252 -0.1306 -0.1697  0.0991
  189SAPI   O3221724   0.640   1.403  -0.186  0.1178  0.1457 -0.0910
  189SAPI   C3221725   0.572   1.271  -0.386 -0.1930 -0.4279  0.2817
  189SAPI   H2X21726   0.504   1.357  -0.403  0.0084 -0.6381 -1.7792
  189SAPI   H2Y21727   0.516   1.176  -0.370  0.7270 -0.8871  0.9421
  189SAPI   C2321728   0.954   0.926  -0.540 -0.3655  0.0677  1.0731
  189SAPI   H3R21729   0.850   0.906  -0.506 -1.6309  3.6438 -0.2582
  189SAPI   H3S21730   1.017   0.837  -0.517 -1.2472 -0.8908 -0.0630
  189SAPI   C2421731   0.951   0.966  -0.690 -0.2725 -0.2442 -0.0621
  189SAPI   H4R21732   0.904   1.066  -0.706  0.8583 -0.0133 -2.1951
  189SAPI   H4S21733   0.878   0.891  -0.728  0.2733  0.7295 -3.2837
  189SAPI   C2521734   1.087   0.955  -0.758 -0.6022 -0.3749  0.2726
  189SAPI   H5R21735   1.177   0.928  -0.701  0.3248 -1.7502 -1.7191
  189SAPI   C2621736   1.106   0.984  -0.890 -0.5151  0.0671 -0.3969
  189SAPI   H6R21737   1.206   0.983  -0.937 -0.8126  4.0496 -1.4757
  189SAPI   C2721738   1.000   1.043  -0.971  0.6493  0.4095  0.2318
  189SAPI   H7R21739   1.056   1.109  -1.040  1.1325 -0.4996 -0.2616
  189SAPI   H7S21740   0.924   1.105  -0.918 -1.0907 -1.8670  0.5504
  189SAPI   C2821741   0.926   0.939  -1.049  0.7118  0.1822  0.0906
  189SAPI   H8R21742   0.890   0.852  -0.992  3.4118 -1.8851 -1.0983
  189SAPI   C2921743   0.926   0.934  -1.187 -0.3604  0.1109  0.1537
  189SAPI   H9R21744   0.877   0.848  -1.233 -0.0031 -0.6301  1.1270
  189SAPI  C21021745   0.992   1.027  -1.291  0.1763 -0.1075  0.5077
  189SAPI  H10R21746   0.985   1.127  -1.243 -1.0326 -0.5618  1.3266
  189SAPI  H10S21747   0.940   1.012  -1.388  0.5159 -2.7892  0.6644
  189SAPI  C21121748   1.133   0.980  -1.313  0.4073 -0.2479 -0.0364
  189SAPI  H11R21749   1.196   1.002  -1.226 -0.2908 -0.6389  0.5831
  189SAPI  C21221750   1.189   0.927  -1.426 -0.2070  0.5758 -0.1485
  189SAPI  H12R21751   1.297   0.909  -1.423 -0.3126 -0.2527 -0.8807
  189SAPI  C21321752   1.123   0.902  -1.558  0.6016  0.9144 -0.8375
  189SAPI  H13R21753   1.023   0.950  -1.566  0.4402  0.8179  0.3782
  189SAPI  H13S21754   1.117   0.793  -1.579  2.1133  0.5293  0.5002
  189SAPI  C21421755   1.197   0.936  -1.681 -0.2844 -0.4798  0.5782
  189SAPI  H14R21756   1.295   0.886  -1.685  0.7419  1.3123  1.8956
  189SAPI  C21521757   1.164   1.021  -1.780  0.2607 -0.3738  0.0868
  189SAPI  H15R21758   1.225   1.035  -1.871 -0.1555  0.9228 -0.0072
  189SAPI  C21621759   1.031   1.107  -1.775 -0.5674  0.0815 -0.3167
  189SAPI  H16R21760   1.051   1.213  -1.805 -2.0716  0.1423 -1.2231
  189SAPI  H16S21761   0.987   1.115  -1.673 -1.2110 -1.5396 -0.4465
  189SAPI  C21721762   0.930   1.052  -1.877  0.8705 -0.2577  0.2228
  189SAPI  H17R21763   0.850   1.129  -1.879  0.3981 -0.7529 -0.2134
  189SAPI  H17S21764   0.888   0.960  -1.830 -0.0113  2.2031  4.8419
  189SAPI  C21821765   0.980   1.037  -2.023 -0.7277  0.1834  1.1468
  189SAPI  H18R21766   0.892   1.012  -2.087  1.3522 -3.9664 -0.4655
  189SAPI  H18S21767   1.043   0.946  -2.030 -0.6289  0.2869  0.6534
  189SAPI  C21921768   1.047   1.150  -2.103 -0.9022 -0.2064 -0.6781
  189SAPI  H19R21769   1.141   1.154  -2.044  0.7809 -2.3136 -2.9970
  189SAPI  H19S21770   0.984   1.238  -2.077  0.2093  0.5787 -0.5380
  189SAPI  C22021771   1.067   1.125  -2.247 -1.0574  0.7201 -0.5686
  189SAPI  H20R21772   1.114   1.214  -2.295 -1.3025  1.9482  1.3426
  189SAPI  H20S21773   0.963   1.107  -2.285 -1.1556  1.8571 -0.8879
  189SAPI  H20T21774   1.121   1.029  -2.258 -0.0341  1.0711  1.1742
  189SAPI   C3321775   0.666   1.257  -0.500  0.4642  0.1260  0.9982
  189SAPI   H3X21776   0.719   1.159  -0.500  0.7175  0.2472  2.2438
  189SAPI   H3Y21777   0.748   1.332  -0.491  0.0589  0.7216 -0.0535
  189SAPI   C3421778   0.583   1.293  -0.626 -0.6749  0.3213  0.6378
  189SAPI   H4X21779   0.554   1.400  -0.629  0.7620  0.7323 -2.2395
  189SAPI   H4Y21780   0.490   1.233  -0.631  0.8373 -2.0664 -1.7589
  189SAPI   C3521781   0.653   1.244  -0.758  0.1665 -0.5568  0.5540
  189SAPI   H5X21782   0.655   1.133  -0.755 -1.4434 -0.6777 -0.9583
  189SAPI   H5Y21783   0.754   1.285  -0.779 -0.9673  1.7804 -0.7442
  189SAPI   C3621784   0.555   1.265  -0.873  0.3568 -0.4207 -0.1126
  189SAPI   H6X21785   0.522   1.371  -0.884  0.1516 -0.3873  0.7543
  189SAPI   H6Y21786   0.476   1.188  -0.865 -0.1901  0.1054 -0.3433
  189SAPI   C3721787   0.615   1.238  -1.012 -0.7264  0.3752  0.0486
  189SAPI   H7X21788   0.554   1.179  -1.083  0.0290  0.3836 -0.6269
  189SAPI   H7Y21789   0.699   1.171  -0.985 -1.1044  0.5072  1.6883
  189SAPI   C3821790   0.681   1.364  -1.072  0.3503 -0.1629  0.6463
  189SAPI   H8X21791   0.768   1.386  -1.006  1.0433  1.0571 -0.6258
  189SAPI   H8Y21792   0.621   1.457  -1.074  0.3864 -0.1511 -0.2698
  189SAPI   C3921793   0.746   1.327  -1.202  0.3828  0.0688  0.8299
  189SAPI   H9X21794   0.823   1.249  -1.187  1.7211  1.5066  1.7825
  189SAPI   H9Y21795   0.791   1.416  -1.252  0.5091 -0.9333 -0.8970
  189SAPI  C31021796   0.651   1.273  -1.301  0.1254  0.1155  0.2588
  189SAPI  H10X21797   0.563   1.341  -1.315 -0.1501 -0.6689 -2.3030
  189SAPI  H10Y21798   0.601   1.178  -1.275 -1.0074  0.0399 -1.9411
  189SAPI  C31121799   0.709   1.241  -1.440 -0.2079  0.6106  0.1901
  189SAPI  H11X21800   0.649   1.163  -1.491  1.8295 -0.0675 -1.3066
  189SAPI  H11Y21801   0.812   1.198  -1.437 -0.7579 -0.7894 -0.0688
  189SAPI  C31221802   0.708   1.368  -1.524  0.0247 -0.3224  0.0419
  189SAPI  H12X21803   0.768   1.444  -1.470 -2.3118  1.0504  0.8053
  189SAPI  H12Y21804   0.603   1.402  -1.528 -0.0198 -0.3921  0.6244
  189SAPI  C31321805   0.758   1.334  -1.661 -0.4998  0.1348 -0.9155
  189SAPI  H13X21806   0.705   1.239  -1.686 -0.6949  0.3903 -1.4739
  189SAPI  H13Y21807   0.868   1.314  -1.662 -0.5906 -0.7053  1.2043
  189SAPI  C31421808   0.722   1.443  -1.758 -0.4652 -0.6227 -0.5122
  189SAPI  H14X21809   0.780   1.537  -1.743 -0.5957 -0.5593 -0.4086
  189SAPI  H14Y21810   0.623   1.487  -1.735 -0.8381 -1.7707  0.1394
  189SAPI  C31521811   0.708   1.400  -1.904 -0.0836 -0.1016  0.3909
  189SAPI  H15X21812   0.627   1.326  -1.920 -0.0579 -0.3415  1.3009
  189SAPI  H15Y21813   0.795   1.341  -1.940 -0.8107  0.6767 -2.9549
  189SAPI  C31621814   0.694   1.519  -1.997  0.3371  0.5679  0.8201
  189SAPI  H16X21815   0.770   1.597  -1.974  1.5020 -0.5260  0.7955
  189SAPI  H16Y21816   0.594   1.566  -1.980  1.2146  2.6693  0.4735
  189SAPI  C31721817   0.712   1.465  -2.145 -0.6239  0.1817  0.3157
  189SAPI  H17X21818   0.619   1.409  -2.172 -0.1937 -0.2472 -0.3056
  189SAPI  H17Y21819   0.800   1.398  -2.149 -1.5228 -1.1862  2.1661
  189SAPI  C31821820   0.739   1.574  -2.251  0.0968  0.0437 -0.2448
  189SAPI  H18X21821   0.641   1.624  -2.271  0.1944  0.1796 -0.3849
  189SAPI  H18Y21822   0.792   1.536  -2.341  0.3482  0.9066 -0.4706
  189SAPI  H18Z21823   0.805   1.647  -2.199  0.6908 -1.3015  0.9268
  190SAPI   C1221824   5.338   1.409   0.482  1.1090 -1.1040  0.2574
  190SAPI    H221825   5.296   1.406   0.585  0.2254  4.2202  0.3687
  190SAPI    O221826   5.267   1.511   0.399 -0.3039 -0.0677 -0.1929
  190SAPI   HO221827   5.182   1.475   0.373 -0.2055  0.6611 -1.6436
  190SAPI   C1321828   5.480   1.449   0.508 -0.1728 -0.0087  0.6940
  190SAPI    H321829   5.529   1.371   0.571  1.8343  0.8748  0.3290
  190SAPI    O321830   5.479   1.570   0.579 -0.0977 -0.3045  0.3288
  190SAPI   HO321831   5.398   1.616   0.554  1.3683  1.6858 -1.0538
  190SAPI   C1421832   5.570   1.453   0.380  0.1825 -0.2748 -0.7081
  190SAPI    H421833   5.527   1.543   0.331 -0.3075 -0.7159 -1.1021
  190SAPI    O421834   5.713   1.478   0.412 -0.4989 -0.2373  0.6044
  190SAPI   HO421835   5.750   1.519   0.334 -2.6583 -0.5894 -0.7121
  190SAPI   C1521836   5.549   1.344   0.280  0.3564 -0.8959 -0.0087
  190SAPI    H521837   5.621   1.263   0.304  0.6656 -0.9341 -1.0189
  190SAPI    O521838   5.582   1.393   0.146  0.1690  0.3189 -0.0638
  190SAPI   HO521839   5.650   1.333   0.113 -0.6171 -0.0591 -1.0475
  190SAPI   C1621840   5.413   1.274   0.285 -0.2378 -0.3516 -0.1159
  190SAPI    H621841   5.346   1.339   0.226 -0.6512 -0.1801  0.5356
  190SAPI    O621842   5.415   1.143   0.224 -0.0982 -0.3290  0.2846
  190SAPI   HO621843   5.394   1.074   0.288  1.9505 -2.1600 -0.8641
  190SAPI   C1121844   5.342   1.278   0.420 -0.2079  0.9206  0.6347
  190SAPI    H121845   5.404   1.209   0.481  1.3259 -0.0673 -1.8819
  190SAPI     P21846   5.162   1.068   0.412  0.0954 -0.2232 -0.3206
  190SAPI   O1321847   5.069   1.050   0.524  0.1018  0.0704  0.2644
  190SAPI   O1421848   5.290   0.992   0.412  0.2526  0.3285 -0.3050
  190SAPI   O1221849   5.203   1.230   0.409 -0.2392 -0.9987  0.1250
  190SAPI   O1121850   5.097   1.037   0.267  0.2025 -0.9522 -0.2194
  190SAPI    C121851   4.964   1.087   0.240 -0.1797 -0.0496  0.3020
  190SAPI    HA21852   4.925   1.027   0.156 -1.3969  1.2640 -0.1142
  190SAPI    HB21853   4.903   1.074   0.331  0.6801 -1.5044  0.6993
  190SAPI    C221854   4.955   1.233   0.187 -0.1143  0.4157  0.4866
  190SAPI    HS21855   4.970   1.293   0.280  1.5459  1.0416 -0.1310
  190SAPI   O2121856   4.829   1.248   0.122  0.2481 -0.0332 -0.1372
  190SAPI   C2121857   4.799   1.378   0.096 -0.2644  0.6339 -0.1299
  190SAPI   O2221858   4.863   1.471   0.148  0.6254  0.2772 -0.0990
  190SAPI   C2221859   4.688   1.379   0.001 -0.1574 -0.6890 -0.0527
  190SAPI   H2R21860   4.718   1.384  -0.106  1.1818  0.3070  0.3417
  190SAPI   H2S21861   4.626   1.288   0.016 -1.9413  0.6014  0.8781
  190SAPI    C321862   5.068   1.264   0.079  0.0209 -0.7360 -0.5274
  190SAPI    HX21863   5.155   1.217   0.131 -0.7437 -0.0112  1.5233
  190SAPI    HY21864   5.090   1.372   0.072  0.0573 -0.5893  1.2879
  190SAPI   O3121865   5.046   1.200  -0.045 -0.0709 -0.1894 -0.2452
  190SAPI   C3121866   5.143   1.226  -0.134 -0.4518 -0.1181 -0.8121
  190SAPI   O3221867   5.246   1.291  -0.106  0.2610  0.1051  0.1303
  190SAPI   C3221868   5.132   1.138  -0.258 -0.2285 -0.5112 -0.0114
  190SAPI   H2X21869   5.066   1.054  -0.225  0.8114 -1.6946 -0.8742
  190SAPI   H2Y21870   5.231   1.092  -0.277 -0.7280 -2.2130  1.2118
  190SAPI   C2321871   4.594   1.487   0.051  0.4669  0.3013 -0.3597
  190SAPI   H3R21872   4.634   1.589   0.068 -1.4762  0.8491  1.3537
  190SAPI   H3S21873   4.564   1.466   0.156 -0.5072 -1.3640 -0.9428
  190SAPI   C2421874   4.453   1.490  -0.013  0.2332  0.0176 -0.6027
  190SAPI   H4R21875   4.453   1.545  -0.110 -0.3434  0.5385 -0.3134
  190SAPI   H4S21876   4.396   1.566   0.045 -0.8523 -1.0637 -0.2023
  190SAPI   C2521877   4.381   1.357  -0.021  0.2673 -0.3617 -0.2075
  190SAPI   H5R21878   4.433   1.271   0.023 -2.1990 -0.7865  2.1414
  190SAPI   C2621879   4.263   1.337  -0.082 -0.2365  1.0179  0.3177
  190SAPI   H6R21880   4.213   1.240  -0.092  0.1572  0.5403  2.3347
  190SAPI   C2721881   4.179   1.447  -0.142  0.5615 -0.0739 -0.2492
  190SAPI   H7R21882   4.245   1.514  -0.202  2.5049 -0.2655  1.5477
  190SAPI   H7S21883   4.129   1.498  -0.058 -0.6945 -1.5286 -0.0792
  190SAPI   C2821884   4.054   1.406  -0.218  0.5856  0.0656  0.1321
  190SAPI   H8R21885   3.970   1.380  -0.151  0.0353  1.2027 -0.0827
  190SAPI   C2921886   4.030   1.413  -0.349  0.0830 -0.5965  0.5601
  190SAPI   H9R21887   3.938   1.384  -0.401  1.5919 -1.6437 -1.7031
  190SAPI  C21021888   4.139   1.475  -0.438  0.0251  0.0760  0.0302
  190SAPI  H10R21889   4.235   1.468  -0.384 -0.5313 -0.7494  0.9456
  190SAPI  H10S21890   4.102   1.578  -0.458 -0.9124 -0.7604 -3.2001
  190SAPI  C21121891   4.175   1.389  -0.558 -0.1956 -0.4558 -0.5285
  190SAPI  H11R21892   4.181   1.285  -0.524 -2.2046 -0.2844  0.5307
  190SAPI  C21221893   4.177   1.417  -0.692 -0.4634  0.1003 -0.2744
  190SAPI  H12R21894   4.209   1.335  -0.758 -0.7208  0.8000 -1.3021
  190SAPI  C21321895   4.171   1.553  -0.756 -0.1046 -0.2026  0.2094
  190SAPI  H13R21896   4.139   1.634  -0.686 -0.8559  0.4212 -0.8243
  190SAPI  H13S21897   4.100   1.547  -0.841  1.6767  0.2512 -1.3979
  190SAPI  C21421898   4.308   1.594  -0.807 -0.6154 -0.3976  0.1431
  190SAPI  H14R21899   4.394   1.538  -0.768 -1.9061 -2.0562  0.7085
  190SAPI  C21521900   4.331   1.696  -0.899 -0.0021  0.5784  0.4041
  190SAPI  H15R21901   4.432   1.726  -0.930 -0.7569 -0.5936 -4.0033
  190SAPI  C21621902   4.230   1.776  -0.970 -0.6228 -0.1872  0.6293
  190SAPI  H16R21903   4.256   1.882  -0.986 -2.0356  0.1676  0.5311
  190SAPI  H16S21904   4.140   1.795  -0.907  1.1103  1.4847  2.7780
  190SAPI  C21721905   4.184   1.699  -1.098  0.0556 -0.2144 -0.1613
  190SAPI  H17R21906   4.095   1.752  -1.139 -0.1097 -0.7104 -0.4493
  190SAPI  H17S21907   4.154   1.595  -1.074  0.7415 -0.1691  0.9723
  190SAPI  C21821908   4.290   1.708  -1.204 -0.0972 -0.2391 -0.0586
  190SAPI  H18R21909   4.378   1.655  -1.161  0.6422  0.5566 -0.5767
  190SAPI  H18S21910   4.313   1.813  -1.231  1.8195 -0.5575  0.1702
  190SAPI  C21921911   4.247   1.637  -1.337  0.4127  0.7028  0.0969
  190SAPI  H19R21912   4.160   1.688  -1.382 -0.3155 -0.8460 -0.3266
  190SAPI  H19S21913   4.216   1.531  -1.321  2.2515 -0.5011 -3.2854
  190SAPI  C22021914   4.348   1.632  -1.451 -0.2273  0.0953  0.4909
  190SAPI  H20R21915   4.448   1.589  -1.428  0.0433  0.7922  0.6742
  190SAPI  H20S21916   4.371   1.736  -1.483  0.2972 -0.3721 -0.6828
  190SAPI  H20T21917   4.310   1.581  -1.542  1.7052 -1.0158  0.2467
  190SAPI   C3321918   5.066   1.197  -0.373 -0.0679 -0.2130  0.8430
  190SAPI   H3X21919   5.120   1.290  -0.403 -0.9697  0.1943  0.4518
  190SAPI   H3Y21920   4.962   1.218  -0.342 -1.0567 -3.2924 -0.0616
  190SAPI   C3421921   5.078   1.102  -0.496 -0.2630 -0.4016 -0.2201
  190SAPI   H4X21922   5.017   1.010  -0.485 -0.1747 -0.5844 -1.1774
  190SAPI   H4Y21923   5.186   1.082  -0.508  0.5403  3.1479 -0.0731
  190SAPI   C3521924   5.037   1.185  -0.623 -0.7476 -0.6854 -0.2598
  190SAPI   H5X21925   5.109   1.269  -0.632 -0.8299 -0.2420  2.5390
  190SAPI   H5Y21926   4.940   1.233  -0.599 -1.1632 -2.2005  1.2586
  190SAPI   C3621927   5.007   1.102  -0.743 -0.1479 -0.3436  0.0110
  190SAPI   H6X21928   5.100   1.050  -0.774  2.7196  2.2637  3.3477
  190SAPI   H6Y21929   4.976   1.176  -0.820 -1.0406 -1.3515 -0.6301
  190SAPI   C3721930   4.900   0.999  -0.731 -0.4273 -0.5590  0.6037
  190SAPI   H7X21931   4.812   1.055  -0.693 -0.1306 -0.0617  0.5619
  190SAPI   H7Y21932   4.919   0.919  -0.655 -0.7742 -0.5590  0.6906
  190SAPI   C3821933   4.868   0.932  -0.863 -0.1713  0.1875 -0.1525
  190SAPI   H8X21934   4.955   0.873  -0.899 -1.1248 -2.7299  1.9104
  190SAPI   H8Y21935   4.849   1.012  -0.936  0.0641  0.3317 -0.0573
  190SAPI   C3921936   4.740   0.835  -0.853  0.0847  0.4212  0.2678
  190SAPI   H9X21937   4.715   0.793  -0.953  3.2881 -1.4417  0.1129
  190SAPI   H9Y21938   4.654   0.899  -0.823 -0.3301  0.1880 -0.3879
  190SAPI  C31021939   4.761   0.719  -0.750 -0.3331 -0.3369  0.4971
  190SAPI  H10X21940   4.780   0.757  -0.647  0.1520 -0.3299  0.4104
  190SAPI  H10Y21941   4.857   0.667  -0.772 -0.7081 -0.1123 -1.8941
  190SAPI  C31121942   4.654   0.618  -0.759 -0.3877  0.1928 -0.1021
  190SAPI  H11X21943   4.639   0.584  -0.863  3.7653 -1.3185 -0.3948
  190SAPI  H11Y21944   4.560   0.670  -0.729  1.5188  3.2504  1.1240
  190SAPI  C31221945   4.680   0.498  -0.676 -0.9770 -0.7878 -0.3952
  190SAPI  H12X21946   4.780   0.456  -0.698  1.0843  2.7093  1.4778
  190SAPI  H12Y21947   4.598   0.425  -0.695 -2.5658  0.4425  1.3266
  190SAPI  C31321948   4.680   0.530  -0.526 -0.3386 -0.3435  0.2203
  190SAPI  H13X21949   4.586   0.587  -0.512 -1.6305 -1.8614 -1.8011
  190SAPI  H13Y21950   4.772   0.592  -0.512 -2.4223  3.1296 -0.2582
  190SAPI  C31421951   4.698   0.409  -0.442  0.1960  0.1094 -0.0790
  190SAPI  H14X21952   4.795   0.366  -0.476  0.9286  1.5203  0.1242
  190SAPI  H14Y21953   4.612   0.342  -0.461 -1.4425  2.5047 -1.7226
  190SAPI  C31521954   4.701   0.452  -0.292  0.3074  0.0628  0.0554
  190SAPI  H15X21955   4.604   0.503  -0.269  0.3203  0.0604  0.1157
  190SAPI  H15Y21956   4.787   0.522  -0.286 -0.0378  0.5442 -0.4929
  190SAPI  C31621957   4.719   0.348  -0.185  0.0002 -0.6171  0.0983
  190SAPI  H16X21958   4.731   0.394  -0.085  0.6985  0.3497 -0.4143
  190SAPI  H16Y21959   4.811   0.289  -0.207  1.2178  1.5398 -0.9055
  190SAPI  C31721960   4.601   0.249  -0.176 -0.1815  0.8982 -0.9345
  190SAPI  H17X21961   4.586   0.204  -0.276 -0.9419  0.0827 -0.4695
  190SAPI  H17Y21962   4.506   0.296  -0.142 -0.4834  0.0991 -0.6510
  190SAPI  C31821963   4.619   0.138  -0.072 -0.2966  0.1523 -0.2763
  190SAPI  H18X21964   4.538   0.062  -0.074  0.0575 -0.2206 -1.9034
  190SAPI  H18Y21965   4.613   0.181   0.030 -3.6659  1.4147 -0.8552
  190SAPI  H18Z21966   4.702   0.068  -0.092 -0.1833  1.0994 -3.9904
  191SAPI   C1221967   3.309   3.290   4.096  0.4582 -0.4727  0.1404
  191SAPI    H221968   3.389   3.366   4.111 -0.9362  0.7177  2.2012
  191SAPI    O221969   3.226   3.325   3.983 -0.3138 -0.1787 -0.3787
  191SAPI   HO221970   3.194   3.415   3.993 -1.4245 -0.7701  2.0670
  191SAPI   C1321971   3.381   3.164   4.060  0.3306  0.0282  0.0995
  191SAPI    H321972   3.451   3.144   4.145  1.0182 -1.5657 -0.8066
  191SAPI    O321973   3.475   3.182   3.954  0.0350  0.5656  0.3253
  191SAPI   HO321974   3.428   3.235   3.890 -2.4520  2.3718  3.3461
  191SAPI   C1421975   3.281   3.045   4.052  0.3977  0.6737  0.1035
  191SAPI    H421976   3.231   3.063   3.955 -0.0694  1.5700  0.4989
  191SAPI    O421977   3.346   2.924   4.028 -0.1238  0.5693  0.0247
  191SAPI   HO421978   3.335   2.869   4.106 -1.2690  2.8900  1.6378
  191SAPI   C1521979   3.185   3.052   4.176  0.6153 -0.0464 -0.1979
  191SAPI    H521980   3.256   3.022   4.256  1.0777 -1.4555 -1.0921
  191SAPI    O521981   3.080   2.952   4.168 -0.1882 -0.0421 -0.0915
  191SAPI   HO521982   3.106   2.882   4.229  0.9004 -0.6907 -1.2623
  191SAPI   C1621983   3.126   3.185   4.226 -0.4400 -0.3064 -0.0893
  191SAPI    H621984   3.061   3.221   4.144  0.5115 -0.4246 -0.9186
  191SAPI    O621985   3.056   3.192   4.354  0.0865 -0.1520  0.3749
  191SAPI   HO621986   3.114   3.191   4.430 -0.3555 -1.6360  0.7419
  191SAPI   C1121987   3.225   3.296   4.222  0.0219  0.3513 -0.5096
  191SAPI    H121988   3.294   3.281   4.307 -1.4414  0.9651  0.8426
  191SAPI     P21989   3.226   3.542   4.342  0.0159 -0.1161 -0.0335
  191SAPI   O1321990   3.178   3.675   4.286 -0.8027 -0.3680 -0.7724
  191SAPI   O1421991   3.376   3.521   4.350  0.4669 -0.1038 -0.2057
  191SAPI   O1221992   3.158   3.426   4.241  0.2139  0.0605 -0.0066
  191SAPI   O1121993   3.153   3.508   4.481 -0.2685 -0.9263 -0.1113
  191SAPI    C121994   3.015   3.511   4.482  0.1214  0.2740 -0.0533
  191SAPI    HA21995   2.975   3.605   4.438 -1.1529 -0.0255  0.4292
  191SAPI    HB21996   2.969   3.440   4.408 -1.1699  1.1999 -0.1783
  191SAPI    C221997   2.956   3.489   4.626 -0.2777  0.4870  0.0015
  191SAPI    HS21998   2.847   3.509   4.621 -0.0667  1.3440 -1.8683
  191SAPI   O2121999   3.019   3.600   4.698  0.3625  0.5126 -0.1031
  191SAPI   C2122000   2.953   3.713   4.718 -0.3897  0.7795 -0.8960
  191SAPI   O2222001   2.841   3.740   4.682  0.3440  0.2666  0.0855
  191SAPI   C2222002   3.037   3.811   4.807 -0.2880 -0.2481 -0.3720
  191SAPI   H2R22003   3.135   3.760   4.818  0.6766  1.3674 -0.9493
  191SAPI   H2S22004   3.040   3.908   4.752 -0.8108 -1.8289 -3.4371
  191SAPI    C322005   2.989   3.348   4.680 -0.1529 -0.2945  0.8920
  191SAPI    HX22006   3.099   3.355   4.681 -0.1749  0.1532  0.7665
  191SAPI    HY22007   2.954   3.263   4.618 -0.1257 -0.8783  1.6615
  191SAPI   O3122008   2.937   3.341   4.813 -0.3050  0.0325  0.2943
  191SAPI   C3122009   2.982   3.230   4.875 -0.7900  0.5591 -0.1958
  191SAPI   O3222010   3.048   3.135   4.822  0.3913 -0.0766  0.4043
  191SAPI   C3222011   2.950   3.246   5.025  0.5815 -0.1422 -0.0031
  191SAPI   H2X22012   2.879   3.162   5.042  0.4484 -0.2912 -1.1945
  191SAPI   H2Y22013   2.883   3.332   5.043  3.0081  1.5163  1.7580
  191SAPI   C2322014   2.982   3.845   4.948 -0.0759 -0.0734  0.5122
  191SAPI   H3R22015   2.877   3.881   4.933 -0.5690 -1.5464  0.2715
  191SAPI   H3S22016   3.050   3.925   4.985  0.1077 -0.3627  0.7955
  191SAPI   C2422017   2.982   3.739   5.058 -0.8402 -0.2216 -0.2759
  191SAPI   H4R22018   2.921   3.658   5.012 -0.3591  0.2651 -1.8176
  191SAPI   H4S22019   2.932   3.779   5.149  0.4291 -1.5424  1.0538
  191SAPI   C2522020   3.116   3.686   5.093  0.0341 -0.1470 -0.2406
  191SAPI   H5R22021   3.150   3.598   5.037 -0.0216 -0.4956  0.2691
  191SAPI   C2622022   3.194   3.735   5.190  0.2255  0.2701 -1.1190
  191SAPI   H6R22023   3.296   3.696   5.202  0.4385  0.6361 -1.7148
  191SAPI   C2722024   3.158   3.855   5.274 -0.0932 -0.5243  0.1208
  191SAPI   H7R22025   3.055   3.847   5.316  0.3160  1.3651  1.6561
  191SAPI   H7S22026   3.157   3.944   5.207  1.5433  0.2744  1.0963
  191SAPI   C2822027   3.261   3.891   5.380  0.9327 -0.5086  0.2696
  191SAPI   H8R22028   3.323   3.976   5.348 -1.4359  1.6939  1.2062
  191SAPI   C2922029   3.273   3.833   5.503 -0.5240  0.8676  0.3892
  191SAPI   H9R22030   3.337   3.878   5.579 -0.2994 -1.2290  1.5210
  191SAPI  C21022031   3.189   3.714   5.559 -0.3242 -0.5923 -0.8784
  191SAPI  H10R22032   3.125   3.663   5.484  1.0237 -2.9339 -0.5596
  191SAPI  H10S22033   3.121   3.762   5.632  2.4050  0.5180  1.1002
  191SAPI  C21122034   3.271   3.616   5.644 -0.6541  0.2617  0.3556
  191SAPI  H11R22035   3.307   3.527   5.591  0.7174  0.6259  0.6271
  191SAPI  C21222036   3.284   3.616   5.777 -0.6052  0.0485  0.0348
  191SAPI  H12R22037   3.344   3.537   5.824  0.5239 -0.8962 -2.7742
  191SAPI  C21322038   3.252   3.723   5.874 -0.2819 -0.2929  0.5489
  191SAPI  H13R22039   3.180   3.793   5.827  0.1035 -0.0681  0.2917
  191SAPI  H13S22040   3.350   3.773   5.889  0.3598  0.1696 -3.8131
  191SAPI  C21422041   3.193   3.644   5.991 -0.3340 -0.1182 -0.1643
  191SAPI  H14R22042   3.094   3.602   5.969  0.0631 -1.6263  0.7856
  191SAPI  C21522043   3.244   3.608   6.115 -0.6545  0.2184 -0.4774
  191SAPI  H15R22044   3.173   3.579   6.195 -0.6318  2.2383  0.3332
  191SAPI  C21622045   3.386   3.636   6.164  0.0072 -0.0108  0.5442
  191SAPI  H16R22046   3.421   3.732   6.119 -0.1052 -0.1805  0.0907
  191SAPI  H16S22047   3.459   3.557   6.136 -0.5475 -0.4094  0.2077
  191SAPI  C21722048   3.396   3.663   6.315  0.5552  0.3184  0.0375
  191SAPI  H17R22049   3.351   3.580   6.374  0.0158 -0.7782 -1.8288
  191SAPI  H17S22050   3.325   3.745   6.339 -0.2314  0.1335 -1.5361
  191SAPI  C21822051   3.536   3.680   6.358  0.1505 -0.2409  0.5618
  191SAPI  H18R22052   3.576   3.747   6.279 -0.7036 -1.1567 -0.7023
  191SAPI  H18S22053   3.584   3.585   6.327  0.5486  0.3283 -0.6259
  191SAPI  C21922054   3.568   3.711   6.500  0.4486 -0.1802  0.2658
  191SAPI  H19R22055   3.677   3.734   6.501  0.1042  1.6388 -0.4053
  191SAPI  H19S22056   3.548   3.620   6.560 -0.7605 -2.0019 -2.6357
  191SAPI  C22022057   3.495   3.826   6.561 -0.1950 -0.6762 -0.3419
  191SAPI  H20R22058   3.516   3.853   6.667  2.1201 -0.8967 -0.7065
  191SAPI  H20S22059   3.384   3.833   6.553 -0.5227 -0.9296  2.8210
  191SAPI  H20T22060   3.544   3.911   6.509 -1.6138  0.3359 -0.0795
  191SAPI   C3322061   3.070   3.244   5.120 -0.1912 -0.4155  0.9689
  191SAPI   H3X22062   3.137   3.332   5.105  0.4708 -0.8137  1.4832
  191SAPI   H3Y22063   3.132   3.153   5.104  0.6701 -0.1264  2.4555
  191SAPI   C3422064   3.024   3.239   5.268 -0.4376 -0.0736  0.5075
  191SAPI   H4X22065   2.946   3.314   5.294  0.0300 -0.1023  2.1706
  191SAPI   H4Y22066   3.097   3.285   5.339 -3.5923  1.0861  3.2984
  191SAPI   C3522067   2.975   3.103   5.319  0.4400  0.2009 -0.0581
  191SAPI   H5X22068   3.029   3.025   5.262 -1.4469  0.7208 -2.7289
  191SAPI   H5Y22069   2.874   3.081   5.278  1.2177  0.4991 -2.2694
  191SAPI   C3622070   2.968   3.076   5.470  0.1256  0.2189 -0.4779
  191SAPI   H6X22071   2.899   3.151   5.513  0.3816  1.4867 -2.1705
  191SAPI   H6Y22072   3.065   3.094   5.522 -0.7743 -1.4563  1.9429
  191SAPI   C3722073   2.920   2.936   5.499  0.0125  0.8243  0.1304
  191SAPI   H7X22074   2.849   2.904   5.420  0.2425 -0.8903  0.5880
  191SAPI   H7Y22075   2.875   2.943   5.601 -0.9209  0.2546 -0.2299
  191SAPI   C3822076   3.035   2.832   5.508  0.3275 -0.7685 -0.1770
  191SAPI   H8X22077   3.086   2.839   5.607 -3.0503 -0.3062  1.6803
  191SAPI   H8Y22078   3.099   2.835   5.417 -0.6980  0.8242 -0.9080
  191SAPI   C3922079   2.968   2.700   5.499 -0.1775  0.0553  0.0851
  191SAPI   H9X22080   2.898   2.702   5.412 -0.6014 -4.5568  0.0997
  191SAPI   H9Y22081   2.902   2.683   5.587  1.6948  0.4356  1.6237
  191SAPI  C31022082   3.065   2.588   5.472 -0.0399  0.6038  0.1428
  191SAPI  H10X22083   3.123   2.573   5.566 -0.5710  0.0858  0.3914
  191SAPI  H10Y22084   3.138   2.626   5.397 -0.8101  1.5630 -0.1431
  191SAPI  C31122085   3.000   2.458   5.424  0.1315  0.4858 -0.4363
  191SAPI  H11X22086   3.078   2.399   5.373 -1.9664 -0.9488 -2.1891
  191SAPI  H11Y22087   2.932   2.483   5.339  1.0369  2.6299 -0.5932
  191SAPI  C31222088   2.925   2.380   5.534  1.0763 -0.4223  0.0496
  191SAPI  H12X22089   2.863   2.297   5.495  0.7709 -0.5694  0.8356
  191SAPI  H12Y22090   2.847   2.446   5.578  0.5530 -0.3554 -0.9499
  191SAPI  C31322091   3.029   2.319   5.626  0.0949  1.1287 -0.1967
  191SAPI  H13X22092   3.107   2.390   5.661  0.5208 -0.3946  2.1933
  191SAPI  H13Y22093   3.088   2.243   5.571  0.8709  1.0835  0.6739
  191SAPI  C31422094   2.970   2.263   5.754 -0.1789 -0.2150  0.1704
  191SAPI  H14X22095   2.920   2.165   5.741 -1.7375  0.7800 -1.9560
  191SAPI  H14Y22096   2.889   2.331   5.788 -0.9684 -1.1094  0.1180
  191SAPI  C31522097   3.074   2.231   5.865 -0.3856 -0.0101  0.1422
  191SAPI  H15X22098   3.113   2.329   5.900 -1.8057  1.5005 -2.2790
  191SAPI  H15Y22099   3.165   2.183   5.823  0.0468 -1.2441  2.2947
  191SAPI  C31622100   3.011   2.143   5.977  0.2200  0.1225  1.1910
  191SAPI  H16X22101   2.999   2.041   5.935 -0.2804  1.0135 -1.0081
  191SAPI  H16Y22102   2.909   2.187   5.986  0.7889  1.2171  2.7494
  191SAPI  C31722103   3.083   2.128   6.111 -0.5451  0.1626 -0.7237
  191SAPI  H17X22104   3.018   2.060   6.169  0.3820 -0.4598 -0.3843
  191SAPI  H17Y22105   3.096   2.223   6.167  0.8920 -1.1034  1.2188
  191SAPI  C31822106   3.217   2.054   6.112  0.8219  0.3527 -0.1524
  191SAPI  H18X22107   3.208   1.948   6.083  0.9659 -0.0042  1.0318
  191SAPI  H18Y22108   3.256   2.046   6.216  0.0790  1.0630  0.1963
  191SAPI  H18Z22109   3.292   2.101   6.045  1.4215  0.7625  0.7692
  192SAPI   C1222110   5.327   2.131   4.539  0.4954 -0.2225 -0.6697
  192SAPI    H222111   5.236   2.193   4.553  1.8557  1.3259  2.0760
  192SAPI    O222112   5.401   2.212   4.450 -0.1843  0.2029  0.1348
  192SAPI   HO222113   5.343   2.244   4.380  0.7186  2.3662  0.2974
  192SAPI   C1322114   5.394   2.126   4.673  0.2499 -0.3451 -0.1536
  192SAPI    H322115   5.321   2.073   4.737  1.2515 -0.4703  0.9089
  192SAPI    O322116   5.421   2.257   4.734  0.2769 -0.4401  0.3552
  192SAPI   HO322117   5.463   2.316   4.671  0.3573 -0.6408  0.2175
  192SAPI   C1422118   5.521   2.046   4.663  0.1510  0.0664  0.3876
  192SAPI    H422119   5.595   2.109   4.610  1.8505 -2.0795  0.0796
  192SAPI    O422120   5.576   2.021   4.793  0.2961  0.0920  0.3434
  192SAPI   HO422121   5.644   2.088   4.800  0.4394  0.2677 -1.9012
  192SAPI   C1522122   5.521   1.923   4.575 -0.0012  0.4267 -0.4060
  192SAPI    H522123   5.490   1.843   4.646 -0.6597  1.0337  0.0019
  192SAPI    O522124   5.652   1.887   4.538 -0.3339 -0.0592  0.0889
  192SAPI   HO522125   5.706   1.954   4.580 -2.7789  2.5401 -0.5936
  192SAPI   C1622126   5.414   1.916   4.465  0.1242  0.3416 -0.8823
  192SAPI    H622127   5.459   1.971   4.379 -0.6584  0.7324 -1.0441
  192SAPI    O622128   5.389   1.783   4.413 -0.3035 -0.1685 -0.6378
  192SAPI   HO622129   5.300   1.756   4.434 -0.1440  1.4701  2.8732
  192SAPI   C1122130   5.291   1.993   4.491  0.8636 -0.4383 -0.1058
  192SAPI    H122131   5.238   1.952   4.579  1.8189 -0.4209  0.4881
  192SAPI     P22132   5.070   1.902   4.353  0.4259  0.4142  0.2227
  192SAPI   O1322133   5.121   1.769   4.401  0.4758 -0.5196  0.1000
  192SAPI   O1422134   5.023   1.928   4.214  0.2744  0.5736 -0.1039
  192SAPI   O1222135   5.201   2.002   4.379  0.5188 -0.0809  0.0201
  192SAPI   O1122136   4.961   1.952   4.460 -0.4823  0.1464  0.1044
  192SAPI    C122137   4.912   2.087   4.446  0.1409  0.5196 -0.2942
  192SAPI    HA22138   5.001   2.153   4.455  0.1242  0.6090 -0.7324
  192SAPI    HB22139   4.862   2.100   4.347 -0.0010 -1.1795 -0.4776
  192SAPI    C222140   4.812   2.103   4.559  0.5775  0.4567  0.4348
  192SAPI    HS22141   4.807   2.212   4.581  0.6443  0.4721  0.3736
  192SAPI   O2122142   4.854   2.042   4.682  0.0841 -0.6823  0.1363
  192SAPI   C2122143   4.933   2.114   4.764  0.3662  0.0008 -0.4083
  192SAPI   O2222144   4.949   2.235   4.767  0.3648  0.0914 -0.6101
  192SAPI   C2222145   4.959   2.018   4.877  0.5118 -1.1275 -0.2928
  192SAPI   H2R22146   4.883   1.937   4.876  1.0652 -1.6430 -1.7246
  192SAPI   H2S22147   5.056   1.964   4.875  1.2074  0.1047 -0.9369
  192SAPI    C322148   4.672   2.046   4.513  0.3174 -0.4194  0.1899
  192SAPI    HX22149   4.681   1.941   4.479 -1.4665  0.1105 -2.1575
  192SAPI    HY22150   4.641   2.100   4.421  1.1321  0.5385  0.4635
  192SAPI   O3122151   4.581   2.045   4.626 -0.1413  0.4120 -0.0499
  192SAPI   C3122152   4.527   2.161   4.645  0.3912 -0.8925 -0.1823
  192SAPI   O3222153   4.548   2.263   4.581 -0.1137 -0.3609  0.4776
  192SAPI   C3222154   4.425   2.146   4.763 -0.0474  0.2492 -0.3581
  192SAPI   H2X22155   4.437   2.049   4.816  1.5478  1.5433  1.8112
  192SAPI   H2Y22156   4.328   2.140   4.708 -0.4317 -1.7939  0.4694
  192SAPI   C2322157   4.951   2.093   5.016  0.8095 -0.3677 -0.1119
  192SAPI   H3R22158   4.930   2.025   5.101 -2.5909 -0.0238 -0.5471
  192SAPI   H3S22159   4.853   2.144   5.021  0.6717 -0.7075  1.1378
  192SAPI   C2422160   5.075   2.175   5.044  0.3212 -0.2024  0.1385
  192SAPI   H4R22161   5.057   2.239   5.133 -1.5740  2.2651 -1.8563
  192SAPI   H4S22162   5.087   2.238   4.953 -0.6943  1.7075  1.2400
  192SAPI   C2522163   5.197   2.085   5.064 -0.5660 -0.4705 -0.1632
  192SAPI   H5R22164   5.275   2.069   4.988  0.6108 -0.8345  1.0572
  192SAPI   C2622165   5.231   2.021   5.179 -0.3055  0.7265  0.1609
  192SAPI   H6R22166   5.335   1.988   5.183  0.3284  2.6702  2.7151
  192SAPI   C2722167   5.147   2.024   5.303 -0.3907 -0.1576  0.2185
  192SAPI   H7R22168   5.088   1.929   5.308 -0.0129 -0.4779 -1.0476
  192SAPI   H7S22169   5.075   2.108   5.300  1.6029  1.6386  0.9702
  192SAPI   C2822170   5.233   2.055   5.421 -0.0546 -0.1964 -0.0590
  192SAPI   H8R22171   5.270   2.158   5.428  1.1738 -0.6908  0.9745
  192SAPI   C2922172   5.279   1.972   5.512  0.2158  0.0331 -0.2732
  192SAPI   H9R22173   5.347   2.007   5.592  0.2795  1.7480 -1.0268
  192SAPI  C21022174   5.241   1.824   5.529 -0.6206  0.2676  0.1367
  192SAPI  H10R22175   5.207   1.782   5.432  0.1367 -0.4912  0.1898
  192SAPI  H10S22176   5.146   1.822   5.586 -1.1958  0.2353 -0.8020
  192SAPI  C21122177   5.352   1.736   5.595  0.1865 -0.0163  0.2645
  192SAPI  H11R22178   5.415   1.679   5.525  0.2795 -0.5068  0.7448
  192SAPI  C21222179   5.378   1.739   5.728  0.0167 -0.0101  1.0122
  192SAPI  H12R22180   5.468   1.680   5.752  0.0012 -0.8964 -0.9614
  192SAPI  C21322181   5.307   1.808   5.843 -0.4187 -0.4070 -0.6908
  192SAPI  H13R22182   5.307   1.739   5.930 -1.0853  0.0871 -0.2881
  192SAPI  H13S22183   5.209   1.852   5.815  0.6183  1.0634 -2.2169
  192SAPI  C21422184   5.389   1.935   5.877  0.0549 -0.2055 -0.3307
  192SAPI  H14R22185   5.460   1.967   5.800  1.0098  0.5342  0.8175
  192SAPI  C21522186   5.380   1.997   5.997  0.5034 -0.1721  0.3214
  192SAPI  H15R22187   5.452   2.078   6.014  2.4463 -1.8114  0.2242
  192SAPI  C21622188   5.294   1.958   6.119  0.8524  0.0058 -0.3198
  192SAPI  H16R22189   5.196   1.919   6.085  1.1839 -0.5156 -0.7065
  192SAPI  H16S22190   5.269   2.059   6.158  0.8886  0.3395 -1.1503
  192SAPI  C21722191   5.354   1.861   6.218  0.5241  0.3120  0.1006
  192SAPI  H17R22192   5.458   1.886   6.250  1.4798 -2.9355 -0.0329
  192SAPI  H17S22193   5.346   1.757   6.177  2.4028 -0.1281  0.7155
  192SAPI  C21822194   5.275   1.865   6.351  0.3241  0.2943 -0.7409
  192SAPI  H18R22195   5.290   1.772   6.411  0.8910  0.8041 -0.0847
  192SAPI  H18S22196   5.165   1.870   6.334  0.6185 -0.4544 -3.3473
  192SAPI  C21922197   5.314   1.985   6.447 -0.3446  0.3843  0.7164
  192SAPI  H19R22198   5.303   2.083   6.395 -1.9521 -0.2935 -0.2717
  192SAPI  H19S22199   5.422   1.972   6.467  0.0106  2.1648  0.1954
  192SAPI  C22022200   5.245   1.985   6.581  0.3980  0.2965 -0.4972
  192SAPI  H20R22201   5.270   2.087   6.616  0.2001 -0.0006  0.5602
  192SAPI  H20S22202   5.306   1.914   6.640 -0.0646 -0.6507 -1.1226
  192SAPI  H20T22203   5.138   1.956   6.586  1.0309 -2.0553  0.7874
  192SAPI   C3322204   4.423   2.266   4.857 -0.9889  0.0752 -0.1432
  192SAPI   H3X22205   4.408   2.361   4.802  0.7981  0.0925 -0.6869
  192SAPI   H3Y22206   4.525   2.260   4.901 -0.8564 -1.4219 -0.5984
  192SAPI   C3422207   4.332   2.254   4.984  0.3520  0.1473  0.6993
  192SAPI   H4X22208   4.329   2.152   5.027 -0.8338  0.1200  0.5979
  192SAPI   H4Y22209   4.228   2.288   4.962  0.1821 -0.2561  0.8736
  192SAPI   C3522210   4.379   2.341   5.096 -0.2139 -0.1954 -0.1611
  192SAPI   H5X22211   4.380   2.447   5.061  1.7965 -0.1205  0.0207
  192SAPI   H5Y22212   4.484   2.309   5.111  0.1497  0.3053 -1.4716
  192SAPI   C3622213   4.305   2.318   5.227 -0.7610  0.3824  0.3583
  192SAPI   H6X22214   4.303   2.208   5.242  0.0940  0.1919 -0.7593
  192SAPI   H6Y22215   4.200   2.355   5.229 -0.7275  0.5087 -0.0907
  192SAPI   C3722216   4.383   2.378   5.341 -0.3735  0.4967  0.0758
  192SAPI   H7X22217   4.396   2.487   5.322 -1.5838  0.0988 -3.9420
  192SAPI   H7Y22218   4.485   2.336   5.351 -0.1151  1.0480 -0.1609
  192SAPI   C3822219   4.318   2.380   5.475  0.3994 -0.0439 -0.3633
  192SAPI   H8X22220   4.281   2.276   5.476  2.5489 -0.9142  1.8943
  192SAPI   H8Y22221   4.236   2.455   5.467  0.9905  0.4473 -2.4466
  192SAPI   C3922222   4.408   2.409   5.592 -0.1110 -0.1105  0.6965
  192SAPI   H9X22223   4.475   2.489   5.553 -0.1251 -0.2994  0.2771
  192SAPI   H9Y22224   4.477   2.325   5.615 -0.1137 -0.1389  0.6037
  192SAPI  C31022225   4.333   2.459   5.711  0.1025  0.7018 -0.3866
  192SAPI  H10X22226   4.285   2.376   5.768  1.1685  0.4251  0.1364
  192SAPI  H10Y22227   4.248   2.524   5.682 -1.9781 -1.6454  0.1064
  192SAPI  C31122228   4.420   2.542   5.817  0.2949 -0.1629 -0.2094
  192SAPI  H11X22229   4.350   2.600   5.881  0.1230  0.0565 -0.5918
  192SAPI  H11Y22230   4.486   2.615   5.767 -1.6028  2.2673  0.6630
  192SAPI  C31222231   4.509   2.454   5.906 -0.3319  0.0905  0.2591
  192SAPI  H12X22232   4.576   2.396   5.839 -1.7629 -0.3090 -0.8875
  192SAPI  H12Y22233   4.444   2.378   5.954  0.4555 -1.3958 -0.9387
  192SAPI  C31322234   4.583   2.524   6.015  0.5510 -0.1604 -0.4181
  192SAPI  H13X22235   4.511   2.564   6.090  1.2136  1.2469 -0.5004
  192SAPI  H13Y22236   4.640   2.613   5.982  2.1248 -0.8717  0.2920
  192SAPI  C31422237   4.690   2.434   6.075 -0.0056 -0.2627  1.1349
  192SAPI  H14X22238   4.782   2.440   6.014 -1.7776  0.4461 -1.6821
  192SAPI  H14Y22239   4.666   2.326   6.069  1.1521 -0.4538 -0.5408
  192SAPI  C31522240   4.721   2.467   6.221  0.4958 -0.8695 -0.5139
  192SAPI  H15X22241   4.624   2.478   6.275  0.3440 -1.4041 -0.6676
  192SAPI  H15Y22242   4.765   2.569   6.224 -2.2728  0.3984  1.5203
  192SAPI  C31622243   4.809   2.362   6.294 -0.3727 -0.0030 -0.3940
  192SAPI  H16X22244   4.740   2.276   6.305 -0.6178  0.1339 -0.8054
  192SAPI  H16Y22245   4.832   2.404   6.394 -2.2772  0.1768  0.0061
  192SAPI  C31722246   4.937   2.321   6.223 -0.6593 -0.2403  0.4432
  192SAPI  H17X22247   4.972   2.396   6.149  1.4357 -0.1643  1.4395
  192SAPI  H17Y22248   4.903   2.238   6.157 -0.8088  0.6171 -0.5878
  192SAPI  C31822249   5.049   2.245   6.304 -0.1641  0.0649  0.3253
  192SAPI  H18X22250   5.141   2.223   6.247 -0.0174 -0.6543  0.8196
  192SAPI  H18Y22251   5.025   2.138   6.320  1.6864 -0.7730 -1.9795
  192SAPI  H18Z22252   5.078   2.294   6.400  0.2558  0.5872 -0.0622
  193SOD    SOD22253   0.244   2.398   4.193  0.0791  0.3361  0.0406
  194SOD    SOD22254   2.459   0.088   1.620  0.0783  0.6121 -0.0510
  195SOD    SOD22255   5.648   5.689   3.818  0.4460  0.2635  0.0701
  196SOD    SOD22256   0.169   4.544   2.766 -0.4337  0.3828 -0.3477
  197SOD    SOD22257   2.780   4.253   3.609 -0.1476 -0.0551  0.2865
  198SOD    SOD22258   1.274   3.213   0.791 -0.2823  0.4596  0.5765
  199SOD    SOD22259   5.585   6.615   1.464 -0.4159  0.1488 -0.0103
  200SOD    SOD22260   4.510   4.487   0.425  0.0871 -0.3505  0.3763
  201SOD    SOD22261   0.336   4.647   0.715 -0.2759 -0.3010  0.0433
  202SOD    SOD22262   5.828   2.690   1.065  0.0762 -0.4457  0.4390
  203SOD    SOD22263   4.882   6.560   4.179 -0.3976 -0.5375  0.1843
  204SOD    SOD22264   3.821   4.107   1.598 -0.7504 -0.1973 -0.1857
  205SOD    SOD22265   2.988   1.076   3.887  0.1975 -0.6247 -0.2441
  206SOD    SOD22266   2.250   4.735   0.644  0.0141 -0.0470  0.0616
  207SOD    SOD22267   0.405   0.249   1.389  0.2290 -0.4827 -0.1099
  208SOD    SOD22268   5.108   1.487   1.614  0.2579 -0.4720  0.0368
  209SOD    SOD22269   2.654   3.009   4.468 -0.3506  0.1578  0.5664
  210SOD    SOD22270   4.625   2.775   8.684 -0.2633  0.1923 -0.3837
  211SOD    SOD22271   2.141   0.519   3.206  0.1972  0.1885  0.2647
  212SOD    SOD22272   3.772   5.267   2.953  0.1874  0.0005 -0.4272
  213SOD    SOD22273   5.049   3.359   4.082 -0.0145 -0.4163  0.4561
  214SOD    SOD22274   5.864   0.054   0.419  0.4970 -0.0683 -0.4052
  215SOD    SOD22275   5.727   1.817   0.110  0.5509 -0.3850 -0.1002
  216SOD    SOD22276   2.545   1.938   3.961  0.0126  0.6650 -0.3828
  217SOD    SOD22277   5.791   4.015   3.306  0.4226 -0.1086 -0.1237
  218SOD    SOD22278   2.669   6.264   1.369 -0.1695 -0.4516 -0.3581
  219SOD    SOD22279   1.632   0.687   3.914 -0.0712  0.0888  0.0329
  220SOD    SOD22280   2.483   0.449   8.800 -0.2564  0.3811 -0.5118
  221SOD    SOD22281   5.900   2.081   3.934 -0.0906 -0.1980 -0.0232
  222SOD    SOD22282   2.097   5.938   3.926 -0.1849  0.1280  0.1889
  223SOD    SOD22283   1.505   2.100   3.629  0.4007 -0.0408  0.5786
  224SOD    SOD22284   2.054   2.090   8.811 -0.3931  0.3402  0.1317
  225SOD    SOD22285   2.066   5.469   2.795 -0.3219  0.0702 -0.4202
  226SOD    SOD22286   4.433   1.088   1.162  0.1083 -0.1449  0.0643
  227SOD    SOD22287   3.951   3.132   2.865  0.1633 -0.2611 -0.2573
  228SOD    SOD22288   2.386   6.426   0.279 -0.2428  0.1552 -0.6972
  229SOD    SOD22289   5.808   1.609   2.184  0.4879  0.7987 -0.6374
  230SOD    SOD22290   1.723   5.036   4.506  0.1416  0.1608 -0.3982
  231SOD    SOD22291   6.305   3.692   4.371 -0.1342 -0.0498  0.7529
  232SOD    SOD22292   4.324   3.753   1.485  0.0368  0.3134  0.0539
  233SOD    SOD22293   0.955   2.669   3.515 -0.0771 -0.4241  0.0288
  234CLA    CLA22294   2.827   1.496   3.875 -0.1140 -0.1070 -0.1951
  235CLA    CLA22295   5.492   1.862   3.865 -0.4005  0.3188  0.1690
  236CLA    CLA22296   1.013   5.104   1.744  0.1761 -0.4724 -0.0791
  237CLA    CLA22297   1.842   4.929   2.150 -0.0743  0.0590  0.1486
  238CLA    CLA22298   4.359   6.101   3.527 -0.0891  0.4596  0.0878
  239CLA    CLA22299   4.991   1.057   4.298  0.4533 -0.4945  0.1090
  240CLA    CLA22300   6.301   6.477   1.253 -0.3072  0.1745  0.3418
  241CLA    CLA22301   0.533   2.746   4.174 -0.2845 -0.1705 -0.1398
  242CLA    CLA22302   5.299   1.137   2.957  0.2493  0.2466  0.5417
  243CLA    CLA22303   1.695   5.025   3.427  0.2682  0.2908  0.1092
  244CLA    CLA22304   0.193   5.627   1.038 -0.6726  0.1560 -0.0008
  245CLA    CLA22305   3.508   5.558   3.260 -0.0074 -0.2031  0.2761
  246CLA    CLA22306   0.191   2.259   2.532 -0.0993  0.0593 -0.0654
  247CLA    CLA22307   5.184   3.773   3.433  0.0065  0.0145 -0.1761
  248CLA    CLA22308   4.377   2.450   1.481 -0.1284  0.1565 -0.0100
  249CLA    CLA22309   1.492   2.176   0.302  0.1858  0.1979 -0.1068
  250CLA    CLA22310   6.455   5.559   3.420  0.4133  0.1257  0.0292
  251TIP3   OH222311   1.164   6.685   3.133  0.5781  0.6172 -0.8453
  251TIP3    H122312   1.171   6.770   3.089  0.8086  0.1551 -1.7303
  251TIP3    H222313   1.102   6.635   3.080 -0.3826  0.5818  0.2646
  252TIP3   OH222314   3.907   3.987   1.797  0.3382 -0.2362  0.2254
  252TIP3    H122315   3.813   3.994   1.818  0.4424 -1.2068  1.1154
  252TIP3    H222316   3.931   3.899   1.827  1.7458  0.3328  0.8259
  253TIP3   OH222317   5.218   0.138   1.695  0.2650 -0.7246 -0.1423
  253TIP3    H122318   5.190   0.083   1.621 -0.5563  0.5059 -0.7960
  253TIP3    H222319   5.215   0.227   1.660 -0.7531 -0.0470  1.5484
  254TIP3   OH222320   4.367   1.329   0.601  0.0800  0.0659 -0.4036
  254TIP3    H122321   4.335   1.377   0.678 -0.8390  1.6551 -1.7119
  254TIP3    H222322   4.300   1.263   0.585  0.2811 -0.2817  0.1631
  255TIP3   OH222323   1.800   5.381   0.249 -1.0563  0.2540 -0.3816
  255TIP3    H122324   1.709   5.359   0.270 -0.8222 -0.8024 -0.4577
  255TIP3    H222325   1.833   5.424   0.328 -1.4309  0.0774 -0.1257
  256TIP3   OH222326   4.739   0.936   4.121 -0.1198 -0.5417  0.0781
  256TIP3    H122327   4.657   0.963   4.162 -0.0985 -1.2420  0.6009
  256TIP3    H222328   4.808   0.967   4.180  0.0066  0.1426 -0.4147
  257TIP3   OH222329   5.279   2.037   1.909  0.2756 -0.3015 -0.2554
  257TIP3    H122330   5.221   2.011   1.982  0.0563 -1.2018 -0.7344
  257TIP3    H222331   5.365   2.046   1.950  0.3006 -1.5165  0.0091
  258TIP3   OH222332   2.042   2.575   1.359 -0.8212  0.2854 -0.6853
  258TIP3    H122333   1.982   2.561   1.286 -1.6051 -1.2142  0.1931
  258TIP3    H222334   1.986   2.579   1.436 -0.2525  4.1420 -0.2729
  259TIP3   OH222335   2.365   0.593   3.227 -0.4097 -0.0431  0.8147
  259TIP3    H122336   2.432   0.582   3.159 -1.5462 -2.1121 -0.0451
  259TIP3    H222337   2.411   0.572   3.308  0.1104 -1.1129  0.2740
  260TIP3   OH222338   4.106   1.257   2.201  0.5516 -0.4468  0.4677
  260TIP3    H122339   4.134   1.169   2.226 -0.3260 -1.1727 -0.9356
  260TIP3    H222340   4.151   1.315   2.262  0.3246 -1.9218  2.1311
  261TIP3   OH222341   3.893   3.315   8.651  0.2378  0.0821  0.3408
  261TIP3    H122342   3.865   3.407   8.652 -1.2187 -0.3214 -0.4316
  261TIP3    H222343   3.855   3.279   8.571  2.0658 -0.8465 -0.1672
  262TIP3   OH222344   4.318   3.936   4.146  0.2122  0.5582 -0.1727
  262TIP3    H122345   4.323   3.975   4.233 -0.0005 -0.2364  0.2017
  262TIP3    H222346   4.233   3.891   4.145  0.7089 -0.3928 -0.3834
  263TIP3   OH222347   4.172   0.193   2.020  0.5059  0.1253 -0.0435
  263TIP3    H122348   4.202   0.115   2.068  0.6667  0.3571  0.2379
  263TIP3    H222349   4.077   0.191   2.028  0.5792  1.6865  2.8027
  264TIP3   OH222350   2.809   6.360   2.797 -0.1871  0.3364 -0.0471
  264TIP3    H122351   2.855   6.325   2.721 -0.1710 -0.0296  0.1257
  264TIP3    H222352   2.742   6.295   2.816  0.7386 -0.3212  1.1292
  265TIP3   OH222353   2.791   2.380   1.361  0.7189  0.2199 -0.0104
  265TIP3    H122354   2.728   2.321   1.319  2.1690 -0.0272 -1.9566
  265TIP3    H222355   2.774   2.465   1.322  2.5710 -0.1580 -1.7491
  266TIP3   OH222356   0.596   2.343   3.690 -0.3932 -0.2580  0.3121
  266TIP3    H122357   0.677   2.351   3.640 -1.5611 -0.2919 -1.6865
  266TIP3    H222358   0.595   2.420   3.747  0.1705  0.7268 -0.9703
  267TIP3   OH222359   3.261   5.345   1.914 -0.0200  0.2775 -0.1016
  267TIP3    H122360   3.350   5.310   1.903 -0.5162 -1.0146 -0.0720
  267TIP3    H222361   3.275   5.436   1.942  1.2869  0.5714 -1.5554
  268TIP3   OH222362   4.780   0.502   4.321 -0.5478  0.6467  0.0044
  268TIP3    H122363   4.795   0.518   4.228 -0.2514  0.0378 -0.0622
  268TIP3    H222364   4.685   0.494   4.329 -0.5797  0.8001 -0.2322
  269TIP3   OH222365   3.888   6.121   0.832  0.4039  0.7783  0.1865
  269TIP3    H122366   3.812   6.109   0.889 -0.8134  0.6964 -1.3932
  269TIP3    H222367   3.887   6.215   0.812  0.0963  0.5992 -0.6566
  270TIP3   OH222368   4.269   0.406   1.063 -1.0685 -0.2115  0.1862
  270TIP3    H122369   4.218   0.331   1.033 -1.4833  0.0257  0.3002
  270TIP3    H222370   4.290   0.455   0.983  2.7705 -2.5845 -0.5504
  271TIP3   OH222371   1.764   1.216   4.552  0.3303 -0.5402  0.1709
  271TIP3    H122372   1.854   1.229   4.521 -0.1559 -0.5600 -1.3551
  271TIP3    H222373   1.721   1.300   4.538  0.0322 -0.6183  0.6025
  272TIP3   OH222374   6.400   1.601   2.264 -0.2303 -0.4024  0.2758
  272TIP3    H122375   6.399   1.653   2.184  0.2978 -0.0927  0.4629
  272TIP3    H222376   6.477   1.544   2.255 -0.4560 -0.7217  0.3427
  273TIP3   OH222377   2.275   5.680   2.955  0.4050  0.5620 -0.3296
  273TIP3    H122378   2.234   5.761   2.926 -0.3236  0.3303  0.0527
  273TIP3    H222379   2.352   5.708   3.004  0.8715  0.9891 -1.2789
  274TIP3   OH222380   0.373   2.730   2.954  0.4794 -0.3962  0.1767
  274TIP3    H122381   0.366   2.722   2.859 -1.0793  0.1928  0.2092
  274TIP3    H222382   0.394   2.822   2.969  0.9803 -0.5436  0.3956
  275TIP3   OH222383   6.161   5.753   3.671 -0.2094  0.4632  0.2659
  275TIP3    H122384   6.225   5.728   3.737 -1.7636  0.3962  1.8011
  275TIP3    H222385   6.148   5.674   3.619  1.7487  0.7893 -0.8182
  276TIP3   OH222386   5.590   0.530   3.721 -0.2237 -0.0643 -0.1090
  276TIP3    H122387   5.623   0.616   3.695 -0.4991 -0.6188 -2.5856
  276TIP3    H222388   5.636   0.469   3.664  0.7678 -1.7422  2.3284
  277TIP3   OH222389   1.580   1.224   3.171 -0.2498 -0.2923 -0.1946
  277TIP3    H122390   1.620   1.300   3.213 -1.0148 -0.0183  0.0479
  277TIP3    H222391   1.497   1.256   3.137 -1.3034 -1.3688  1.2415
  278TIP3   OH222392   0.329   4.765   4.009 -0.2683 -0.0210  0.4215
  278TIP3    H122393   0.315   4.850   4.052  0.4231  1.0914 -1.4536
  278TIP3    H222394   0.242   4.740   3.977  0.1687  2.4971 -3.3412
  279TIP3   OH222395   2.959   3.376   1.405 -0.2702  0.5797 -0.1395
  279TIP3    H122396   2.951   3.442   1.474 -0.9029 -0.2299  0.5867
  279TIP3    H222397   3.034   3.324   1.430  0.5885  1.3439 -1.0213
  280TIP3   OH222398   6.774   5.587   1.272 -0.0896 -0.4819 -0.1834
  280TIP3    H122399   6.688   5.613   1.237 -0.0068  1.4321  0.8640
  280TIP3    H222400   6.836   5.610   1.203 -0.4755 -3.1817 -1.5286
  281TIP3   OH222401   5.682   2.802   3.856 -0.0625 -0.2375 -0.0147
  281TIP3    H122402   5.712   2.888   3.884  0.6534 -0.1605 -0.9743
  281TIP3    H222403   5.743   2.741   3.898 -0.1929 -0.2455  0.1656
  282TIP3   OH222404   2.915   6.174   4.052  0.1371 -0.1280 -0.1943
  282TIP3    H122405   3.003   6.165   4.090 -0.3290  3.0034  2.0908
  282TIP3    H222406   2.856   6.160   4.126 -1.3466 -1.9175 -1.6300
  283TIP3   OH222407   5.779   6.152   4.816  0.2763 -0.5276 -0.5712
  283TIP3    H122408   5.850   6.215   4.830  0.3231 -1.1472  3.0771
  283TIP3    H222409   5.700   6.201   4.838 -0.1086 -0.7606 -1.3975
  284TIP3   OH222410   2.580   4.102   1.270 -0.5480  0.1239  0.0183
  284TIP3    H122411   2.568   4.115   1.176  0.0361  0.6585  0.0099
  284TIP3    H222412   2.631   4.021   1.277 -0.3295  0.2462 -0.1424
  285TIP3   OH222413   5.198   5.231   1.218 -0.1692  0.7452  0.3201
  285TIP3    H122414   5.232   5.144   1.242 -1.3146  0.7629  2.2418
  285TIP3    H222415   5.255   5.260   1.146  1.0274 -1.0628  0.4665
  286TIP3   OH222416   6.482   2.822   2.910  0.0625  0.1621  0.0694
  286TIP3    H122417   6.485   2.846   3.002 -2.5116 -0.8943  0.5250
  286TIP3    H222418   6.425   2.889   2.870  2.0332  1.2648 -1.0502
  287TIP3   OH222419   4.691   3.127   3.195 -0.0537 -0.4969  0.3655
  287TIP3    H122420   4.765   3.069   3.177 -0.8268 -0.9758 -1.5294
  287TIP3    H222421   4.678   3.121   3.290  1.2895 -1.6624  0.5061
  288TIP3   OH222422   4.315   1.285   3.440 -0.3853  0.0119 -0.0549
  288TIP3    H122423   4.270   1.336   3.508 -0.3327  0.5440 -0.4188
  288TIP3    H222424   4.294   1.330   3.358  0.4283 -0.0104 -0.2791
  289TIP3   OH222425   5.298   2.279   2.174  0.1133  0.0354  0.5586
  289TIP3    H122426   5.312   2.231   2.255 -0.2884 -0.1133  0.5422
  289TIP3    H222427   5.268   2.366   2.202 -1.0112 -0.3385  0.5597
  290TIP3   OH222428   1.869   2.135   2.649 -0.6934 -0.2857  0.0877
  290TIP3    H122429   1.802   2.101   2.708  0.0761 -2.1555 -0.0356
  290TIP3    H222430   1.951   2.100   2.684  0.1924  1.5510 -0.0476
  291TIP3   OH222431   0.933   4.476   4.006  0.3950 -0.5409 -0.1705
  291TIP3    H122432   0.858   4.502   3.951  0.7840 -2.3973 -1.6794
  291TIP3    H222433   0.911   4.388   4.035 -0.2716  0.7008  3.6786
  292TIP3   OH222434   6.695   0.038   3.458 -0.1880  0.5436 -0.3881
  292TIP3    H122435   6.626  -0.011   3.504 -0.5178 -1.0968 -2.4505
  292TIP3    H222436   6.776   0.010   3.501 -0.4873 -0.8624 -0.6724
  293TIP3   OH222437   1.329   0.929   3.026  0.1823 -0.7228  0.4598
  293TIP3    H122438   1.355   0.889   2.943 -0.0069 -0.6547  0.3665
  293TIP3    H222439   1.235   0.945   3.016  0.4584  0.7514  0.0841
  294TIP3   OH222440   2.533   6.394   1.824  0.4924  0.1934 -0.3467
  294TIP3    H122441   2.591   6.429   1.891  0.5575  0.5888 -0.6056
  294TIP3    H222442   2.448   6.435   1.841 -0.3196 -1.9399  1.3289
  295TIP3   OH222443   0.278   4.764   0.514  0.3411  0.1714  0.1277
  295TIP3    H122444   0.239   4.741   0.430  2.1885 -0.6414 -0.5514
  295TIP3    H222445   0.282   4.860   0.512  0.4557  0.1570 -0.7454
  296TIP3   OH222446   2.496   1.775   3.508  0.0750  0.0834  0.1314
  296TIP3    H122447   2.576   1.736   3.473  0.1925 -0.9006  1.4152
  296TIP3    H222448   2.425   1.720   3.476 -0.1009  0.8610 -0.8722
  297TIP3   OH222449   1.546   1.972   1.576 -0.1151  0.6683 -0.1918
  297TIP3    H122450   1.636   1.945   1.557 -0.2316 -0.2458  0.4771
  297TIP3    H222451   1.547   1.998   1.668 -0.3192  1.6370 -0.4575
  298TIP3   OH222452   0.119   5.487   2.192 -0.4007 -0.0984  0.1592
  298TIP3    H122453   0.160   5.458   2.110  0.0343  0.5518  0.1327
  298TIP3    H222454   0.044   5.540   2.164 -0.9450 -0.8308  0.2020
  299TIP3   OH222455   5.850   5.636   3.720  0.3838  0.2680 -0.0927
  299TIP3    H122456   5.896   5.600   3.644  0.8638  2.7980 -1.0804
  299TIP3    H222457   5.920   5.658   3.781  0.1096 -0.2006  0.4033
  300TIP3   OH222458   5.928   4.802   2.217  0.6197  0.4994 -0.2834
  300TIP3    H122459   5.973   4.717   2.212  1.6499  0.9663  0.6215
  300TIP3    H222460   5.844   4.787   2.173 -1.4924 -2.4185  4.0090
  301TIP3   OH222461   5.969   1.844   0.140  0.2402 -0.0877 -0.1388
  301TIP3    H122462   6.037   1.782   0.113  2.2124  2.3242 -1.0609
  301TIP3    H222463   6.013   1.929   0.144 -2.2670  1.2842  1.3113
  302TIP3   OH222464   5.939   0.524   4.610  0.2059 -0.1471 -0.6332
  302TIP3    H122465   5.896   0.521   4.696  0.8299 -1.2411 -0.3393
  302TIP3    H222466   5.869   0.544   4.549 -0.1317  1.4217  0.1945
  303TIP3   OH222467   4.541   5.835   3.175  0.0206  0.2573 -0.0644
  303TIP3    H122468   4.636   5.842   3.166 -0.0160  0.9718  0.0265
  303TIP3    H222469   4.527   5.768   3.241  0.5432  2.2665  2.1970
  304TIP3   OH222470   3.546   1.801   1.884  0.0165 -0.5296  0.1577
  304TIP3    H122471   3.464   1.798   1.835 -0.3288  1.2821  0.5606
  304TIP3    H222472   3.611   1.760   1.826 -0.6502  0.3553 -1.2411
  305TIP3   OH222473   1.058   0.233   1.339 -0.3470 -0.2224 -0.2272
  305TIP3    H122474   1.131   0.183   1.304 -0.9818 -0.8945 -0.6139
  305TIP3    H222475   1.018   0.176   1.404 -0.2436  0.3334  0.3397
  306TIP3   OH222476   6.791   0.205   3.212  0.1365  0.5514 -0.7376
  306TIP3    H122477   6.791   0.174   3.303 -0.0230  1.4560 -0.4205
  306TIP3    H222478   6.731   0.280   3.212 -0.5698  0.0149 -1.7833
  307TIP3   OH222479   0.032   2.998   8.849  0.0573 -0.2858 -0.3001
  307TIP3    H122480   0.099   2.991   8.781 -0.4240 -0.1463 -0.7948
  307TIP3    H222481  -0.010   3.083   8.835  2.0774  1.2665  2.1789
  308TIP3   OH222482   2.962   2.432   0.428  0.3189 -0.0387 -0.2293
  308TIP3    H122483   3.000   2.504   0.377  0.8781  0.1133  0.3834
  308TIP3    H222484   2.875   2.420   0.390 -0.2487  1.7511  0.3780
  309TIP3   OH222485   0.328   1.544   2.147 -0.2690 -0.1057  0.2464
  309TIP3    H122486   0.389   1.523   2.218 -2.0302 -1.9955  1.2969
  309TIP3    H222487   0.366   1.504   2.070  0.3493 -0.3284  0.6565
  310TIP3   OH222488   2.493   5.512   2.840  0.0385  0.3045  0.1429
  310TIP3    H122489   2.574   5.562   2.827 -0.0995  0.5916  0.3621
  310TIP3    H222490   2.437   5.571   2.890 -0.2303  0.0287  0.1688
  311TIP3   OH222491   1.594   2.457   0.842  0.0133 -0.5226 -0.0171
  311TIP3    H122492   1.503   2.481   0.825  0.3109  2.0055  1.5102
  311TIP3    H222493   1.645   2.532   0.812  1.3364 -0.6884  1.6523
  312TIP3   OH222494   6.231   4.508   1.580  0.4273  0.2752  0.6241
  312TIP3    H122495   6.161   4.559   1.539 -0.7622 -1.6559  0.1328
  312TIP3    H222496   6.292   4.574   1.613  0.9797  2.0359 -3.3094
  313TIP3   OH222497   4.090   5.469   1.326  0.1974 -0.1884  0.0705
  313TIP3    H122498   4.073   5.385   1.367 -2.2875 -0.9306 -2.2099
  313TIP3    H222499   4.144   5.448   1.250  0.6194  0.4807  0.1733
  314TIP3   OH222500   1.125   3.228   0.603 -0.1762 -0.6632 -0.4684
  314TIP3    H122501   1.110   3.173   0.526  0.9977 -0.9070 -0.5297
  314TIP3    H222502   1.068   3.304   0.589  0.7126 -0.2452 -2.0491
  315TIP3   OH222503   0.359   4.436   0.342  0.0206  0.3846  0.1954
  315TIP3    H122504   0.406   4.518   0.333  1.7927 -0.5003  0.8492
  315TIP3    H222505   0.353   4.401   0.253  0.3265  0.6648  0.0653
  316TIP3   OH222506   5.210   5.960   1.948 -0.2477 -0.9456  0.3754
  316TIP3    H122507   5.232   6.008   2.028 -1.6162  1.6114 -0.6696
  316TIP3    H222508   5.116   5.973   1.937  0.1882  0.5311 -2.6583
  317TIP3   OH222509   0.575   3.910   3.066  0.0807 -0.0255  0.7688
  317TIP3    H122510   0.515   3.921   2.993  0.5228  0.8896  0.5291
  317TIP3    H222511   0.548   3.976   3.130  0.7433  0.2965  0.7186
  318TIP3   OH222512   0.287   1.737   3.935 -0.2869 -0.0727  0.0369
  318TIP3    H122513   0.338   1.691   4.002 -0.2179  0.8522  0.6349
  318TIP3    H222514   0.196   1.716   3.956 -0.4032  1.8322  1.7021
  319TIP3   OH222515   0.164   5.870   4.251 -0.8528 -0.5035  0.1675
  319TIP3    H122516   0.179   5.789   4.300 -1.8999 -0.9302 -0.1960
  319TIP3    H222517   0.224   5.865   4.177 -2.2282 -1.8695 -0.9133
  320TIP3   OH222518   3.379   0.256   3.134 -0.1330 -0.7393 -0.2582
  320TIP3    H122519   3.447   0.243   3.068  0.7768  1.8363  0.0659
  320TIP3    H222520   3.346   0.344   3.118 -1.8092 -1.0750  1.0477
  321TIP3   OH222521   5.493   1.669   1.534  0.2448  0.3492  0.5909
  321TIP3    H122522   5.442   1.731   1.482  0.2277 -0.3318 -0.2359
  321TIP3    H222523   5.581   1.672   1.495  0.2223 -0.1962  0.4897
  322TIP3   OH222524   4.618   4.031   1.028  0.3298  0.3970  0.7361
  322TIP3    H122525   4.539   4.050   0.976  0.8993  0.7187 -0.0300
  322TIP3    H222526   4.615   4.095   1.099  0.3613  1.0212  0.1932
  323TIP3   OH222527   1.243   0.703   2.014  0.6783 -0.4238 -0.4149
  323TIP3    H122528   1.165   0.659   2.048  0.2838 -0.2142 -1.0376
  323TIP3    H222529   1.213   0.751   1.937  1.7204 -1.5776 -1.5915
  324TIP3   OH222530   3.903   4.866   3.627 -0.4798  0.4446  0.6583
  324TIP3    H122531   3.914   4.889   3.719  1.9424  0.0576  0.5441
  324TIP3    H222532   3.841   4.931   3.593 -1.7337  0.3454  2.6127
  325TIP3   OH222533   3.031   2.458   3.786  0.1099 -0.0652  0.2112
  325TIP3    H122534   2.952   2.436   3.737 -0.7123 -0.3253  1.6112
  325TIP3    H222535   3.102   2.440   3.724 -0.8610 -0.6888 -0.7722
  326TIP3   OH222536   3.410   4.272   3.681 -0.5839 -0.0583  0.1762
  326TIP3    H122537   3.444   4.239   3.765 -0.4320  1.6943  0.8422
  326TIP3    H222538   3.431   4.202   3.619  0.8246 -0.6944  1.2790
  327TIP3   OH222539   4.237   1.427   3.233  0.4185  0.4885 -0.4056
  327TIP3    H122540   4.286   1.384   3.163 -1.2265  0.1253 -1.3796
  327TIP3    H222541   4.160   1.464   3.189 -0.2813  0.8900  1.0980
  328TIP3   OH222542   3.767   4.598   3.579 -0.2484  0.0458 -0.0538
  328TIP3    H122543   3.845   4.552   3.608  0.5951  1.0958 -0.5968
  328TIP3    H222544   3.789   4.691   3.586 -0.7366  0.3580 -2.0295
  329TIP3   OH222545   3.366   4.982   0.706  0.0320  0.3987 -0.1659
  329TIP3    H122546   3.369   4.964   0.800  1.7886  1.7072  0.0840
  329TIP3    H222547   3.308   5.057   0.698 -1.9409 -1.0670 -0.4491
  330TIP3   OH222548   0.025   2.928   3.935  0.1841 -0.6371 -0.7928
  330TIP3    H122549   0.107   2.898   3.895  0.8081  1.1052 -0.8943
  330TIP3    H222550   0.050   2.957   4.022 -0.6440 -1.6395 -0.2027
  331TIP3   OH222551   0.910   2.821   0.231 -0.4670  0.5946 -0.3608
  331TIP3    H122552   0.957   2.739   0.244  1.5718  1.6788 -0.5032
  331TIP3    H222553   0.908   2.833   0.136 -2.6122 -0.2534 -0.4803
  332TIP3   OH222554   5.355   6.518   4.759 -0.2401 -0.1472  0.5191
  332TIP3    H122555   5.294   6.591   4.754  1.0804  0.9531  0.1046
  332TIP3    H222556   5.315   6.450   4.704  0.2224  1.5674 -2.1492
  333TIP3   OH222557   6.007   2.119   2.641 -0.2663  0.0136 -0.4356
  333TIP3    H122558   5.994   2.062   2.717  0.7377 -0.4918 -0.6186
  333TIP3    H222559   6.039   2.060   2.573  3.7745  1.1256  0.2160
  334TIP3   OH222560   2.072   6.312   4.525 -0.1210 -0.3345  0.0545
  334TIP3    H122561   2.005   6.353   4.579  0.7181 -0.2562  1.0784
  334TIP3    H222562   2.152   6.362   4.544 -0.1807  1.0719 -2.8633
  335TIP3   OH222563   4.203   4.880   3.788 -0.2096  0.4548 -0.0270
  335TIP3    H122564   4.189   4.792   3.753 -1.3997 -0.4424  2.4505
  335TIP3    H222565   4.205   4.936   3.710 -1.3945 -1.5103 -1.5938
  336TIP3   OH222566   1.027   2.694   2.046  0.2208  0.1906  0.2368
  336TIP3    H122567   1.010   2.605   2.078  0.8558  0.2658  0.7912
  336TIP3    H222568   0.940   2.731   2.031 -0.0434 -0.6871 -0.4663
  337TIP3   OH222569   1.890   4.302   1.350 -0.2763  0.3633  1.0342
  337TIP3    H122570   1.950   4.340   1.415 -0.6633  2.1638  0.3922
  337TIP3    H222571   1.921   4.212   1.339  3.0084  1.4751 -0.0436
  338TIP3   OH222572   4.723   2.038   1.145  0.2885  0.3203 -0.3201
  338TIP3    H122573   4.682   2.110   1.097 -1.1911 -1.2460 -1.5227
  338TIP3    H222574   4.757   1.980   1.077 -0.5857 -1.2407  0.5087
  339TIP3   OH222575   6.461   4.386   3.944  0.0847  0.1755  0.4127
  339TIP3    H122576   6.531   4.357   4.002  1.0290 -0.2001 -0.8595
  339TIP3    H222577   6.494   4.466   3.905 -0.8337  0.8049  0.9037
  340TIP3   OH222578   3.227   6.468   2.403  0.6192  0.0447 -0.0677
  340TIP3    H122579   3.210   6.528   2.330  1.8797 -1.1283 -1.3623
  340TIP3    H222580   3.162   6.399   2.392 -0.9237  1.1502  1.5065
  341TIP3   OH222581   6.641   5.802   3.463 -0.3572 -0.3047  0.2438
  341TIP3    H122582   6.590   5.723   3.444  1.6797 -1.7782  0.6256
  341TIP3    H222583   6.731   5.779   3.440  0.0386  2.6449 -1.7009
  342TIP3   OH222584   6.727   1.819   3.908  0.1428 -0.3062  0.0507
  342TIP3    H122585   6.748   1.906   3.876 -0.5707 -0.2097 -0.1653
  342TIP3    H222586   6.726   1.828   4.004  1.7089 -0.4666  0.1121
  343TIP3   OH222587   2.857   1.863   0.830 -0.0556  0.0184  0.3314
  343TIP3    H122588   2.918   1.937   0.833  0.7719 -0.6669  1.1324
  343TIP3    H222589   2.782   1.895   0.781  1.2048  0.6987 -1.2249
  344TIP3   OH222590   4.116   6.719   2.742 -0.6966  0.3140 -0.0089
  344TIP3    H122591   4.066   6.640   2.762 -0.3139 -0.0775 -0.5548
  344TIP3    H222592   4.208   6.691   2.745 -0.5794  0.5650 -0.8537
  345TIP3   OH222593   2.607   5.389   3.457  0.0431 -0.2711  0.0110
  345TIP3    H122594   2.604   5.343   3.373  0.8657 -1.0379  0.3828
  345TIP3    H222595   2.536   5.350   3.508 -0.3480  0.0741 -0.2688
  346TIP3   OH222596   6.510   3.135   2.936 -0.3760 -0.4232  0.0446
  346TIP3    H122597   6.586   3.094   2.978 -1.1947 -0.6167  1.4012
  346TIP3    H222598   6.530   3.228   2.937 -0.1536 -0.4707  0.4052
  347TIP3   OH222599   0.748   5.758   2.106 -0.1586  0.1704 -0.5273
  347TIP3    H122600   0.790   5.686   2.059  0.8461 -0.1499  0.7684
  347TIP3    H222601   0.662   5.724   2.129  0.0224 -0.3525 -0.5861
  348TIP3   OH222602   4.719   3.923   2.194 -0.4619 -0.4329 -0.2564
  348TIP3    H122603   4.809   3.930   2.161  0.5243 -1.5512  1.9993
  348TIP3    H222604   4.699   3.830   2.190 -1.0248 -0.3513  0.5282
  349TIP3   OH222605   2.933   2.931   3.780  0.0214  0.2127  0.5675
  349TIP3    H122606   3.018   2.975   3.785 -0.0110  0.1322  2.6031
  349TIP3    H222607   2.943   2.853   3.835 -1.4474  0.3305  1.0378
  350TIP3   OH222608   6.766   6.579   4.631 -0.0291  0.1809  0.1601
  350TIP3    H122609   6.771   6.650   4.567  0.0083 -1.6665 -2.0433
  350TIP3    H222610   6.672   6.562   4.641 -0.0551  0.8220  1.0282
  351TIP3   OH222611   6.508   2.974   3.963 -0.5609  0.0419 -0.2851
  351TIP3    H122612   6.558   2.903   4.003  1.5118  0.8551 -1.2256
  351TIP3    H222613   6.463   3.016   4.035  0.1918 -0.7068  0.6500
  352TIP3   OH222614   2.614   2.986   0.456 -0.1533  0.0905  0.3453
  352TIP3    H122615   2.572   2.901   0.464 -2.2577  1.0732  0.3954
  352TIP3    H222616   2.642   3.008   0.545 -2.2338  0.6729  0.9041
  353TIP3   OH222617   2.642   2.823   3.078  0.0847 -0.1348 -0.3621
  353TIP3    H122618   2.623   2.828   2.984 -0.5877 -1.2492 -0.3022
  353TIP3    H222619   2.598   2.744   3.107 -0.5235  0.6977  1.0985
  354TIP3   OH222620   3.445   5.323   4.204  0.0805 -0.4276 -0.4886
  354TIP3    H122621   3.373   5.267   4.175 -1.1108  0.5459  0.4570
  354TIP3    H222622   3.415   5.359   4.288  1.5978  0.1601 -0.1654
  355TIP3   OH222623   1.806   5.425   2.176  0.2984 -0.1617  0.7949
  355TIP3    H122624   1.900   5.408   2.186  0.6456 -0.6714 -2.3924
  355TIP3    H222625   1.764   5.348   2.215  1.2103 -0.3903  1.3690
  356TIP3   OH222626   4.044   1.919   1.700 -0.5554  0.5291  0.2191
  356TIP3    H122627   4.099   1.925   1.622 -2.1110  1.9725 -0.8425
  356TIP3    H222628   4.044   2.008   1.736  0.5952 -0.2273  2.2519
  357TIP3   OH222629   1.833   4.532   2.971 -0.3229 -0.1521 -0.0696
  357TIP3    H122630   1.918   4.505   2.936 -0.7917 -0.0457 -1.3644
  357TIP3    H222631   1.829   4.494   3.058  1.0677 -0.1208  0.0221
  358TIP3   OH222632   0.780   0.070   0.648 -0.0957 -0.4820  0.0724
  358TIP3    H122633   0.718  -0.002   0.638 -2.3805  1.4239 -0.5155
  358TIP3    H222634   0.793   0.103   0.559 -0.1040  0.5728  0.4446
  359TIP3   OH222635   1.983   4.726   0.601  0.1965  0.0857  0.0607
  359TIP3    H122636   1.909   4.780   0.575 -0.1065 -0.3578 -0.0033
  359TIP3    H222637   1.955   4.682   0.681  1.2146  1.6269  1.3128
  360TIP3   OH222638   5.165   2.919   2.157  0.0496  0.1245 -0.4227
  360TIP3    H122639   5.093   2.926   2.094 -1.6642 -0.7773  1.3100
  360TIP3    H222640   5.170   3.005   2.198 -2.1787 -0.5622  1.5277
  361TIP3   OH222641   6.033   3.396   2.367  0.3939  0.0759  0.0950
  361TIP3    H122642   5.977   3.348   2.428 -0.4360  0.2744 -0.4808
  361TIP3    H222643   6.058   3.331   2.301  0.3030  0.1335  0.0020
  362TIP3   OH222644   6.557   5.010   4.144 -0.2518 -0.0207 -0.2450
  362TIP3    H122645   6.574   5.028   4.236 -1.5460  0.7716 -0.1339
  362TIP3    H222646   6.499   5.081   4.116 -2.5830 -2.0122 -0.7900
  363TIP3   OH222647   2.541   2.907   1.744 -0.1530 -0.2594 -0.7191
  363TIP3    H122648   2.632   2.937   1.747 -0.4711  1.4588 -3.9237
  363TIP3    H222649   2.490   2.982   1.777 -0.4805 -1.5472  1.9787
  364TIP3   OH222650   1.638   2.190   1.166  0.4477  0.0008  0.2859
  364TIP3    H122651   1.704   2.153   1.225  0.9833 -1.5416 -1.1909
  364TIP3    H222652   1.682   2.193   1.081 -1.1542 -0.4057 -0.5839
  365TIP3   OH222653   3.188   3.241   8.749  0.0731 -0.0144  0.0148
  365TIP3    H122654   3.254   3.304   8.720  0.8857  0.1942  2.1488
  365TIP3    H222655   3.236   3.178   8.802 -1.2646 -0.5344  0.6466
  366TIP3   OH222656   1.112   1.202   3.709 -0.2788  0.1309  0.0199
  366TIP3    H122657   1.122   1.113   3.744  1.0467  1.1792  2.5541
  366TIP3    H222658   1.019   1.221   3.718 -1.0150 -1.6650 -2.5522
  367TIP3   OH222659   6.411   3.736   1.629 -0.3413 -0.3226 -0.1622
  367TIP3    H122660   6.390   3.774   1.714  0.1146 -2.4154  0.9773
  367TIP3    H222661   6.333   3.686   1.605  0.2052 -1.2785 -0.0201
  368TIP3   OH222662   2.940   5.807   4.006 -0.1049  0.1644 -0.0444
  368TIP3    H122663   2.888   5.876   4.047  0.5337  1.2522 -1.0148
  368TIP3    H222664   2.887   5.778   3.932  0.2354  0.5855 -0.4542
  369TIP3   OH222665   6.350   6.196   2.455 -0.3053 -0.5972  0.3132
  369TIP3    H122666   6.398   6.117   2.480  1.4305  0.4169  0.3000
  369TIP3    H222667   6.415   6.266   2.459 -1.0807  0.3873 -2.4359
  370TIP3   OH222668   0.385   4.933   1.432  0.1292  0.2546 -0.4955
  370TIP3    H122669   0.473   4.907   1.460 -0.2749  0.6302  1.2376
  370TIP3    H222670   0.379   5.025   1.456 -0.4803  0.4368 -1.3167
  371TIP3   OH222671   1.385   0.362   3.319  0.6613  0.3369 -0.0607
  371TIP3    H122672   1.313   0.345   3.380  1.6386  0.2630  1.1111
  371TIP3    H222673   1.412   0.275   3.289 -0.4637  0.4244 -1.4032
  372TIP3   OH222674   1.999   0.847   2.024 -0.1313  0.1154  0.4470
  372TIP3    H122675   1.927   0.845   2.087 -1.7894  0.9614 -1.3486
  372TIP3    H222676   1.996   0.935   1.986  1.2989 -0.1350 -0.3247
  373TIP3   OH222677   3.481   6.013   2.610  0.2617  0.1120  0.2333
  373TIP3    H122678   3.568   6.046   2.587 -0.3471  0.3974 -1.8874
  373TIP3    H222679   3.495   5.921   2.629  1.1116  0.2840  0.5070
  374TIP3   OH222680   6.406   0.021   3.644 -0.0500 -0.1967 -0.7954
  374TIP3    H122681   6.319   0.048   3.614 -1.4460 -1.6216  1.6606
  374TIP3    H222682   6.402  -0.075   3.648  0.9529 -0.2061  1.1923
  375TIP3   OH222683   4.198   4.281   2.154 -0.1748 -0.8624  0.3378
  375TIP3    H122684   4.162   4.316   2.073  2.2904  0.8441 -0.1156
  375TIP3    H222685   4.188   4.187   2.146 -1.1813 -0.6534 -1.3387
  376TIP3   OH222686   6.198   1.862   2.170 -0.3329  0.1368  0.1503
  376TIP3    H122687   6.293   1.851   2.170 -0.5466 -2.1765 -0.5726
  376TIP3    H222688   6.184   1.950   2.133  1.5180  1.1907  1.7430
  377TIP3   OH222689   1.680   1.899   1.258 -0.2480  0.1993 -0.1429
  377TIP3    H122690   1.752   1.892   1.195 -1.3076 -0.6830 -1.3115
  377TIP3    H222691   1.717   1.867   1.340  0.0185 -2.8644 -1.3097
  378TIP3   OH222692   4.974   3.710   2.159 -0.0135 -0.3142 -0.3338
  378TIP3    H122693   4.974   3.713   2.254 -0.7275 -0.7759 -0.3107
  378TIP3    H222694   5.062   3.740   2.134 -0.3192  1.2834  0.4015
  379TIP3   OH222695   2.428   2.345   3.355  0.0583  0.3601  0.5994
  379TIP3    H122696   2.355   2.382   3.405 -0.6705 -0.6170  0.2797
  379TIP3    H222697   2.390   2.271   3.307  1.8064 -1.9514  2.5520
  380TIP3   OH222698   4.126   0.199   3.241 -0.4919 -0.0116 -0.2863
  380TIP3    H122699   4.177   0.171   3.164  1.7049  2.9345 -0.0913
  380TIP3    H222700   4.049   0.242   3.204  0.0526  0.5064 -0.8482
  381TIP3   OH222701   0.386   6.027   3.310  0.4790  0.8436  0.5905
  381TIP3    H122702   0.396   6.072   3.395  1.7969  0.9496  0.4123
  381TIP3    H222703   0.336   6.088   3.256  0.5429  1.2406  0.9731
  382TIP3   OH222704   5.228   0.184   2.083  0.1686  0.1005 -0.1113
  382TIP3    H122705   5.206   0.150   2.169  2.0861 -1.4688 -0.1617
  382TIP3    H222706   5.316   0.221   2.093  0.1954  0.3990 -1.2632
  383TIP3   OH222707   5.813   6.422   3.335  0.3285  0.0871  0.7981
  383TIP3    H122708   5.737   6.472   3.307  0.5465  2.2700  3.6939
  383TIP3    H222709   5.885   6.458   3.284 -0.0667  0.2608  0.3565
  384TIP3   OH222710   6.511   4.195   0.592  0.1098 -0.1397 -0.3652
  384TIP3    H122711   6.531   4.117   0.540  1.4786 -0.6447  0.8643
  384TIP3    H222712   6.507   4.164   0.682  0.8582  1.2244  0.1714
  385TIP3   OH222713   4.137   0.721   4.278 -0.6188  0.6064  0.4668
  385TIP3    H122714   4.232   0.720   4.291 -0.6601  2.2428  1.0816
  385TIP3    H222715   4.125   0.745   4.186 -0.4302  2.3128  0.8628
  386TIP3   OH222716   0.450   0.380   1.615 -0.0565 -0.2063  0.2819
  386TIP3    H122717   0.378   0.413   1.668 -1.4553 -0.7402 -1.2296
  386TIP3    H222718   0.507   0.455   1.602 -0.4259  0.2746  1.3022
  387TIP3   OH222719   0.415   2.186   8.722  0.2671  0.0493 -0.1346
  387TIP3    H122720   0.494   2.187   8.667 -1.0615 -0.8378 -2.1756
  387TIP3    H222721   0.394   2.093   8.733 -0.5116  0.2750  0.3694
  388TIP3   OH222722   0.009   1.340   1.151  0.1971 -0.5601  0.6490
  388TIP3    H122723  -0.036   1.259   1.176  1.3963 -1.3283  0.3675
  388TIP3    H222724   0.098   1.330   1.186  0.1894  0.9225  1.1768
  389TIP3   OH222725   3.294   2.503   3.655  0.0504  0.9648 -0.3792
  389TIP3    H122726   3.355   2.571   3.627  2.4156 -0.4092  1.1073
  389TIP3    H222727   3.315   2.427   3.600 -0.6258  0.5881 -0.1279
  390TIP3   OH222728   5.311   4.181   0.881 -0.1557  0.3120  0.2942
  390TIP3    H122729   5.318   4.097   0.927  2.0038  0.9617  1.3007
  390TIP3    H222730   5.341   4.246   0.946 -0.7003  1.7249 -0.8166
  391TIP3   OH222731   2.560   3.862   3.022  0.3652  0.3724 -0.2593
  391TIP3    H122732   2.628   3.844   2.957 -0.2649  2.2581 -1.5014
  391TIP3    H222733   2.493   3.795   3.007  0.8022  0.0376 -0.7001
  392TIP3   OH222734   0.228   4.032   0.450  0.0760 -0.5123  0.3363
  392TIP3    H122735   0.171   4.034   0.373 -0.5941  0.7388  0.8362
  392TIP3    H222736   0.170   4.002   0.521  0.4195 -0.6442  0.5627
  393TIP3   OH222737   6.498   2.729   1.015  0.2423  0.7987 -0.2717
  393TIP3    H122738   6.515   2.809   1.066  0.2117  1.3162 -1.0509
  393TIP3    H222739   6.573   2.673   1.032  0.7456  1.3956 -0.4627
  394TIP3   OH222740   1.902   1.805   3.262 -0.1441 -0.3077 -0.6411
  394TIP3    H122741   1.927   1.775   3.349 -1.2199  2.1078  0.5848
  394TIP3    H222742   1.971   1.772   3.204  1.4695 -0.5861  1.3593
  395TIP3   OH222743   5.103   2.862   3.351  0.0684 -0.1407  0.3948
  395TIP3    H122744   5.104   2.768   3.364  1.3209 -0.3061 -0.6801
  395TIP3    H222745   5.190   2.891   3.379 -0.8246  0.9582  2.2615
  396TIP3   OH222746   2.660   4.188   4.474  0.5569  0.2154 -0.0777
  396TIP3    H122747   2.713   4.267   4.472  0.3190  0.5454  2.6796
  396TIP3    H222748   2.718   4.121   4.510 -0.2175  0.0396  0.8947
  397TIP3   OH222749   6.777   4.284   0.500  0.5431 -0.3016  0.2149
  397TIP3    H122750   6.818   4.307   0.417  0.3117 -2.6717 -0.6284
  397TIP3    H222751   6.715   4.215   0.478 -2.2904  1.5106  1.8146
  398TIP3   OH222752   5.578   3.597   4.324  0.0796 -0.0501 -0.2688
  398TIP3    H122753   5.556   3.587   4.417 -0.8553  0.2129 -0.4515
  398TIP3    H222754   5.598   3.690   4.315 -2.2645  0.4721 -0.7951
  399TIP3   OH222755   2.758   0.696   2.703 -0.3075 -0.1363 -0.1270
  399TIP3    H122756   2.854   0.702   2.701 -0.3312  0.5712  0.5270
  399TIP3    H222757   2.740   0.630   2.771 -0.2872 -0.0855 -0.0717
  400TIP3   OH222758   0.298   3.258   3.110 -0.0699  0.1720  0.0611
  400TIP3    H122759   0.352   3.222   3.040  0.6031 -0.8089  1.0575
  400TIP3    H222760   0.223   3.297   3.064  0.6045  0.0205 -1.2240
  401TIP3   OH222761   6.263   4.287   4.104 -0.3435 -0.3158  0.2809
  401TIP3    H122762   6.307   4.318   4.025  1.7442  0.2286  1.5825
  401TIP3    H222763   6.329   4.235   4.150 -1.2898 -0.1144  1.9485
  402TIP3   OH222764   3.521   5.635   1.259 -0.0955  0.1355 -0.3817
  402TIP3    H122765   3.530   5.653   1.352 -1.0604 -0.3960 -0.1724
  402TIP3    H222766   3.530   5.540   1.252 -0.4378  0.1279 -0.7723
  403TIP3   OH222767   1.026   5.737   1.737 -0.1108 -0.3762  0.1124
  403TIP3    H122768   0.931   5.742   1.747 -0.0801 -1.0533  0.9368
  403TIP3    H222769   1.044   5.778   1.653 -1.3091 -1.8227 -0.9016
  404TIP3   OH222770   5.202   2.448   0.894 -0.6049 -0.1774  0.0679
  404TIP3    H122771   5.153   2.408   0.821 -0.8926 -1.1318  0.7620
  404TIP3    H222772   5.134   2.476   0.955 -0.4182  1.6109 -0.4905
  405TIP3   OH222773   0.561   1.240   3.974 -0.2821  0.0509 -0.1298
  405TIP3    H122774   0.617   1.314   3.996 -1.7351  1.3390 -0.5876
  405TIP3    H222775   0.613   1.163   3.996  0.4871  1.1888  2.4543
  406TIP3   OH222776   1.342   3.883   3.779  0.0910  0.0337  0.0246
  406TIP3    H122777   1.420   3.835   3.807 -0.5081 -1.8287 -1.2886
  406TIP3    H222778   1.268   3.830   3.811 -0.5990  0.2494 -1.1416
  407TIP3   OH222779   1.029   4.607   1.912 -1.0027  0.5918  0.1610
  407TIP3    H122780   1.103   4.590   1.970  0.0541 -0.9785 -1.5412
  407TIP3    H222781   0.954   4.568   1.957 -0.3613  0.1370  0.8641
  408TIP3   OH222782   3.068   4.581   4.599 -0.3703  0.2352  0.0205
  408TIP3    H122783   3.153   4.614   4.571  0.3578  0.2841  2.1829
  408TIP3    H222784   3.081   4.487   4.610 -0.7728  0.1505 -0.1947
  409TIP3   OH222785   2.889   2.828   4.886 -0.2387 -0.3052 -0.1497
  409TIP3    H122786   2.868   2.735   4.898  0.3850 -0.2401  1.9025
  409TIP3    H222787   2.847   2.851   4.803 -1.9518 -1.9738  0.1567
  410TIP3   OH222788   2.860   4.053   3.692 -0.0655  0.0063 -0.3387
  410TIP3    H122789   2.855   3.984   3.626 -0.8536  0.9324 -1.2688
  410TIP3    H222790   2.950   4.047   3.725 -0.9129 -3.5677  1.9869
  411TIP3   OH222791   1.092   3.204   1.037 -0.6639  0.2330  0.2986
  411TIP3    H122792   1.064   3.124   1.082 -0.2056 -0.2896 -0.3255
  411TIP3    H222793   1.057   3.275   1.090 -0.0939 -0.3706  1.5206
  412TIP3   OH222794   4.190   4.334   2.452  0.0412 -0.0692  0.7334
  412TIP3    H122795   4.223   4.410   2.499 -0.3377  1.9586 -2.0259
  412TIP3    H222796   4.158   4.369   2.369 -1.9989 -3.0031  0.1258
  413TIP3   OH222797   2.762   6.204   4.280  0.3431 -0.1075 -0.2150
  413TIP3    H122798   2.798   6.211   4.369  1.6832  1.5959 -0.8405
  413TIP3    H222799   2.670   6.231   4.289 -0.2285 -2.1715  0.9864
  414TIP3   OH222800   4.193   3.548   1.476  0.1546  0.1794  0.4991
  414TIP3    H122801   4.106   3.547   1.436  0.0804  0.1199  0.6600
  414TIP3    H222802   4.235   3.468   1.444  0.1705  0.2368  0.3764
  415TIP3   OH222803   3.137   3.575   2.586  0.5677 -0.2999 -0.0698
  415TIP3    H122804   3.125   3.658   2.540  1.2092 -0.3059 -0.2525
  415TIP3    H222805   3.199   3.595   2.656  0.7686 -0.6389 -0.1503
  416TIP3   OH222806   0.610   4.885   3.508 -0.2517  0.0706  0.2816
  416TIP3    H122807   0.651   4.847   3.585  0.6940 -0.2817 -0.3732
  416TIP3    H222808   0.516   4.865   3.518  0.0810 -1.5946  0.4438
  417TIP3   OH222809   5.392   6.270   1.626 -0.2194  0.1637 -0.3270
  417TIP3    H122810   5.405   6.275   1.721 -1.6035 -0.7345 -0.0583
  417TIP3    H222811   5.379   6.361   1.599  1.4029  0.5672  0.1191
  418TIP3   OH222812   3.638   2.217   0.484  0.2798 -0.3476  0.1518
  418TIP3    H122813   3.590   2.216   0.567  0.2650 -0.5759  0.1413
  418TIP3    H222814   3.638   2.126   0.455 -0.8061 -0.0975 -0.7147
  419TIP3   OH222815   5.316   5.998   1.691 -0.2230 -0.1717  0.3500
  419TIP3    H122816   5.341   6.089   1.678 -1.3209  0.1088  0.0825
  419TIP3    H222817   5.305   5.988   1.785 -1.0156  0.2407  0.3101
  420TIP3   OH222818   6.701   4.860   3.115 -0.2054 -0.0337 -0.7869
  420TIP3    H122819   6.679   4.767   3.108  2.2932 -0.7815  0.1488
  420TIP3    H222820   6.745   4.868   3.200 -1.6327  2.3255 -0.1866
  421TIP3   OH222821   6.517   4.589   0.850 -0.5671  0.2183  0.3454
  421TIP3    H122822   6.546   4.549   0.932 -0.8808  1.1168  0.9126
  421TIP3    H222823   6.422   4.575   0.849 -0.3409 -1.4224 -0.7851
  422TIP3   OH222824   5.723   0.253   2.388 -0.4856 -0.0623  0.2269
  422TIP3    H122825   5.645   0.292   2.429 -1.5769  0.2148 -1.9525
  422TIP3    H222826   5.718   0.281   2.297  2.0696 -0.2658 -0.0503
  423TIP3   OH222827   0.664   1.647   3.432 -0.2047  0.0199  0.5559
  423TIP3    H122828   0.662   1.572   3.373  0.1909  1.1077 -0.9053
  423TIP3    H222829   0.742   1.635   3.485 -0.9504 -1.3384  1.4012
  424TIP3   OH222830   1.450   1.133   3.567 -0.1150  0.3399  0.0565
  424TIP3    H122831   1.378   1.137   3.504 -1.5644 -0.0219  1.6115
  424TIP3    H222832   1.502   1.212   3.550 -1.4017  1.0959 -0.5177
  425TIP3   OH222833   0.482   4.319   2.436 -0.4249  0.8185  0.3657
  425TIP3    H122834   0.499   4.342   2.345  1.2042 -0.8529  0.2035
  425TIP3    H222835   0.388   4.331   2.446 -0.6394  1.0244 -1.5370
  426TIP3   OH222836   0.954   4.041   3.597 -0.1193  0.4864  0.3732
  426TIP3    H122837   1.026   3.977   3.606  0.1161  0.5938 -0.6183
  426TIP3    H222838   0.997   4.126   3.609 -0.0951  0.5462 -0.1320
  427TIP3   OH222839   5.550   2.394   2.777  0.5525 -0.5532  0.3495
  427TIP3    H122840   5.618   2.327   2.778  1.0597 -0.0468  0.2716
  427TIP3    H222841   5.518   2.394   2.687 -0.1864 -1.4149  0.5994
  428TIP3   OH222842   2.109   1.361   0.148 -0.2463 -0.7347 -0.2144
  428TIP3    H122843   2.105   1.443   0.099 -2.3128 -1.3879 -1.2829
  428TIP3    H222844   2.189   1.319   0.117 -0.4704 -0.2264 -1.5682
  429TIP3   OH222845   5.613   1.309   1.990 -0.2113  0.3075 -0.2808
  429TIP3    H122846   5.670   1.354   1.928  0.3802  1.2006  0.8655
  429TIP3    H222847   5.576   1.378   2.044  0.9260 -0.5312  1.7015
  430TIP3   OH222848   3.421   3.688   0.923  0.6201  0.1038 -0.5108
  430TIP3    H122849   3.417   3.730   1.009 -1.4201  2.3365 -1.5821
  430TIP3    H222850   3.515   3.676   0.907  1.0871  0.3597  1.6442
  431TIP3   OH222851   5.538   3.083   1.900 -0.5607 -0.0992  0.5932
  431TIP3    H122852   5.454   3.104   1.859 -0.7801 -1.2605  0.4205
  431TIP3    H222853   5.604   3.114   1.838 -0.8620  0.5235  0.5782
  432TIP3   OH222854   2.005   5.230   0.010 -0.8565 -0.2550 -0.0100
  432TIP3    H122855   2.060   5.161  -0.029 -0.6391 -0.1665  0.1394
  432TIP3    H222856   1.949   5.183   0.072 -1.3546 -0.4297 -0.5739
  433TIP3   OH222857   6.324   0.029   2.911  0.0552 -0.0822  0.1496
  433TIP3    H122858   6.413  -0.001   2.891  0.1976  1.5443 -1.9735
  433TIP3    H222859   6.334   0.087   2.986  1.0395  1.2367 -0.9664
  434TIP3   OH222860   3.746   3.264   1.114 -0.3562 -0.6112 -0.0158
  434TIP3    H122861   3.750   3.264   1.018 -0.2353  1.0374 -0.0399
  434TIP3    H222862   3.668   3.314   1.135 -0.6659 -1.3855  0.7726
  435TIP3   OH222863   3.955   4.264   3.557 -0.2975 -0.1109  0.0833
  435TIP3    H122864   3.965   4.247   3.651  0.2195 -1.9874 -0.2816
  435TIP3    H222865   3.861   4.251   3.541 -0.4748  0.6920  0.4046
  436TIP3   OH222866   5.329   6.015   3.533  0.4108 -0.1634 -0.1907
  436TIP3    H122867   5.258   6.030   3.595  0.5606 -1.1918  0.2515
  436TIP3    H222868   5.307   5.931   3.491  0.0053  0.7827 -1.9741
  437TIP3   OH222869   6.003   1.915   2.456 -0.0202  0.0393 -0.7465
  437TIP3    H122870   5.969   1.903   2.367  1.0833 -0.4230 -1.1222
  437TIP3    H222871   6.005   1.827   2.493 -1.1997  0.3206  0.0271
  438TIP3   OH222872   6.359   0.588   4.262 -1.0705  0.1185 -0.2194
  438TIP3    H122873   6.284   0.588   4.321 -0.9267  0.2500 -0.0366
  438TIP3    H222874   6.409   0.666   4.286 -0.6457 -0.2030 -0.0508
  439TIP3   OH222875   1.397   0.628   0.042  0.3481 -0.7359  0.1161
  439TIP3    H122876   1.464   0.651  -0.022  0.5534 -2.1438 -0.2174
  439TIP3    H222877   1.381   0.708   0.091 -1.1232  0.9474 -2.8466
  440TIP3   OH222878   2.737   1.137   1.424  0.0282 -0.2583 -0.6270
  440TIP3    H122879   2.796   1.072   1.386 -0.0119 -0.3343 -0.5594
  440TIP3    H222880   2.781   1.221   1.411 -0.0489 -0.2700 -0.9617
  441TIP3   OH222881   4.002   3.757   1.898  0.0278 -0.0185  0.1459
  441TIP3    H122882   4.071   3.755   1.964  1.2104 -0.0613 -1.0286
  441TIP3    H222883   3.973   3.666   1.890  2.4532 -0.7486 -1.8857
  442TIP3   OH222884   5.336   1.190   1.939  0.0729  0.5855  0.0864
  442TIP3    H122885   5.316   1.180   2.032 -0.7859  1.1164 -0.0291
  442TIP3    H222886   5.420   1.235   1.937  0.4146 -0.0099  0.5954
  443TIP3   OH222887   0.896   1.049   1.445 -0.4982 -1.0462  0.1520
  443TIP3    H122888   0.866   1.124   1.394  0.6782 -0.0131  0.9100
  443TIP3    H222889   0.991   1.048   1.434 -0.3024 -1.3198  1.5741
  444TIP3   OH222890   0.419   2.355   1.348  0.8763  0.2350  0.3299
  444TIP3    H122891   0.434   2.439   1.392 -1.0550  0.1040  1.3234
  444TIP3    H222892   0.402   2.379   1.257 -1.7720  1.1892  1.0028
  445TIP3   OH222893   5.286   2.099   0.368 -0.0993 -0.4400 -0.2473
  445TIP3    H122894   5.196   2.097   0.401 -0.2661  0.4867 -0.6173
  445TIP3    H222895   5.335   2.044   0.430 -0.5214  0.7320  1.1840
  446TIP3   OH222896   6.662   0.803   0.997 -0.2048 -0.7017 -0.2709
  446TIP3    H122897   6.744   0.775   0.956 -0.6709 -1.3476 -0.7881
  446TIP3    H222898   6.607   0.724   0.997 -1.1570 -0.0617 -0.7750
  447TIP3   OH222899   1.632   6.391   2.690 -0.1494  0.2845  0.1411
  447TIP3    H122900   1.665   6.301   2.685  0.2609  0.3023  1.7777
  447TIP3    H222901   1.539   6.382   2.711 -0.1988  0.2395 -0.0994
  448TIP3   OH222902   5.074   1.425   3.490  0.1241  0.2684  0.0589
  448TIP3    H122903   5.003   1.487   3.510  0.0843  0.4750 -0.6942
  448TIP3    H222904   5.063   1.355   3.553 -0.2074  0.7372  0.5304
  449TIP3   OH222905   4.343   3.548   4.060 -0.5676  0.2114  0.7148
  449TIP3    H122906   4.389   3.595   4.129  0.8181  0.6742 -0.4560
  449TIP3    H222907   4.271   3.605   4.035  0.2369  1.0664  0.3023
  450TIP3   OH222908   1.578   0.620   2.791  0.0262  0.0687  0.2944
  450TIP3    H122909   1.634   0.546   2.766 -0.7057 -0.6749  0.8269
  450TIP3    H222910   1.516   0.629   2.718  1.1135  1.2202 -0.5399
  451TIP3   OH222911   3.623   1.250   1.482  0.1463 -0.5591 -0.3793
  451TIP3    H122912   3.657   1.310   1.548 -1.0247 -1.7360  1.3720
  451TIP3    H222913   3.655   1.164   1.510 -0.5291 -1.1010 -1.2317
  452TIP3   OH222914   5.392   2.130   2.402  0.0584  0.1660  0.0371
  452TIP3    H122915   5.335   2.141   2.478 -2.4658  0.2037 -1.7410
  452TIP3    H222916   5.386   2.037   2.381  1.0721  0.0755  0.0986
  453TIP3   OH222917   4.722   0.356   4.046  0.0244 -0.2530 -0.1292
  453TIP3    H122918   4.692   0.366   3.956 -1.0793  1.0785  0.3412
  453TIP3    H222919   4.795   0.418   4.054 -1.9084  2.0766  0.6954
  454TIP3   OH222920   1.778   2.886   0.516  0.2697  0.0866 -0.1272
  454TIP3    H122921   1.819   2.937   0.585 -0.5953 -0.7270  1.0287
  454TIP3    H222922   1.763   2.949   0.445 -2.5603  2.0408  1.9543
  455TIP3   OH222923   2.619   2.623   1.772 -0.6203  0.3934 -0.2541
  455TIP3    H122924   2.608   2.715   1.797  0.2412  0.1817  0.9633
  455TIP3    H222925   2.543   2.605   1.716 -0.8148  1.8299 -0.4999
  456TIP3   OH222926   1.892   2.615   2.278  0.1144  0.0289  0.0090
  456TIP3    H122927   1.859   2.525   2.270  0.8134 -0.2817  0.4689
  456TIP3    H222928   1.815   2.670   2.266 -0.0806 -0.5749 -1.7739
  457TIP3   OH222929   3.440   4.812   4.193 -0.0629  0.1696  0.2704
  457TIP3    H122930   3.464   4.856   4.111  1.3414  1.2595  1.2331
  457TIP3    H222931   3.353   4.845   4.214 -0.5787 -0.3677 -0.9203
  458TIP3   OH222932   2.040   4.803   4.333  0.5147  0.2449 -0.0697
  458TIP3    H122933   2.001   4.717   4.349 -3.1833  1.4903 -1.4269
  458TIP3    H222934   2.126   4.783   4.295  0.8295 -2.7378  1.8645
  459TIP3   OH222935   3.239   2.960   1.947  0.1328  0.2862  0.5608
  459TIP3    H122936   3.144   2.947   1.940  0.4055 -1.2212 -0.6727
  459TIP3    H222937   3.271   2.882   1.991  0.9194  0.3486  0.1135
  460TIP3   OH222938   5.074   0.588   3.796 -0.0087  0.1293 -0.7067
  460TIP3    H122939   5.056   0.500   3.828  1.3297 -0.7280 -2.1454
  460TIP3    H222940   5.148   0.618   3.848 -0.2861  0.2992 -0.4068
  461TIP3   OH222941   0.310   4.522   3.432 -0.0490  0.1083 -0.7185
  461TIP3    H122942   0.328   4.453   3.368 -1.5660 -1.4369  0.4184
  461TIP3    H222943   0.248   4.482   3.494  0.5762  1.8398  1.1588
  462TIP3   OH222944   0.676   1.508   0.912 -0.1466 -0.0518  0.2977
  462TIP3    H122945   0.751   1.566   0.910  0.5087 -0.8916 -0.3339
  462TIP3    H222946   0.665   1.479   0.821  0.5580 -2.1395  0.8137
  463TIP3   OH222947   1.137   3.558   3.372 -0.4093 -0.0863 -0.0794
  463TIP3    H122948   1.060   3.508   3.399  0.7369 -1.0505  1.6709
  463TIP3    H222949   1.106   3.648   3.365 -1.6464 -0.4135  0.8097
  464TIP3   OH222950   2.405   0.688   0.570 -0.1671  0.5748  0.0541
  464TIP3    H122951   2.428   0.778   0.594 -0.7546  0.6464  0.3596
  464TIP3    H222952   2.485   0.653   0.531  0.1434  1.1498  0.1574
  465TIP3   OH222953   1.568   2.803   3.334 -0.2795  0.4192  0.1699
  465TIP3    H122954   1.617   2.880   3.366 -0.0146 -0.4448  2.0039
  465TIP3    H222955   1.481   2.813   3.371 -0.9457  0.9598 -1.4793
  466TIP3   OH222956   5.511   3.325   1.598  0.2507 -0.5953 -0.1971
  466TIP3    H122957   5.457   3.375   1.537  1.5148 -1.4231 -2.0658
  466TIP3    H222958   5.467   3.240   1.605 -0.6562 -0.0585  1.2175
  467TIP3   OH222959   5.296   4.987   1.749  0.0248  0.0054  0.0026
  467TIP3    H122960   5.220   5.029   1.708  0.0690 -0.9613 -1.1139
  467TIP3    H222961   5.334   4.933   1.680  2.1174  0.9542  0.3437
  468TIP3   OH222962   0.172   6.230   2.312  0.6070 -0.5537 -0.6552
  468TIP3    H122963   0.215   6.180   2.380 -0.3479  1.0958  1.3016
  468TIP3    H222964   0.189   6.182   2.231  2.5092 -2.1448  0.6029
  469TIP3   OH222965   1.110   4.296   1.520 -0.4487 -0.5328 -0.5097
  469TIP3    H122966   1.197   4.258   1.527 -0.4420 -0.7223 -1.4648
  469TIP3    H222967   1.116   4.358   1.447 -0.3858  1.5395  1.1674
  470TIP3   OH222968   3.484   1.064   3.057 -0.7166 -0.7237 -0.2751
  470TIP3    H122969   3.540   0.999   3.014 -1.1473 -0.1840 -1.7405
  470TIP3    H222970   3.480   1.037   3.148 -1.5610 -3.2369 -0.9999
  471TIP3   OH222971   3.775   5.501   3.046 -0.1293 -0.1958  0.1157
  471TIP3    H122972   3.726   5.577   3.077 -0.3339  0.1631 -1.0491
  471TIP3    H222973   3.867   5.526   3.055 -0.1944  0.1611 -0.1939
  472TIP3   OH222974   2.617   6.501   2.979  0.2826 -0.1940 -0.5159
  472TIP3    H122975   2.570   6.457   3.050 -0.1951 -1.2579 -1.4520
  472TIP3    H222976   2.589   6.454   2.900 -0.2146  1.7904 -1.5804
  473TIP3   OH222977   1.737   0.391   2.690 -0.0992 -0.1449 -0.5523
  473TIP3    H122978   1.792   0.407   2.767 -2.1604 -1.7608  1.3739
  473TIP3    H222979   1.788   0.330   2.637  1.8444  1.8557 -1.1511
  474TIP3   OH222980   5.841   1.500   3.000  0.0505  0.3257  0.6140
  474TIP3    H122981   5.844   1.421   2.945 -0.9687  1.0487 -0.5187
  474TIP3    H222982   5.821   1.466   3.088 -0.1904 -0.7027  0.1862
  475TIP3   OH222983   0.038   3.934   0.246 -0.0197 -0.8507  0.1659
  475TIP3    H122984   0.111   3.964   0.191  1.9790 -2.6866  1.6290
  475TIP3    H222985   0.015   3.848   0.210 -1.4843 -0.3196 -0.2394
  476TIP3   OH222986   5.597   5.099   3.665 -0.2825  0.1138  1.0322
  476TIP3    H122987   5.587   5.040   3.740  0.2068 -0.1764  0.8740
  476TIP3    H222988   5.656   5.168   3.696  1.6288 -1.1184  0.3034
  477TIP3   OH222989   2.094   4.472   2.044  0.5842  0.2183 -0.4210
  477TIP3    H122990   2.030   4.528   2.088  1.6518  0.2949  1.1170
  477TIP3    H222991   2.121   4.521   1.966 -0.1884  0.8007 -0.3320
  478TIP3   OH222992   5.336   4.820   3.241  0.1352  0.3986 -0.1344
  478TIP3    H122993   5.431   4.828   3.237  0.1507  0.0144 -3.1305
  478TIP3    H222994   5.305   4.910   3.250  0.7183  0.4123  2.5915
  479TIP3   OH222995   6.778   6.125   3.439 -0.2121  0.7523 -0.2731
  479TIP3    H122996   6.774   6.126   3.344  0.9290  0.7824 -0.3351
  479TIP3    H222997   6.730   6.046   3.464  0.1248  0.3307 -0.9213
  480TIP3   OH222998   1.851   6.781   3.007 -0.1250 -0.0093 -0.0383
  480TIP3    H122999   1.858   6.695   2.965  1.4282 -0.4612  1.0537
  480TIP3    H223000   1.812   6.837   2.940 -2.6014 -1.8684 -0.2816
  481TIP3   OH223001   3.371   6.552   4.114  0.5274  0.3166  0.2420
  481TIP3    H123002   3.423   6.581   4.039  2.8769  0.5296  1.8501
  481TIP3    H223003   3.322   6.630   4.141  0.7003  0.5999 -0.2528
  482TIP3   OH223004   5.877   0.296   4.307  0.0213 -0.4350  0.1217
  482TIP3    H123005   5.873   0.379   4.355  0.2230  0.0909 -0.7555
  482TIP3    H223006   5.948   0.248   4.349 -0.8667 -0.6709  1.4058
  483TIP3   OH223007   5.662   5.493   3.971 -0.1307 -0.4623 -0.3463
  483TIP3    H123008   5.585   5.466   4.020 -0.7254  0.5106 -0.7033
  483TIP3    H223009   5.723   5.525   4.038 -0.3511 -0.5122 -0.1210
  484TIP3   OH223010   0.395   4.841   4.531  0.4034 -0.0035 -0.0295
  484TIP3    H123011   0.357   4.866   4.615  0.9958  1.1554 -0.0911
  484TIP3    H223012   0.373   4.914   4.472  0.8986 -0.3125 -0.6068
  485TIP3   OH223013   2.980   1.051   2.419  0.4582 -0.0144 -0.0526
  485TIP3    H123014   2.915   1.110   2.457  1.1012  0.7049 -0.0320
  485TIP3    H223015   3.057   1.107   2.405  2.1542 -1.4199  2.7072
  486TIP3   OH223016   5.656   0.196   4.175  0.2440  0.3632  0.0804
  486TIP3    H123017   5.730   0.236   4.220  1.2112  0.0574 -1.1888
  486TIP3    H223018   5.678   0.103   4.172  0.2329  0.3925 -1.0701
  487TIP3   OH223019   2.351   1.877   3.082 -0.1380 -0.5858  0.0603
  487TIP3    H123020   2.351   1.962   3.126 -1.9314 -1.2667  1.4764
  487TIP3    H223021   2.405   1.821   3.137 -2.0971 -1.3448  1.3024
  488TIP3   OH223022   2.425   3.230   2.316  0.6161  0.0182 -0.1608
  488TIP3    H123023   2.459   3.271   2.237  1.5453 -2.4748 -1.1376
  488TIP3    H223024   2.488   3.160   2.337  0.8811  1.0651  3.2920
  489TIP3   OH223025   2.076   2.695   3.624 -0.0187 -0.4388  0.0830
  489TIP3    H123026   2.104   2.764   3.684 -0.1348  1.3622 -1.8089
  489TIP3    H223027   2.016   2.641   3.676 -0.8495  1.5814  1.3630
  490TIP3   OH223028   4.970   4.218   8.821 -0.0803  0.8451 -0.0639
  490TIP3    H123029   4.943   4.140   8.772 -0.4016  0.2885  0.9604
  490TIP3    H223030   5.059   4.198   8.851  0.4671  1.5632 -1.1763
  491TIP3   OH223031   0.855   4.168   2.069 -0.1719  0.1433  0.0428
  491TIP3    H123032   0.812   4.252   2.055  0.4658  0.2310 -1.5792
  491TIP3    H223033   0.799   4.104   2.025  0.0997 -0.0801  0.0143
  492TIP3   OH223034   0.718   3.074   3.737  0.0969  0.1483  0.0914
  492TIP3    H123035   0.658   3.003   3.715  1.3864 -1.0408  0.2287
  492TIP3    H223036   0.683   3.151   3.692 -0.2097 -1.0459 -1.8210
  493TIP3   OH223037   2.804   4.083   2.914  0.2400  0.0724 -0.2665
  493TIP3    H123038   2.743   4.090   2.841  1.9499  0.5824 -1.7335
  493TIP3    H223039   2.880   4.038   2.876  1.3510  0.7601  1.0695
  494TIP3   OH223040   5.548   1.754   3.157 -0.1093  0.5026  0.1974
  494TIP3    H123041   5.483   1.824   3.160  0.6414  1.1733  2.4751
  494TIP3    H223042   5.552   1.730   3.064 -1.6885  2.2136 -0.3849
  495TIP3   OH223043   0.838   4.668   0.532  0.2402 -0.3697  0.4090
  495TIP3    H123044   0.747   4.643   0.548 -0.0621 -0.1761 -0.8583
  495TIP3    H223045   0.884   4.585   0.521  0.3404 -0.4848  1.5677
  496TIP3   OH223046   0.907   4.117   1.220 -0.3505  0.1877 -0.3788
  496TIP3    H123047   0.897   4.022   1.233 -0.8820  0.4904  1.9519
  496TIP3    H223048   0.961   4.125   1.141 -1.8198 -1.9899 -1.6973
  497TIP3   OH223049   4.656   0.620   5.362  0.4400 -0.2805  0.1062
  497TIP3    H123050   4.648   0.525   5.353  1.8767 -0.4165  0.1262
  497TIP3    H223051   4.750   0.637   5.364  0.2132  1.0209  1.4772
  498TIP3   OH223052   0.028   0.519   3.357  0.1077  0.2982 -0.0465
  498TIP3    H123053   0.064   0.455   3.418 -1.1534  0.5822  1.0481
  498TIP3    H223054  -0.038   0.566   3.408 -1.1585  0.3977 -1.6987
  499TIP3   OH223055   1.665   3.240   3.148  0.7226 -0.5764 -0.1547
  499TIP3    H123056   1.720   3.316   3.169  1.0834 -1.3610  1.9179
  499TIP3    H223057   1.727   3.167   3.142  0.1956 -0.9977 -0.5588
  500TIP3   OH223058   4.301   5.372   1.984 -0.0593 -0.0620  0.9019
  500TIP3    H123059   4.291   5.447   1.925  1.1795  0.6294  1.5121
  500TIP3    H223060   4.395   5.355   1.985 -0.3728 -2.1373  0.2048
  501TIP3   OH223061   5.085   1.259   4.531  0.2489 -0.4543  0.4209
  501TIP3    H123062   5.021   1.218   4.473  1.8066 -2.7537  0.2005
  501TIP3    H223063   5.121   1.332   4.481  1.2309 -2.1190 -1.4250
  502TIP3   OH223064   3.343   3.601   1.676 -1.0111  0.3019 -0.3800
  502TIP3    H123065   3.316   3.522   1.628  0.3235 -0.1948 -0.3774
  502TIP3    H223066   3.376   3.568   1.760 -1.6596  0.9983  0.1557
  503TIP3   OH223067   4.477   5.172   3.608  0.0903  0.3175  0.7691
  503TIP3    H123068   4.532   5.162   3.686  1.0570 -0.0789  0.0604
  503TIP3    H223069   4.401   5.116   3.625  0.8369 -0.6657  0.9454
  504TIP3   OH223070   5.257   3.589   2.857 -0.0722  0.2599 -0.3097
  504TIP3    H123071   5.212   3.587   2.942 -1.6702  1.6894 -1.0564
  504TIP3    H223072   5.349   3.602   2.879 -0.3058 -0.4755  1.2244
  505TIP3   OH223073   5.370   0.978   3.234 -0.1778  0.3017 -0.3007
  505TIP3    H123074   5.327   1.044   3.289 -0.7069  0.5643 -1.0158
  505TIP3    H223075   5.353   1.007   3.144  1.0451  0.1112 -0.6063
  506TIP3   OH223076   0.254   0.192   4.661 -0.5490 -0.5336  0.5907
  506TIP3    H123077   0.165   0.204   4.694 -1.0054 -0.5848 -0.5561
  506TIP3    H223078   0.253   0.232   4.574  0.1822 -1.6474  0.0334
  507TIP3   OH223079   5.832   2.585   3.943 -0.1245 -0.4402 -0.0547
  507TIP3    H123080   5.789   2.504   3.973  1.6799 -2.1713 -1.8473
  507TIP3    H223081   5.922   2.577   3.974  0.1733  0.7277 -0.5859
  508TIP3   OH223082   0.488   4.314   2.145  0.1467 -0.4379 -0.8552
  508TIP3    H123083   0.533   4.320   2.061  0.8250  0.3653 -0.4522
  508TIP3    H223084   0.454   4.225   2.148  0.9993 -0.8014 -1.5389
  509TIP3   OH223085   6.619   5.011   2.781  0.0081 -0.1644 -0.2724
  509TIP3    H123086   6.570   4.983   2.704 -0.9278  1.4972 -0.3421
  509TIP3    H223087   6.556   5.002   2.853  0.5268 -0.6787  0.1213
  510TIP3   OH223088   5.584   6.297   4.648  0.2630  0.1212 -0.1850
  510TIP3    H123089   5.532   6.297   4.728  0.5982  2.1229  0.0700
  510TIP3    H223090   5.545   6.228   4.594 -2.0087  0.8675  0.4022
  511TIP3   OH223091   3.510   3.034   1.534  0.2075 -0.2283  0.2370
  511TIP3    H123092   3.419   3.027   1.508  0.2074 -0.5808  0.3146
  511TIP3    H223093   3.512   3.102   1.601 -0.0442 -0.4267  0.4444
  512TIP3   OH223094   5.227   2.207   3.195 -0.0065 -0.0788 -0.3888
  512TIP3    H123095   5.211   2.188   3.287 -0.8712 -1.5002 -0.8106
  512TIP3    H223096   5.309   2.257   3.195 -0.2802  0.4220  1.1782
  513TIP3   OH223097   4.348   1.831   4.480  0.2074 -0.0791  0.7629
  513TIP3    H123098   4.269   1.779   4.463  0.5941 -0.2433 -0.6658
  513TIP3    H223099   4.387   1.790   4.557 -0.2180 -1.0589  0.4745
  514TIP3   OH223100   6.551   4.782   1.167  0.0958  0.3740  0.1687
  514TIP3    H123101   6.547   4.744   1.255  0.3212  0.9121  0.4176
  514TIP3    H223102   6.588   4.713   1.113  1.5556  0.5872  0.8380
  515TIP3   OH223103   5.632   1.237   2.985  0.3670  0.3660 -0.5034
  515TIP3    H123104   5.666   1.188   2.910  0.1636  0.4807 -0.6720
  515TIP3    H223105   5.547   1.197   3.004 -0.2786  1.3113 -1.2992
  516TIP3   OH223106   4.150   1.089   3.322  0.0193  0.6622  0.0846
  516TIP3    H123107   4.185   1.152   3.385 -0.2045 -2.1372  3.2638
  516TIP3    H223108   4.228   1.042   3.290  0.2410  2.6254 -2.6410
  517TIP3   OH223109   4.857   2.581   3.446  0.2508  0.4315  0.1804
  517TIP3    H123110   4.802   2.614   3.376  1.1735  1.6231 -0.0102
  517TIP3    H223111   4.824   2.493   3.463 -1.0935  0.7779 -0.5537
  518TIP3   OH223112   4.051   0.538   0.386 -0.1710  0.6327 -0.3914
  518TIP3    H123113   4.080   0.515   0.474  0.8057  1.2014 -0.5420
  518TIP3    H223114   4.049   0.455   0.339  0.3745  0.4580 -0.1173
  519TIP3   OH223115   0.121   0.837   4.665 -0.2801 -0.1500 -1.1574
  519TIP3    H123116   0.147   0.746   4.675  3.0111  0.8256  0.8198
  519TIP3    H223117   0.151   0.862   4.578 -2.6837 -1.2560 -2.3959
  520TIP3   OH223118   1.893   1.461   2.719 -0.4674 -0.0745 -0.6070
  520TIP3    H123119   1.864   1.418   2.800 -0.4757 -0.8603 -1.0153
  520TIP3    H223120   1.978   1.499   2.741 -1.3702  1.4933  0.3492
  521TIP3   OH223121   0.338   0.009   3.039 -0.8535 -0.1771 -0.5246
  521TIP3    H123122   0.385   0.063   3.102 -2.0731 -1.8466  1.9886
  521TIP3    H223123   0.404  -0.014   2.973  0.7659  0.8458  0.6708
  522TIP3   OH223124   2.063   4.162   1.004 -0.0966  0.0965 -0.3310
  522TIP3    H123125   2.124   4.189   0.936 -0.7010  1.3272 -0.3984
  522TIP3    H223126   2.014   4.241   1.026  0.1713 -0.2249  1.6387
  523TIP3   OH223127   3.396   5.342   1.285 -0.5233  0.0417  0.2395
  523TIP3    H123128   3.331   5.376   1.346 -1.7439 -1.2090 -0.3005
  523TIP3    H223129   3.464   5.304   1.340 -1.4364 -0.7576  0.8469
  524TIP3   OH223130   5.476   3.161   1.291  0.1672 -0.4052 -0.4036
  524TIP3    H123131   5.564   3.132   1.315  0.1415  0.3267  0.6498
  524TIP3    H223132   5.455   3.110   1.212  0.6669 -2.2048  0.5595
  525TIP3   OH223133   5.003   4.445   3.052 -0.4861 -0.1799  0.3870
  525TIP3    H123134   4.995   4.367   3.107 -0.4980 -0.8932 -0.5987
  525TIP3    H223135   5.093   4.475   3.065  0.2468 -1.6724 -0.8912
  526TIP3   OH223136   5.582   2.478   3.376  0.3650  0.0212  0.0005
  526TIP3    H123137   5.610   2.544   3.440  0.6472 -0.5597  0.4821
  526TIP3    H223138   5.512   2.521   3.327  0.1620  0.4849  0.6826
  527TIP3   OH223139   5.948   2.818   8.822 -0.5755 -0.1127  0.0763
  527TIP3    H123140   5.859   2.789   8.842 -0.7440 -0.1515 -0.6891
  527TIP3    H223141   5.952   2.908   8.853 -0.3701 -0.5967  1.5470
  528TIP3   OH223142   0.931   6.560   3.039 -0.0570  0.0899 -0.2367
  528TIP3    H123143   0.837   6.576   3.027  0.0268  0.3496 -0.5773
  528TIP3    H223144   0.942   6.550   3.133 -0.6368 -1.3215 -0.2983
  529TIP3   OH223145   4.193   2.607   4.146 -0.1837 -0.3089  0.2376
  529TIP3    H123146   4.189   2.621   4.241 -0.9104 -0.4753  0.2346
  529TIP3    H223147   4.102   2.604   4.118 -0.0139  2.1807 -0.8510
  530TIP3   OH223148   3.625   6.688   4.213  0.5834  0.2844  0.9266
  530TIP3    H123149   3.601   6.598   4.234 -1.9508  1.4141  3.3524
  530TIP3    H223150   3.678   6.717   4.287  5.1462 -0.2734 -1.6731
  531TIP3   OH223151   4.877   2.816   1.534  0.1850 -0.1257  0.7572
  531TIP3    H123152   4.789   2.792   1.506  0.2720 -1.0233  1.2125
  531TIP3    H223153   4.933   2.789   1.461  0.1086  0.2440  0.5604
  532TIP3   OH223154   6.571   3.218   2.195  0.1063 -0.2369  0.0678
  532TIP3    H123155   6.639   3.284   2.178 -0.0874 -0.5155 -2.1316
  532TIP3    H223156   6.620   3.138   2.211  0.3147 -0.1084  0.0855
  533TIP3   OH223157   0.568   1.373   1.151 -0.0563  0.4562  0.0257
  533TIP3    H123158   0.538   1.296   1.102  1.6748 -1.0087  1.1521
  533TIP3    H223159   0.610   1.428   1.085 -1.6836  0.6957 -0.8686
  534TIP3   OH223160   3.321   4.402   1.231  0.3485  0.4095 -0.4050
  534TIP3    H123161   3.304   4.466   1.300  1.7746 -0.3469  0.7110
  534TIP3    H223162   3.236   4.362   1.214  0.1534 -0.3492  1.9426
  535TIP3   OH223163   1.446   0.641   4.385  0.0657 -0.1809  0.2733
  535TIP3    H123164   1.420   0.549   4.392  0.7849 -0.3698  0.5873
  535TIP3    H223165   1.435   0.677   4.473 -1.5976  0.4352 -0.1504
  536TIP3   OH223166   3.054   3.219   2.854  0.6862 -0.3381  0.2474
  536TIP3    H123167   3.006   3.295   2.887 -1.1422 -0.6746 -1.4481
  536TIP3    H223168   3.096   3.181   2.931  0.0519  1.2756  1.4267
  537TIP3   OH223169   3.461   0.932   3.340 -0.0055 -0.4404  0.3507
  537TIP3    H123170   3.547   0.904   3.308  0.6305  0.4477  1.2052
  537TIP3    H223171   3.469   0.930   3.435 -1.1878 -1.0466  0.4547
  538TIP3   OH223172   3.656   1.672   3.943 -0.3578  0.5482  0.2866
  538TIP3    H123173   3.609   1.708   4.017  0.6117  0.2189  1.0848
  538TIP3    H223174   3.624   1.723   3.868  0.5255  2.7126  1.2742
  539TIP3   OH223175   3.014   1.260   3.447  0.7676  0.5203  0.3711
  539TIP3    H123176   2.955   1.335   3.454  0.2475  0.1074  0.4548
  539TIP3    H223177   3.050   1.267   3.358 -0.3780  0.0730 -0.1507
  540TIP3   OH223178   3.383   5.041   2.320 -0.2034  0.6600 -0.2390
  540TIP3    H123179   3.353   5.032   2.411 -0.6708 -0.2471 -0.4783
  540TIP3    H223180   3.407   5.133   2.313 -2.0608  1.2350  0.2444
  541TIP3   OH223181   2.266   2.308   4.490  0.0393 -0.5034  0.0711
  541TIP3    H123182   2.270   2.354   4.574 -1.7087 -0.7582  0.3303
  541TIP3    H223183   2.325   2.233   4.501  0.1098 -0.3318  0.9309
  542TIP3   OH223184   5.832   5.035   1.884 -0.5373 -0.5278  0.0104
  542TIP3    H123185   5.807   5.003   1.971 -0.7968  1.8239  0.8688
  542TIP3    H223186   5.779   5.114   1.872  0.6208  0.0296 -1.6350
  543TIP3   OH223187   3.736   2.631   2.105 -0.5330  0.4532 -0.5527
  543TIP3    H123188   3.643   2.628   2.080 -0.4911 -0.2062 -0.6727
  543TIP3    H223189   3.781   2.652   2.023 -0.4029 -1.6268 -1.0728
  544TIP3   OH223190   3.743   2.412   0.718 -0.1162  0.4801 -0.0823
  544TIP3    H123191   3.733   2.318   0.733 -2.1317  0.6833  0.0802
  544TIP3    H223192   3.820   2.436   0.769 -1.3373 -0.5598  2.4276
  545TIP3   OH223193   0.551   4.929   0.574 -0.3407 -0.0692 -0.0950
  545TIP3    H123194   0.616   4.998   0.588 -1.1103  0.7763 -0.5039
  545TIP3    H223195   0.471   4.977   0.553 -0.3819 -1.1198 -2.6498
  546TIP3   OH223196   3.622   4.139   1.044  0.0372 -0.3999  0.1855
  546TIP3    H123197   3.662   4.085   1.112  1.5743  0.8243  0.3102
  546TIP3    H223198   3.628   4.086   0.964  0.4637 -0.8780  0.5298
  547TIP3   OH223199   6.180   3.420   1.949  0.3003  0.1892  0.2398
  547TIP3    H123200   6.253   3.358   1.953  0.8286  0.8065  0.5693
  547TIP3    H223201   6.221   3.506   1.964 -0.0800  0.8888 -2.2628
  548TIP3   OH223202   0.431   2.816   3.339 -0.0692  0.0898  0.4689
  548TIP3    H123203   0.382   2.896   3.355  2.4131  2.2390 -1.7329
  548TIP3    H223204   0.461   2.824   3.248  0.2365 -3.4267  0.1207
  549TIP3   OH223205   1.783   3.853   1.373  0.4177 -0.2384 -0.2954
  549TIP3    H123206   1.871   3.890   1.364  0.5960  0.1143  2.1439
  549TIP3    H223207   1.725   3.929   1.383  0.2295 -0.4863  0.6592
  550TIP3   OH223208   1.179   5.561   2.480 -0.2134 -0.0768 -0.1417
  550TIP3    H123209   1.269   5.583   2.457 -0.0337 -1.3819 -0.7412
  550TIP3    H223210   1.130   5.570   2.398 -0.2995 -1.0065 -0.2018
  551TIP3   OH223211   0.271   3.649   2.965  0.6641  0.3755  0.1206
  551TIP3    H123212   0.194   3.676   2.915  0.3063  2.1822  1.5525
  551TIP3    H223213   0.319   3.731   2.981  1.1547 -0.2462  2.0469
  552TIP3   OH223214   2.173   1.977   0.450  0.0172  0.5509  0.3296
  552TIP3    H123215   2.128   2.061   0.443  0.4901  0.7734 -0.1558
  552TIP3    H223216   2.128   1.920   0.388  1.9770  1.5145 -2.1665
  553TIP3   OH223217   3.449   1.030   4.671 -0.3264  0.2133 -0.2326
  553TIP3    H123218   3.502   0.957   4.703  0.1204  1.1779  1.3358
  553TIP3    H223219   3.377   1.037   4.733 -0.2055  1.2733 -0.1822
  554TIP3   OH223220   1.769   6.611   1.083  0.4280 -0.0801 -0.2623
  554TIP3    H123221   1.855   6.594   1.045 -0.0683  0.3857 -1.6859
  554TIP3    H223222   1.740   6.692   1.041 -0.0840  0.5980  1.3197
  555TIP3   OH223223   1.953   4.897   3.591  0.3378 -0.6316  0.4622
  555TIP3    H123224   1.883   4.957   3.565  1.0045  0.2245  0.5959
  555TIP3    H223225   1.982   4.929   3.676  1.4960 -0.4241  0.0062
  556TIP3   OH223226   1.610   0.543   1.608 -0.1263 -0.6967  0.5170
  556TIP3    H123227   1.585   0.635   1.613  0.8601 -0.4757  3.4608
  556TIP3    H223228   1.552   0.506   1.542 -1.9173  1.6398  0.6463
  557TIP3   OH223229   6.707   4.486   1.254  0.1772 -0.1340  0.4822
  557TIP3    H123230   6.730   4.396   1.278 -1.4817 -0.4452  0.9818
  557TIP3    H223231   6.786   4.536   1.275  0.6188 -1.2326  1.6355
  558TIP3   OH223232   2.264   4.768   4.142  0.3242 -0.2950 -0.4937
  558TIP3    H123233   2.218   4.841   4.103  3.2021  1.0007 -1.7559
  558TIP3    H223234   2.335   4.808   4.193  1.1491 -2.1520 -0.0718
  559TIP3   OH223235   1.092   1.359   3.025  0.6434 -0.3816  0.2354
  559TIP3    H123236   1.074   1.269   2.997  1.8848 -0.2910 -0.9979
  559TIP3    H223237   1.045   1.413   2.961  0.5908 -0.1568  0.4659
  560TIP3   OH223238   1.943   6.378   1.267 -0.3844  0.5209  0.0395
  560TIP3    H123239   1.866   6.370   1.325 -1.3262  0.3804 -1.1945
  560TIP3    H223240   1.989   6.294   1.278 -0.9076  0.2333  0.0906
  561TIP3   OH223241   0.891   5.929   0.901 -0.3046  1.0267  0.1691
  561TIP3    H123242   0.898   5.901   0.810 -0.2135  1.7976 -0.0694
  561TIP3    H223243   0.955   6.000   0.910 -2.1027  2.7485  0.1138
  562TIP3   OH223244   2.398   0.200   1.394 -0.0794 -0.1447  0.2939
  562TIP3    H123245   2.319   0.195   1.340  0.4082 -0.3020 -0.4143
  562TIP3    H223246   2.428   0.290   1.384  1.5228 -0.8371 -1.9197
  563TIP3   OH223247   6.726   1.833   0.572  0.7891  0.6210  0.2504
  563TIP3    H123248   6.677   1.854   0.492 -1.4397  0.2203  1.4364
  563TIP3    H223249   6.721   1.913   0.624  0.1474  0.1138  0.9805
  564TIP3   OH223250   4.608   1.530   3.208 -0.1173 -0.6398 -0.3692
  564TIP3    H123251   4.602   1.436   3.187 -0.0257 -0.6452 -0.3711
  564TIP3    H223252   4.573   1.537   3.297 -2.2438 -0.3677 -1.1523
  565TIP3   OH223253   2.746   4.680   2.399  0.0728 -0.8331  0.0410
  565TIP3    H123254   2.720   4.682   2.306  1.7986 -1.0441 -0.4787
  565TIP3    H223255   2.764   4.588   2.416  0.5384 -0.6811  0.3617
  566TIP3   OH223256   5.405   0.635   0.800 -0.1921  0.6461 -0.3417
  566TIP3    H123257   5.315   0.667   0.810 -0.4006  0.3530 -1.2452
  566TIP3    H223258   5.400   0.541   0.817 -0.0923  0.5958 -0.5832
  567TIP3   OH223259   1.843   6.506   2.069 -0.2391 -0.0370  0.2132
  567TIP3    H123260   1.812   6.561   1.997  0.6887  0.7358  0.3922
  567TIP3    H223261   1.774   6.513   2.135 -1.1255 -0.7945 -0.5955
  568TIP3   OH223262   6.340   5.212   4.133  0.0772  0.4885  0.0023
  568TIP3    H123263   6.251   5.190   4.103  0.1092  2.9032 -2.2040
  568TIP3    H223264   6.328   5.288   4.189  0.6280 -0.2726  1.1837
  569TIP3   OH223265   0.125   5.158   1.849 -0.2616  0.6277 -0.3199
  569TIP3    H123266   0.219   5.155   1.867 -0.4335 -0.8693  0.5214
  569TIP3    H223267   0.102   5.251   1.859  0.6460  0.6556  2.2881
  570TIP3   OH223268   2.491   2.771   0.522  0.7068 -0.7034 -0.6424
  570TIP3    H123269   2.405   2.745   0.492  0.5528  0.6117 -1.3899
  570TIP3    H223270   2.551   2.705   0.486  0.1067 -1.2133 -0.7091
  571TIP3   OH223271   0.540   4.528   0.699 -0.6073 -0.0577  0.6057
  571TIP3    H123272   0.566   4.436   0.710  0.5600  0.1471 -0.2169
  571TIP3    H223273   0.592   4.576   0.763 -0.7972  0.0863  0.6514
  572TIP3   OH223274   1.931   5.404   4.638  0.1913 -0.2732 -0.2493
  572TIP3    H123275   1.846   5.448   4.632  0.1919 -0.0469  1.2099
  572TIP3    H223276   1.912   5.318   4.674  0.7843  0.6311  2.4492
  573TIP3   OH223277   6.214   2.301   2.319  0.1238  1.1318  0.0083
  573TIP3    H123278   6.211   2.316   2.413 -0.5036  1.1457 -0.0075
  573TIP3    H223279   6.128   2.265   2.298  0.9032 -0.6328 -0.2816
  574TIP3   OH223280   3.212   4.762   1.980  0.5889  0.6232 -0.2505
  574TIP3    H123281   3.168   4.830   1.929  0.2001  0.8289  0.3478
  574TIP3    H223282   3.190   4.782   2.071 -0.4605 -0.9278 -0.1117
  575TIP3   OH223283   2.800   4.191   2.270 -0.3822  0.5758  0.1736
  575TIP3    H123284   2.721   4.229   2.309 -1.4779 -1.1701 -0.2112
  575TIP3    H223285   2.767   4.130   2.204  1.3608  1.4159 -1.5811
  576TIP3   OH223286   0.630   6.432   1.819 -0.0518  0.0130 -0.2252
  576TIP3    H123287   0.633   6.523   1.789 -2.4834 -0.0184 -0.7831
  576TIP3    H223288   0.628   6.381   1.738  1.1565 -0.5535  0.0870
  577TIP3   OH223289   0.700   5.170   4.084  0.4760 -0.0173  0.2886
  577TIP3    H123290   0.738   5.082   4.080  1.2793  0.3529 -0.7480
  577TIP3    H223291   0.747   5.219   4.017  0.1908  1.2692  0.9980
  578TIP3   OH223292   4.853   6.591   2.531 -0.4033  0.6209  0.2235
  578TIP3    H123293   4.804   6.536   2.592 -2.1058 -0.2060 -1.8071
  578TIP3    H223294   4.807   6.675   2.533 -1.4310  0.1100 -1.0410
  579TIP3   OH223295   0.038   6.296   4.151 -0.2122  0.6501  0.3411
  579TIP3    H123296  -0.018   6.220   4.166 -1.2690  1.0279 -1.3914
  579TIP3    H223297  -0.022   6.370   4.144  0.6282  1.3304  0.0587
  580TIP3   OH223298   2.834   6.109   2.664 -0.1715  0.0324 -0.3612
  580TIP3    H123299   2.821   6.055   2.586  0.8838 -2.3158  0.9671
  580TIP3    H223300   2.769   6.076   2.726  0.0452  0.7586  0.2579
  581TIP3   OH223301   1.355   4.896   2.091  0.6770  0.1942  0.1125
  581TIP3    H123302   1.268   4.920   2.058  0.2559 -0.0759  0.9886
  581TIP3    H223303   1.413   4.964   2.057  0.3602 -0.3259 -1.5499
  582TIP3   OH223304   2.708   2.846   0.997  0.2714  0.1777  0.3904
  582TIP3    H123305   2.678   2.820   1.084 -1.0892 -0.9123 -0.3618
  582TIP3    H223306   2.753   2.769   0.963 -0.3394  0.1419 -0.3563
  583TIP3   OH223307   1.537   6.205   1.940  0.2782 -0.2981  0.3340
  583TIP3    H123308   1.550   6.269   1.870  0.6502 -1.6104 -0.8510
  583TIP3    H223309   1.624   6.193   1.978 -0.2341  1.8175  2.3692
  584TIP3   OH223310   3.882   3.858   8.628  0.4381 -0.2371 -0.0361
  584TIP3    H123311   3.945   3.916   8.671  2.2800 -1.0468 -1.5487
  584TIP3    H223312   3.931   3.817   8.557 -1.2855 -2.3431 -0.1011
  585TIP3   OH223313   0.040   2.399   1.191 -0.4021 -0.5910 -0.2240
  585TIP3    H123314   0.070   2.424   1.278 -0.6244 -1.1081  0.0061
  585TIP3    H223315   0.115   2.355   1.151 -0.1526  0.0485 -0.4659
  586TIP3   OH223316   1.066   0.873   0.199 -0.0057  0.6136  0.0365
  586TIP3    H123317   0.983   0.921   0.198 -0.4950 -0.0778  2.2720
  586TIP3    H223318   1.065   0.823   0.117 -1.3677  1.3041 -0.4117
  587TIP3   OH223319   6.351   1.432   0.871 -0.3710  0.7207 -0.2149
  587TIP3    H123320   6.351   1.510   0.927  2.1516 -0.5981  1.7735
  587TIP3    H223321   6.394   1.461   0.790 -1.9318  2.0298 -0.6397
  588TIP3   OH223322   2.781   1.471   1.941  0.1013  0.6702 -0.3926
  588TIP3    H123323   2.769   1.521   2.021 -0.6344 -2.0494  1.3249
  588TIP3    H223324   2.706   1.494   1.887 -0.7745  0.6543  0.7825
  589TIP3   OH223325   1.516   2.513   1.771  0.1587  0.1765 -0.5660
  589TIP3    H123326   1.464   2.435   1.755 -1.3622  1.4089 -1.9474
  589TIP3    H223327   1.512   2.563   1.690  1.9263  1.2574 -0.0677
  590TIP3   OH223328   2.084   3.031   2.239 -0.5980  0.2331  0.1175
  590TIP3    H123329   1.998   2.998   2.264  0.2886 -0.9967  1.8035
  590TIP3    H223330   2.090   3.117   2.280 -0.9852  0.2607  0.1138
  591TIP3   OH223331   1.126   5.793   1.033  0.4283  0.0029  0.0599
  591TIP3    H123332   1.033   5.812   1.019 -0.7903 -4.4639  0.4654
  591TIP3    H223333   1.169   5.821   0.952 -1.3941  1.2259 -0.5586
  592TIP3   OH223334   1.354   1.473   3.621 -0.5563  0.0393  0.2051
  592TIP3    H123335   1.437   1.444   3.584 -0.9678 -2.7500  1.2658
  592TIP3    H223336   1.348   1.566   3.596  0.9816 -0.6461 -3.3030
  593TIP3   OH223337   0.278   5.488   3.001  0.3409 -0.9540  0.2374
  593TIP3    H123338   0.204   5.453   2.950 -0.2021  0.0627  0.2945
  593TIP3    H223339   0.262   5.456   3.090  0.2035 -1.0981  0.1627
  594TIP3   OH223340   0.495   2.211   2.526  0.2022  0.4142 -0.1225
  594TIP3    H123341   0.524   2.294   2.564  0.5975 -0.2139  1.0106
  594TIP3    H223342   0.399   2.219   2.520  0.2526  1.0006 -0.1566
  595TIP3   OH223343   5.054   5.626   1.014  0.5615  0.4959 -0.5778
  595TIP3    H123344   4.976   5.602   0.964  0.0265  2.4840 -0.7835
  595TIP3    H223345   5.019   5.658   1.098  1.3581 -1.3499  0.5227
  596TIP3   OH223346   0.810   0.187   2.756 -0.1578  0.0802 -0.1485
  596TIP3    H123347   0.864   0.173   2.834 -0.2842  0.0743 -0.0617
  596TIP3    H223348   0.794   0.099   2.722 -0.2334  0.0729 -0.0929
  597TIP3   OH223349   0.164   4.827   1.591 -0.4781 -0.0141  0.0758
  597TIP3    H123350   0.234   4.851   1.530  0.5648 -3.5638 -0.3655
  597TIP3    H223351   0.196   4.853   1.677  1.3073 -1.2546 -0.1632
  598TIP3   OH223352   5.110   4.040   2.453 -0.5753  0.1350 -0.3891
  598TIP3    H123353   5.056   4.063   2.529  1.4859  0.2157  1.1809
  598TIP3    H223354   5.088   3.949   2.434 -2.2339  0.5785 -0.7238
  599TIP3   OH223355   6.122   1.213   0.283 -0.6082 -0.3239  0.3488
  599TIP3    H123356   6.056   1.182   0.221 -0.3205  1.0449 -0.6645
  599TIP3    H223357   6.149   1.298   0.250  0.5396 -0.1582  1.6199
  600TIP3   OH223358   4.941   1.742   2.007  0.2584 -0.4016 -0.3040
  600TIP3    H123359   4.905   1.831   2.004  0.7555 -0.1114  1.4548
  600TIP3    H223360   4.920   1.711   2.094 -2.9286 -3.3767 -1.8919
  601TIP3   OH223361   3.486   3.056   2.246  0.1088  0.9205  0.8251
  601TIP3    H123362   3.541   2.987   2.284 -1.7377 -1.6552 -0.8833
  601TIP3    H223363   3.396   3.029   2.265 -0.7572  1.6008 -1.8567
  602TIP3   OH223364   0.988   3.107   4.349  0.4406 -0.4333  0.1177
  602TIP3    H123365   0.923   3.145   4.407  1.0317 -2.5237  2.2759
  602TIP3    H223366   1.050   3.178   4.333 -0.2661  0.4706  1.2582
  603TIP3   OH223367   5.262   6.469   2.265  0.0516  0.4954 -0.0840
  603TIP3    H123368   5.321   6.475   2.191 -2.3352  0.7350 -2.0962
  603TIP3    H223369   5.309   6.417   2.330  1.4949 -1.4078 -2.5095
  604TIP3   OH223370   3.073   0.021   4.349 -0.3990  0.0885 -0.1226
  604TIP3    H123371   3.003   0.086   4.340  0.8488  1.1697 -2.8215
  604TIP3    H223372   3.138   0.064   4.405 -1.8315 -1.0137  2.6107
  605TIP3   OH223373   1.729   1.761   8.802  0.2344  0.3660 -0.2879
  605TIP3    H123374   1.738   1.677   8.757 -0.1111  0.7805 -1.1497
  605TIP3    H223375   1.791   1.756   8.875  4.0680  1.2564 -3.1465
  606TIP3   OH223376   2.116   5.890   1.710  0.0912  0.2864 -0.4964
  606TIP3    H123377   2.067   5.917   1.632 -0.1035  1.8325  0.1124
  606TIP3    H223378   2.059   5.912   1.783  0.1475 -1.4178  0.0958
  607TIP3   OH223379   6.278   1.685   3.178  0.0745  0.2671 -0.4685
  607TIP3    H123380   6.272   1.699   3.273  1.4153  0.6103 -0.4050
  607TIP3    H223381   6.217   1.613   3.160  0.9004 -0.8304  0.9061
  608TIP3   OH223382   4.446   0.573   0.378  0.2450 -0.7789 -0.3043
  608TIP3    H123383   4.475   0.645   0.322  0.2820 -0.4115  0.1763
  608TIP3    H223384   4.504   0.577   0.454 -0.7323 -0.3395  0.4442
  609TIP3   OH223385   4.106   4.971   0.912 -0.1944  0.4961 -0.1973
  609TIP3    H123386   4.186   4.918   0.904  0.3097  1.0929  0.7033
  609TIP3    H223387   4.128   5.054   0.869 -0.3476  0.6367 -0.0090
  610TIP3   OH223388   4.485   4.608   1.800  0.2910 -0.5398  0.5065
  610TIP3    H123389   4.469   4.541   1.867  2.9350 -0.8456  0.9154
  610TIP3    H223390   4.397   4.640   1.777 -0.8195 -1.8506  2.6321
  611TIP3   OH223391   1.029   5.078   2.241 -0.5417 -0.3712  0.1757
  611TIP3    H123392   1.049   5.161   2.199  0.1216 -0.6477 -0.0630
  611TIP3    H223393   1.051   5.012   2.175 -0.3849 -0.7655  0.6179
  612TIP3   OH223394   2.881   6.092   0.257 -0.1190 -0.6998 -0.3987
  612TIP3    H123395   2.966   6.088   0.213 -0.0130  0.1744 -0.2909
  612TIP3    H223396   2.834   6.162   0.211  0.3164  0.8570  1.3678
  613TIP3   OH223397   3.485   4.186   0.721 -0.4204  0.4525 -0.2219
  613TIP3    H123398   3.432   4.263   0.742  1.3823  1.4512  0.9031
  613TIP3    H223399   3.575   4.217   0.726  0.5207 -2.2259  2.5581
  614TIP3   OH223400   3.072   6.568   4.213 -0.1132 -0.6085  0.1470
  614TIP3    H123401   3.053   6.646   4.265  1.0868  0.0953 -0.4354
  614TIP3    H223402   3.106   6.602   4.130  2.1123 -1.7324  0.5176
  615TIP3   OH223403   4.913   2.773   3.628  0.2977  0.1892 -0.5374
  615TIP3    H123404   4.959   2.704   3.677  0.3458 -0.3718 -1.3593
  615TIP3    H223405   4.876   2.728   3.552 -0.6692  0.8524 -0.4762
  616TIP3   OH223406   2.347   6.255   2.197  0.3590  0.2175 -0.1942
  616TIP3    H123407   2.285   6.299   2.140  1.1625  0.2986 -1.0375
  616TIP3    H223408   2.293   6.215   2.266 -0.4650  1.6537  0.0313
  617TIP3   OH223409   5.129   0.788   0.888 -0.4154  0.1197 -0.7254
  617TIP3    H123410   5.099   0.794   0.979 -0.0763  0.2169 -0.6204
  617TIP3    H223411   5.135   0.879   0.859  0.2140  0.1203 -0.6034
  618TIP3   OH223412   1.775   1.062   2.857 -0.3222 -0.2378 -0.6492
  618TIP3    H123413   1.695   1.013   2.839  1.2504 -3.0187 -0.5419
  618TIP3    H223414   1.845   1.009   2.821  1.6497  1.2820  0.6955
  619TIP3   OH223415   3.650   5.935   2.951  0.1607  0.3712  0.0068
  619TIP3    H123416   3.715   6.006   2.952  0.4911  0.0748 -0.0422
  619TIP3    H223417   3.689   5.868   3.006 -1.3176  1.2377  2.2347
  620TIP3   OH223418   0.579   2.506   2.643  0.0991 -0.2599 -0.2550
  620TIP3    H123419   0.626   2.558   2.578 -1.5155 -0.7738 -1.9224
  620TIP3    H223420   0.609   2.540   2.727  2.3041  0.4024 -1.2242
  621TIP3   OH223421   3.973   3.969   3.804  0.2565  0.0013 -0.6481
  621TIP3    H123422   4.021   3.943   3.883 -0.1488 -1.3791 -0.8213
  621TIP3    H223423   4.029   3.942   3.732 -0.6531 -1.5049 -0.8496
  622TIP3   OH223424   5.463   6.074   4.164  0.3072  0.6330 -0.5258
  622TIP3    H123425   5.432   6.013   4.230  1.9508  0.0837 -0.2299
  622TIP3    H223426   5.406   6.150   4.173 -1.0907 -0.4041 -0.1858
  623TIP3   OH223427   5.515   6.023   0.439  0.2472  0.3981 -0.1312
  623TIP3    H123428   5.481   5.940   0.404 -0.3165 -0.1222  1.5718
  623TIP3    H223429   5.599   6.000   0.477 -0.2620  0.4216  1.0437
  624TIP3   OH223430   4.851   3.486   3.655  1.1261  0.1510 -0.6527
  624TIP3    H123431   4.764   3.482   3.694  0.1550  0.8019 -2.6254
  624TIP3    H223432   4.892   3.563   3.695 -0.3528  1.6131 -1.8336
  625TIP3   OH223433   6.756   1.253   0.540  0.0396  0.9275  0.2946
  625TIP3    H123434   6.709   1.214   0.614 -0.7093 -0.7699 -1.0167
  625TIP3    H223435   6.688   1.291   0.485  0.3563  0.2410 -0.6053
  626TIP3   OH223436   3.267   6.604   1.194  0.5895 -0.6425  0.4871
  626TIP3    H123437   3.269   6.516   1.232  0.5859 -0.3749  1.1108
  626TIP3    H223438   3.320   6.657   1.253  2.1225 -0.6038 -0.8681
  627TIP3   OH223439   2.686   3.222   8.748 -0.0349  0.0931 -0.0445
  627TIP3    H123440   2.650   3.297   8.701  1.3309  1.3964  0.9053
  627TIP3    H223441   2.626   3.150   8.729 -1.2827  1.3802 -1.1215
  628TIP3   OH223442   1.864   0.385   1.062  0.3930 -0.6216 -0.0488
  628TIP3    H123443   1.914   0.308   1.036  0.8792 -0.7481  1.1650
  628TIP3    H223444   1.776   0.370   1.026  0.7242 -1.3027 -0.5919
  629TIP3   OH223445   3.639   6.547   2.757  0.0673  0.1310  0.0513
  629TIP3    H123446   3.728   6.559   2.791 -0.2180  1.2461  0.4465
  629TIP3    H223447   3.592   6.505   2.828  0.2453 -0.3753 -0.1243
  630TIP3   OH223448   5.251   4.354   2.262  0.0057 -0.4203  0.3251
  630TIP3    H123449   5.217   4.366   2.350  0.1013 -0.4154  0.3612
  630TIP3    H223450   5.173   4.338   2.208 -0.0160 -0.8899  0.4861
  631TIP3   OH223451   6.056   2.227   3.795  0.4843  0.1620 -0.8617
  631TIP3    H123452   6.146   2.196   3.793  0.1115 -0.9183 -1.8743
  631TIP3    H223453   6.054   2.302   3.735  0.3544 -0.9041 -2.2384
  632TIP3   OH223454   4.950   5.188   2.014  0.1288  0.1756  0.0246
  632TIP3    H123455   4.935   5.241   2.093 -2.8205 -1.6438  0.8632
  632TIP3    H223456   4.896   5.230   1.947  2.6243  1.7125 -1.1632
  633TIP3   OH223457   1.374   0.834   0.687 -0.4026  0.0622 -0.6948
  633TIP3    H123458   1.299   0.801   0.736 -0.9341  1.1628 -0.7285
  633TIP3    H223459   1.357   0.928   0.677  1.2983  0.4754 -0.1182
  634TIP3   OH223460   1.964   1.821   1.740 -0.0313 -0.4940  0.5466
  634TIP3    H123461   2.034   1.758   1.723  0.6000  0.7081 -1.8315
  634TIP3    H223462   1.883   1.771   1.729  0.4530 -1.2303  0.2578
  635TIP3   OH223463   3.005   5.310   3.886  0.6525  0.2611  0.2457
  635TIP3    H123464   2.931   5.251   3.902  0.5417  0.6304  1.0916
  635TIP3    H223465   3.042   5.279   3.803  0.2971 -0.6983  0.4315
  636TIP3   OH223466   1.958   2.004   2.959  0.0640 -0.3091  0.0494
  636TIP3    H123467   1.940   2.082   3.012  2.0100  1.2072 -1.3874
  636TIP3    H223468   1.872   1.978   2.924 -0.8287  0.2699  1.7088
  637TIP3   OH223469   4.352   1.568   4.249  0.2403 -0.2052  0.0823
  637TIP3    H123470   4.440   1.569   4.286  1.2423  4.2688 -1.7701
  637TIP3    H223471   4.297   1.604   4.319 -0.0063 -1.8715  0.8058
  638TIP3   OH223472   4.443   0.069   3.093  0.0748  0.4750  0.1779
  638TIP3    H123473   4.489   0.141   3.051 -1.4389  0.4135 -1.7404
  638TIP3    H223474   4.500  -0.007   3.082  0.3303  0.7640 -0.4976
  639TIP3   OH223475   1.111   1.807   2.350  0.4696  0.4209  0.3405
  639TIP3    H123476   1.140   1.815   2.441 -0.4687  0.8531  0.6105
  639TIP3    H223477   1.178   1.853   2.300  0.4931  1.0209  0.9097
  640TIP3   OH223478   5.097   5.164   2.485 -0.7360  0.1465  0.2415
  640TIP3    H123479   5.053   5.196   2.406 -1.7993  0.5831  0.9811
  640TIP3    H223480   5.147   5.240   2.516 -1.0482  0.2555  0.4818
  641TIP3   OH223481   0.519   4.685   4.281  0.2597  0.4907 -0.8590
  641TIP3    H123482   0.436   4.710   4.322  0.4092  1.1398 -0.9478
  641TIP3    H223483   0.577   4.664   4.354 -0.3968 -1.3955 -0.8094
  642TIP3   OH223484   0.666   6.673   3.035 -0.5418 -0.0972  0.1205
  642TIP3    H123485   0.598   6.631   3.088 -2.0328  1.7256 -0.2370
  642TIP3    H223486   0.634   6.665   2.945  0.7919 -1.0499 -0.3020
  643TIP3   OH223487   2.810   4.110   3.195 -0.0815 -0.3923  0.0374
  643TIP3    H123488   2.867   4.187   3.189  1.5598 -1.5923 -0.5530
  643TIP3    H223489   2.773   4.101   3.107 -1.3373  0.4659  0.4570
  644TIP3   OH223490   1.697   3.806   4.246  0.2405  0.3364  0.3126
  644TIP3    H123491   1.789   3.789   4.269  0.2744  0.3954  0.2250
  644TIP3    H223492   1.646   3.765   4.315  0.3312  0.2179  0.3084
  645TIP3   OH223493   0.383   1.762   1.851 -0.2653  0.1864 -0.2321
  645TIP3    H123494   0.387   1.684   1.795 -0.1422 -0.7413  1.0283
  645TIP3    H223495   0.289   1.775   1.867 -0.2630 -0.0211 -0.0346
  646TIP3   OH223496   5.161   3.120   8.798  0.5615 -0.1041 -0.2136
  646TIP3    H123497   5.158   3.216   8.800 -2.9946 -0.0289 -1.4971
  646TIP3    H223498   5.108   3.096   8.722 -1.4171 -3.1040  1.8881
  647TIP3   OH223499   6.205   4.435   0.779 -0.5225  0.5571  0.3610
  647TIP3    H123500   6.126   4.486   0.799 -1.3697 -1.4185  2.6102
  647TIP3    H223501   6.224   4.388   0.861  1.1552 -1.4335 -1.0657
  648TIP3   OH223502   1.977   3.569   1.611 -0.5386  0.0086 -0.4239
  648TIP3    H123503   2.065   3.539   1.586 -0.5542 -0.1815 -0.2549
  648TIP3    H223504   1.922   3.545   1.537 -0.2100  1.3815 -1.1571
  649TIP3   OH223505   6.042   1.694   4.027  0.2603 -0.0354  0.3033
  649TIP3    H123506   6.109   1.699   3.959 -0.8878 -1.7372 -1.0662
  649TIP3    H223507   5.960   1.681   3.978 -0.7491 -0.3617  2.0029
  650TIP3   OH223508   3.210   0.895   1.991  0.5177 -0.3375 -0.4735
  650TIP3    H123509   3.181   0.977   1.951  0.4045  0.7266  1.6587
  650TIP3    H223510   3.227   0.917   2.083  2.9670 -2.1130 -0.3854
  651TIP3   OH223511   3.248   4.097   1.802 -0.6047 -0.7882  0.3423
  651TIP3    H123512   3.260   4.192   1.798  1.1237 -0.8885  1.7190
  651TIP3    H223513   3.277   4.073   1.891 -1.3419 -2.5595  0.1477
  652TIP3   OH223514   2.973   0.337   2.498  0.4420 -0.9654  0.2190
  652TIP3    H123515   2.939   0.249   2.479 -0.1931 -0.7390  0.2875
  652TIP3    H223516   3.006   0.331   2.587  0.8464 -1.2624  0.0547
  653TIP3   OH223517   0.006   0.042   4.477  0.0203  0.1058  0.4806
  653TIP3    H123518   0.092   0.050   4.434 -0.2379 -1.4395 -0.4085
  653TIP3    H223519  -0.056   0.071   4.410 -0.4360 -2.9065 -0.5610
  654TIP3   OH223520   4.286   5.558   1.786 -0.2323  0.2289  0.4914
  654TIP3    H123521   4.376   5.576   1.760 -0.9325  0.6479 -1.9724
  654TIP3    H223522   4.241   5.540   1.703 -2.4493  0.2458  1.6247
  655TIP3   OH223523   1.357   3.629   8.793 -0.0677  0.0307 -0.2061
  655TIP3    H123524   1.281   3.686   8.786 -0.4804 -0.5067 -0.1601
  655TIP3    H223525   1.423   3.683   8.837 -0.5710  0.3556  0.1622
  656TIP3   OH223526   2.451   2.836   3.618  0.3619 -0.0099  0.2225
  656TIP3    H123527   2.503   2.821   3.539  1.1912 -1.0478  0.9337
  656TIP3    H223528   2.494   2.911   3.660  0.8753 -0.4376  0.4664
  657TIP3   OH223529   1.705   1.504   0.886 -0.4718 -0.3436 -0.2691
  657TIP3    H123530   1.619   1.469   0.862 -1.3100  0.8996  0.8080
  657TIP3    H223531   1.696   1.528   0.978  0.4665  1.4418 -0.5992
  658TIP3   OH223532   1.706   0.748   3.694  0.4887 -0.3245  0.3662
  658TIP3    H123533   1.662   0.693   3.629 -0.0498 -0.4392  0.8125
  658TIP3    H223534   1.745   0.819   3.643 -0.4628 -0.0668 -0.0281
  659TIP3   OH223535   2.791   4.838   4.066  0.1016 -0.1509 -0.3210
  659TIP3    H123536   2.733   4.783   4.014 -1.2807  0.4897  0.4880
  659TIP3    H223537   2.795   4.794   4.152  0.1315  0.2511 -0.1151
  660TIP3   OH223538   6.677   2.017   2.517  0.2516  0.5396  0.0353
  660TIP3    H123539   6.763   1.989   2.548 -0.9193 -1.5943  1.6769
  660TIP3    H223540   6.660   1.962   2.441 -0.1859 -0.0329  0.5336
  661TIP3   OH223541   2.419   0.840   3.326  0.1916  0.1254  0.1416
  661TIP3    H123542   2.359   0.898   3.278 -1.0381  0.0330  1.4825
  661TIP3    H223543   2.418   0.759   3.276 -0.8418  0.1222  0.1426
  662TIP3   OH223544   4.556   4.610   0.975 -0.1259  0.1943  0.1341
  662TIP3    H123545   4.604   4.689   0.949 -0.0975  0.6422  1.4663
  662TIP3    H223546   4.620   4.558   1.023 -0.4084 -0.1806  0.1055
  663TIP3   OH223547   2.749   6.477   1.297 -0.0932 -0.0497 -0.2969
  663TIP3    H123548   2.707   6.538   1.235 -2.7321 -0.0572  1.3262
  663TIP3    H223549   2.832   6.455   1.256 -1.2512  0.7226 -3.3651
  664TIP3   OH223550   1.721   2.519   8.686  0.0180 -0.3783 -0.3395
  664TIP3    H123551   1.651   2.489   8.629  0.0827  0.3276 -0.7972
  664TIP3    H223552   1.677   2.574   8.751 -0.0632 -1.2203  0.3350
  665TIP3   OH223553   0.335   1.647   8.662 -0.1820  0.3753  0.1164
  665TIP3    H123554   0.402   1.587   8.630 -1.8574 -1.7471  0.2936
  665TIP3    H223555   0.289   1.597   8.729 -2.6830  1.2353 -0.8340
  666TIP3   OH223556   2.117   0.372   2.168  0.1396 -0.3894 -0.2690
  666TIP3    H123557   2.088   0.420   2.090 -0.6137 -1.2002 -0.5097
  666TIP3    H223558   2.166   0.436   2.219 -0.3527  0.4763 -0.8576
  667TIP3   OH223559   3.174   1.862   1.027 -0.1376  0.5589 -0.4366
  667TIP3    H123560   3.259   1.818   1.030 -0.2501  0.3944  0.3804
  667TIP3    H223561   3.130   1.837   1.108 -0.2469  2.0803  0.0046
  668TIP3   OH223562   3.506   2.192   4.437  0.2684 -0.5649  0.1555
  668TIP3    H123563   3.557   2.112   4.423  0.2731 -0.6664  0.7413
  668TIP3    H223564   3.537   2.226   4.521 -1.4196 -1.2467  1.1022
  669TIP3   OH223565   6.373   2.097   2.925 -0.4988 -0.3425 -0.8010
  669TIP3    H123566   6.376   2.042   3.003  1.7743  2.3815  1.2917
  669TIP3    H223567   6.336   2.042   2.857  0.3153 -3.9162  1.3971
  670TIP3   OH223568   2.654   3.987   3.918 -0.1342 -0.3862 -0.4495
  670TIP3    H123569   2.725   3.983   3.855 -0.8137 -1.0180 -1.1944
  670TIP3    H223570   2.678   4.058   3.978  1.1729 -0.6826 -0.6067
  671TIP3   OH223571   2.854   0.244   0.797  0.3048  0.2142 -0.1245
  671TIP3    H123572   2.842   0.273   0.887 -2.3098  0.9073 -0.6237
  671TIP3    H223573   2.875   0.151   0.804  0.2318  0.2758  1.1714
  672TIP3   OH223574   1.798   4.820   4.038  0.5473 -0.1720 -0.0754
  672TIP3    H123575   1.779   4.753   3.973  0.0491  1.1135 -1.2988
  672TIP3    H223576   1.764   4.784   4.120 -1.2649 -0.7010 -1.0035
  673TIP3   OH223577   6.593   6.596   1.313  0.2310 -0.1388 -0.3946
  673TIP3    H123578   6.591   6.691   1.325 -1.3437 -0.0560 -0.9881
  673TIP3    H223579   6.501   6.570   1.318  0.6906 -1.7401  0.4559
  674TIP3   OH223580   5.764   1.729   5.142 -0.3334 -0.3544 -0.0819
  674TIP3    H123581   5.737   1.642   5.114 -0.4041 -0.1641 -0.6092
  674TIP3    H223582   5.691   1.760   5.197  0.6949 -1.5441  2.0582
  675TIP3   OH223583   1.338   6.189   4.015 -0.3972  0.0460 -0.0990
  675TIP3    H123584   1.345   6.249   3.941 -0.6343 -0.9628 -0.9601
  675TIP3    H223585   1.296   6.241   4.084  0.0265  1.0615 -0.5859
  676TIP3   OH223586   1.985   2.460   3.307  0.4814  0.6120  0.5507
  676TIP3    H123587   1.986   2.475   3.213 -2.7466  1.7944  0.5679
  676TIP3    H223588   1.929   2.530   3.342 -0.0893 -0.9530  3.0691
  677TIP3   OH223589   0.356   4.892   2.879 -0.4867 -0.1851  0.1107
  677TIP3    H123590   0.357   4.986   2.895 -0.2391 -0.1088 -0.3507
  677TIP3    H223591   0.354   4.853   2.966  0.1652  0.2338  0.3152
  678TIP3   OH223592   5.924   0.849   2.644  0.0042  0.2817 -0.1428
  678TIP3    H123593   5.874   0.844   2.725 -1.6123 -0.2907 -1.1379
  678TIP3    H223594   6.000   0.792   2.659 -0.9326 -0.8297  0.5311
  679TIP3   OH223595   5.260   2.905   3.942 -0.1946  0.0609  0.1157
  679TIP3    H123596   5.268   2.813   3.968 -0.6769  0.3651  1.4026
  679TIP3    H223597   5.274   2.954   4.023  3.1371  1.3049 -1.0374
  680TIP3   OH223598   5.474   0.681   1.519 -0.7074 -0.0228  0.1188
  680TIP3    H123599   5.384   0.656   1.538 -0.7450 -0.9947 -1.2332
  680TIP3    H223600   5.498   0.630   1.442  1.3674 -0.5640  1.0634
  681TIP3   OH223601   2.530   5.892   1.222  0.6754 -0.5984 -0.7177
  681TIP3    H123602   2.538   5.870   1.129 -0.3809 -1.0327 -0.7288
  681TIP3    H223603   2.453   5.842   1.251 -0.5479  1.4491 -0.2128
  682TIP3   OH223604   3.688   3.571   1.428  0.4849  0.0830  0.1330
  682TIP3    H123605   3.635   3.492   1.428 -0.8757  0.9633  0.2678
  682TIP3    H223606   3.627   3.641   1.452  0.9357  1.6634 -2.8542
  683TIP3   OH223607   4.353   4.751   3.057 -0.0105  0.7825  0.1363
  683TIP3    H123608   4.344   4.658   3.080 -0.1792  0.6327 -0.5019
  683TIP3    H223609   4.432   4.780   3.102  1.4171 -0.2975 -1.5248
  684TIP3   OH223610   1.760   3.460   3.495  0.5058 -0.2738 -0.5008
  684TIP3    H123611   1.678   3.423   3.465  1.3150 -0.6240 -2.4371
  684TIP3    H223612   1.790   3.515   3.422  2.0485 -0.2807  0.0886
  685TIP3   OH223613   5.638   3.737   1.619 -0.0709 -0.2680  0.1749
  685TIP3    H123614   5.555   3.691   1.607 -0.5517  0.5750  0.1889
  685TIP3    H223615   5.662   3.768   1.532  0.4306 -0.8379  0.1052
  686TIP3   OH223616   2.000   1.276   2.952 -0.0098 -0.1865 -0.5771
  686TIP3    H123617   1.946   1.230   3.017  0.3416  0.3069  0.0790
  686TIP3    H223618   2.040   1.347   3.001  2.5520 -1.4941 -0.6201
  687TIP3   OH223619   3.096   3.580   1.970 -0.1252 -0.2145 -0.3993
  687TIP3    H123620   3.130   3.669   1.975  0.4166 -0.3631 -1.2140
  687TIP3    H223621   3.173   3.524   1.981 -0.2576 -0.5671 -1.1331
  688TIP3   OH223622   3.115   0.620   2.483  0.6964  0.0034  0.2285
  688TIP3    H123623   3.180   0.554   2.507  2.1701  1.0628 -0.6734
  688TIP3    H223624   3.067   0.580   2.410  2.0255  0.1393 -0.7622
  689TIP3   OH223625   2.163   2.181   1.098 -0.4774  0.8520 -0.5479
  689TIP3    H123626   2.070   2.181   1.120 -0.2601  1.3150  0.4091
  689TIP3    H223627   2.206   2.217   1.175  0.4794  0.8739 -1.0775
  690TIP3   OH223628   1.765   2.375   2.161 -0.0646  0.3345  0.3128
  690TIP3    H123629   1.699   2.369   2.231 -0.7855 -0.8443 -0.4244
  690TIP3    H223630   1.731   2.442   2.102  0.9893  1.9854  1.4908
  691TIP3   OH223631   2.024   5.822   3.708 -0.2266  0.6866 -0.2026
  691TIP3    H123632   1.939   5.784   3.732  0.8142 -0.5470  1.7784
  691TIP3    H223633   2.049   5.776   3.628  0.6061 -2.4017  1.6766
  692TIP3   OH223634   0.304   4.024   2.458  0.4470 -0.5060 -0.2680
  692TIP3    H123635   0.357   3.955   2.499  0.1943  1.0816  3.0363
  692TIP3    H223636   0.218   4.015   2.498 -0.4708 -0.0374 -2.0099
  693TIP3   OH223637   3.116   6.740   0.957  0.5628  0.1164 -0.2245
  693TIP3    H123638   3.104   6.726   1.051  1.6803 -1.3987 -0.2850
  693TIP3    H223639   3.203   6.705   0.938  0.1724 -0.0148 -1.9168
  694TIP3   OH223640   0.349   1.766   4.365 -0.6832 -0.4227 -0.1070
  694TIP3    H123641   0.364   1.800   4.453 -0.7864  0.2056 -0.3307
  694TIP3    H223642   0.305   1.837   4.318 -2.2992 -1.4066 -0.1415
  695TIP3   OH223643   5.465   2.891   3.728  0.0625 -0.3070 -0.3663
  695TIP3    H123644   5.390   2.913   3.783 -0.2584  0.5807 -1.1140
  695TIP3    H223645   5.531   2.858   3.788 -1.5234 -2.8450  0.1307
  696TIP3   OH223646   1.054   6.100   3.875  0.2493 -0.6707 -0.6028
  696TIP3    H123647   1.017   6.117   3.788 -0.5759 -1.2175 -0.3651
  696TIP3    H223648   1.130   6.044   3.858  1.4295  1.0051 -1.1532
  697TIP3   OH223649   1.928   5.243   0.551 -0.0114  0.0522 -0.0945
  697TIP3    H123650   1.959   5.249   0.642 -0.2092  2.1877 -0.1118
  697TIP3    H223651   1.991   5.295   0.501 -0.1795 -0.7042 -1.1136
  698TIP3   OH223652   5.139   6.575   4.486  0.4505  0.0773 -0.1376
  698TIP3    H123653   5.049   6.551   4.511 -0.3683 -0.4270 -3.1563
  698TIP3    H223654   5.182   6.492   4.470  0.0276  0.2922 -2.9329
  699TIP3   OH223655   3.738   6.789   3.391  0.0353 -0.0382  0.0736
  699TIP3    H123656   3.734   6.882   3.415  0.2988  0.2259 -0.8859
  699TIP3    H223657   3.716   6.787   3.298 -0.6145 -1.0140  0.2340
  700TIP3   OH223658   1.120   4.324   0.306  0.8632 -0.4899 -0.0616
  700TIP3    H123659   1.156   4.237   0.291 -1.4408 -1.7425  1.0976
  700TIP3    H223660   1.085   4.350   0.220  0.4514 -1.2893 -0.1483
  701TIP3   OH223661   4.823   1.440   2.978 -0.2738  0.1106  0.1883
  701TIP3    H123662   4.902   1.404   2.939 -0.5797 -0.1718 -0.1792
  701TIP3    H223663   4.836   1.429   3.072  0.4641  0.7830  0.1736
  702TIP3   OH223664   3.138   5.393   4.140 -0.3297  0.7908  0.4993
  702TIP3    H123665   3.077   5.383   4.066  0.7404  0.0268 -0.3092
  702TIP3    H223666   3.148   5.305   4.175 -1.1934  1.2142  1.9051
  703TIP3   OH223667   0.900   2.474   0.511 -0.0584  0.3233  0.4671
  703TIP3    H123668   0.876   2.480   0.604  1.9869 -1.2906  1.1571
  703TIP3    H223669   0.865   2.389   0.483  1.5621 -0.3833  0.5054
  704TIP3   OH223670   2.215   3.215   3.928 -0.0499  0.0563 -0.0119
  704TIP3    H123671   2.230   3.284   3.994 -2.1516 -0.0991  0.7125
  704TIP3    H223672   2.121   3.215   3.916  0.0872 -1.5599 -1.2893
  705TIP3   OH223673   3.671   1.246   0.201 -0.0589 -0.0631 -0.9122
  705TIP3    H123674   3.728   1.210   0.133  2.1909  0.8798  0.3510
  705TIP3    H223675   3.635   1.325   0.162  2.6566  1.4857 -0.5258
  706TIP3   OH223676   2.553   3.060   1.363  0.1771  0.0362  0.4425
  706TIP3    H123677   2.638   3.067   1.320 -0.7592  1.1673 -1.3727
  706TIP3    H223678   2.567   2.997   1.434  2.5237  0.2492  0.2662
  707TIP3   OH223679   2.605   1.777   0.647 -0.2400 -0.0576 -0.7546
  707TIP3    H123680   2.515   1.743   0.643 -0.7628  1.1042  0.6546
  707TIP3    H223681   2.597   1.862   0.689  1.7032 -0.5871  0.8441
  708TIP3   OH223682   5.336   2.380   8.721 -0.5760 -0.3923 -0.5295
  708TIP3    H123683   5.246   2.392   8.748 -0.2213 -0.8280  0.9118
  708TIP3    H223684   5.337   2.404   8.628 -1.5530  2.5886  0.1175
  709TIP3   OH223685   1.669   6.648   2.577  0.2955 -0.0017  0.3090
  709TIP3    H123686   1.746   6.683   2.622 -0.2272 -0.6410  1.7309
  709TIP3    H223687   1.650   6.565   2.621  0.5609 -1.3626 -1.9751
  710TIP3   OH223688   3.848   2.537   3.480 -0.2367 -0.4801  0.1828
  710TIP3    H123689   3.883   2.588   3.407  0.5782 -0.9355  0.2424
  710TIP3    H223690   3.778   2.592   3.516  1.2184  1.0438  0.8365
  711TIP3   OH223691   4.136   5.132   4.369 -0.0851  0.0579 -0.9206
  711TIP3    H123692   4.068   5.200   4.371  3.2404  3.7041 -0.9011
  711TIP3    H223693   4.199   5.163   4.304  3.4422 -1.0570  1.6940
  712TIP3   OH223694   6.425   6.732   3.272  0.0372 -0.2774  0.0083
  712TIP3    H123695   6.427   6.824   3.245  0.8709  0.4354  2.2624
  712TIP3    H223696   6.333   6.706   3.266 -0.2113  0.6977 -0.6027
  713TIP3   OH223697   3.507   0.452   3.331  0.2648  1.0141  0.3377
  713TIP3    H123698   3.502   0.356   3.332 -1.1767  0.8352 -3.9535
  713TIP3    H223699   3.420   0.480   3.359 -1.2545  0.6804 -3.4702
  714TIP3   OH223700   0.483   3.530   0.148 -0.0048  0.0672 -0.1421
  714TIP3    H123701   0.509   3.444   0.114 -1.0266  0.0030 -0.8284
  714TIP3    H223702   0.565   3.574   0.170  0.5163 -1.2750  0.6987
  715TIP3   OH223703   3.014   4.701   1.303  0.4995 -0.2352  0.1603
  715TIP3    H123704   2.948   4.754   1.348 -0.3039 -0.9417 -0.1469
  715TIP3    H223705   3.088   4.760   1.289 -0.9061  1.2472 -1.4733
  716TIP3   OH223706   3.117   4.836   2.851 -0.0556  0.2884 -0.6246
  716TIP3    H123707   3.098   4.815   2.759 -0.8433  0.6410 -0.5452
  716TIP3    H223708   3.045   4.892   2.879  0.2394  0.2819  0.1831
  717TIP3   OH223709   5.477   0.318   2.063 -0.1199  0.0073  0.6005
  717TIP3    H123710   5.521   0.233   2.060 -2.4022 -1.2822  0.9506
  717TIP3    H223711   5.508   0.364   1.985 -0.4202 -2.0155 -0.7929
  718TIP3   OH223712   4.653   5.256   1.537 -0.5045  0.4904  0.0851
  718TIP3    H123713   4.610   5.228   1.457 -1.3345  2.1978 -0.1129
  718TIP3    H223714   4.681   5.346   1.519  0.2450  0.5402  1.3486
  719TIP3   OH223715   0.424   1.560   4.145  0.6611  0.1009  0.1504
  719TIP3    H123716   0.509   1.602   4.163 -0.1470  1.5733  0.7187
  719TIP3    H223717   0.381   1.557   4.231 -0.0758 -0.1205 -0.2258
  720TIP3   OH223718   4.913   2.623   2.120  0.1991  0.0410 -0.8946
  720TIP3    H123719   4.902   2.717   2.126 -0.0916 -0.0885  1.6090
  720TIP3    H223720   4.824   2.588   2.120  0.2752 -0.3203  1.8109
  721TIP3   OH223721   0.409   1.920   2.609 -0.4896 -0.4215  0.2530
  721TIP3    H123722   0.485   1.959   2.566 -1.0883  0.0760 -0.3689
  721TIP3    H223723   0.393   1.977   2.685 -0.2279 -0.5439  0.4012
  722TIP3   OH223724   5.527   6.244   0.829 -0.1587  0.2010 -0.8915
  722TIP3    H123725   5.561   6.311   0.888  1.5800  0.7847 -2.4461
  722TIP3    H223726   5.459   6.199   0.879  0.7448  1.1190  1.2650
  723TIP3   OH223727   5.336   3.980   3.641  0.3440 -0.9798 -0.3014
  723TIP3    H123728   5.405   4.041   3.615  0.9474 -2.1007 -1.4120
  723TIP3    H223729   5.367   3.895   3.612 -0.2439 -1.9339  1.6808
  724TIP3   OH223730   2.776   2.225   2.027  0.0302  0.4017 -0.4238
  724TIP3    H123731   2.697   2.267   1.993 -0.5360  0.0509  0.4132
  724TIP3    H223732   2.835   2.298   2.046 -0.1066  0.6731 -1.0112
  725TIP3   OH223733   1.596   2.897   0.820  0.0467 -0.3508 -0.3036
  725TIP3    H123734   1.659   2.876   0.889  1.7044  0.2121 -1.5814
  725TIP3    H223735   1.586   2.815   0.771  0.6714 -0.1497 -0.7743
  726TIP3   OH223736   6.795   6.607   2.043 -0.1007  0.2843 -0.4481
  726TIP3    H123737   6.730   6.598   2.113 -0.3324  0.6686 -0.6107
  726TIP3    H223738   6.826   6.518   2.027  1.5848  0.4224  1.6650
  727TIP3   OH223739   5.801   0.585   4.378  0.0265  0.3299  0.3173
  727TIP3    H123740   5.730   0.535   4.338 -1.7556  2.6348  0.3805
  727TIP3    H223741   5.824   0.651   4.312  2.3408 -0.4751  0.2060
  728TIP3   OH223742   3.487   3.012   4.353  0.4014 -0.6405 -0.0413
  728TIP3    H123743   3.506   2.973   4.438  0.0819 -1.4593 -0.3252
  728TIP3    H223744   3.457   2.938   4.300 -0.3690  0.0278 -0.5634
  729TIP3   OH223745   0.032   1.889   3.500 -0.2754 -0.1315 -0.4118
  729TIP3    H123746  -0.001   1.914   3.414 -0.9830  0.5878  0.0568
  729TIP3    H223747  -0.002   1.800   3.514  0.0119 -0.3324 -0.9441
  730TIP3   OH223748   1.751   0.042   1.528  0.3353  0.1656 -0.1036
  730TIP3    H123749   1.835   0.004   1.556  0.2525  0.1633  0.1472
  730TIP3    H223750   1.774   0.129   1.497  0.6164 -0.2982 -1.2484
  731TIP3   OH223751   0.297   3.444   1.732  0.4608 -0.3077 -0.0398
  731TIP3    H123752   0.385   3.464   1.762  0.4153 -2.2954  1.6976
  731TIP3    H223753   0.242   3.513   1.770  1.0880  0.1052  0.1251
  732TIP3   OH223754   6.442   3.097   4.866  0.0475 -0.7954  0.8212
  732TIP3    H123755   6.522   3.056   4.901  1.3681 -0.4006 -1.5049
  732TIP3    H223756   6.395   3.026   4.824 -2.1401 -1.5147  4.1130
  733TIP3   OH223757   6.777   6.049   1.764 -0.0965  0.8420 -1.1920
  733TIP3    H123758   6.708   6.004   1.715 -0.9685  0.0284  0.6765
  733TIP3    H223759   6.793   6.129   1.715 -0.5076 -0.1759 -3.0853
  734TIP3   OH223760   3.213   3.673   2.250  1.3014 -0.2581  0.1486
  734TIP3    H123761   3.226   3.730   2.326 -0.7029  1.9566 -1.0282
  734TIP3    H223762   3.152   3.606   2.281  1.6277 -0.2402  0.8575
  735TIP3   OH223763   4.775   5.066   5.385  0.4632 -0.1393  0.1258
  735TIP3    H123764   4.832   4.988   5.387  1.2939  0.4394 -0.2193
  735TIP3    H223765   4.706   5.044   5.322  2.6446  0.6696 -2.7830
  736TIP3   OH223766   0.319   0.509   0.875  0.4390 -0.1477 -0.6120
  736TIP3    H123767   0.253   0.563   0.831  0.6876 -0.1350 -0.9757
  736TIP3    H223768   0.271   0.432   0.903  0.1611  0.0900 -0.4258
  737TIP3   OH223769   1.302   2.930   1.650  0.2264 -0.6738  0.7299
  737TIP3    H123770   1.283   2.891   1.565 -1.3395 -0.3800  0.9159
  737TIP3    H223771   1.397   2.930   1.656  0.4060  0.2753 -1.4779
  738TIP3   OH223772   3.863   5.122   0.364 -0.2197 -0.4020  0.0985
  738TIP3    H123773   3.855   5.101   0.271  0.9814  0.1925 -0.1612
  738TIP3    H223774   3.856   5.218   0.368 -0.9133 -0.4700  0.7040
  739TIP3   OH223775   6.477   4.460   1.122  0.3936  0.1176 -0.3756
  739TIP3    H123776   6.395   4.474   1.169  0.4207 -1.0476  0.0433
  739TIP3    H223777   6.544   4.462   1.190  0.4069 -1.8831 -0.2772
  740TIP3   OH223778   1.978   0.311   3.772  0.3921  0.3288  0.3490
  740TIP3    H123779   2.056   0.312   3.717  0.2279 -0.8990  0.0874
  740TIP3    H223780   1.910   0.272   3.718  0.0614 -0.2877  1.1839
  741TIP3   OH223781   1.644   0.608   3.389 -0.6657  0.0740  0.0858
  741TIP3    H123782   1.569   0.667   3.398 -2.6305 -1.8114 -2.2678
  741TIP3    H223783   1.669   0.615   3.297  0.5078 -1.0808  0.2947
  742TIP3   OH223784   1.538   3.753   1.602 -0.0359 -0.3561 -0.0303
  742TIP3    H123785   1.466   3.793   1.553  0.7574 -0.8949 -1.7196
  742TIP3    H223786   1.602   3.824   1.612 -0.6076  0.0130  1.1083
  743TIP3   OH223787   5.909   4.317   4.441  0.0808  0.3265 -0.0727
  743TIP3    H123788   5.935   4.364   4.361 -1.1348 -2.0760 -2.0231
  743TIP3    H223789   5.840   4.371   4.479  1.4028  2.0548 -0.0136
  744TIP3   OH223790   0.339   6.606   4.098 -0.2524 -0.7497 -0.1055
  744TIP3    H123791   0.309   6.528   4.145 -1.6996 -0.2619 -0.1548
  744TIP3    H223792   0.408   6.575   4.040  1.9075 -1.3138  2.5635
  745TIP3   OH223793   5.958   2.543   4.186  0.2066  0.1785  0.5267
  745TIP3    H123794   5.993   2.613   4.241  0.2442 -0.8532  1.8901
  745TIP3    H223795   5.871   2.527   4.221  0.1257 -0.3149  0.1094
  746TIP3   OH223796   3.154   1.165   0.509  0.7248  0.6843  0.0019
  746TIP3    H123797   3.187   1.104   0.574 -1.4829 -2.4489 -1.5418
  746TIP3    H223798   3.227   1.179   0.449  1.1206 -1.0585  0.0254
  747TIP3   OH223799   5.913   5.561   0.529  0.0805  0.3724 -0.4453
  747TIP3    H123800   5.918   5.657   0.522 -1.4559  0.3865 -2.0842
  747TIP3    H223801   5.955   5.541   0.613  1.8310  2.3289 -0.7550
  748TIP3   OH223802   5.484   4.053   0.620 -0.6316  0.3936  0.2198
  748TIP3    H123803   5.527   4.039   0.704 -1.1046  0.0721  0.4097
  748TIP3    H223804   5.555   4.050   0.556 -0.2969  0.4298  0.5852
  749TIP3   OH223805   0.965   1.527   2.066  0.5011  0.2674  0.8220
  749TIP3    H123806   1.060   1.526   2.080  0.6304  1.2342  0.0793
  749TIP3    H223807   0.955   1.551   1.974 -0.4759  0.3539  0.9476
  750TIP3   OH223808   1.554   5.693   1.076  0.7659 -0.2550 -0.2897
  750TIP3    H123809   1.647   5.672   1.087  0.6732 -0.0051  1.2851
  750TIP3    H223810   1.514   5.613   1.044  1.1138 -1.2483  1.5773
  751TIP3   OH223811   5.150   3.072   2.497  0.8553 -0.8222  0.2008
  751TIP3    H123812   5.169   3.140   2.562 -1.8349  1.9862 -1.6320
  751TIP3    H223813   5.180   3.110   2.414 -0.3692 -2.0224 -0.8440
  752TIP3   OH223814   3.857   0.392   2.783  0.2103  0.0845  0.0102
  752TIP3    H123815   3.783   0.444   2.754 -0.7535 -0.9680  0.5007
  752TIP3    H223816   3.898   0.361   2.702  1.0608  1.8843 -0.3043
  753TIP3   OH223817   4.299   3.974   2.761 -0.5083 -0.4676  0.1468
  753TIP3    H123818   4.207   3.998   2.775 -0.2205  0.6669  0.1278
  753TIP3    H223819   4.320   4.009   2.675  0.4357  0.8199  0.8656
  754TIP3   OH223820   0.793   4.574   3.757 -0.0265  0.0118  0.1710
  754TIP3    H123821   0.707   4.553   3.722  0.2950 -0.4556 -0.3611
  754TIP3    H223822   0.847   4.594   3.680  0.7174 -1.1330  0.3569
  755TIP3   OH223823   2.193   6.505   3.933  0.4479  0.0656 -0.4995
  755TIP3    H123824   2.212   6.591   3.895 -0.0563  0.7594  0.7948
  755TIP3    H223825   2.209   6.444   3.861  2.5558  1.0583 -0.9511
  756TIP3   OH223826   3.252   5.194   1.079  0.0588 -0.3336  0.6980
  756TIP3    H123827   3.167   5.237   1.082 -0.3594 -1.1325  0.5391
  756TIP3    H223828   3.305   5.242   1.143 -0.8562 -0.5555  1.6575
  757TIP3   OH223829   0.333   3.071   0.100 -0.1732  0.1680  0.0160
  757TIP3    H123830   0.400   3.017   0.058  1.0592  1.7260 -0.1138
  757TIP3    H223831   0.256   3.061   0.045  0.2259 -0.9030 -0.3768
  758TIP3   OH223832   2.279   1.433   2.742 -0.1824 -0.4016 -0.2704
  758TIP3    H123833   2.309   1.518   2.773  0.2792  0.8060 -3.6155
  758TIP3    H223834   2.343   1.371   2.776  0.9691  0.9432  0.1051
  759TIP3   OH223835   4.570   2.096   1.666  0.6310  0.1589 -0.2895
  759TIP3    H123836   4.596   2.037   1.737  0.3562  1.1244  0.6397
  759TIP3    H223837   4.644   2.157   1.657  0.6367  0.0801 -0.7888
  760TIP3   OH223838   1.703   2.015   2.842 -0.5218  0.2684 -0.5055
  760TIP3    H123839   1.637   2.072   2.880 -0.6151 -0.8315  1.0894
  760TIP3    H223840   1.654   1.953   2.789 -1.1413 -1.9567  2.4384
  761TIP3   OH223841   4.426   1.292   2.455  0.0872  0.3689 -0.3256
  761TIP3    H123842   4.384   1.268   2.538  1.4824  0.0525  0.3234
  761TIP3    H223843   4.410   1.386   2.446  0.3491  0.5097  0.5754
  762TIP3   OH223844   6.633   4.483   4.929 -0.2854 -0.3419 -0.0904
  762TIP3    H123845   6.585   4.414   4.974 -0.9996 -0.4444 -0.9799
  762TIP3    H223846   6.696   4.437   4.874 -0.1009 -0.2430  0.0323
  763TIP3   OH223847   0.770   1.728   3.124 -0.1034  0.1052  0.0801
  763TIP3    H123848   0.762   1.784   3.046 -0.5354 -0.4097 -0.2485
  763TIP3    H223849   0.865   1.717   3.135 -0.0334  0.2848 -0.2952
  764TIP3   OH223850   3.476   1.519   3.690 -0.5850 -0.3987 -0.6182
  764TIP3    H123851   3.546   1.467   3.730  0.2454  0.3970 -0.9935
  764TIP3    H223852   3.423   1.549   3.763 -1.5166 -2.3536 -0.4411
  765TIP3   OH223853   6.308   1.093   8.816 -0.4894  0.4696  0.4209
  765TIP3    H123854   6.350   1.176   8.838  1.1218  0.0959 -0.9654
  765TIP3    H223855   6.225   1.118   8.775 -0.3989  1.3591  0.7619
  766TIP3   OH223856   6.205   2.807   0.922 -0.4876  0.0188  0.1007
  766TIP3    H123857   6.177   2.898   0.916 -0.6529 -0.0142  0.3828
  766TIP3    H223858   6.272   2.798   0.854 -1.4284 -0.0038 -0.8559
  767TIP3   OH223859   6.256   3.675   2.048  0.3928 -0.5809  0.0099
  767TIP3    H123860   6.318   3.740   2.015 -0.3873  0.1965  0.0617
  767TIP3    H223861   6.308   3.622   2.109  1.3585 -0.8284 -0.9994
  768TIP3   OH223862   0.492   6.324   2.296  0.1619  0.4067 -0.2458
  768TIP3    H123863   0.521   6.329   2.205  0.2655  0.6915 -0.1955
  768TIP3    H223864   0.539   6.249   2.332 -1.8861 -1.4387 -1.1703
  769TIP3   OH223865   2.562   4.538   8.469 -0.5480  0.1750  0.3783
  769TIP3    H123866   2.595   4.628   8.473  1.3524 -0.4517  0.0809
  769TIP3    H223867   2.471   4.546   8.441 -0.0526  1.9522 -0.8736
  770TIP3   OH223868   0.397   3.155   0.703  0.2884 -0.2873 -0.0869
  770TIP3    H123869   0.443   3.186   0.780 -1.8979  0.6415  0.9532
  770TIP3    H223870   0.308   3.137   0.734 -0.4864 -0.5329 -2.2533
  771TIP3   OH223871   6.331   2.011   0.915  0.2456 -0.4710 -0.0361
  771TIP3    H123872   6.321   2.039   0.824 -0.5940  0.2576  0.2624
  771TIP3    H223873   6.244   1.981   0.941  0.5028 -0.7890  0.4894
  772TIP3   OH223874   5.808   3.764   2.952 -0.5768  0.1750  0.1736
  772TIP3    H123875   5.809   3.693   3.017  1.4255  0.0861  0.1102
  772TIP3    H223876   5.771   3.724   2.874  1.4269 -1.1571 -0.1630
  773TIP3   OH223877   5.712   1.798   4.083 -0.1434 -0.1675  0.8409
  773TIP3    H123878   5.655   1.810   4.007  0.1082  0.8487  0.7902
  773TIP3    H223879   5.730   1.704   4.086  0.3312 -0.1485 -0.7209
  774TIP3   OH223880   3.010   0.774   4.039  0.2021  0.2010 -0.5841
  774TIP3    H123881   3.092   0.822   4.025 -0.0309  1.1515  1.0492
  774TIP3    H223882   2.993   0.782   4.133 -0.4546 -2.1690 -0.4299
  775TIP3   OH223883   2.973   1.181   2.940 -0.5043  0.3935 -0.0288
  775TIP3    H123884   3.025   1.110   2.977 -0.5734  0.3235 -0.0682
  775TIP3    H223885   3.024   1.210   2.864 -1.1997 -0.5871 -0.8862
  776TIP3   OH223886   6.168   4.332   1.817 -0.4430 -0.5622  0.3415
  776TIP3    H123887   6.194   4.396   1.751  0.2607 -1.3851 -0.2031
  776TIP3    H223888   6.089   4.368   1.857 -1.7348 -0.7078 -1.9401
  777TIP3   OH223889   4.398   1.625   1.576  0.1135  0.7911 -0.3033
  777TIP3    H123890   4.341   1.569   1.628 -0.8480  0.7719 -1.3408
  777TIP3    H223891   4.469   1.649   1.636 -0.1564 -0.4368  0.5561
  778TIP3   OH223892   3.818   1.869   2.151 -0.9291 -0.0237  0.5658
  778TIP3    H123893   3.899   1.858   2.102 -0.4407  0.8149  1.1672
  778TIP3    H223894   3.815   1.793   2.210  0.4740  0.9694  1.9871
  779TIP3   OH223895   5.316   0.704   3.311  0.5273  0.1472 -0.5140
  779TIP3    H123896   5.336   0.796   3.292 -4.2816  1.0939 -2.4164
  779TIP3    H223897   5.316   0.699   3.406 -0.2338  2.5137 -0.3175
  780TIP3   OH223898   3.016   4.756   3.591 -0.6751  0.2386  0.4969
  780TIP3    H123899   3.003   4.690   3.659 -1.4380 -0.5811 -0.4237
  780TIP3    H223900   3.030   4.838   3.639 -0.8914 -0.3815  1.6373
  781TIP3   OH223901   4.644   6.787   1.013  0.1005  0.4245  0.6594
  781TIP3    H123902   4.570   6.848   1.019 -0.0843  0.1911  0.7494
  781TIP3    H223903   4.690   6.798   1.096  0.2076  0.6205  0.5753
  782TIP3   OH223904   3.463   0.624   1.421  0.0648  0.2137 -0.0247
  782TIP3    H123905   3.408   0.568   1.367 -0.0260  0.9652 -0.7437
  782TIP3    H223906   3.448   0.594   1.511 -0.2342 -0.6718 -0.3608
  783TIP3   OH223907   6.110   0.147   1.176 -0.1330  0.1499 -0.0357
  783TIP3    H123908   6.139   0.113   1.091  1.9556  1.5295  0.0523
  783TIP3    H223909   6.132   0.078   1.238  3.7200  1.2787  0.0908
  784TIP3   OH223910   2.995   1.384   2.744  0.0490  1.2117 -0.4060
  784TIP3    H123911   2.900   1.375   2.744  0.0009  1.6969  0.0151
  784TIP3    H223912   3.011   1.473   2.712  0.4697  0.2127 -3.3131
  785TIP3   OH223913   6.465   5.906   0.908  0.7158  0.5372 -0.3105
  785TIP3    H123914   6.373   5.900   0.933  0.8273  1.1407  0.2743
  785TIP3    H223915   6.467   5.882   0.816  0.4389 -2.9385  0.4731
  786TIP3   OH223916   3.409   1.133   1.945  0.5714 -0.8920  0.2180
  786TIP3    H123917   3.464   1.205   1.975  0.6567 -0.2882 -1.2745
  786TIP3    H223918   3.322   1.155   1.976  0.4649  0.2494 -0.8039
  787TIP3   OH223919   2.295   3.443   3.098  0.3814 -0.0905  0.2136
  787TIP3    H123920   2.353   3.367   3.099 -0.5697 -0.8377  1.1618
  787TIP3    H223921   2.221   3.416   3.044 -0.9712 -0.6871  2.2328
  788TIP3   OH223922   4.251   6.745   1.164  0.7714 -0.5229  0.3798
  788TIP3    H123923   4.295   6.752   1.080 -0.4143  0.3144 -0.1897
  788TIP3    H223924   4.161   6.773   1.147  0.1079 -1.7975  1.5982
  789TIP3   OH223925   4.784   4.554   2.889  0.0502 -0.5617 -0.4159
  789TIP3    H123926   4.851   4.516   2.945 -0.0832 -0.7802 -0.4057
  789TIP3    H223927   4.803   4.648   2.888  0.1664 -0.5848 -0.1605
  790TIP3   OH223928   4.471   6.143   0.628 -0.3383  0.2799 -0.2053
  790TIP3    H123929   4.466   6.238   0.639  0.3470  0.4144 -0.9907
  790TIP3    H223930   4.418   6.125   0.551 -2.1686 -0.2470  1.0917
  791TIP3   OH223931   0.033   2.309   4.191 -0.6746 -0.2333 -0.2520
  791TIP3    H123932   0.043   2.260   4.109 -0.1993 -0.8605  0.1708
  791TIP3    H223933  -0.047   2.274   4.230 -1.3420  0.6268 -0.8168
  792TIP3   OH223934   6.466   0.604   5.056  0.6730  0.7696 -0.0928
  792TIP3    H123935   6.556   0.617   5.027  0.7625  3.6104  1.1268
  792TIP3    H223936   6.427   0.692   5.053 -1.8498 -0.2727  0.0737
  793TIP3   OH223937   5.032   5.015   2.697 -0.0566  0.7519  0.1690
  793TIP3    H123938   5.099   5.057   2.642  1.1981 -3.0495 -1.5247
  793TIP3    H223939   5.080   4.954   2.751 -2.0252 -2.6858 -1.6280
  794TIP3   OH223940   6.328   4.029   3.451 -0.2845  0.1713  0.4777
  794TIP3    H123941   6.415   4.023   3.490  0.5822  0.0203 -1.3500
  794TIP3    H223942   6.269   3.994   3.517  1.4310 -2.9007  0.5639
  795TIP3   OH223943   5.798   2.139   2.207  0.0226 -0.4273  0.3373
  795TIP3    H123944   5.735   2.199   2.166 -0.8612 -1.7823 -0.3563
  795TIP3    H223945   5.846   2.194   2.270 -1.0785  0.8902  0.0720
  796TIP3   OH223946   0.426   4.284   0.967  0.0422 -0.0981 -0.0481
  796TIP3    H123947   0.447   4.375   0.985 -1.2902  0.5309 -1.4509
  796TIP3    H223948   0.331   4.281   0.961  0.0906 -1.4327 -0.7168
  797TIP3   OH223949   1.259   4.726   2.297 -0.4543  0.0640 -0.0531
  797TIP3    H123950   1.236   4.643   2.254  0.8441 -0.5463  0.3843
  797TIP3    H223951   1.318   4.769   2.236 -0.9027  0.5371 -0.1530
  798TIP3   OH223952   1.659   5.381   1.825  0.9891  0.0385  0.2512
  798TIP3    H123953   1.591   5.373   1.758  0.6848  1.2747  0.3932
  798TIP3    H223954   1.709   5.299   1.818 -1.1650 -1.4242  0.8867
  799TIP3   OH223955   4.667   6.697   3.038  0.2953 -0.0699 -0.2905
  799TIP3    H123956   4.683   6.704   2.943  2.5395  2.4647  0.1366
  799TIP3    H223957   4.733   6.755   3.077 -2.0627  0.8510  2.6960
  800TIP3   OH223958   2.123   6.158   3.054  0.4183  0.0486  0.4064
  800TIP3    H123959   2.158   6.136   3.141  2.1996 -1.5520 -0.6215
  800TIP3    H223960   2.170   6.099   2.995 -2.4846 -0.6362 -1.4053
  801TIP3   OH223961   4.901   5.888   5.194  0.0927  0.1357  0.0555
  801TIP3    H123962   4.960   5.963   5.192 -1.2758  1.2772  0.7216
  801TIP3    H223963   4.919   5.841   5.113  0.6019  1.4938 -0.6473
  802TIP3   OH223964   1.616   6.767   1.244 -0.0297 -0.8428  0.1073
  802TIP3    H123965   1.620   6.678   1.207  0.8473 -0.1105 -1.6777
  802TIP3    H223966   1.707   6.787   1.266  0.2670  0.6211 -2.1595
  803TIP3   OH223967   2.129   1.004   8.623 -0.1779  0.4153  0.0199
  803TIP3    H123968   2.117   0.939   8.553 -0.4493  0.6893 -0.1930
  803TIP3    H223969   2.210   0.978   8.666 -0.2335 -0.0113 -0.1224
  804TIP3   OH223970   6.750   4.336   0.823 -0.1304 -0.2125  0.2022
  804TIP3    H123971   6.748   4.355   0.729  1.3417  2.9559  0.6628
  804TIP3    H223972   6.694   4.259   0.834  2.0601 -2.6122 -3.6175
  805TIP3   OH223973   6.619   5.036   1.604  0.7912  0.2992  0.3038
  805TIP3    H123974   6.539   5.089   1.610  0.2365 -0.3107 -1.2733
  805TIP3    H223975   6.645   5.022   1.695 -0.1782  1.5706  0.8139
  806TIP3   OH223976   1.058   0.526   1.423  0.2913 -0.4709  0.3034
  806TIP3    H123977   1.040   0.540   1.330 -1.6450  1.5251  0.9009
  806TIP3    H223978   1.022   0.440   1.442  0.8909 -0.9969 -0.7914
  807TIP3   OH223979   4.945   3.012   1.984 -0.5593  0.2177  0.2823
  807TIP3    H123980   4.877   2.995   2.049 -1.2520  1.4478 -0.0971
  807TIP3    H223981   4.921   2.957   1.909 -0.7421  0.1253  0.4074
  808TIP3   OH223982   2.181   4.654   2.345 -0.8817  0.3057  0.0258
  808TIP3    H123983   2.140   4.625   2.426 -1.4816  3.1477  0.8288
  808TIP3    H223984   2.108   4.665   2.284 -0.3587 -2.7029 -1.3336
  809TIP3   OH223985   5.515   5.711   1.123 -0.0590 -0.3439 -0.1746
  809TIP3    H123986   5.428   5.694   1.159 -0.0503 -0.5620 -0.2538
  809TIP3    H223987   5.501   5.780   1.058 -0.1336 -0.2117 -0.0178
  810TIP3   OH223988   4.643   3.391   1.523 -0.1776 -0.5721 -0.2669
  810TIP3    H123989   4.569   3.344   1.561  0.4156 -0.0124  1.7383
  810TIP3    H223990   4.715   3.328   1.523  0.0428 -0.3292  0.3588
  811TIP3   OH223991   1.526   1.261   2.734  0.0158  0.3474  0.0098
  811TIP3    H123992   1.568   1.317   2.799  2.0730  0.1350 -1.0701
  811TIP3    H223993   1.560   1.291   2.650  2.8019 -3.6219 -0.5521
  812TIP3   OH223994   1.706   3.822   2.091 -0.1016  0.0671 -0.3981
  812TIP3    H123995   1.674   3.882   2.023 -1.3445  1.5100  1.3470
  812TIP3    H223996   1.787   3.863   2.123  1.5677 -1.6069 -2.2169
  813TIP3   OH223997   4.991   6.104   3.405  0.2727 -0.3030 -0.2083
  813TIP3    H123998   4.901   6.070   3.406  0.3158 -0.5286  1.9806
  813TIP3    H223999   4.986   6.183   3.352 -1.2598 -0.2662 -0.0611
  814TIP3   OH224000   1.863   3.342   4.192  0.4641  0.3963 -0.2130
  814TIP3    H124001   1.804   3.329   4.117 -1.1999  1.8475  0.7817
  814TIP3    H224002   1.896   3.431   4.181  0.0940  0.6728  0.8268
  815TIP3   OH224003   3.654   2.303   1.689 -0.9030 -0.1135 -0.2862
  815TIP3    H124004   3.649   2.398   1.704 -1.8694 -0.3004  0.6637
  815TIP3    H224005   3.674   2.266   1.775  0.6227 -0.7208 -0.8522
  816TIP3   OH224006   0.095   2.598   8.630 -0.6632 -0.0395 -0.0448
  816TIP3    H124007   0.105   2.522   8.573 -1.2654 -0.3913  0.3116
  816TIP3    H224008   0.015   2.581   8.679 -0.4852  0.5500  0.4636
  817TIP3   OH224009   0.221   2.220   3.598  0.2198 -0.0592 -0.4704
  817TIP3    H124010   0.309   2.195   3.572  0.5289 -0.1812  0.6527
  817TIP3    H224011   0.207   2.305   3.557  0.3471 -0.6236 -1.7370
  818TIP3   OH224012   6.447   1.939   1.205 -0.0669 -0.3441  0.1023
  818TIP3    H124013   6.429   1.944   1.110  0.4878 -0.8761 -0.0355
  818TIP3    H224014   6.390   2.005   1.243  0.6068  0.7491 -0.7260
  819TIP3   OH224015   4.919   6.392   4.340 -0.5572  0.2723  0.1496
  819TIP3    H124016   4.963   6.315   4.304  0.5551  1.1123 -0.3213
  819TIP3    H224017   4.870   6.358   4.415 -0.9660 -1.0789 -0.6884
  820TIP3   OH224018   1.256   5.777   1.288 -0.2409 -0.2806  0.7599
  820TIP3    H124019   1.208   5.805   1.209  0.8196 -0.8320 -0.0998
  820TIP3    H224020   1.299   5.696   1.262  0.4150 -0.2771  1.8053
  821TIP3   OH224021   6.565   2.363   1.242  1.2746  0.5032 -0.2804
  821TIP3    H124022   6.584   2.273   1.214  0.9917  0.1820  0.5145
  821TIP3    H224023   6.651   2.405   1.245  1.6599 -0.3187  1.2042
  822TIP3   OH224024   0.894   5.750   3.740 -0.5606 -0.1334  0.4041
  822TIP3    H124025   0.815   5.797   3.768 -1.2139 -1.3770  0.7344
  822TIP3    H224026   0.958   5.818   3.723 -1.2469  0.8327  1.5760
  823TIP3   OH224027   6.336   3.131   0.201 -0.2756  0.3166  0.7265
  823TIP3    H124028   6.345   3.223   0.176 -0.1101 -0.0504 -0.6105
  823TIP3    H224029   6.383   3.083   0.133  1.5972 -0.6564  2.5784
  824TIP3   OH224030   1.260   2.373   1.713  0.8361  0.1146  0.0985
  824TIP3    H124031   1.221   2.457   1.737  2.5973  1.4731 -1.4871
  824TIP3    H224032   1.253   2.320   1.792  0.5453  2.1040  1.4853
  825TIP3   OH224033   5.022   1.793   3.286 -0.2950  0.3989 -0.1722
  825TIP3    H124034   5.070   1.757   3.361 -1.6220  0.2167  0.6310
  825TIP3    H224035   5.047   1.885   3.283 -0.9300  0.6431  1.1203
  826TIP3   OH224036   2.226   5.724   0.157 -0.1073 -0.3147  0.6076
  826TIP3    H124037   2.143   5.765   0.182 -0.0673  0.9878 -1.1518
  826TIP3    H224038   2.201   5.636   0.130 -1.1065  0.3370 -0.7393
  827TIP3   OH224039   1.664   3.369   3.955  0.1887  0.0894 -0.3025
  827TIP3    H124040   1.607   3.415   4.016  0.3832 -1.0911  0.8260
  827TIP3    H224041   1.647   3.409   3.870 -0.3374  1.5607  0.4643
  828TIP3   OH224042   4.570   5.294   1.262 -0.2499  0.2187  0.1584
  828TIP3    H124043   4.572   5.255   1.175 -1.8310  0.9067 -0.2230
  828TIP3    H224044   4.488   5.342   1.265 -0.3419  0.0290  2.1222
  829TIP3   OH224045   2.356   1.900   2.379  0.4100  0.1533 -0.0586
  829TIP3    H124046   2.361   1.995   2.374 -0.2887  0.1321 -2.2088
  829TIP3    H224047   2.330   1.872   2.291  1.6278 -2.1118  0.2085
  830TIP3   OH224048   1.986   3.094   0.329  0.2032  0.2466 -0.2115
  830TIP3    H124049   2.009   3.181   0.298  1.6125  0.9754  2.5719
  830TIP3    H224050   1.901   3.076   0.289  1.3988  1.3339 -3.6440
  831TIP3   OH224051   4.753   6.139   3.147 -0.0573  0.2253 -0.5005
  831TIP3    H124052   4.716   6.124   3.234 -0.3030  0.2630 -0.5992
  831TIP3    H224053   4.682   6.178   3.097 -0.5492 -1.5816 -1.2930
  832TIP3   OH224054   2.746   5.616   2.960 -0.0350 -0.6148  0.0536
  832TIP3    H124055   2.745   5.575   3.047  1.6771 -1.1188 -0.1319
  832TIP3    H224056   2.818   5.679   2.964 -1.2670  0.8815 -0.3643
  833TIP3   OH224057   1.014   1.575   1.559 -0.6455 -0.4326 -0.0035
  833TIP3    H124058   0.961   1.626   1.497  0.1987  1.8600  1.0597
  833TIP3    H224059   0.982   1.602   1.645 -0.1631 -1.7675  0.6219
  834TIP3   OH224060   5.027   5.716   3.605 -0.5488 -0.6050  0.3315
  834TIP3    H124061   5.062   5.687   3.521 -1.4307 -1.9725  0.4181
  834TIP3    H224062   5.002   5.636   3.650  0.5264  0.0597  2.2042
  835TIP3   OH224063   5.811   4.285   0.788 -0.0657  0.1883 -0.1689
  835TIP3    H124064   5.878   4.323   0.731  0.7179 -0.4922  0.2719
  835TIP3    H224065   5.780   4.359   0.841  0.8781  0.3841  0.1292
  836TIP3   OH224066   3.656   1.767   1.156 -0.1417 -0.3206  0.7762
  836TIP3    H124067   3.583   1.708   1.175 -0.1800 -1.2227 -1.8065
  836TIP3    H224068   3.733   1.720   1.185 -0.1563 -1.8293 -1.4103
  837TIP3   OH224069   2.960   4.556   3.790 -0.0898  0.2944  0.7306
  837TIP3    H124070   2.914   4.474   3.769  0.1899  0.6293 -1.4529
  837TIP3    H224071   2.897   4.605   3.843 -1.9283  0.3023 -1.2920
  838TIP3   OH224072   4.999   5.801   2.480 -0.6289 -0.0284  0.1123
  838TIP3    H124073   5.094   5.802   2.492 -0.5545  1.6878 -0.4999
  838TIP3    H224074   4.964   5.797   2.569 -0.0321 -3.0536  0.3174
  839TIP3   OH224075   4.981   3.776   3.666 -0.0275  0.4916  0.0476
  839TIP3    H124076   5.013   3.848   3.719  1.0670 -0.4590  0.7199
  839TIP3    H224077   5.037   3.775   3.588 -0.5046  0.8000 -0.3071
  840TIP3   OH224078   0.439   4.036   3.272 -0.2688 -0.2883 -0.5822
  840TIP3    H124079   0.454   3.981   3.348 -0.5651 -1.2291 -1.1938
  840TIP3    H224080   0.348   4.065   3.280 -0.0203  0.3872 -0.0978
  841TIP3   OH224081   0.852   1.908   2.115  0.6103 -0.0469 -0.3756
  841TIP3    H124082   0.809   1.958   2.184  1.6986 -0.0001  0.2947
  841TIP3    H224083   0.781   1.866   2.067 -0.2534  1.1535 -0.1851
  842TIP3   OH224084   5.248   3.705   1.160  0.2646  0.0412  0.9454
  842TIP3    H124085   5.155   3.701   1.138  0.6244 -1.4410 -0.4672
  842TIP3    H224086   5.260   3.636   1.226  0.4721 -0.2245  0.6337
  843TIP3   OH224087   5.710   0.684   2.393 -0.5216 -0.8242  0.1734
  843TIP3    H124088   5.720   0.635   2.475  3.6860 -1.9481 -0.8039
  843TIP3    H224089   5.791   0.734   2.384 -1.6763  0.8284 -2.4283
  844TIP3   OH224090   3.679   5.228   2.536 -0.1062 -0.0023 -0.2447
  844TIP3    H124091   3.696   5.135   2.546  0.0035  0.0729  0.3049
  844TIP3    H224092   3.587   5.239   2.561 -0.0447  0.0761 -0.0517
  845TIP3   OH224093   1.569   4.462   3.349  0.2811  0.0991 -0.7828
  845TIP3    H124094   1.548   4.420   3.433 -0.3316  1.9523  0.0323
  845TIP3    H224095   1.588   4.553   3.372 -1.9422  1.1722 -2.8617
  846TIP3   OH224096   6.682   4.430   4.559 -0.1058 -0.3177 -0.1651
  846TIP3    H124097   6.712   4.410   4.648 -0.2786 -0.1831 -0.0770
  846TIP3    H224098   6.711   4.355   4.507  0.8648  0.0648 -0.1897
  847TIP3   OH224099   2.417   5.332   2.116  0.2394  0.0761  0.6480
  847TIP3    H124100   2.336   5.328   2.065  1.1078 -0.5225 -0.7375
  847TIP3    H224101   2.458   5.246   2.102  0.8745  0.1888  1.7371
  848TIP3   OH224102   1.167   3.352   2.990 -0.5274 -0.3631  0.3889
  848TIP3    H124103   1.191   3.437   2.954 -1.4911  0.5879  1.8457
  848TIP3    H224104   1.071   3.355   2.997 -0.6126 -1.7350  0.0810
  849TIP3   OH224105   4.417   5.701   1.423 -0.1074 -0.1654 -0.1847
  849TIP3    H124106   4.374   5.780   1.457 -0.7676  0.3908 -2.2066
  849TIP3    H224107   4.367   5.629   1.461 -0.8850  0.4341 -0.0478
  850TIP3   OH224108   2.104   4.908   2.743  0.9705 -0.4988  0.6089
  850TIP3    H124109   2.135   4.958   2.818 -0.0676 -0.6555  1.1710
  850TIP3    H224110   2.122   4.964   2.667  0.7308  0.2999  1.1255
  851TIP3   OH224111   1.909   1.394   3.798 -0.3064 -0.7022 -0.2579
  851TIP3    H124112   2.001   1.404   3.771  0.1370  0.7138  1.6098
  851TIP3    H224113   1.899   1.300   3.813  1.1433 -0.7613  0.5007
  852TIP3   OH224114   5.969   5.457   3.162  0.0289 -0.6360 -0.2133
  852TIP3    H124115   6.047   5.512   3.150  1.1817 -1.8772  1.1866
  852TIP3    H224116   5.897   5.514   3.136  1.3534  0.6824 -1.2379
  853TIP3   OH224117   2.959   2.714   1.189 -0.7900 -0.2666 -0.3576
  853TIP3    H124118   2.947   2.659   1.111 -0.6093 -1.5370  0.4859
  853TIP3    H224119   3.044   2.757   1.175 -1.2449  0.3466 -1.3392
  854TIP3   OH224120   4.941   2.597   3.835 -0.6115  0.5926  0.7287
  854TIP3    H124121   4.977   2.647   3.908 -1.5302  0.4026  1.3338
  854TIP3    H224122   4.941   2.506   3.867  1.4746  0.1013 -0.5245
  855TIP3   OH224123   2.266   5.815   1.280 -0.4034  0.2465 -0.1564
  855TIP3    H124124   2.214   5.781   1.208  0.1383 -1.7123  0.3290
  855TIP3    H224125   2.210   5.807   1.357 -1.1725  2.7991 -0.3393
  856TIP3   OH224126   3.807   2.400   1.237 -0.2694 -0.1752  0.0583
  856TIP3    H124127   3.716   2.369   1.233 -0.4529  0.3701 -0.2392
  856TIP3    H224128   3.840   2.367   1.320 -0.5750 -0.8229 -0.0721
  857TIP3   OH224129   2.156   1.241   3.236 -0.2545  0.3615 -0.0668
  857TIP3    H124130   2.130   1.250   3.327 -1.3452 -1.8251 -0.0948
  857TIP3    H224131   2.215   1.315   3.220  1.5310 -0.2474  2.9609
  858TIP3   OH224132   0.392   4.231   1.758 -0.4579  0.0043  0.4705
  858TIP3    H124133   0.401   4.136   1.754 -1.7933 -0.1339 -2.8141
  858TIP3    H224134   0.307   4.246   1.800 -1.2719 -0.4156 -0.9640
  859TIP3   OH224135   4.348   1.934   2.111 -0.4915  0.0591  0.0208
  859TIP3    H124136   4.264   1.970   2.081 -0.1618  0.8607  0.0284
  859TIP3    H224137   4.338   1.839   2.103 -1.6626  0.1119  0.7263
  860TIP3   OH224138   0.650   3.423   2.572  0.0040 -0.4346 -0.3322
  860TIP3    H124139   0.732   3.434   2.620 -1.4708 -0.6422  2.4265
  860TIP3    H224140   0.645   3.328   2.555 -0.0884 -0.5460  0.3048
  861TIP3   OH224141   5.164   3.991   4.512 -0.1379 -0.3011 -0.3620
  861TIP3    H124142   5.233   3.959   4.454 -1.2466 -1.7770 -0.9096
  861TIP3    H224143   5.211   4.041   4.579  1.4959 -1.5013 -0.5471
  862TIP3   OH224144   6.380   0.185   2.462  0.0670 -0.2145  0.3011
  862TIP3    H124145   6.321   0.187   2.537  0.5433  2.0382  0.7020
  862TIP3    H224146   6.454   0.132   2.492 -0.1199 -0.0302  1.1253
  863TIP3   OH224147   1.413   3.382   2.481 -0.3559  0.2075 -0.4967
  863TIP3    H124148   1.424   3.306   2.424 -0.2826 -0.2466  0.1138
  863TIP3    H224149   1.488   3.438   2.462  0.1659 -0.3774 -0.1817
  864TIP3   OH224150   4.126   5.225   3.941 -0.1252 -0.0132  0.0527
  864TIP3    H124151   4.188   5.264   3.879  0.1767 -2.8701 -1.6192
  864TIP3    H224152   4.043   5.223   3.894  0.4152 -3.5291 -1.0487
  865TIP3   OH224153   4.994   1.955   2.702  0.3621 -0.7754  0.2858
  865TIP3    H124154   5.016   1.975   2.611  0.8847 -0.0493  0.5641
  865TIP3    H224155   4.984   2.040   2.744 -0.8892 -1.0936  0.6881
  866TIP3   OH224156   3.143   0.923   2.897  0.1547  0.4056 -0.1291
  866TIP3    H124157   3.125   0.892   2.808  0.0817 -0.7890  0.2853
  866TIP3    H224158   3.110   0.853   2.953  0.7526  0.8769  0.8191
  867TIP3   OH224159   3.607   2.102   3.788 -0.1658  0.0456  0.4392
  867TIP3    H124160   3.654   2.169   3.839 -0.6456 -0.3756  1.4592
  867TIP3    H224161   3.670   2.075   3.721  0.1231  1.3505  0.1436
  868TIP3   OH224162   4.261   1.524   1.781  0.7568  0.0858  0.0807
  868TIP3    H124163   4.166   1.520   1.791  0.3398 -0.5415 -3.1231
  868TIP3    H224164   4.295   1.457   1.840 -0.8758 -0.4876  0.4137
  869TIP3   OH224165   0.488   6.543   2.594 -0.3062  0.0643 -0.3306
  869TIP3    H124166   0.479   6.449   2.573  0.2694 -0.2262  0.6636
  869TIP3    H224167   0.441   6.587   2.523  0.2708 -0.9313 -1.3829
  870TIP3   OH224168   5.686   5.415   2.283  0.1511  0.4183  0.5403
  870TIP3    H124169   5.725   5.362   2.213  0.2126 -0.0886  0.9514
  870TIP3    H224170   5.762   5.448   2.332  0.1823  2.0302 -0.5094
  871TIP3   OH224171   2.264   5.154   4.793  0.1048 -0.0909  0.0340
  871TIP3    H124172   2.358   5.165   4.799  0.2407 -0.8977 -0.4611
  871TIP3    H224173   2.249   5.060   4.803 -0.7702  0.1617  1.4674
  872TIP3   OH224174   3.069   3.708   1.620  0.4526 -0.0258 -0.1491
  872TIP3    H124175   3.156   3.669   1.631  0.5549  0.3809  0.5369
  872TIP3    H224176   3.071   3.747   1.533  1.0248  0.1278 -0.0734
  873TIP3   OH224177   5.678   6.527   1.253  0.4771  0.1994  0.0513
  873TIP3    H124178   5.726   6.459   1.206 -0.5016 -0.6612  0.2744
  873TIP3    H224179   5.624   6.569   1.186  0.2485  0.0168  0.1224
  874TIP3   OH224180   5.475   1.414   8.754  0.9795  0.1325  0.3498
  874TIP3    H124181   5.494   1.419   8.847  0.2487  1.5209  0.4575
  874TIP3    H224182   5.390   1.369   8.749 -1.2444  3.8469  0.7807
  875TIP3   OH224183   6.221   3.571   1.502 -0.1169 -0.2184  0.3740
  875TIP3    H124184   6.137   3.557   1.546  0.2654 -1.1300  0.8413
  875TIP3    H224185   6.233   3.492   1.449 -0.4298  0.7233 -1.1738
  876TIP3   OH224186   1.393   1.809   3.980 -0.1158  0.4963  0.1916
  876TIP3    H124187   1.401   1.738   4.044  0.6902  0.4428  0.0512
  876TIP3    H224188   1.324   1.781   3.920 -1.4512  0.9137  1.4931
  877TIP3   OH224189   2.926   3.261   1.888  0.1001 -0.0847 -0.2556
  877TIP3    H124190   2.912   3.356   1.891  0.4352 -0.0534  0.2576
  877TIP3    H224191   2.855   3.225   1.942  0.1036 -0.1178 -0.2730
  878TIP3   OH224192   0.047   4.441   1.791  0.7223  0.6481 -0.2457
  878TIP3    H124193   0.124   4.409   1.838  2.0542  3.7642 -0.1064
  878TIP3    H224194  -0.027   4.415   1.846  1.6518 -1.6812  0.0420
  879TIP3   OH224195   5.609   4.203   1.595 -0.2632 -0.1501  0.3398
  879TIP3    H124196   5.698   4.205   1.560 -0.3472 -0.0064  0.1349
  879TIP3    H224197   5.621   4.189   1.689  0.0109  1.0886  0.4976
  880TIP3   OH224198   1.226   0.962   1.636  0.1999 -0.2852  0.2065
  880TIP3    H124199   1.282   0.908   1.580 -0.2651 -0.5703  0.0061
  880TIP3    H224200   1.178   1.018   1.575 -1.3643 -1.5813  0.1616
  881TIP3   OH224201   4.752   0.492   4.868  0.7141 -0.1756  0.0069
  881TIP3    H124202   4.806   0.447   4.933 -0.4229 -0.0226  1.0986
  881TIP3    H224203   4.813   0.519   4.800  1.9214 -0.4554  0.9506
  882TIP3   OH224204   2.522   4.906   1.561  0.3406  0.1088 -0.2592
  882TIP3    H124205   2.503   4.995   1.592 -0.8206  0.3469 -1.5446
  882TIP3    H224206   2.473   4.849   1.621 -0.0678  0.4244 -0.2827
  883TIP3   OH224207   3.471   6.746   2.273 -0.0467 -0.3967  0.0644
  883TIP3    H124208   3.448   6.701   2.355 -0.4839  0.7507  0.5867
  883TIP3    H224209   3.396   6.803   2.255  0.7596  0.5823 -0.2553
  884TIP3   OH224210   3.203   1.592   1.521 -0.4174  0.4715  0.1605
  884TIP3    H124211   3.160   1.530   1.579  0.4590  0.4548  0.8064
  884TIP3    H224212   3.159   1.580   1.436 -2.2920  1.0798  0.9804
  885TIP3   OH224213   6.461   1.350   3.289  0.4047 -0.0522  0.3258
  885TIP3    H124214   6.444   1.256   3.291 -2.8141  0.3704 -1.1744
  885TIP3    H224215   6.486   1.369   3.199 -0.9458  0.7396  0.0836
  886TIP3   OH224216   1.950   4.689   1.066 -0.5948 -0.3277 -0.0481
  886TIP3    H124217   1.891   4.723   1.133  0.2959 -2.2526  1.8455
  886TIP3    H224218   2.035   4.682   1.111  0.4377 -0.1871 -1.8884
  887TIP3   OH224219   0.403   0.753   3.905  0.4217 -0.1749 -0.2922
  887TIP3    H124220   0.439   0.699   3.976  0.3949 -1.5377 -1.2657
  887TIP3    H224221   0.464   0.826   3.896  1.2010 -0.7546  0.1923
  888TIP3   OH224222   2.985   3.051   0.633 -1.0250  0.1693 -0.2777
  888TIP3    H124223   2.898   3.030   0.667 -1.5421  2.3746 -0.0715
  888TIP3    H224224   2.997   3.143   0.655  1.4122 -0.1087 -0.2590
  889TIP3   OH224225   6.260   1.210   1.282 -0.2414 -0.1697 -0.1345
  889TIP3    H124226   6.260   1.303   1.259 -0.6766  0.0076  0.5532
  889TIP3    H224227   6.201   1.170   1.218 -0.8037  0.1860  0.1521
  890TIP3   OH224228   3.557   1.398   0.921 -0.1646  0.7507  0.2689
  890TIP3    H124229   3.578   1.364   0.834  0.3217  0.5570  0.4575
  890TIP3    H224230   3.557   1.320   0.977 -1.2098  0.7659  0.3167
  891TIP3   OH224231   5.932   3.772   2.568  0.2497  0.3655  0.3337
  891TIP3    H124232   5.917   3.729   2.652  0.9559 -2.4001 -0.8469
  891TIP3    H224233   5.846   3.769   2.524  0.2318  0.3932  0.3666
  892TIP3   OH224234   2.811   2.994   1.729 -0.1590  0.6405  0.5881
  892TIP3    H124235   2.893   2.967   1.689 -0.0146  0.4064  1.0315
  892TIP3    H224236   2.790   3.078   1.688 -0.6416 -0.1462 -0.8538
  893TIP3   OH224237   5.019   6.313   3.235 -0.4549 -0.5161  0.1041
  893TIP3    H124238   4.967   6.316   3.154  0.4204 -1.1064 -0.5077
  893TIP3    H224239   5.054   6.402   3.244 -1.0109 -0.2992  0.1428
  894TIP3   OH224240   3.396   2.804   0.812  0.0291  0.5605 -0.3598
  894TIP3    H124241   3.432   2.724   0.850  0.5447  0.0390 -1.9041
  894TIP3    H224242   3.467   2.868   0.820 -0.1706  0.7109  0.3157
  895TIP3   OH224243   1.152   1.653   3.025 -0.1127 -0.6002  0.2740
  895TIP3    H124244   1.124   1.651   3.117 -0.5140  0.6371  0.2065
  895TIP3    H224245   1.080   1.613   2.977 -0.7226  0.3894  0.3382
  896TIP3   OH224246   2.528   2.655   4.276  0.5972  0.4068 -0.1737
  896TIP3    H124247   2.471   2.639   4.351  1.8484  0.0561  0.7469
  896TIP3    H224248   2.477   2.712   4.218 -0.4460  0.5937  0.8881
  897TIP3   OH224249   1.856   5.411   2.901 -0.0917  0.5041 -0.1450
  897TIP3    H124250   1.764   5.427   2.922 -0.1331  0.6498 -0.4225
  897TIP3    H224251   1.892   5.370   2.979 -0.4074  0.3944 -0.0543
  898TIP3   OH224252   6.481   2.468   0.713  0.4996  0.3193 -0.0122
  898TIP3    H124253   6.531   2.449   0.793 -1.6820  2.0727  1.8927
  898TIP3    H224254   6.430   2.388   0.698  0.4918  0.1801  0.7016
  899TIP3   OH224255   5.936   4.451   1.904 -0.1465 -0.1948 -0.2364
  899TIP3    H124256   5.849   4.416   1.922  0.3722 -1.0966  0.6472
  899TIP3    H224257   5.928   4.545   1.917 -0.2985 -0.5597  2.9207
  900TIP3   OH224258   2.606   3.727   0.767  0.2087 -0.0137 -0.0819
  900TIP3    H124259   2.696   3.755   0.753  0.5086 -0.7434  0.3373
  900TIP3    H224260   2.556   3.809   0.770  0.6526  0.3509 -1.5952
  901TIP3   OH224261   3.255   0.353   0.822 -0.5719 -0.4662 -0.2989
  901TIP3    H124262   3.285   0.267   0.793 -2.4291 -0.9982 -0.7617
  901TIP3    H224263   3.332   0.409   0.814  0.6623 -2.0524 -0.0602
  902TIP3   OH224264   0.298   4.894   1.793 -0.4652  0.1435 -0.1727
  902TIP3    H124265   0.242   4.858   1.861 -1.0677  1.2537 -0.0634
  902TIP3    H224266   0.387   4.885   1.828 -0.8879  3.1805  2.0770
  903TIP3   OH224267   3.314   3.407   3.188 -0.3540 -0.2381 -0.6759
  903TIP3    H124268   3.312   3.443   3.277  0.2874 -0.4935 -0.5533
  903TIP3    H224269   3.341   3.481   3.133 -0.8901 -0.0429 -0.6796
  904TIP3   OH224270   5.631   0.821   4.463 -0.4156 -0.0954 -0.2699
  904TIP3    H124271   5.655   0.738   4.423  0.3865 -0.4862  0.9668
  904TIP3    H224272   5.662   0.887   4.402  1.1281 -0.6657 -0.1614
  905TIP3   OH224273   1.253   5.322   3.125 -0.1026 -0.6499  0.0479
  905TIP3    H124274   1.248   5.388   3.057 -0.2139  0.4402  1.0832
  905TIP3    H224275   1.184   5.259   3.104  0.5816 -0.9355 -1.4367
  906TIP3   OH224276   5.655   3.794   3.343  0.6067  0.0693 -0.0151
  906TIP3    H124277   5.704   3.735   3.400 -1.7959 -2.2509 -0.1311
  906TIP3    H224278   5.600   3.736   3.290 -1.1683  2.3794 -0.9004
  907TIP3   OH224279   2.622   0.834   4.544 -1.1631 -0.1695  0.2416
  907TIP3    H124280   2.691   0.800   4.601 -0.9849 -1.0580 -0.4878
  907TIP3    H224281   2.612   0.925   4.572  1.1345  0.3535 -0.3828
  908TIP3   OH224282   1.716   3.198   1.214  0.8405  0.5043  0.1223
  908TIP3    H124283   1.706   3.130   1.147 -1.4169 -0.1892  1.0682
  908TIP3    H224284   1.640   3.255   1.202  0.8678  0.8726  1.5083
  909TIP3   OH224285   4.285   3.136   3.417 -0.1235  0.2815  0.4374
  909TIP3    H124286   4.326   3.079   3.483 -1.0673  0.7935  1.4945
  909TIP3    H224287   4.202   3.163   3.456 -1.5104 -0.7098 -1.6355
  910TIP3   OH224288   0.170   2.247   1.582 -0.1023  0.6802 -0.5224
  910TIP3    H124289   0.109   2.174   1.572 -0.2655  0.7822 -0.2836
  910TIP3    H224290   0.257   2.207   1.573 -0.2176  0.6399 -1.5045
  911TIP3   OH224291   2.876   6.681   1.988  0.4045  0.2866  0.3923
  911TIP3    H124292   2.893   6.765   2.032 -0.0910  0.1823  0.7879
  911TIP3    H224293   2.958   6.661   1.943  0.9093  0.4179  1.2288
  912TIP3   OH224294   5.835   2.996   3.988  0.0762 -0.0156 -0.5642
  912TIP3    H124295   5.809   3.087   3.978 -0.7126 -0.0825  0.7036
  912TIP3    H224296   5.827   2.979   4.082 -0.0311 -1.4626 -0.8187
  913TIP3   OH224297   6.327   6.441   2.976 -0.2503 -0.4328  0.3228
  913TIP3    H124298   6.312   6.510   2.912  1.4601  0.3176  0.6790
  913TIP3    H224299   6.358   6.366   2.924  1.8143  0.3944  0.2777
  914TIP3   OH224300   2.635   1.843   1.942 -0.5062 -0.0351  0.8711
  914TIP3    H124301   2.616   1.934   1.921  2.3582  0.1093 -1.8157
  914TIP3    H224302   2.706   1.847   2.007 -0.8530 -0.3996  1.2884
  915TIP3   OH224303   3.796   3.449   3.618 -0.0299  0.2559 -0.0830
  915TIP3    H124304   3.816   3.540   3.641  1.3444 -0.0111 -0.1368
  915TIP3    H224305   3.861   3.426   3.551  2.3030 -1.9407  2.6439
  916TIP3   OH224306   1.394   4.464   0.813  0.0705 -0.5546  0.4741
  916TIP3    H124307   1.362   4.393   0.869 -0.1787 -0.1144  0.8986
  916TIP3    H224308   1.352   4.448   0.728  0.1667 -1.0204  0.5101
  917TIP3   OH224309   6.404   4.164   1.370  0.2474  0.0286 -0.0370
  917TIP3    H124310   6.382   4.082   1.327 -1.8407  0.8467 -0.6541
  917TIP3    H224311   6.410   4.142   1.463  0.4359 -0.9359 -0.2684
  918TIP3   OH224312   4.888   3.353   1.869  0.0793  0.6103  0.1715
  918TIP3    H124313   4.968   3.378   1.915 -0.1459 -2.1082  2.2055
  918TIP3    H224314   4.910   3.271   1.824 -0.5376  1.7549 -2.4529
  919TIP3   OH224315   1.045   4.546   3.192 -0.0836 -0.1266  0.0632
  919TIP3    H124316   1.026   4.535   3.099  1.2875 -0.0059 -0.2609
  919TIP3    H224317   1.079   4.636   3.199  0.0667 -0.2226  0.6385
  920TIP3   OH224318   1.277   2.010   0.576  0.1450 -0.7336  0.3389
  920TIP3    H124319   1.303   1.941   0.515 -1.3453 -0.5171 -0.5956
  920TIP3    H224320   1.217   2.065   0.526 -0.6254 -0.1714  1.8195
  921TIP3   OH224321   1.655   4.844   1.807  0.4901  0.2729  0.0858
  921TIP3    H124322   1.634   4.876   1.720  0.4698  1.3195  0.4678
  921TIP3    H224323   1.570   4.834   1.850  0.4611 -0.7476 -0.1648
  922TIP3   OH224324   4.447   1.801   0.126  0.0177 -0.1923  0.1056
  922TIP3    H124325   4.525   1.823   0.075  0.3988 -1.8652 -0.1088
  922TIP3    H224326   4.378   1.789   0.061 -0.0704 -0.0511  0.1741
  923TIP3   OH224327   3.542   5.457   8.829  0.4273 -0.5255  0.0845
  923TIP3    H124328   3.549   5.362   8.822 -0.8886 -0.7326  1.1794
  923TIP3    H224329   3.458   5.479   8.789  0.9010  0.2350 -0.5253
  924TIP3   OH224330   5.317   3.441   1.254  0.3018 -0.5987 -0.4851
  924TIP3    H124331   5.272   3.364   1.292  3.3655 -1.0253  2.8109
  924TIP3    H224332   5.408   3.414   1.247  1.1053  2.0686 -1.2995
  925TIP3   OH224333   4.902   0.581   4.075 -0.4325 -0.0655  0.0573
  925TIP3    H124334   4.992   0.612   4.087 -0.5660  0.4322 -0.2081
  925TIP3    H224335   4.867   0.635   4.004 -0.0623 -2.1075 -1.7646
  926TIP3   OH224336   0.991   4.970   1.450 -0.2409 -0.6243  0.7407
  926TIP3    H124337   1.001   4.875   1.457  2.2391 -0.4784  0.2998
  926TIP3    H224338   1.011   5.002   1.538 -0.3760 -0.4602  0.7111
  927TIP3   OH224339   6.758   5.244   3.636  0.4037  0.9475 -0.4838
  927TIP3    H124340   6.793   5.234   3.724  1.4444 -2.5714 -1.1489
  927TIP3    H224341   6.816   5.307   3.594  1.5675  0.6083  0.5600
  928TIP3   OH224342   4.526   0.359   2.105  0.4737 -0.4110  0.0772
  928TIP3    H124343   4.585   0.288   2.082 -0.4503 -1.2098  0.0947
  928TIP3    H224344   4.469   0.323   2.172 -0.0376  0.3305  0.0629
  929TIP3   OH224345   3.407   0.969   1.442 -0.5067 -0.1395  0.0863
  929TIP3    H124346   3.381   1.032   1.508  1.1189  0.9747 -0.2871
  929TIP3    H224347   3.457   0.903   1.490 -2.6013 -1.4815  0.5563
  930TIP3   OH224348   3.571   6.717   1.661 -0.2956 -0.9212  0.5849
  930TIP3    H124349   3.519   6.782   1.708 -0.2885 -1.4930  1.4212
  930TIP3    H224350   3.638   6.768   1.615 -0.7474 -0.2897  0.6235
  931TIP3   OH224351   0.477   1.476   3.883  0.3399  0.8123 -0.2938
  931TIP3    H124352   0.506   1.384   3.885 -0.2522  0.6138 -0.5720
  931TIP3    H224353   0.449   1.494   3.973  0.2295  0.6441 -0.2941
  932TIP3   OH224354   0.758   2.699   3.128  0.2273 -0.3727 -0.5753
  932TIP3    H124355   0.848   2.693   3.096  0.6966  2.7556 -0.2239
  932TIP3    H224356   0.760   2.658   3.214  2.1271  2.0217  0.6585
  933TIP3   OH224357   4.891   2.336   3.982 -0.1508  0.6505  0.0802
  933TIP3    H124358   4.842   2.379   4.052  2.3690  1.4886  1.4686
  933TIP3    H224359   4.897   2.245   4.008 -1.3360  0.4379 -0.3512
  934TIP3   OH224360   5.489   5.276   1.358 -0.2730  0.1592 -0.2895
  934TIP3    H124361   5.505   5.245   1.447 -1.4443 -0.6384 -0.3318
  934TIP3    H224362   5.489   5.196   1.305  0.5429  0.6368 -1.0470
  935TIP3   OH224363   0.622   0.915   3.080 -0.0938 -0.7266  0.0660
  935TIP3    H124364   0.713   0.888   3.096  0.1510 -0.6285 -1.0738
  935TIP3    H224365   0.616   1.002   3.118  0.2642 -0.7708  0.2293
  936TIP3   OH224366   6.206   6.144   4.379  0.1522  0.2121  0.4924
  936TIP3    H124367   6.181   6.202   4.451  0.9984  0.5989  0.4910
  936TIP3    H224368   6.139   6.077   4.377 -1.8363  2.0811 -0.5617
  937TIP3   OH224369   5.248   4.261   0.310 -0.0642 -0.6204  0.0814
  937TIP3    H124370   5.172   4.307   0.276  0.2653 -0.1034  0.0394
  937TIP3    H224371   5.322   4.319   0.292  0.4048 -1.3153 -0.2774
  938TIP3   OH224372   0.616   4.641   2.085 -0.2376  0.0525 -0.1275
  938TIP3    H124373   0.557   4.678   2.152 -1.8700 -1.8071 -0.4408
  938TIP3    H224374   0.561   4.632   2.007  0.7844 -0.6655 -0.7862
  939TIP3   OH224375   1.070   2.734   0.591  0.2414  0.2361 -0.0627
  939TIP3    H124376   1.083   2.651   0.637 -1.0077  0.0793  0.0414
  939TIP3    H224377   1.149   2.745   0.538 -0.0915 -1.6441 -1.0482
  940TIP3   OH224378   5.275   5.410   4.334  0.1430 -0.1744 -0.1395
  940TIP3    H124379   5.260   5.498   4.368  0.8695 -0.8054  1.9706
  940TIP3    H224380   5.269   5.353   4.411 -0.4717 -2.0133 -1.4679
  941TIP3   OH224381   6.393   2.641   2.561  0.3117  0.3433 -0.3455
  941TIP3    H124382   6.434   2.561   2.528  1.0204  0.2778  0.6477
  941TIP3    H224383   6.463   2.686   2.608  0.0739  1.8442 -1.3637
  942TIP3   OH224384   1.767   3.944   3.655 -0.1090 -0.1374  0.7094
  942TIP3    H124385   1.700   4.009   3.677  0.3132  1.0327 -1.2099
  942TIP3    H224386   1.721   3.881   3.599  0.3586  0.7393 -0.7191
  943TIP3   OH224387   1.991   1.355   0.442  0.0637  0.2570 -0.1391
  943TIP3    H124388   1.967   1.444   0.467  1.4594  0.1732  1.6745
  943TIP3    H224389   2.035   1.364   0.358  0.9673  1.3972  0.4402
  944TIP3   OH224390   0.750   3.132   0.291 -0.1070  0.1132 -0.0209
  944TIP3    H124391   0.761   3.125   0.196 -1.0954 -0.0323 -0.1310
  944TIP3    H224392   0.833   3.100   0.326  0.5900  0.9442 -0.8414
  945TIP3   OH224393   2.959   2.420   4.601 -0.1741  0.2625 -0.1379
  945TIP3    H124394   2.925   2.381   4.681  1.8136  0.4710  0.8721
  945TIP3    H224395   3.048   2.386   4.593  0.3205  1.6966 -1.2353
  946TIP3   OH224396   4.068   2.988   2.425 -0.4920 -0.1588 -0.4889
  946TIP3    H124397   4.019   2.996   2.507 -1.0297  1.1966 -0.9114
  946TIP3    H224398   4.026   2.915   2.379 -1.2836  0.1545 -0.2819
  947TIP3   OH224399   5.758   5.128   3.287 -0.3586  0.1781 -0.6894
  947TIP3    H124400   5.704   5.190   3.337 -1.0247 -1.8392  1.2424
  947TIP3    H224401   5.701   5.099   3.216 -1.6250 -1.2747  0.8280
  948TIP3   OH224402   2.755   3.163   2.989  0.0566 -0.7033 -0.0668
  948TIP3    H124403   2.721   3.083   2.948 -1.7987 -0.2729  0.5539
  948TIP3    H224404   2.751   3.229   2.919 -1.0982 -0.4803  0.2013
  949TIP3   OH224405   4.058   4.899   0.555  0.0110 -0.3715  0.0269
  949TIP3    H124406   4.136   4.842   0.553  1.0426  0.9641  0.7360
  949TIP3    H224407   3.998   4.854   0.615  1.4225 -0.0061  1.7952
  950TIP3   OH224408   3.469   2.603   2.161 -0.1817  0.0955  0.0302
  950TIP3    H124409   3.474   2.613   2.256 -2.6825 -1.4392  0.4062
  950TIP3    H224410   3.488   2.510   2.146  2.4327  0.7406 -1.2726
  951TIP3   OH224411   6.767   4.392   3.880 -0.1214 -0.1403 -0.0486
  951TIP3    H124412   6.695   4.455   3.876 -0.6530 -0.7665 -0.6204
  951TIP3    H224413   6.815   4.416   3.959 -1.1425  0.0999  0.5236
  952TIP3   OH224414   0.473   2.151   0.577 -0.3364 -0.4782  0.2107
  952TIP3    H124415   0.515   2.071   0.547  0.0781 -0.5341  0.9066
  952TIP3    H224416   0.489   2.215   0.508  0.2442 -0.7129  0.1231
  953TIP3   OH224417   2.449   0.178   3.005 -0.6149 -0.1063  0.0151
  953TIP3    H124418   2.540   0.150   3.019  0.2093  1.8907 -1.0251
  953TIP3    H224419   2.396   0.107   3.043  1.3615 -0.6754  1.8873
  954TIP3   OH224420   3.191   6.760   3.142  0.5293  0.3152  0.6643
  954TIP3    H124421   3.208   6.781   3.051 -1.4050  2.5897  0.7491
  954TIP3    H224422   3.153   6.672   3.140 -2.3215  1.4604 -1.1396
  955TIP3   OH224423   6.136   0.663   2.704  0.2542 -0.3057  0.0162
  955TIP3    H124424   6.069   0.606   2.742  0.2147  0.7082  1.5597
  955TIP3    H224425   6.157   0.623   2.619 -2.8767 -0.2297 -0.9021
  956TIP3   OH224426   3.432   3.586   2.761  0.3376  0.0719 -0.3415
  956TIP3    H124427   3.396   3.515   2.708 -0.7168 -0.5092  1.1073
  956TIP3    H224428   3.499   3.625   2.705  0.4598 -1.6071 -1.4497
  957TIP3   OH224429   5.617   3.701   3.719 -0.0723 -0.0240 -0.3926
  957TIP3    H124430   5.678   3.628   3.732 -0.5467 -0.5647 -1.0955
  957TIP3    H224431   5.537   3.660   3.687 -0.6949  0.7155  0.1754
  958TIP3   OH224432   2.389   1.379   0.050 -0.4726  0.2948  0.2663
  958TIP3    H124433   2.412   1.349  -0.038 -0.6702 -0.0507  0.3310
  958TIP3    H224434   2.408   1.473   0.049  2.1798 -0.1455  0.7163
  959TIP3   OH224435   5.480   2.889   1.530 -0.0448 -0.1606  0.5457
  959TIP3    H124436   5.474   2.837   1.449  1.4384  2.1372 -1.1679
  959TIP3    H224437   5.558   2.855   1.574  0.9780  0.6196 -0.6131
  960TIP3   OH224438   0.388   5.082   4.377  0.0714  0.0657  0.5512
  960TIP3    H124439   0.444   5.130   4.438 -2.7125  2.0985  1.7098
  960TIP3    H224440   0.394   5.132   4.295  0.8971 -0.4897  0.2551
  961TIP3   OH224441   3.915   1.596   1.900 -0.2051  0.8353 -0.1120
  961TIP3    H124442   3.959   1.681   1.908  1.0274  0.1338  0.8303
  961TIP3    H224443   3.889   1.591   1.808  2.5986  0.8771 -1.0026
  962TIP3   OH224444   2.050   4.135   2.684 -0.4738  0.3722 -0.2068
  962TIP3    H124445   2.137   4.102   2.706 -0.5804 -1.0071 -1.6780
  962TIP3    H224446   2.044   4.125   2.589 -1.5016  2.3288 -0.4083
  963TIP3   OH224447   2.791   5.795   3.778  0.0113 -0.0178  0.4944
  963TIP3    H124448   2.779   5.700   3.772 -0.6566  0.0711  0.3341
  963TIP3    H224449   2.729   5.831   3.714  0.2515  0.5255  0.5626
  964TIP3   OH224450   5.284   4.788   2.322  0.0258  0.1262 -0.3305
  964TIP3    H124451   5.280   4.878   2.288 -1.5728  0.8749  1.6344
  964TIP3    H224452   5.206   4.745   2.287 -0.8776  0.4851  1.1462
  965TIP3   OH224453   6.376   1.255   0.397 -0.1211  0.4459  0.9247
  965TIP3    H124454   6.439   1.306   0.345 -0.4312  1.0901  1.1615
  965TIP3    H224455   6.291   1.278   0.361 -0.3209  0.7252  1.5634
  966TIP3   OH224456   3.645   3.925   1.221 -1.1005 -0.2856 -0.4273
  966TIP3    H124457   3.708   3.905   1.291 -0.7951  2.5574  0.2344
  966TIP3    H224458   3.699   3.932   1.142 -0.5728  1.6395  0.0477
  967TIP3   OH224459   1.079   1.974   3.693  0.7972 -0.0658 -0.4282
  967TIP3    H124460   1.105   2.026   3.769  3.2019 -2.0479  0.2398
  967TIP3    H224461   1.015   1.912   3.726  0.3522  0.3629 -0.4839
  968TIP3   OH224462   0.341   2.330   0.361  0.2972  0.2242 -0.3791
  968TIP3    H124463   0.282   2.285   0.421  0.6942  0.2055 -0.0006
  968TIP3    H224464   0.287   2.400   0.322 -0.3447 -0.6100 -1.0338
  969TIP3   OH224465   4.234   3.852   3.286 -0.1287  0.7541  1.1461
  969TIP3    H124466   4.208   3.763   3.265  1.0458  0.4919  0.7187
  969TIP3    H224467   4.259   3.890   3.201  1.2043  0.8525  1.5581
  970TIP3   OH224468   5.047   2.300   3.695 -0.6147  0.3259 -0.8216
  970TIP3    H124469   4.984   2.272   3.762 -0.9768 -0.1511 -1.3420
  970TIP3    H224470   5.011   2.265   3.613  0.7373 -0.6567 -1.0326
  971TIP3   OH224471   6.009   1.841   4.271  0.2360 -0.0525  0.0377
  971TIP3    H124472   5.955   1.908   4.229 -0.9682 -0.1707  1.3291
  971TIP3    H224473   6.033   1.782   4.200 -2.4624 -0.7349 -0.4183
  972TIP3   OH224474   4.897   5.617   1.574 -0.0916 -0.6008 -0.6188
  972TIP3    H124475   4.903   5.709   1.547  0.7892 -0.8620 -1.3613
  972TIP3    H224476   4.831   5.579   1.515  1.4224 -1.0369 -2.1009
  973TIP3   OH224477   6.064   1.048   3.565 -0.0068  0.6688 -0.2381
  973TIP3    H124478   6.046   1.095   3.483 -0.2871  0.9046 -0.0437
  973TIP3    H224479   6.048   0.956   3.544  2.8688  0.3058 -1.3120
  974TIP3   OH224480   2.344   2.581   3.795 -0.1893 -0.1804 -0.0059
  974TIP3    H124481   2.301   2.599   3.711 -1.6981 -2.4710  0.1811
  974TIP3    H224482   2.276   2.593   3.861  0.1968 -1.1253  0.5950
  975TIP3   OH224483   4.149   1.362   4.115  0.1791  1.0491  0.5575
  975TIP3    H124484   4.216   1.351   4.183  0.4204 -1.5253  0.0193
  975TIP3    H224485   4.080   1.301   4.140  0.8980 -1.0582 -2.1585
  976TIP3   OH224486   3.056   2.043   1.494  0.2293 -0.1181  0.3286
  976TIP3    H124487   3.140   2.066   1.454 -0.2564  0.1776 -0.5542
  976TIP3    H224488   3.012   2.126   1.509 -1.7876 -0.2892 -3.4471
  977TIP3   OH224489   3.156   3.179   2.623  0.8163 -0.4130 -0.0611
  977TIP3    H124490   3.141   3.085   2.625  0.8792 -0.4198  0.1614
  977TIP3    H224491   3.139   3.208   2.713  3.2057 -0.5931  0.5222
  978TIP3   OH224492   6.233   4.554   4.609  0.2427 -0.2062  0.5276
  978TIP3    H124493   6.244   4.593   4.696  1.6715 -0.4742  0.4923
  978TIP3    H224494   6.261   4.464   4.620  1.5346  0.0555 -0.4600
  979TIP3   OH224495   4.530   1.663   0.333 -0.3961  0.2269  0.3594
  979TIP3    H124496   4.624   1.679   0.342 -1.0095  3.7022  2.0387
  979TIP3    H224497   4.503   1.716   0.258 -1.4061  1.6096  1.6402
  980TIP3   OH224498   0.896   3.231   3.194 -0.5729 -0.1194  0.3943
  980TIP3    H124499   0.816   3.278   3.172  0.5535  1.4763 -0.5575
  980TIP3    H224500   0.929   3.275   3.273  1.3792  2.0148 -1.4537
  981TIP3   OH224501   6.761   3.112   1.907 -0.5001  0.3330  0.6190
  981TIP3    H124502   6.820   3.044   1.940 -1.1163 -1.4119 -1.6518
  981TIP3    H224503   6.806   3.148   1.830 -0.3732  2.2830  1.5426
  982TIP3   OH224504   4.257   1.757   2.534  0.3678 -0.4286  0.2896
  982TIP3    H124505   4.231   1.729   2.621 -0.2308  0.7115  0.4963
  982TIP3    H224506   4.185   1.813   2.504  0.6892 -0.5914 -0.8257
  983TIP3   OH224507   4.832   2.869   8.721  0.0304 -0.0902 -0.0277
  983TIP3    H124508   4.888   2.808   8.769  0.9530  0.8962  0.1934
  983TIP3    H224509   4.889   2.906   8.654 -0.6362  0.1852 -0.4502
  984TIP3   OH224510   5.887   0.207   3.194  0.2042  0.8057 -0.2016
  984TIP3    H124511   5.877   0.179   3.285  0.4827 -1.2310 -0.7463
  984TIP3    H224512   5.979   0.191   3.174 -0.0885  0.2539 -1.1429
  985TIP3   OH224513   1.496   2.561   0.414  0.7264  0.5824  0.2179
  985TIP3    H124514   1.493   2.554   0.319  0.6955  2.9004 -0.0168
  985TIP3    H224515   1.430   2.499   0.445  1.7116 -1.2276 -1.1540
  986TIP3   OH224516   3.581   4.497   3.752 -0.6041  0.6913 -0.0761
  986TIP3    H124517   3.641   4.507   3.678  1.9539 -2.4095  1.3084
  986TIP3    H224518   3.514   4.436   3.719  0.5100 -0.6631  0.0425
  987TIP3   OH224519   6.537   0.849   4.729  0.1599  0.2292  0.1040
  987TIP3    H124520   6.525   0.827   4.821 -0.3893  0.1691  0.0216
  987TIP3    H224521   6.465   0.909   4.709 -0.1847 -0.3629 -0.4844
  988TIP3   OH224522   1.401   6.618   3.274  0.0749 -0.6328  0.0081
  988TIP3    H124523   1.309   6.636   3.255  0.2633  0.7212  0.2327
  988TIP3    H224524   1.422   6.540   3.224 -1.1480 -0.8429 -0.1968
  989TIP3   OH224525   1.206   2.600   2.631  0.6212 -0.3335  0.3373
  989TIP3    H124526   1.189   2.690   2.658 -0.0247 -0.7034  1.2169
  989TIP3    H224527   1.299   2.599   2.607  0.6860  0.5091  0.5200
  990TIP3   OH224528   5.347   0.203   3.936  0.1299  0.2392  0.0191
  990TIP3    H124529   5.348   0.281   3.880  0.4770 -0.6495 -1.2636
  990TIP3    H224530   5.432   0.162   3.920 -0.8937 -1.5835 -1.0820
  991TIP3   OH224531   5.302   4.201   3.131  0.0755 -0.1112 -0.1110
  991TIP3    H124532   5.328   4.125   3.183 -1.5820 -0.8088 -0.2765
  991TIP3    H224533   5.209   4.214   3.151  0.0262  1.1318 -1.0211
  992TIP3   OH224534   3.127   1.085   1.802 -0.0656  0.4420  0.4508
  992TIP3    H124535   3.207   1.075   1.750 -1.7862 -1.8104 -2.0297
  992TIP3    H224536   3.104   1.178   1.794 -0.0095  0.2769 -2.5823
  993TIP3   OH224537   0.003   2.348   0.706 -0.1391 -0.3845 -0.6652
  993TIP3    H124538  -0.073   2.330   0.760  0.2498 -1.4083 -0.4403
  993TIP3    H224539   0.002   2.443   0.694 -0.6869 -0.2346  0.4492
  994TIP3   OH224540   6.000   3.084   1.000 -0.0082  0.1026  0.2624
  994TIP3    H124541   5.916   3.052   0.966  0.1261  0.3203 -0.2968
  994TIP3    H224542   5.980   3.168   1.040  0.3517  1.5426 -2.3456
  995TIP3   OH224543   0.057   1.589   4.140  0.0771 -0.5521 -0.2070
  995TIP3    H124544   0.129   1.604   4.201 -0.1189 -0.4781  0.0073
  995TIP3    H224545  -0.010   1.652   4.166  0.9334  1.2345 -2.0541
  996TIP3   OH224546   3.550   2.175   3.323  0.4883 -0.0740  0.6526
  996TIP3    H124547   3.592   2.090   3.337  0.0439 -0.4928 -0.4246
  996TIP3    H224548   3.507   2.166   3.238 -0.8981  0.7055  1.2517
  997TIP3   OH224549   4.844   5.811   1.814  0.3046  0.2440 -0.2130
  997TIP3    H124550   4.878   5.879   1.872  0.5446  0.4484 -0.5883
  997TIP3    H224551   4.876   5.835   1.727  0.3343 -0.3120 -0.3613
  998TIP3   OH224552   0.145   2.779   3.529  0.0457 -1.0105 -0.5224
  998TIP3    H124553   0.185   2.761   3.615 -1.0971 -0.0413  0.2396
  998TIP3    H224554   0.192   2.722   3.469  1.6466 -0.8902  0.5606
  999TIP3   OH224555   2.878   3.404   4.177  0.2904  0.5118 -0.1734
  999TIP3    H124556   2.960   3.425   4.221  0.0362  0.1886  0.4644
  999TIP3    H224557   2.814   3.462   4.216 -0.0354 -0.1199  0.2519
 1000TIP3   OH224558   3.551   4.373   2.949  0.0850 -0.3323 -0.0936
 1000TIP3    H124559   3.633   4.360   2.901 -0.3948 -2.2568 -0.4502
 1000TIP3    H224560   3.575   4.365   3.041  0.4119 -0.1141 -0.1573
 1001TIP3   OH224561   3.224   1.821   3.426  0.3812  0.9785 -0.6766
 1001TIP3    H124562   3.266   1.830   3.511 -1.2466  1.5158  0.1059
 1001TIP3    H224563   3.180   1.737   3.429  1.3092  0.4368 -1.4800
 1002TIP3   OH224564   4.659   1.573   2.807 -0.2563  0.5725  0.0070
 1002TIP3    H124565   4.734   1.632   2.804  0.4840 -0.3709 -1.3749
 1002TIP3    H224566   4.683   1.506   2.871  1.3979 -1.2792 -2.3408
 1003TIP3   OH224567   4.320   1.453   0.848  0.0335  0.1639 -0.1251
 1003TIP3    H124568   4.378   1.477   0.920 -1.6955  1.2246  0.9710
 1003TIP3    H224569   4.245   1.412   0.890 -0.4389 -0.3758 -1.4368
 1004TIP3   OH224570   2.112   3.667   2.049  0.1371 -0.3709  0.6980
 1004TIP3    H124571   2.120   3.757   2.016  1.1623 -0.4051  0.8074
 1004TIP3    H224572   2.148   3.671   2.138 -0.9640 -0.6451  1.1639
 1005TIP3   OH224573   1.511   5.106   4.915 -0.4825  0.1341  0.4784
 1005TIP3    H124574   1.456   5.171   4.960 -0.3407  0.4701  0.1658
 1005TIP3    H224575   1.465   5.023   4.928  0.1027  0.0270  2.2066
 1006TIP3   OH224576   5.988   1.217   3.107  0.0082  0.1789  0.8110
 1006TIP3    H124577   5.946   1.222   3.193 -1.4537  0.5249  0.1050
 1006TIP3    H224578   5.930   1.161   3.055  1.9072 -1.6993  0.6029
 1007TIP3   OH224579   5.038   4.250   3.233  0.0695 -0.0327 -0.0516
 1007TIP3    H124580   5.057   4.293   3.316  0.8497  0.8281 -0.6592
 1007TIP3    H224581   5.003   4.164   3.258  1.0443 -0.1028  1.1566
 1008TIP3   OH224582   5.260   3.568   2.012 -0.2818 -0.2201  0.0767
 1008TIP3    H124583   5.276   3.661   1.995  0.4290 -0.1224  1.1686
 1008TIP3    H224584   5.320   3.523   1.952 -1.5801 -0.0306 -1.4203
 1009TIP3   OH224585   4.776   2.556   1.334 -0.2630  0.3008  0.1390
 1009TIP3    H124586   4.733   2.641   1.318 -0.0615  1.3089  3.9938
 1009TIP3    H224587   4.869   2.577   1.338 -0.0839 -0.3973 -0.2579
 1010TIP3   OH224588   0.940   0.095   1.027 -0.3072  0.4790  0.1761
 1010TIP3    H124589   1.029   0.129   1.033  0.2854 -0.8472 -0.7040
 1010TIP3    H224590   0.900   0.147   0.957 -0.0095  0.6316  0.1156
 1011TIP3   OH224591   0.842   2.123   0.576 -0.7557  0.4573  0.0546
 1011TIP3    H124592   0.837   2.035   0.539 -1.8823  0.4493  0.1734
 1011TIP3    H224593   0.831   2.110   0.670 -1.0378  0.7250  0.0622
 1012TIP3   OH224594   3.015   6.677   3.588  0.4263  0.0284  0.2006
 1012TIP3    H124595   2.986   6.730   3.661  0.6422 -0.4489  0.6383
 1012TIP3    H224596   3.093   6.722   3.555  0.2047  0.3573  0.1301
 1013TIP3   OH224597   6.224   1.768   3.782 -0.4164  0.1649  0.1201
 1013TIP3    H124598   6.195   1.681   3.754 -1.4579  0.1509  1.1871
 1013TIP3    H224599   6.319   1.758   3.793 -0.4882 -0.7760  0.0123
 1014TIP3   OH224600   5.025   1.572   2.546  0.4553 -0.2933  0.4259
 1014TIP3    H124601   5.020   1.525   2.629  0.3913 -0.2540  0.4444
 1014TIP3    H224602   5.083   1.518   2.492  0.8096 -0.1155  0.6275
 1015TIP3   OH224603   1.813   6.515   2.894  0.1099  0.1720 -0.1783
 1015TIP3    H124604   1.730   6.531   2.850  0.1493  1.3818  0.1669
 1015TIP3    H224605   1.859   6.454   2.837 -0.1587  1.1142 -1.4303
 1016TIP3   OH224606   3.113   5.792   0.385  0.4832 -0.3489 -0.1083
 1016TIP3    H124607   3.116   5.811   0.292  2.5363 -0.8697 -0.1998
 1016TIP3    H224608   3.081   5.702   0.390 -2.2591  0.5406 -0.0894
 1017TIP3   OH224609   6.726   1.519   2.685  0.1160 -0.5473  0.0995
 1017TIP3    H124610   6.794   1.567   2.638  0.0499 -2.1102 -1.6848
 1017TIP3    H224611   6.767   1.493   2.767  0.6204  1.1911  0.4497
 1018TIP3   OH224612   5.690   5.306   4.852 -0.6730 -0.3205 -0.4115
 1018TIP3    H124613   5.767   5.250   4.841  0.3406  1.1618 -1.2172
 1018TIP3    H224614   5.723   5.395   4.843 -2.5540  0.3629 -1.1490
 1019TIP3   OH224615   6.059   0.490   3.864  0.5215 -0.5393  0.2313
 1019TIP3    H124616   6.014   0.409   3.839  0.2088 -0.5002  0.6549
 1019TIP3    H224617   6.135   0.494   3.806 -0.3883 -0.2485 -0.9944
 1020TIP3   OH224618   5.884   3.245   2.060 -0.7961  0.0508  0.4805
 1020TIP3    H124619   5.901   3.165   2.011  0.8664  0.3230  0.5613
 1020TIP3    H224620   5.970   3.275   2.088 -1.3102  2.1815 -0.0271
 1021TIP3   OH224621   1.601   0.221   3.041  0.2860  0.0163 -0.2883
 1021TIP3    H124622   1.662   0.238   3.112 -0.3613  0.1905  0.2385
 1021TIP3    H224623   1.536   0.290   3.048 -0.6591 -0.8649 -0.0610
 1022TIP3   OH224624   5.546   2.273   8.858  0.0858 -0.4137 -0.3101
 1022TIP3    H124625   5.475   2.305   8.803 -1.2731 -0.7487  1.1936
 1022TIP3    H224626   5.558   2.340   8.925  0.8624 -0.5850 -0.2630
 1023TIP3   OH224627   0.542   4.593   3.594  0.2799 -0.0293 -0.0387
 1023TIP3    H124628   0.537   4.519   3.654  1.5920 -1.2366 -1.3279
 1023TIP3    H224629   0.470   4.578   3.532  0.5393 -0.2490 -0.2938
 1024TIP3   OH224630   1.181   1.491   8.785 -0.2411  0.1689 -0.4407
 1024TIP3    H124631   1.241   1.565   8.795 -0.6683  0.1672  3.3422
 1024TIP3    H224632   1.234   1.414   8.805 -0.6013 -0.2603 -1.0735
 1025TIP3   OH224633   0.693   3.536   1.228  0.4729  0.4275  0.2463
 1025TIP3    H124634   0.657   3.521   1.315  0.6737  0.1464  0.2800
 1025TIP3    H224635   0.765   3.474   1.219 -2.0120 -2.4703 -1.6076
 1026TIP3   OH224636   0.963   2.205   1.164  0.2184 -0.1080 -0.0158
 1026TIP3    H124637   0.962   2.187   1.258  0.7081  1.0782  0.2295
 1026TIP3    H224638   1.035   2.152   1.130 -1.4709 -2.4630 -0.1662
 1027TIP3   OH224639   0.600   6.352   4.459 -0.0594 -1.0856  0.2677
 1027TIP3    H124640   0.624   6.332   4.550  1.2612 -3.2938 -0.4938
 1027TIP3    H224641   0.670   6.313   4.407 -0.3703  0.8239 -1.7042
 1028TIP3   OH224642   4.139   1.757   3.983 -0.0150  0.7347 -0.0341
 1028TIP3    H124643   4.233   1.742   3.973  0.4183  2.6616  0.5748
 1028TIP3    H224644   4.098   1.673   3.963  1.8254 -0.1158 -0.4152
 1029TIP3   OH224645   5.824   0.206   5.041  0.2844 -0.2761  0.2116
 1029TIP3    H124646   5.910   0.230   5.076  1.4954 -2.4814 -1.0357
 1029TIP3    H224647   5.791   0.287   5.001  3.2213 -0.0395 -2.0526
 1030TIP3   OH224648   5.959   3.559   1.198 -0.1728  0.3895 -0.3604
 1030TIP3    H124649   6.053   3.540   1.190  0.0959  0.9041  1.1791
 1030TIP3    H224650   5.943   3.560   1.293 -2.2765 -2.1639 -0.5717
 1031TIP3   OH224651   5.966   1.457   0.604  0.7435  0.8995  0.0219
 1031TIP3    H124652   5.890   1.512   0.587  0.0303  0.8128  2.5587
 1031TIP3    H224653   5.946   1.374   0.562  0.3381  1.4628 -0.9563
 1032TIP3   OH224654   2.517   1.499   0.443 -0.8455  0.4958 -0.2739
 1032TIP3    H124655   2.463   1.496   0.364 -0.3638  1.9358 -0.6903
 1032TIP3    H224656   2.535   1.592   0.456  0.7316  0.1255  0.4031
 1033TIP3   OH224657   2.871   2.947   2.493  0.2945  1.1757 -0.2646
 1033TIP3    H124658   2.962   2.925   2.514  0.9414  1.5819 -2.3966
 1033TIP3    H224659   2.828   2.863   2.479  0.3615  0.9889  0.5666
 1034TIP3   OH224660   1.905   2.066   1.251  0.0321 -0.1167 -0.2498
 1034TIP3    H124661   1.975   2.004   1.272 -0.8777 -0.8555  0.6992
 1034TIP3    H224662   1.921   2.140   1.310  1.2310  0.6898 -1.5158
 1035TIP3   OH224663   4.744   3.987   2.566 -0.3956 -0.0291  0.0166
 1035TIP3    H124664   4.763   3.926   2.495  0.2780 -0.7314  0.7804
 1035TIP3    H224665   4.679   3.943   2.620 -0.0298 -0.0157  0.4814
 1036TIP3   OH224666   1.386   4.808   2.777 -0.0142 -0.2086 -0.5312
 1036TIP3    H124667   1.456   4.817   2.713  1.5370  0.8002  1.2016
 1036TIP3    H224668   1.306   4.833   2.731  1.1494  1.2057 -1.8470
 1037TIP3   OH224669   6.720   6.274   2.226 -0.6420 -0.0273  0.0696
 1037TIP3    H124670   6.708   6.368   2.242 -0.9576 -0.2053  0.9468
 1037TIP3    H224671   6.814   6.259   2.238 -0.8331 -0.1170  1.7064
 1038TIP3   OH224672   3.621   4.163   1.507  0.0212  0.0255 -0.4978
 1038TIP3    H124673   3.593   4.250   1.477 -1.0326 -0.3618 -0.7053
 1038TIP3    H224674   3.541   4.110   1.503  1.0256 -1.4666 -2.2234
 1039TIP3   OH224675   4.279   5.590   0.605 -0.5357 -0.1649 -0.0374
 1039TIP3    H124676   4.334   5.635   0.541  0.7693 -1.1580  0.3305
 1039TIP3    H224677   4.245   5.660   0.661 -0.5450  0.5741 -0.9390
 1040TIP3   OH224678   3.671   1.358   1.730  0.2762  0.4109  0.2048
 1040TIP3    H124679   3.682   1.453   1.719  0.8525  0.2231 -1.0620
 1040TIP3    H224680   3.621   1.349   1.811  1.7937  1.7185  1.3482
 1041TIP3   OH224681   0.773   6.496   4.832  0.7913 -0.4403  0.0470
 1041TIP3    H124682   0.714   6.534   4.897  1.9391  0.4879  0.5911
 1041TIP3    H224683   0.724   6.424   4.793 -0.9461  0.7172  0.0060
 1042TIP3   OH224684   1.096   4.426   4.518  0.4467 -0.6138  0.4575
 1042TIP3    H124685   1.181   4.445   4.557  1.5670 -0.5956 -1.8274
 1042TIP3    H224686   1.095   4.331   4.508  0.1991 -0.6132  0.4657
 1043TIP3   OH224687   4.291   5.562   0.909 -0.4236 -0.0018  0.1756
 1043TIP3    H124688   4.260   5.646   0.875  2.6036  0.9358 -0.6226
 1043TIP3    H224689   4.256   5.497   0.848 -0.9457  0.9439 -0.5628
 1044TIP3   OH224690   0.048   0.209   2.460 -0.3359  0.2114  0.0445
 1044TIP3    H124691   0.015   0.145   2.523 -0.1954  0.3729  0.2831
 1044TIP3    H224692   0.132   0.237   2.496 -0.0721  0.0212 -0.4098
 1045TIP3   OH224693   4.937   1.464   4.642  0.2834  1.0169 -0.4855
 1045TIP3    H124694   4.889   1.425   4.714 -0.4766  1.3241 -0.8148
 1045TIP3    H224695   4.995   1.394   4.611 -0.0078  0.6192 -0.1384
 1046TIP3   OH224696   4.765   6.083   4.480 -0.0906  0.6133  0.1659
 1046TIP3    H124697   4.727   6.095   4.393 -2.2147 -0.7699  0.8043
 1046TIP3    H224698   4.696   6.112   4.540  1.3131  1.5194  1.4313
 1047TIP3   OH224699   0.326   5.833   0.256 -0.3771 -0.0004 -0.2780
 1047TIP3    H124700   0.312   5.909   0.313  0.2470  1.9561 -2.5829
 1047TIP3    H224701   0.240   5.815   0.219 -0.4318 -0.1302 -0.0909
 1048TIP3   OH224702   5.364   4.096   1.548 -0.3453  0.2242 -0.1966
 1048TIP3    H124703   5.331   4.110   1.637  1.0325 -0.2266  0.4080
 1048TIP3    H224704   5.449   4.140   1.547 -0.5452  0.6129 -1.4410
 1049TIP3   OH224705   0.372   2.676   2.670  0.5437 -0.0967 -0.0564
 1049TIP3    H124706   0.433   2.603   2.658  0.0004 -0.5985  0.1935
 1049TIP3    H224707   0.285   2.637   2.657  0.2378  0.4581  0.2838
 1050TIP3   OH224708   1.590   4.110   3.030  0.4431 -0.2040  0.5062
 1050TIP3    H124709   1.665   4.127   2.974 -0.6524  0.7748 -0.7230
 1050TIP3    H224710   1.558   4.197   3.054  0.0063 -0.6103  1.4495
 1051TIP3   OH224711   6.022   2.036   3.531 -0.1513 -0.4178 -0.0804
 1051TIP3    H124712   5.999   1.962   3.476  0.8210 -1.6253  1.0834
 1051TIP3    H224713   5.995   2.011   3.619  0.6356  0.4045  0.4159
 1052TIP3   OH224714   1.255   5.237   4.896  0.1044 -0.3007 -0.0239
 1052TIP3    H124715   1.206   5.311   4.861  0.8155 -0.4771 -1.4378
 1052TIP3    H224716   1.224   5.229   4.987  1.7870  3.2534  1.0209
 1053TIP3   OH224717   1.626   6.437   3.447  0.2835 -0.3131  0.1174
 1053TIP3    H124718   1.697   6.458   3.507 -0.0083 -2.6055  1.3710
 1053TIP3    H224719   1.547   6.462   3.494  0.1637  2.1748 -1.2500
 1054TIP3   OH224720   2.243   6.112   3.949  0.4329  0.2120  0.0717
 1054TIP3    H124721   2.225   6.193   3.996  0.2131  0.1587  0.0798
 1054TIP3    H224722   2.314   6.134   3.889  1.2054  0.1048  0.9143
 1055TIP3   OH224723   4.399   6.652   0.939  0.5050  0.1699 -0.0067
 1055TIP3    H124724   4.415   6.689   0.852 -0.2779 -1.7435 -1.0142
 1055TIP3    H224725   4.486   6.641   0.977  0.9461 -0.1711 -1.0692
 1056TIP3   OH224726   1.288   0.216   2.783  0.0667 -0.1445  0.1190
 1056TIP3    H124727   1.378   0.186   2.795  0.7681  1.5906 -0.4667
 1056TIP3    H224728   1.247   0.149   2.728  0.4745 -1.7905  1.7251
 1057TIP3   OH224729   0.425   3.552   2.439 -0.1310 -0.0197 -0.5335
 1057TIP3    H124730   0.484   3.490   2.483 -0.8565 -0.0973  0.3399
 1057TIP3    H224731   0.458   3.555   2.349 -0.7691 -2.5777 -0.9381
 1058TIP3   OH224732   4.810   3.673   0.369 -0.1761  0.3875 -0.1486
 1058TIP3    H124733   4.730   3.651   0.320 -0.3841  0.5803  0.1012
 1058TIP3    H224734   4.870   3.707   0.303 -0.2134  0.0236 -0.3763
 1059TIP3   OH224735   2.933   3.812   3.881 -0.0633  0.9343 -0.1335
 1059TIP3    H124736   2.987   3.822   3.802  1.8666  2.0710  1.2342
 1059TIP3    H224737   2.995   3.824   3.953 -1.4178 -1.7905  1.6108
 1060TIP3   OH224738   3.291   6.599   0.702 -0.2037  0.3647  0.3000
 1060TIP3    H124739   3.337   6.659   0.643  1.0779 -1.0781 -0.2358
 1060TIP3    H224740   3.324   6.621   0.789  0.9088 -0.1062  0.0102
 1061TIP3   OH224741   2.481   6.770   2.807 -0.3968 -0.6669  0.3853
 1061TIP3    H124742   2.533   6.720   2.744 -0.1289  1.7695 -1.4839
 1061TIP3    H224743   2.543   6.830   2.847 -0.7387 -1.6059  2.4591
 1062TIP3   OH224744   4.200   5.458   3.000 -0.2152 -0.8108  0.1121
 1062TIP3    H124745   4.252   5.506   2.937 -0.4933  0.6188  0.9142
 1062TIP3    H224746   4.214   5.366   2.979  1.2359 -0.4157 -0.7729
 1063TIP3   OH224747   1.050   0.300   2.450 -0.6013  0.0597  0.4735
 1063TIP3    H124748   1.097   0.347   2.381  1.2130 -1.9529  0.2262
 1063TIP3    H224749   1.092   0.214   2.453 -1.0046 -0.1392  3.6863
 1064TIP3   OH224750   2.480   6.300   1.231  0.6037 -0.2851  0.6350
 1064TIP3    H124751   2.418   6.227   1.230  0.8487 -0.4834  0.0124
 1064TIP3    H224752   2.509   6.309   1.141  1.2727 -0.0086  0.8746
 1065TIP3   OH224753   6.265   0.754   4.705  0.2347  0.0789 -1.1029
 1065TIP3    H124754   6.256   0.727   4.797 -1.8240 -0.2809 -1.3645
 1065TIP3    H224755   6.282   0.848   4.710 -1.4616  0.3951 -0.3323
 1066TIP3   OH224756   5.049   6.151   1.117 -0.8279 -0.2281  0.6844
 1066TIP3    H124757   5.048   6.073   1.171 -2.9264 -1.2401 -0.6620
 1066TIP3    H224758   4.980   6.207   1.153 -0.5701  0.1870  0.5482
 1067TIP3   OH224759   2.314   3.696   3.952  0.0518 -0.3125  0.1411
 1067TIP3    H124760   2.326   3.604   3.974  1.5819  0.1897  1.6812
 1067TIP3    H224761   2.348   3.743   4.028 -1.9599  1.5403 -0.0154
 1068TIP3   OH224762   5.668   0.949   4.179 -1.2265 -0.3916 -0.2816
 1068TIP3    H124763   5.695   0.859   4.160 -1.0919 -1.1590  2.9698
 1068TIP3    H224764   5.573   0.949   4.165 -0.9696 -0.3900 -2.3125
 1069TIP3   OH224765   4.231   1.721   3.638  0.5776 -0.2447 -0.3041
 1069TIP3    H124766   4.286   1.696   3.564 -0.3972  0.8307 -1.4177
 1069TIP3    H224767   4.293   1.753   3.704  1.3652 -0.1060 -1.0993
 1070TIP3   OH224768   4.071   4.276   3.316 -0.1876 -0.2740  0.1378
 1070TIP3    H124769   4.164   4.257   3.327 -0.3418 -0.9673  0.2991
 1070TIP3    H224770   4.032   4.253   3.401 -0.5742 -0.4432 -0.0837
 1071TIP3   OH224771   4.824   6.759   4.066 -0.0846  0.0419 -0.6442
 1071TIP3    H124772   4.739   6.795   4.094  0.9198  1.2513  1.0152
 1071TIP3    H224773   4.804   6.713   3.984 -2.5002 -0.4784  0.1521
 1072TIP3   OH224774   0.025   4.837   4.055 -0.0673 -0.0720 -0.2598
 1072TIP3    H124775  -0.021   4.810   4.135  0.9618 -2.0236 -0.2724
 1072TIP3    H224776   0.055   4.926   4.074 -1.4340  0.2059  0.7920
 1073TIP3   OH224777   3.095   3.858   2.491 -0.4217  0.6380  0.3349
 1073TIP3    H124778   3.034   3.930   2.473  0.0350  0.5972 -1.5766
 1073TIP3    H224779   3.180   3.900   2.502 -0.3709  0.4859  0.5363
 1074TIP3   OH224780   6.653   5.550   4.886  0.5301 -0.5813  0.0095
 1074TIP3    H124781   6.645   5.644   4.897 -2.5616 -0.6954 -0.4112
 1074TIP3    H224782   6.704   5.521   4.961 -2.4613  0.9503  2.8809
 1075TIP3   OH224783   6.744   6.209   3.155  0.3899 -1.1545 -0.2900
 1075TIP3    H124784   6.654   6.189   3.128  0.1854 -1.5920  0.6820
 1075TIP3    H224785   6.760   6.297   3.122 -1.1061 -0.2487  1.2558
 1076TIP3   OH224786   6.074   4.026   4.604 -0.2050  0.2188 -0.0858
 1076TIP3    H124787   6.126   3.947   4.620  0.0146  0.2496 -0.6413
 1076TIP3    H224788   6.111   4.064   4.525 -0.6611  0.5873 -0.1267
 1077TIP3   OH224789   1.969   0.502   0.276  0.6876  0.0005  0.5134
 1077TIP3    H124790   1.930   0.526   0.360 -2.1498 -0.4789 -0.5721
 1077TIP3    H224791   1.897   0.508   0.213  2.4610 -0.7000 -1.7148
 1078TIP3   OH224792   1.397   2.078   3.927 -0.7281  0.0018 -0.4745
 1078TIP3    H124793   1.429   2.122   4.006 -1.6337 -0.1655 -0.0038
 1078TIP3    H224794   1.400   1.985   3.948  0.9968 -0.1770 -1.3992
 1079TIP3   OH224795   3.619   6.037   3.587 -0.2601 -0.2414 -0.0497
 1079TIP3    H124796   3.581   5.950   3.592  0.2667 -0.4929 -0.4011
 1079TIP3    H224797   3.706   6.024   3.550 -0.3580  0.4857 -0.5617
 1080TIP3   OH224798   0.429   5.252   4.130  0.2468  0.1135 -0.3713
 1080TIP3    H124799   0.417   5.346   4.115  0.5746  0.6033  1.9995
 1080TIP3    H224800   0.508   5.230   4.080 -0.2116  0.9311 -1.4879
 1081TIP3   OH224801   0.651   5.821   4.075 -0.0092 -0.4476  0.1287
 1081TIP3    H124802   0.700   5.899   4.048 -1.0844  0.3373  0.3337
 1081TIP3    H224803   0.575   5.819   4.016  0.6689 -2.1270 -0.7541
 1082TIP3   OH224804   3.259   4.056   2.080  0.3603  0.3343  0.0276
 1082TIP3    H124805   3.345   4.042   2.121  0.2859 -2.2010 -0.5402
 1082TIP3    H224806   3.197   4.018   2.142 -0.3189  1.4491  0.0613
 1083TIP3   OH224807   5.828   4.135   2.752  0.1015  0.3125  0.2700
 1083TIP3    H124808   5.744   4.101   2.783  0.2291  0.9675  1.3380
 1083TIP3    H224809   5.821   4.230   2.760  0.8301  0.3918  0.0553
 1084TIP3   OH224810   4.271   4.472   2.833  0.3459  0.5072  0.5563
 1084TIP3    H124811   4.363   4.448   2.837 -0.1633 -1.6156  0.4963
 1084TIP3    H224812   4.237   4.453   2.920 -0.3478 -0.2234  0.1459
 1085TIP3   OH224813   4.289   1.674   1.211  0.2730 -0.2279 -0.1519
 1085TIP3    H124814   4.234   1.599   1.185  0.4248 -0.4699  0.2153
 1085TIP3    H224815   4.300   1.724   1.130 -0.8947  0.0936 -0.1239
 1086TIP3   OH224816   6.620   6.554   0.254  0.5846 -0.7095  1.2958
 1086TIP3    H124817   6.620   6.586   0.345 -0.0797 -0.7725  1.3226
 1086TIP3    H224818   6.549   6.490   0.251 -0.7848  0.7847  0.2291
 1087TIP3   OH224819   6.593   6.165   4.250 -0.4700 -0.0138  0.0029
 1087TIP3    H124820   6.611   6.089   4.305 -2.0942  0.5220  1.3505
 1087TIP3    H224821   6.551   6.228   4.308 -2.1606  0.6389 -1.8050
 1088TIP3   OH224822   5.475   5.896   0.920 -0.1507 -0.4497  0.2635
 1088TIP3    H124823   5.386   5.916   0.950  0.4296 -0.4228  2.0360
 1088TIP3    H224824   5.478   5.931   0.831 -1.7234  0.0809  0.3904
 1089TIP3   OH224825   5.414   5.836   2.621 -0.6272 -0.4445 -0.0341
 1089TIP3    H124826   5.474   5.762   2.632  1.4678  1.0551 -0.8217
 1089TIP3    H224827   5.332   5.806   2.661  0.4580 -2.7668  0.6404
 1090TIP3   OH224828   1.449   5.927   3.964  0.9451  0.5435 -0.0503
 1090TIP3    H124829   1.463   5.931   3.869 -2.4850  1.5219 -0.6399
 1090TIP3    H224830   1.408   6.010   3.986 -4.4759 -1.9336  0.9454
 1091TIP3   OH224831   5.424   0.188   3.259 -0.2626 -0.6455  0.4783
 1091TIP3    H124832   5.338   0.147   3.263  0.1528 -1.4071  2.7904
 1091TIP3    H224833   5.421   0.257   3.326  1.3118 -1.5577  1.5494
 1092TIP3   OH224834   5.295   1.839   2.922  0.0362 -0.4738  0.0397
 1092TIP3    H124835   5.260   1.814   2.836 -1.0442  1.3932 -0.1207
 1092TIP3    H224836   5.362   1.904   2.902  1.6460 -1.9006  0.5302
 1093TIP3   OH224837   1.123   2.488   3.585 -0.2576  0.4397  0.5012
 1093TIP3    H124838   1.179   2.466   3.660 -2.1362  0.5281  2.0112
 1093TIP3    H224839   1.072   2.408   3.570  0.0371  0.4523 -0.6662
 1094TIP3   OH224840   0.119   2.458   1.749  0.3853 -0.3041  0.5205
 1094TIP3    H124841   0.207   2.468   1.787 -0.1289 -0.6844  1.8808
 1094TIP3    H224842   0.128   2.386   1.687  1.1596  0.0355  0.2196
 1095TIP3   OH224843   1.558   2.091   3.389  0.3033  0.5771  0.2261
 1095TIP3    H124844   1.577   2.113   3.298  1.1795  0.4903  0.3845
 1095TIP3    H224845   1.553   1.996   3.390  0.3633  0.5748  0.2851
 1096TIP3   OH224846   6.670   2.485   3.155  0.2909  0.7666  0.1407
 1096TIP3    H124847   6.752   2.487   3.106  1.2173 -0.0217  1.5972
 1096TIP3    H224848   6.695   2.459   3.243 -1.7513 -1.2673  0.2001
 1097TIP3   OH224849   0.131   0.342   1.014  0.1989 -0.1690  0.3150
 1097TIP3    H124850   0.078   0.279   0.965  2.4266 -1.9670  0.0389
 1097TIP3    H224851   0.068   0.389   1.068 -1.8378 -1.0127 -1.1998
 1098TIP3   OH224852   1.775   5.388   1.520  0.1744  0.5265 -0.0341
 1098TIP3    H124853   1.788   5.456   1.587  1.6948 -0.3744  0.6370
 1098TIP3    H224854   1.685   5.358   1.534  0.7097 -0.2424  2.2392
 1099TIP3   OH224855   5.186   1.137   5.237  0.0945 -0.0457 -0.4827
 1099TIP3    H124856   5.280   1.136   5.220  0.1807  1.1366 -0.1437
 1099TIP3    H224857   5.166   1.227   5.262 -1.0401 -0.3958 -0.0189
 1100TIP3   OH224858   3.918   5.552   2.124 -0.2530 -0.2025 -0.0635
 1100TIP3    H124859   3.823   5.557   2.113 -0.1772  1.1433 -0.2992
 1100TIP3    H224860   3.936   5.605   2.202  0.3425 -0.0658 -0.2895
 1101TIP3   OH224861   0.880   4.567   2.158 -0.2045  0.3144  0.5227
 1101TIP3    H124862   0.850   4.490   2.206 -0.9175  1.6902  2.3939
 1101TIP3    H224863   0.800   4.612   2.132  0.0891 -0.8214 -2.9163
 1102TIP3   OH224864   1.332   4.671   3.860  0.4063 -0.4996 -0.2151
 1102TIP3    H124865   1.348   4.737   3.927  0.2358 -0.9097  0.2392
 1102TIP3    H224866   1.329   4.720   3.778 -1.2860  0.2737  0.2661
 1103TIP3   OH224867   6.154   6.707   3.318  0.0595  0.1948 -0.2666
 1103TIP3    H124868   6.099   6.641   3.276 -1.9321  0.6264  1.4700
 1103TIP3    H224869   6.100   6.741   3.390  1.8166  2.2090  0.2124
 1104TIP3   OH224870   6.785   6.219   2.634 -0.0048  0.2149 -0.7367
 1104TIP3    H124871   6.855   6.264   2.680 -1.2221  1.8918 -0.4207
 1104TIP3    H224872   6.751   6.156   2.697  0.1522  0.5591 -0.3019
 1105TIP3   OH224873   0.569   1.436   2.295  0.8154  0.3524 -0.0297
 1105TIP3    H124874   0.557   1.496   2.369  3.6497  2.0122 -0.7810
 1105TIP3    H224875   0.640   1.378   2.322  0.2786 -0.5849 -0.5740
 1106TIP3   OH224876   0.169   4.772   3.423  0.5229  0.7239  0.1594
 1106TIP3    H124877   0.218   4.691   3.440  1.0564  0.7292 -1.2745
 1106TIP3    H224878   0.191   4.828   3.498  1.5074  0.1632  0.3131
 1107TIP3   OH224879   0.460   0.213   3.726  0.1495  0.0655  0.4090
 1107TIP3    H124880   0.490   0.123   3.715  2.0191  0.5885  0.8073
 1107TIP3    H224881   0.388   0.207   3.788 -0.7017 -1.2826 -0.6571
 1108TIP3   OH224882   6.047   3.364   1.712 -0.3514 -0.3528  0.3398
 1108TIP3    H124883   6.066   3.392   1.801  0.7238  1.4845 -0.3984
 1108TIP3    H224884   6.124   3.313   1.686 -0.0768  0.1759  0.0788
 1109TIP3   OH224885   4.299   6.694   0.650  0.3661  0.3281  0.3019
 1109TIP3    H124886   4.216   6.741   0.665  1.1911  1.8658  0.2252
 1109TIP3    H224887   4.275   6.621   0.594 -0.9607  0.7191  0.3230
 1110TIP3   OH224888   5.510   0.436   2.325  0.3712 -0.2376 -0.4144
 1110TIP3    H124889   5.567   0.511   2.342  1.7971 -1.4438  0.3430
 1110TIP3    H224890   5.529   0.413   2.234 -0.5941  0.7147 -0.8802
 1111TIP3   OH224891   2.169   3.288   0.962  0.3249  0.1978 -0.5934
 1111TIP3    H124892   2.212   3.373   0.958 -0.3378  0.5168 -1.0160
 1111TIP3    H224893   2.093   3.302   1.019 -0.3426  0.1473 -1.4527
 1112TIP3   OH224894   5.223   3.451   0.975  0.7605 -0.2454 -0.5132
 1112TIP3    H124895   5.293   3.403   0.933  1.9999  1.6538 -0.7475
 1112TIP3    H224896   5.254   3.466   1.064 -0.0139 -0.6470 -0.1649
 1113TIP3   OH224897   1.277   1.105   2.735  0.3211 -0.4197 -0.5023
 1113TIP3    H124898   1.352   1.164   2.739  0.4081 -0.2810 -2.7152
 1113TIP3    H224899   1.312   1.020   2.762  1.6041 -0.5863 -2.4570
 1114TIP3   OH224900   1.114   6.783   2.773 -0.2345  0.1519 -0.1441
 1114TIP3    H124901   1.047   6.715   2.760  2.7828 -2.9873 -0.7270
 1114TIP3    H224902   1.085   6.831   2.850 -4.6989  1.2001 -2.1439
 1115TIP3   OH224903   1.089   6.133   1.275 -0.1776  0.3669  0.1431
 1115TIP3    H124904   1.042   6.216   1.264  0.1765  0.3924 -1.3413
 1115TIP3    H224905   1.177   6.150   1.241 -0.0449 -0.5668 -0.0004
 1116TIP3   OH224906   1.551   6.774   8.700 -0.1003  0.2493  0.4768
 1116TIP3    H124907   1.585   6.863   8.686 -1.1021  0.4468 -1.0236
 1116TIP3    H224908   1.628   6.717   8.692  0.4114  0.9209  0.5545
 1117TIP3   OH224909   2.599   3.582   1.003 -0.6086  0.0334  0.5541
 1117TIP3    H124910   2.626   3.591   0.911 -0.6565  1.2043  0.6417
 1117TIP3    H224911   2.679   3.562   1.050 -0.1780  1.6099  0.5468
 1118TIP3   OH224912   3.018   2.490   0.704 -0.7179  0.3106 -0.2104
 1118TIP3    H124913   3.113   2.494   0.703 -0.4732 -2.8399  0.1301
 1118TIP3    H224914   2.993   2.471   0.614 -0.7515 -1.5635  0.1540
 1119TIP3   OH224915   0.402   5.592   2.339  0.2843 -0.4224  0.3816
 1119TIP3    H124916   0.377   5.575   2.430  0.8023  1.9002  1.0057
 1119TIP3    H224917   0.319   5.592   2.291 -0.0632 -0.8917  0.9671
 1120TIP3   OH224918   6.635   0.140   4.281 -0.4023 -0.0256  0.4201
 1120TIP3    H124919   6.591   0.219   4.314 -0.0331  0.3245  0.0776
 1120TIP3    H224920   6.572   0.070   4.297 -0.8217  0.3710  0.5315
 1121TIP3   OH224921   3.299   1.791   1.673 -0.6149  0.1258  0.9754
 1121TIP3    H124922   3.347   1.832   1.601  0.2163  0.0313  1.4717
 1121TIP3    H224923   3.256   1.716   1.633  0.6522 -0.5081  0.7760
 1122TIP3   OH224924   1.901   0.211   4.202 -0.0672  0.2623 -0.3542
 1122TIP3    H124925   1.976   0.250   4.157 -0.4407  0.3034 -0.9447
 1122TIP3    H224926   1.830   0.216   4.139 -0.1930 -1.1569 -0.3571
 1123TIP3   OH224927   1.249   1.451   1.110  0.0112 -0.3077 -0.0746
 1123TIP3    H124928   1.268   1.543   1.092  0.9426 -0.6229 -0.8114
 1123TIP3    H224929   1.302   1.431   1.188 -1.3713  0.1603  1.0181
 1124TIP3   OH224930   3.475   6.306   3.254  0.1834  0.0500 -0.0977
 1124TIP3    H124931   3.474   6.274   3.344 -0.8023 -1.5371 -0.6186
 1124TIP3    H224932   3.565   6.291   3.224  0.4836  0.4777  0.5781
 1125TIP3   OH224933   4.418   4.570   5.006  0.6582  0.4820  0.2171
 1125TIP3    H124934   4.500   4.610   5.033  1.5064 -1.1214  0.1537
 1125TIP3    H224935   4.442   4.511   4.935 -0.3685 -0.7896  0.8764
 1126TIP3   OH224936   2.153   4.146   3.766 -0.4457 -0.1793  0.5324
 1126TIP3    H124937   2.235   4.120   3.806 -1.2491 -2.0501  1.0880
 1126TIP3    H224938   2.091   4.077   3.790 -2.0822  0.9364 -0.2240
 1127TIP3   OH224939   6.013   3.953   0.409  0.2491  0.0223 -0.1061
 1127TIP3    H124940   6.006   3.959   0.314 -0.3153 -1.0090 -0.1415
 1127TIP3    H224941   6.087   4.009   0.431 -0.0146  0.7733 -1.0868
 1128TIP3   OH224942   1.145   1.840   1.378  0.0355  0.3908 -0.2138
 1128TIP3    H124943   1.139   1.933   1.397  0.8472  0.4023  0.0416
 1128TIP3    H224944   1.219   1.832   1.318  0.2622 -0.1328  0.1229
 1129TIP3   OH224945   5.803   6.334   2.909  0.2838 -0.1909  0.4815
 1129TIP3    H124946   5.772   6.362   2.823  0.2082 -3.5948 -0.7420
 1129TIP3    H224947   5.898   6.341   2.904  0.2243  2.3599  1.2790
 1130TIP3   OH224948   4.732   4.758   3.507 -0.5132 -0.3805 -0.0659
 1130TIP3    H124949   4.637   4.760   3.513 -0.4578 -1.3367  1.6888
 1130TIP3    H224950   4.761   4.827   3.566 -0.1072 -1.8409  1.5182
 1131TIP3   OH224951   2.827   4.716   0.361  0.6344  0.3575  0.1552
 1131TIP3    H124952   2.912   4.746   0.394  0.7023  1.5775 -1.0281
 1131TIP3    H224953   2.847   4.683   0.273  0.0089 -0.1311  0.1921
 1132TIP3   OH224954   4.377   0.662   2.162 -0.2977 -0.6722 -0.0936
 1132TIP3    H124955   4.314   0.607   2.209  0.7625 -1.9540 -0.1094
 1132TIP3    H224956   4.461   0.621   2.178  0.3209 -0.0828 -1.6198
 1133TIP3   OH224957   6.030   4.103   1.738 -0.0656 -0.1945  0.3908
 1133TIP3    H124958   5.986   4.076   1.819  3.1570 -2.1607  1.7087
 1133TIP3    H224959   6.084   4.178   1.764 -1.8336  1.6673 -0.9919
 1134TIP3   OH224960   6.093   6.424   3.802 -0.3295  0.3192 -0.1183
 1134TIP3    H124961   6.093   6.434   3.897  0.4846 -2.6724  0.3134
 1134TIP3    H224962   6.044   6.343   3.786  0.9293 -0.1458 -2.0703
 1135TIP3   OH224963   6.010   1.995   2.881 -0.0518  0.2459  0.1731
 1135TIP3    H124964   6.075   2.046   2.930 -1.6321  1.0657  1.5090
 1135TIP3    H224965   6.035   1.904   2.896  0.9478  0.5416  0.4126
 1136TIP3   OH224966   0.604   6.005   3.130 -0.2482  0.0155  0.3055
 1136TIP3    H124967   0.520   5.972   3.162 -0.6892  1.6020  0.8752
 1136TIP3    H224968   0.582   6.058   3.053 -0.0846  2.2205  1.6978
 1137TIP3   OH224969   2.940   4.153   4.537 -0.1818  0.3834 -0.0645
 1137TIP3    H124970   2.897   4.234   4.566  0.3742  1.0935 -1.1232
 1137TIP3    H224971   3.018   4.146   4.591 -1.2507 -0.5584  1.4164
 1138TIP3   OH224972   2.199   1.116   2.386  0.0207 -0.2214  0.0012
 1138TIP3    H124973   2.209   1.190   2.445  0.1908 -1.3713  1.4815
 1138TIP3    H224974   2.117   1.132   2.340  0.4233  1.2301 -0.2492
 1139TIP3   OH224975   4.344   4.266   3.368 -0.2708  0.1970  0.1010
 1139TIP3    H124976   4.430   4.235   3.341 -0.0798  2.0602 -1.5927
 1139TIP3    H224977   4.356   4.296   3.458  0.3027 -1.4973  0.6186
 1140TIP3   OH224978   2.363   4.244   1.816  0.5743 -0.0019 -0.4754
 1140TIP3    H124979   2.302   4.185   1.860  0.0838  0.4626 -0.5204
 1140TIP3    H224980   2.417   4.186   1.761  1.4277 -0.6297  0.9686
 1141TIP3   OH224981   1.368   6.325   2.757  0.4854  0.8110  0.2576
 1141TIP3    H124982   1.300   6.308   2.692 -1.2851  0.3125  2.1060
 1141TIP3    H224983   1.347   6.412   2.792  0.8111  0.6754  0.8102
 1142TIP3   OH224984   5.624   0.170   5.249  0.1150  0.0624 -0.2194
 1142TIP3    H124985   5.681   0.213   5.185 -0.6657  2.2266  0.4525
 1142TIP3    H224986   5.587   0.241   5.300 -1.6979 -1.3961  0.6372
 1143TIP3   OH224987   0.272   2.807   4.021  0.2791  0.1622 -0.2038
 1143TIP3    H124988   0.364   2.809   4.046  0.2949  1.0325 -0.3018
 1143TIP3    H224989   0.225   2.809   4.105  0.3315 -1.1480 -0.1145
 1144TIP3   OH224990   6.467   3.709   4.183 -0.1760  0.0538  0.7483
 1144TIP3    H124991   6.533   3.767   4.222  1.3836  0.2641 -1.9614
 1144TIP3    H224992   6.509   3.623   4.180 -0.6101 -0.1484  0.3665
 1145TIP3   OH224993   0.883   5.278   1.960 -0.1086 -0.1095  0.4039
 1145TIP3    H124994   0.923   5.213   1.903  0.7942  1.4497 -0.8572
 1145TIP3    H224995   0.953   5.306   2.018 -0.3362  0.0835  0.5882
 1146TIP3   OH224996   0.748   1.241   0.575 -0.0940 -0.3640  0.8061
 1146TIP3    H124997   0.839   1.233   0.548  0.4437  0.9376  2.1188
 1146TIP3    H224998   0.700   1.182   0.516  1.4668 -0.3959 -0.4913
 1147TIP3   OH224999   4.834   2.045   1.785  0.3454 -0.3112  0.1635
 1147TIP3    H125000   4.900   2.073   1.722 -0.6900  0.9277 -0.4109
 1147TIP3    H225001   4.797   1.965   1.747  0.7947 -0.4393 -0.0149
 1148TIP3   OH225002   6.668   6.069   3.785  0.2763  0.1376 -0.0017
 1148TIP3    H125003   6.611   6.104   3.853  0.4486  1.3155 -0.4475
 1148TIP3    H225004   6.731   6.014   3.833  0.1448  0.6165  0.7367
 1149TIP3   OH225005   2.365   0.603   3.506 -0.2130  1.0502  0.3577
 1149TIP3    H125006   2.273   0.586   3.487  0.1164  0.3683 -0.6984
 1149TIP3    H225007   2.390   0.534   3.568 -0.0413  0.2994 -0.5148
 1150TIP3   OH225008   5.169   6.767   3.884  0.2634 -0.2788  0.2758
 1150TIP3    H125009   5.199   6.857   3.874 -0.0807 -0.2066 -0.1123
 1150TIP3    H225010   5.076   6.770   3.860 -0.2335 -0.3795  2.0255
 1151TIP3   OH225011   5.845   2.094   0.950  0.9361 -0.3666  0.2758
 1151TIP3    H125012   5.868   2.070   1.040  1.1100 -0.6622  0.1563
 1151TIP3    H225013   5.824   2.187   0.954  1.2982 -0.2932  0.5572
 1152TIP3   OH225014   6.032   1.657   2.539  0.0935 -0.1110 -0.6213
 1152TIP3    H125015   6.115   1.624   2.574  0.5031  1.5250  0.0322
 1152TIP3    H225016   5.965   1.607   2.585  0.6782 -1.9058 -1.6038
 1153TIP3   OH225017   2.478   3.861   2.677  0.5863 -0.4038 -0.0589
 1153TIP3    H125018   2.424   3.783   2.690  1.2238 -0.3845  4.1870
 1153TIP3    H225019   2.560   3.840   2.721  1.2024  2.2339  0.1954
 1154TIP3   OH225020   0.541   6.489   3.923  0.0608 -0.0286 -0.1437
 1154TIP3    H125021   0.537   6.426   3.996 -0.0458 -0.3481 -0.4213
 1154TIP3    H225022   0.624   6.469   3.880  0.4973  0.6796  0.3481
 1155TIP3   OH225023   1.489   4.555   0.367  0.7530  0.3193  0.6669
 1155TIP3    H125024   1.418   4.597   0.416 -0.1988  1.1629 -1.3487
 1155TIP3    H225025   1.527   4.625   0.314  1.5340 -0.6187 -0.0473
 1156TIP3   OH225026   4.161   6.455   4.093 -0.0968 -0.0861 -0.5659
 1156TIP3    H125027   4.184   6.363   4.106  1.2904  0.2696 -0.3562
 1156TIP3    H225028   4.096   6.454   4.023 -2.0560 -1.4250  1.1387
 1157TIP3   OH225029   1.452   1.848   2.000 -0.3262 -0.0960  0.0316
 1157TIP3    H125030   1.377   1.826   2.055 -0.9871  2.4758  0.3048
 1157TIP3    H225031   1.526   1.852   2.060  0.0113 -2.3021 -0.1798
 1158TIP3   OH225032   3.333   5.037   2.985  0.0714  0.0555  0.7720
 1158TIP3    H125033   3.382   5.070   3.060  1.0311  0.4723 -0.0261
 1158TIP3    H225034   3.251   5.087   2.986  0.5329  0.8192  0.9220
 1159TIP3   OH225035   4.190   3.199   0.073  0.3156  0.0174 -0.5020
 1159TIP3    H125036   4.161   3.283   0.110  0.7625 -0.8039  1.8929
 1159TIP3    H225037   4.281   3.213   0.048 -0.3613  0.9659 -2.7203
 1160TIP3   OH225038   1.147   2.934   2.997 -0.3927 -0.5637 -0.1432
 1160TIP3    H125039   1.119   2.900   2.911  0.3549 -0.4723 -0.4314
 1160TIP3    H225040   1.155   2.856   3.051  2.0659 -1.0120 -1.0167
 1161TIP3   OH225041   4.967   3.435   1.054  0.3176 -0.2728  0.2725
 1161TIP3    H125042   5.058   3.435   1.023  0.6594 -1.6277  1.1577
 1161TIP3    H225043   4.956   3.520   1.096  0.9684  0.1568 -0.3968
 1162TIP3   OH225044   6.753   2.652   3.880  0.6669  0.3241  0.5968
 1162TIP3    H125045   6.755   2.746   3.866 -0.2702  0.0505 -1.8485
 1162TIP3    H225046   6.670   2.636   3.926  1.3617  0.7665  2.0460
 1163TIP3   OH225047   2.671   0.453   2.534 -0.3330  0.5324  0.1815
 1163TIP3    H125048   2.726   0.414   2.466 -0.3608 -1.0673  1.0381
 1163TIP3    H225049   2.686   0.398   2.611 -3.0773  0.0662  0.4699
 1164TIP3   OH225050   1.902   2.321   3.790 -0.1623 -0.7553  0.3080
 1164TIP3    H125051   1.991   2.315   3.824 -0.8239 -0.4094  2.2542
 1164TIP3    H225052   1.855   2.373   3.855 -1.0179  2.1520 -2.3986
 1165TIP3   OH225053   1.010   2.302   3.775 -0.3173 -0.0552 -0.3629
 1165TIP3    H125054   0.988   2.384   3.819 -0.2944  0.1346 -0.6960
 1165TIP3    H225055   1.067   2.256   3.836  0.0756  0.4032 -0.3746
 1166TIP3   OH225056   3.395   5.597   0.626  0.2237 -0.0574 -0.2185
 1166TIP3    H125057   3.444   5.614   0.546 -0.3023 -0.1472 -0.5609
 1166TIP3    H225058   3.447   5.639   0.695 -1.0174  2.9916 -0.9879
 1167TIP3   OH225059   6.630   5.743   4.267  0.6465 -0.1885 -0.0013
 1167TIP3    H125060   6.581   5.671   4.230  2.1154 -1.2013 -0.0742
 1167TIP3    H225061   6.700   5.701   4.318  1.5183  1.1613 -0.0147
 1168TIP3   OH225062   3.686   0.932   1.566  0.0852 -0.2054 -0.7840
 1168TIP3    H125063   3.692   0.847   1.522 -1.6836 -0.6159 -0.3187
 1168TIP3    H225064   3.745   0.924   1.641  1.1715 -0.4225 -1.6395
 1169TIP3   OH225065   1.300   2.795   0.398 -0.3086 -0.5453 -0.4296
 1169TIP3    H125066   1.357   2.871   0.389 -1.0340 -0.1951 -2.6679
 1169TIP3    H225067   1.359   2.722   0.412  0.4265  0.3010  1.2877
 1170TIP3   OH225068   3.729   5.777   3.167 -0.1360  0.1586  0.0086
 1170TIP3    H125069   3.764   5.783   3.256 -1.3926 -0.9367  0.6269
 1170TIP3    H225070   3.648   5.727   3.177  0.8769 -2.1158 -2.0591
 1171TIP3   OH225071   3.080   6.201   0.935 -0.2010 -0.4736 -0.5258
 1171TIP3    H125072   3.142   6.136   0.902  1.1140 -0.7124  2.1419
 1171TIP3    H225073   3.111   6.285   0.900 -0.2822 -0.9282 -1.7413
 1172TIP3   OH225074   3.829   6.393   1.625  0.3890  0.0348  0.5265
 1172TIP3    H125075   3.780   6.311   1.624  1.3889 -0.5819  0.4863
 1172TIP3    H225076   3.763   6.461   1.612 -0.2962 -0.8434 -0.7552
 1173TIP3   OH225077   4.774   5.137   2.719  0.2317 -0.4359  0.0612
 1173TIP3    H125078   4.801   5.227   2.733  0.5392 -0.5388  0.1243
 1173TIP3    H225079   4.855   5.088   2.709  0.0667 -0.7064  0.0219
 1174TIP3   OH225080   5.032   4.207   3.820  0.0186 -0.2322  0.0452
 1174TIP3    H125081   5.087   4.188   3.745 -1.4904  0.1516 -1.2037
 1174TIP3    H225082   4.953   4.246   3.783 -0.4381  0.7108  1.8959
 1175TIP3   OH225083   2.184   1.234   0.915  0.4775  0.3608  0.2722
 1175TIP3    H125084   2.093   1.208   0.921  0.5572  0.0903  0.3109
 1175TIP3    H225085   2.234   1.155   0.934  0.7205  0.5347  0.3757
 1176TIP3   OH225086   1.511   2.072   0.778 -0.1506 -0.1396  0.0624
 1176TIP3    H125087   1.587   2.056   0.723  0.3268 -1.6435  1.0692
 1176TIP3    H225088   1.439   2.086   0.717  0.8605  1.0078 -0.9105
 1177TIP3   OH225089   3.311   1.199   0.288 -0.2768  0.0828  0.3080
 1177TIP3    H125090   3.326   1.281   0.241  1.5424 -0.5930 -0.3780
 1177TIP3    H225091   3.395   1.152   0.283 -0.6971 -1.0107  2.3172
 1178TIP3   OH225092   6.103   4.611   2.242 -0.2154  0.2040  0.0643
 1178TIP3    H125093   6.127   4.535   2.190 -2.8975 -0.8372  0.2278
 1178TIP3    H225094   6.125   4.586   2.332  2.0893  1.0502 -0.1744
 1179TIP3   OH225095   0.068   0.464   1.477 -0.0250  0.1710 -0.1214
 1179TIP3    H125096   0.085   0.476   1.570 -0.7138 -2.9838  0.5383
 1179TIP3    H225097   0.091   0.373   1.460  0.6320  0.7984 -3.2161
 1180TIP3   OH225098   5.728   0.383   3.537  0.3931 -0.4502 -1.1420
 1180TIP3    H125099   5.733   0.452   3.471  0.5881  0.5840 -0.0798
 1180TIP3    H225100   5.689   0.309   3.491 -2.9701  1.3536 -1.5026
 1181TIP3   OH225101   2.467   3.001   4.345 -0.2106  0.4354  0.2031
 1181TIP3    H125102   2.399   2.936   4.362  1.4859 -1.3929  0.5346
 1181TIP3    H225103   2.447   3.036   4.258  0.3182 -2.6926 -1.3248
 1182TIP3   OH225104   3.970   5.519   0.906  0.5032 -0.3604  0.0569
 1182TIP3    H125105   3.989   5.470   0.826  2.1218 -1.6466  1.1543
 1182TIP3    H225106   4.006   5.606   0.889  1.2088 -0.7367 -0.4868
 1183TIP3   OH225107   3.229   1.145   3.049 -1.2275  0.2102 -0.0396
 1183TIP3    H125108   3.324   1.131   3.055 -1.2501 -0.9096 -1.5245
 1183TIP3    H225109   3.197   1.069   3.000 -2.6328  1.4622 -1.1633
 1184TIP3   OH225110   5.729   1.900   3.521 -0.6504 -0.4931  0.6979
 1184TIP3    H125111   5.752   1.982   3.565  1.1770  1.3724 -3.2554
 1184TIP3    H225112   5.640   1.915   3.488 -0.7065 -0.5229  0.8348
 1185TIP3   OH225113   3.652   0.459   3.088  0.2189  0.0070 -0.0792
 1185TIP3    H125114   3.619   0.419   3.169  2.3555 -0.4923  0.6243
 1185TIP3    H225115   3.588   0.526   3.066  0.4040  1.3628  3.0188
 1186TIP3   OH225116   0.910   1.409   2.306  0.3531  0.0334 -0.1627
 1186TIP3    H125117   0.914   1.468   2.231 -0.4058  0.8014  0.3774
 1186TIP3    H225118   0.901   1.467   2.382 -0.8151 -0.7542  0.3422
 1187TIP3   OH225119   3.403   3.222   4.668  0.6310  0.0701  0.5812
 1187TIP3    H125120   3.382   3.315   4.666 -0.7593 -0.0662  3.7976
 1187TIP3    H225121   3.482   3.216   4.721  0.9455 -0.5973  0.0617
 1188TIP3   OH225122   4.636   5.660   4.251  0.2710 -0.0218  0.1027
 1188TIP3    H125123   4.543   5.681   4.263  0.2011 -0.5661  0.5608
 1188TIP3    H225124   4.668   5.645   4.340  0.6548 -0.4258 -0.1028
 1189TIP3   OH225125   4.039   3.628   2.448 -0.4731  0.1102  0.4409
 1189TIP3    H125126   3.949   3.647   2.421  0.2183  0.1721 -2.0120
 1189TIP3    H225127   4.041   3.532   2.455 -0.1051 -0.1604 -2.2485
 1190TIP3   OH225128   0.041   1.460   0.865 -0.1816 -0.2800  0.0153
 1190TIP3    H125129  -0.015   1.529   0.831 -0.6713 -0.5751  0.2170
 1190TIP3    H225130   0.004   1.439   0.951  1.8253  1.4008  1.3938
 1191TIP3   OH225131   1.239   4.098   0.835 -0.8951  0.1637 -0.3642
 1191TIP3    H125132   1.309   4.141   0.884 -0.0454 -0.2205 -1.2062
 1191TIP3    H225133   1.256   4.121   0.744 -0.4913 -1.8077 -0.8311
 1192TIP3   OH225134   5.553   1.659   8.621  0.4342 -0.3074  0.1808
 1192TIP3    H125135   5.617   1.640   8.689 -0.9560 -0.7138  1.4404
 1192TIP3    H225136   5.504   1.577   8.609 -0.6037  0.2954  0.1066
 1193TIP3   OH225137   0.011   6.510   1.162  0.7061 -0.1845  0.3570
 1193TIP3    H125138  -0.067   6.532   1.213 -0.2186 -0.8534 -0.7101
 1193TIP3    H225139   0.020   6.415   1.171  0.7393 -0.2600 -0.4045
 1194TIP3   OH225140   2.780   6.668   3.942 -0.1164 -0.0241 -0.4828
 1194TIP3    H125141   2.763   6.734   3.875  1.4996 -0.2023 -1.0973
 1194TIP3    H225142   2.874   6.654   3.939 -0.1882 -1.0061  0.9334
 1195TIP3   OH225143   4.752   0.635   0.997 -0.2647 -0.0842 -0.2088
 1195TIP3    H125144   4.687   0.622   1.065 -1.7920 -3.3739 -2.0666
 1195TIP3    H225145   4.717   0.705   0.942 -0.6571  0.3015  0.5259
 1196TIP3   OH225146   5.269   3.446   4.489  0.3594 -0.3216 -0.1980
 1196TIP3    H125147   5.221   3.440   4.572 -1.0865 -0.1975 -0.9920
 1196TIP3    H225148   5.356   3.478   4.514 -0.3879  0.7716  1.1470
 1197TIP3   OH225149   0.634   0.892   2.802 -0.6363  0.2509  0.2366
 1197TIP3    H125150   0.646   0.987   2.802 -0.5260  0.2358  0.2712
 1197TIP3    H225151   0.615   0.870   2.893  1.3291 -0.0282  0.6193
 1198TIP3   OH225152   5.157   5.046   4.803 -0.1579  0.4409  0.5507
 1198TIP3    H125153   5.078   5.027   4.752 -0.1348  0.7134  0.4111
 1198TIP3    H225154   5.148   5.138   4.828 -1.1588 -0.2018  2.7927
 1199TIP3   OH225155   5.116   4.130   3.579  0.4163  0.4493  0.1622
 1199TIP3    H125156   5.206   4.100   3.592  0.7178  0.9058 -0.7623
 1199TIP3    H225157   5.075   4.061   3.527  0.1271  0.0911  0.8509
 1200TIP3   OH225158   5.529   5.172   2.290  0.1070  0.1771  0.5134
 1200TIP3    H125159   5.535   5.174   2.194  1.5051 -0.9870  0.5456
 1200TIP3    H225160   5.535   5.263   2.316 -1.1299  0.5950 -0.5349
 1201TIP3   OH225161   4.116   4.476   3.920 -0.0371 -0.4274 -0.1265
 1201TIP3    H125162   4.175   4.450   3.991  0.8146  0.1182 -0.6143
 1201TIP3    H225163   4.060   4.543   3.959  1.5088  1.0766 -0.3622
 1202TIP3   OH225164   4.988   3.321   0.685  0.0237  0.3939  0.3826
 1202TIP3    H125165   5.083   3.325   0.693  0.3054 -1.5194 -1.3860
 1202TIP3    H225166   4.960   3.261   0.754  0.1952  0.1467  0.2341
 1203TIP3   OH225167   2.799   5.923   2.442  0.0600 -0.5388 -0.3611
 1203TIP3    H125168   2.785   5.995   2.381 -0.5418 -0.5116 -0.1957
 1203TIP3    H225169   2.839   5.854   2.389 -0.8583 -0.6792 -0.8890
 1204TIP3   OH225170   4.252   2.863   2.886 -0.2713 -0.2363  0.1868
 1204TIP3    H125171   4.314   2.854   2.814 -0.1263  1.6732  0.0352
 1204TIP3    H225172   4.306   2.869   2.965 -0.2586  0.9787  0.0998
 1205TIP3   OH225173   0.500   0.638   8.834  0.2043  0.4635  0.4657
 1205TIP3    H125174   0.406   0.634   8.851  0.5403  0.3229  2.6722
 1205TIP3    H225175   0.531   0.549   8.852  0.9752  0.9175  1.4671
 1206TIP3   OH225176   6.142   6.687   4.383  0.2867 -0.4397 -0.3424
 1206TIP3    H125177   6.081   6.718   4.316 -0.1887 -0.6186  0.0098
 1206TIP3    H225178   6.110   6.601   4.408  0.4597 -0.3717  0.1252
 1207TIP3   OH225179   5.498   0.671   3.993 -0.2614 -0.0788  0.6547
 1207TIP3    H125180   5.508   0.682   4.087  0.5713  0.8722  0.4692
 1207TIP3    H225181   5.409   0.702   3.975  0.1872  1.4284  0.8992
 1208TIP3   OH225182   4.761   0.965   3.233 -0.1495  0.2671 -0.4514
 1208TIP3    H125183   4.805   0.880   3.228  0.5079  0.2931  2.8896
 1208TIP3    H225184   4.833   1.028   3.238 -0.5276  0.5748  1.8082
 1209TIP3   OH225185   3.870   3.701   3.672  0.2759  0.0354 -0.0211
 1209TIP3    H125186   3.843   3.763   3.605 -1.8125  0.5115  1.1427
 1209TIP3    H225187   3.855   3.747   3.755  1.3277 -1.0455  0.8069
 1210TIP3   OH225188   3.389   1.219   3.979  0.2403 -0.4169  0.1764
 1210TIP3    H125189   3.467   1.165   3.989  1.5122  0.9732 -1.6528
 1210TIP3    H225190   3.397   1.286   4.046  1.5808  0.7612 -1.1113
 1211TIP3   OH225191   5.095   6.682   3.483  0.6588  0.0923  0.1744
 1211TIP3    H125192   5.063   6.617   3.546  0.8726  0.5241  0.7422
 1211TIP3    H225193   5.032   6.680   3.411 -0.9862  1.2983  1.4896
 1212TIP3   OH225194   4.640   3.015   2.773 -0.4288 -0.4257 -0.0006
 1212TIP3    H125195   4.656   3.092   2.827 -1.7227 -1.1332  1.4934
 1212TIP3    H225196   4.726   2.974   2.765 -0.2857 -0.7642  2.3654
 1213TIP3   OH225197   1.757   0.305   4.427 -0.0040 -0.2342 -0.0525
 1213TIP3    H125198   1.824   0.273   4.367  0.1510 -0.7083  0.3712
 1213TIP3    H225199   1.769   0.254   4.507 -0.4823  0.0969  0.2373
 1214TIP3   OH225200   6.346   1.116   2.286 -0.0869  0.0680  0.3747
 1214TIP3    H125201   6.287   1.191   2.287  0.8612  0.8713  2.3042
 1214TIP3    H225202   6.294   1.045   2.251 -2.0023  0.9163  1.3320
 1215TIP3   OH225203   5.884   6.295   1.807 -0.0247 -0.1011  0.2745
 1215TIP3    H125204   5.895   6.232   1.736 -1.3688  0.5623 -0.5662
 1215TIP3    H225205   5.908   6.379   1.769 -0.7152  0.2583  0.6027
 1216TIP3   OH225206   2.735   4.957   0.547  0.3730 -0.1589 -0.2966
 1216TIP3    H125207   2.792   5.004   0.607 -0.1823  1.0262 -0.6630
 1216TIP3    H225208   2.794   4.919   0.482  0.8479 -0.1152  0.1040
 1217TIP3   OH225209   3.730   6.366   1.967 -0.1477  0.4282  0.8822
 1217TIP3    H125210   3.756   6.279   1.937  2.3644  1.6358 -0.8059
 1217TIP3    H225211   3.653   6.388   1.913  0.3118 -0.0644  0.0049
 1218TIP3   OH225212   4.272   6.265   2.602  0.0433  0.6159  0.3115
 1218TIP3    H125213   4.210   6.292   2.535 -1.8444  1.0581  2.1489
 1218TIP3    H225214   4.358   6.274   2.560 -0.9755  2.1870 -1.5778
 1219TIP3   OH225215   2.607   4.848   2.726  0.2522 -0.3520 -0.2224
 1219TIP3    H125216   2.657   4.783   2.775 -0.7197 -0.0520  1.2119
 1219TIP3    H225217   2.538   4.876   2.786  1.8653  3.5839  0.0551
 1220TIP3   OH225218   1.417   0.281   0.807 -0.1858 -0.1039  0.0310
 1220TIP3    H125219   1.329   0.266   0.842 -0.3379  1.1076  0.2228
 1220TIP3    H225220   1.468   0.312   0.882 -0.4450  2.2564 -0.6976
 1221TIP3   OH225221   2.844   1.797   0.499  0.0875  0.4911 -0.0210
 1221TIP3    H125222   2.772   1.774   0.557  1.3139 -0.7891  1.0749
 1221TIP3    H225223   2.843   1.731   0.431  1.8514 -1.2801  1.5398
 1222TIP3   OH225224   4.133   1.593   1.463 -0.0018  0.4455  0.2537
 1222TIP3    H125225   4.225   1.604   1.441 -0.1760  0.0028 -0.7470
 1222TIP3    H225226   4.093   1.558   1.383 -0.8433 -0.3213  0.9902
 1223TIP3   OH225227   3.555   5.336   4.622  0.2763 -0.1509  0.1121
 1223TIP3    H125228   3.544   5.333   4.717 -0.2626  1.5521  0.1384
 1223TIP3    H225229   3.641   5.375   4.608 -0.2515  0.9915 -0.0726
 1224TIP3   OH225230   0.710   5.080   4.584 -0.1860 -0.3383  0.1845
 1224TIP3    H125231   0.625   5.107   4.619  0.0175  0.7219 -0.1144
 1224TIP3    H225232   0.774   5.110   4.648  0.0335 -0.2032 -0.0932
 1225TIP3   OH225233   5.142   3.600   3.101 -0.0204 -0.8175 -0.5591
 1225TIP3    H125234   5.051   3.604   3.072 -0.6964  0.3328  1.4730
 1225TIP3    H225235   5.138   3.557   3.187  1.4499 -1.3667 -0.7398
 1226TIP3   OH225236   6.564   4.040   3.576  0.2039  0.1907  0.6404
 1226TIP3    H125237   6.625   4.097   3.622  3.3358 -4.9549  3.8468
 1226TIP3    H225238   6.619   3.989   3.516 -2.2630  0.0253 -1.6677
 1227TIP3   OH225239   5.959   2.376   1.542  0.3991  0.2904  0.3062
 1227TIP3    H125240   5.910   2.412   1.616  1.9688 -0.3258  1.7098
 1227TIP3    H225241   6.017   2.448   1.515  1.0092 -0.0165  0.7823
 1228TIP3   OH225242   4.398   5.891   0.029  0.1224 -0.2662  0.2056
 1228TIP3    H125243   4.312   5.859   0.003  0.4502 -0.8609 -0.1435
 1228TIP3    H225244   4.412   5.969  -0.026  0.1965 -0.6889 -0.3810
 1229TIP3   OH225245   2.624   2.530   0.523 -0.2721 -0.0031 -0.1359
 1229TIP3    H125246   2.659   2.482   0.448  1.1614 -0.2394  0.6466
 1229TIP3    H225247   2.607   2.462   0.588 -0.8224  0.2782  0.0167
 1230TIP3   OH225248   6.255   4.061   2.865 -0.2957  0.5112  0.2720
 1230TIP3    H125249   6.250   4.145   2.910 -3.1948  0.5434  0.0639
 1230TIP3    H225250   6.173   4.017   2.887  0.1611 -1.3330 -1.4439
 1231TIP3   OH225251   3.122   3.863   4.109 -0.2609  0.3499 -0.2868
 1231TIP3    H125252   3.172   3.796   4.155  1.9731  2.0243 -0.0940
 1231TIP3    H225253   3.060   3.896   4.174  1.1249  0.9428  0.7825
 1232TIP3   OH225254   6.104   0.963   3.253  0.4161 -0.0516  0.1046
 1232TIP3    H125255   6.093   1.057   3.237 -0.0079  0.1461  1.4751
 1232TIP3    H225256   6.071   0.922   3.173  1.0591  0.9718 -0.7096
 1233TIP3   OH225257   2.730   4.981   1.413  0.3280 -0.1850 -0.2100
 1233TIP3    H125258   2.656   4.951   1.467  1.0390 -1.4432  0.1273
 1233TIP3    H225259   2.693   5.047   1.355 -0.6622  0.5478  1.2039
 1234TIP3   OH225260   3.765   5.778   1.177  0.2462  0.2797  0.7060
 1234TIP3    H125261   3.697   5.714   1.157  1.3615 -0.3199 -1.4455
 1234TIP3    H225262   3.718   5.849   1.221 -1.4155 -0.9662  1.0615
 1235TIP3   OH225263   2.972   4.480   4.337  0.1580 -0.0030 -0.4627
 1235TIP3    H125264   3.033   4.524   4.278 -0.4802  0.3984 -0.8241
 1235TIP3    H225265   2.996   4.512   4.424 -0.2386  0.9888 -0.7110
 1236TIP3   OH225266   1.675   4.949   1.566  0.1625  0.4724  0.2164
 1236TIP3    H125267   1.722   5.021   1.526 -0.3901  0.5826 -0.2582
 1236TIP3    H225268   1.615   4.918   1.497 -0.2109  0.1199  0.6859
 1237TIP3   OH225269   0.446   3.944   2.010 -0.5866 -0.0341 -0.8530
 1237TIP3    H125270   0.519   3.972   1.953 -0.9241  0.2120 -1.1683
 1237TIP3    H225271   0.476   3.965   2.099 -1.0967  2.0170 -1.1112
 1238TIP3   OH225272   2.620   3.209   1.067 -0.0810  0.3349  0.2998
 1238TIP3    H125273   2.643   3.298   1.040 -2.1830  0.6134 -0.7896
 1238TIP3    H225274   2.691   3.182   1.124  1.6654  1.9242 -1.0181
 1239TIP3   OH225275   0.405   2.733   0.916  0.0191  0.2158 -0.2100
 1239TIP3    H125276   0.369   2.666   0.857 -0.6823  0.1023  0.3279
 1239TIP3    H225277   0.482   2.767   0.870  0.6057 -1.2091 -0.3385
 1240TIP3   OH225278   1.246   1.908   2.894 -0.0892 -0.0400 -0.1392
 1240TIP3    H125279   1.170   1.966   2.887 -1.7134 -1.9658  0.2678
 1240TIP3    H225280   1.227   1.854   2.971  1.9659 -0.2750  0.2622
 1241TIP3   OH225281   1.323   6.048   1.506  0.1021  0.0951 -0.3216
 1241TIP3    H125282   1.399   5.993   1.529  2.2024  1.8907 -2.3994
 1241TIP3    H225283   1.333   6.063   1.412 -1.6536  2.1808 -0.2331
 1242TIP3   OH225284   2.143   5.991   0.365 -0.1797 -0.0724 -0.0081
 1242TIP3    H125285   2.141   6.038   0.282 -1.3757 -2.1595 -1.2471
 1242TIP3    H225286   2.084   5.917   0.352  1.5850 -1.9329  1.8056
 1243TIP3   OH225287   5.008   1.203   3.621  0.0197  0.2853 -0.7803
 1243TIP3    H125288   5.025   1.162   3.707  2.3095  1.7670 -0.4472
 1243TIP3    H225289   4.946   1.143   3.579  1.0765 -2.0717  0.7435
 1244TIP3   OH225290   5.746   3.505   1.767 -0.6985 -0.2995 -0.3210
 1244TIP3    H125291   5.729   3.592   1.731 -0.6137 -0.1225  0.0666
 1244TIP3    H225292   5.742   3.517   1.862  2.5483 -0.0199 -0.1149
 1245TIP3   OH225293   0.178   6.793   4.003  0.3791  0.2748 -0.0214
 1245TIP3    H125294   0.247   6.727   3.997 -0.9682 -1.4176  1.9255
 1245TIP3    H225295   0.124   6.765   4.076 -1.8918  2.0383 -0.9085
 1246TIP3   OH225296   5.281   3.914   0.955 -0.8434  0.0003  0.0618
 1246TIP3    H125297   5.225   3.871   0.890  0.6053  0.7767 -1.7766
 1246TIP3    H225298   5.276   3.857   1.032  0.6237 -3.2645 -2.0500
 1247TIP3   OH225299   1.387   5.192   4.665  0.0955 -0.1477  0.1795
 1247TIP3    H125300   1.330   5.206   4.742  1.4393  0.5151  1.1002
 1247TIP3    H225301   1.392   5.097   4.656 -0.9860 -0.2224  0.1981
 1248TIP3   OH225302   6.680   6.059   2.433  0.1662 -0.8202 -0.1731
 1248TIP3    H125303   6.711   6.100   2.352  1.6549  0.6955  1.0970
 1248TIP3    H225304   6.724   6.107   2.503 -1.1178 -2.0429  1.5674
 1249TIP3   OH225305   6.681   1.129   1.294 -0.1270  0.0632  0.2561
 1249TIP3    H125306   6.633   1.169   1.367 -0.9928 -3.1543  1.6279
 1249TIP3    H225307   6.614   1.082   1.245  1.1794 -2.2140  0.5475
 1250TIP3   OH225308   2.324   2.639   1.371 -0.1736 -0.3174  0.2388
 1250TIP3    H125309   2.339   2.699   1.297  0.9463 -2.1203 -1.0646
 1250TIP3    H225310   2.231   2.618   1.365 -0.0748 -0.5401 -0.7782
 1251TIP3   OH225311   1.531   6.113   2.961 -0.3915 -0.3255 -0.0742
 1251TIP3    H125312   1.495   6.201   2.954  0.1465 -0.1686 -0.9986
 1251TIP3    H225313   1.530   6.079   2.872 -1.5577 -1.6703  0.4083
 1252TIP3   OH225314   6.600   2.716   1.312 -0.0495 -0.3472  0.3980
 1252TIP3    H125315   6.516   2.679   1.285  0.5806 -0.3596 -1.7489
 1252TIP3    H225316   6.606   2.799   1.265  0.9299 -0.1039  0.9190
 1253TIP3   OH225317   4.242   0.457   4.782 -0.8906  0.5948 -0.0800
 1253TIP3    H125318   4.245   0.529   4.719 -0.0932 -0.8028 -1.7552
 1253TIP3    H225319   4.218   0.381   4.728  1.3317 -0.9683  0.9865
 1254TIP3   OH225320   1.509   5.398   4.811  0.3084 -0.3451 -0.3102
 1254TIP3    H125321   1.527   5.457   4.738 -0.7496  0.6510  0.1990
 1254TIP3    H225322   1.498   5.312   4.771 -0.0692  0.1558 -1.3107
 1255TIP3   OH225323   3.977   4.250   4.163  0.4475 -0.3170  0.5271
 1255TIP3    H125324   4.006   4.180   4.222  1.2536 -1.8139 -1.5060
 1255TIP3    H225325   3.888   4.270   4.192  0.6462 -1.2991  1.9388
 1256TIP3   OH225326   1.060   5.287   3.772  0.6310 -0.1488  0.7147
 1256TIP3    H125327   1.125   5.349   3.740 -0.4774  1.5537  1.6435
 1256TIP3    H225328   1.108   5.205   3.783  2.7727  1.1868  1.9277
 1257TIP3   OH225329   5.545   1.105   4.481  0.7007 -0.3716  0.0286
 1257TIP3    H125330   5.511   1.019   4.456  1.2047 -0.2322 -1.2065
 1257TIP3    H225331   5.484   1.167   4.441 -0.9161 -0.1103  2.7132
 1258TIP3   OH225332   0.376   6.748   4.693  0.0585 -0.1119 -0.0396
 1258TIP3    H125333   0.346   6.837   4.675  0.0008  0.0495  0.8293
 1258TIP3    H225334   0.469   6.757   4.712  0.0172 -0.2202  0.2119
 1259TIP3   OH225335   5.426   6.524   4.316 -0.0414  0.3425  0.1496
 1259TIP3    H125336   5.380   6.460   4.369  1.0153  0.1036  0.8174
 1259TIP3    H225337   5.371   6.536   4.238  0.5496 -2.6803 -0.8720
 1260TIP3   OH225338   1.261   2.264   2.375  0.0906  0.6257  0.5271
 1260TIP3    H125339   1.342   2.224   2.406  0.8074  0.4501 -1.4188
 1260TIP3    H225340   1.289   2.348   2.338 -0.7613  0.9942  0.7024
 1261TIP3   OH225341   5.439   5.067   1.208 -0.9355  0.0844  0.0554
 1261TIP3    H125342   5.461   5.108   1.125 -2.6207  1.0442  0.0476
 1261TIP3    H225343   5.464   4.975   1.196  0.6935  0.5856 -0.7653
 1262TIP3   OH225344   3.045   6.479   2.849  0.1488 -0.3919  0.0262
 1262TIP3    H125345   3.074   6.481   2.941 -0.9347 -2.8201  0.5186
 1262TIP3    H225346   2.954   6.451   2.854 -0.0389 -0.1726 -1.7863
 1263TIP3   OH225347   6.764   1.865   3.211 -0.1570 -0.0402 -0.0569
 1263TIP3    H125348   6.763   1.935   3.146 -2.2214  0.1383  0.0807
 1263TIP3    H225349   6.853   1.831   3.209  0.1438  0.7205 -2.1413
 1264TIP3   OH225350   5.802   0.499   1.059 -0.0005 -0.3355  0.5939
 1264TIP3    H125351   5.879   0.455   1.096  0.1521 -1.4291 -0.9118
 1264TIP3    H225352   5.834   0.587   1.036  1.5907 -1.5212 -2.2349
 1265TIP3   OH225353   3.036   1.127   0.836 -0.9037  0.6133  0.2563
 1265TIP3    H125354   2.988   1.182   0.773 -1.3081 -0.1703 -0.1290
 1265TIP3    H225355   3.038   1.041   0.795 -1.8436 -0.1086  1.6757
 1266TIP3   OH225356   6.711   3.011   2.325  0.2582 -0.0348 -0.2385
 1266TIP3    H125357   6.776   2.962   2.274  0.9075  1.1983 -0.6373
 1266TIP3    H225358   6.759   3.088   2.357  0.2619 -1.3079  3.2948
 1267TIP3   OH225359   1.703   0.595   0.893  0.7172 -0.0803 -0.1037
 1267TIP3    H125360   1.684   0.577   0.985  0.3010 -2.2247 -0.5535
 1267TIP3    H225361   1.620   0.578   0.848  0.8913  1.0379 -0.8722
 1268TIP3   OH225362   5.627   4.909   4.805 -0.1074  0.1547 -0.0607
 1268TIP3    H125363   5.537   4.927   4.779 -0.1383  0.6128  0.3506
 1268TIP3    H225364   5.655   4.839   4.746 -0.6438  0.1880 -0.3658
 1269TIP3   OH225365   5.143   1.491   4.371  0.2037 -0.5658  0.1320
 1269TIP3    H125366   5.111   1.578   4.394 -0.6840 -0.2951 -1.8511
 1269TIP3    H225367   5.187   1.503   4.287  0.4779 -1.9401  0.0537
 1270TIP3   OH225368   5.272   5.805   0.645 -0.1588  0.1927 -0.2045
 1270TIP3    H125369   5.270   5.726   0.592  1.7091  0.6278 -1.0090
 1270TIP3    H225370   5.262   5.877   0.582  2.8438  0.7523 -0.2182
 1271TIP3   OH225371   5.544   6.792   4.427 -0.0707  0.1820  0.5988
 1271TIP3    H125372   5.516   6.704   4.404 -0.4710  0.3080  0.5991
 1271TIP3    H225373   5.463   6.840   4.444  0.2115  0.1512  2.0989
 1272TIP3   OH225374   6.265   2.311   0.700  0.0897  0.1598 -0.0673
 1272TIP3    H125375   6.177   2.302   0.737  0.3392  1.2230  0.8589
 1272TIP3    H225376   6.264   2.258   0.621 -1.3417  0.0421  0.0107
 1273TIP3   OH225377   6.470   0.051   0.669 -0.3283 -0.3521  0.2498
 1273TIP3    H125378   6.441   0.118   0.607 -0.8965  0.7180  1.6277
 1273TIP3    H225379   6.396  -0.008   0.678  0.3143 -1.4639 -1.2818
 1274TIP3   OH225380   5.900   5.852   3.137  0.8173  0.0639  0.8809
 1274TIP3    H125381   5.933   5.813   3.056 -2.3249 -2.5511  0.6733
 1274TIP3    H225382   5.857   5.933   3.109  0.6134 -0.3114  0.0706
 1275TIP3   OH225383   1.973   2.762   8.827  0.0974 -0.2492  0.2692
 1275TIP3    H125384   1.971   2.817   8.749 -0.7408 -0.6256  0.0211
 1275TIP3    H225385   2.030   2.810   8.888  0.2062  0.3822 -0.3133
 1276TIP3   OH225386   1.607   2.673   0.673 -0.2518  0.5510  0.2058
 1276TIP3    H125387   1.635   2.757   0.635 -1.3264  1.2392  0.8774
 1276TIP3    H225388   1.587   2.618   0.597 -2.0073  1.7790 -0.2685
 1277TIP3   OH225389   5.548   0.759   0.991 -0.0174 -0.7949 -0.0236
 1277TIP3    H125390   5.485   0.711   0.938 -1.2453 -1.4315  1.9164
 1277TIP3    H225391   5.495   0.806   1.055  1.3579  0.6920  0.0976
 1278TIP3   OH225392   1.412   3.133   2.327 -0.8342  0.1453  0.3640
 1278TIP3    H125393   1.368   3.060   2.283  0.0184  0.2117 -0.6385
 1278TIP3    H225394   1.477   3.091   2.384  0.0772  0.1026 -0.6676
 1279TIP3   OH225395   6.163   6.578   4.072  0.6097 -0.0163  0.6915
 1279TIP3    H125396   6.091   6.640   4.085  0.6614  0.2092 -0.0567
 1279TIP3    H225397   6.236   6.632   4.041  1.4929 -0.0578  2.5832
 1280TIP3   OH225398   4.830   6.212   2.711 -0.1541  0.0764  0.3556
 1280TIP3    H125399   4.783   6.129   2.703  0.6523 -0.2191 -2.4681
 1280TIP3    H225400   4.769   6.278   2.678  0.7843 -0.1336 -2.0368
 1281TIP3   OH225401   1.037   2.116   2.870  0.1558 -0.1513  0.1876
 1281TIP3    H125402   0.970   2.108   2.802  0.7306 -1.2371 -0.2735
 1281TIP3    H225403   1.099   2.180   2.835 -0.3116  0.4111  0.3588
 1282TIP3   OH225404   0.090   5.645   5.236 -0.9967 -0.1671 -0.2351
 1282TIP3    H125405   0.170   5.637   5.184 -1.5964  1.0298 -1.4049
 1282TIP3    H225406   0.046   5.723   5.201 -1.2389  0.9624  2.3488
 1283TIP3   OH225407   6.394   1.688   0.944  0.1076  0.7985 -0.1028
 1283TIP3    H125408   6.485   1.672   0.970  0.8507 -0.3955 -3.0679
 1283TIP3    H225409   6.392   1.779   0.917  0.0335  1.2169  1.2289
 1284TIP3   OH225410   2.108   3.892   1.914  0.1503  0.1573 -0.0459
 1284TIP3    H125411   2.079   3.858   1.830  0.3375 -0.0847 -0.0128
 1284TIP3    H225412   2.203   3.902   1.904  0.0315  1.2040 -0.2500
 1285TIP3   OH225413   5.062   1.641   3.052  0.5168 -0.5425 -0.8685
 1285TIP3    H125414   5.001   1.572   3.078  0.8553 -0.8847 -0.9778
 1285TIP3    H225415   5.041   1.715   3.109  1.7788 -1.5347  0.9658
 1286TIP3   OH225416   6.012   5.309   3.759  0.0376 -0.6017  0.1424
 1286TIP3    H125417   6.006   5.387   3.703  0.8290  0.0821  0.9656
 1286TIP3    H225418   5.924   5.298   3.794 -0.0918 -0.0783 -0.0066
 1287TIP3   OH225419   4.036   1.120   3.070 -0.0485 -0.4479 -0.3230
 1287TIP3    H125420   4.082   1.116   3.155  1.2549  0.7969 -0.9147
 1287TIP3    H225421   3.961   1.177   3.086  0.6136  0.4015 -0.1545
 1288TIP3   OH225422   0.586   0.550   1.836  0.4197 -0.1419 -0.2795
 1288TIP3    H125423   0.632   0.471   1.864  0.4923 -0.1834 -0.5080
 1288TIP3    H225424   0.655   0.606   1.800  0.3856  0.0749 -0.0105
 1289TIP3   OH225425   2.558   4.285   3.604  0.5346 -0.2500  0.3906
 1289TIP3    H125426   2.509   4.203   3.597 -0.8573  0.5084  1.0291
 1289TIP3    H225427   2.511   4.346   3.547  0.0623  0.7929  1.8460
 1290TIP3   OH225428   4.991   4.109   0.275 -0.3719  0.0551  0.1322
 1290TIP3    H125429   4.907   4.155   0.269 -0.4720  0.3299  2.5933
 1290TIP3    H225430   5.056   4.178   0.290  0.4259 -0.1205 -2.0788
 1291TIP3   OH225431   2.538   0.225   3.977  0.2629 -0.0307  0.2216
 1291TIP3    H125432   2.536   0.171   4.056  1.1712 -2.0259 -1.0336
 1291TIP3    H225433   2.589   0.174   3.914 -0.8437  1.2599 -1.8399
 1292TIP3   OH225434   3.415   6.014   2.219 -0.7576  0.3864  0.1003
 1292TIP3    H125435   3.468   6.088   2.249 -2.2014  1.2837  0.5759
 1292TIP3    H225436   3.376   6.044   2.137 -1.1426  0.0490  0.1579
 1293TIP3   OH225437   6.473   2.904   2.384 -0.2319 -0.2719 -0.4385
 1293TIP3    H125438   6.551   2.948   2.350 -0.3508  0.6589  0.4394
 1293TIP3    H225439   6.483   2.906   2.479 -1.2981 -0.1673 -0.3088
 1294TIP3   OH225440   5.350   0.532   4.897 -0.2919 -0.0030  0.0570
 1294TIP3    H125441   5.378   0.471   4.966  0.1811 -1.2721 -1.1959
 1294TIP3    H225442   5.263   0.502   4.873 -0.0738 -0.1809 -0.5388
 1295TIP3   OH225443   1.254   2.975   1.965 -0.0738 -0.7666 -0.2223
 1295TIP3    H125444   1.318   2.921   1.920 -2.0876 -1.1855 -2.8841
 1295TIP3    H225445   1.285   3.065   1.953  0.9689 -1.0495  0.2500
 1296TIP3   OH225446   3.820   1.780   1.443 -0.2294 -0.1471  0.0876
 1296TIP3    H125447   3.857   1.736   1.520 -0.9466 -0.6562  0.1596
 1296TIP3    H225448   3.833   1.717   1.372  0.1312  0.1827 -0.1390
 1297TIP3   OH225449   5.903   1.247   5.216 -0.2226 -0.1324  0.3231
 1297TIP3    H125450   5.824   1.226   5.166 -0.8530  0.9797  0.8240
 1297TIP3    H225451   5.887   1.209   5.302  0.8282 -1.9758 -0.2446
 1298TIP3   OH225452   5.530   3.763   1.131 -0.0739  0.3765  0.3560
 1298TIP3    H125453   5.441   3.734   1.147 -0.2176  0.7585  0.2726
 1298TIP3    H225454   5.525   3.859   1.134 -0.0175  0.4739 -1.4830
 1299TIP3   OH225455   2.525   0.352   3.220 -0.1816  0.2498  0.3741
 1299TIP3    H125456   2.567   0.266   3.220 -0.9828 -0.1476  0.8085
 1299TIP3    H225457   2.597   0.413   3.236  0.6639 -0.1884 -1.3840
 1300TIP3   OH225458   3.650   0.230   3.532  0.3461  0.0582 -0.0397
 1300TIP3    H125459   3.616   0.296   3.592  0.0124 -0.4598  0.3535
 1300TIP3    H225460   3.573   0.194   3.489  0.2446 -1.7325  1.4886
 1301TIP3   OH225461   5.326   3.744   1.532 -0.6659 -0.5190 -0.3534
 1301TIP3    H125462   5.288   3.743   1.620  0.8747  0.0295  0.3612
 1301TIP3    H225463   5.262   3.792   1.479 -0.7214  0.8864  0.9270
 1302TIP3   OH225464   2.320   6.233   0.397 -0.1492  0.3184  0.5043
 1302TIP3    H125465   2.275   6.166   0.346  0.1323 -1.0611  2.0171
 1302TIP3    H225466   2.276   6.234   0.481  1.9970 -0.4242  1.7172
 1303TIP3   OH225467   1.342   5.706   2.072 -0.4042  0.1175  0.0944
 1303TIP3    H125468   1.420   5.651   2.062 -0.5379 -0.1620  0.5756
 1303TIP3    H225469   1.376   5.796   2.075 -0.1034 -0.0006  0.2762
 1304TIP3   OH225470   5.980   2.779   2.365 -0.0063  0.2087  0.2182
 1304TIP3    H125471   6.036   2.841   2.318 -2.0097  1.5667 -0.5217
 1304TIP3    H225472   6.036   2.744   2.434  1.4581  2.3168  0.2135
 1305TIP3   OH225473   4.379   2.997   3.080  0.1718 -0.3196 -0.3237
 1305TIP3    H125474   4.416   3.082   3.056 -1.3526  0.4749 -0.0405
 1305TIP3    H225475   4.440   2.962   3.145  0.0844  1.2578  0.6780
 1306TIP3   OH225476   3.063   5.141   2.988 -0.0287 -0.8195 -0.4126
 1306TIP3    H125477   2.976   5.129   3.025  0.0585 -1.6489 -0.4455
 1306TIP3    H225478   3.075   5.236   2.984 -2.1516 -0.5368 -3.2507
 1307TIP3   OH225479   5.353   5.004   4.144 -0.2919  0.1106 -0.1503
 1307TIP3    H125480   5.324   5.019   4.234  0.1171  0.4290 -0.0703
 1307TIP3    H225481   5.387   4.915   4.144 -1.0560 -0.1893 -0.1908
 1308TIP3   OH225482   3.757   6.546   3.074 -0.4069 -0.3825  0.0190
 1308TIP3    H125483   3.724   6.562   3.162  1.5226  2.5338  0.3115
 1308TIP3    H225484   3.850   6.529   3.086 -0.2683 -0.7446 -1.4204
 1309TIP3   OH225485   0.900   3.028   3.014 -0.2676 -0.0681  0.1811
 1309TIP3    H125486   0.990   3.008   3.041 -0.8145 -0.0930  2.1207
 1309TIP3    H225487   0.883   3.116   3.048 -0.7676  0.2225 -0.7692
 1310TIP3   OH225488   2.348   6.198   1.581 -0.5139  0.2581 -0.1243
 1310TIP3    H125489   2.409   6.272   1.573 -0.0804  0.2953  2.5793
 1310TIP3    H225490   2.387   6.129   1.527  0.2539  1.2812 -0.9232
 1311TIP3   OH225491   4.999   5.395   2.858  0.1979  0.5059 -0.0003
 1311TIP3    H125492   5.075   5.448   2.836 -1.1765  1.6234 -2.3726
 1311TIP3    H225493   5.035   5.318   2.901  2.3540  2.7131  2.5251
 1312TIP3   OH225494   2.292   1.603   0.767  0.1733  0.4964 -0.2691
 1312TIP3    H125495   2.261   1.531   0.711  0.2308  0.7655 -0.6512
 1312TIP3    H225496   2.357   1.648   0.714 -0.9378  1.7420 -0.6257
 1313TIP3   OH225497   0.666   0.949   0.509  0.6107  0.5364 -0.2524
 1313TIP3    H125498   0.640   0.879   0.449 -0.5803  0.8717 -0.1604
 1313TIP3    H225499   0.597   1.016   0.499  1.7920  1.7713 -0.4519
 1314TIP3   OH225500   3.441   6.202   4.446  0.2738 -0.3227  0.5183
 1314TIP3    H125501   3.497   6.201   4.523  0.9945 -0.2543  0.0019
 1314TIP3    H225502   3.429   6.109   4.424 -0.3419 -0.3669  0.9892
 1315TIP3   OH225503   1.303   6.242   3.192  0.5403 -0.4345  0.6103
 1315TIP3    H125504   1.327   6.151   3.211 -1.6018 -0.7892  2.0042
 1315TIP3    H225505   1.247   6.236   3.114 -0.5335 -0.4920  1.3636
 1316TIP3   OH225506   1.311   4.893   4.026  0.3601 -0.3336  0.1041
 1316TIP3    H125507   1.310   4.964   4.090 -0.9204 -0.7886  0.6306
 1316TIP3    H225508   1.252   4.827   4.063  1.5163 -1.6802 -0.3628
 1317TIP3   OH225509   4.453   0.187   0.992 -0.8726  0.4650 -0.4988
 1317TIP3    H125510   4.523   0.220   0.936  0.1383  0.2207  0.5537
 1317TIP3    H225511   4.374   0.190   0.938  0.0510  0.2332 -1.9124
 1318TIP3   OH225512   4.011   1.777   3.295 -0.3460  0.0633 -0.0244
 1318TIP3    H125513   3.975   1.741   3.376 -0.2089  1.5784  0.7668
 1318TIP3    H225514   4.026   1.702   3.239 -3.2798 -0.7912  0.1930
 1319TIP3   OH225515   0.951   6.084   1.607  0.2903 -0.1192  0.4759
 1319TIP3    H125516   0.863   6.063   1.576  0.2604  0.3785  0.1995
 1319TIP3    H225517   1.005   6.010   1.578 -0.2834 -1.1764  1.9605
 1320TIP3   OH225518   4.495   0.786   2.655  0.2433 -0.4715 -0.2970
 1320TIP3    H125519   4.515   0.814   2.565  0.1085 -0.9131 -0.4672
 1320TIP3    H225520   4.413   0.829   2.676  0.3068 -0.3175 -0.3619
 1321TIP3   OH225521   3.509   5.233   0.875  0.3457  0.6051 -0.4331
 1321TIP3    H125522   3.544   5.262   0.791 -1.7122  2.4897 -0.7547
 1321TIP3    H225523   3.423   5.276   0.881  0.7432  1.2100  2.9936
 1322TIP3   OH225524   5.642   3.286   3.410 -0.0256  0.1639  0.6063
 1322TIP3    H125525   5.712   3.328   3.460  1.6254 -0.9671 -0.6514
 1322TIP3    H225526   5.659   3.192   3.420 -1.9834 -0.1951  1.0673
 1323TIP3   OH225527   5.593   6.436   5.164  0.3043 -0.3388  0.6375
 1323TIP3    H125528   5.562   6.521   5.134 -0.9080 -0.8398  0.4121
 1323TIP3    H225529   5.641   6.455   5.245  0.8911  0.6528  0.0767
 1324TIP3   OH225530   0.362   3.465   2.763  0.0160 -0.1617  0.3264
 1324TIP3    H125531   0.440   3.514   2.737  0.6991 -0.8977  0.9460
 1324TIP3    H225532   0.337   3.501   2.848 -1.2378  1.1033 -0.5281
 1325TIP3   OH225533   4.193   3.092   4.277 -0.3012 -0.6599  0.7723
 1325TIP3    H125534   4.230   3.150   4.211 -1.1038 -0.4143  0.5323
 1325TIP3    H225535   4.110   3.132   4.301  0.1972 -0.4879  2.2932
 1326TIP3   OH225536   3.935   4.325   1.158  0.1378  0.2164 -0.5321
 1326TIP3    H125537   3.926   4.230   1.165 -0.0694  0.0808 -2.2753
 1326TIP3    H225538   3.933   4.356   1.249 -1.8563 -1.2534 -0.0177
 1327TIP3   OH225539   5.778   6.720   2.757 -0.3342 -0.1775  0.4969
 1327TIP3    H125540   5.704   6.688   2.808  0.5070 -1.1629  1.1550
 1327TIP3    H225541   5.805   6.800   2.802 -0.2125 -0.5056  1.0086
 1328TIP3   OH225542   0.999   4.390   3.401  0.1539  0.0783 -0.1292
 1328TIP3    H125543   1.029   4.305   3.368  1.0332  0.8864 -1.4420
 1328TIP3    H225544   1.019   4.452   3.332  1.1768  1.6891  1.5305
 1329TIP3   OH225545   0.555   4.388   3.806  0.0708 -0.0270 -0.5602
 1329TIP3    H125546   0.639   4.342   3.799 -0.4421 -0.9325 -0.8426
 1329TIP3    H225547   0.558   4.430   3.892  0.0994 -1.4874  0.1830
 1330TIP3   OH225548   4.418   1.725   4.716  0.0203 -0.0978 -0.3127
 1330TIP3    H125549   4.504   1.763   4.736 -1.2476  2.2900  0.9958
 1330TIP3    H225550   4.407   1.655   4.779 -0.0441  1.3149  1.3042
 1331TIP3   OH225551   0.003   2.050   3.001 -0.0466 -0.0073 -0.5405
 1331TIP3    H125552   0.032   2.140   2.991  0.5037 -0.0781  0.3430
 1331TIP3    H225553  -0.078   2.045   2.950 -0.3303  1.1071 -0.2203
 1332TIP3   OH225554   0.986   1.998   3.112 -0.4723  0.6158  0.4951
 1332TIP3    H125555   0.893   2.004   3.090 -0.3676 -0.8450 -0.4731
 1332TIP3    H225556   1.031   2.034   3.036 -0.2173  0.6659  0.6663
 1333TIP3   OH225557   5.691   4.020   0.832 -0.3969 -0.2689 -0.0021
 1333TIP3    H125558   5.726   4.109   0.831 -0.8774 -0.0208  2.0106
 1333TIP3    H225559   5.660   4.007   0.921  0.5509 -2.8135  0.0449
 1334TIP3   OH225560   0.760   6.220   4.247  0.0678 -0.1290 -0.0367
 1334TIP3    H125561   0.836   6.248   4.197  0.6794 -1.2668  0.2020
 1334TIP3    H225562   0.796   6.160   4.313 -0.9357 -0.0523  0.5987
 1335TIP3   OH225563   3.429   2.309   0.309 -0.6018 -0.3361 -0.5365
 1335TIP3    H125564   3.502   2.282   0.364 -1.1471 -3.9548 -1.3729
 1335TIP3    H225565   3.352   2.300   0.365 -0.8129 -0.5236 -0.8567
 1336TIP3   OH225566   4.097   1.969   2.453  0.4587 -0.2551  0.2511
 1336TIP3    H125567   4.008   1.967   2.416  0.3848 -1.0298  0.4422
 1336TIP3    H225568   4.126   2.059   2.442 -0.4927  0.0944  0.5132
 1337TIP3   OH225569   3.333   4.870   3.563 -0.2951  0.6617 -0.0294
 1337TIP3    H125570   3.264   4.916   3.611  0.9615  2.3297  0.3076
 1337TIP3    H225571   3.366   4.935   3.501  0.7424 -0.1993 -0.4088
 1338TIP3   OH225572   1.250   5.476   4.210 -0.1596 -0.3875 -0.2157
 1338TIP3    H125573   1.240   5.381   4.220  0.9538 -0.3954  1.2438
 1338TIP3    H225574   1.309   5.501   4.281 -2.0719  1.7354  0.7365
 1339TIP3   OH225575   2.099   3.487   2.366  0.1615 -0.0646  0.3395
 1339TIP3    H125576   2.046   3.561   2.398 -0.5004 -0.6292  0.5780
 1339TIP3    H225577   2.051   3.455   2.290 -0.2658 -1.0840  1.0311
 1340TIP3   OH225578   2.246   0.544   0.324 -0.3673 -0.0175  0.7198
 1340TIP3    H125579   2.223   0.566   0.415 -1.5155 -0.1866  0.4875
 1340TIP3    H225580   2.163   0.518   0.284 -0.0286  0.8564 -0.6180
 1341TIP3   OH225581   3.518   5.113   4.452 -0.2269 -0.4715 -0.5855
 1341TIP3    H125582   3.518   5.207   4.469 -0.7633 -0.4007 -0.9369
 1341TIP3    H225583   3.426   5.092   4.434 -0.0227 -0.9439 -1.1327
 1342TIP3   OH225584   4.891   5.675   4.176  0.4469 -0.5242 -0.3822
 1342TIP3    H125585   4.797   5.695   4.178  0.8039  1.3821 -0.8309
 1342TIP3    H225586   4.896   5.584   4.203 -1.4518 -0.3710  0.7024
 1343TIP3   OH225587   1.566   2.797   1.587  0.7124 -0.0968 -0.0848
 1343TIP3    H125588   1.536   2.723   1.534 -1.9267  0.8920 -0.0796
 1343TIP3    H225589   1.586   2.866   1.523  0.1788  0.1900  0.0513
 1344TIP3   OH225590   6.052   5.123   1.435  0.8235 -0.3085 -0.4829
 1344TIP3    H125591   6.091   5.186   1.374 -1.0479 -0.9470 -2.4145
 1344TIP3    H225592   5.981   5.082   1.386 -0.2160 -1.4816  1.8636
 1345TIP3   OH225593   6.318   0.219   5.344 -0.4265 -0.2099  0.6992
 1345TIP3    H125594   6.398   0.206   5.395  0.4936  1.5906 -0.2116
 1345TIP3    H225595   6.312   0.313   5.331 -1.3159 -0.5013 -1.4352
 1346TIP3   OH225596   6.332   4.722   2.150  0.2435  0.1877 -0.0669
 1346TIP3    H125597   6.313   4.813   2.126  0.6358  0.3111  0.0840
 1346TIP3    H225598   6.251   4.691   2.191  0.4543  0.8015  0.8436
 1347TIP3   OH225599   4.553   6.441   0.586  0.3802  0.1001 -0.3920
 1347TIP3    H125600   4.549   6.531   0.553 -0.3171  0.4731  0.6465
 1347TIP3    H225601   4.639   6.409   0.559  0.1693  0.6636 -1.7988
 1348TIP3   OH225602   0.920   2.530   1.621  0.2394 -0.0433 -0.0357
 1348TIP3    H125603   0.930   2.625   1.621 -0.1359 -0.0016  0.3541
 1348TIP3    H225604   0.990   2.499   1.564  0.4647  0.4561 -0.0393
 1349TIP3   OH225605   3.918   3.415   3.148 -0.2488 -0.1464  0.5052
 1349TIP3    H125606   3.955   3.486   3.095  0.9466  0.4898  2.1168
 1349TIP3    H225607   3.824   3.419   3.130  0.0151  0.6347 -0.8410
 1350TIP3   OH225608   5.709   2.869   2.058 -0.1674 -0.1765  0.3374
 1350TIP3    H125609   5.641   2.924   2.019 -0.9815 -0.6199  1.0672
 1350TIP3    H225610   5.711   2.895   2.150  1.4524  0.5980  0.1012
 1351TIP3   OH225611   1.694   3.756   3.252 -0.3025  0.4018  0.0849
 1351TIP3    H125612   1.776   3.708   3.244 -0.0530  0.8054  0.2041
 1351TIP3    H225613   1.628   3.697   3.215 -0.0735 -0.2178  0.6489
 1352TIP3   OH225614   2.206   3.219   1.931 -0.5457 -0.6402 -0.2841
 1352TIP3    H125615   2.252   3.164   1.995  1.9306  0.8403 -0.6315
 1352TIP3    H225616   2.189   3.161   1.857  0.5085 -1.3511  0.0032
 1353TIP3   OH225617   3.076   0.955   8.810  0.3466  0.4302  0.4819
 1353TIP3    H125618   3.095   0.941   8.903 -1.9024  0.9202  1.0856
 1353TIP3    H225619   3.100   0.873   8.768  2.6174  0.6353  1.2416
 1354TIP3   OH225620   2.714   3.493   3.483 -0.4373  0.1756 -0.6065
 1354TIP3    H125621   2.684   3.466   3.570  0.2163 -0.4642 -0.5794
 1354TIP3    H225622   2.666   3.437   3.422 -0.4090  0.1805 -0.6331
 1355TIP3   OH225623   3.294   3.938   2.778  0.6588  0.0942 -0.0451
 1355TIP3    H125624   3.224   3.892   2.823  0.2624 -1.0565 -1.7339
 1355TIP3    H225625   3.335   3.993   2.845 -1.3682  0.2324  1.1429
 1356TIP3   OH225626   3.392   5.211   2.595  0.0279 -0.4328 -0.2972
 1356TIP3    H125627   3.377   5.305   2.607  1.7600 -0.2840  1.1890
 1356TIP3    H225628   3.318   5.170   2.641 -0.7662  0.1727 -0.9895
 1357TIP3   OH225629   5.968   1.005   4.260 -0.4365  0.3592 -0.3598
 1357TIP3    H125630   6.007   0.918   4.271  0.2429  0.8969  1.9784
 1357TIP3    H225631   5.897   0.992   4.197 -1.1109 -2.1290  0.7944
 1358TIP3   OH225632   6.514   1.187   2.628 -0.6708  0.2480  0.5655
 1358TIP3    H125633   6.565   1.114   2.593 -3.2200 -1.9929  1.1932
 1358TIP3    H225634   6.536   1.189   2.721 -0.7137  0.2043  0.5762
 1359TIP3   OH225635   3.907   2.191   1.789 -0.1160  0.3479  0.0677
 1359TIP3    H125636   3.884   2.250   1.861 -0.3285  1.0987 -0.5989
 1359TIP3    H225637   4.002   2.195   1.783 -0.2124  1.9188 -1.0132
 1360TIP3   OH225638   3.333   5.578   0.223  0.1993  0.4159  0.8565
 1360TIP3    H125639   3.368   5.588   0.135 -0.1424 -0.6098  0.5926
 1360TIP3    H225640   3.263   5.514   0.214  1.3656 -1.1204  2.1724
 1361TIP3   OH225641   5.903   5.382   4.504 -0.2219 -0.6661 -0.4093
 1361TIP3    H125642   5.871   5.356   4.591 -0.3282 -1.2666 -0.6246
 1361TIP3    H225643   5.988   5.421   4.520 -0.5926 -0.0307  0.0561
 1362TIP3   OH225644   2.410   1.594   1.128 -0.2490 -0.1097  0.1870
 1362TIP3    H125645   2.339   1.602   1.064 -0.4571 -1.5130  0.2113
 1362TIP3    H225646   2.366   1.567   1.209  0.1133  0.7679  0.6834
 1363TIP3   OH225647   2.508   3.521   1.849 -0.2687 -0.2513 -0.2542
 1363TIP3    H125648   2.513   3.588   1.781  0.9718 -1.3818 -1.3280
 1363TIP3    H225649   2.506   3.570   1.931 -2.1828  1.1598 -1.0614
 1364TIP3   OH225650   1.228   2.975   0.880 -0.2479 -0.1131 -0.0301
 1364TIP3    H125651   1.134   2.969   0.865 -0.0674 -0.6619 -1.0439
 1364TIP3    H225652   1.262   2.888   0.858  0.3629 -0.2701  1.4273
 1365TIP3   OH225653   1.285   0.515   3.602  0.1357  0.5387 -0.6261
 1365TIP3    H125654   1.287   0.574   3.526  1.2942  1.0067 -0.2540
 1365TIP3    H225655   1.307   0.429   3.565  0.3857  0.7068 -0.8794
 1366TIP3   OH225656   4.911   2.080   4.034  0.2441 -0.1210  0.2497
 1366TIP3    H125657   4.843   2.029   3.989  0.2539 -1.3983  1.6211
 1366TIP3    H225658   4.927   2.033   4.116  1.4045  1.2312  0.8515
 1367TIP3   OH225659   2.221   2.249   1.922 -0.3445  0.5064  0.3449
 1367TIP3    H125660   2.181   2.186   1.863 -0.2776  0.4980  0.3086
 1367TIP3    H225661   2.300   2.279   1.876 -1.1801  1.7652 -0.3186
 1368TIP3   OH225662   6.085   2.133   3.173  0.0497  0.2210 -0.0244
 1368TIP3    H125663   6.066   2.043   3.200 -0.6362  0.4686  0.3353
 1368TIP3    H225664   6.154   2.162   3.232  1.1208 -0.4520 -0.8947
 1369TIP3   OH225665   4.508   0.900   3.300  0.2644  0.0837  0.2434
 1369TIP3    H125666   4.587   0.912   3.247  0.9772  0.4026  1.3420
 1369TIP3    H225667   4.498   0.984   3.345 -1.0961  0.2783 -0.3950
 1370TIP3   OH225668   0.190   2.915   1.588 -0.1897  0.0937 -0.5421
 1370TIP3    H125669   0.133   2.864   1.532 -2.0532  0.8364  0.5777
 1370TIP3    H225670   0.269   2.929   1.536 -0.9785 -1.0404 -2.1173
 1371TIP3   OH225671   5.185   2.002   0.147  0.3199 -0.7179 -0.6279
 1371TIP3    H125672   5.244   2.047   0.207  1.8343 -4.4555  0.9872
 1371TIP3    H225673   5.098   2.021   0.181  0.8826  0.8510  0.0241
 1372TIP3   OH225674   1.888   1.874   3.716  0.0855  0.0017  0.5740
 1372TIP3    H125675   1.973   1.835   3.736 -0.3976 -1.1650  0.3979
 1372TIP3    H225676   1.907   1.939   3.648  0.5486 -1.8031 -1.0934
 1373TIP3   OH225677   1.253   1.481   2.038 -0.2159 -0.0565  0.7699
 1373TIP3    H125678   1.251   1.577   2.043  0.2032 -0.0400  0.5676
 1373TIP3    H225679   1.344   1.458   2.053 -0.5989 -0.5246  2.6621
 1374TIP3   OH225680   3.151   4.927   2.475  0.6222  0.4266  0.0772
 1374TIP3    H125681   3.086   4.872   2.519  0.9690  0.2014  0.3210
 1374TIP3    H225682   3.167   4.998   2.537  1.3411 -0.0581  0.4618
 1375TIP3   OH225683   6.759   3.451   0.766 -0.3365  0.4586 -0.0542
 1375TIP3    H125684   6.742   3.357   0.772 -1.3820  0.1227 -4.5081
 1375TIP3    H225685   6.676   3.488   0.737  0.1725  2.7400  1.1944
 1376TIP3   OH225686   1.747   4.378   3.635  0.3351 -0.2102  0.6223
 1376TIP3    H125687   1.776   4.302   3.585 -0.8822  0.4467 -1.1967
 1376TIP3    H225688   1.651   4.374   3.630  0.2464  1.6104  0.1769
 1377TIP3   OH225689   4.752   5.135   3.105 -0.2063  0.2954 -0.6485
 1377TIP3    H125690   4.690   5.075   3.146  1.6339 -0.2026  1.5857
 1377TIP3    H225691   4.801   5.080   3.043  0.4310 -0.1833  0.2607
 1378TIP3   OH225692   1.722   2.191   3.635  0.9871  0.4341  0.2559
 1378TIP3    H125693   1.758   2.178   3.547  1.1486  1.5194  0.1408
 1378TIP3    H225694   1.798   2.213   3.688  0.9035 -0.3348  0.6940
 1379TIP3   OH225695   1.174   5.708   2.737 -0.2692  0.7280 -0.3702
 1379TIP3    H125696   1.265   5.708   2.707  0.1014  1.8224  0.6789
 1379TIP3    H225697   1.124   5.678   2.661  0.9062  0.6319 -1.1360
 1380TIP3   OH225698   3.475   0.967   0.918 -0.1474 -0.1585  0.1774
 1380TIP3    H125699   3.482   0.933   0.829 -1.3623  1.0661 -0.4214
 1380TIP3    H225700   3.418   1.044   0.910 -0.4452 -0.1380  2.0444
 1381TIP3   OH225701   5.749   3.194   1.738 -0.0908 -0.2939 -0.5719
 1381TIP3    H125702   5.674   3.243   1.705  0.6208  0.7560 -0.6729
 1381TIP3    H225703   5.802   3.259   1.784  0.0357 -1.2891  0.7876
 1382TIP3   OH225704   4.900   5.173   1.406  0.2763 -0.1441  0.2709
 1382TIP3    H125705   4.816   5.218   1.420  0.4512 -0.6739  4.2942
 1382TIP3    H225706   4.966   5.235   1.436  1.4063  0.0496 -2.3213
 1383TIP3   OH225707   4.987   2.105   3.189  0.0942 -0.3614  0.2286
 1383TIP3    H125708   4.929   2.182   3.187 -1.2901 -1.3310 -2.6276
 1383TIP3    H225709   5.075   2.142   3.189 -0.4542  1.1650  2.9187
 1384TIP3   OH225710   0.201   1.745   0.613  0.4197 -0.4050 -0.6579
 1384TIP3    H125711   0.121   1.794   0.594 -0.1699 -1.3183 -0.6136
 1384TIP3    H225712   0.191   1.663   0.564 -0.4572 -2.2107  2.2191
 1385TIP3   OH225713   0.763   6.617   0.874  0.0317 -0.9472 -0.5922
 1385TIP3    H125714   0.732   6.695   0.919  0.1142 -1.3440  0.1757
 1385TIP3    H225715   0.788   6.647   0.787  1.1402  0.0842  0.0664
 1386TIP3   OH225716   0.804   4.170   3.201 -0.5310 -0.2458 -0.0768
 1386TIP3    H125717   0.897   4.184   3.215 -0.7468  1.3742 -0.0731
 1386TIP3    H225718   0.770   4.144   3.287 -0.2462  0.0899  0.1379
 1387TIP3   OH225719   6.040   1.870   3.246 -0.2347  0.0848 -0.1552
 1387TIP3    H125720   6.074   1.821   3.321 -1.1263  0.2655  0.3856
 1387TIP3    H225721   5.946   1.850   3.245 -0.2788  0.2571 -1.0989
 1388TIP3   OH225722   3.112   3.170   3.153  0.7982  0.7790 -0.0717
 1388TIP3    H125723   3.116   3.082   3.115 -0.5527  0.1748  1.1111
 1388TIP3    H225724   3.203   3.200   3.153  1.2345 -0.4635 -0.8267
 1389TIP3   OH225725   5.847   4.585   0.262 -0.0308 -0.4811 -0.1487
 1389TIP3    H125726   5.833   4.582   0.167 -0.1913 -3.3740 -0.1294
 1389TIP3    H225727   5.759   4.578   0.299  0.0354  0.6186  0.2476
 1390TIP3   OH225728   5.938   6.289   4.012  0.0328 -0.0796 -1.0527
 1390TIP3    H125729   5.950   6.194   4.025  0.7516 -0.0048 -1.1223
 1390TIP3    H225730   5.995   6.329   4.078 -1.0421  0.3122 -0.3465
 1391TIP3   OH225731   6.738   1.024   1.810 -0.0938 -1.2291 -0.5303
 1391TIP3    H125732   6.730   0.944   1.758  0.7636 -0.2681 -2.2379
 1391TIP3    H225733   6.833   1.039   1.816 -0.2090 -0.9268  0.7197
 1392TIP3   OH225734   0.566   2.479   0.744  0.3061 -0.3066 -0.1242
 1392TIP3    H125735   0.473   2.461   0.731 -0.1309 -0.6763  2.9132
 1392TIP3    H225736   0.608   2.393   0.744  0.9122 -0.1044 -2.4552
 1393TIP3   OH225737   5.694   3.067   2.899  0.5044  0.2642 -0.2213
 1393TIP3    H125738   5.686   3.134   2.967  1.7277  1.2200 -0.9823
 1393TIP3    H225739   5.730   2.990   2.945  0.8844  0.7497  0.3056
 1394TIP3   OH225740   1.720   4.717   4.257  0.2122 -0.4655  0.3645
 1394TIP3    H125741   1.787   4.650   4.267  0.4759 -0.2114  0.3234
 1394TIP3    H225742   1.713   4.758   4.343 -0.3678 -0.9311  0.5485
 1395TIP3   OH225743   6.199   1.819   1.740 -0.3705 -0.0230  0.6019
 1395TIP3    H125744   6.264   1.789   1.805  1.7963  0.6370 -1.1493
 1395TIP3    H225745   6.197   1.749   1.675 -2.0204 -0.3698  0.9976
 1396TIP3   OH225746   4.649   6.404   1.542 -0.2121 -0.2612  0.2275
 1396TIP3    H125747   4.621   6.443   1.459  0.9644 -0.7531 -0.4415
 1396TIP3    H225748   4.745   6.411   1.540 -0.1266 -0.9831  1.1906
 1397TIP3   OH225749   1.304   5.122   1.350 -0.7292  0.2246 -0.2209
 1397TIP3    H125750   1.217   5.087   1.332 -0.3760 -0.6261 -0.3222
 1397TIP3    H225751   1.293   5.173   1.430 -1.2321 -0.2023 -0.0139
 1398TIP3   OH225752   5.878   5.525   0.845 -0.4253 -0.0849  0.6401
 1398TIP3    H125753   5.972   5.514   0.858 -0.3963 -0.8237 -0.1191
 1398TIP3    H225754   5.848   5.574   0.922  0.7925  1.3441  0.2388
 1399TIP3   OH225755   5.831   5.329   2.060  0.1672 -0.4619 -0.2313
 1399TIP3    H125756   5.761   5.332   1.996 -0.3764 -0.2697  0.3631
 1399TIP3    H225757   5.865   5.418   2.064  1.2582 -0.7820 -1.3734
 1400TIP3   OH225758   2.878   5.625   2.441 -0.6005 -0.3348 -0.0257
 1400TIP3    H125759   2.869   5.542   2.393 -1.3582 -0.7523  0.8158
 1400TIP3    H225760   2.848   5.691   2.379  2.4371 -0.3370 -1.6671
 1401TIP3   OH225761   4.083   4.871   1.420  0.6210  0.2869 -0.1018
 1401TIP3    H125762   4.176   4.855   1.411  0.7675  0.3892  0.9998
 1401TIP3    H225763   4.054   4.901   1.334  1.8381  1.3681 -0.1527
 1402TIP3   OH225764   6.268   0.183   0.803 -0.9204  0.1405  0.1271
 1402TIP3    H125765   6.345   0.164   0.750 -2.0217 -0.8165 -1.1779
 1402TIP3    H225766   6.199   0.127   0.768 -1.5489 -1.1490  3.0706
 1403TIP3   OH225767   3.311   0.944   0.617  0.2357  0.2913 -0.1121
 1403TIP3    H125768   3.281   0.857   0.644 -0.6700  0.8062  0.5934
 1403TIP3    H225769   3.406   0.940   0.628  0.2105 -0.6044 -0.0829
 1404TIP3   OH225770   3.750   3.175   2.422  0.5407 -0.1047 -0.2901
 1404TIP3    H125771   3.781   3.099   2.472 -0.4412 -0.3355 -0.0018
 1404TIP3    H225772   3.827   3.206   2.374  0.7786 -1.8182 -1.1032
 1405TIP3   OH225773   3.591   1.227   3.461  0.0837 -0.2094 -0.3281
 1405TIP3    H125774   3.550   1.155   3.508 -1.9286  1.0168 -0.0684
 1405TIP3    H225775   3.669   1.248   3.512 -0.7495 -0.4877  1.1402
 1406TIP3   OH225776   6.211   6.038   0.689  0.5276 -0.1485  0.8340
 1406TIP3    H125777   6.203   5.964   0.749 -0.0740  0.0369  0.9829
 1406TIP3    H225778   6.121   6.062   0.667  0.7178  0.4795  0.7128
 1407TIP3   OH225779   0.181   2.603   3.287 -0.0663  0.0436  0.0966
 1407TIP3    H125780   0.232   2.579   3.210 -0.8309  0.1095 -0.4417
 1407TIP3    H225781   0.197   2.532   3.349 -0.3165 -0.5794 -0.5356
 1408TIP3   OH225782   1.143   4.181   4.398  0.2654 -0.1459  0.2380
 1408TIP3    H125783   1.073   4.131   4.356  0.7848  0.4450 -1.4279
 1408TIP3    H225784   1.203   4.115   4.432  0.7720 -0.7341 -1.6371
 1409TIP3   OH225785   4.318   5.455   1.508  0.2159  0.7376  0.0064
 1409TIP3    H125786   4.228   5.426   1.494 -0.9480  2.0084  3.7289
 1409TIP3    H225787   4.372   5.384   1.473 -2.2505 -0.9693 -0.5898
 1410TIP3   OH225788   1.963   0.659   8.506  0.5187  0.0365 -0.3923
 1410TIP3    H125789   1.926   0.661   8.594 -2.1515  1.1276 -1.4332
 1410TIP3    H225790   1.933   0.576   8.469  1.3303 -0.2534 -0.4262
 1411TIP3   OH225791   0.126   0.311   4.405 -0.1553 -0.2650  0.0254
 1411TIP3    H125792   0.037   0.293   4.374 -0.4845  0.6099  0.4228
 1411TIP3    H225793   0.137   0.405   4.391  1.3016 -0.6138 -1.5240
 1412TIP3   OH225794   1.827   2.960   2.393 -0.3388 -0.5287 -0.4846
 1412TIP3    H125795   1.785   2.913   2.321 -1.7333  0.8451 -0.6418
 1412TIP3    H225796   1.754   2.989   2.447  0.5939 -0.1225  0.5844
 1413TIP3   OH225797   6.339   4.886   0.677  0.0674  0.1739 -0.1720
 1413TIP3    H125798   6.361   4.859   0.587 -0.1325  1.7999 -0.7407
 1413TIP3    H225799   6.343   4.981   0.675 -0.7950  0.2721  1.3456
 1414TIP3   OH225800   0.428   2.158   1.533  0.0383  0.3055 -0.2111
 1414TIP3    H125801   0.440   2.218   1.459 -1.4387  0.5966 -0.2606
 1414TIP3    H225802   0.485   2.084   1.514 -0.0717  0.5260 -1.4926
 1415TIP3   OH225803   6.363   3.863   2.378  0.2707  0.3124 -0.3030
 1415TIP3    H125804   6.296   3.926   2.407  0.9807  1.5125 -1.2204
 1415TIP3    H225805   6.313   3.794   2.333 -0.3740  1.0585 -0.7451
 1416TIP3   OH225806   3.621   1.700   2.701 -0.1259  0.1470 -0.0821
 1416TIP3    H125807   3.624   1.794   2.681 -0.4155 -0.3737 -3.1230
 1416TIP3    H225808   3.532   1.685   2.733 -0.1688  0.8517  0.1500
 1417TIP3   OH225809   0.029   3.503   1.574 -0.3756  0.1276 -0.0532
 1417TIP3    H125810   0.048   3.592   1.603 -0.6688  0.1669  0.0307
 1417TIP3    H225811   0.093   3.448   1.619 -1.5454  0.0567  1.6131
 1418TIP3   OH225812   0.349   6.587   1.236 -0.0365  0.2545  0.5751
 1418TIP3    H125813   0.338   6.589   1.141  1.7059 -0.1999  0.3264
 1418TIP3    H225814   0.260   6.586   1.271 -0.7029  0.4802 -1.0480
 1419TIP3   OH225815   1.822   0.741   1.213 -0.1039 -0.2279  0.0325
 1419TIP3    H125816   1.891   0.676   1.200 -1.0024 -0.7946 -2.5403
 1419TIP3    H225817   1.850   0.816   1.161 -1.4116 -0.5102 -1.1495
 1420TIP3   OH225818   0.821   4.230   8.818 -0.2490  0.2914 -0.0712
 1420TIP3    H125819   0.744   4.286   8.818  0.4980  1.5145 -3.1288
 1420TIP3    H225820   0.794   4.153   8.768 -0.1732 -0.4354  0.9736
 1421TIP3   OH225821   6.597   6.794   2.946 -0.3307  0.1529 -0.1785
 1421TIP3    H125822   6.596   6.753   3.033 -0.4091  0.8438  0.1499
 1421TIP3    H225823   6.613   6.887   2.963 -2.8906  0.7577 -0.6883
 1422TIP3   OH225824   0.488   2.849   1.221  0.1099  0.2243  0.2297
 1422TIP3    H125825   0.426   2.904   1.173  1.2583  0.6667 -0.7674
 1422TIP3    H225826   0.471   2.760   1.190 -0.7315  0.1846  0.7549
 1423TIP3   OH225827   1.841   4.399   0.620  0.2841  0.8097 -0.4224
 1423TIP3    H125828   1.781   4.459   0.575  0.1688  0.9608 -0.0709
 1423TIP3    H225829   1.856   4.439   0.705 -1.5797 -0.7348  0.7406
 1424TIP3   OH225830   1.925   3.226   1.421  0.2131  0.5769 -0.0858
 1424TIP3    H125831   1.885   3.312   1.409 -0.8203 -0.1311 -1.9370
 1424TIP3    H225832   1.936   3.191   1.333 -0.0087 -1.4735  0.6391
 1425TIP3   OH225833   5.130   1.694   1.522 -0.0588  0.5105 -0.0235
 1425TIP3    H125834   5.133   1.742   1.440  0.4175  1.9691  0.8079
 1425TIP3    H225835   5.160   1.757   1.588  0.6586 -0.9529  1.1183
 1426TIP3   OH225836   5.481   5.369   3.162  0.2754  0.0776 -0.3764
 1426TIP3    H125837   5.486   5.284   3.119 -1.0986 -0.1593 -0.1171
 1426TIP3    H225838   5.391   5.375   3.194  0.4509  1.4659 -0.0513
 1427TIP3   OH225839   3.053   5.363   2.649  0.5878 -0.1841 -0.1000
 1427TIP3    H125840   3.098   5.444   2.670 -0.3310  0.3273 -0.0200
 1427TIP3    H225841   3.034   5.370   2.555 -1.9759  1.0440  0.4064
 1428TIP3   OH225842   4.690   2.350   1.572 -0.0360 -0.2877 -0.1322
 1428TIP3    H125843   4.725   2.416   1.512  0.2163 -3.0930 -3.3172
 1428TIP3    H225844   4.597   2.346   1.552 -0.8569  1.5829  2.7349
 1429TIP3   OH225845   4.591   5.687   4.827  0.2172 -0.1304 -0.1224
 1429TIP3    H125846   4.522   5.628   4.856 -1.0059  0.5661 -1.4801
 1429TIP3    H225847   4.587   5.760   4.889  0.5856 -0.6716  0.5444
 1430TIP3   OH225848   0.501   6.337   3.093 -0.5801  0.2939  0.0761
 1430TIP3    H125849   0.518   6.349   3.000  2.3625  1.1670  0.6139
 1430TIP3    H225850   0.531   6.418   3.134  2.0211 -1.5005  2.1023
 1431TIP3   OH225851   3.170   0.722   3.359  0.2014 -0.1509 -0.3986
 1431TIP3    H125852   3.084   0.758   3.336 -0.1381 -1.1305 -0.7050
 1431TIP3    H225853   3.224   0.799   3.375 -0.9744  0.4875  0.7368
 1432TIP3   OH225854   5.377   2.736   1.269 -0.3580  0.0066  0.5465
 1432TIP3    H125855   5.366   2.814   1.214 -0.2992  0.0110  0.5407
 1432TIP3    H225856   5.392   2.665   1.208  0.5837  0.1592  0.5848
 1433TIP3   OH225857   4.194   4.550   0.823  0.6298 -0.1033 -0.0501
 1433TIP3    H125858   4.115   4.601   0.837  0.3176 -0.3476 -0.8481
 1433TIP3    H225859   4.264   4.615   0.821  0.2278  0.3133 -1.1471
 1434TIP3   OH225860   4.882   4.048   0.903 -0.2555  0.2753 -0.0831
 1434TIP3    H125861   4.950   4.055   0.971  0.8414 -1.6676 -0.8877
 1434TIP3    H225862   4.800   4.045   0.952  0.5328 -1.5846  1.2469
 1435TIP3   OH225863   3.116   5.865   3.241 -0.0549 -0.2175 -0.0579
 1435TIP3    H125864   3.108   5.953   3.277  0.0203  0.1922 -1.0151
 1435TIP3    H225865   3.169   5.817   3.305  0.9787  0.7984 -0.1233
 1436TIP3   OH225866   6.049   2.420   1.868  0.3056 -0.4372 -0.0058
 1436TIP3    H125867   6.076   2.478   1.796  0.6294 -0.4308  0.1168
 1436TIP3    H225868   6.082   2.464   1.947  2.0412 -1.6116 -0.0274
 1437TIP3   OH225869   0.994   4.612   0.845  0.1105 -0.0502 -0.1613
 1437TIP3    H125870   1.002   4.540   0.784 -0.5397  1.8658 -2.6717
 1437TIP3    H225871   1.070   4.604   0.903  1.6586 -1.0588 -2.2190
 1438TIP3   OH225872   4.075   3.857   4.051 -0.3305  0.2932  0.7052
 1438TIP3    H125873   4.038   3.774   4.021 -0.4412 -0.1586  2.0649
 1438TIP3    H225874   4.065   3.855   4.146  2.0139  0.7289  1.0058
 1439TIP3   OH225875   5.562   0.390   4.341 -0.2268  0.5888  0.5687
 1439TIP3    H125876   5.557   0.322   4.275 -0.6259  1.0348  0.1308
 1439TIP3    H225877   5.506   0.460   4.308  0.1714  1.1302  1.0092
 1440TIP3   OH225878   6.508   6.550   4.622  0.0675  0.0536  0.7262
 1440TIP3    H125879   6.416   6.523   4.614 -0.3889  2.1499 -2.9456
 1440TIP3    H225880   6.504   6.644   4.641  1.4496  0.1839  0.4718
 1441TIP3   OH225881   6.140   3.948   3.643 -0.0602 -0.2334  0.0683
 1441TIP3    H125882   6.129   3.862   3.602 -0.2256  0.2480 -0.9011
 1441TIP3    H225883   6.052   3.987   3.642  0.2262  0.4034 -0.5089
 1442TIP3   OH225884   2.080   3.147   2.860  0.7361 -0.2599  0.1413
 1442TIP3    H125885   2.044   3.174   2.945  1.2711 -0.3273  0.3982
 1442TIP3    H225886   2.041   3.207   2.797 -1.6590 -1.7573  0.0522
 1443TIP3   OH225887   4.180   6.080   3.252 -0.7505  0.4114  0.2230
 1443TIP3    H125888   4.243   6.100   3.322  0.5805  1.1334 -1.1258
 1443TIP3    H225889   4.094   6.095   3.292 -0.0603 -0.0057  1.9368
 1444TIP3   OH225890   2.816   1.038   1.688 -0.0720  0.0249  0.1188
 1444TIP3    H125891   2.766   1.083   1.619 -0.5296  0.4047  0.6892
 1444TIP3    H225892   2.803   1.092   1.766 -0.5043 -1.0052  0.7870
 1445TIP3   OH225893   2.977   3.796   2.857 -0.0191 -0.1218  0.4153
 1445TIP3    H125894   3.034   3.719   2.853 -0.2114 -0.2077 -1.0767
 1445TIP3    H225895   3.019   3.854   2.920  1.5302 -0.3483 -0.3732
 1446TIP3   OH225896   5.923   1.569   3.541  0.0620 -0.2559 -0.0464
 1446TIP3    H125897   5.962   1.576   3.454 -0.1748 -0.0177 -0.1356
 1446TIP3    H225898   5.996   1.551   3.599  0.6277  2.0782  0.0638
 1447TIP3   OH225899   1.833   0.192   0.603 -0.3684 -0.1760 -0.2706
 1447TIP3    H125900   1.739   0.191   0.583 -0.7083  1.9812  0.8942
 1447TIP3    H225901   1.862   0.279   0.574  0.4798  0.5167  2.3900
 1448TIP3   OH225902   2.569   4.305   2.393 -0.6999  0.1628 -0.2032
 1448TIP3    H125903   2.508   4.368   2.354 -1.1777 -0.1836 -0.0157
 1448TIP3    H225904   2.519   4.223   2.399 -0.6285  0.1939  1.1121
 1449TIP3   OH225905   0.801   3.784   3.555  0.7993  0.0334  0.0257
 1449TIP3    H125906   0.824   3.876   3.541  1.9014 -0.3725 -0.9947
 1449TIP3    H225907   0.884   3.743   3.582  0.2393 -0.6029  0.8287
 1450TIP3   OH225908   1.799   3.281   0.475 -0.3778  0.7375 -0.2181
 1450TIP3    H125909   1.773   3.246   0.390  0.9821  1.4963 -0.9780
 1450TIP3    H225910   1.774   3.373   0.472 -1.8179  0.4208  0.8713
 1451TIP3   OH225911   5.288   0.881   2.346  0.6053  0.1581 -0.9424
 1451TIP3    H125912   5.322   0.824   2.277  1.0955 -0.5605 -0.1315
 1451TIP3    H225913   5.207   0.840   2.374 -0.2084  1.0854 -1.8741
 1452TIP3   OH225914   2.991   0.174   1.249  0.1941  0.1490 -0.0213
 1452TIP3    H125915   2.962   0.131   1.168 -0.8447  0.4963  0.1519
 1452TIP3    H225916   3.063   0.232   1.221  1.6960 -1.7128 -0.2504
 1453TIP3   OH225917   5.651   4.003   1.080  0.4211  0.2311 -0.6037
 1453TIP3    H125918   5.734   3.988   1.125  0.5009  0.2703 -0.7366
 1453TIP3    H225919   5.595   4.045   1.145  0.4034 -0.0758 -0.4197
 1454TIP3   OH225920   4.414   2.719   8.589 -0.2757  0.3074 -0.2885
 1454TIP3    H125921   4.403   2.638   8.538 -0.9018  0.7900 -0.9464
 1454TIP3    H225922   4.349   2.779   8.552 -0.0119  1.0204  0.3850
 1455TIP3   OH225923   0.471   6.028   3.910  0.0013  0.0388 -0.2344
 1455TIP3    H125924   0.402   6.094   3.921 -0.2788 -0.3128  0.1523
 1455TIP3    H225925   0.551   6.072   3.938 -0.0998  0.3784 -0.4670
 1456TIP3   OH225926   4.947   5.852   1.216 -0.1992  0.1425 -0.0664
 1456TIP3    H125927   4.853   5.851   1.238  0.0192  0.6344  0.9990
 1456TIP3    H225928   4.990   5.832   1.299  0.6443 -0.2057 -0.5819
 1457TIP3   OH225929   2.958   3.384   0.453 -0.6349 -0.6438  0.2919
 1457TIP3    H125930   3.049   3.355   0.454  0.4337  2.2372  2.1973
 1457TIP3    H225931   2.932   3.382   0.361  2.8238  2.2561 -0.9807
 1458TIP3   OH225932   6.700   2.895   2.678  0.0961  0.1557 -0.5978
 1458TIP3    H125933   6.748   2.827   2.632  0.8446  0.3032 -0.0505
 1458TIP3    H225934   6.735   2.893   2.767  0.7659  1.8223 -0.7781
 1459TIP3   OH225935   1.638   4.332   0.276 -0.2933  0.3449  0.2564
 1459TIP3    H125936   1.618   4.252   0.325 -0.6041  0.9147  1.0746
 1459TIP3    H225937   1.583   4.399   0.316  0.1038  1.0140 -0.3036
 1460TIP3   OH225938   6.531   1.546   1.810  0.4316 -0.6624  0.0565
 1460TIP3    H125939   6.582   1.468   1.829  1.1941  0.0967  1.3252
 1460TIP3    H225940   6.596   1.611   1.783  0.0102 -0.0386  0.5124
 1461TIP3   OH225941   6.209   4.368   4.890  0.3106  0.0123  0.6161
 1461TIP3    H125942   6.277   4.362   4.823 -0.6853  1.0278 -0.5355
 1461TIP3    H225943   6.138   4.313   4.858 -0.6796  1.4970  0.1672
 1462TIP3   OH225944   3.062   0.828   2.644 -0.4637 -0.1485 -0.0995
 1462TIP3    H125945   3.038   0.911   2.602  3.7047  1.2674 -0.1213
 1462TIP3    H225946   3.086   0.771   2.571 -1.1103 -0.5992  0.0327
 1463TIP3   OH225947   6.634   3.487   4.152 -0.3088  0.2222 -0.5725
 1463TIP3    H125948   6.658   3.475   4.244 -0.9553 -0.0735 -0.4334
 1463TIP3    H225949   6.711   3.528   4.112  0.0098  0.2775  0.0801
 1464TIP3   OH225950   3.907   0.017   3.628  0.3459 -0.1018 -0.3104
 1464TIP3    H125951   3.957  -0.058   3.596  1.3243 -0.0622  1.0728
 1464TIP3    H225952   3.826   0.015   3.576 -0.1870 -2.8205  0.4634
 1465TIP3   OH225953   3.013   0.206   3.487 -0.4315  0.0686 -0.4441
 1465TIP3    H125954   3.049   0.215   3.399 -0.0219 -3.0937 -0.7348
 1465TIP3    H225955   2.926   0.169   3.472  0.4841 -2.6934  0.3869
 1466TIP3   OH225956   6.552   5.101   2.472  0.1353 -0.2610 -0.2665
 1466TIP3    H125957   6.584   5.182   2.512 -3.2585  1.5249 -0.7366
 1466TIP3    H225958   6.602   5.093   2.391  0.6642  1.3455 -0.1485
 1467TIP3   OH225959   3.059   0.268   2.758 -0.2133 -0.0367  0.1888
 1467TIP3    H125960   3.011   0.197   2.800  0.8419 -0.0510  1.4350
 1467TIP3    H225961   3.083   0.327   2.829  1.1736  0.2086 -0.4381
 1468TIP3   OH225962   4.878   0.682   4.694 -0.2831  0.4554  0.0372
 1468TIP3    H125963   4.813   0.726   4.638 -1.1547 -1.5221 -0.5829
 1468TIP3    H225964   4.962   0.710   4.658 -0.7658  2.0258  0.0253
 1469TIP3   OH225965   1.416   4.602   1.491  0.6825 -0.1656 -0.5242
 1469TIP3    H125966   1.334   4.608   1.539  1.6188  2.8059  0.9646
 1469TIP3    H225967   1.473   4.548   1.547  0.6681  0.3423 -0.0086
 1470TIP3   OH225968   1.420   2.049   1.342 -0.2981 -0.6843 -0.6517
 1470TIP3    H125969   1.483   2.012   1.280  0.1130 -1.1756  0.0446
 1470TIP3    H225970   1.454   2.026   1.428  0.0269  1.4182 -0.1640
 1471TIP3   OH225971   5.609   1.170   1.673 -0.7759 -0.0981 -0.0529
 1471TIP3    H125972   5.700   1.187   1.697 -0.6529  0.4304 -0.8303
 1471TIP3    H225973   5.579   1.104   1.735 -0.2021  0.5375  0.9264
 1472TIP3   OH225974   3.339   1.232   3.696  0.7042 -0.1447 -0.0133
 1472TIP3    H125975   3.373   1.202   3.781 -1.0403 -0.5068  0.5945
 1472TIP3    H225976   3.336   1.328   3.705  2.0646 -0.0591 -0.2963
 1473TIP3   OH225977   4.618   5.895   5.015  0.0536  0.0210 -0.5650
 1473TIP3    H125978   4.684   5.945   4.967 -0.3570 -0.5199 -1.7103
 1473TIP3    H225979   4.585   5.956   5.081  2.7208 -0.1149  1.0491
 1474TIP3   OH225980   0.490   1.599   2.682 -0.3397  0.5404  0.1263
 1474TIP3    H125981   0.438   1.604   2.602 -0.1395 -0.2730 -0.0633
 1474TIP3    H225982   0.563   1.660   2.666 -0.7931  1.0673  0.0644
 1475TIP3   OH225983   2.492   5.633   0.543 -0.3048  0.2511  0.2075
 1475TIP3    H125984   2.543   5.552   0.535  0.9342  0.9421  0.8286
 1475TIP3    H225985   2.513   5.683   0.465 -0.0255  0.5437  0.4698
 1476TIP3   OH225986   3.798   4.267   0.597  0.3734  0.0566  0.0225
 1476TIP3    H125987   3.774   4.338   0.657  0.0354  1.2215 -1.4311
 1476TIP3    H225988   3.863   4.306   0.539  0.2754 -0.8603 -0.7234
 1477TIP3   OH225989   2.605   4.811   8.521 -0.1684 -0.6863  0.1573
 1477TIP3    H125990   2.560   4.846   8.444 -0.3815 -3.2110 -0.9731
 1477TIP3    H225991   2.684   4.865   8.529 -1.0122  0.7662 -0.7040
 1478TIP3   OH225992   3.699   3.765   4.344  0.3443 -0.0096 -0.2768
 1478TIP3    H125993   3.656   3.715   4.413 -1.6956  0.4110 -1.1728
 1478TIP3    H225994   3.768   3.814   4.389  0.8172 -1.7575  0.9922
 1479TIP3   OH225995   5.982   5.759   2.909 -0.1661 -0.3674 -0.0180
 1479TIP3    H125996   6.057   5.716   2.868  0.9799  1.6050 -0.1623
 1479TIP3    H225997   6.006   5.852   2.908 -1.6169  0.0770  2.0328
 1480TIP3   OH225998   0.845   0.658   3.930  0.2031  0.8143 -0.0128
 1480TIP3    H125999   0.860   0.636   3.838 -1.7048 -1.2691  0.1021
 1480TIP3    H226000   0.888   0.588   3.979 -0.9850  0.4813  0.5845
 1481TIP3   OH226001   2.408   0.581   2.093  0.4872 -0.2494 -0.1620
 1481TIP3    H126002   2.352   0.575   2.171  0.4990 -1.1795 -0.2228
 1481TIP3    H226003   2.489   0.621   2.126  1.6121 -3.1683  0.9685
 1482TIP3   OH226004   5.282   1.215   4.020 -0.8376  0.4268 -0.1284
 1482TIP3    H126005   5.188   1.226   4.010 -1.1606 -0.6733  1.3192
 1482TIP3    H226006   5.303   1.140   3.966 -0.9361  0.2268  0.1060
 1483TIP3   OH226007   0.591   1.869   3.311  0.1882  0.0904 -0.0682
 1483TIP3    H126008   0.658   1.866   3.243  0.0526 -0.7260 -0.1803
 1483TIP3    H226009   0.602   1.786   3.359 -1.3875 -0.5442 -0.7282
 1484TIP3   OH226010   1.559   2.230   2.007 -0.0316 -0.3131  0.4475
 1484TIP3    H126011   1.638   2.274   1.975 -0.6934  0.3425 -0.3195
 1484TIP3    H226012   1.592   2.163   2.068  1.0650  0.3957  0.6604
 1485TIP3   OH226013   0.323   3.740   3.810  0.3914  0.1233 -0.7076
 1485TIP3    H126014   0.239   3.747   3.766  0.0520  0.4991 -0.0116
 1485TIP3    H226015   0.341   3.646   3.813  0.0759  0.0526 -0.9920
 1486TIP3   OH226016   5.910   6.089   1.616 -0.4839 -0.7057 -0.2899
 1486TIP3    H126017   5.893   6.099   1.522  1.4555 -1.0803 -0.7441
 1486TIP3    H226018   5.939   5.998   1.625 -0.0331 -0.4875  0.5567
 1487TIP3   OH226019   5.048   4.716   0.825  0.2138  0.7479  0.6128
 1487TIP3    H126020   5.008   4.630   0.816 -0.4636  1.0468  0.6872
 1487TIP3    H226021   5.020   4.765   0.748 -1.6628  1.7646  1.8522
 1488TIP3   OH226022   0.360   5.643   1.642 -0.6105  0.2695 -0.1350
 1488TIP3    H126023   0.439   5.604   1.604 -1.2775 -0.7101 -0.5855
 1488TIP3    H226024   0.292   5.629   1.576 -1.8519 -1.6416  1.4124
 1489TIP3   OH226025   4.135   2.192   1.516 -0.1233  0.4759  0.1520
 1489TIP3    H126026   4.157   2.106   1.480  1.4183  1.3027 -0.9774
 1489TIP3    H226027   4.207   2.249   1.490 -0.8457  2.0191  1.3249
 1490TIP3   OH226028   2.659   1.141   4.554  0.4095 -0.0339 -0.2822
 1490TIP3    H126029   2.721   1.104   4.617  2.5139  0.5823 -1.9051
 1490TIP3    H226030   2.674   1.235   4.558 -1.2277  0.2496  0.0420
 1491TIP3   OH226031   5.400   6.576   4.008 -0.2048 -0.7230 -0.0784
 1491TIP3    H126032   5.362   6.608   3.927  3.9445  0.9300 -1.6323
 1491TIP3    H226033   5.401   6.652   4.066 -0.4539 -1.1242  0.4688
 1492TIP3   OH226034   3.091   3.680   0.436 -0.4585  0.7289 -0.8631
 1492TIP3    H126035   3.148   3.695   0.512  1.5336 -1.3056 -1.8217
 1492TIP3    H226036   3.049   3.595   0.455  0.3594  0.0092 -2.1589
 1493TIP3   OH226037   2.916   4.772   2.154 -0.2372 -0.0942  0.5402
 1493TIP3    H126038   2.927   4.790   2.061 -3.1567  1.5752  0.4063
 1493TIP3    H226039   2.954   4.685   2.166 -0.4668 -0.7011 -2.3685
 1494TIP3   OH226040   0.283   3.345   3.629  0.0103  0.0590  0.4851
 1494TIP3    H126041   0.259   3.322   3.540  1.9874 -1.0229  0.1690
 1494TIP3    H226042   0.294   3.440   3.628 -0.7949  0.1539 -0.1891
 1495TIP3   OH226043   4.307   5.793   3.484  0.6554 -0.3700  0.5911
 1495TIP3    H126044   4.333   5.886   3.489 -0.5610  0.0410 -0.3832
 1495TIP3    H226045   4.386   5.748   3.453  0.5961  0.6950 -1.2714
 1496TIP3   OH226046   0.844   2.639   3.743  0.5688  0.3022 -0.4989
 1496TIP3    H126047   0.828   2.554   3.783  0.6904 -0.1323 -1.3561
 1496TIP3    H226048   0.841   2.701   3.817  1.4483 -0.5440  0.2707
 1497TIP3   OH226049   1.139   2.460   1.478  0.3566 -0.2297 -0.4818
 1497TIP3    H126050   1.183   2.416   1.405  0.7883  0.1138 -0.4296
 1497TIP3    H226051   1.187   2.432   1.556  0.2875 -0.0967 -0.3910
 1498TIP3   OH226052   2.724   6.612   2.736 -0.3442 -0.5708 -0.1491
 1498TIP3    H126053   2.761   6.574   2.816  2.5868  2.3722  0.0869
 1498TIP3    H226054   2.711   6.537   2.678  2.2268 -2.3072  1.3173
 1499TIP3   OH226055   6.183   5.776   0.766 -0.7873  1.0871  0.3850
 1499TIP3    H126056   6.174   5.734   0.681 -1.3051  0.5623  0.6885
 1499TIP3    H226057   6.201   5.704   0.827 -2.4965  1.1608  1.0443
 1500TIP3   OH226058   6.770   4.909   2.322  0.5655  0.2274  0.3578
 1500TIP3    H126059   6.746   4.985   2.269 -0.2449 -0.1845  0.1183
 1500TIP3    H226060   6.834   4.942   2.385 -1.0657  1.4866  1.4066
 1501TIP3   OH226061   5.128   1.253   1.738  0.9491  0.7095 -0.1111
 1501TIP3    H126062   5.182   1.251   1.817 -0.4514 -2.0915  0.8973
 1501TIP3    H226063   5.142   1.168   1.696 -1.1736  0.6448 -0.8336
 1502TIP3   OH226064   6.716   3.617   1.329 -0.6683  0.0021 -0.7483
 1502TIP3    H126065   6.748   3.564   1.402  1.1930 -0.5147 -1.8632
 1502TIP3    H226066   6.772   3.695   1.331 -1.0348  0.2823 -1.2543
 1503TIP3   OH226067   1.507   0.058   3.332 -0.0806  0.0635 -0.0252
 1503TIP3    H126068   1.471  -0.024   3.301  1.7508 -1.2982  1.2405
 1503TIP3    H226069   1.591   0.035   3.370 -0.0608  2.3354  1.5323
 1504TIP3   OH226070   2.118   6.180   2.035 -0.4128  0.2583  0.5431
 1504TIP3    H126071   2.093   6.088   2.041 -0.8107  0.3974  1.0727
 1504TIP3    H226072   2.163   6.187   1.951  0.2407 -0.5612  0.8155
 1505TIP3   OH226073   1.013   4.046   2.681 -0.4941 -0.2101 -0.5505
 1505TIP3    H126074   0.927   4.088   2.678 -1.1496 -1.0682  2.3452
 1505TIP3    H226075   1.072   4.116   2.712 -0.8625 -0.4156  0.6913
 1506TIP3   OH226076   0.210   0.968   2.140  0.0177  0.0949  0.9248
 1506TIP3    H126077   0.224   0.913   2.063  0.9547  0.6324  0.6808
 1506TIP3    H226078   0.160   0.914   2.201 -0.9397 -0.2531 -0.1540
 1507TIP3   OH226079   3.404   3.134   3.227 -0.1629  0.1521  0.1205
 1507TIP3    H126080   3.394   3.228   3.211  0.4706 -0.0086 -1.4981
 1507TIP3    H226081   3.499   3.119   3.221 -0.4262 -1.0228 -2.8629
 1508TIP3   OH226082   2.379   0.516   1.403 -0.2977  0.4848 -0.1307
 1508TIP3    H126083   2.452   0.487   1.457  0.2085 -0.0327 -1.0768
 1508TIP3    H226084   2.302   0.503   1.459  0.1366 -0.7507  0.2082
 1509TIP3   OH226085   3.342   1.069   2.721 -0.6494 -0.3301  0.2268
 1509TIP3    H126086   3.299   1.028   2.797 -0.3019  0.1639  0.6992
 1509TIP3    H226087   3.424   1.022   2.711 -1.2053 -1.1646 -0.5742
 1510TIP3   OH226088   6.019   6.152   3.689 -0.8563 -0.0687 -0.9030
 1510TIP3    H126089   5.966   6.072   3.695 -1.6132  0.3922 -1.2694
 1510TIP3    H226090   6.104   6.122   3.657 -0.6709 -0.9103  0.2792
 1511TIP3   OH226091   1.689   5.504   4.564  0.2448  0.1606  0.1322
 1511TIP3    H126092   1.695   5.505   4.469  0.6631 -0.4281  0.1448
 1511TIP3    H226093   1.663   5.593   4.588 -0.2014  0.2223 -0.5508
 1512TIP3   OH226094   5.184   5.284   1.729 -0.3968 -0.1459  0.0145
 1512TIP3    H126095   5.170   5.330   1.646  0.2576  1.0844  0.5708
 1512TIP3    H226096   5.134   5.203   1.719 -0.4707  0.0536 -1.5120
 1513TIP3   OH226097   3.788   4.732   3.290 -0.0948 -0.1558  0.1433
 1513TIP3    H126098   3.725   4.710   3.221  1.2524 -0.2578 -1.1203
 1513TIP3    H226099   3.745   4.799   3.342 -1.3521 -0.4376 -0.4904
 1514TIP3   OH226100   4.516   1.563   2.359 -0.5746 -0.3528  0.4748
 1514TIP3    H126101   4.583   1.533   2.421  0.6932  0.9701 -0.1991
 1514TIP3    H226102   4.461   1.622   2.410  0.1187  0.2823  0.5024
 1515TIP3   OH226103   5.685   3.246   2.311  0.0755 -0.2102  0.0415
 1515TIP3    H126104   5.736   3.283   2.239 -0.2741  0.1079 -0.0460
 1515TIP3    H226105   5.603   3.295   2.310  0.4985  0.5818  1.3574
 1516TIP3   OH226106   2.569   0.053   3.229 -0.1704  0.4302 -0.2299
 1516TIP3    H126107   2.619  -0.028   3.231 -1.0060 -0.0821  0.5806
 1516TIP3    H226108   2.478   0.025   3.221 -0.5345  1.2450  0.8212
 1517TIP3   OH226109   3.772   4.131   2.345 -0.2654 -0.1422  0.2376
 1517TIP3    H126110   3.783   4.169   2.258  1.0702 -1.9451 -0.4456
 1517TIP3    H226111   3.825   4.186   2.402  1.1971 -0.5997 -0.6223
 1518TIP3   OH226112   5.410   0.384   5.124  0.7275 -0.6816 -0.0800
 1518TIP3    H126113   5.504   0.393   5.143  0.7647 -0.3366 -0.4339
 1518TIP3    H226114   5.369   0.377   5.210  1.0966 -1.0103  0.0728
 1519TIP3   OH226115   6.612   1.399   0.318  0.1030 -0.1080  0.2862
 1519TIP3    H126116   6.658   1.382   0.236 -1.3329 -1.5498 -0.2790
 1519TIP3    H226117   6.615   1.494   0.328 -1.2091  0.3244 -2.4241
 1520TIP3   OH226118   2.691   3.656   3.769 -0.0505 -0.7565  0.4506
 1520TIP3    H126119   2.700   3.642   3.864  0.5094 -1.5644  0.2858
 1520TIP3    H226120   2.736   3.738   3.752 -0.2253 -0.5648  0.8947
 1521TIP3   OH226121   3.259   2.592   1.114 -0.3344  0.3748 -0.0170
 1521TIP3    H126122   3.340   2.563   1.154 -0.4001 -0.3305 -0.3713
 1521TIP3    H226123   3.195   2.525   1.139 -0.6583  0.5924 -0.2543
 1522TIP3   OH226124   3.536   6.044   3.872  0.2543 -0.4754 -0.0069
 1522TIP3    H126125   3.443   6.067   3.870  0.1295 -0.9950 -0.2809
 1522TIP3    H226126   3.574   6.093   3.799  0.0295 -0.9622 -0.4540
 1523TIP3   OH226127   2.814   5.526   3.813 -0.9716 -0.0898  0.3256
 1523TIP3    H126128   2.871   5.450   3.799 -1.0647 -0.0235 -0.5088
 1523TIP3    H226129   2.763   5.505   3.891  1.2238  0.4881  2.0151
 1524TIP3   OH226130   3.499   4.498   0.526  0.4728 -0.1436 -0.1399
 1524TIP3    H126131   3.476   4.503   0.619 -0.8673 -1.2961 -0.3681
 1524TIP3    H226132   3.495   4.405   0.506  0.6646  0.1013 -1.3825
 1525TIP3   OH226133   5.868   4.788   4.008  0.0411  0.3206 -0.0538
 1525TIP3    H126134   5.817   4.791   3.928 -0.2452 -2.2800 -0.0338
 1525TIP3    H226135   5.959   4.786   3.978 -0.0886 -2.2861 -0.4756
 1526TIP3   OH226136   4.183   3.680   0.363 -0.7983  0.2093  0.1450
 1526TIP3    H126137   4.248   3.750   0.361 -0.7702  0.2065  0.8359
 1526TIP3    H226138   4.099   3.726   0.369 -0.8395  0.2029 -0.3504
 1527TIP3   OH226139   1.841   2.470   0.167  0.0427  0.2349  0.1981
 1527TIP3    H126140   1.820   2.564   0.169 -0.9582  0.0587 -0.9408
 1527TIP3    H226141   1.898   2.457   0.243 -1.5352  1.3454  1.6582
 1528TIP3   OH226142   1.911   3.101   0.972 -0.1602  0.0278 -0.0227
 1528TIP3    H126143   1.881   3.069   0.887  1.3530  0.4305 -0.7549
 1528TIP3    H226144   1.881   3.192   0.976 -0.7764 -0.1805  0.1636
 1529TIP3   OH226145   0.447   0.390   2.235 -0.4483  0.3003  0.4599
 1529TIP3    H126146   0.541   0.371   2.232 -0.4503  0.4013 -1.3389
 1529TIP3    H226147   0.407   0.310   2.268  0.2480  0.1921  1.0638
 1530TIP3   OH226148   3.691   3.764   0.315  0.1746  0.8436 -0.7562
 1530TIP3    H126149   3.744   3.718   0.250  0.3163 -0.1719  0.0527
 1530TIP3    H226150   3.692   3.855   0.286  2.3955  0.8833 -0.7625
 1531TIP3   OH226151   1.991   3.747   4.308  0.1682 -0.0564 -0.1547
 1531TIP3    H126152   2.048   3.812   4.349 -0.5924  0.5922 -0.1005
 1531TIP3    H226153   1.992   3.672   4.369  0.8491 -0.0078 -0.0961
 1532TIP3   OH226154   1.665   5.668   0.533  0.5899  0.5881  0.2383
 1532TIP3    H126155   1.745   5.711   0.504  0.9154  0.0650  0.3464
 1532TIP3    H226156   1.693   5.582   0.562 -0.1292  0.1228 -0.4251
 1533TIP3   OH226157   6.335   4.836   1.396  0.0045  0.3032  0.2239
 1533TIP3    H126158   6.402   4.770   1.415 -0.2251 -0.1111 -0.3994
 1533TIP3    H226159   6.317   4.877   1.481  2.1433  1.4761  0.1922
 1534TIP3   OH226160   2.300   4.508   2.642  0.4257 -0.4406 -0.2058
 1534TIP3    H126161   2.339   4.581   2.594  1.8828 -0.3438  1.0533
 1534TIP3    H226162   2.337   4.515   2.730 -1.9979 -0.7006  0.9244
 1535TIP3   OH226163   2.220   5.572   3.657  0.1001  0.0366  0.0841
 1535TIP3    H126164   2.313   5.573   3.633 -0.4070  0.8746 -2.0477
 1535TIP3    H226165   2.174   5.572   3.574 -1.8385  1.7757  1.0663
 1536TIP3   OH226166   6.281   5.667   1.486 -0.6558 -0.3192  0.3807
 1536TIP3    H126167   6.347   5.688   1.552 -0.3997  1.1602 -0.2914
 1536TIP3    H226168   6.303   5.579   1.456  1.2848  0.3019 -0.1358
 1537TIP3   OH226169   0.777   6.749   2.620  0.2462  0.3191 -0.0904
 1537TIP3    H126170   0.823   6.666   2.635  0.0067 -0.2735 -2.3388
 1537TIP3    H226171   0.747   6.744   2.529 -0.1660  2.7036 -0.1408
 1538TIP3   OH226172   3.439   6.562   2.043 -0.2231  0.0867 -0.0678
 1538TIP3    H126173   3.355   6.561   2.089 -0.1463 -1.2025  0.0763
 1538TIP3    H226174   3.504   6.549   2.113  0.0348  0.1859 -0.2885
 1539TIP3   OH226175   6.179   1.226   0.875  0.2000 -0.0594  0.6916
 1539TIP3    H126176   6.255   1.283   0.871  0.5880 -0.6183 -0.2566
 1539TIP3    H226177   6.104   1.285   0.871  0.5873  0.4380  0.6855
 1540TIP3   OH226178   5.968   1.214   2.410  0.7545 -0.2069  0.1315
 1540TIP3    H126179   6.027   1.257   2.471  1.1021 -0.9439  0.3229
 1540TIP3    H226180   5.903   1.171   2.466  2.4173 -2.8891  0.1459
 1541TIP3   OH226181   2.576   2.217   3.613  0.2484  0.6503  0.0892
 1541TIP3    H126182   2.520   2.175   3.547  1.4673  1.0240 -1.2289
 1541TIP3    H226183   2.569   2.311   3.594  0.1347  0.8237  0.9161
 1542TIP3   OH226184   2.563   0.488   8.249 -0.3067 -0.0398 -0.7401
 1542TIP3    H126185   2.532   0.545   8.320 -1.1417  0.0312 -1.1534
 1542TIP3    H226186   2.568   0.401   8.288  0.7999  0.2709 -0.1533
 1543TIP3   OH226187   1.454   0.567   3.833  0.2829  0.1365 -0.2101
 1543TIP3    H126188   1.414   0.556   3.747 -0.7874  0.6592  0.1958
 1543TIP3    H226189   1.379   0.582   3.892  1.1202  1.6907  0.5029
 1544TIP3   OH226190   3.649   5.505   2.752  0.3477 -0.0530  0.6677
 1544TIP3    H126191   3.647   5.574   2.818 -0.8590 -0.4931  1.1115
 1544TIP3    H226192   3.733   5.517   2.707 -0.3198  2.4021 -0.0412
 1545TIP3   OH226193   3.234   2.940   3.345 -0.1565 -0.2849 -0.4032
 1545TIP3    H126194   3.283   3.020   3.325 -0.4203 -0.1823 -0.6372
 1545TIP3    H226195   3.162   2.969   3.401  0.0905 -0.4494  0.0090
 1546TIP3   OH226196   3.097   6.084   8.438 -0.1537 -0.3643  0.4046
 1546TIP3    H126197   3.120   6.130   8.518  0.7285  1.0215 -0.5910
 1546TIP3    H226198   3.029   6.137   8.398  1.8066  0.9651 -1.4335
 1547TIP3   OH226199   1.120   2.120   3.933 -0.0022 -0.2282 -0.3139
 1547TIP3    H126200   1.210   2.092   3.950 -0.0254  0.9237  1.9977
 1547TIP3    H226201   1.087   2.150   4.017 -2.5174 -0.4076 -1.1429
 1548TIP3   OH226202   0.995   4.967   3.363  0.1264 -0.0363  0.1737
 1548TIP3    H126203   0.944   5.018   3.300 -3.1569  0.2622  2.7889
 1548TIP3    H226204   1.045   5.032   3.412 -0.5474  0.2144  0.5433
 1549TIP3   OH226205   6.602   1.341   3.038  0.0436 -0.1690  0.5622
 1549TIP3    H126206   6.541   1.371   2.971 -0.0411 -0.0862  0.6755
 1549TIP3    H226207   6.645   1.264   3.000 -1.2758 -1.1940  1.0842
 1550TIP3   OH226208   5.856   1.360   2.182 -0.4626 -0.2484 -0.2453
 1550TIP3    H126209   5.892   1.316   2.259 -0.0976 -1.1257 -0.8925
 1550TIP3    H226210   5.843   1.289   2.119  0.7750  0.6400 -1.5587
 1551TIP3   OH226211   3.076   3.479   0.795 -0.2892  0.0701 -0.3116
 1551TIP3    H126212   3.146   3.421   0.824 -0.5539  1.0113  2.6102
 1551TIP3    H226213   3.120   3.550   0.749  0.2036 -1.4310 -2.2519
 1552TIP3   OH226214   2.376   3.041   2.130 -0.0249  0.5901  0.0671
 1552TIP3    H126215   2.464   3.055   2.163  0.2188 -0.5667 -0.0475
 1552TIP3    H226216   2.320   3.053   2.207  0.6467 -3.6048  1.4694
 1553TIP3   OH226217   2.304   0.681   1.213 -0.9412  0.0346  0.4078
 1553TIP3    H126218   2.323   0.599   1.259 -0.6070 -0.0154  0.1859
 1553TIP3    H226219   2.214   0.672   1.182 -0.2673 -1.0879 -1.3566
 1554TIP3   OH226220   3.506   4.040   3.492 -0.1340 -0.0658  0.0640
 1554TIP3    H126221   3.476   4.023   3.403  0.8846  1.2116 -0.5499
 1554TIP3    H226222   3.493   3.957   3.538 -2.8036 -0.1281 -0.6197
 1555TIP3   OH226223   0.598   6.063   4.593 -0.0994 -0.2810  0.6706
 1555TIP3    H126224   0.692   6.052   4.575  0.0644  1.5625  0.2008
 1555TIP3    H226225   0.593   6.148   4.638 -1.5054 -0.5342  1.0107
 1556TIP3   OH226226   1.433   0.344   2.570 -0.0244  0.3398  0.6055
 1556TIP3    H126227   1.374   0.323   2.642  0.2126  0.3876  0.8149
 1556TIP3    H226228   1.521   0.327   2.605  0.2081  1.9809  0.8951
 1557TIP3   OH226229   0.933   5.799   0.670  0.1713 -0.2213  0.3151
 1557TIP3    H126230   0.840   5.787   0.653  0.3774 -3.1995  0.7088
 1557TIP3    H226231   0.975   5.779   0.586  0.4822  0.9305  0.1841
 1558TIP3   OH226232   3.837   5.250   1.171  0.1307  0.4866  0.0571
 1558TIP3    H126233   3.913   5.215   1.125  0.7087  1.3481  0.3458
 1558TIP3    H226234   3.828   5.340   1.140  0.3859  1.0172  1.4177
 1559TIP3   OH226235   1.477   6.781   1.653 -0.3363 -0.1394 -0.5431
 1559TIP3    H126236   1.414   6.717   1.619 -0.8364  0.4881 -0.8309
 1559TIP3    H226237   1.425   6.835   1.713  0.4877 -1.1061  1.1022
 1560TIP3   OH226238   5.177   4.309   4.469  0.0343  0.1817  0.0858
 1560TIP3    H126239   5.086   4.316   4.496 -0.8605 -1.1005 -2.2892
 1560TIP3    H226240   5.217   4.252   4.534 -0.6828  1.2055  1.4634
 1561TIP3   OH226241   1.974   4.602   3.649 -0.2300 -0.4744  0.2604
 1561TIP3    H126242   1.956   4.563   3.564 -0.0106  0.2507 -0.1307
 1561TIP3    H226243   1.952   4.694   3.638 -0.6079 -0.4534  1.1183
 1562TIP3   OH226244   3.612   6.019   0.519 -0.3081  0.1218 -0.1625
 1562TIP3    H126245   3.623   5.960   0.444  1.5488 -0.7566  0.7119
 1562TIP3    H226246   3.683   6.082   0.510  0.6217 -0.6379  1.3599
 1563TIP3   OH226247   2.159   5.131   8.117  0.5253 -0.0378 -0.1554
 1563TIP3    H126248   2.170   5.147   8.211  0.5314 -1.8741  0.1861
 1563TIP3    H226249   2.246   5.105   8.086  0.2951 -0.5035 -0.4309
 1564TIP3   OH226250   5.886   5.756   4.648 -0.1334 -0.3133 -0.0891
 1564TIP3    H126251   5.976   5.740   4.620 -0.3939 -0.1448 -1.0249
 1564TIP3    H226252   5.876   5.851   4.644 -0.6109 -0.3897 -0.7996
 1565TIP3   OH226253   5.371   2.073   0.793  0.3314  0.7437 -0.1271
 1565TIP3    H126254   5.348   1.993   0.840  2.3676  0.2820  0.1692
 1565TIP3    H226255   5.306   2.137   0.820 -0.3977 -0.3802  0.8504
 1566TIP3   OH226256   4.085   4.784   3.028  0.0202 -0.1301 -0.0798
 1566TIP3    H126257   4.133   4.740   3.098  0.0749 -0.7634 -0.5060
 1566TIP3    H226258   4.152   4.827   2.975 -0.1217  1.4815  1.0088
 1567TIP3   OH226259   1.866   2.395   2.736 -0.2797  0.1751  0.2324
 1567TIP3    H126260   1.898   2.469   2.685 -2.3956  0.7529 -0.3591
 1567TIP3    H226261   1.878   2.319   2.678  0.6190  0.2634  0.2978
 1568TIP3   OH226262   4.197   0.665   4.643  0.2900 -0.1991  0.2415
 1568TIP3    H126263   4.240   0.750   4.652  2.6116 -0.8252 -3.0728
 1568TIP3    H226264   4.114   0.684   4.599 -0.2451  0.5099  1.5215
 1569TIP3   OH226265   2.823   5.264   2.798  0.5027  0.1929 -0.0841
 1569TIP3    H126266   2.795   5.327   2.864  0.4159  0.9130 -0.7893
 1569TIP3    H226267   2.897   5.307   2.754  0.8416 -0.4621 -0.1655
 1570TIP3   OH226268   1.562   3.673   2.274 -0.3223  0.3101  0.0075
 1570TIP3    H126269   1.592   3.744   2.217  1.2402 -0.3016  0.0250
 1570TIP3    H226270   1.481   3.643   2.233  0.9169 -0.3259 -2.1229
 1571TIP3   OH226271   2.193   2.919   3.750  0.6713 -0.5109 -0.4915
 1571TIP3    H126272   2.210   3.013   3.755 -0.2910 -0.3839  0.9285
 1571TIP3    H226273   2.274   2.882   3.715  1.2897  0.7781 -0.4814
 1572TIP3   OH226274   2.165   6.476   2.357  0.2917  0.5118  0.0891
 1572TIP3    H126275   2.257   6.493   2.340  0.7177 -0.5676  1.1033
 1572TIP3    H226276   2.156   6.381   2.345 -1.0306  0.7891 -1.4314
 1573TIP3   OH226277   4.328   0.407   3.126  0.2580 -0.7113 -0.0339
 1573TIP3    H126278   4.308   0.370   3.212  0.6451 -0.4498  0.1718
 1573TIP3    H226279   4.276   0.355   3.065  0.5117 -1.3525  0.2859
 1574TIP3   OH226280   2.015   5.938   2.074  0.2307 -0.0610 -0.5566
 1574TIP3    H126281   1.955   5.930   2.000  1.6810  1.3376 -1.9518
 1574TIP3    H226282   1.999   5.860   2.127 -1.9460 -0.3047 -1.4977
 1575TIP3   OH226283   5.683   1.411   3.237  0.1766  0.0513  0.8108
 1575TIP3    H126284   5.652   1.344   3.175  0.6368 -1.2334  1.9211
 1575TIP3    H226285   5.603   1.458   3.262 -0.2988 -0.6295  0.6231
 1576TIP3   OH226286   4.146   5.079   0.292 -0.5436 -0.1914 -0.0551
 1576TIP3    H126287   4.059   5.040   0.304 -0.4667 -0.8574 -1.4309
 1576TIP3    H226288   4.163   5.070   0.198  1.2222 -0.5109  0.2687
 1577TIP3   OH226289   6.171   0.551   2.435 -0.3093  0.0678  0.2426
 1577TIP3    H126290   6.221   0.504   2.368  2.5155  0.5967  1.8366
 1577TIP3    H226291   6.159   0.639   2.399 -0.1831 -0.1006 -0.2177
 1578TIP3   OH226292   2.894   5.220   0.574 -0.0662 -0.3613 -0.6362
 1578TIP3    H126293   2.916   5.251   0.486  1.8553  1.6449  0.4559
 1578TIP3    H226294   2.918   5.293   0.632 -2.4874 -1.1011  1.4748
 1579TIP3   OH226295   0.237   1.908   1.512  0.5930 -0.4124 -0.4395
 1579TIP3    H126296   0.218   1.865   1.596  1.5399  1.1340  0.6105
 1579TIP3    H226297   0.330   1.932   1.518  0.9644 -1.1845 -2.3813
 1580TIP3   OH226298   2.820   0.936   3.236 -0.2756 -0.3975 -0.1703
 1580TIP3    H126299   2.856   0.935   3.325  1.2443 -2.6929 -0.7223
 1580TIP3    H226300   2.775   1.020   3.230  0.9288  0.5397  2.2225
 1581TIP3   OH226301   4.919   2.289   0.197 -0.0389  0.1456 -0.3279
 1581TIP3    H126302   4.830   2.324   0.195 -0.9933 -2.0928  0.0060
 1581TIP3    H226303   4.976   2.366   0.192 -1.9851  1.7681  1.0579
 1582TIP3   OH226304   4.393   3.854   0.369 -0.0711 -0.6929 -0.1726
 1582TIP3    H126305   4.462   3.823   0.427 -0.4344 -0.8140  0.2046
 1582TIP3    H226306   4.439   3.897   0.297  0.3552  0.9931  1.0584
 1583TIP3   OH226307   2.936   0.236   4.273  0.3254 -0.0318  0.5055
 1583TIP3    H126308   2.859   0.282   4.240  0.0745 -0.8148 -0.0309
 1583TIP3    H226309   3.007   0.260   4.214  0.2565 -0.1147  0.3894
 1584TIP3   OH226310   0.066   6.272   3.692 -0.0489 -0.1742  0.1144
 1584TIP3    H126311  -0.020   6.250   3.727 -0.1781  1.0377  0.5832
 1584TIP3    H226312   0.084   6.203   3.627 -0.9983 -0.8979  0.5991
 1585TIP3   OH226313   3.906   5.334   1.682  0.0942 -0.3835  0.0470
 1585TIP3    H126314   3.966   5.310   1.612  1.5635  1.5237  0.5671
 1585TIP3    H226315   3.825   5.288   1.661  1.0915 -1.4172 -1.8045
 1586TIP3   OH226316   4.258   4.076   0.550 -0.2915  0.1382 -0.0534
 1586TIP3    H126317   4.320   4.015   0.509 -0.6594 -0.4894  0.3080
 1586TIP3    H226318   4.211   4.023   0.614 -0.1070  0.9812  0.8010
 1587TIP3   OH226319   5.258   0.797   3.905  0.0889  0.1660  0.4242
 1587TIP3    H126320   5.212   0.804   3.989 -1.3254 -0.5675 -0.2543
 1587TIP3    H226321   5.309   0.877   3.899 -1.2393  1.0984  1.1549
 1588TIP3   OH226322   0.719   1.406   2.727 -0.1154  0.1711 -0.6953
 1588TIP3    H126323   0.784   1.422   2.659  2.1216 -0.6363  1.1331
 1588TIP3    H226324   0.663   1.484   2.726  1.1528  1.1084 -2.0252
 1589TIP3   OH226325   1.313   6.252   2.162 -0.0747  0.0063 -0.2124
 1589TIP3    H126326   1.360   6.228   2.083 -0.1700  2.7404 -1.2133
 1589TIP3    H226327   1.243   6.187   2.170  0.4634 -0.8166 -1.8676
 1590TIP3   OH226328   0.832   1.343   0.176 -0.2399 -0.3347 -0.4016
 1590TIP3    H126329   0.895   1.301   0.235 -1.0277 -0.5453  0.3186
 1590TIP3    H226330   0.878   1.419   0.141  1.2510 -1.8101 -1.8103
 1591TIP3   OH226331   6.132   0.568   3.350 -0.1356  0.4599  0.1895
 1591TIP3    H126332   6.175   0.546   3.433 -1.8251 -0.9284  0.7413
 1591TIP3    H226333   6.088   0.652   3.368 -0.5672  0.1210  0.7329
 1592TIP3   OH226334   3.753   1.127   2.886 -0.1237 -0.3578  0.1956
 1592TIP3    H126335   3.790   1.101   2.971  1.8532 -1.4350 -0.9256
 1592TIP3    H226336   3.679   1.184   2.909 -1.3132 -2.6753  2.6852
 1593TIP3   OH226337   3.570   5.160   1.910 -0.0989  0.1360 -0.3100
 1593TIP3    H126338   3.652   5.116   1.929  0.2735  0.4211 -1.1864
 1593TIP3    H226339   3.510   5.130   1.978  0.9902  0.6945  0.9365
 1594TIP3   OH226340   6.123   4.802   3.272 -0.1509  0.0656  0.0076
 1594TIP3    H126341   6.086   4.824   3.357 -0.3889 -1.5642  0.3571
 1594TIP3    H226342   6.105   4.709   3.261  2.7768 -0.5719 -0.3403
 1595TIP3   OH226343   5.137   1.430   2.067 -0.2662  0.9171  0.1592
 1595TIP3    H126344   5.112   1.372   2.140  0.5530  0.7414  0.3131
 1595TIP3    H226345   5.169   1.509   2.110  1.7006  0.2235  0.0735
 1596TIP3   OH226346   2.171   1.376   0.644 -0.5380 -0.2843  0.1477
 1596TIP3    H126347   2.110   1.354   0.715 -1.3428 -0.9503 -0.7297
 1596TIP3    H226348   2.118   1.373   0.565  0.0705  1.6122 -0.3875
 1597TIP3   OH226349   6.184   3.853   1.692  0.2916  0.2621 -0.2888
 1597TIP3    H126350   6.124   3.796   1.740  0.3035  0.9548  0.5832
 1597TIP3    H226351   6.174   3.827   1.600 -1.2672  0.2903 -0.1476
 1598TIP3   OH226352   0.382   4.452   2.827 -0.6134  0.4697  0.2086
 1598TIP3    H126353   0.462   4.504   2.819 -0.4852  0.1050 -1.3803
 1598TIP3    H226354   0.413   4.361   2.826 -1.0671  0.2448 -2.4282
 1599TIP3   OH226355   4.499   2.516   3.352  0.3520 -0.3774 -0.3877
 1599TIP3    H126356   4.558   2.486   3.282  1.9311 -0.4837  0.9379
 1599TIP3    H226357   4.530   2.471   3.430  0.1610  1.5852  0.8744
 1600TIP3   OH226358   2.436   3.168   1.773  0.2430 -0.3097  0.3607
 1600TIP3    H126359   2.413   3.171   1.680 -0.8168 -1.3156  0.5583
 1600TIP3    H226360   2.422   3.257   1.804 -2.4378 -0.5667  0.1766
 1601TIP3   OH226361   4.339   4.146   4.342  0.6434  0.3316 -0.2618
 1601TIP3    H126362   4.349   4.170   4.434  1.1704  0.3040 -0.3099
 1601TIP3    H226363   4.245   4.135   4.330  0.6148 -0.1700  0.3964
 1602TIP3   OH226364   1.551   0.570   4.138  0.0417 -0.2411 -0.0603
 1602TIP3    H126365   1.508   0.612   4.213 -1.6486 -1.2563 -0.4167
 1602TIP3    H226366   1.494   0.498   4.114 -0.5224  1.1629 -3.5426
 1603TIP3   OH226367   4.247   3.446   0.462  0.3753  0.0004  0.4608
 1603TIP3    H126368   4.215   3.513   0.402  0.3603 -0.7909 -0.4402
 1603TIP3    H226369   4.312   3.397   0.411 -1.2705 -2.1487  0.2884
 1604TIP3   OH226370   3.665   2.507   3.164  0.2527  0.2756 -0.1786
 1604TIP3    H126371   3.667   2.465   3.250 -0.1976 -1.1321 -0.8338
 1604TIP3    H226372   3.573   2.530   3.151  0.1956 -0.1760 -0.5881
 1605TIP3   OH226373   3.997   3.222   0.482 -0.2298  0.0222  0.2707
 1605TIP3    H126374   3.961   3.175   0.407  0.7313  0.6583 -0.6039
 1605TIP3    H226375   3.994   3.314   0.457 -0.0236  0.2571  1.0705
 1606TIP3   OH226376   4.808   5.803   2.695 -0.0097  0.6797  0.2003
 1606TIP3    H126377   4.789   5.737   2.762 -0.8123 -0.7105 -1.3330
 1606TIP3    H226378   4.742   5.871   2.710  0.2538  0.7208  1.2372
 1607TIP3   OH226379   6.069   0.565   4.115 -0.5524  0.2806  0.4757
 1607TIP3    H126380   6.056   0.551   4.021  1.2663  1.0121  0.0615
 1607TIP3    H226381   6.079   0.476   4.151 -1.4370 -0.0100  0.0306
 1608TIP3   OH226382   2.694   1.147   3.526 -0.0243  0.3354  0.0668
 1608TIP3    H126383   2.625   1.196   3.481  0.6091  1.1922  0.0027
 1608TIP3    H226384   2.663   1.057   3.525 -1.0015  0.6550 -0.2303
 1609TIP3   OH226385   5.852   3.990   3.527  0.6205  0.2296  0.7748
 1609TIP3    H126386   5.765   3.996   3.565 -0.5365 -0.0996 -1.6544
 1609TIP3    H226387   5.891   4.076   3.542 -0.8593  1.0237  0.2850
 1610TIP3   OH226388   3.383   0.733   4.131 -0.4606 -0.0290 -0.2943
 1610TIP3    H126389   3.333   0.723   4.212 -0.7386  2.7493 -0.0244
 1610TIP3    H226390   3.472   0.707   4.154 -0.5544  0.6334  0.9014
 1611TIP3   OH226391   1.583   5.075   2.013 -0.1754  0.2170 -0.0337
 1611TIP3    H126392   1.560   5.157   2.056  0.0512 -1.2032  3.0036
 1611TIP3    H226393   1.669   5.052   2.048  0.8472 -0.2528 -2.5819
 1612TIP3   OH226394   5.974   0.788   3.436 -0.2387  0.1358  0.2821
 1612TIP3    H126395   6.008   0.775   3.524 -2.1746  2.0902  1.4262
 1612TIP3    H226396   6.038   0.845   3.394 -0.0870  0.5107  1.0029
 1613TIP3   OH226397   2.275   5.964   2.850 -0.1186 -0.8901 -0.2936
 1613TIP3    H126398   2.296   5.902   2.780  2.3763  0.2421 -0.6536
 1613TIP3    H226399   2.205   6.018   2.813  0.3422 -1.0645 -1.4711
 1614TIP3   OH226400   5.252   4.682   1.686 -0.1448  0.4675  0.2300
 1614TIP3    H126401   5.245   4.616   1.755  1.3977 -0.8704 -0.8134
 1614TIP3    H226402   5.161   4.704   1.664 -0.6767 -0.8105  1.0598
 1615TIP3   OH226403   0.691   4.626   0.912 -0.1156  0.0050  0.0322
 1615TIP3    H126404   0.779   4.656   0.889 -0.6691 -0.2429 -2.6545
 1615TIP3    H226405   0.652   4.699   0.960  0.1976  1.7402 -2.2393
 1616TIP3   OH226406   5.937   0.676   0.501 -0.5062 -0.3189  0.5063
 1616TIP3    H126407   5.999   0.728   0.450 -1.4895  1.0317  0.6509
 1616TIP3    H226408   5.897   0.618   0.436 -0.1023 -0.2168  0.1587
 1617TIP3   OH226409   1.441   1.667   1.802  0.0925 -0.2970 -0.1543
 1617TIP3    H126410   1.431   1.734   1.870  0.5639 -0.6313  0.2513
 1617TIP3    H226411   1.411   1.710   1.722  1.1536  0.6706 -0.0534
 1618TIP3   OH226412   1.332   5.905   1.760  0.8975  0.0697 -0.6731
 1618TIP3    H126413   1.343   5.825   1.708 -2.7266 -1.0734 -0.0007
 1618TIP3    H226414   1.291   5.967   1.700  0.0715 -0.0027 -0.2097
 1619TIP3   OH226415   0.097   3.831   1.373 -0.2535 -0.0898 -0.4701
 1619TIP3    H126416   0.147   3.880   1.308 -0.0901  0.6946  0.2324
 1619TIP3    H226417   0.077   3.895   1.442  1.7005 -1.4327  1.4760
 1620TIP3   OH226418   2.865   4.812   2.995  0.6806  0.5302 -0.6744
 1620TIP3    H126419   2.822   4.764   2.924  0.9825 -1.1696  0.2225
 1620TIP3    H226420   2.943   4.760   3.015 -0.5075 -0.2832  2.3110
 1621TIP3   OH226421   0.283   4.303   3.680  0.2544 -0.3853  0.3047
 1621TIP3    H126422   0.364   4.308   3.629  0.8097 -0.1035  1.1802
 1621TIP3    H226423   0.268   4.393   3.710 -0.5691 -0.3751 -0.1215
 1622TIP3   OH226424   4.993   2.192   1.622  0.0161  0.0036 -0.0783
 1622TIP3    H126425   4.993   2.134   1.545 -4.0821 -0.3973  0.0145
 1622TIP3    H226426   5.054   2.262   1.599  1.1350 -1.6008 -2.4294
 1623TIP3   OH226427   0.578   4.957   2.202 -0.7697  0.7160  0.1700
 1623TIP3    H126428   0.591   4.967   2.296 -1.8288  0.9434  0.3087
 1623TIP3    H226429   0.605   5.041   2.164  1.3525  0.0464  0.0410
 1624TIP3   OH226430   0.833   0.316   1.203 -0.5940 -0.5874  0.8695
 1624TIP3    H126431   0.894   0.276   1.264  0.3024 -0.5353  0.0359
 1624TIP3    H226432   0.833   0.257   1.127  1.5080  1.3546 -0.8061
 1625TIP3   OH226433   0.897   5.915   1.313  0.3257  0.3615  0.2580
 1625TIP3    H126434   0.860   5.907   1.226 -0.2000 -0.3422  0.5356
 1625TIP3    H226435   0.958   5.989   1.307  1.0976 -0.3563 -0.9674
 1626TIP3   OH226436   0.202   0.940   2.974  0.1617 -0.2104  0.0423
 1626TIP3    H126437   0.107   0.935   2.976  0.0852 -0.8759 -2.2926
 1626TIP3    H226438   0.229   0.919   3.063 -1.8729  0.6145  0.9039
 1627TIP3   OH226439   2.445   1.502   4.093 -0.3669  0.0752  0.3337
 1627TIP3    H126440   2.527   1.553   4.095 -0.6169  0.8918 -3.2110
 1627TIP3    H226441   2.472   1.416   4.063 -0.8039  0.4673 -1.2487
 1628TIP3   OH226442   0.845   3.893   2.954  0.3712 -0.0957  0.1539
 1628TIP3    H126443   0.857   3.966   2.894  1.0306 -0.1901  0.1543
 1628TIP3    H226444   0.761   3.909   2.997  0.4238  0.5619  0.0163
 1629TIP3   OH226445   0.932   5.995   2.581 -0.4401  0.2045 -0.2216
 1629TIP3    H126446   0.903   5.955   2.499 -3.9177  1.3675  0.2619
 1629TIP3    H226447   0.882   5.949   2.649  0.1893  1.1810  0.9455
 1630TIP3   OH226448   2.062   2.778   8.518 -0.1098  0.0382 -0.0123
 1630TIP3    H126449   2.026   2.689   8.521 -0.9565  0.3920  1.8157
 1630TIP3    H226450   2.152   2.766   8.486 -0.7596 -1.2388 -1.4990
 1631TIP3   OH226451   4.796   0.880   2.314 -0.4334  0.4811  0.1459
 1631TIP3    H126452   4.782   0.958   2.368 -0.9438  0.2694  0.3268
 1631TIP3    H226453   4.708   0.849   2.295 -0.2246 -0.2208  0.3215
 1632TIP3   OH226454   5.467   2.023   2.113 -0.0863  0.2370 -0.0016
 1632TIP3    H126455   5.484   2.086   2.183  0.4414 -0.2849  0.3489
 1632TIP3    H226456   5.481   1.937   2.153  2.3221 -0.0401 -1.2668
 1633TIP3   OH226457   0.866   6.228   8.742  0.1242  0.5562  0.2066
 1633TIP3    H126458   0.956   6.247   8.768 -0.3149  0.4698  1.9085
 1633TIP3    H226459   0.822   6.312   8.743 -0.0736  0.4513  0.4855
 1634TIP3   OH226460   5.457   6.181   2.005  0.4400 -0.1008 -0.4651
 1634TIP3    H126461   5.399   6.179   2.081  0.5493  1.8374 -0.2875
 1634TIP3    H226462   5.487   6.271   2.001  0.0720 -0.0352 -3.0962
 1635TIP3   OH226463   2.419   6.545   3.649  0.5115  0.9363 -0.0975
 1635TIP3    H126464   2.475   6.492   3.706 -0.0077  0.2794 -0.1863
 1635TIP3    H226465   2.474   6.619   3.624  1.2795  0.4071 -0.0211
 1636TIP3   OH226466   0.344   1.368   2.518  0.3503  0.3010  0.1648
 1636TIP3    H126467   0.330   1.392   2.609 -0.1474  1.6200 -0.2401
 1636TIP3    H226468   0.336   1.272   2.517 -1.6654  0.4114  1.1561
 1637TIP3   OH226469   4.809   1.248   1.342 -0.1647  0.4779 -0.1288
 1637TIP3    H126470   4.756   1.179   1.301 -0.0152 -0.6198  1.4175
 1637TIP3    H226471   4.774   1.330   1.306 -1.3243 -0.3287 -0.9189
 1638TIP3   OH226472   0.706   3.692   3.144 -0.3544 -0.0891 -0.4672
 1638TIP3    H126473   0.799   3.675   3.130 -0.3789 -1.5761  0.7954
 1638TIP3    H226474   0.691   3.779   3.107  1.7489  0.6085  0.1714
 1639TIP3   OH226475   3.649   3.755   2.988  0.3626 -0.3620  0.1291
 1639TIP3    H126476   3.709   3.817   3.030 -0.4590 -0.5664  1.6600
 1639TIP3    H226477   3.681   3.750   2.898  2.0680  0.2460  0.6429
 1640TIP3   OH226478   5.977   3.658   4.089  0.0420  0.3646 -0.3883
 1640TIP3    H126479   6.042   3.651   4.019  1.4352 -1.0159  0.9555
 1640TIP3    H226480   5.915   3.724   4.058  1.1705  0.5382 -2.4490
 1641TIP3   OH226481   1.277   4.434   3.283 -1.0645 -0.6748  0.2101
 1641TIP3    H126482   1.195   4.468   3.247 -0.1114  1.0766 -0.4439
 1641TIP3    H226483   1.329   4.409   3.206 -0.6670 -0.9819  0.5719
 1642TIP3   OH226484   2.954   0.943   3.469 -0.0481  0.0301  0.0021
 1642TIP3    H126485   2.976   1.036   3.469  1.0674 -0.2185 -0.8288
 1642TIP3    H226486   2.987   0.911   3.553  1.1011  0.0602 -0.4157
 1643TIP3   OH226487   2.270   5.281   3.429  0.0925  0.3997  0.1719
 1643TIP3    H126488   2.315   5.254   3.509  0.8055  0.0216 -0.3483
 1643TIP3    H226489   2.178   5.258   3.444  0.5402 -1.6715  0.0542
 1644TIP3   OH226490   2.839   0.330   3.090  0.2921 -0.4375  0.5975
 1644TIP3    H126491   2.807   0.391   3.157  2.4326  1.2467  0.1673
 1644TIP3    H226492   2.925   0.302   3.121  2.7693  2.7069 -2.6215
 1645TIP3   OH226493   1.313   6.580   2.826 -0.3166 -0.1449  0.1055
 1645TIP3    H126494   1.374   6.636   2.874 -1.1721 -0.3204  1.4752
 1645TIP3    H226495   1.249   6.642   2.789  0.3789 -0.0038 -0.8808
 1646TIP3   OH226496   6.102   0.380   2.830  0.4891 -0.4130 -0.1571
 1646TIP3    H126497   6.021   0.432   2.834 -0.3834 -1.6914 -0.5094
 1646TIP3    H226498   6.148   0.401   2.911 -0.1915  0.3427  0.0503
 1647TIP3   OH226499   6.415   1.704   1.999 -0.1126 -0.6093 -0.2126
 1647TIP3    H126500   6.493   1.657   1.969  0.2204 -0.1742 -0.0386
 1647TIP3    H226501   6.449   1.786   2.034 -0.7829  0.2609 -1.5216
 1648TIP3   OH226502   1.949   1.107   1.901  0.0050 -0.0460  0.0097
 1648TIP3    H126503   1.984   1.149   1.822  2.6383 -2.5400 -0.3080
 1648TIP3    H226504   1.856   1.095   1.882  0.1312  1.4103 -1.7772
 1649TIP3   OH226505   6.711   3.925   3.944  0.4237  0.3728  0.0106
 1649TIP3    H126506   6.616   3.929   3.944  0.4505  1.1881  0.0811
 1649TIP3    H226507   6.739   4.001   3.891  1.0230 -0.1645 -0.4654
 1650TIP3   OH226508   1.279   1.206   0.967  0.0846  0.5320 -0.1755
 1650TIP3    H126509   1.194   1.198   0.923 -0.5301 -0.1641  1.0844
 1650TIP3    H226510   1.298   1.300   0.967 -0.9335  0.7453 -0.0176
 1651TIP3   OH226511   5.047   5.022   1.686 -0.2521 -0.1197 -0.5683
 1651TIP3    H126512   4.990   4.995   1.613 -0.5193 -0.1971 -0.3316
 1651TIP3    H226513   5.049   4.946   1.744 -2.7184  1.0041  1.1787
 1652TIP3   OH226514   6.212   1.393   2.244  0.4009  0.5670 -0.0302
 1652TIP3    H126515   6.121   1.422   2.248  0.1830  0.3353 -1.9945
 1652TIP3    H226516   6.263   1.474   2.235  0.1300  0.6076 -1.5204
 1653TIP3   OH226517   6.700   0.096   1.186  0.2885 -0.4870  0.1142
 1653TIP3    H126518   6.634   0.156   1.153  0.4158  0.0616  0.8393
 1653TIP3    H226519   6.713   0.122   1.277  0.8317 -1.1825  0.2444
 1654TIP3   OH226520   4.421   5.077   1.079  0.6203  0.2501  0.0048
 1654TIP3    H126521   4.392   5.022   1.005 -2.9772  2.0875 -0.1642
 1654TIP3    H226522   4.487   5.135   1.041 -0.7249  0.7518 -1.7035
 1655TIP3   OH226523   5.547   2.288   0.755 -0.1888 -0.1539 -0.3098
 1655TIP3    H126524   5.565   2.302   0.662 -3.1616 -0.8470 -1.1038
 1655TIP3    H226525   5.522   2.196   0.761 -2.7266  0.5160  0.6014
 1656TIP3   OH226526   5.868   1.248   1.073  0.0674 -0.0598  0.1321
 1656TIP3    H126527   5.804   1.319   1.084 -1.3047 -1.1762 -0.2943
 1656TIP3    H226528   5.927   1.280   1.004 -0.2252  0.8682  0.2966
 1657TIP3   OH226529   2.507   0.908   1.271 -0.2303 -0.2997  0.0244
 1657TIP3    H126530   2.520   0.916   1.177  1.6686 -0.6129  0.2316
 1657TIP3    H226531   2.466   0.822   1.282 -1.1000  0.0274 -0.5424
 1658TIP3   OH226532   4.097   5.496   4.126  0.0569  0.1227 -0.2433
 1658TIP3    H126533   4.139   5.413   4.151  1.9018  0.6271 -1.5098
 1658TIP3    H226534   4.006   5.472   4.108  0.1563 -1.3196  1.0001
 1659TIP3   OH226535   1.965   2.890   3.100 -0.1916  0.6724  0.2324
 1659TIP3    H126536   1.893   2.827   3.093  0.2582  0.2925 -1.1089
 1659TIP3    H226537   2.003   2.893   3.013  0.0281  2.5451  0.3613
 1660TIP3   OH226538   2.860   4.147   0.768  0.0206  0.1347 -0.1358
 1660TIP3    H126539   2.916   4.137   0.691 -0.0013 -0.8153 -0.0371
 1660TIP3    H226540   2.775   4.174   0.734  0.1470  0.1949 -0.4027
 1661TIP3   OH226541   6.318   4.156   3.804 -0.5029  0.0999 -0.0290
 1661TIP3    H126542   6.363   4.230   3.845 -0.8422 -0.4133  1.3203
 1661TIP3    H226543   6.318   4.176   3.710  1.9137  0.4628 -0.0110
 1662TIP3   OH226544   2.481   5.612   8.463  0.4013 -0.3813  0.2240
 1662TIP3    H126545   2.388   5.617   8.486  0.6797 -1.4350  1.7418
 1662TIP3    H226546   2.519   5.553   8.529  2.0241 -0.5001 -0.7643
 1663TIP3   OH226547   0.430   0.253   3.191 -0.2670  0.1869 -0.0847
 1663TIP3    H126548   0.412   0.220   3.279  2.8920 -1.0612  0.2179
 1663TIP3    H226549   0.457   0.344   3.204  2.4524 -0.6320  0.6581
 1664TIP3   OH226550   3.697   4.762   2.045  0.3752  0.6702  0.1764
 1664TIP3    H126551   3.624   4.729   2.098  0.7044 -1.6113 -0.6869
 1664TIP3    H226552   3.775   4.736   2.094  0.6764 -1.2937 -1.2128
 1665TIP3   OH226553   1.291   1.714   1.069 -0.1037  0.0368 -0.1755
 1665TIP3    H126554   1.353   1.787   1.062 -0.6983  0.6203  0.5530
 1665TIP3    H226555   1.205   1.754   1.053 -0.1853 -1.1057 -3.2767
 1666TIP3   OH226556   0.417   6.262   2.655 -0.7401 -0.1134 -0.3794
 1666TIP3    H126557   0.368   6.262   2.738  1.5952  0.4345  1.1142
 1666TIP3    H226558   0.435   6.169   2.638  1.8465 -0.1251  1.7983
 1667TIP3   OH226559   5.747   4.896   2.995  0.1441 -0.1338 -0.0277
 1667TIP3    H126560   5.842   4.896   3.003  0.2187 -2.3551 -0.3584
 1667TIP3    H226561   5.728   4.834   2.925 -1.5441  0.5634 -0.2508
 1668TIP3   OH226562   0.691   2.022   3.062 -0.0736 -0.2337 -0.0741
 1668TIP3    H126563   0.658   2.019   2.972 -2.0131  1.4720  0.5083
 1668TIP3    H226564   0.684   2.114   3.087  0.3397 -0.6976  1.8672
 1669TIP3   OH226565   4.024   6.079   2.110 -0.8820  0.8978 -0.0075
 1669TIP3    H126566   4.089   6.025   2.065 -0.6835  0.4235  0.8251
 1669TIP3    H226567   4.054   6.169   2.097 -0.9962  0.7918 -1.0700
 1670TIP3   OH226568   4.696   3.909   4.572 -0.7863  0.3577 -0.3099
 1670TIP3    H126569   4.722   3.923   4.481 -0.0515  0.3981 -0.0977
 1670TIP3    H226570   4.710   3.816   4.588  0.7743  0.6562  0.2662
 1671TIP3   OH226571   4.744   3.633   1.584 -0.3602  0.0522  0.2348
 1671TIP3    H126572   4.688   3.559   1.561 -0.2551  0.4558 -1.4779
 1671TIP3    H226573   4.809   3.596   1.643 -0.8949 -1.0027  0.1861
 1672TIP3   OH226574   4.297   5.857   1.059  0.3272  0.1548 -0.1516
 1672TIP3    H126575   4.236   5.872   0.987 -0.4498  1.1679  0.6738
 1672TIP3    H226576   4.275   5.926   1.123  1.3198 -0.4076  0.8222
 1673TIP3   OH226577   5.079   0.905   1.137  0.3031 -0.1904 -0.5775
 1673TIP3    H126578   5.117   0.992   1.150  1.4219 -0.5148 -1.5031
 1673TIP3    H226579   5.075   0.867   1.224  1.5537  0.0990 -0.3803
 1674TIP3   OH226580   6.197   5.344   1.828  0.3194 -0.4188  0.3623
 1674TIP3    H126581   6.144   5.288   1.885 -0.0046 -0.8474 -0.3401
 1674TIP3    H226582   6.267   5.376   1.884 -0.1085 -0.6668  1.0490
 1675TIP3   OH226583   0.174   3.278   3.384  0.2329  0.4376  0.3054
 1675TIP3    H126584   0.118   3.203   3.404 -2.7791  1.9980 -1.6456
 1675TIP3    H226585   0.221   3.253   3.305  1.5806 -0.4580  1.3419
 1676TIP3   OH226586   1.615   1.354   3.524  0.1225 -0.4316 -0.1853
 1676TIP3    H126587   1.690   1.371   3.582  0.2901  0.0059 -0.5215
 1676TIP3    H226588   1.650   1.368   3.436 -0.8143  1.7034 -0.2838
 1677TIP3   OH226589   5.758   0.460   4.929  0.0787 -0.2390 -0.1058
 1677TIP3    H126590   5.710   0.481   4.848  0.5938 -0.9462 -0.6063
 1677TIP3    H226591   5.831   0.522   4.930  0.0626 -0.2189 -0.1719
 1678TIP3   OH226592   0.187   6.760   2.173  0.4196 -0.3948 -0.0059
 1678TIP3    H126593   0.102   6.744   2.132  0.6955 -0.2956 -0.6271
 1678TIP3    H226594   0.251   6.737   2.106  0.9131 -1.4480  0.8122
 1679TIP3   OH226595   4.397   6.098   2.285  0.0272 -0.4459  0.0714
 1679TIP3    H126596   4.353   6.052   2.356 -0.0677 -3.6563 -1.9118
 1679TIP3    H226597   4.482   6.123   2.322 -0.2496 -1.4803  1.4824
 1680TIP3   OH226598   2.569   4.225   8.450  0.0321  0.2636  0.7864
 1680TIP3    H126599   2.593   4.316   8.471  1.3931 -0.0114  0.5425
 1680TIP3    H226600   2.474   4.222   8.462 -0.8505  2.9114 -3.5604
 1681TIP3   OH226601   6.669   2.318   1.733  0.3765  0.2806 -0.6450
 1681TIP3    H126602   6.757   2.353   1.742  0.2003  0.8676 -1.1034
 1681TIP3    H226603   6.648   2.281   1.819  1.1178  0.0058 -0.5751
 1682TIP3   OH226604   5.962   3.190   3.022 -0.2687  0.1908  0.2997
 1682TIP3    H126605   5.938   3.134   3.096 -1.3420 -2.2940 -1.7788
 1682TIP3    H226606   6.052   3.166   3.002 -0.1088  0.5815  0.5348
 1683TIP3   OH226607   4.299   0.436   3.414  0.1271  0.2495  0.3782
 1683TIP3    H126608   4.350   0.498   3.362 -0.1755 -0.9546 -1.4643
 1683TIP3    H226609   4.208   0.465   3.404  0.1976  0.8911  1.5137
 1684TIP3   OH226610   4.683   5.685   4.564  0.2218 -0.0141  0.1102
 1684TIP3    H126611   4.667   5.686   4.658 -0.2207 -1.7465  0.0840
 1684TIP3    H226612   4.621   5.748   4.528 -1.3947 -1.1553  0.7630
 1685TIP3   OH226613   3.041   6.572   4.724  0.4608  1.0262  0.0791
 1685TIP3    H126614   2.994   6.490   4.739  0.8220  0.4517 -1.6983
 1685TIP3    H226615   3.037   6.618   4.808 -1.1182 -0.1018  0.6599
 1686TIP3   OH226616   2.006   3.636   0.783  0.8362 -0.1906 -0.2940
 1686TIP3    H126617   1.946   3.582   0.733  1.0290  0.4733 -1.2708
 1686TIP3    H226618   2.045   3.695   0.718  0.3356  1.3982  0.7848
 1687TIP3   OH226619   4.130   3.046   1.083  0.4289  0.2407  0.3142
 1687TIP3    H126620   4.088   3.034   0.998  1.6701 -1.2011 -0.1352
 1687TIP3    H226621   4.122   3.140   1.101  0.9270  0.7460 -1.8323
 1688TIP3   OH226622   4.760   2.501   4.166 -0.4806 -0.1523  0.0125
 1688TIP3    H126623   4.841   2.496   4.216 -0.9199  0.1493  0.7759
 1688TIP3    H226624   4.701   2.552   4.222 -0.6393  1.1297 -1.2742
 1689TIP3   OH226625   2.157   6.499   0.208  0.5443  0.0737 -0.3913
 1689TIP3    H126626   2.103   6.576   0.227  1.0747  0.2198  0.6424
 1689TIP3    H226627   2.101   6.441   0.158 -1.1811 -0.5135  2.0384
 1690TIP3   OH226628   4.455   4.409   2.126 -0.0352  0.0037  0.1217
 1690TIP3    H126629   4.450   4.491   2.174  0.9127 -0.6442  1.3826
 1690TIP3    H226630   4.374   4.363   2.148  0.6494 -0.5339  1.6019
 1691TIP3   OH226631   5.405   1.439   2.129 -0.0953 -0.3082  0.2072
 1691TIP3    H126632   5.322   1.410   2.092 -0.0453 -1.4780  0.9535
 1691TIP3    H226633   5.387   1.447   2.223  0.4401  0.1598  0.2724
 1692TIP3   OH226634   6.250   0.080   1.719 -0.0823 -0.6500 -0.3458
 1692TIP3    H126635   6.170   0.106   1.672  0.1223  0.0005 -0.3429
 1692TIP3    H226636   6.239  -0.014   1.734 -1.7326 -0.2495  1.3426
 1693TIP3   OH226637   2.195   3.898   4.394 -0.0621  0.4598  0.0466
 1693TIP3    H126638   2.265   3.845   4.433 -0.2189 -0.3776 -0.7520
 1693TIP3    H226639   2.230   3.925   4.309  0.3290  2.3677  0.7797
 1694TIP3   OH226640   0.345   2.237   1.988  0.2558 -0.4411 -0.3659
 1694TIP3    H126641   0.407   2.165   1.974  0.4613 -0.3696  0.1585
 1694TIP3    H226642   0.297   2.213   2.067 -1.0616 -0.9563 -1.2831
 1695TIP3   OH226643   1.243   4.147   2.500 -0.6626 -1.0294  0.3072
 1695TIP3    H126644   1.317   4.141   2.560 -0.2984 -0.8635 -0.1190
 1695TIP3    H226645   1.210   4.058   2.492 -3.2803 -0.6182  3.8986
 1696TIP3   OH226646   5.499   2.199   0.249 -0.4537  0.6335  0.0506
 1696TIP3    H126647   5.488   2.182   0.155 -1.3291  0.1318  0.2350
 1696TIP3    H226648   5.419   2.166   0.289  1.1489 -2.0580  1.3492
 1697TIP3   OH226649   1.978   1.157   2.198  0.4240  0.3703  0.5692
 1697TIP3    H126650   1.939   1.078   2.236 -2.0772  0.4820 -1.4229
 1697TIP3    H226651   1.999   1.132   2.108  1.8591  1.3427  0.6077
 1698TIP3   OH226652   5.659   2.378   2.104 -0.1691 -0.1807 -0.1439
 1698TIP3    H126653   5.645   2.446   2.038 -0.1970  0.3284  0.3897
 1698TIP3    H226654   5.653   2.423   2.188 -1.9900 -1.1401  0.3005
 1699TIP3   OH226655   0.691   6.057   1.517  0.1656 -0.3635  0.0668
 1699TIP3    H126656   0.634   6.016   1.582  1.7334  0.6744  2.2247
 1699TIP3    H226657   0.724   5.983   1.465 -1.4898 -1.1727  0.0824
 1700TIP3   OH226658   0.157   1.306   3.158 -0.6859  0.2465  0.2408
 1700TIP3    H126659   0.224   1.364   3.124  0.3116 -1.2670 -0.4755
 1700TIP3    H226660   0.165   1.312   3.253  0.4613  0.1108  0.1614
 1701TIP3   OH226661   6.725   4.742   0.604  0.8933 -0.1911 -0.3161
 1701TIP3    H126662   6.733   4.825   0.558  0.7406  1.9810  3.2347
 1701TIP3    H226663   6.630   4.730   0.614  0.9107 -0.9126 -0.8969
 1702TIP3   OH226664   1.645   5.755   1.710  0.0850 -1.0231  0.1489
 1702TIP3    H126665   1.563   5.763   1.758  0.6096  0.1002  0.9016
 1702TIP3    H226666   1.627   5.792   1.624 -0.2115 -0.8369  0.2925
 1703TIP3   OH226667   2.938   2.206   4.769 -0.1995 -0.2362 -0.5657
 1703TIP3    H126668   2.866   2.173   4.823  0.3954 -0.3687  0.1646
 1703TIP3    H226669   3.017   2.187   4.820  0.5419 -1.8412 -2.1716
 1704TIP3   OH226670   0.496   4.683   3.074  0.7167  0.2043  0.0369
 1704TIP3    H126671   0.561   4.678   3.144  2.3644  0.7778 -1.3799
 1704TIP3    H226672   0.420   4.635   3.108  1.8858 -0.5303  1.7393
 1705TIP3   OH226673   2.720   3.699   4.040  0.0025 -0.0481  0.5168
 1705TIP3    H126674   2.786   3.749   3.991  1.1357  1.6719  3.5622
 1705TIP3    H226675   2.650   3.762   4.058  0.0854 -0.3250  1.9341
 1706TIP3   OH226676   0.414   6.477   0.610 -0.3795 -0.1122 -0.0418
 1706TIP3    H126677   0.328   6.449   0.579 -1.3477  1.3320  1.1539
 1706TIP3    H226678   0.411   6.460   0.704  0.0738  1.2695  0.2369
 1707TIP3   OH226679   2.702   1.203   1.898 -0.2777 -0.1050 -0.4751
 1707TIP3    H126680   2.741   1.284   1.930 -1.4342  0.7374 -1.0977
 1707TIP3    H226681   2.610   1.209   1.925 -1.6323  1.1852 -4.6779
 1708TIP3   OH226682   4.792   1.861   2.492  0.4351 -0.2771 -0.4024
 1708TIP3    H126683   4.785   1.823   2.579 -0.1836 -0.9010 -0.7168
 1708TIP3    H226684   4.856   1.932   2.502  0.1422 -0.1369  0.6245
 1709TIP3   OH226685   6.132   0.179   3.114  0.6275  0.3530  0.4820
 1709TIP3    H126686   6.127   0.274   3.107  0.2288  0.3174  0.2596
 1709TIP3    H226687   6.188   0.164   3.191  3.7926  0.7547 -1.5442
 1710TIP3   OH226688   2.144   0.168   3.524  0.0119 -0.3775  0.2242
 1710TIP3    H126689   2.166   0.094   3.580  1.4156  0.8745  1.4070
 1710TIP3    H226690   2.227   0.194   3.485 -0.8397 -0.8242 -2.0117
 1711TIP3   OH226691   1.929   2.707   0.377  0.3497 -0.6126 -0.1983
 1711TIP3    H126692   1.996   2.762   0.336  0.5681 -0.9526 -0.3075
 1711TIP3    H226693   1.866   2.768   0.414  0.5566 -0.2921 -0.3752
 1712TIP3   OH226694   5.783   1.591   0.161  0.6382 -0.6046 -0.2145
 1712TIP3    H126695   5.726   1.519   0.133  2.3679 -1.4051 -1.9383
 1712TIP3    H226696   5.866   1.575   0.115  1.9845  0.9948  1.4934
 1713TIP3   OH226697   2.556   5.391   8.633  0.0941  0.3183 -0.1749
 1713TIP3    H126698   2.500   5.313   8.628 -0.1875  0.5050  0.0374
 1713TIP3    H226699   2.642   5.360   8.606  0.2451 -0.3357  0.9686
 1714TIP3   OH226700   5.482   5.140   2.024 -0.2414 -0.0003 -0.0148
 1714TIP3    H126701   5.532   5.196   1.964  0.5280 -2.4469 -1.7928
 1714TIP3    H226702   5.390   5.163   2.008  0.0882  1.9982  0.6664
 1715TIP3   OH226703   6.347   5.812   1.269  0.5545 -0.0917 -0.3437
 1715TIP3    H126704   6.338   5.767   1.353  0.0454  2.5921  1.1565
 1715TIP3    H226705   6.258   5.839   1.246  0.9207  0.8722 -0.7139
 1716TIP3   OH226706   3.152   5.426   3.510  0.1095  0.2996  0.3320
 1716TIP3    H126707   3.078   5.471   3.551 -2.1301 -1.5706 -1.3069
 1716TIP3    H226708   3.113   5.382   3.434  2.9700 -0.7477 -0.6596
 1717TIP3   OH226709   0.776   2.765   0.995 -0.3549 -0.4686  0.4505
 1717TIP3    H126710   0.847   2.797   0.939  0.3079 -2.0604  0.3153
 1717TIP3    H226711   0.697   2.806   0.960  0.1417 -0.8707 -1.2369
 1718TIP3   OH226712   1.763   0.901   3.219  0.5107  0.0522  0.2394
 1718TIP3    H126713   1.809   0.927   3.139 -0.8044  0.3426 -0.4419
 1718TIP3    H226714   1.707   0.828   3.191  1.8012 -1.4922  1.4387
 1719TIP3   OH226715   1.244   4.914   2.525 -0.3758  0.3240 -0.2614
 1719TIP3    H126716   1.338   4.896   2.512 -0.2857  0.2298  0.4771
 1719TIP3    H226717   1.200   4.840   2.485 -0.0999 -0.1112  0.2278
 1720TIP3   OH226718   5.374   3.719   3.207  0.3669 -0.1221  0.4988
 1720TIP3    H126719   5.357   3.761   3.292 -1.8797  0.7013 -0.2830
 1720TIP3    H226720   5.290   3.681   3.181  1.5378 -2.2870 -0.3936
 1721TIP3   OH226721   5.201   6.724   2.745 -0.6772  0.1128 -0.1448
 1721TIP3    H126722   5.206   6.804   2.797  0.2567  0.6516 -1.0486
 1721TIP3    H226723   5.161   6.660   2.805  1.7314  0.2779  1.7919
 1722TIP3   OH226724   1.483   3.019   0.415 -0.1638 -0.3351 -0.0115
 1722TIP3    H126725   1.432   3.042   0.337  1.6809  0.6134 -0.9893
 1722TIP3    H226726   1.566   3.066   0.404  0.4531 -0.8438  2.1340
 1723TIP3   OH226727   1.337   5.558   1.793 -0.0289  0.2153  0.1389
 1723TIP3    H126728   1.354   5.583   1.702 -2.7955  0.8210 -0.2763
 1723TIP3    H226729   1.273   5.622   1.824  1.7447  0.7948  2.9794
 1724TIP3   OH226730   0.201   4.827   2.184 -0.2520 -0.5032 -0.2456
 1724TIP3    H126731   0.285   4.813   2.228  0.0426 -0.0137 -0.6435
 1724TIP3    H226732   0.137   4.780   2.238 -0.3982  2.3972  2.3517
 1725TIP3   OH226733   6.083   5.027   1.066  0.0516  0.1220  0.5650
 1725TIP3    H126734   6.029   5.021   0.988  0.5297  0.5363  0.2049
 1725TIP3    H226735   6.117   4.938   1.078 -0.9996 -0.2371  1.0122
 1726TIP3   OH226736   6.089   4.520   0.399  0.0280  0.3824  0.4388
 1726TIP3    H126737   6.124   4.605   0.422  0.5205 -0.1896  1.9478
 1726TIP3    H226738   6.000   4.538   0.367  0.1151  1.4508  0.7687
 1727TIP3   OH226739   4.034   1.000   1.535 -0.1431 -0.5605 -0.0685
 1727TIP3    H126740   3.972   1.001   1.608 -0.6317  2.0813 -0.4018
 1727TIP3    H226741   3.978   0.995   1.457  0.0917  0.6193 -0.3341
 1728TIP3   OH226742   1.756   0.870   1.442  0.5499 -0.0803  0.5096
 1728TIP3    H126743   1.755   0.818   1.361  1.0552  0.6102  0.0481
 1728TIP3    H226744   1.828   0.833   1.493  1.1465  0.4015  0.0231
 1729TIP3   OH226745   0.995   2.448   2.649 -0.1737  0.4793 -0.5077
 1729TIP3    H126746   0.934   2.522   2.652  0.3221  0.8859  1.9115
 1729TIP3    H226747   1.081   2.489   2.646  0.1464  0.1237  1.6763
 1730TIP3   OH226748   3.939   1.698   2.353  0.1765 -0.0322  0.1806
 1730TIP3    H126749   3.979   1.658   2.276  0.6987  1.3666 -0.2917
 1730TIP3    H226750   3.954   1.634   2.424  2.2511 -0.0418 -0.2220
 1731TIP3   OH226751   2.185   1.095   1.228 -0.5621 -0.6166 -0.2802
 1731TIP3    H126752   2.216   1.055   1.146  0.8253  0.0662 -0.1161
 1731TIP3    H226753   2.198   1.027   1.294 -0.9627 -0.9083 -0.5034
 1732TIP3   OH226754   5.635   1.029   3.211  0.1323 -0.1604  0.3556
 1732TIP3    H126755   5.683   1.051   3.290  1.7336 -1.6772 -0.1346
 1732TIP3    H226756   5.543   1.038   3.235  0.5946  0.0525  2.1683
 1733TIP3   OH226757   3.349   3.380   2.615 -0.7463  0.0899  0.2246
 1733TIP3    H126758   3.400   3.402   2.537 -0.6417  1.2865  0.6166
 1733TIP3    H226759   3.288   3.313   2.586 -1.6097  1.4518 -1.2125
 1734TIP3   OH226760   2.425   3.104   4.081 -0.4745  0.2188 -0.5157
 1734TIP3    H126761   2.487   3.044   4.039 -1.6292 -1.7076  0.4040
 1734TIP3    H226762   2.361   3.123   4.012 -0.2304  0.2222 -0.7455
 1735TIP3   OH226763   5.846   4.918   0.677  0.9974 -0.4066 -0.2560
 1735TIP3    H126764   5.861   4.983   0.746 -0.4806 -0.2263 -0.0919
 1735TIP3    H226765   5.876   4.961   0.597 -0.6944  0.8120 -0.2750
 1736TIP3   OH226766   4.341   3.007   0.723  0.1923 -0.0872  0.5027
 1736TIP3    H126767   4.307   3.084   0.678 -0.9516 -0.0597  1.3741
 1736TIP3    H226768   4.401   3.042   0.789 -0.7364  0.1063  1.2554
 1737TIP3   OH226769   2.938   2.279   2.385  0.1671  0.3475 -0.1557
 1737TIP3    H126770   2.949   2.324   2.301  1.0860 -0.4735 -0.4959
 1737TIP3    H226771   3.027   2.255   2.411 -0.2305 -0.6071  0.3762
 1738TIP3   OH226772   6.307   4.288   1.002  0.1886  0.1247  0.1026
 1738TIP3    H126773   6.388   4.335   1.023 -0.5993  2.0003 -0.8396
 1738TIP3    H226774   6.262   4.278   1.086  0.6986  0.4061  0.4120
 1739TIP3   OH226775   2.530   2.604   3.203  0.6521  0.3142 -0.7197
 1739TIP3    H126776   2.605   2.632   3.255 -0.3430  1.4677  0.1824
 1739TIP3    H226777   2.544   2.511   3.187  0.3539 -0.5001  2.8970
 1740TIP3   OH226778   3.243   6.790   4.139 -0.0395  0.6828 -0.2540
 1740TIP3    H126779   3.181   6.824   4.204  0.1203  0.3060  0.1014
 1740TIP3    H226780   3.286   6.868   4.104 -2.5376  1.1944 -2.4296
 1741TIP3   OH226781   2.463   2.796   2.565  0.4517  0.5817  0.3722
 1741TIP3    H126782   2.402   2.760   2.501 -0.5234  0.8538  1.1330
 1741TIP3    H226783   2.548   2.791   2.521  0.3096 -2.0976  0.1896
 1742TIP3   OH226784   4.673   6.120   3.401 -0.8528  0.1986 -0.0790
 1742TIP3    H126785   4.696   6.190   3.462  0.5172  0.9333 -1.3749
 1742TIP3    H226786   4.593   6.083   3.437 -0.4903  1.0730  1.7601
 1743TIP3   OH226787   4.972   2.045   0.304  1.0431 -0.3527 -0.1915
 1743TIP3    H126788   4.956   2.065   0.396  2.2446 -0.5987  0.0856
 1743TIP3    H226789   4.931   2.118   0.257 -1.1468 -1.1226  0.4145
 1744TIP3   OH226790   4.978   2.083   2.416 -0.5468 -0.0167 -0.3421
 1744TIP3    H126791   4.977   2.152   2.349 -0.5475 -0.4026 -0.7416
 1744TIP3    H226792   5.042   2.020   2.384 -0.0940  0.0901  0.3243
 1745TIP3   OH226793   2.137   4.053   0.506  0.2852  0.2544  0.5524
 1745TIP3    H126794   2.149   4.131   0.451  1.1150  0.8349  1.5247
 1745TIP3    H226795   2.171   3.982   0.452  2.3163  0.9980  0.7589
 1746TIP3   OH226796   3.673   3.924   1.675  0.0162 -0.1878 -0.3727
 1746TIP3    H126797   3.627   3.895   1.596 -1.9430  1.9545 -0.1038
 1746TIP3    H226798   3.603   3.939   1.739  1.1460  2.0925  0.4291
 1747TIP3   OH226799   6.364   2.938   2.034  0.3561 -0.4358  0.4571
 1747TIP3    H126800   6.311   2.858   2.043  0.6469 -0.7204 -0.2485
 1747TIP3    H226801   6.451   2.912   2.062  0.3692 -0.2689  0.5659
 1748TIP3   OH226802   5.361   6.526   1.516  0.0981  0.3400 -0.4926
 1748TIP3    H126803   5.298   6.483   1.459 -0.9930  0.7674  0.3641
 1748TIP3    H226804   5.310   6.557   1.591  0.9510  2.5193 -0.7307
 1749TIP3   OH226805   5.718   6.403   2.673 -0.2563 -0.4349  0.4386
 1749TIP3    H126806   5.797   6.409   2.619 -0.8321 -0.2058 -0.3937
 1749TIP3    H226807   5.646   6.402   2.611 -0.9440 -0.0774  1.2055
 1750TIP3   OH226808   3.396   2.465   1.871  0.2576  0.3423 -0.4239
 1750TIP3    H126809   3.449   2.516   1.810  0.8907  0.9181  0.5649
 1750TIP3    H226810   3.342   2.409   1.816  1.0759  0.5755 -1.4932
 1751TIP3   OH226811   4.761   3.869   3.561 -0.6251 -0.1740 -0.7707
 1751TIP3    H126812   4.827   3.818   3.606 -0.7759  1.0617  0.9745
 1751TIP3    H226813   4.684   3.813   3.558 -0.1304 -0.8488 -0.9188
 1752TIP3   OH226814   1.637   3.588   0.654 -0.0596 -0.0988 -0.0207
 1752TIP3    H126815   1.696   3.601   0.580  0.0071 -0.1663  0.0215
 1752TIP3    H226816   1.573   3.660   0.646  0.2050  0.1525  0.1063
 1753TIP3   OH226817   5.348   0.330   4.619  0.1345 -0.0774 -0.4138
 1753TIP3    H126818   5.279   0.273   4.651  1.0927 -0.9561  0.1448
 1753TIP3    H226819   5.397   0.277   4.557  0.3286  0.5276 -0.7909
 1754TIP3   OH226820   2.426   0.100   3.761  0.0143 -0.2100  0.2431
 1754TIP3    H126821   2.418   0.182   3.811  0.1986 -0.2162  0.2846
 1754TIP3    H226822   2.405   0.031   3.825  2.3169 -0.3726  0.9273
 1755TIP3   OH226823   6.620   3.491   2.590 -0.6533  0.3512 -0.3630
 1755TIP3    H126824   6.643   3.549   2.517  1.8650 -1.1162 -0.8487
 1755TIP3    H226825   6.682   3.515   2.660 -1.4776  0.1536  0.4559
 1756TIP3   OH226826   0.510   3.417   1.936 -0.3917 -0.1128  0.3576
 1756TIP3    H126827   0.504   3.508   1.963 -0.4120 -0.5242  1.8297
 1756TIP3    H226828   0.599   3.390   1.959 -0.4726 -0.5476  0.1841
 1757TIP3   OH226829   2.111   1.564   1.731  1.0385  0.5117 -0.4279
 1757TIP3    H126830   2.077   1.500   1.793 -0.1594  0.7857 -0.7840
 1757TIP3    H226831   2.205   1.570   1.752  0.8173 -0.0003  0.7964
 1758TIP3   OH226832   1.574   4.385   1.945 -0.5616 -0.0318  0.4557
 1758TIP3    H126833   1.479   4.379   1.937 -0.5559  1.4794 -1.5844
 1758TIP3    H226834   1.588   4.435   2.026 -1.4873 -0.2418  0.7611
 1759TIP3   OH226835   0.647   6.130   0.800 -0.5835  0.3286 -0.3018
 1759TIP3    H126836   0.675   6.172   0.881  3.4603  0.1823 -1.3612
 1759TIP3    H226837   0.646   6.036   0.820 -0.6185  0.3572 -0.1700
 1760TIP3   OH226838   6.178   6.633   3.602  0.1372  0.0983 -0.3959
 1760TIP3    H126839   6.178   6.545   3.641  2.1735 -0.5464 -1.6602
 1760TIP3    H226840   6.194   6.617   3.509  0.5255  1.8068 -0.6449
 1761TIP3   OH226841   5.257   3.969   1.324  0.3104  0.6029 -0.2337
 1761TIP3    H126842   5.269   3.993   1.416  0.1764  0.4086 -0.1634
 1761TIP3    H226843   5.344   3.976   1.286  0.5532 -0.2595  0.1426
 1762TIP3   OH226844   4.674   5.522   1.437 -0.3491  0.3016  0.0559
 1762TIP3    H126845   4.669   5.479   1.351 -1.0218 -1.5496  0.9557
 1762TIP3    H226846   4.616   5.597   1.430  0.1995  0.6385 -1.3332
 1763TIP3   OH226847   3.404   1.581   4.067 -0.1134 -0.4458  0.5051
 1763TIP3    H126848   3.425   1.663   4.112 -0.1654 -1.0391  1.6488
 1763TIP3    H226849   3.469   1.519   4.099 -0.7723 -1.1390  0.5164
 1764TIP3   OH226850   0.178   3.822   2.742  0.8719  0.8589 -0.0932
 1764TIP3    H126851   0.176   3.805   2.647  0.7226 -1.0027  0.1930
 1764TIP3    H226852   0.091   3.856   2.761  0.6632  0.5988 -0.5393
 1765TIP3   OH226853   4.915   1.339   0.571 -0.2445  0.5981 -0.4657
 1765TIP3    H126854   4.990   1.288   0.540 -1.7623 -0.8331 -2.0307
 1765TIP3    H226855   4.929   1.427   0.535  1.0462  0.5722 -0.0662
 1766TIP3   OH226856   1.236   0.776   4.166  0.4214 -0.5777  0.4480
 1766TIP3    H126857   1.222   0.755   4.258  1.6175 -0.0199  0.7765
 1766TIP3    H226858   1.306   0.841   4.167 -0.0378 -0.0376 -0.8179
 1767TIP3   OH226859   0.035   2.717   1.468  0.4341 -0.0008  0.1986
 1767TIP3    H126860  -0.044   2.708   1.414  0.0916 -0.6746  0.7832
 1767TIP3    H226861   0.085   2.638   1.449  1.7096  1.1276 -1.3036
 1768TIP3   OH226862   4.996   5.495   0.352 -0.2099 -0.1620  0.5902
 1768TIP3    H126863   4.932   5.551   0.397 -0.0594 -0.8166  1.6545
 1768TIP3    H226864   4.944   5.447   0.287 -0.7873 -0.5575  1.3218
 1769TIP3   OH226865   5.223   6.070   0.889  0.3774  0.5898  0.0862
 1769TIP3    H126866   5.209   5.993   0.945  0.2037  0.8654  0.4246
 1769TIP3    H226867   5.205   6.038   0.801  3.2191 -0.5633 -0.1894
 1770TIP3   OH226868   0.086   4.585   0.378  0.4503  0.8825  0.2816
 1770TIP3    H126869   0.022   4.630   0.433  0.0483 -0.9123  1.3535
 1770TIP3    H226870   0.100   4.501   0.421  2.1587  0.4948 -0.9416
 1771TIP3   OH226871   6.331   4.307   2.988  0.0592 -0.1742 -0.1188
 1771TIP3    H126872   6.355   4.383   2.935  0.2399  0.6294  1.0752
 1771TIP3    H226873   6.412   4.255   2.993  0.4249  0.4352  0.4782
 1772TIP3   OH226874   1.553   5.611   3.449  0.1400 -0.0327  0.4985
 1772TIP3    H126875   1.567   5.520   3.421 -1.2923  0.0033 -0.4673
 1772TIP3    H226876   1.518   5.655   3.371  1.4750  1.5397  0.7454
 1773TIP3   OH226877   0.777   0.748   1.788  0.7745  0.1637  0.0744
 1773TIP3    H126878   0.777   0.818   1.853  3.5058  2.4259 -2.1276
 1773TIP3    H226879   0.858   0.700   1.804  0.4721 -0.5349 -0.4228
 1774TIP3   OH226880   2.169   2.680   3.127  0.3993  0.5445 -0.2182
 1774TIP3    H126881   2.149   2.774   3.125 -2.6457  0.0575  1.2839
 1774TIP3    H226882   2.202   2.665   3.215 -1.8262 -0.1335  0.5807
 1775TIP3   OH226883   5.157   0.534   4.619  0.1739  0.5656  0.1154
 1775TIP3    H126884   5.126   0.502   4.704 -0.4331  0.5389 -0.1047
 1775TIP3    H226885   5.221   0.470   4.591 -1.4611 -0.8328 -0.5955
 1776TIP3   OH226886   4.181   1.481   2.412  0.3333 -0.0286 -0.2795
 1776TIP3    H126887   4.117   1.520   2.352 -0.3045  0.3515  0.6257
 1776TIP3    H226888   4.207   1.553   2.470  1.9020 -0.0711 -0.8772
 1777TIP3   OH226889   0.273   5.822   1.430 -0.4312  0.0243  0.4627
 1777TIP3    H126890   0.315   5.791   1.510  0.5396  0.7464  0.2423
 1777TIP3    H226891   0.330   5.793   1.360 -0.3669  0.8950  0.1456
 1778TIP3   OH226892   3.965   2.772   3.369 -0.1257  0.4446 -1.0684
 1778TIP3    H126893   4.049   2.744   3.405 -0.1770  2.9984  1.4003
 1778TIP3    H226894   3.984   2.855   3.326 -1.7567  3.2167  2.9432
 1779TIP3   OH226895   1.956   4.024   2.122  0.4255 -0.2565  0.5486
 1779TIP3    H126896   2.018   4.042   2.193  0.8958  1.9473 -0.3576
 1779TIP3    H226897   2.011   3.992   2.050  0.1788 -0.6662  0.5374
 1780TIP3   OH226898   6.713   4.747   1.547 -0.0844 -0.5417 -0.0704
 1780TIP3    H126899   6.809   4.752   1.546 -0.0865 -0.0020  0.9693
 1780TIP3    H226900   6.684   4.838   1.541 -0.4953 -0.5842  1.0496
 1781TIP3   OH226901   4.673   2.223   4.153 -0.9148 -0.7095 -0.4870
 1781TIP3    H126902   4.581   2.207   4.130 -1.6758  0.5106  1.4917
 1781TIP3    H226903   4.677   2.315   4.177  0.9720 -0.6004 -1.0297
 1782TIP3   OH226904   1.822   1.569   2.423 -0.0193  0.6049  0.4357
 1782TIP3    H126905   1.886   1.521   2.370 -2.1989 -0.9929 -0.9206
 1782TIP3    H226906   1.841   1.543   2.513 -0.9476 -2.8056 -0.2155
 1783TIP3   OH226907   1.063   0.168   3.707  0.0655  0.5643  0.4999
 1783TIP3    H126908   1.117   0.215   3.771 -0.3183 -1.3098  2.3084
 1783TIP3    H226909   1.039   0.087   3.752 -0.9454 -0.4465 -1.7463
 1784TIP3   OH226910   1.444   1.399   0.687 -0.2373 -0.8431 -0.5239
 1784TIP3    H126911   1.397   1.476   0.719 -0.3555 -1.1126 -0.0448
 1784TIP3    H226912   1.411   1.387   0.597  0.6211  0.3293 -1.0135
 1785TIP3   OH226913   2.398   5.265   1.404  0.3047  0.0968 -0.0890
 1785TIP3    H126914   2.339   5.208   1.454 -0.8224  1.2035 -0.0958
 1785TIP3    H226915   2.425   5.213   1.329 -0.3676 -0.5706  0.1233
 1786TIP3   OH226916   1.293   6.184   1.737 -0.3198  0.3715 -0.1164
 1786TIP3    H126917   1.324   6.163   1.649  0.5832 -1.1950  0.5318
 1786TIP3    H226918   1.358   6.145   1.796 -1.3463  0.6362  1.2589
 1787TIP3   OH226919   1.240   6.357   4.211  0.5280  0.4266 -0.0050
 1787TIP3    H126920   1.189   6.363   4.292  1.5074 -1.1969  0.7869
 1787TIP3    H226921   1.285   6.442   4.205  2.2133 -0.1660  2.4372
 1788TIP3   OH226922   4.270   5.656   2.543  0.5188  0.2312 -0.0425
 1788TIP3    H126923   4.271   5.606   2.462  2.9666  1.0829 -0.6270
 1788TIP3    H226924   4.177   5.662   2.567 -0.0639 -2.0321 -1.4871
 1789TIP3   OH226925   5.014   6.497   2.096  0.7503  0.5317 -0.1959
 1789TIP3    H126926   5.081   6.495   2.164  1.1590  0.3442 -0.6030
 1789TIP3    H226927   4.990   6.589   2.088 -1.6837  0.2808  2.5203
 1790TIP3   OH226928   3.568   6.373   4.220  0.1223 -0.0829 -0.5727
 1790TIP3    H126929   3.600   6.319   4.292 -0.1253  1.2601  0.5858
 1790TIP3    H226930   3.507   6.316   4.173  0.5357 -1.0917  0.0806
 1791TIP3   OH226931   2.132   6.560   1.203  0.4395  0.0713  0.1299
 1791TIP3    H126932   2.052   6.510   1.219 -0.6779  1.8883  0.5383
 1791TIP3    H226933   2.135   6.570   1.108  0.8938 -1.0720  0.0091
 1792TIP3   OH226934   5.335   3.673   3.666  0.0745  0.0445 -0.4972
 1792TIP3    H126935   5.281   3.711   3.736 -0.9462 -0.1198 -1.1767
 1792TIP3    H226936   5.293   3.702   3.585  0.7603 -0.4586 -1.0421
 1793TIP3   OH226937   0.903   6.594   2.183  0.0861 -0.0765  0.2658
 1793TIP3    H126938   0.953   6.668   2.219  2.1640 -1.0602 -0.3961
 1793TIP3    H226939   0.894   6.533   2.256 -2.2050  1.0183  0.9938
 1794TIP3   OH226940   2.164   4.993   3.009  0.2674  0.2809 -0.5507
 1794TIP3    H126941   2.082   4.957   3.043  0.7751  0.0329  0.4629
 1794TIP3    H226942   2.207   5.031   3.086  1.6820 -0.6978 -0.8088
 1795TIP3   OH226943   3.235   6.007   0.792 -0.2041 -0.0870  0.6317
 1795TIP3    H126944   3.236   5.991   0.697 -0.2862  1.7194  0.2880
 1795TIP3    H226945   3.175   5.942   0.827 -0.6362 -0.4015 -0.6490
 1796TIP3   OH226946   6.047   2.837   3.898  0.1607 -0.0059 -0.5652
 1796TIP3    H126947   5.952   2.846   3.902  0.1830 -0.1188  1.4263
 1796TIP3    H226948   6.080   2.905   3.957  1.1288 -1.6984  0.9751
 1797TIP3   OH226949   2.468   2.406   3.973  0.3086 -0.3378 -0.2078
 1797TIP3    H126950   2.413   2.463   3.919 -3.3095 -1.9368  1.4270
 1797TIP3    H226951   2.461   2.320   3.932  1.5309 -0.6320  0.1558
 1798TIP3   OH226952   5.622   2.283   3.612 -0.1418  0.3319 -0.1440
 1798TIP3    H126953   5.560   2.337   3.563 -0.1556 -1.1974 -1.9428
 1798TIP3    H226954   5.703   2.288   3.561  0.3123 -0.0998  0.5167
 1799TIP3   OH226955   5.513   0.311   1.624  0.3503  0.1292  0.3837
 1799TIP3    H126956   5.520   0.219   1.596  0.0030 -0.1024  1.0387
 1799TIP3    H226957   5.518   0.361   1.543 -1.5077 -0.5638 -0.2039
 1800TIP3   OH226958   5.278   0.068   4.517  0.1930  0.1811  0.3759
 1800TIP3    H126959   5.235   0.093   4.435  0.4564  0.3599  0.2906
 1800TIP3    H226960   5.228  -0.007   4.549 -1.1220  1.2888  1.0474
 1801TIP3   OH226961   6.035   4.553   2.833  0.0582  0.3810 -0.1934
 1801TIP3    H126962   5.944   4.522   2.826 -1.3758  3.7742  1.0502
 1801TIP3    H226963   6.032   4.642   2.800  3.3916  0.0952 -1.6254
 1802TIP3   OH226964   4.195   5.232   0.508  0.5380 -0.1511 -0.3498
 1802TIP3    H126965   4.261   5.181   0.555  1.1781  0.7844 -0.1871
 1802TIP3    H226966   4.187   5.190   0.423  2.7164  0.7368 -1.0791
 1803TIP3   OH226967   2.909   0.135   2.090  0.4201 -0.1637 -0.3585
 1803TIP3    H126968   2.899   0.188   2.169  0.5659 -0.9720  0.2266
 1803TIP3    H226969   3.002   0.137   2.070  0.6260 -1.1784  0.3963
 1804TIP3   OH226970   0.697   1.630   3.800  0.1757 -0.2126 -0.2813
 1804TIP3    H126971   0.763   1.567   3.829  0.4507  0.8995  1.6596
 1804TIP3    H226972   0.613   1.587   3.816  0.2663 -2.1731 -3.9717
 1805TIP3   OH226973   5.442   3.579   2.259  0.2053  0.0996  0.2071
 1805TIP3    H126974   5.534   3.566   2.281  0.2761 -2.1011 -1.0845
 1805TIP3    H226975   5.422   3.509   2.197 -1.2127  2.9778 -2.9099
 1806TIP3   OH226976   2.850   1.297   0.702 -0.5559 -0.4804  0.5811
 1806TIP3    H126977   2.821   1.386   0.722  0.5938  0.0427  0.0040
 1806TIP3    H226978   2.779   1.260   0.650  0.2335  1.1759 -1.8426
 1807TIP3   OH226979   5.612   5.892   4.473  0.0582  0.3783 -0.8066
 1807TIP3    H126980   5.569   5.876   4.390 -0.6105  0.0204 -0.3918
 1807TIP3    H226981   5.632   5.805   4.508 -0.4862  0.5045 -0.1674
 1808TIP3   OH226982   2.737   3.647   0.392 -0.7728  0.2456 -0.1464
 1808TIP3    H126983   2.741   3.735   0.429 -2.1024  0.5630 -0.6851
 1808TIP3    H226984   2.770   3.590   0.461  2.1087  1.3113 -0.4886
 1809TIP3   OH226985   4.049   1.561   2.138  0.0630  0.2852 -0.4987
 1809TIP3    H126986   3.996   1.538   2.062  0.0845 -0.6959 -0.2192
 1809TIP3    H226987   4.129   1.598   2.100 -0.2612  0.5545 -0.9342
 1810TIP3   OH226988   5.737   4.732   1.611  0.1244 -0.1958 -0.2077
 1810TIP3    H126989   5.654   4.687   1.599  0.9804 -1.1737 -3.7134
 1810TIP3    H226990   5.714   4.824   1.622 -1.4418 -0.4573 -1.0699
 1811TIP3   OH226991   1.837   3.790   2.607 -0.2543 -0.1182  0.6514
 1811TIP3    H126992   1.772   3.817   2.542  0.6328  0.2241 -0.1023
 1811TIP3    H226993   1.785   3.747   2.676 -1.2059 -0.5373 -0.2981
 1812TIP3   OH226994   6.582   0.284   5.169  0.5851 -0.0183 -0.0958
 1812TIP3    H126995   6.646   0.300   5.100  0.7603 -0.4412 -0.0368
 1812TIP3    H226996   6.526   0.362   5.170  2.7874  1.7035  1.7314
 1813TIP3   OH226997   6.377   0.966   4.161  0.5295  0.2824 -0.3004
 1813TIP3    H126998   6.443   0.912   4.203 -0.7485 -0.5190  0.7650
 1813TIP3    H226999   6.425   1.042   4.128  2.0014 -0.4170  0.1636
 1814TIP3   OH227000   4.957   4.510   0.466 -0.3525 -0.1264 -0.0717
 1814TIP3    H127001   4.987   4.520   0.556 -1.2424  2.8759 -0.0120
 1814TIP3    H227002   5.029   4.543   0.412 -0.7758  0.4100 -0.3168
 1815TIP3   OH227003   3.568   1.482   0.097 -0.0068 -0.4488  0.0693
 1815TIP3    H127004   3.532   1.546   0.035  1.4969 -0.2516 -0.6398
 1815TIP3    H227005   3.614   1.535   0.162  0.7894 -0.7798 -0.2162
 1816TIP3   OH227006   0.243   4.559   3.734  0.3584  0.1148 -0.2475
 1816TIP3    H127007   0.311   4.575   3.800  0.4814 -0.2724 -0.2790
 1816TIP3    H227008   0.174   4.622   3.755  0.4611  0.0942  0.1631
 1817TIP3   OH227009   6.677   0.079   1.449  0.0444 -0.2352  0.3727
 1817TIP3    H127010   6.688   0.054   1.541 -0.5327 -1.2835  0.1764
 1817TIP3    H227011   6.582   0.090   1.439  0.0235 -0.9641 -0.2979
 1818TIP3   OH227012   0.739   1.471   3.041 -0.1417  0.0944 -0.0402
 1818TIP3    H127013   0.780   1.468   2.955  0.5820 -1.6248  0.3244
 1818TIP3    H227014   0.724   1.564   3.057  0.1288  0.4749 -1.8131
 1819TIP3   OH227015   2.763   0.332   3.748  0.0649 -0.2824  0.2109
 1819TIP3    H127016   2.778   0.242   3.776  0.9483 -0.1845  0.0889
 1819TIP3    H227017   2.806   0.385   3.815  0.3910  0.0087 -0.2190
 1820TIP3   OH227018   0.691   0.851   8.841 -0.1723 -0.0882 -0.2041
 1820TIP3    H127019   0.765   0.851   8.780  0.4962  1.3581  0.5538
 1820TIP3    H227020   0.648   0.767   8.827  2.9000 -2.0158  0.9179
 1821TIP3   OH227021   6.226   3.597   1.115 -0.3432  1.0866 -0.1818
 1821TIP3    H127022   6.285   3.671   1.128  0.9099  0.0439  0.3153
 1821TIP3    H227023   6.269   3.544   1.048 -1.0855  0.6842 -0.3435
 1822TIP3   OH227024   2.375   1.420   3.177 -0.4134  0.6713  0.3709
 1822TIP3    H127025   2.434   1.495   3.176  0.3294  0.1476  1.5267
 1822TIP3    H227026   2.428   1.348   3.143 -1.5170  0.8958 -1.9708
 1823TIP3   OH227027   0.227   0.497   1.738 -0.3915  0.4142  0.1025
 1823TIP3    H127028   0.230   0.498   1.833  1.7692 -0.9911  0.1079
 1823TIP3    H227029   0.269   0.579   1.711 -0.8133  0.7110  0.3351
 1824TIP3   OH227030   6.733   4.480   2.660 -0.4672  0.1283 -0.3771
 1824TIP3    H127031   6.654   4.458   2.710 -0.0702 -1.0538 -0.2213
 1824TIP3    H227032   6.704   4.477   2.568 -0.2400 -2.1255 -0.4279
 1825TIP3   OH227033   1.095   4.132   3.292 -0.0452 -0.1956 -0.1322
 1825TIP3    H127034   1.168   4.116   3.352  1.0655 -0.8014 -1.5870
 1825TIP3    H227035   1.133   4.125   3.205 -1.3904  1.6419 -0.9591
 1826TIP3   OH227036   4.142   0.462   0.631 -0.1771 -0.3298 -0.1222
 1826TIP3    H127037   4.095   0.380   0.647 -0.3804 -0.6624 -2.1746
 1826TIP3    H227038   4.209   0.465   0.699 -0.0343 -2.3071 -0.1239
 1827TIP3   OH227039   0.450   5.597   4.674 -0.3353 -0.5213  0.4787
 1827TIP3    H127040   0.368   5.597   4.724 -0.6526 -0.4723 -0.0332
 1827TIP3    H227041   0.499   5.671   4.709 -1.1135  0.3231 -0.1682
 1828TIP3   OH227042   5.996   6.514   1.679  0.5184  0.2500  0.5328
 1828TIP3    H127043   6.033   6.476   1.599 -0.2765  3.1045 -1.3444
 1828TIP3    H227044   6.069   6.563   1.718  0.7715 -0.7454  1.3742
 1829TIP3   OH227045   3.802   1.249   2.145 -0.3154  0.3854  0.0446
 1829TIP3    H127046   3.793   1.216   2.235 -0.3360 -1.9195 -0.7332
 1829TIP3    H227047   3.893   1.230   2.122 -0.6979 -0.3843 -0.8874
 1830TIP3   OH227048   0.823   3.886   1.356 -0.2309  0.0777 -0.1149
 1830TIP3    H127049   0.873   3.807   1.340 -0.5997 -0.2747  0.4483
 1830TIP3    H227050   0.867   3.929   1.430 -0.4719  0.0105  0.0700
 1831TIP3   OH227051   0.457   0.557   1.303  0.2848 -0.1728 -0.9284
 1831TIP3    H127052   0.392   0.623   1.328  0.6984  1.0637 -2.8716
 1831TIP3    H227053   0.410   0.498   1.243 -0.4468 -2.5362  1.7729
 1832TIP3   OH227054   1.845   2.411   0.969 -0.1231 -0.4260 -0.2751
 1832TIP3    H127055   1.752   2.399   0.950  0.1732 -1.5398 -1.0921
 1832TIP3    H227056   1.847   2.448   1.057 -1.3981  1.1914 -0.8599
 1833TIP3   OH227057   4.254   0.724   1.821  0.2130 -0.1714  0.2441
 1833TIP3    H127058   4.249   0.769   1.905  1.5137 -1.2968  0.9629
 1833TIP3    H227059   4.168   0.683   1.810 -0.7471  1.8117 -0.0850
 1834TIP3   OH227060   5.291   0.270   2.349  0.5161 -0.3809 -0.7386
 1834TIP3    H127061   5.371   0.321   2.367 -0.2020  1.0364 -1.4456
 1834TIP3    H227062   5.305   0.187   2.396  2.7580 -0.5118 -1.5110
 1835TIP3   OH227063   6.666   4.784   0.245 -0.0967  0.6386 -0.1750
 1835TIP3    H127064   6.706   4.729   0.178 -2.7987  0.0504 -1.4640
 1835TIP3    H227065   6.695   4.873   0.225  2.0403  0.0789  0.1805
 1836TIP3   OH227066   3.116   0.351   1.551 -0.0796  0.0807  0.2953
 1836TIP3    H127067   3.064   0.415   1.502  0.1559 -0.3895 -0.5917
 1836TIP3    H227068   3.130   0.279   1.489  0.1655 -0.5622  1.0871
 1837TIP3   OH227069   0.445   1.368   3.059 -0.0946  0.5017 -0.0191
 1837TIP3    H127070   0.522   1.318   3.029 -0.2491  0.1220  0.2071
 1837TIP3    H227071   0.471   1.404   3.143 -0.2254  0.2267  0.1396
 1838TIP3   OH227072   0.276   5.450   1.311  0.1842  0.1648  0.6585
 1838TIP3    H127073   0.255   5.517   1.246 -0.2013  0.4343  1.0591
 1838TIP3    H227074   0.197   5.443   1.364 -0.3037 -1.5912 -0.2231
 1839TIP3   OH227075   1.615   5.519   2.997 -0.0293  0.1627  0.2022
 1839TIP3    H127076   1.583   5.561   3.077  0.4160  0.1188  0.4121
 1839TIP3    H227077   1.582   5.429   3.002 -0.1887  0.2240  0.2290
 1840TIP3   OH227078   5.093   0.330   0.840 -0.0418  0.1280 -0.7829
 1840TIP3    H127079   5.110   0.237   0.824 -1.1111 -0.3418  0.6014
 1840TIP3    H227080   5.034   0.357   0.769 -3.0013 -1.3503  0.9187
 1841TIP3   OH227081   1.675   1.253   1.074  0.7543  0.1996  0.0541
 1841TIP3    H127082   1.766   1.266   1.051  0.4903  0.0674 -1.1207
 1841TIP3    H227083   1.674   1.172   1.125  0.9601 -1.4295 -2.3799
 1842TIP3   OH227084   5.176   6.380   3.451  0.6929  0.6176  0.5976
 1842TIP3    H127085   5.103   6.345   3.400  0.8142  0.1989  0.7010
 1842TIP3    H227086   5.252   6.372   3.393  0.8946 -0.1746  0.9451
 1843TIP3   OH227087   3.878   5.095   0.634  0.1928 -0.2398  0.1998
 1843TIP3    H127088   3.961   5.047   0.637  0.8392  0.7427 -1.0822
 1843TIP3    H227089   3.856   5.101   0.542 -0.8173  0.3481  0.4607
 1844TIP3   OH227090   4.117   2.478   0.355  0.0018 -0.3620 -0.1074
 1844TIP3    H127091   4.093   2.395   0.314 -1.5596 -0.1152  0.2787
 1844TIP3    H227092   4.051   2.493   0.422  0.3917  1.0893 -0.0035
 1845TIP3   OH227093   2.541   0.559   1.633  0.0102  0.6177 -0.6623
 1845TIP3    H127094   2.618   0.603   1.595  0.8711  0.5226  0.8806
 1845TIP3    H227095   2.563   0.550   1.726 -1.8419  0.4773 -0.2094
 1846TIP3   OH227096   0.003   4.836   8.809  0.6973  0.4145  0.0051
 1846TIP3    H127097   0.053   4.769   8.856 -0.3026 -0.6579 -0.4134
 1846TIP3    H227098  -0.006   4.801   8.721 -0.5609  0.7056  0.0044
 1847TIP3   OH227099   2.194   4.940   0.560 -0.6835  0.0505  0.3243
 1847TIP3    H127100   2.242   5.019   0.534  0.9571 -0.3775  1.9256
 1847TIP3    H227101   2.104   4.957   0.530 -0.2524  2.2433  0.0622
 1848TIP3   OH227102   4.157   3.728   2.149  0.0162  0.0883  0.2147
 1848TIP3    H127103   4.240   3.711   2.192 -0.2360  1.3403  1.2852
 1848TIP3    H227104   4.091   3.715   2.218 -0.4898  1.0631 -0.0526
 1849TIP3   OH227105   4.853   2.158   1.360  0.1109 -0.3731 -0.0654
 1849TIP3    H127106   4.793   2.105   1.307  1.7552 -2.3652 -0.0519
 1849TIP3    H227107   4.808   2.168   1.444 -0.1817 -1.9492 -0.0065
 1850TIP3   OH227108   4.179   2.164   1.768 -0.1203 -0.6203  0.2121
 1850TIP3    H127109   4.267   2.194   1.789 -0.4990 -0.0984  1.1424
 1850TIP3    H227110   4.168   2.182   1.675  0.6105 -0.3130  0.1815
 1851TIP3   OH227111   6.596   1.160   4.144 -0.0231 -0.4212  0.1133
 1851TIP3    H127112   6.660   1.089   4.152  0.1933 -0.0104  2.8576
 1851TIP3    H227113   6.649   1.240   4.137 -0.1073 -0.0202  2.9749
 1852TIP3   OH227114   4.543   6.185   1.706  0.1039 -0.2053 -0.0205
 1852TIP3    H127115   4.574   6.261   1.657 -0.4484 -0.0273 -0.0964
 1852TIP3    H227116   4.535   6.116   1.640  3.8923 -1.3876  0.5440
 1853TIP3   OH227117   2.003   5.534   4.154 -0.1523  0.1312 -0.1289
 1853TIP3    H127118   1.921   5.511   4.197  0.0538 -0.3241  0.0264
 1853TIP3    H227119   2.071   5.495   4.209  0.2025  0.9532  0.0434
 1854TIP3   OH227120   5.564   0.496   1.830 -0.3876  0.5831  0.0391
 1854TIP3    H127121   5.553   0.429   1.762  1.5166  0.6502 -0.3893
 1854TIP3    H227122   5.598   0.573   1.783  1.0487  0.5980  1.0309
 1855TIP3   OH227123   0.587   2.958   1.714  0.4547 -0.5203  0.1552
 1855TIP3    H127124   0.655   2.989   1.655  1.5584 -1.8607  0.6744
 1855TIP3    H227125   0.548   3.038   1.750  0.7476  0.2884 -1.2382
 1856TIP3   OH227126   6.584   1.268   1.890  0.4595 -0.1183 -0.1838
 1856TIP3    H127127   6.628   1.306   1.966 -0.1740 -0.2514  0.2510
 1856TIP3    H227128   6.628   1.184   1.877  0.1763 -0.3580  0.3969
 1857TIP3   OH227129   4.086   5.899   2.321  0.1192  0.4310  0.2809
 1857TIP3    H127130   4.161   5.858   2.279 -0.7775  0.2881 -1.2398
 1857TIP3    H227131   4.050   5.958   2.255 -2.6948 -1.4992 -0.1092
 1858TIP3   OH227132   2.369   5.540   1.362 -0.0862 -0.6808 -0.0080
 1858TIP3    H127133   2.388   5.448   1.343 -1.8363 -1.4671  1.6728
 1858TIP3    H227134   2.323   5.571   1.284  1.7960 -0.7595 -1.1971
 1859TIP3   OH227135   6.260   4.556   3.561 -0.6845  0.3447  0.0200
 1859TIP3    H127136   6.264   4.463   3.584  0.4494 -0.1737 -2.0107
 1859TIP3    H227137   6.325   4.597   3.618 -0.9673 -0.1455  0.7185
 1860TIP3   OH227138   2.962   1.740   3.746  0.0124 -0.0215 -0.3905
 1860TIP3    H127139   2.928   1.666   3.797 -0.2895  1.4696  1.7301
 1860TIP3    H227140   3.033   1.775   3.800 -0.8877  2.1649 -0.4987
 1861TIP3   OH227141   2.504   0.428   3.687 -0.1112  0.1116  0.1233
 1861TIP3    H127142   2.494   0.487   3.762 -0.8892  0.9016 -0.5753
 1861TIP3    H227143   2.593   0.395   3.694 -0.1052  0.3302  1.2848
 1862TIP3   OH227144   6.700   6.757   2.416 -0.1529 -0.0835 -0.1473
 1862TIP3    H127145   6.736   6.668   2.416 -1.4656 -0.6703  1.2229
 1862TIP3    H227146   6.765   6.809   2.370  0.2536 -1.9017 -1.7630
 1863TIP3   OH227147   0.824   3.103   2.354 -0.0777  0.1488 -0.0555
 1863TIP3    H127148   0.861   3.124   2.440 -0.3195 -1.8471  0.5797
 1863TIP3    H227149   0.753   3.166   2.343  1.1055  1.6214  0.3559
 1864TIP3   OH227150   2.514   5.075   2.122 -0.0036  0.8689 -0.2487
 1864TIP3    H127151   2.594   5.062   2.172 -0.1914  1.3521  0.1854
 1864TIP3    H227152   2.447   5.027   2.170 -0.3808  2.1107  0.5043
 1865TIP3   OH227153   0.657   6.182   1.142  0.0744 -0.5523 -0.2030
 1865TIP3    H127154   0.719   6.209   1.209  1.9097 -2.3489 -1.0875
 1865TIP3    H227155   0.572   6.186   1.185  1.2371 -2.1531  2.4263
 1866TIP3   OH227156   6.194   0.749   1.563 -0.4855 -0.1856 -0.0140
 1866TIP3    H127157   6.268   0.753   1.624  1.7445 -1.2037 -2.4754
 1866TIP3    H227158   6.209   0.821   1.502 -1.0944 -0.8595 -0.9809
 1867TIP3   OH227159   1.041   0.706   8.838  0.2888 -0.0991  0.1802
 1867TIP3    H127160   1.094   0.630   8.861  0.2270 -0.6542 -1.4131
 1867TIP3    H227161   1.085   0.744   8.762 -0.5780  0.4960 -0.0366
 1868TIP3   OH227162   5.509   1.779   0.021 -0.1783 -0.2059 -0.2518
 1868TIP3    H127163   5.427   1.775   0.069 -0.6792 -0.3083 -1.1015
 1868TIP3    H227164   5.484   1.769  -0.070  0.8719 -1.2987 -0.4488
 1869TIP3   OH227165   0.595   6.445   2.844  0.6948  0.0778 -0.0267
 1869TIP3    H127166   0.569   6.479   2.758  0.0523 -0.8454 -0.1997
 1869TIP3    H227167   0.675   6.395   2.826  1.1730  0.7755  0.0988
 1870TIP3   OH227168   1.565   0.320   1.037  0.2816  0.4047  0.4288
 1870TIP3    H127169   1.555   0.398   1.091 -1.6604  0.6733 -0.2117
 1870TIP3    H227170   1.611   0.257   1.093  1.0939  1.6981  1.2565
 1871TIP3   OH227171   4.918   5.262   3.732  0.0513  0.9559  0.4249
 1871TIP3    H127172   4.946   5.177   3.767  0.0700  0.2540 -1.1939
 1871TIP3    H227173   4.994   5.318   3.744  1.0439 -0.0276 -0.9198
 1872TIP3   OH227174   1.861   3.987   2.895 -0.3796 -0.1534  0.3102
 1872TIP3    H127175   1.911   4.032   2.827 -0.5273  0.3327  0.5160
 1872TIP3    H227176   1.903   3.902   2.905 -1.4251 -0.9522 -1.6402
 1873TIP3   OH227177   1.331   3.141   2.905 -1.0700  0.8597  0.0228
 1873TIP3    H127178   1.271   3.071   2.929 -2.7174  0.9940 -3.1457
 1873TIP3    H227179   1.284   3.222   2.927 -0.7329  0.9793  0.3163
 1874TIP3   OH227180   4.403   1.102   2.861 -0.4429  0.4480  0.1433
 1874TIP3    H127181   4.492   1.091   2.826 -1.3967  0.4860 -2.4987
 1874TIP3    H227182   4.380   1.014   2.893  1.0295  0.7639  2.3443
 1875TIP3   OH227183   0.731   5.740   2.514 -0.7151 -0.1210  0.1680
 1875TIP3    H127184   0.646   5.729   2.472 -1.3284 -0.4897  1.4332
 1875TIP3    H227185   0.712   5.787   2.595  0.6221  1.9059 -0.6124
 1876TIP3   OH227186   2.604   4.368   3.186  0.2731 -0.0776 -0.2508
 1876TIP3    H127187   2.616   4.321   3.103 -0.5117  1.0022 -1.0108
 1876TIP3    H227188   2.660   4.446   3.177  0.1606  0.0596  0.2316
 1877TIP3   OH227189   2.079   3.349   0.247 -0.0256 -0.0283  0.4738
 1877TIP3    H127190   2.062   3.442   0.229 -1.7969 -0.0722  1.6270
 1877TIP3    H227191   2.073   3.307   0.161 -0.2435  0.7852  0.0751
 1878TIP3   OH227192   0.359   0.844   3.193  0.3993  0.4351  0.6339
 1878TIP3    H127193   0.417   0.914   3.163  1.7919 -0.1987  1.6982
 1878TIP3    H227194   0.376   0.838   3.287 -1.1825  0.0071  0.9137
 1879TIP3   OH227195   2.432   3.720   1.605  0.0275 -0.2458 -0.8070
 1879TIP3    H127196   2.358   3.702   1.547  0.2909 -1.9653 -0.6617
 1879TIP3    H227197   2.509   3.713   1.549  0.1619  0.3179 -0.7017
 1880TIP3   OH227198   4.515   4.746   3.829 -0.4841  0.7736  0.3815
 1880TIP3    H127199   4.562   4.692   3.892  0.9795  0.8598 -0.6067
 1880TIP3    H227200   4.433   4.699   3.813 -0.2486  0.0494  1.2716
 1881TIP3   OH227201   2.308   0.395   1.885  0.2718  0.6577  0.2170
 1881TIP3    H127202   2.217   0.417   1.905  0.0213  0.5187 -0.7150
 1881TIP3    H227203   2.346   0.478   1.855  0.1701  0.5057 -0.3477
 1882TIP3   OH227204   1.227   0.600   2.960  0.2773  0.0318 -0.0579
 1882TIP3    H127205   1.194   0.689   2.966 -3.3064 -1.0731 -0.5779
 1882TIP3    H227206   1.243   0.586   2.866  3.9932  0.9720  0.2922
 1883TIP3   OH227207   3.640   4.948   3.391  0.2733  0.1734  0.4826
 1883TIP3    H127208   3.546   4.964   3.389  0.2127 -0.2595 -0.8639
 1883TIP3    H227209   3.674   5.012   3.454 -0.4589  2.8260 -1.6250
 1884TIP3   OH227210   3.592   6.447   0.917 -0.2555  0.0523  0.4889
 1884TIP3    H127211   3.608   6.354   0.936  2.1971  0.5076  1.0973
 1884TIP3    H227212   3.651   6.467   0.844 -0.1423  1.2835  0.8946
 1885TIP3   OH227213   3.024   6.080   2.883  0.3948 -0.4949 -0.6349
 1885TIP3    H127214   2.991   6.091   2.794  3.3039 -2.8097 -2.1693
 1885TIP3    H227215   2.992   5.995   2.911  1.4953 -0.8875 -0.4988
 1886TIP3   OH227216   5.769   6.537   5.367 -0.7442  0.1232 -0.3221
 1886TIP3    H127217   5.849   6.495   5.396  0.3674 -0.0453 -3.3075
 1886TIP3    H227218   5.795   6.627   5.347 -1.7665  0.6089  0.4223
 1887TIP3   OH227219   5.190   3.318   2.584  0.0284 -0.3081 -0.1247
 1887TIP3    H127220   5.240   3.326   2.665 -3.4393  0.6748  2.1015
 1887TIP3    H227221   5.203   3.401   2.539 -1.2699  0.8495  1.5372
 1888TIP3   OH227222   4.190   6.372   5.040  0.6239 -0.0280 -0.0769
 1888TIP3    H127223   4.269   6.318   5.042  0.9839  0.4665  2.1296
 1888TIP3    H227224   4.223   6.461   5.027  0.5088  0.2368  1.3224
 1889TIP3   OH227225   2.423   3.153   0.899  0.3089  0.1995  0.0312
 1889TIP3    H127226   2.349   3.207   0.926  0.8519  2.0418 -1.9046
 1889TIP3    H227227   2.482   3.152   0.974 -0.3643  1.1242  0.5948
 1890TIP3   OH227228   1.852   5.432   3.529  0.1334 -0.0809  0.2259
 1890TIP3    H127229   1.766   5.416   3.491  0.2489  2.0183 -1.0784
 1890TIP3    H227230   1.841   5.413   3.622 -1.8249  0.4284  0.1290
 1891TIP3   OH227231   3.364   5.459   4.438  0.5395  0.0403 -0.3206
 1891TIP3    H127232   3.370   5.555   4.442  0.6254  0.0064  0.6887
 1891TIP3    H227233   3.439   5.429   4.490  0.4430 -0.5771 -0.5310
 1892TIP3   OH227234   1.762   1.593   2.089 -0.0303 -0.4188  0.5120
 1892TIP3    H127235   1.725   1.598   2.177  1.8845 -1.2713  1.4208
 1892TIP3    H227236   1.829   1.661   2.086 -1.6492  1.2541 -1.1893
 1893TIP3   OH227237   3.736   0.675   1.423 -0.1097  0.3054 -0.1113
 1893TIP3    H127238   3.732   0.655   1.330  3.2178 -1.7468  0.0193
 1893TIP3    H227239   3.670   0.618   1.463  0.2854 -0.8341 -1.0149
 1894TIP3   OH227240   0.321   6.460   1.876 -0.0761 -0.7567  0.2392
 1894TIP3    H127241   0.301   6.465   1.783 -1.7293 -0.6592  0.5644
 1894TIP3    H227242   0.416   6.451   1.880  0.2066  0.8711 -1.4071
 1895TIP3   OH227243   5.695   2.097   3.835  0.3176  0.2836 -0.2997
 1895TIP3    H127244   5.622   2.035   3.837  0.1037  0.5251 -0.5549
 1895TIP3    H227245   5.669   2.162   3.770  0.1985  1.0604  0.5104
 1896TIP3   OH227246   4.066   2.561   2.586 -0.7941 -0.2142  0.7363
 1896TIP3    H127247   4.082   2.467   2.591  0.7015  0.0076  0.4760
 1896TIP3    H227248   4.137   2.595   2.531 -1.4950  1.0259  0.5551
 1897TIP3   OH227249   0.648   6.774   4.799 -0.0227 -0.0996 -0.3616
 1897TIP3    H127250   0.619   6.717   4.870  0.2591 -0.2165 -0.3417
 1897TIP3    H227251   0.727   6.816   4.832 -0.2606  0.3516 -0.3523
 1898TIP3   OH227252   1.431   0.985   3.271 -0.6568 -0.7718  0.4092
 1898TIP3    H127253   1.494   1.056   3.259 -0.5950 -0.7294  0.9662
 1898TIP3    H227254   1.422   0.946   3.184  0.7758 -1.3142  0.4767
 1899TIP3   OH227255   5.750   4.616   2.418 -0.5119  0.5459  0.4291
 1899TIP3    H127256   5.736   4.527   2.452 -0.9747  0.7337  0.7381
 1899TIP3    H227257   5.785   4.665   2.493  0.3529  0.4681  0.0843
 1900TIP3   OH227258   2.405   6.500   4.136  0.3953 -0.2146 -0.2279
 1900TIP3    H127259   2.345   6.463   4.072  0.2277 -0.9682  0.3469
 1900TIP3    H227260   2.348   6.543   4.200  0.4400 -1.0386  0.3878
 1901TIP3   OH227261   2.291   5.826   3.907 -0.7910 -0.8472  0.2267
 1901TIP3    H127262   2.331   5.767   3.843 -0.2891 -0.8584  0.5475
 1901TIP3    H227263   2.288   5.775   3.988  1.7240  0.2635  1.1267
 1902TIP3   OH227264   1.816   2.542   1.204  0.0207  0.2236  0.0289
 1902TIP3    H127265   1.766   2.520   1.283  0.1928 -1.6902 -0.3420
 1902TIP3    H227266   1.777   2.623   1.173 -1.9153 -0.4421  0.5645
 1903TIP3   OH227267   0.905   2.816   1.585 -0.4656  0.6554 -0.0021
 1903TIP3    H127268   0.858   2.886   1.541  0.0340  1.1198  0.1905
 1903TIP3    H227269   0.957   2.860   1.652  1.8965  0.4423 -1.5761
 1904TIP3   OH227270   4.411   4.286   3.640 -0.5548 -0.0258 -0.0230
 1904TIP3    H127271   4.325   4.248   3.662 -0.7198 -0.6030 -1.5861
 1904TIP3    H227272   4.451   4.304   3.725 -0.9701 -2.5815  0.7886
 1905TIP3   OH227273   1.461   5.477   2.349  0.1904 -0.2894 -0.0339
 1905TIP3    H127274   1.446   5.398   2.297 -0.9664 -0.1454  0.0444
 1905TIP3    H227275   1.484   5.544   2.284 -0.0628 -0.3998 -0.2413
 1906TIP3   OH227276   5.302   3.567   2.501 -0.6256  0.7189  0.1393
 1906TIP3    H127277   5.351   3.576   2.419 -1.7075  1.6437 -0.4218
 1906TIP3    H227278   5.370   3.553   2.568  0.6599  3.9662 -0.2810
 1907TIP3   OH227279   5.025   5.295   2.254 -0.6322  0.1864 -0.6997
 1907TIP3    H127280   4.935   5.319   2.276 -0.4213  0.1911  0.1900
 1907TIP3    H227281   5.065   5.377   2.224 -0.7167  0.3377 -0.3978
 1908TIP3   OH227282   6.295   5.872   3.052  0.0830 -0.3389  0.3615
 1908TIP3    H127283   6.279   5.948   3.109  1.1876  0.1884 -0.0018
 1908TIP3    H227284   6.375   5.832   3.086  0.2691 -0.5289 -0.2832
 1909TIP3   OH227285   1.810   0.760   4.050 -0.2749 -0.1409 -0.1685
 1909TIP3    H127286   1.872   0.819   4.006  0.7910 -1.3255 -0.3295
 1909TIP3    H227287   1.813   0.785   4.142  1.4224 -0.9364  0.0483
 1910TIP3   OH227288   5.480   4.646   2.995  0.1622  0.0627  0.3605
 1910TIP3    H127289   5.532   4.569   3.018 -0.7150 -0.9321 -0.8419
 1910TIP3    H227290   5.408   4.646   3.058 -0.1745 -0.4939 -0.0049
 1911TIP3   OH227291   1.306   0.144   0.345 -0.1506  0.2619 -0.1885
 1911TIP3    H127292   1.340   0.211   0.285  0.1443 -1.3369 -1.8865
 1911TIP3    H227293   1.314   0.062   0.297 -3.3617 -0.6609  0.6062
 1912TIP3   OH227294   5.356   1.196   0.824  0.1801  0.4561 -0.0465
 1912TIP3    H127295   5.450   1.210   0.820  0.2997  0.2593  1.4857
 1912TIP3    H227296   5.331   1.226   0.912 -0.9811 -0.5917  0.0071
 1913TIP3   OH227297   0.120   6.755   3.614 -0.0895  0.0945 -0.1246
 1913TIP3    H127298   0.064   6.800   3.677 -1.7812  0.5309 -1.8547
 1913TIP3    H227299   0.209   6.770   3.646 -0.8609  0.6071  1.9201
 1914TIP3   OH227300   6.460   1.580   2.830 -0.2718 -0.5216  0.0130
 1914TIP3    H127301   6.522   1.626   2.887  1.2173 -1.4353 -0.7900
 1914TIP3    H227302   6.507   1.571   2.747 -0.7411 -2.9325 -0.0552
 1915TIP3   OH227303   6.795   2.383   2.137  0.1901 -0.3134  0.2780
 1915TIP3    H127304   6.743   2.453   2.098  1.0478 -0.2901 -0.8733
 1915TIP3    H227305   6.746   2.356   2.214 -0.6518  0.8722  0.1706
 1916TIP3   OH227306   0.150   6.518   3.827  0.1064 -0.6178  0.7048
 1916TIP3    H127307   0.163   6.439   3.775  1.3280  0.4675 -0.7477
 1916TIP3    H227308   0.102   6.578   3.769 -2.1870 -0.7671  2.3092
 1917TIP3   OH227309   3.845   5.890   4.497 -0.3901  0.0025 -0.6498
 1917TIP3    H127310   3.837   5.928   4.584  1.3894 -2.9060  0.9612
 1917TIP3    H227311   3.765   5.838   4.487  0.2248 -1.1698  0.1719
 1918TIP3   OH227312   3.175   1.571   3.553 -0.4245  0.4767  0.2759
 1918TIP3    H127313   3.183   1.559   3.647 -1.1065 -1.0689  0.1603
 1918TIP3    H227314   3.209   1.490   3.515  1.3801  1.7180 -0.9030
 1919TIP3   OH227315   2.754   4.244   2.639  0.0399 -0.0727 -0.5403
 1919TIP3    H127316   2.820   4.184   2.604  1.3752 -0.6086  2.5882
 1919TIP3    H227317   2.719   4.289   2.562  0.5915 -3.2122 -2.7893
 1920TIP3   OH227318   4.583   5.130   2.512 -0.4530  0.9226  0.7717
 1920TIP3    H127319   4.522   5.141   2.585 -0.0058  0.9939  1.1404
 1920TIP3    H227320   4.668   5.117   2.554 -0.3014  0.2265  0.2782
 1921TIP3   OH227321   6.284   6.018   3.775 -0.4905  0.1749  0.4221
 1921TIP3    H127322   6.237   5.940   3.745 -1.5691  1.1705 -0.6228
 1921TIP3    H227323   6.346   6.038   3.705 -2.2618  1.8863 -0.7662
 1922TIP3   OH227324   2.766   5.913   3.445  0.0319 -0.4308 -0.5210
 1922TIP3    H127325   2.814   5.987   3.407 -0.2758  0.8643  1.4508
 1922TIP3    H227326   2.794   5.837   3.394  2.7828  0.5474 -0.6352
 1923TIP3   OH227327   5.324   1.746   0.228  0.2712 -0.9273  0.2643
 1923TIP3    H127328   5.282   1.830   0.208 -1.4182 -2.1115 -1.4708
 1923TIP3    H227329   5.274   1.711   0.301  1.6382 -0.0271  1.7011
 1924TIP3   OH227330   3.237   5.872   2.969 -0.2371  0.5479 -0.4715
 1924TIP3    H127331   3.269   5.954   2.931 -0.3293  0.9684  0.3528
 1924TIP3    H227332   3.210   5.895   3.057 -1.0605 -0.2015 -0.5207
 1925TIP3   OH227333   0.153   0.992   3.497  0.6577  0.8187 -0.2170
 1925TIP3    H127334   0.100   1.033   3.429 -0.5340 -1.2219 -0.5896
 1925TIP3    H227335   0.213   0.935   3.449  0.6000  0.2493  0.3737
 1926TIP3   OH227336   0.491   1.054   2.055  0.1734  0.0323  0.8371
 1926TIP3    H127337   0.443   1.129   2.089 -0.9054 -0.7576  1.1105
 1926TIP3    H227338   0.487   0.989   2.125  1.8907  0.0348  0.9699
 1927TIP3   OH227339   5.347   5.607   3.048  0.3067 -0.6629 -0.4209
 1927TIP3    H127340   5.421   5.547   3.049  0.2916 -0.7680 -2.0470
 1927TIP3    H227341   5.385   5.693   3.066  0.4534 -1.0202  1.0590
 1928TIP3   OH227342   6.495   1.426   0.637  0.1112  0.1342  0.3187
 1928TIP3    H127343   6.533   1.365   0.700 -0.0228  1.1529  1.4181
 1928TIP3    H227344   6.473   1.372   0.562 -0.2337 -1.2078  1.3512
 1929TIP3   OH227345   5.759   2.314   0.245  0.7210 -0.6245  0.1297
 1929TIP3    H127346   5.719   2.395   0.211  0.8454 -0.3181  0.6907
 1929TIP3    H227347   5.687   2.251   0.247  0.9952 -1.1023 -2.0081
 1930TIP3   OH227348   5.633   4.062   2.227 -0.0678  0.1685 -0.5896
 1930TIP3    H127349   5.683   4.023   2.156 -0.7384  0.5782 -1.2996
 1930TIP3    H227350   5.542   4.038   2.209 -0.2091 -0.0119  0.3153
 1931TIP3   OH227351   3.692   3.781   8.844 -0.0058 -0.4461 -0.5472
 1931TIP3    H127352   3.727   3.815   8.762  0.6040 -2.0077 -0.9704
 1931TIP3    H227353   3.600   3.763   8.826  0.0285 -0.4088 -0.7565
 1932TIP3   OH227354   2.031   3.764   2.952  0.0916 -0.3585  0.2277
 1932TIP3    H127355   2.070   3.758   3.040 -0.5856  1.7068  0.7197
 1932TIP3    H227356   2.105   3.750   2.893  0.9222 -0.0224  1.1454
 1933TIP3   OH227357   4.218   2.315   3.201 -0.0168 -0.6119 -0.6497
 1933TIP3    H127358   4.308   2.324   3.233  0.4220 -0.5240 -1.8477
 1933TIP3    H227359   4.175   2.258   3.265  1.7419 -3.1604 -1.6023
 1934TIP3   OH227360   4.438   5.272   2.715  0.7116  0.6223  0.0032
 1934TIP3    H127361   4.451   5.246   2.806 -0.2773  3.2419  0.9745
 1934TIP3    H227362   4.414   5.364   2.719  0.7442  0.8624 -2.9455
 1935TIP3   OH227363   3.959   0.131   4.157 -0.4311  0.0128  0.1989
 1935TIP3    H127364   3.900   0.061   4.129 -2.0319  1.8298 -1.2964
 1935TIP3    H227365   4.035   0.125   4.100 -0.7304 -0.2712 -0.1686
 1936TIP3   OH227366   0.461   3.671   2.043 -0.1502 -0.1522 -0.4337
 1936TIP3    H127367   0.391   3.644   2.103  0.4636  0.9874  0.8498
 1936TIP3    H227368   0.454   3.766   2.040  0.3833 -0.1377 -1.5198
 1937TIP3   OH227369   0.793   1.868   1.781  0.1692  0.1908 -0.4741
 1937TIP3    H127370   0.715   1.860   1.835 -1.5335 -0.3354 -2.8353
 1937TIP3    H227371   0.860   1.817   1.827 -1.1617 -0.2083  1.1036
 1938TIP3   OH227372   6.405   5.595   4.617  0.4824 -0.4624  0.1824
 1938TIP3    H127373   6.496   5.565   4.615  0.2373 -1.2687  0.5915
 1938TIP3    H227374   6.410   5.688   4.637  1.1705 -0.7603  1.4664
 1939TIP3   OH227375   5.439   6.482   2.041  0.0848 -0.0618  0.0952
 1939TIP3    H127376   5.400   6.521   1.963  0.1053  0.1306  0.1816
 1939TIP3    H227377   5.534   6.489   2.026  0.1135  1.1258  0.7003
 1940TIP3   OH227378   4.586   4.943   1.716 -0.3387 -0.6345  0.1037
 1940TIP3    H127379   4.565   4.850   1.727 -0.3612 -0.6338  0.0661
 1940TIP3    H227380   4.559   4.984   1.798 -1.3396 -0.4805 -0.2825
 1941TIP3   OH227381   6.655   5.460   4.508  0.0169 -0.5838  0.2197
 1941TIP3    H127382   6.656   5.448   4.413  2.5469 -0.9532  0.2309
 1941TIP3    H227383   6.634   5.373   4.543  0.1440 -0.6992  0.0135
 1942TIP3   OH227384   2.799   4.444   0.295  0.3577 -0.0814 -0.0339
 1942TIP3    H127385   2.714   4.478   0.322  0.1228 -0.2698 -0.5223
 1942TIP3    H227386   2.778   4.379   0.227  0.7936 -1.0990  0.7691
 1943TIP3   OH227387   4.628   0.841   1.394  0.7212 -0.3717 -0.2151
 1943TIP3    H127388   4.693   0.847   1.324  0.1028 -1.9178 -0.9728
 1943TIP3    H227389   4.625   0.748   1.416  0.6733  0.0517  1.6730
 1944TIP3   OH227390   0.496   2.868   2.080  0.1839  0.2787 -0.3482
 1944TIP3    H127391   0.493   2.963   2.070 -0.5187  0.3409  0.3776
 1944TIP3    H227392   0.425   2.837   2.023  1.9057 -0.0168 -2.4924
 1945TIP3   OH227393   2.644   6.068   3.709  0.3789 -0.1576 -0.0811
 1945TIP3    H127394   2.693   6.055   3.791  0.6044 -0.4214 -0.2536
 1945TIP3    H227395   2.711   6.062   3.640  0.2935  0.6802 -0.2552
 1946TIP3   OH227396   3.348   4.607   3.455  0.3881  0.0915  0.1361
 1946TIP3    H127397   3.425   4.552   3.468 -1.0412 -1.5399  2.7984
 1946TIP3    H227398   3.370   4.690   3.498  0.3515 -0.7455  1.8654
 1947TIP3   OH227399   1.232   5.525   4.713 -0.2002  0.8956  0.1980
 1947TIP3    H127400   1.172   5.592   4.746 -1.6200 -0.4312  0.4009
 1947TIP3    H227401   1.177   5.465   4.664  0.7906 -0.8645  1.1208
 1948TIP3   OH227402   4.526   0.275   3.856  0.2642 -0.1083 -0.4614
 1948TIP3    H127403   4.443   0.258   3.810  0.8070 -1.1407 -1.1012
 1948TIP3    H227404   4.593   0.240   3.797  1.0639 -0.4853  0.6471
 1949TIP3   OH227405   4.647   2.571   0.684 -0.2285 -0.0099  0.1490
 1949TIP3    H127406   4.567   2.557   0.735  0.3437  0.7513  1.3051
 1949TIP3    H227407   4.634   2.658   0.645  0.0363  0.1176  0.3460
 1950TIP3   OH227408   6.504   5.683   3.153  0.0554  0.0296  0.3364
 1950TIP3    H127409   6.548   5.614   3.103  0.3494  0.4597 -0.0041
 1950TIP3    H227410   6.484   5.642   3.238  1.1892 -0.1529  0.5288
 1951TIP3   OH227411   4.330   4.538   0.285  1.0464 -0.4266  0.3539
 1951TIP3    H127412   4.238   4.546   0.259  1.1932 -0.1231 -0.0963
 1951TIP3    H227413   4.373   4.503   0.207  1.1443 -1.5780  0.9050
 1952TIP3   OH227414   6.705   3.068   3.163  0.2715 -0.4445  0.8193
 1952TIP3    H127415   6.709   3.151   3.210  3.0006 -0.1066  0.1550
 1952TIP3    H227416   6.631   3.022   3.202 -1.9056  2.5771  0.6266
 1953TIP3   OH227417   0.581   3.284   3.672  0.5075 -0.4446  0.3287
 1953TIP3    H127418   0.627   3.347   3.616  2.1604  0.0627  2.1739
 1953TIP3    H227419   0.524   3.337   3.727 -1.3741 -0.9713 -0.9704
 1954TIP3   OH227420   6.363   0.884   2.598 -0.1370 -0.1076  0.6939
 1954TIP3    H127421   6.448   0.926   2.606 -0.1526 -0.3758  2.6420
 1954TIP3    H227422   6.375   0.797   2.635 -0.8285 -0.8255 -0.6738
 1955TIP3   OH227423   1.463   1.388   2.169  0.1961  0.0891  0.2191
 1955TIP3    H127424   1.426   1.425   2.250 -0.7764 -0.4178  0.0295
 1955TIP3    H227425   1.549   1.356   2.195 -0.4565 -0.9168  1.3224
 1956TIP3   OH227426   4.101   2.267   2.360 -0.1834  0.2829  0.3511
 1956TIP3    H127427   4.026   2.318   2.329 -0.8818 -0.7205  0.3297
 1956TIP3    H227428   4.104   2.284   2.454 -0.7372 -0.0379  0.4313
 1957TIP3   OH227429   4.211   3.487   1.792  0.1664  0.0132 -0.4640
 1957TIP3    H127430   4.253   3.555   1.739 -0.8084  1.5531  0.6743
 1957TIP3    H227431   4.284   3.441   1.834  0.8124  1.5407  0.1520
 1958TIP3   OH227432   2.919   5.636   1.477 -0.2852  0.8824 -0.2139
 1958TIP3    H127433   2.990   5.699   1.490 -1.3872  1.7529  2.1848
 1958TIP3    H227434   2.854   5.684   1.424 -0.2187  1.0054 -0.1841
 1959TIP3   OH227435   3.135   0.158   1.764 -0.2464 -0.4050  0.5899
 1959TIP3    H127436   3.051   0.114   1.757 -0.4861  0.1257  0.0507
 1959TIP3    H227437   3.127   0.235   1.707  1.2885 -1.4206 -1.0931
 1960TIP3   OH227438   5.808   0.674   4.113 -0.1724  0.4186 -0.0065
 1960TIP3    H127439   5.777   0.594   4.071  0.5079 -1.1646  2.3437
 1960TIP3    H227440   5.893   0.691   4.072 -0.6263  0.3633 -1.0065
 1961TIP3   OH227441   0.559   0.804   0.276  0.6225 -0.5630  0.0683
 1961TIP3    H127442   0.464   0.796   0.269  0.7309 -1.4237 -0.5418
 1961TIP3    H227443   0.591   0.790   0.187  1.3887 -1.4812  0.4681
 1962TIP3   OH227444   1.189   4.570   1.648 -0.1242  0.0464  0.2491
 1962TIP3    H127445   1.139   4.489   1.655 -0.5779  0.1377 -1.4632
 1962TIP3    H227446   1.161   4.622   1.724  0.2782 -1.4096  1.4569
 1963TIP3   OH227447   3.790   6.100   1.914  0.3162 -0.2368 -0.3465
 1963TIP3    H127448   3.826   6.017   1.884  1.9052  0.5882 -0.8222
 1963TIP3    H227449   3.793   6.094   2.010  0.1857 -0.8214 -0.3760
 1964TIP3   OH227450   1.837   1.155   3.878 -0.3859 -0.0384  0.1552
 1964TIP3    H127451   1.872   1.068   3.862 -0.2964  0.2788 -1.4730
 1964TIP3    H227452   1.755   1.158   3.830  1.1074  1.7782 -2.5540
 1965TIP3   OH227453   1.337   4.171   1.829  0.8085  0.0172 -0.4167
 1965TIP3    H127454   1.331   4.265   1.845  1.8500  0.1539 -0.7415
 1965TIP3    H227455   1.255   4.135   1.864  0.2928  1.0664 -0.5213
 1966TIP3   OH227456   2.925   1.304   0.410 -0.4839 -0.5033 -0.1529
 1966TIP3    H127457   2.868   1.313   0.486  0.3045 -0.4923  0.4446
 1966TIP3    H227458   2.996   1.247   0.440  0.9820  1.2376 -0.2149
 1967TIP3   OH227459   3.464   2.350   0.977 -0.4971  0.0578 -0.3640
 1967TIP3    H127460   3.542   2.295   0.965  0.6825  1.0691  2.0127
 1967TIP3    H227461   3.416   2.307   1.047  0.0653  1.6019  1.0181
 1968TIP3   OH227462   1.750   2.990   0.247 -0.0283  0.5443 -0.1720
 1968TIP3    H127463   1.743   2.896   0.227 -0.5801  0.5078  0.1807
 1968TIP3    H227464   1.735   3.034   0.163  1.1569  0.2969 -0.5317
 1969TIP3   OH227465   3.647   4.983   1.639  0.1302  0.7059  0.0957
 1969TIP3    H127466   3.720   4.996   1.579 -0.2840  1.9517 -0.1674
 1969TIP3    H227467   3.685   4.991   1.726  0.4832  0.3413 -0.0262
 1970TIP3   OH227468   3.311   2.303   4.247  1.0340 -0.0824  0.0341
 1970TIP3    H127469   3.365   2.265   4.316 -0.1322  0.1433  1.1270
 1970TIP3    H227470   3.289   2.390   4.280 -0.5267 -0.4205 -0.0238
 1971TIP3   OH227471   1.950   6.663   2.393 -0.4093 -0.4280  0.0307
 1971TIP3    H127472   2.029   6.610   2.402  1.2583  1.8221 -0.3643
 1971TIP3    H227473   1.879   6.600   2.384  1.5577 -2.5618 -1.5741
 1972TIP3   OH227474   5.598   2.700   0.939 -0.1308 -0.3387 -0.1022
 1972TIP3    H127475   5.525   2.705   0.877 -1.1266  3.8783  1.1233
 1972TIP3    H227476   5.561   2.659   1.017 -0.6440 -0.0234 -0.1752
 1973TIP3   OH227477   4.862   5.998   2.336  0.1928  0.4849 -0.2373
 1973TIP3    H127478   4.908   5.931   2.386 -0.5987  0.8893  1.0537
 1973TIP3    H227479   4.932   6.048   2.294  0.9044  0.4455  0.8669
 1974TIP3   OH227480   0.371   1.688   1.190 -0.7320 -0.3824 -0.1345
 1974TIP3    H127481   0.393   1.621   1.254 -1.6545 -1.0967 -0.5531
 1974TIP3    H227482   0.276   1.694   1.192 -0.6539  1.4875  0.4610
 1975TIP3   OH227483   2.542   4.499   0.306  0.1408  0.1026  0.3899
 1975TIP3    H127484   2.455   4.535   0.323 -0.2084 -0.9958  0.9938
 1975TIP3    H227485   2.532   4.450   0.225  0.7043  1.5984 -0.6269
 1976TIP3   OH227486   1.197   5.269   4.422  0.1633  0.5986 -0.1577
 1976TIP3    H127487   1.282   5.247   4.458 -0.7458 -2.9190  0.1554
 1976TIP3    H227488   1.139   5.276   4.498 -0.4801 -0.5349 -0.5169
 1977TIP3   OH227489   2.882   2.952   3.129 -0.1921  0.1750 -0.5430
 1977TIP3    H127490   2.869   3.039   3.091  0.0150 -0.1181 -1.2938
 1977TIP3    H227491   2.803   2.904   3.105 -0.3215  0.1634 -0.0962
 1978TIP3   OH227492   3.696   2.828   2.763  0.4228 -0.0583 -0.2438
 1978TIP3    H127493   3.614   2.791   2.797  1.2923 -0.1675  1.9026
 1978TIP3    H227494   3.744   2.752   2.729 -0.4737  0.0524 -1.8244
 1979TIP3   OH227495   5.539   5.920   1.958  0.5359  0.1496  0.0854
 1979TIP3    H127496   5.630   5.910   1.985  0.8162 -0.6000 -1.0712
 1979TIP3    H227497   5.515   6.008   1.986  2.1925  1.0614 -1.1970
 1980TIP3   OH227498   1.406   5.984   3.172  0.2915 -0.5908 -0.8373
 1980TIP3    H127499   1.464   6.042   3.222 -1.8932  1.7895 -0.8540
 1980TIP3    H227500   1.435   5.994   3.081  0.2871  0.0362 -0.7718
 1981TIP3   OH227501   1.801   1.860   1.504 -0.4338  0.3875  0.0139
 1981TIP3    H127502   1.754   1.777   1.495 -0.2161  0.2575  0.0678
 1981TIP3    H227503   1.863   1.844   1.575  1.7442 -0.3820 -1.9504
 1982TIP3   OH227504   5.028   3.652   1.449  0.5002 -0.4286  0.4660
 1982TIP3    H127505   5.050   3.580   1.391  2.6860 -1.8171  2.7885
 1982TIP3    H227506   5.036   3.615   1.537 -1.5344  1.8250  1.7311
 1983TIP3   OH227507   0.281   2.702   8.858 -0.1644 -0.1361  0.0609
 1983TIP3    H127508   0.232   2.678   8.779  0.4836 -1.1119 -0.0538
 1983TIP3    H227509   0.354   2.641   8.862 -0.3230 -0.2826  1.5605
 1984TIP3   OH227510   1.115   0.355   1.855  0.5977  0.1699 -0.2564
 1984TIP3    H127511   1.063   0.278   1.834  0.4770  0.6035 -1.6123
 1984TIP3    H227512   1.051   0.424   1.871  0.6982  0.8734 -2.5817
 1985TIP3   OH227513   3.703   1.475   4.565 -0.0096 -0.3122 -0.6250
 1985TIP3    H127514   3.778   1.472   4.506  1.7685  1.1531  1.3730
 1985TIP3    H227515   3.674   1.566   4.562 -1.8539 -0.8979 -1.4880
 1986TIP3   OH227516   2.431   4.300   4.623 -0.3175  0.0188 -0.0688
 1986TIP3    H127517   2.496   4.257   4.568 -0.8004  0.4445 -0.9945
 1986TIP3    H227518   2.362   4.326   4.563 -1.2762 -0.2698  0.8711
 1987TIP3   OH227519   2.848   2.184   0.564  0.2866  0.9694  0.0457
 1987TIP3    H127520   2.856   2.214   0.654 -1.4122 -1.0722  0.9497
 1987TIP3    H227521   2.936   2.192   0.528  1.4786 -0.0774  2.5228
 1988TIP3   OH227522   0.131   0.286   3.501  0.2873 -0.6020  0.1089
 1988TIP3    H127523   0.131   0.321   3.590 -0.6334 -2.2893  0.8071
 1988TIP3    H227524   0.211   0.233   3.496 -0.3436 -1.6101  0.4156
 1989TIP3   OH227525   1.712   1.838   0.984 -0.5619  0.3029 -0.0684
 1989TIP3    H127526   1.799   1.808   0.958 -0.9893 -1.2771  0.2114
 1989TIP3    H227527   1.662   1.839   0.903 -0.4531  0.6301 -0.1340
 1990TIP3   OH227528   1.989   2.260   1.489  0.7290 -0.2873 -0.1532
 1990TIP3    H127529   1.957   2.344   1.522  0.0364  0.1887 -1.9533
 1990TIP3    H227530   1.993   2.205   1.567 -1.9320  0.4361  0.6160
 1991TIP3   OH227531   4.779   0.524   3.762  0.7938  0.3131 -0.3653
 1991TIP3    H127532   4.863   0.558   3.730  1.3719 -0.3773  0.3883
 1991TIP3    H227533   4.731   0.602   3.790  0.6615  0.8482 -1.9512
 1992TIP3   OH227534   1.668   5.102   4.047  0.3174  0.5363  0.1273
 1992TIP3    H127535   1.623   5.116   3.964 -0.4727 -0.7307  0.3093
 1992TIP3    H227536   1.710   5.016   4.037  0.7607  0.6692  0.8005
 1993TIP3   OH227537   5.302   2.140   1.653 -0.0889 -0.4138  0.2747
 1993TIP3    H127538   5.395   2.131   1.632 -0.2886 -1.0685 -0.3703
 1993TIP3    H227539   5.289   2.087   1.732  0.0952 -0.2635  0.4057
 1994TIP3   OH227540   0.043   1.707   0.067  0.7925  0.7371 -0.4550
 1994TIP3    H127541   0.010   1.772   0.005  1.6160  0.4008 -1.2702
 1994TIP3    H227542   0.089   1.643   0.012  0.6176 -0.1478  0.3991
 1995TIP3   OH227543   6.247   6.459   4.616 -0.6178 -0.3327  0.2513
 1995TIP3    H127544   6.197   6.387   4.577 -0.5322 -1.5446  2.2338
 1995TIP3    H227545   6.216   6.464   4.707  1.4118  0.2103  0.9750
 1996TIP3   OH227546   2.854   1.891   0.238  0.4716  0.2845 -0.2539
 1996TIP3    H127547   2.839   1.815   0.182 -0.5606 -0.5813  1.1335
 1996TIP3    H227548   2.850   1.856   0.327 -2.9503  2.3420  0.5875
 1997TIP3   OH227549   0.960   4.966   4.229  0.4931  0.4315 -0.2547
 1997TIP3    H127550   0.978   4.973   4.323  2.4449  1.4242 -0.6635
 1997TIP3    H227551   1.002   4.884   4.203 -0.9841 -0.4040 -0.0892
 1998TIP3   OH227552   0.772   2.807   3.531  0.6264 -0.2761  0.2410
 1998TIP3    H127553   0.781   2.891   3.485 -0.2684 -0.8504 -1.0418
 1998TIP3    H227554   0.681   2.806   3.561  0.6982 -0.6885  0.4457
 1999TIP3   OH227555   5.024   0.240   2.663 -0.2703  0.2367 -0.2847
 1999TIP3    H127556   4.946   0.283   2.699  0.1967  1.6643 -0.8906
 1999TIP3    H227557   5.078   0.221   2.740 -0.5806  0.5532  0.0169
 2000TIP3   OH227558   0.153   5.021   2.506  0.0912 -0.3687 -0.5776
 2000TIP3    H127559   0.183   5.073   2.432 -0.8137  0.9474 -0.0525
 2000TIP3    H227560   0.233   4.987   2.546  0.6263 -0.4242 -1.6726
 2001TIP3   OH227561   6.641   3.955   2.404  0.5082 -0.1651 -1.0031
 2001TIP3    H127562   6.562   3.907   2.380  0.2325  0.3528 -1.1614
 2001TIP3    H227563   6.669   3.915   2.486 -1.6737  1.5743  0.7385
 2002TIP3   OH227564   2.363   1.820   1.655  0.2173  0.1902 -0.5870
 2002TIP3    H127565   2.330   1.743   1.608  2.2990 -0.8505 -0.4603
 2002TIP3    H227566   2.395   1.878   1.586  1.0912 -0.2774 -0.5911
 2003TIP3   OH227567   2.083   5.099   2.272  0.0494  0.6146  0.2462
 2003TIP3    H127568   2.162   5.044   2.275 -0.1375  0.3004 -0.3247
 2003TIP3    H227569   2.014   5.039   2.244 -0.1755  1.1188 -0.3032
 2004TIP3   OH227570   1.471   3.063   1.145  0.5338  0.7276 -1.0496
 2004TIP3    H127571   1.411   3.003   1.100 -0.2485  2.3250 -2.2345
 2004TIP3    H227572   1.464   3.145   1.096  2.3398  1.4985 -0.1010
 2005TIP3   OH227573   1.766   1.712   0.684  0.0395  0.6849 -0.2465
 2005TIP3    H127574   1.840   1.681   0.632  1.2986  1.0069  1.2829
 2005TIP3    H227575   1.757   1.648   0.754 -1.1465  0.6535 -0.4176
 2006TIP3   OH227576   6.221   2.718   2.085 -0.4202 -0.2040  0.1723
 2006TIP3    H127577   6.129   2.705   2.107 -0.9297 -0.6262 -2.0298
 2006TIP3    H227578   6.253   2.630   2.064  0.5033 -0.0512  0.8680
 2007TIP3   OH227579   4.415   2.130   4.088  0.3788 -0.9142 -0.0937
 2007TIP3    H127580   4.346   2.195   4.098 -0.9181 -2.4247  1.4497
 2007TIP3    H227581   4.384   2.055   4.139  2.2780 -2.3601 -0.9618
 2008TIP3   OH227582   4.401   4.130   2.531 -0.1102 -0.0081  0.1739
 2008TIP3    H127583   4.332   4.192   2.508  0.6459  0.8621  0.2185
 2008TIP3    H227584   4.464   4.136   2.460 -0.0439 -0.7664  0.1585
 2009TIP3   OH227585   2.096   0.703   3.587  0.2366 -0.1433  0.1787
 2009TIP3    H127586   2.044   0.625   3.570  0.1755 -0.3809  1.4343
 2009TIP3    H227587   2.140   0.686   3.670  0.8136  0.8513  0.0954
 2010TIP3   OH227588   4.316   1.619   3.401 -1.0796 -0.2866  0.7773
 2010TIP3    H127589   4.391   1.563   3.420  1.1599  1.1759 -2.6289
 2010TIP3    H227590   4.261   1.566   3.344 -0.0172  0.1501 -0.7380
 2011TIP3   OH227591   1.636   2.723   2.527 -0.3010  0.3950  0.5824
 2011TIP3    H127592   1.711   2.696   2.475 -0.7338  0.2185  0.0445
 2011TIP3    H227593   1.579   2.769   2.466  0.0443  1.8484  1.3027
 2012TIP3   OH227594   5.313   1.558   0.941 -0.0236 -0.3247  0.2095
 2012TIP3    H127595   5.343   1.474   0.976 -1.9062 -0.6914  1.0294
 2012TIP3    H227596   5.219   1.547   0.928 -0.3189  1.6505  0.3110
 2013TIP3   OH227597   4.459   3.355   8.286  0.0302  0.3170  0.5411
 2013TIP3    H127598   4.450   3.363   8.191  0.3030  0.6420  0.5413
 2013TIP3    H227599   4.371   3.333   8.316 -0.1893  0.8258  0.2745
 2014TIP3   OH227600   5.342   1.500   1.707  0.5170 -0.4294 -0.2626
 2014TIP3    H127601   5.388   1.416   1.715 -0.4523 -0.8107  1.9013
 2014TIP3    H227602   5.409   1.562   1.680  1.7310 -1.4678  0.2697
 2015TIP3   OH227603   0.311   4.930   3.568  0.0837  0.7113 -0.5012
 2015TIP3    H127604   0.352   5.003   3.521  2.0413  0.9899  1.4514
 2015TIP3    H227605   0.286   4.967   3.653  1.4891 -0.9250  0.6988
 2016TIP3   OH227606   4.505   2.049   3.840 -0.7447  0.0192 -0.1285
 2016TIP3    H127607   4.562   2.112   3.797 -1.9242  0.5474 -0.9927
 2016TIP3    H227608   4.488   2.086   3.926  1.0871 -0.7062  0.5823
 2017TIP3   OH227609   2.352   2.071   2.106 -0.3885  0.3809  0.0726
 2017TIP3    H127610   2.340   2.141   2.041  1.8794 -0.3411 -1.2430
 2017TIP3    H227611   2.337   1.990   2.057 -0.4894 -0.1197  0.9272
 2018TIP3   OH227612   6.794   1.023   0.374  1.0873 -0.2764  0.3028
 2018TIP3    H127613   6.773   0.957   0.439 -0.3965 -0.2281 -0.0813
 2018TIP3    H227614   6.771   1.106   0.416 -3.0554 -0.3878 -1.2394
 2019TIP3   OH227615   2.666   2.423   2.745  0.8470 -0.6198  0.7266
 2019TIP3    H127616   2.672   2.363   2.670  0.2835  1.2331 -0.9025
 2019TIP3    H227617   2.610   2.494   2.713 -0.9183 -0.5968  3.5399
 2020TIP3   OH227618   2.989   0.640   0.865  0.2825 -0.0816 -0.1445
 2020TIP3    H127619   2.949   0.711   0.915  0.8685  0.8724 -1.0033
 2020TIP3    H227620   3.010   0.573   0.930  1.1779  1.1952  0.9249
 2021TIP3   OH227621   6.491   3.703   3.741 -0.3353  0.3649 -0.1477
 2021TIP3    H127622   6.480   3.688   3.835  0.2378  1.4333  0.1107
 2021TIP3    H227623   6.496   3.798   3.733 -0.7394  0.3008 -1.3097
 2022TIP3   OH227624   2.435   0.800   3.673 -0.2707  0.1150 -0.3777
 2022TIP3    H127625   2.383   0.800   3.754  2.1990 -1.2163  1.3549
 2022TIP3    H227626   2.389   0.740   3.615 -0.6382 -1.1235  1.1228
 2023TIP3   OH227627   1.403   2.245   0.999 -0.7545  0.0727  0.5196
 2023TIP3    H127628   1.479   2.249   1.057 -1.4351  2.8753  1.3949
 2023TIP3    H227629   1.435   2.281   0.916 -0.5398 -1.1062  0.0725
 2024TIP3   OH227630   6.436   3.854   4.462  0.0122 -0.0029  0.6160
 2024TIP3    H127631   6.416   3.871   4.554 -0.7834  2.3687  0.0721
 2024TIP3    H227632   6.531   3.867   4.456  0.4998 -2.5228  1.4819
 2025TIP3   OH227633   5.466   5.785   4.291  0.4464 -0.0998  0.1497
 2025TIP3    H127634   5.455   5.767   4.198 -0.0229  0.7178  0.0417
 2025TIP3    H227635   5.419   5.713   4.335  0.0712 -0.1036 -0.2514
 2026TIP3   OH227636   5.228   4.267   1.763 -0.4817  0.8933 -0.2467
 2026TIP3    H127637   5.263   4.322   1.834  0.5360  0.7858 -0.6381
 2026TIP3    H227638   5.159   4.320   1.723 -2.2964  0.2888  1.8716
 2027TIP3   OH227639   2.602   1.029   3.874 -0.0829  0.6823 -0.0247
 2027TIP3    H127640   2.612   0.936   3.896  0.3203  1.2433  2.4096
 2027TIP3    H227641   2.686   1.053   3.834  0.6756  0.5025  1.4083
 2028TIP3   OH227642   6.183   4.185   4.425 -0.0252  0.4940  0.0721
 2028TIP3    H127643   6.151   4.262   4.378 -0.9675 -0.0594 -0.2298
 2028TIP3    H227644   6.233   4.136   4.359 -1.1386 -0.1569 -0.3244
 2029TIP3   OH227645   0.899   5.135   3.166 -0.2499  0.1069  0.0067
 2029TIP3    H127646   0.805   5.150   3.157 -0.5418 -1.0030  0.9770
 2029TIP3    H227647   0.932   5.125   3.077 -1.1964 -0.3293 -0.2971
 2030TIP3   OH227648   3.878   5.273   2.713  0.8805 -0.0347  0.0242
 2030TIP3    H127649   3.807   5.242   2.657 -0.0827 -0.9922  1.6678
 2030TIP3    H227650   3.956   5.232   2.677 -0.0055 -2.3403  0.5357
 2031TIP3   OH227651   2.111   6.759   0.466  0.0348 -0.5927  0.3060
 2031TIP3    H127652   2.062   6.744   0.385 -0.4920 -0.7765  0.6464
 2031TIP3    H227653   2.113   6.854   0.474  0.5529 -0.5583 -0.1936
 2032TIP3   OH227654   1.362   4.702   1.902  0.1254 -0.1108  0.1980
 2032TIP3    H127655   1.355   4.773   1.966 -1.3278  0.6404 -0.7354
 2032TIP3    H227656   1.333   4.742   1.820  2.9883 -0.7250 -1.2327
 2033TIP3   OH227657   1.393   6.700   0.228 -0.1020 -0.3274 -0.0367
 2033TIP3    H127658   1.366   6.761   0.159 -0.2229  0.5876  0.7878
 2033TIP3    H227659   1.485   6.682   0.208 -0.5903 -1.4447 -1.4036
 2034TIP3   OH227660   1.357   0.658   2.580  0.1914 -0.0862  0.1068
 2034TIP3    H127661   1.301   0.588   2.615  0.0517 -0.0740 -0.0921
 2034TIP3    H227662   1.320   0.678   2.494 -0.3964  0.9572  0.5896
 2035TIP3   OH227663   1.663   1.345   0.240 -0.2272  0.5409 -0.0196
 2035TIP3    H127664   1.648   1.251   0.237 -0.1265  0.5106  0.3563
 2035TIP3    H227665   1.609   1.381   0.169 -3.1670  0.5983  2.0668
 2036TIP3   OH227666   5.579   4.068   2.839  0.2418  0.2841  0.2876
 2036TIP3    H127667   5.532   4.007   2.782 -0.1996  0.9119 -0.0337
 2036TIP3    H227668   5.518   4.141   2.852  1.6695  1.8846 -1.4399
 2037TIP3   OH227669   3.771   3.315   2.012 -0.2745 -0.3229 -0.5073
 2037TIP3    H127670   3.757   3.262   1.933 -2.4913 -2.4390  1.1282
 2037TIP3    H227671   3.683   3.326   2.049  0.6144  1.1470  1.3504
 2038TIP3   OH227672   3.994   5.497   2.607  0.2702 -0.1559 -0.1253
 2038TIP3    H127673   4.007   5.463   2.519  1.8620 -1.8486  0.6784
 2038TIP3    H227674   3.956   5.424   2.656 -1.0681  0.9191  0.4857
 2039TIP3   OH227675   2.140   1.503   0.973 -0.2858  0.5102 -0.3183
 2039TIP3    H127676   2.191   1.544   0.903  1.0212  0.5951  0.6458
 2039TIP3    H227677   2.132   1.412   0.947  0.7816  0.3878 -0.2785
 2040TIP3   OH227678   5.975   4.268   0.448 -0.6149 -0.1556 -0.1162
 2040TIP3    H127679   6.026   4.348   0.433  0.3794 -1.0237 -1.7717
 2040TIP3    H227680   6.041   4.201   0.465 -1.4756 -0.5216  2.0856
 2041TIP3   OH227681   3.119   2.839   0.791  0.2482 -0.1096 -0.2603
 2041TIP3    H127682   3.110   2.931   0.769 -1.4043 -0.4772 -1.3598
 2041TIP3    H227683   3.213   2.822   0.792  0.5346  1.2880 -1.3504
 2042TIP3   OH227684   1.412   1.099   2.136  0.5786  0.0913  0.0382
 2042TIP3    H127685   1.409   1.195   2.136  0.8313  0.1001  0.2559
 2042TIP3    H227686   1.407   1.074   2.044  0.1968  0.3036 -0.0015
 2043TIP3   OH227687   2.862   2.627   0.018 -0.9124  0.0190  0.0708
 2043TIP3    H127688   2.785   2.587  -0.023 -1.3265 -0.4127  1.2364
 2043TIP3    H227689   2.935   2.575  -0.013 -1.2433 -0.4259  0.0273
 2044TIP3   OH227690   3.505   1.249   1.241  0.1200  0.1853  0.1025
 2044TIP3    H127691   3.541   1.256   1.329  2.9625  0.7450 -1.0211
 2044TIP3    H227692   3.527   1.160   1.213 -0.1740  0.2342 -0.2973
 2045TIP3   OH227693   2.398   0.266   3.467 -0.0257 -0.1436  0.1436
 2045TIP3    H127694   2.455   0.288   3.392 -0.1271  1.8041  0.5851
 2045TIP3    H227695   2.443   0.303   3.542 -0.6011 -0.9085  0.8806
 2046TIP3   OH227696   2.615   2.830   1.471 -0.2056  0.3467 -0.3018
 2046TIP3    H127697   2.704   2.807   1.499  0.7066  2.5619 -1.0700
 2046TIP3    H227698   2.562   2.824   1.550  0.7136 -0.5984  0.2725
 2047TIP3   OH227699   2.073   4.621   3.907  0.2460 -0.2184  0.4361
 2047TIP3    H127700   2.058   4.712   3.932  2.3444  0.2782  0.0220
 2047TIP3    H227701   2.050   4.618   3.814  0.3950 -0.0554  0.3937
 2048TIP3   OH227702   4.491   3.637   8.310  0.3503 -0.0533 -0.1690
 2048TIP3    H127703   4.403   3.671   8.297  0.6962  2.3653  2.7513
 2048TIP3    H227704   4.481   3.542   8.310 -2.4299  0.1593  0.9057
 2049TIP3   OH227705   4.415   6.547   4.095  0.3885 -0.4365 -0.0760
 2049TIP3    H127706   4.434   6.490   4.021  1.8488 -2.6786  1.8653
 2049TIP3    H227707   4.325   6.525   4.121  0.0400  0.0301 -0.8543
 2050TIP3   OH227708   0.379   5.362   2.710 -0.0782  0.4853  0.1206
 2050TIP3    H127709   0.390   5.305   2.634 -1.1804  1.1873 -0.5997
 2050TIP3    H227710   0.317   5.314   2.766  0.8398 -0.0951  0.6713
 2051TIP3   OH227711   1.707   6.468   3.174  0.8407 -0.3726  0.4868
 2051TIP3    H127712   1.638   6.499   3.116  1.8892  1.6205  0.1866
 2051TIP3    H227713   1.670   6.478   3.262  0.8895  1.2512  0.3638
 2052TIP3   OH227714   6.787   2.262   3.927 -0.1551  0.8095 -0.4842
 2052TIP3    H127715   6.764   2.173   3.901  0.7601  0.5536 -0.4480
 2052TIP3    H227716   6.726   2.318   3.878 -0.5858  0.1753 -0.6770
 2053TIP3   OH227717   2.176   2.176   3.970  0.1000 -0.1063  0.0151
 2053TIP3    H127718   2.166   2.271   3.962  1.0209 -0.0565 -0.7392
 2053TIP3    H227719   2.195   2.161   4.062 -2.0470  0.2160  0.5758
 2054TIP3   OH227720   0.003   1.445   1.953  0.3888 -0.2777  0.0501
 2054TIP3    H127721   0.022   1.497   2.031  3.4134  0.7275 -1.1901
 2054TIP3    H227722   0.059   1.367   1.963  1.7376  0.4295 -1.5732
 2055TIP3   OH227723   6.172   2.942   2.297  0.0318  0.1911  0.0550
 2055TIP3    H127724   6.183   2.981   2.383  0.1179  1.1989 -0.4056
 2055TIP3    H227725   6.249   2.886   2.286  1.2468  1.8705 -0.3130
 2056TIP3   OH227726   2.143   4.661   2.857 -0.4139  0.7844 -0.5116
 2056TIP3    H127727   2.154   4.596   2.788  2.2494  2.1353 -1.5022
 2056TIP3    H227728   2.096   4.733   2.815 -1.2987  0.4794 -0.0717
 2057TIP3   OH227729   0.892   5.855   2.346  0.2887 -0.4992 -0.3421
 2057TIP3    H127730   0.835   5.790   2.387 -0.6818  0.2333 -0.4826
 2057TIP3    H227731   0.873   5.849   2.253 -0.6733  0.7456 -0.2605
 2058TIP3   OH227732   3.890   0.364   0.925  0.3817 -0.6588 -0.0088
 2058TIP3    H127733   3.941   0.333   0.850  0.8802 -1.3829  0.6107
 2058TIP3    H227734   3.802   0.380   0.889  0.5839 -1.0872 -0.7275
 2059TIP3   OH227735   0.738   2.935   1.227  0.4835  0.1804  0.2658
 2059TIP3    H127736   0.772   2.872   1.163  2.1284  2.5257 -1.3398
 2059TIP3    H227737   0.644   2.916   1.231  0.2390  0.0322 -3.0883
 2060TIP3   OH227738   4.118   3.919   0.722 -0.1505  0.5333 -0.2799
 2060TIP3    H127739   4.032   3.946   0.752 -0.5704  0.8069 -1.6664
 2060TIP3    H227740   4.117   3.823   0.731 -0.7718  0.4932 -0.6821
 2061TIP3   OH227741   2.473   5.452   0.278 -0.0217 -0.0369 -0.2260
 2061TIP3    H127742   2.477   5.539   0.239 -1.6506  0.2900  0.2553
 2061TIP3    H227743   2.545   5.451   0.341 -0.3138  1.1833  0.1620
 2062TIP3   OH227744   3.475   0.463   1.647  0.1304  0.2507 -0.3943
 2062TIP3    H127745   3.507   0.448   1.736  1.6640  1.4571 -0.7015
 2062TIP3    H227746   3.546   0.434   1.590 -0.8947 -0.6514 -1.2496
 2063TIP3   OH227747   4.560   3.148   3.577 -0.2469  0.0402  0.3263
 2063TIP3    H127748   4.605   3.223   3.617 -0.6464 -0.5149  1.9137
 2063TIP3    H227749   4.615   3.073   3.600  0.4407 -0.1375 -1.7055
 2064TIP3   OH227750   2.011   1.425   2.232 -0.3896 -0.2448  0.2517
 2064TIP3    H127751   1.999   1.336   2.197  1.8785  0.0273 -1.4238
 2064TIP3    H227752   2.105   1.432   2.248 -0.3653  2.1667 -0.5716
 2065TIP3   OH227753   0.048   3.208   8.519 -0.0449  0.2256 -0.0065
 2065TIP3    H127754   0.020   3.294   8.549  0.2053  0.2140  0.2642
 2065TIP3    H227755  -0.005   3.146   8.569  1.7073  0.1408  1.9034
 2066TIP3   OH227756   5.578   0.764   3.088 -0.1452  0.4382 -0.4537
 2066TIP3    H127757   5.575   0.855   3.117 -1.4671  0.3055 -0.1152
 2066TIP3    H227758   5.622   0.718   3.159  1.0574  0.8818 -0.8793
 2067TIP3   OH227759   2.536   1.477   3.523  0.2047  0.2905 -0.1599
 2067TIP3    H127760   2.620   1.524   3.529  1.4402 -2.0009  2.1356
 2067TIP3    H227761   2.513   1.457   3.613 -0.8126 -2.4977 -0.9325
 2068TIP3   OH227762   4.807   0.104   2.561 -0.1043 -0.4078  0.5729
 2068TIP3    H127763   4.899   0.128   2.549 -0.1258 -0.1099  0.9972
 2068TIP3    H227764   4.758   0.182   2.532 -0.1613  0.3258  2.5328
 2069TIP3   OH227765   2.845   2.573   3.294 -0.8418  0.0326 -0.5165
 2069TIP3    H127766   2.840   2.597   3.386 -1.4223  0.8051 -0.7362
 2069TIP3    H227767   2.921   2.619   3.260  1.8595 -3.2956  0.3970
 2070TIP3   OH227768   1.548   2.984   1.400 -0.3931 -0.1330  0.6913
 2070TIP3    H127769   1.511   3.004   1.314 -1.5798  1.4427  1.5263
 2070TIP3    H227770   1.564   3.070   1.440  0.2193 -0.8345  2.0212
 2071TIP3   OH227771   4.720   2.131   0.444  0.0899 -0.1649  0.3403
 2071TIP3    H127772   4.647   2.141   0.383  0.2673  1.1056  0.3192
 2071TIP3    H227773   4.734   2.218   0.479  1.2906 -0.4889  0.7082
 2072TIP3   OH227774   5.742   0.790   2.849 -0.3427 -0.1185  0.0819
 2072TIP3    H127775   5.702   0.749   2.925 -1.3058 -1.5631 -1.1488
 2072TIP3    H227776   5.669   0.805   2.789  0.2503  1.8607 -0.2245
 2073TIP3   OH227777   1.196   1.780   2.627 -0.2341  0.2758 -0.1180
 2073TIP3    H127778   1.242   1.708   2.668  1.8129  1.0214 -0.9928
 2073TIP3    H227779   1.166   1.835   2.700  2.9543  1.3554  0.5131
 2074TIP3   OH227780   4.604   0.156   4.171  0.1190  0.4531  0.3111
 2074TIP3    H127781   4.636   0.242   4.140 -0.3920  1.0057  1.2653
 2074TIP3    H227782   4.511   0.170   4.189 -0.6165 -1.0078 -1.9324
 2075TIP3   OH227783   4.750   0.778   3.881  0.7871  0.4543  0.5998
 2075TIP3    H127784   4.741   0.829   3.800  3.0176  1.2418  0.7877
 2075TIP3    H227785   4.752   0.844   3.951  0.1462 -0.1506  1.2163
 2076TIP3   OH227786   3.419   4.397   8.673 -0.3051 -0.5408  0.2504
 2076TIP3    H127787   3.443   4.412   8.582 -1.1379 -0.7355 -0.0115
 2076TIP3    H227788   3.446   4.307   8.691 -0.0660 -0.4748  0.2244
 2077TIP3   OH227789   0.776   1.790   0.895 -0.3736 -0.0119 -0.6376
 2077TIP3    H127790   0.709   1.849   0.860  0.3580 -0.1641 -2.3989
 2077TIP3    H227791   0.741   1.762   0.980 -1.2138  2.1046 -0.2165
 2078TIP3   OH227792   6.770   3.430   1.150  0.2518 -0.2291  0.2606
 2078TIP3    H127793   6.749   3.486   1.225 -0.2090  0.4187 -0.3336
 2078TIP3    H227794   6.793   3.492   1.080  2.2731 -0.8529  0.3010
 2079TIP3   OH227795   3.666   3.432   3.893  0.1563  0.1922  0.5570
 2079TIP3    H127796   3.675   3.350   3.941 -0.5969  0.1175  0.5740
 2079TIP3    H227797   3.717   3.419   3.813 -2.7944 -1.6462 -1.1849
 2080TIP3   OH227798   6.725   0.838   1.336 -0.0375 -0.1745 -0.1384
 2080TIP3    H127799   6.716   0.890   1.256 -1.3549  0.5135  0.4315
 2080TIP3    H227800   6.813   0.859   1.368  1.1857 -1.6690 -2.1839
 2081TIP3   OH227801   3.038   2.650   0.282 -0.2692 -0.3238  0.3200
 2081TIP3    H127802   2.976   2.675   0.213 -0.8822  1.1729  1.3653
 2081TIP3    H227803   3.066   2.733   0.321  0.3133 -1.1131  1.6680
 2082TIP3   OH227804   6.282   1.219   3.080  0.4569  0.0049  0.4991
 2082TIP3    H127805   6.259   1.157   3.011 -1.5004 -1.0454  1.9930
 2082TIP3    H227806   6.233   1.298   3.059  0.1413 -0.1884  0.5112
 2083TIP3   OH227807   3.821   4.308   2.866  0.2432  0.5245 -0.6550
 2083TIP3    H127808   3.851   4.398   2.854 -1.2618  1.0358 -0.9040
 2083TIP3    H227809   3.864   4.279   2.946  1.1227  1.3001 -0.8311
 2084TIP3   OH227810   2.486   5.466   4.473 -0.0964  0.0093 -0.2059
 2084TIP3    H127811   2.569   5.458   4.426  0.1571  0.8071  0.0885
 2084TIP3    H227812   2.488   5.554   4.510 -1.6179  0.5083 -1.2112
 2085TIP3   OH227813   1.056   6.549   1.947 -0.6917  0.1617  0.4344
 2085TIP3    H127814   0.999   6.529   2.021  0.7389  2.5377  2.3187
 2085TIP3    H227815   1.000   6.595   1.885 -1.5733 -0.6012  0.6358
 2086TIP3   OH227816   5.749   0.370   2.130 -0.7071 -0.5058  0.2763
 2086TIP3    H127817   5.837   0.408   2.132  0.7309 -2.9901 -3.4003
 2086TIP3    H227818   5.700   0.426   2.069 -0.4437 -1.0959 -0.5066
 2087TIP3   OH227819   1.149   6.234   2.530  0.2134  0.0861  0.1769
 2087TIP3    H127820   1.160   6.184   2.449  0.4501  1.1435 -0.4708
 2087TIP3    H227821   1.065   6.205   2.565 -0.1064 -0.0743 -0.6845
 2088TIP3   OH227822   0.153   3.779   2.456 -0.0082  0.1527  0.1865
 2088TIP3    H127823   0.188   3.843   2.394  0.8112  0.0528  0.5386
 2088TIP3    H227824   0.077   3.742   2.411  0.2132  0.5187 -0.5061
 2089TIP3   OH227825   1.196   5.571   3.484  0.2450 -0.3434 -1.1160
 2089TIP3    H127826   1.107   5.555   3.514  0.3625  0.5785 -0.2286
 2089TIP3    H227827   1.195   5.662   3.453  0.6043 -0.6771 -2.1594
 2090TIP3   OH227828   1.340   2.455   3.301 -0.0635 -0.2903 -0.5875
 2090TIP3    H127829   1.247   2.460   3.323 -0.6607 -1.2777 -2.6434
 2090TIP3    H227830   1.385   2.462   3.385 -2.0469 -1.1277  0.6188
 2091TIP3   OH227831   5.101   1.881   1.730 -0.2282 -0.2352 -0.5894
 2091TIP3    H127832   5.143   1.953   1.777 -1.3150 -0.1721  0.3252
 2091TIP3    H227833   5.040   1.843   1.793 -0.1341 -1.5747 -1.2541
 2092TIP3   OH227834   3.750   1.198   4.693  0.1468  0.0652  0.4543
 2092TIP3    H127835   3.737   1.114   4.651  0.1169 -0.8484  2.1813
 2092TIP3    H227836   3.721   1.263   4.629 -0.2410 -1.2523 -0.7362
 2093TIP3   OH227837   3.368   0.401   1.252  0.5343  0.4377  0.1942
 2093TIP3    H127838   3.332   0.383   1.165  0.1141  1.8069  0.0553
 2093TIP3    H227839   3.460   0.421   1.236  0.6265  0.0044  0.1623
 2094TIP3   OH227840   6.668   1.872   1.798 -0.0450  0.2435 -0.3736
 2094TIP3    H127841   6.617   1.895   1.876 -0.6796 -0.2414 -0.6329
 2094TIP3    H227842   6.602   1.859   1.730  0.3676 -1.0669 -0.5518
 2095TIP3   OH227843   2.613   6.785   1.462 -0.0131 -0.3609  0.0992
 2095TIP3    H127844   2.676   6.855   1.480 -1.1449  0.9635 -0.8659
 2095TIP3    H227845   2.647   6.710   1.510  1.3251  0.8036  1.0776
 2096TIP3   OH227846   2.462   1.103   1.488  0.3757  0.6992  0.5648
 2096TIP3    H127847   2.463   1.013   1.457  0.2324  0.1218  2.1347
 2096TIP3    H227848   2.553   1.132   1.481  0.2862  0.7378 -0.7133
 2097TIP3   OH227849   3.044   6.488   3.155  0.2769 -0.3539 -0.2943
 2097TIP3    H127850   3.035   6.394   3.137  1.0427 -0.6953  0.9685
 2097TIP3    H227851   3.049   6.494   3.250 -1.4107  1.1453 -0.2463
 2098TIP3   OH227852   1.511   2.761   3.791  0.1297  0.7230 -0.1215
 2098TIP3    H127853   1.478   2.755   3.701  0.5411  0.0271 -0.2310
 2098TIP3    H227854   1.549   2.675   3.808  2.6422  1.7356 -0.2743
 2099TIP3   OH227855   4.580   1.540   3.735  0.1908 -0.3568 -0.1219
 2099TIP3    H127856   4.576   1.634   3.753  0.2427 -0.5756  1.1563
 2099TIP3    H227857   4.608   1.501   3.818 -0.6498 -1.5695 -0.3765
 2100TIP3   OH227858   6.458   3.234   3.761  0.2808  0.1120  0.2666
 2100TIP3    H127859   6.519   3.161   3.758 -0.9861 -1.1187  1.9588
 2100TIP3    H227860   6.469   3.270   3.849  0.1642  1.3143 -0.1994
 2101TIP3   OH227861   3.992   5.230   3.048 -0.1420  0.0173 -0.1836
 2101TIP3    H127862   3.981   5.136   3.065  3.4994 -0.4701  0.3011
 2101TIP3    H227863   4.045   5.261   3.121  3.0186  1.2309 -2.7461
 2102TIP3   OH227864   3.466   1.914   0.708 -0.7998  0.2134 -0.0818
 2102TIP3    H127865   3.398   1.981   0.700 -0.9228  0.0669 -0.2650
 2102TIP3    H227866   3.484   1.886   0.618 -0.2138  0.5335 -0.0653
 2103TIP3   OH227867   5.566   4.713   0.869 -0.4036 -0.1220  0.0156
 2103TIP3    H127868   5.618   4.718   0.789 -0.0957 -1.9882  0.0587
 2103TIP3    H227869   5.513   4.793   0.868 -0.2609 -0.0025 -1.9379
 2104TIP3   OH227870   2.120   0.268   2.712 -0.1395 -0.2818 -0.1450
 2104TIP3    H127871   2.085   0.220   2.637  0.2658  0.7830 -1.0488
 2104TIP3    H227872   2.212   0.240   2.717 -0.0707 -0.0779 -0.2734
 2105TIP3   OH227873   5.626   4.175   3.370  0.2371 -0.1779 -0.5861
 2105TIP3    H127874   5.554   4.160   3.309  1.0111  0.0681 -1.5786
 2105TIP3    H227875   5.583   4.193   3.454 -0.8136 -2.5698 -0.5427
 2106TIP3   OH227876   2.782   3.239   1.569  0.1586 -0.6761  0.1649
 2106TIP3    H127877   2.778   3.324   1.613  0.2426 -0.7047  0.2281
 2106TIP3    H227878   2.778   3.261   1.476  0.2632 -0.5961  0.1777
 2107TIP3   OH227879   5.933   3.849   3.198 -0.0201  0.5175 -0.7111
 2107TIP3    H127880   6.022   3.833   3.231 -0.9554 -0.1904  1.6401
 2107TIP3    H227881   5.932   3.808   3.112  1.6614 -0.2717 -0.4000
 2108TIP3   OH227882   5.175   2.962   3.047 -0.3625 -0.3470  0.0802
 2108TIP3    H127883   5.216   3.048   3.046  0.7544 -0.8228  1.4722
 2108TIP3    H227884   5.116   2.963   3.122 -0.9043 -0.5505 -0.3372
 2109TIP3   OH227885   1.115   5.310   1.113  0.4232 -0.1734 -0.3102
 2109TIP3    H127886   1.034   5.354   1.138  0.4532 -1.1040  1.6707
 2109TIP3    H227887   1.101   5.219   1.138  1.8704 -0.4571 -0.4491
 2110TIP3   OH227888   1.138   0.756   0.811 -0.3020 -0.2864  0.2898
 2110TIP3    H127889   1.082   0.778   0.737 -0.3607  1.0792  0.7060
 2110TIP3    H227890   1.104   0.673   0.843 -1.4352  0.0091 -0.0976
 2111TIP3   OH227891   3.862   3.699   3.309 -0.4685 -0.2119 -0.4012
 2111TIP3    H127892   3.865   3.777   3.364 -1.2854  0.3180 -1.0708
 2111TIP3    H227893   3.786   3.650   3.340 -1.8192  0.8007 -1.9105
 2112TIP3   OH227894   5.792   3.583   2.736 -0.1594 -0.2144 -0.4952
 2112TIP3    H127895   5.718   3.560   2.679 -0.3654 -0.5657 -0.0981
 2112TIP3    H227896   5.829   3.499   2.762  1.3876 -0.0390 -1.9497
 2113TIP3   OH227897   2.291   3.065   3.489 -0.3056  0.0749  0.4606
 2113TIP3    H127898   2.204   3.024   3.494 -0.8124  0.9493 -0.8056
 2113TIP3    H227899   2.323   3.044   3.402  0.4433  0.4010  0.6492
 2114TIP3   OH227900   2.841   5.905   0.502 -0.7299 -0.9560 -0.1480
 2114TIP3    H127901   2.921   5.944   0.538 -0.1680 -1.9379 -0.2816
 2114TIP3    H227902   2.823   5.957   0.423  1.2801 -2.2442 -1.5841
 2115TIP3   OH227903   0.105   3.378   2.958 -0.2933  0.1810  0.0600
 2115TIP3    H127904   0.144   3.441   2.898  2.1538  1.0818  2.3828
 2115TIP3    H227905   0.035   3.336   2.907  0.4212  2.1100 -2.7515
 2116TIP3   OH227906   6.626   6.601   3.603  0.1819 -0.6544 -0.0972
 2116TIP3    H127907   6.655   6.524   3.555  0.0122 -0.5768 -0.3314
 2116TIP3    H227908   6.578   6.567   3.678 -0.8153 -0.7838 -0.7732
 2117TIP3   OH227909   0.752   5.699   2.938  0.4599 -0.4298 -0.1462
 2117TIP3    H127910   0.678   5.668   2.990 -0.1156  1.6867  0.4183
 2117TIP3    H227911   0.817   5.629   2.942 -0.5304 -1.2973  1.4387
 2118TIP3   OH227912   3.630   4.890   5.020  0.1126 -0.2757  0.5465
 2118TIP3    H127913   3.673   4.805   5.008 -1.5471 -0.9472 -1.1089
 2118TIP3    H227914   3.539   4.874   4.995 -0.1245  2.0963 -0.3041
 2119TIP3   OH227915   4.031   5.734   1.336 -0.6314 -0.4015 -0.1774
 2119TIP3    H127916   4.022   5.776   1.250  0.6508 -0.5223 -0.3828
 2119TIP3    H227917   4.040   5.641   1.316 -0.9820 -0.5025  0.1319
 2120TIP3   OH227918   6.045   1.644   1.008  0.2349  0.0314 -0.1357
 2120TIP3    H127919   6.101   1.722   1.011  0.8356 -0.3735  3.2108
 2120TIP3    H227920   5.956   1.678   1.018  0.2994  0.4029 -0.7889
 2121TIP3   OH227921   2.289   6.744   3.005 -0.0789  0.1221 -0.3506
 2121TIP3    H127922   2.228   6.740   2.931  0.9210  0.6680 -1.2491
 2121TIP3    H227923   2.375   6.731   2.965  0.2998 -2.4296  1.0941
 2122TIP3   OH227924   0.407   5.186   2.008 -0.6731  0.0662 -0.2456
 2122TIP3    H127925   0.386   5.267   1.962 -0.6409 -0.2362 -0.8090
 2122TIP3    H227926   0.503   5.188   2.018 -0.8532  1.0389  1.5517
 2123TIP3   OH227927   1.669   5.116   3.737 -0.6425  0.6122  0.3429
 2123TIP3    H127928   1.751   5.152   3.771  0.8381 -1.7526 -0.4941
 2123TIP3    H227929   1.681   5.117   3.642  0.2248 -3.3582  0.2432
 2124TIP3   OH227930   2.616   6.375   2.241 -0.4594  0.2166 -0.1855
 2124TIP3    H127931   2.646   6.342   2.326  0.2691  1.7003  0.1702
 2124TIP3    H227932   2.525   6.345   2.234 -0.0089 -1.3720  0.3265
 2125TIP3   OH227933   5.806   6.276   4.489 -0.1488 -0.0430  0.0796
 2125TIP3    H127934   5.745   6.283   4.563 -0.6614 -1.7721 -0.1390
 2125TIP3    H227935   5.889   6.251   4.529 -0.3746 -0.7762  0.0973
 2126TIP3   OH227936   0.096   0.585   4.378  0.7734 -0.2628  0.8379
 2126TIP3    H127937   0.141   0.670   4.377  0.5016 -0.0152  3.2708
 2126TIP3    H227938   0.025   0.597   4.441 -0.4714 -1.7573 -0.1980
 2127TIP3   OH227939   6.577   6.211   0.442 -0.5986 -0.0767  0.9421
 2127TIP3    H127940   6.496   6.161   0.444 -0.5485 -0.2530 -0.4109
 2127TIP3    H227941   6.549   6.302   0.450 -1.1329  0.0115 -1.1884
 2128TIP3   OH227942   3.363   4.414   4.738 -0.0658  0.0001 -0.7871
 2128TIP3    H127943   3.338   4.439   4.649  2.9357 -2.1091 -2.3975
 2128TIP3    H227944   3.453   4.444   4.747 -0.0894 -0.3957  1.3376
 2129TIP3   OH227945   6.347   5.921   2.772 -0.4344  0.3014 -0.7526
 2129TIP3    H127946   6.313   5.909   2.861  1.9833  0.3467  0.2665
 2129TIP3    H227947   6.344   5.833   2.734 -0.7524  0.1281 -0.3380
 2130TIP3   OH227948   0.880   2.250   3.528 -0.1951 -0.1951  0.6473
 2130TIP3    H127949   0.930   2.248   3.610  1.0509 -0.0757 -0.0743
 2130TIP3    H227950   0.863   2.158   3.509 -3.1172 -0.1623  2.5160
 2131TIP3   OH227951   2.273   4.933   0.838 -0.3936 -0.0462 -0.4018
 2131TIP3    H127952   2.182   4.956   0.820 -0.5595  1.8547  2.3223
 2131TIP3    H227953   2.272   4.897   0.927  1.8010  2.9881  1.0310
 2132TIP3   OH227954   4.276   5.265   4.175 -0.1192  0.4689 -0.7122
 2132TIP3    H127955   4.230   5.256   4.091 -0.1184  0.9508 -0.7632
 2132TIP3    H227956   4.363   5.298   4.151  0.2783 -0.4779 -0.6197
 2133TIP3   OH227957   3.707   4.769   0.989  0.3263 -0.6187 -0.0586
 2133TIP3    H127958   3.624   4.724   0.976  0.0488  0.1996 -1.1932
 2133TIP3    H227959   3.705   4.843   0.928  2.3897 -1.2685 -0.9992
 2134TIP3   OH227960   5.582   0.740   3.553 -0.1884 -0.1483 -0.2811
 2134TIP3    H127961   5.596   0.834   3.548 -0.3481 -0.1569 -0.9634
 2134TIP3    H227962   5.491   0.730   3.582  0.2228 -0.1028  1.1279
 2135TIP3   OH227963   0.282   3.000   2.338 -0.3041 -0.4654  0.6929
 2135TIP3    H127964   0.250   2.917   2.303 -4.0113  0.7955  0.6371
 2135TIP3    H227965   0.288   2.984   2.433 -1.3201 -0.7659  0.7274
 2136TIP3   OH227966   0.061   3.758   3.799 -0.3424  0.5705  0.1669
 2136TIP3    H127967   0.004   3.796   3.865 -0.6117  0.9285 -0.2611
 2136TIP3    H227968   0.055   3.819   3.724 -1.6233 -0.8565 -0.9455
 2137TIP3   OH227969   6.641   1.663   0.275  0.0072 -0.2540  0.1010
 2137TIP3    H127970   6.579   1.731   0.299  0.3645 -0.3348  1.3083
 2137TIP3    H227971   6.693   1.701   0.204  1.0553  1.2499  1.6014
 2138TIP3   OH227972   3.906   1.639   1.205 -0.3714  0.0934 -0.3786
 2138TIP3    H127973   3.960   1.571   1.164  0.3917 -0.3472  1.2665
 2138TIP3    H227974   3.954   1.720   1.189 -1.5582  0.4125 -2.8267
 2139TIP3   OH227975   5.221   3.885   4.153 -0.0922 -0.2411 -0.2257
 2139TIP3    H127976   5.129   3.867   4.172  0.1455 -0.1090  1.0908
 2139TIP3    H227977   5.263   3.887   4.238  1.2266 -0.7456 -0.8427
 2140TIP3   OH227978   1.008   3.681   3.687 -0.2354 -0.0484  0.0838
 2140TIP3    H127979   1.019   3.677   3.782  0.1842 -1.0875  0.0035
 2140TIP3    H227980   1.098   3.689   3.653 -0.4305  1.1194 -0.2074
 2141TIP3   OH227981   5.947   4.950   3.751  0.4374  0.2439  0.3858
 2141TIP3    H127982   6.006   5.025   3.745 -1.3230  1.5718 -1.8241
 2141TIP3    H227983   5.868   4.984   3.792 -0.6517 -0.1614 -1.2783
 2142TIP3   OH227984   3.796   2.267   3.913  0.4832 -0.1337  0.0830
 2142TIP3    H127985   3.830   2.343   3.866  1.2781  0.3467  1.3773
 2142TIP3    H227986   3.843   2.268   3.996  0.3516 -1.9380  0.2002
 2143TIP3   OH227987   2.750   3.775   4.442 -0.3419  0.2987  0.0339
 2143TIP3    H127988   2.720   3.685   4.429  0.6471 -0.1228  0.5979
 2143TIP3    H227989   2.774   3.779   4.535 -1.1425  1.3866  0.2155
 2144TIP3   OH227990   4.574   5.504   0.939  0.1486 -0.2959 -0.1139
 2144TIP3    H127991   4.490   5.520   0.896 -0.5833 -0.8413  1.0538
 2144TIP3    H227992   4.568   5.552   1.021  1.3767  0.4378 -0.4367
 2145TIP3   OH227993   5.947   1.317   3.707  0.1898 -0.5904  0.5539
 2145TIP3    H127994   5.956   1.280   3.620 -1.9645 -2.0138  0.8539
 2145TIP3    H227995   5.862   1.361   3.706 -0.1801 -1.2080  2.1193
 2146TIP3   OH227996   4.880   5.517   1.833 -0.2878 -0.1190 -0.1357
 2146TIP3    H127997   4.880   5.562   1.748  1.3422  0.2270  0.0181
 2146TIP3    H227998   4.874   5.425   1.811  0.6202 -0.0613 -0.6699
 2147TIP3   OH227999   3.584   1.391   0.428  0.2035 -0.0392  0.3504
 2147TIP3    H128000   3.588   1.480   0.392 -0.4656 -0.2673 -0.3286
 2147TIP3    H228001   3.613   1.335   0.357 -1.5984 -0.5392 -0.0491
 2148TIP3   OH228002   0.495   4.264   3.508  0.3015 -0.0738 -0.4838
 2148TIP3    H128003   0.501   4.275   3.413  1.3661 -1.4384 -0.6037
 2148TIP3    H228004   0.580   4.227   3.533 -0.3982 -0.8593  0.8335
 2149TIP3   OH228005   0.244   1.229   0.565 -0.2764 -0.1200  0.5423
 2149TIP3    H128006   0.262   1.298   0.629  1.7361 -2.3562  2.6128
 2149TIP3    H228007   0.149   1.235   0.550 -0.1127  3.3934  0.0835
 2150TIP3   OH228008   5.498   3.730   1.903  0.0813 -0.3593 -0.6518
 2150TIP3    H128009   5.517   3.645   1.864  0.0290 -0.9643  0.5824
 2150TIP3    H228010   5.578   3.780   1.893  0.8098 -1.2668  0.3797
 2151TIP3   OH228011   2.659   5.481   4.017  0.3539  0.2108 -0.1614
 2151TIP3    H128012   2.674   5.557   4.073 -1.3036  0.2547  0.2836
 2151TIP3    H228013   2.670   5.406   4.074  1.6697  0.1055 -0.5256
 2152TIP3   OH228014   3.165   3.877   4.443 -0.4557  0.0894  0.5206
 2152TIP3    H128015   3.170   3.794   4.395 -0.2014 -0.1549  0.9567
 2152TIP3    H228016   3.126   3.938   4.381  1.0726  0.1260 -0.4861
 2153TIP3   OH228017   3.862   2.449   2.271 -0.2620  0.2005 -0.0144
 2153TIP3    H128018   3.818   2.521   2.227  1.1088  0.4447 -1.0558
 2153TIP3    H228019   3.813   2.437   2.352 -1.9241  0.7505 -0.8990
 2154TIP3   OH228020   3.755   2.720   1.318 -0.3959 -0.3472  0.2691
 2154TIP3    H128021   3.839   2.673   1.324 -0.4213 -0.3994  0.2149
 2154TIP3    H228022   3.749   2.746   1.226 -0.9168 -1.2231  0.0451
 2155TIP3   OH228023   0.666   5.229   2.115  0.2418 -0.2535 -0.1713
 2155TIP3    H128024   0.742   5.237   2.056  1.2645  0.1341  1.1387
 2155TIP3    H228025   0.687   5.287   2.188 -1.3640 -0.1077  0.2032
 2156TIP3   OH228026   5.144   5.825   2.741  0.5676 -0.7493  0.4593
 2156TIP3    H128027   5.132   5.851   2.833  0.3047  1.6790 -0.2097
 2156TIP3    H228028   5.143   5.907   2.692  2.5035 -1.8233 -1.5623
 2157TIP3   OH228029   2.924   2.933   1.364 -1.1269 -0.4728  0.0866
 2157TIP3    H128030   2.883   2.998   1.307  0.5413 -0.0860 -0.7317
 2157TIP3    H228031   2.938   2.857   1.308  0.5241 -0.0904 -0.0624
 2158TIP3   OH228032   3.047   2.160   4.438  0.3127 -0.9096  0.2546
 2158TIP3    H128033   2.952   2.164   4.437  0.2655 -1.0771  1.8809
 2158TIP3    H228034   3.074   2.230   4.498  1.1809 -1.2425  0.2706
 2159TIP3   OH228035   5.383   0.975   8.854  0.1313  0.0054  0.0126
 2159TIP3    H128036   5.451   1.004   8.793  0.0616 -0.3104 -0.2123
 2159TIP3    H228037   5.390   1.037   8.928 -1.1031  1.6481 -1.1743
 2160TIP3   OH228038   2.937   3.628   3.386  0.1466 -0.0182  0.1460
 2160TIP3    H128039   2.897   3.634   3.299  2.2792 -0.1213 -0.9251
 2160TIP3    H228040   2.868   3.593   3.442 -2.1844  2.6442 -0.8234
 2161TIP3   OH228041   0.967   4.906   4.836 -0.2136  0.0129 -0.3341
 2161TIP3    H128042   0.910   4.931   4.909  0.4940  0.0635  0.2178
 2161TIP3    H228043   0.963   4.981   4.776  1.0831  1.0802  0.8181
 2162TIP3   OH228044   6.469   4.385   2.736  0.2043 -0.2388 -0.0307
 2162TIP3    H128045   6.450   4.352   2.648 -0.3614 -0.5917  0.2176
 2162TIP3    H228046   6.427   4.470   2.740 -0.2067 -0.4435  0.0656
 2163TIP3   OH228047   5.741   4.333   2.100 -0.0588  0.0930 -0.3121
 2163TIP3    H128048   5.811   4.305   2.158  0.8501  2.8789  0.0617
 2163TIP3    H228049   5.679   4.379   2.157 -0.1802  1.0788 -1.2116
 2164TIP3   OH228050   4.784   3.557   2.658 -0.3267  0.3127  0.1302
 2164TIP3    H128051   4.745   3.470   2.651 -0.0895  0.2676 -0.7091
 2164TIP3    H228052   4.730   3.612   2.601  0.4917  0.3648 -0.6197
 2165TIP3   OH228053   1.608   4.011   3.991  0.2323  0.3671  0.3474
 2165TIP3    H128054   1.611   4.047   3.903 -4.0475  0.8661  0.2178
 2165TIP3    H228055   1.607   3.916   3.978 -1.2555  0.4452 -0.2527
 2166TIP3   OH228056   5.004   0.144   3.625 -0.5735  0.5131 -0.2226
 2166TIP3    H128057   5.015   0.049   3.624  0.1000  0.5817  0.1747
 2166TIP3    H228058   4.911   0.158   3.610 -0.5566 -0.1849 -1.0679
 2167TIP3   OH228059   4.659   1.341   2.049 -0.0204  0.6455  0.2114
 2167TIP3    H128060   4.591   1.274   2.052 -0.4617  1.0681 -0.3896
 2167TIP3    H228061   4.734   1.297   2.008  0.3107 -0.0136  1.4603
 2168TIP3   OH228062   4.048   5.042   0.034 -0.5693  0.1445  0.0901
 2168TIP3    H128063   4.055   5.065  -0.059 -0.8227  1.4691  0.3787
 2168TIP3    H228064   3.972   5.091   0.065 -1.0284 -0.9789  0.8075
 2169TIP3   OH228065   4.979   6.223   4.592  0.1890 -0.5470  0.3134
 2169TIP3    H128066   4.974   6.282   4.667 -0.0451 -1.8464  1.3633
 2169TIP3    H228067   4.888   6.211   4.565  0.3081  0.3636 -0.5851
 2170TIP3   OH228068   5.231   1.510   3.787  0.6708 -0.2197 -0.2128
 2170TIP3    H128069   5.160   1.449   3.807  0.3136 -0.6845 -2.6647
 2170TIP3    H228070   5.197   1.563   3.714  1.4448  2.1046  1.0019
 2171TIP3   OH228071   4.765   4.428   1.101  0.3209 -0.3760 -0.0788
 2171TIP3    H128072   4.699   4.377   1.149  1.0072 -0.5542  0.6959
 2171TIP3    H228073   4.799   4.368   1.035 -2.8207  0.7364 -3.0443
 2172TIP3   OH228074   6.064   4.980   3.498 -0.2812  0.1998 -0.1076
 2172TIP3    H128075   6.021   5.019   3.422 -0.9514 -0.3528 -0.0187
 2172TIP3    H228076   5.994   4.964   3.561  0.2109  0.2800  0.4706
 2173TIP3   OH228077   5.335   4.404   2.620 -0.2413  0.4054 -0.0729
 2173TIP3    H128078   5.358   4.326   2.669  0.2027  0.4304 -0.2289
 2173TIP3    H228079   5.241   4.413   2.630 -0.5439 -1.0032 -1.2954
 2174TIP3   OH228080   5.920   3.236   1.508 -0.0575 -0.4463  0.2137
 2174TIP3    H128081   5.848   3.208   1.565 -0.4801 -2.0309 -1.0319
 2174TIP3    H228082   5.977   3.288   1.566 -0.8652 -1.3337  1.8874
 2175TIP3   OH228083   4.391   4.744   2.738  0.7002 -0.0460 -0.0144
 2175TIP3    H128084   4.452   4.810   2.770  1.7093 -1.1456  0.4222
 2175TIP3    H228085   4.347   4.711   2.817 -0.3774  0.6265 -0.3076
 2176TIP3   OH228086   2.948   2.855   0.104 -0.1433 -0.1284  0.5067
 2176TIP3    H128087   2.893   2.781   0.077  0.0671 -0.0019 -0.2882
 2176TIP3    H228088   2.954   2.910   0.026 -1.4514  1.4636  1.4654
 2177TIP3   OH228089   1.992   4.715   3.346 -0.3162 -0.2515  0.2036
 2177TIP3    H128090   2.051   4.678   3.280 -0.9486 -0.5683 -0.1936
 2177TIP3    H228091   2.050   4.764   3.405  0.1116  1.4211 -1.4946
 2178TIP3   OH228092   5.425   5.144   2.592 -0.1297  0.7733  0.1440
 2178TIP3    H128093   5.433   5.181   2.504 -0.6161  1.4752  0.3857
 2178TIP3    H228094   5.368   5.069   2.581  1.0354 -0.0701 -0.3915
 2179TIP3   OH228095   3.099   5.341   1.706 -0.4394  0.5464  0.4039
 2179TIP3    H128096   3.146   5.319   1.786  3.0482 -0.7407 -1.7670
 2179TIP3    H228097   3.067   5.257   1.672 -1.8564  1.0682  0.3656
 2180TIP3   OH228098   0.316   1.402   2.805 -0.0298 -0.1490 -0.2212
 2180TIP3    H128099   0.332   1.376   2.895  1.1216  0.5502 -0.1946
 2180TIP3    H228100   0.382   1.470   2.788 -2.3985  2.2125 -0.4946
 2181TIP3   OH228101   6.672   3.869   4.318 -0.2746  0.3368 -0.4132
 2181TIP3    H128102   6.722   3.893   4.395  1.9859 -0.0178 -1.6703
 2181TIP3    H228103   6.727   3.896   4.244 -1.4211 -1.0972 -1.8799
 2182TIP3   OH228104   4.403   6.673   2.827 -0.2183 -0.2752 -0.0784
 2182TIP3    H128105   4.472   6.732   2.799  0.1646 -0.3675  0.6512
 2182TIP3    H228106   4.448   6.605   2.877 -0.6128 -1.3350 -1.1086
 2183TIP3   OH228107   2.344   6.168   1.868  0.7558  0.2165  0.6147
 2183TIP3    H128108   2.328   6.104   1.798 -0.0443  1.1812 -0.1083
 2183TIP3    H228109   2.419   6.218   1.837  0.1513  0.9086  0.2296
 2184TIP3   OH228110   3.398   3.478   3.756  0.1625  0.2447 -0.1643
 2184TIP3    H128111   3.475   3.429   3.784  1.0367  1.7640  0.2323
 2184TIP3    H228112   3.369   3.525   3.834 -1.2943 -0.4398 -0.2618
 2185TIP3   OH228113   0.693   0.280   3.581  0.0639  0.3514 -0.1215
 2185TIP3    H128114   0.634   0.256   3.652  0.7521  1.6440  0.9539
 2185TIP3    H228115   0.640   0.336   3.524 -0.2722 -0.0252 -0.1797
 2186TIP3   OH228116   2.007   4.973   0.836  0.1915  0.4014  0.3643
 2186TIP3    H128117   1.998   5.020   0.919 -0.4661 -0.7826  0.9905
 2186TIP3    H228118   1.922   4.931   0.823  0.0235  1.1813 -1.3161
 2187TIP3   OH228119   2.607   1.971   1.129 -0.1904 -0.3821  0.2208
 2187TIP3    H128120   2.635   2.051   1.085  0.1047  1.6480  3.7135
 2187TIP3    H228121   2.513   1.966   1.113  0.0476 -0.3720 -1.4183
 2188TIP3   OH228122   0.761   5.777   1.701  0.0469 -0.8711  0.1598
 2188TIP3    H128123   0.676   5.820   1.710 -0.6011 -2.0210 -0.3261
 2188TIP3    H228124   0.754   5.725   1.621  1.4406 -0.4854 -0.2623
 2189TIP3   OH228125   1.825   4.592   0.825  0.6665 -0.1477  0.0499
 2189TIP3    H128126   1.870   4.627   0.902 -0.2040  0.9299  0.0953
 2189TIP3    H228127   1.733   4.587   0.851  0.3286  0.4222 -0.9696
 2190TIP3   OH228128   4.024   3.771   2.925 -0.8573  0.1510  0.3411
 2190TIP3    H128129   4.059   3.684   2.907 -0.8700  0.3528 -0.7863
 2190TIP3    H228130   3.996   3.803   2.839 -1.3578  1.0481  0.8215
 2191TIP3   OH228131   2.167   5.268   2.821 -0.3622 -0.8640 -0.1062
 2191TIP3    H128132   2.154   5.213   2.898 -0.0142 -1.2350 -0.3084
 2191TIP3    H228133   2.168   5.206   2.748  0.5670 -0.6463 -0.2878
 2192TIP3   OH228134   5.042   2.518   1.903 -0.2573  0.4444  0.4342
 2192TIP3    H128135   5.007   2.536   1.990  2.6722 -1.8378  2.2738
 2192TIP3    H228136   4.984   2.450   1.867 -0.9994  0.8065  0.9294
 2193TIP3   OH228137   6.549   0.600   1.272 -0.1630 -0.1484 -0.0064
 2193TIP3    H128138   6.506   0.671   1.226  0.0747 -0.2827 -0.4457
 2193TIP3    H228139   6.543   0.623   1.364  0.9836  1.0509 -0.2042
 2194TIP3   OH228140   4.424   3.714   2.297  0.2911 -0.1939 -0.0393
 2194TIP3    H128141   4.457   3.753   2.216  2.4802 -2.1822 -0.2159
 2194TIP3    H228142   4.392   3.788   2.348 -0.8361  1.1542 -2.5490
 2195TIP3   OH228143   3.219   3.753   3.350  0.0683  0.2820 -0.1720
 2195TIP3    H128144   3.126   3.738   3.333 -0.4950  1.7416  1.2695
 2195TIP3    H228145   3.248   3.675   3.397 -0.4792 -0.1130 -0.4832
 2196TIP3   OH228146   5.206   5.939   1.417 -0.1562 -0.2376 -0.1618
 2196TIP3    H128147   5.253   5.945   1.500  1.3963 -1.1521 -0.9460
 2196TIP3    H228148   5.274   5.928   1.351 -1.4605 -1.9767 -1.3079
 2197TIP3   OH228149   4.607   0.087   2.785 -0.1649 -0.2134  0.1105
 2197TIP3    H128150   4.634   0.179   2.775 -0.5107 -0.2574 -1.4343
 2197TIP3    H228151   4.688   0.037   2.782 -0.0717 -0.0414 -0.2386
 2198TIP3   OH228152   6.781   5.176   2.650  0.5216 -0.1873  0.5178
 2198TIP3    H128153   6.719   5.121   2.697 -0.1296  1.3223  1.5196
 2198TIP3    H228154   6.834   5.115   2.599 -1.4535 -1.5713  0.0031
 2199TIP3   OH228155   6.256   2.091   3.405 -0.5345 -0.5321 -0.1445
 2199TIP3    H128156   6.326   2.107   3.470 -1.3787  3.2659  0.0895
 2199TIP3    H228157   6.175   2.093   3.457 -1.0612 -0.0960 -0.9699
 2200TIP3   OH228158   5.805   6.768   4.387 -0.6736  0.2926  0.0798
 2200TIP3    H128159   5.785   6.681   4.352  0.4062 -1.4200  3.2863
 2200TIP3    H228160   5.719   6.808   4.402 -1.2261 -0.7118 -0.2849
 2201TIP3   OH228161   0.152   1.940   2.528  0.9022  0.0756 -0.1414
 2201TIP3    H128162   0.245   1.924   2.543  0.9652  1.6640  1.6488
 2201TIP3    H228163   0.146   2.035   2.518 -0.5288 -0.0025 -0.1831
 2202TIP3   OH228164   2.086   1.237   1.657  0.0959  0.1209 -0.0066
 2202TIP3    H128165   2.171   1.226   1.700  0.4440 -1.3860 -0.9879
 2202TIP3    H228166   2.106   1.288   1.579 -0.2962  1.6237  0.8381
 2203TIP3   OH228167   2.355   2.409   2.862 -0.5369  0.2933 -0.1574
 2203TIP3    H128168   2.329   2.396   2.771  0.3929  0.8545 -0.5207
 2203TIP3    H228169   2.376   2.502   2.868  0.5447  0.0361  0.3165
 2204TIP3   OH228170   5.017   6.542   1.143 -0.0193  0.2326 -0.8316
 2204TIP3    H128171   4.996   6.545   1.049 -1.8682  0.6739 -0.4383
 2204TIP3    H228172   4.932   6.539   1.186  0.8133 -0.0154  0.8459
 2205TIP3   OH228173   4.456   1.114   1.783 -0.0381 -0.2736  0.0086
 2205TIP3    H128174   4.500   1.046   1.731 -0.6581 -0.9333  0.3261
 2205TIP3    H228175   4.490   1.102   1.872 -1.1941 -1.1361  0.3737
 2206TIP3   OH228176   1.015   0.014   0.280 -0.3568 -0.2172  0.3907
 2206TIP3    H128177   0.931   0.060   0.289  0.1223  0.6167  0.6527
 2206TIP3    H228178   1.051   0.012   0.369  1.0443  1.6390 -0.0785
 2207TIP3   OH228179   1.558   2.410   2.364 -0.0823 -0.2121 -0.2027
 2207TIP3    H128180   1.529   2.389   2.453 -0.6482  1.2045 -0.0247
 2207TIP3    H228181   1.499   2.480   2.335 -0.9145 -1.7026 -2.3152
 2208TIP3   OH228182   3.669   4.679   1.442 -0.0180 -0.4957 -0.6219
 2208TIP3    H128183   3.644   4.745   1.378 -2.5047 -3.1918 -2.7062
 2208TIP3    H228184   3.764   4.684   1.446  0.0657  1.2319 -2.8853
 2209TIP3   OH228185   3.567   0.768   1.819 -0.3531 -0.7142  0.1768
 2209TIP3    H128186   3.637   0.831   1.801 -0.9415 -0.3966 -1.0479
 2209TIP3    H228187   3.493   0.797   1.765 -1.1590 -1.5403  0.7992
 2210TIP3   OH228188   0.004   0.324   0.712  0.1889 -0.2989  0.8433
 2210TIP3    H128189  -0.040   0.403   0.745 -2.9186 -2.0317  1.1520
 2210TIP3    H228190   0.029   0.347   0.622 -1.6374  0.7292  0.5435
 2211TIP3   OH228191   6.288   3.379   1.300  0.4539  0.0154  0.0362
 2211TIP3    H128192   6.375   3.342   1.309  0.5064 -0.1305 -0.9768
 2211TIP3    H228193   6.301   3.461   1.252 -0.0701 -0.5990 -1.2149
 2212TIP3   OH228194   5.861   2.920   0.342 -0.2966  0.0318 -0.2277
 2212TIP3    H128195   5.826   2.834   0.317 -1.7956  0.8336 -0.9516
 2212TIP3    H228196   5.882   2.963   0.259  0.8885  0.2191  0.1428
 2213TIP3   OH228197   1.069   5.792   2.003 -0.6972 -0.1644  0.1910
 2213TIP3    H128198   1.154   5.749   2.011  0.1539  1.5417  0.8635
 2213TIP3    H228199   1.037   5.767   1.916  0.9202 -0.1206 -0.4479
 2214TIP3   OH228200   4.092   1.264   0.929 -0.5053  0.0716 -0.0041
 2214TIP3    H128201   4.121   1.239   0.841 -0.7831  2.1055 -0.7301
 2214TIP3    H228202   4.001   1.237   0.933 -0.2005 -0.9701  0.0581
 2215TIP3   OH228203   3.971   4.705   0.924  0.1776  0.2389  0.4029
 2215TIP3    H128204   3.895   4.712   0.982 -0.1465  1.1652 -0.1191
 2215TIP3    H228205   4.006   4.793   0.919  0.1246  0.2038 -0.9045
 2216TIP3   OH228206   6.093   3.669   2.369 -0.1663 -0.1246 -0.0602
 2216TIP3    H128207   6.060   3.709   2.450 -1.3216 -0.1394 -0.5034
 2216TIP3    H228208   6.086   3.575   2.385  0.8484 -0.1577  0.2974
 2217TIP3   OH228209   2.182   0.688   0.866 -0.1741  0.2498  0.1036
 2217TIP3    H128210   2.101   0.647   0.835 -0.9917  2.3263 -0.6793
 2217TIP3    H228211   2.249   0.661   0.803 -0.4023 -0.8449  0.3090
 2218TIP3   OH228212   2.185   5.017   4.024 -0.5627 -0.4667  0.4276
 2218TIP3    H128213   2.267   5.065   4.017 -1.0416  0.0969 -2.1894
 2218TIP3    H228214   2.117   5.084   4.032 -0.9600 -0.8117  0.0543
 2219TIP3   OH228215   2.099   6.613   8.800  0.0526 -0.7439  0.1611
 2219TIP3    H128216   2.093   6.577   8.888  1.2154 -3.0786 -0.6179
 2219TIP3    H228217   2.128   6.703   8.812 -1.2198 -0.5439  2.1760
 2220TIP3   OH228218   4.224   0.538   2.634 -0.4611  0.0001  0.2374
 2220TIP3    H128219   4.308   0.495   2.615 -1.2873 -1.6075  0.0733
 2220TIP3    H228220   4.192   0.495   2.713 -0.5851  1.4570  1.0180
 2221TIP3   OH228221   2.399   2.352   0.411 -0.1610  0.3005 -0.0387
 2221TIP3    H128222   2.356   2.402   0.341  1.6589  1.4884 -0.3553
 2221TIP3    H228223   2.392   2.407   0.489  1.6399  1.0255 -0.3342
 2222TIP3   OH228224   5.085   6.677   4.250  0.4578 -0.5364 -0.3732
 2222TIP3    H128225   5.145   6.744   4.220 -0.6238  0.5335 -0.2272
 2222TIP3    H228226   5.114   6.656   4.339  0.8792 -0.3794 -0.4720
 2223TIP3   OH228227   5.990   1.137   3.906 -0.1489 -0.3065  0.1528
 2223TIP3    H128228   6.072   1.112   3.863 -0.7600 -1.2220 -0.5271
 2223TIP3    H228229   5.961   1.215   3.859  1.2632  1.1852  1.6312
 2224TIP3   OH228230   0.311   0.221   0.756 -0.5341 -0.0743  0.3992
 2224TIP3    H128231   0.236   0.177   0.718 -1.4266  1.2757  0.5185
 2224TIP3    H228232   0.304   0.311   0.724  0.7472  0.1969  0.8304
 2225TIP3   OH228233   1.154   1.705   4.167 -0.0112 -0.6310 -0.1910
 2225TIP3    H128234   1.067   1.745   4.174 -0.3586 -1.2385 -0.8158
 2225TIP3    H228235   1.207   1.751   4.231 -0.6734  0.0828 -0.1354
 2226TIP3   OH228236   1.963   0.529   0.851  0.3085  0.1258 -0.4258
 2226TIP3    H128237   1.953   0.480   0.933  1.5750  0.8875  0.2243
 2226TIP3    H228238   1.888   0.588   0.850 -0.8233 -1.2502 -0.8459
 2227TIP3   OH228239   0.277   0.255   2.037  0.0395  0.2509  0.3782
 2227TIP3    H128240   0.287   0.161   2.054 -2.1467 -0.1237 -0.0464
 2227TIP3    H228241   0.338   0.297   2.098  0.8489 -1.4323  0.7853
 2228TIP3   OH228242   2.258   5.632   8.609  0.0911 -0.3228  0.3520
 2228TIP3    H128243   2.233   5.560   8.666 -0.6074  0.3902  0.9671
 2228TIP3    H228244   2.212   5.709   8.644  1.2783  0.5512  0.0693
 2229TIP3   OH228245   5.675   3.987   3.091  0.6097 -0.1838  0.0283
 2229TIP3    H128246   5.630   4.003   3.008 -0.2432  0.3157  0.5655
 2229TIP3    H228247   5.729   3.909   3.075  1.1210  0.4047 -1.2323
 2230TIP3   OH228248   0.495   4.777   3.785 -0.4758 -0.0892 -0.0706
 2230TIP3    H128249   0.471   4.739   3.869 -0.3856 -1.6000 -0.6978
 2230TIP3    H228250   0.504   4.702   3.726  0.5977  0.8406 -1.1498
 2231TIP3   OH228251   6.430   0.285   1.656 -0.2398 -0.5979 -0.2441
 2231TIP3    H128252   6.438   0.246   1.569 -1.4168 -0.8069 -0.2724
 2231TIP3    H228253   6.364   0.232   1.700 -0.1035 -0.1069  0.5618
 2232TIP3   OH228254   3.587   0.517   1.909  0.2345  0.0725 -0.5355
 2232TIP3    H128255   3.680   0.503   1.888  0.6338  0.3462  0.9643
 2232TIP3    H228256   3.571   0.609   1.889  1.1343  0.8715  2.0039
 2233TIP3   OH228257   3.827   5.034   2.922 -0.0526 -0.4180  0.4448
 2233TIP3    H128258   3.738   5.003   2.940 -0.2949  0.6291  1.1217
 2233TIP3    H228259   3.881   4.995   2.991  0.0005 -0.9356  0.1188
 2234TIP3   OH228260   0.440   0.146   2.546 -0.4144 -0.0883 -0.6325
 2234TIP3    H128261   0.397   0.060   2.542 -0.8512  0.1600 -1.4945
 2234TIP3    H228262   0.372   0.205   2.578 -0.7163  0.3012 -1.9681
 2235TIP3   OH228263   0.308   2.351   1.052  0.3337  0.1043  0.4309
 2235TIP3    H128264   0.366   2.426   1.044 -1.5906  1.8929  1.9541
 2235TIP3    H228265   0.255   2.353   0.972  1.6015 -0.9078 -0.4728
 2236TIP3   OH228266   2.688   0.667   1.393  0.0041 -0.2108  0.0982
 2236TIP3    H128267   2.730   0.726   1.455  1.5315 -0.0494 -1.0456
 2236TIP3    H228268   2.641   0.725   1.333  0.8118 -0.1998 -0.5278
 2237TIP3   OH228269   4.485   5.862   4.532 -0.2202 -0.0901  0.0952
 2237TIP3    H128270   4.519   5.950   4.548  0.9542 -0.8812  2.4739
 2237TIP3    H228271   4.393   5.866   4.557 -0.2567  0.5357 -0.1352
 2238TIP3   OH228272   2.378   4.916   8.340 -0.0846 -0.2733 -0.0064
 2238TIP3    H128273   2.431   4.982   8.297  0.4826  0.2426  1.4073
 2238TIP3    H228274   2.300   4.963   8.369  0.3663 -0.1570  1.0964
 2239TIP3   OH228275   2.959   5.357   2.361 -0.0206  0.4468  0.4389
 2239TIP3    H128276   2.986   5.366   2.269 -0.5001  1.4132  0.3856
 2239TIP3    H228277   2.887   5.295   2.359 -0.0116  0.4444  0.1605
 2240TIP3   OH228278   6.086   6.247   4.630  0.6795 -0.0475  0.1779
 2240TIP3    H128279   6.131   6.171   4.667  0.8688  0.7533  1.6747
 2240TIP3    H228280   6.040   6.285   4.704 -0.1253  0.8071 -0.7367
 2241TIP3   OH228281   6.467   0.629   0.927 -0.3636 -0.1498 -0.0262
 2241TIP3    H128282   6.408   0.574   0.978 -0.0426 -0.6575 -0.1908
 2241TIP3    H228283   6.469   0.589   0.840 -0.0580  0.0705 -0.1272
 2242TIP3   OH228284   6.610   4.347   4.181 -0.3238 -0.4098 -0.3059
 2242TIP3    H128285   6.635   4.276   4.240 -1.5490 -1.2752 -0.7806
 2242TIP3    H228286   6.586   4.419   4.238  0.8782 -0.3877  0.1904
 2243TIP3   OH228287   4.048   6.739   3.854 -0.3122 -0.3347 -0.3404
 2243TIP3    H128288   3.976   6.718   3.913  0.4763  2.7624  1.9595
 2243TIP3    H228289   4.010   6.799   3.790 -0.0216  0.7054  0.4277
 2244TIP3   OH228290   5.051   2.679   4.091  0.2818  0.0276  0.1313
 2244TIP3    H128291   5.042   2.753   4.151 -2.1041  0.0140 -0.1144
 2244TIP3    H228292   5.135   2.641   4.113  0.9511  1.9751  1.2143
 2245TIP3   OH228293   2.791   0.710   2.433 -0.8805 -0.1352  0.2637
 2245TIP3    H128294   2.775   0.668   2.517 -1.3907  0.4651  0.4785
 2245TIP3    H228295   2.879   0.748   2.441 -0.5199 -0.9411  0.1546
 2246TIP3   OH228296   4.604   3.612   0.201  0.1161 -0.6546  0.0198
 2246TIP3    H128297   4.536   3.679   0.203 -0.3461 -0.9687 -2.3651
 2246TIP3    H228298   4.581   3.557   0.126  2.1190 -1.7198  0.1327
 2247TIP3   OH228299   6.261   4.833   1.130  0.7436  0.7525 -0.2415
 2247TIP3    H128300   6.334   4.821   1.069  0.1585 -1.0449 -0.6561
 2247TIP3    H228301   6.300   4.824   1.216  1.1499  0.5770 -0.4420
 2248TIP3   OH228302   6.351   5.412   1.432  0.1251  0.0676 -0.4056
 2248TIP3    H128303   6.315   5.378   1.350 -1.3964 -0.6987  0.5350
 2248TIP3    H228304   6.415   5.346   1.459 -1.4381 -1.1832  0.4353
 2249TIP3   OH228305   0.317   4.281   0.564 -0.2175  0.5264 -0.1971
 2249TIP3    H128306   0.286   4.214   0.503 -0.2246  0.8302 -0.5255
 2249TIP3    H228307   0.350   4.351   0.509  2.2776 -0.2971  0.0914
 2250TIP3   OH228308   2.780   0.883   1.976 -0.1137  0.1434  0.2928
 2250TIP3    H128309   2.718   0.931   1.922  0.4818 -0.2689 -0.7861
 2250TIP3    H228310   2.846   0.851   1.914 -0.7713 -2.5326  0.8328
 2251TIP3   OH228311   3.241   3.232   1.194  0.6802  0.2235  0.5892
 2251TIP3    H128312   3.310   3.167   1.211  0.9348  0.3650  0.1062
 2251TIP3    H228313   3.195   3.199   1.117  1.1376  0.8698  0.0236
 2252TIP3   OH228314   2.300   2.700   3.382 -0.0714 -0.4384  0.3045
 2252TIP3    H128315   2.289   2.782   3.430  0.3331 -0.4293  0.3821
 2252TIP3    H228316   2.391   2.701   3.352  0.5530 -1.7216  1.9546
 2253TIP3   OH228317   5.775   1.276   4.395  0.4574 -0.6214  0.1706
 2253TIP3    H128318   5.758   1.298   4.304  1.3175 -0.1417  0.1198
 2253TIP3    H228319   5.721   1.198   4.411  1.0270 -1.2939 -1.0331
 2254TIP3   OH228320   4.504   0.640   3.871  0.5089  0.1406 -0.0633
 2254TIP3    H128321   4.585   0.685   3.898  0.2620  0.5240  0.0479
 2254TIP3    H228322   4.489   0.575   3.939  2.9395 -2.8031 -2.0743
 2255TIP3   OH228323   1.690   0.004   2.092 -0.2628  0.2648 -0.2862
 2255TIP3    H128324   1.756   0.074   2.096 -1.3398  1.2601  1.1689
 2255TIP3    H228325   1.609   0.046   2.122 -0.7658 -1.8005  1.4751
 2256TIP3   OH228326   1.808   4.427   3.213  0.0918  0.5605  0.3295
 2256TIP3    H128327   1.724   4.438   3.258  0.5678  0.5672  1.2489
 2256TIP3    H228328   1.871   4.413   3.284  0.7335 -0.3252 -0.3956
 2257TIP3   OH228329   0.848   5.955   3.470  0.0990  0.1177  0.2480
 2257TIP3    H128330   0.752   5.957   3.473  0.0949  1.5451 -0.2110
 2257TIP3    H228331   0.869   5.964   3.377  0.6852 -3.8090 -0.1947
 2258TIP3   OH228332   4.255   1.710   0.723  0.0709 -0.1896  0.0797
 2258TIP3    H128333   4.245   1.616   0.737 -2.1695  0.4137  3.7068
 2258TIP3    H228334   4.309   1.740   0.796 -2.0803  1.7268  1.0074
 2259TIP3   OH228335   5.679   5.780   1.328 -0.0540 -0.1795 -0.5072
 2259TIP3    H128336   5.596   5.780   1.376  0.3947 -0.1462  0.2914
 2259TIP3    H228337   5.661   5.730   1.248 -1.0036  0.3417 -0.6377
 2260TIP3   OH228338   6.295   5.021   2.491  0.5446 -0.6017 -0.0357
 2260TIP3    H128339   6.264   5.001   2.403 -0.5466  1.3231 -0.1430
 2260TIP3    H228340   6.390   5.027   2.483  0.4867 -0.8659 -0.9775
 2261TIP3   OH228341   4.789   5.603   0.520  0.0219 -0.1607  0.1427
 2261TIP3    H128342   4.751   5.516   0.533  0.6326 -0.6879 -1.3567
 2261TIP3    H228343   4.833   5.622   0.602 -1.3764 -0.5990  1.0359
 2262TIP3   OH228344   1.655   5.903   2.584  0.0611 -0.2224  0.2725
 2262TIP3    H128345   1.654   5.843   2.658 -3.5865 -1.8258 -0.8627
 2262TIP3    H228346   1.640   5.990   2.623 -0.7186 -0.8837  1.5160
 2263TIP3   OH228347   3.235   0.053   3.543 -0.0239 -0.4731  0.6088
 2263TIP3    H128348   3.303   0.061   3.476 -0.2810 -1.1650  0.2537
 2263TIP3    H228349   3.180   0.130   3.532 -0.9106 -1.2905 -0.9353
 2264TIP3   OH228350   0.668   5.264   1.658 -0.3798  0.0425 -0.2130
 2264TIP3    H128351   0.740   5.220   1.703  0.3663  1.0130 -0.4240
 2264TIP3    H228352   0.591   5.211   1.678  0.6043 -1.8579 -1.1473
 2265TIP3   OH228353   3.677   4.430   1.683  0.1068  0.2502 -0.3590
 2265TIP3    H128354   3.647   4.442   1.593 -1.4353 -1.2180 -0.1039
 2265TIP3    H228355   3.657   4.513   1.727  0.2423  0.7311 -1.1940
 2266TIP3   OH228356   2.669   0.641   2.194 -0.0075 -0.7831 -0.1915
 2266TIP3    H128357   2.748   0.691   2.172  0.7631 -1.6210  0.5479
 2266TIP3    H228358   2.669   0.637   2.289 -0.7396 -1.1211 -0.1990
 2267TIP3   OH228359   5.943   0.982   0.753 -0.2786 -0.3454  0.0404
 2267TIP3    H128360   6.015   0.976   0.815 -0.1591 -0.1793 -0.0839
 2267TIP3    H228361   5.948   1.071   0.717  0.2885 -0.7598 -0.9680
 2268TIP3   OH228362   0.659   6.262   3.598  0.1670  0.2712  0.1187
 2268TIP3    H128363   0.566   6.253   3.621  0.1034 -0.8811 -0.5335
 2268TIP3    H228364   0.664   6.238   3.506  1.3305 -1.1986  0.5220
 2269TIP3   OH228365   4.125   5.788   3.272 -0.1857 -0.4387 -0.1913
 2269TIP3    H128366   4.123   5.884   3.272 -0.0380 -0.3761 -2.3675
 2269TIP3    H228367   4.187   5.765   3.341  0.7271  1.0798 -0.4560
 2270TIP3   OH228368   6.290   2.463   2.097  0.1793  0.0106 -0.0430
 2270TIP3    H128369   6.378   2.485   2.128  0.9961 -0.6012 -1.8161
 2270TIP3    H228370   6.250   2.415   2.169  1.2057  0.4828  0.8664
 2271TIP3   OH228371   5.258   6.452   0.536  0.1674 -0.5060  0.3195
 2271TIP3    H128372   5.193   6.422   0.599 -0.4775 -0.1170 -0.1427
 2271TIP3    H228373   5.312   6.375   0.518 -0.7799 -1.1076 -0.0267
 2272TIP3   OH228374   4.104   2.815   0.430  0.4009 -0.1191  0.0786
 2272TIP3    H128375   4.192   2.832   0.464  0.7158 -0.4402 -0.5571
 2272TIP3    H228376   4.049   2.881   0.472  1.1539  0.8546 -0.4123
 2273TIP3   OH228377   5.173   5.520   2.172  0.1848  0.2241  0.0665
 2273TIP3    H128378   5.095   5.572   2.192  0.1495  0.1247  0.1879
 2273TIP3    H228379   5.244   5.584   2.170  0.0648  0.3457 -0.2696
 2274TIP3   OH228380   3.248   6.282   2.760 -0.0936  0.1442  0.3809
 2274TIP3    H128381   3.248   6.234   2.842  0.4325  0.9127  0.8376
 2274TIP3    H228382   3.223   6.371   2.784  1.2105  0.6669 -0.1140
 2275TIP3   OH228383   5.834   5.515   4.762 -0.1914  0.0567  0.4636
 2275TIP3    H128384   5.910   5.558   4.724  0.0476  0.7178  1.6533
 2275TIP3    H228385   5.813   5.566   4.840 -1.9146 -0.0539  0.1244
 2276TIP3   OH228386   5.953   4.373   2.548  0.0295 -0.5147 -0.3381
 2276TIP3    H128387   5.912   4.383   2.634 -0.3883 -0.2938 -0.5594
 2276TIP3    H228388   5.886   4.329   2.495 -0.3232  0.7750 -0.9959
 2277TIP3   OH228389   0.153   6.623   2.882 -0.2888  0.6209  0.2405
 2277TIP3    H128390   0.093   6.612   2.956 -1.2570 -0.5086 -0.6600
 2277TIP3    H228391   0.231   6.663   2.919 -1.2366  1.2406  1.6325
 2278TIP3   OH228392   3.431   4.535   4.240 -0.2263 -0.5894  0.5441
 2278TIP3    H128393   3.435   4.625   4.207 -1.3844 -0.9744 -0.7542
 2278TIP3    H228394   3.490   4.485   4.184  1.2924 -0.4857  1.9705
 2279TIP3   OH228395   0.571   5.878   3.468  0.2164 -0.5056  0.5903
 2279TIP3    H128396   0.512   5.944   3.433  0.2865 -0.1113  1.1953
 2279TIP3    H228397   0.542   5.796   3.429  0.3287 -0.0759 -0.4126
 2280TIP3   OH228398   0.847   5.450   2.513  0.7631 -0.2580 -0.2270
 2280TIP3    H128399   0.862   5.432   2.606 -0.2969 -1.6791 -0.2902
 2280TIP3    H228400   0.846   5.545   2.507  1.0657 -0.1405  1.1766
 2281TIP3   OH228401   1.858   1.109   1.334 -0.3949  0.3338 -0.3411
 2281TIP3    H128402   1.809   1.038   1.375  0.8981  0.9384  2.4515
 2281TIP3    H228403   1.946   1.073   1.322  0.0491  1.1907  0.3101
 2282TIP3   OH228404   2.258   6.212   4.266 -0.0552  0.3300  0.4806
 2282TIP3    H128405   2.309   6.174   4.338  0.2967  2.1103  1.2319
 2282TIP3    H228406   2.180   6.247   4.308 -0.8764 -0.4453 -0.3508
 2283TIP3   OH228407   5.328   6.794   4.131  0.2446 -0.1287  0.2170
 2283TIP3    H128408   5.361   6.875   4.170 -0.3131  0.0558  0.3227
 2283TIP3    H228409   5.276   6.823   4.056 -0.7216 -0.3157  0.7914
 2284TIP3   OH228410   2.049   2.458   3.020  0.4892 -0.0498 -0.3652
 2284TIP3    H128411   2.092   2.543   3.022  0.7126 -0.0920 -1.9177
 2284TIP3    H228412   2.116   2.397   2.989 -0.1442 -0.4553 -0.9831
 2285TIP3   OH228413   2.842   3.942   2.628  0.3136  0.0313 -0.5260
 2285TIP3    H128414   2.819   3.872   2.689  1.8363 -0.0351  0.0142
 2285TIP3    H228415   2.798   3.918   2.546 -1.2126 -0.2282  0.3292
 2286TIP3   OH228416   0.926   0.558   0.860 -0.0107 -0.1762 -0.2316
 2286TIP3    H128417   0.867   0.597   0.924 -0.3203 -0.3082 -0.4371
 2286TIP3    H228418   0.876   0.555   0.779 -0.0747 -1.1853 -0.1746
 2287TIP3   OH228419   1.311   6.427   0.532 -0.0334  0.2171  0.5324
 2287TIP3    H128420   1.393   6.414   0.483  0.9749  2.0389  1.5974
 2287TIP3    H228421   1.253   6.470   0.470  0.4574  0.5127  0.2639
 2288TIP3   OH228422   5.140   2.506   2.248  0.1517 -0.2579 -0.2491
 2288TIP3    H128423   5.122   2.482   2.339  0.2877  1.7077  0.3306
 2288TIP3    H228424   5.055   2.533   2.213  0.5584  1.8392  0.2381
 2289TIP3   OH228425   5.177   4.049   2.773  0.0213 -0.3688  0.2184
 2289TIP3    H128426   5.123   3.978   2.807  0.6308 -1.1294 -0.3460
 2289TIP3    H228427   5.122   4.092   2.708 -0.8661  0.6011  1.5495
 2290TIP3   OH228428   4.429   2.850   2.670 -0.0372  0.8366  0.4355
 2290TIP3    H128429   4.490   2.912   2.711  0.6432  0.3760  0.1380
 2290TIP3    H228430   4.478   2.768   2.663 -0.7027  0.4444  0.2125
 2291TIP3   OH228431   4.187   2.264   8.528 -0.3477 -0.2966 -0.0955
 2291TIP3    H128432   4.218   2.248   8.617  0.1034  1.0413  0.0153
 2291TIP3    H228433   4.119   2.199   8.514  0.8843 -1.7734  0.5192
 2292TIP3   OH228434   3.354   0.146   1.015 -0.5848 -0.0971  0.7573
 2292TIP3    H128435   3.353   0.145   0.919 -0.5106 -2.4691  0.7259
 2292TIP3    H228436   3.262   0.153   1.040 -0.5847  0.8144  0.5344
 2293TIP3   OH228437   6.098   4.121   1.251  0.1692 -0.6305 -0.4422
 2293TIP3    H128438   6.136   4.033   1.246 -0.6080 -0.9976 -0.1786
 2293TIP3    H228439   6.133   4.157   1.333  0.3959 -0.7422 -0.4881
 2294TIP3   OH228440   4.379   1.823   1.011  0.4018 -0.2542  0.1391
 2294TIP3    H128441   4.463   1.800   0.973  0.0015  1.3916 -1.8774
 2294TIP3    H228442   4.399   1.891   1.075  0.7239 -0.7309  0.5509
 2295TIP3   OH228443   4.076   1.023   2.395 -1.1665 -0.5174  0.3862
 2295TIP3    H128444   4.081   0.987   2.484  0.5531  1.2541  1.0817
 2295TIP3    H228445   3.994   0.989   2.360 -1.7319 -1.5401  2.5350
 2296TIP3   OH228446   5.492   4.648   1.551  0.2519  0.7828 -0.2350
 2296TIP3    H128447   5.477   4.705   1.475  0.6436  0.9833 -0.1673
 2296TIP3    H228448   5.421   4.670   1.612  0.5164  1.3596 -0.1220
 2297TIP3   OH228449   2.100   5.566   1.997  0.2457 -0.2696 -0.9015
 2297TIP3    H128450   2.057   5.580   1.912  0.4867  0.6119 -0.8817
 2297TIP3    H228451   2.131   5.475   1.993 -0.2420 -0.4145 -1.5323
 2298TIP3   OH228452   0.814   2.130   2.304  0.5123 -0.5165 -0.3059
 2298TIP3    H128453   0.889   2.177   2.340 -0.7358  0.7777  0.7465
 2298TIP3    H228454   0.801   2.167   2.217  1.1907 -0.8817 -0.5667
 2299TIP3   OH228455   5.138   1.050   0.770 -0.2087  0.4481  0.6302
 2299TIP3    H128456   5.119   1.042   0.677 -1.4272 -0.3623  0.9231
 2299TIP3    H228457   5.210   1.113   0.775 -0.5739  1.0087 -0.8008
 2300TIP3   OH228458   2.653   1.920   2.692 -0.7311  0.4545  0.4606
 2300TIP3    H128459   2.684   1.958   2.610 -0.9574 -0.8956 -0.2758
 2300TIP3    H228460   2.571   1.966   2.711 -0.7279  0.7009 -0.1261
 2301TIP3   OH228461   3.538   0.565   3.667  0.1501 -0.1559 -0.1013
 2301TIP3    H128462   3.446   0.580   3.645 -0.8023 -0.1781  3.2039
 2301TIP3    H228463   3.535   0.499   3.737  2.6184  0.3224  0.5484
 2302TIP3   OH228464   5.101   4.666   3.859 -0.0390 -0.0603 -0.3538
 2302TIP3    H128465   5.165   4.652   3.929 -0.3588  1.9991  0.4140
 2302TIP3    H228466   5.115   4.757   3.832  0.1393 -0.8115 -3.0769
 2303TIP3   OH228467   0.116   0.593   4.743 -0.4032  0.5280 -0.3365
 2303TIP3    H128468   0.065   0.516   4.721 -0.3260  0.7066 -1.1881
 2303TIP3    H228469   0.205   0.561   4.753 -0.8161 -0.0298  2.5285
 2304TIP3   OH228470   0.651   4.832   4.831 -0.2182  0.2074  0.0222
 2304TIP3    H128471   0.714   4.887   4.877 -1.3852  0.7418  1.0181
 2304TIP3    H228472   0.571   4.884   4.829 -0.4363 -0.1259 -1.9337
 2305TIP3   OH228473   6.454   3.947   3.933  0.5005 -0.1034 -0.1239
 2305TIP3    H128474   6.425   4.036   3.910  1.9224  0.1611 -0.9931
 2305TIP3    H228475   6.379   3.909   3.979 -0.1825  1.4988  0.1591
 2306TIP3   OH228476   3.073   5.039   2.237  0.1099 -0.0313  0.1435
 2306TIP3    H128477   2.997   4.985   2.214 -0.1875 -0.1304  1.2779
 2306TIP3    H228478   3.105   5.002   2.319  1.1794  0.2381 -0.1343
 2307TIP3   OH228479   6.502   2.553   2.278  0.0800  0.1257  0.7330
 2307TIP3    H128480   6.521   2.505   2.358  2.0630  0.6345  0.6238
 2307TIP3    H228481   6.454   2.630   2.307 -1.6831 -1.0409  1.0800
 2308TIP3   OH228482   1.862   5.153   2.724  0.1992 -0.0842  0.4460
 2308TIP3    H128483   1.892   5.244   2.735 -0.0803  0.4712 -2.5188
 2308TIP3    H228484   1.840   5.124   2.813  0.4035  2.7040  1.5112
 2309TIP3   OH228485   6.794   5.418   1.859  0.2781  0.3253 -0.3545
 2309TIP3    H128486   6.720   5.458   1.813  0.1202 -0.3226 -0.6832
 2309TIP3    H228487   6.861   5.485   1.860 -0.5928  1.2012  0.6448
 2310TIP3   OH228488   6.703   3.015   4.925 -0.3053 -0.6335  0.6690
 2310TIP3    H128489   6.675   2.935   4.880  0.3395 -0.3681 -0.2046
 2310TIP3    H228490   6.783   2.990   4.971 -0.7780 -0.8115  1.4244
 2311TIP3   OH228491   3.511   6.462   3.659  0.5713  0.0512 -0.4888
 2311TIP3    H128492   3.450   6.391   3.639  1.1231 -0.3889 -0.6606
 2311TIP3    H228493   3.580   6.453   3.593 -0.1607  1.7646 -1.5555
 2312TIP3   OH228494   5.493   1.601   2.560  0.1681  0.6190  0.2741
 2312TIP3    H128495   5.564   1.661   2.582 -0.8394  1.6092  0.9020
 2312TIP3    H228496   5.413   1.651   2.577 -0.6846 -0.3292 -0.8183
 2313TIP3   OH228497   4.416   6.584   3.588 -0.3338  0.1658 -0.7921
 2313TIP3    H128498   4.331   6.553   3.620  0.2772 -0.0521  0.7069
 2313TIP3    H228499   4.396   6.668   3.545 -1.1379  0.8914  0.8897
 2314TIP3   OH228500   3.470   3.692   1.195  0.2444 -0.0716  0.3677
 2314TIP3    H128501   3.507   3.780   1.186  0.7661 -0.2473  0.7156
 2314TIP3    H228502   3.459   3.680   1.289 -0.0145 -0.3001  0.3088
 2315TIP3   OH228503   2.186   0.961   3.207  0.6819 -0.2358 -0.0715
 2315TIP3    H128504   2.161   0.943   3.117  1.1105 -1.4676  0.0264
 2315TIP3    H228505   2.180   1.056   3.216  0.4396 -0.1178 -1.3296
 2316TIP3   OH228506   5.882   4.722   1.882  0.0932  0.1456  0.1987
 2316TIP3    H128507   5.837   4.727   1.797 -1.5363 -2.7505  0.7754
 2316TIP3    H228508   5.837   4.787   1.936 -2.1095 -1.2281  0.1392
 2317TIP3   OH228509   2.121   6.731   2.771  0.0314  0.2947  0.4214
 2317TIP3    H128510   2.074   6.652   2.743 -0.9301  0.6398  1.0257
 2317TIP3    H228511   2.175   6.755   2.696  0.1717 -0.8091  0.1486
 2318TIP3   OH228512   6.773   0.486   3.015  0.1739  0.8006  0.0013
 2318TIP3    H128513   6.760   0.489   3.110 -0.4417  3.1623 -0.0923
 2318TIP3    H228514   6.823   0.565   2.995  1.1757 -0.1758 -1.5458
 2319TIP3   OH228515   2.599   0.789   4.095 -0.0074 -1.0033 -0.2740
 2319TIP3    H128516   2.544   0.861   4.127  2.2162  1.8192 -2.2471
 2319TIP3    H228517   2.602   0.727   4.168 -3.8271 -0.2703  0.7578
 2320TIP3   OH228518   3.156   6.769   0.010  0.1870  0.7376  0.2259
 2320TIP3    H128519   3.187   6.708  -0.057  0.1014  0.2111  0.6660
 2320TIP3    H228520   3.207   6.748   0.088 -1.3299 -0.2298  0.9988
 2321TIP3   OH228521   1.964   2.427   0.674 -0.0423  0.3123  0.0173
 2321TIP3    H128522   1.878   2.436   0.715 -1.1976  1.6109 -2.5279
 2321TIP3    H228523   2.015   2.501   0.707  0.0045 -0.2084  1.1754
 2322TIP3   OH228524   5.637   5.596   3.146  0.3158  0.5370 -0.4138
 2322TIP3    H128525   5.641   5.632   3.234 -0.1724  1.4631 -0.7533
 2322TIP3    H228526   5.600   5.509   3.157 -0.5822  0.9793  0.2272
 2323TIP3   OH228527   2.453   0.735   2.587 -0.0756 -0.5650 -0.7054
 2323TIP3    H128528   2.544   0.721   2.561 -0.7017  0.5322 -4.0430
 2323TIP3    H228529   2.406   0.659   2.552 -0.5720 -0.6984  0.2259
 2324TIP3   OH228530   6.067   5.396   1.570  0.0672 -0.0487  0.3660
 2324TIP3    H128531   6.114   5.396   1.487  0.0859  0.3754  0.3743
 2324TIP3    H228532   6.136   5.385   1.636 -0.0231 -1.1005  0.2888
 2325TIP3   OH228533   5.059   0.854   1.408  0.5782 -0.0144  0.3291
 2325TIP3    H128534   5.086   0.822   1.494  1.2905  4.2072  1.9191
 2325TIP3    H228535   4.966   0.876   1.419  0.3959 -0.4363 -0.3311
 2326TIP3   OH228536   1.297   6.644   1.898 -0.4169 -0.1406 -0.2456
 2326TIP3    H128537   1.207   6.625   1.924 -0.1626 -2.1112 -0.6337
 2326TIP3    H228538   1.298   6.737   1.880 -2.0421  0.1779  1.0831
 2327TIP3   OH228539   6.726   0.412   1.776  0.0172  0.3169 -0.0762
 2327TIP3    H128540   6.698   0.500   1.800 -0.3985 -0.2463  1.5694
 2327TIP3    H228541   6.822   0.414   1.783  0.0228  0.6829 -0.2504
 2328TIP3   OH228542   4.054   4.134   3.087  0.0674 -0.2359 -0.6002
 2328TIP3    H128543   4.038   4.180   3.170  0.1183 -2.3929  0.6807
 2328TIP3    H228544   4.149   4.136   3.076  0.2485 -1.5792  0.4470
 2329TIP3   OH228545   0.754   4.533   3.034  0.0886  0.8780 -0.2276
 2329TIP3    H128546   0.730   4.616   3.074  2.2405  1.7176 -0.5380
 2329TIP3    H228547   0.832   4.553   2.982  2.0608 -1.7484  1.4656
 2330TIP3   OH228548   4.645   3.678   2.098  0.5051 -0.2875 -0.4431
 2330TIP3    H128549   4.681   3.619   2.163  0.8685 -0.4693 -0.8069
 2330TIP3    H228550   4.613   3.620   2.028  0.5804 -0.0711 -0.6584
 2331TIP3   OH228551   4.958   4.078   4.665  0.0570 -0.0417  0.3603
 2331TIP3    H128552   4.971   4.170   4.641 -0.7199 -0.1138 -0.3856
 2331TIP3    H228553   5.018   4.030   4.607  1.7213  0.0740  1.9040
 2332TIP3   OH228554   4.337   3.237   2.599  0.0328  0.2707 -0.3411
 2332TIP3    H128555   4.310   3.320   2.639 -0.4860 -0.6214  1.2706
 2332TIP3    H228556   4.426   3.223   2.632 -0.4888 -0.5904  0.7574
 2333TIP3   OH228557   0.702   3.803   4.266  0.0851 -0.3005  0.1772
 2333TIP3    H128558   0.670   3.805   4.356 -1.6023 -1.5689 -0.3482
 2333TIP3    H228559   0.624   3.815   4.212  1.1214  0.8345 -1.1302
 2334TIP3   OH228560   6.476   0.128   0.138 -0.1349  0.4342 -0.0337
 2334TIP3    H128561   6.456   0.209   0.185 -0.4682  0.2945  0.0697
 2334TIP3    H228562   6.390   0.094   0.113  0.0794  1.5619 -2.5678
 2335TIP3   OH228563   0.369   1.253   1.604  0.3362  0.8332 -0.3195
 2335TIP3    H128564   0.388   1.225   1.694  2.3063  1.8536 -0.3626
 2335TIP3    H228565   0.377   1.173   1.552  1.5325  0.6450  0.1253
 2336TIP3   OH228566   2.896   1.545   1.136 -0.2294 -0.6612 -0.1293
 2336TIP3    H128567   2.876   1.638   1.128  1.3087 -0.4278 -2.5676
 2336TIP3    H228568   2.826   1.501   1.087 -1.0091 -0.8362  1.1026
 2337TIP3   OH228569   1.659   3.647   8.718 -0.2370  0.0604 -0.3181
 2337TIP3    H128570   1.616   3.722   8.677 -1.5697 -0.7887 -0.5164
 2337TIP3    H228571   1.746   3.645   8.678 -1.1237 -0.1183 -2.3588
 2338TIP3   OH228572   5.988   4.224   3.590 -0.5714  0.0995 -0.1098
 2338TIP3    H128573   6.005   4.237   3.684 -1.3591 -0.7020  0.1589
 2338TIP3    H228574   5.906   4.272   3.575 -1.1966 -0.9373 -0.0660
 2339TIP3   OH228575   5.291   1.360   2.735  0.4462  0.6090  0.4124
 2339TIP3    H128576   5.350   1.422   2.776  1.1717 -0.1466  0.5414
 2339TIP3    H228577   5.321   1.274   2.765 -2.0496  0.2552  2.2922
 2340TIP3   OH228578   1.723   1.367   0.575 -0.3889  0.1473  0.4102
 2340TIP3    H128579   1.701   1.381   0.483 -1.8956 -2.4959  0.2878
 2340TIP3    H228580   1.638   1.356   0.618  0.3878 -1.9202  1.5092
 2341TIP3   OH228581   4.151   4.770   0.054 -0.0173 -0.8997 -0.0782
 2341TIP3    H128582   4.111   4.857   0.049 -1.6436 -1.6769 -3.2198
 2341TIP3    H228583   4.087   4.716   0.099  0.2159 -0.8567  0.3087
 2342TIP3   OH228584   5.350   1.435   2.407 -0.3507 -0.0882 -0.1489
 2342TIP3    H128585   5.327   1.363   2.466 -0.8696  0.2439  0.0633
 2342TIP3    H228586   5.413   1.488   2.456  0.7185 -0.8760 -0.6446
 2343TIP3   OH228587   2.105   2.890   0.962 -0.2172 -0.1486 -0.3978
 2343TIP3    H128588   2.134   2.886   0.871 -1.1739 -1.4976 -0.6649
 2343TIP3    H228589   2.049   2.968   0.965  0.4391  0.3548 -0.7504
 2344TIP3   OH228590   1.675   3.444   2.379  0.0077 -0.7287 -0.3922
 2344TIP3    H128591   1.672   3.388   2.301  0.4268 -0.6768 -0.4437
 2344TIP3    H228592   1.637   3.527   2.350  1.7071 -0.1321 -1.0142
 2345TIP3   OH228593   3.726   0.359   0.391 -0.7410 -0.5778  0.1881
 2345TIP3    H128594   3.661   0.292   0.368 -0.2028 -0.8142 -0.7183
 2345TIP3    H228595   3.810   0.321   0.363 -0.4824  0.6596 -0.7801
 2346TIP3   OH228596   0.380   3.427   2.185  0.0951  0.5160 -0.1693
 2346TIP3    H128597   0.289   3.439   2.159 -0.1515 -2.1784 -0.8138
 2346TIP3    H228598   0.425   3.403   2.104  1.1574  0.7436  0.3420
 2347TIP3   OH228599   1.422   0.964   4.205 -0.4912  0.2281  0.3426
 2347TIP3    H128600   1.400   1.057   4.197  0.3835  0.3658 -0.7281
 2347TIP3    H228601   1.485   0.961   4.277  2.4833  1.0963 -2.0039
 2348TIP3   OH228602   4.363   0.927   4.699 -0.0453  0.2753  0.2914
 2348TIP3    H128603   4.372   0.928   4.794  0.6148  0.8058  0.2229
 2348TIP3    H228604   4.452   0.935   4.665 -0.1790 -0.8021 -0.3807
 2349TIP3   OH228605   2.613   3.023   2.321  0.6678 -0.0212 -0.2655
 2349TIP3    H128606   2.642   2.958   2.257 -0.5580 -0.2118 -0.6592
 2349TIP3    H228607   2.637   2.986   2.406  1.1268 -0.3888 -0.5531
 2350TIP3   OH228608   2.304   2.743   1.131 -0.6781  0.1872 -0.4891
 2350TIP3    H128609   2.254   2.814   1.093  0.1114  0.5172 -0.9471
 2350TIP3    H228610   2.302   2.673   1.065 -0.2978  0.3150 -0.6417
 2351TIP3   OH228611   4.766   3.583   0.720 -0.1871  0.5024  0.1888
 2351TIP3    H128612   4.769   3.489   0.704  0.3624  0.5522 -0.0011
 2351TIP3    H228613   4.809   3.622   0.644  2.1110  0.7676  1.5309
 2352TIP3   OH228614   4.731   0.346   0.422  0.1858 -0.5311 -0.1146
 2352TIP3    H128615   4.701   0.367   0.334  0.5291 -1.0792 -0.3698
 2352TIP3    H228616   4.776   0.425   0.452  2.0811 -1.0582 -1.3365
 2353TIP3   OH228617   5.853   3.608   3.505 -0.3520 -0.5362  0.1083
 2353TIP3    H128618   5.873   3.521   3.470  2.3958 -0.3897  1.0499
 2353TIP3    H228619   5.837   3.593   3.599  2.2089  0.0973  0.7283
 2354TIP3   OH228620   6.099   4.415   3.110 -0.9489 -0.2323 -0.5238
 2354TIP3    H128621   6.091   4.494   3.056  2.8534  0.5140 -0.2566
 2354TIP3    H228622   6.159   4.358   3.062 -0.8437 -1.4180  0.9268
 2355TIP3   OH228623   3.428   6.588   1.471 -0.4411 -0.2963  0.1412
 2355TIP3    H128624   3.452   6.496   1.481 -0.2306 -0.0149  3.1629
 2355TIP3    H228625   3.474   6.632   1.542 -3.8709  1.4367  1.5009
 2356TIP3   OH228626   1.116   0.131   0.054  0.2705 -0.0561 -0.2151
 2356TIP3    H128627   1.084   0.076   0.126 -0.4180  2.4613  1.5117
 2356TIP3    H228628   1.211   0.128   0.062  0.2209 -0.4151  0.3132
 2357TIP3   OH228629   2.067   0.001   1.873 -0.4013  0.6125  0.1518
 2357TIP3    H128630   1.998  -0.058   1.843  1.2075 -0.9653 -0.6122
 2357TIP3    H228631   2.051   0.012   1.967 -0.4528 -1.4767  0.4173
 2358TIP3   OH228632   4.714   2.711   3.211 -0.1288  0.6333 -0.1160
 2358TIP3    H128633   4.629   2.739   3.244 -0.3573 -1.3179  1.0999
 2358TIP3    H228634   4.694   2.657   3.135 -0.0465 -0.2936  0.5035
 2359TIP3   OH228635   1.330   4.716   0.907  0.5102 -0.1177 -0.3527
 2359TIP3    H128636   1.258   4.686   0.963  1.4843  1.0637  1.6367
 2359TIP3    H228637   1.375   4.635   0.882 -0.6905 -0.7706 -0.5091
 2360TIP3   OH228638   4.741   0.685   2.035  0.0969 -0.3347  0.8574
 2360TIP3    H128639   4.664   0.683   1.978  1.0415 -0.9134 -0.4631
 2360TIP3    H228640   4.814   0.663   1.977  1.2526  0.1156  2.0891
 2361TIP3   OH228641   2.495   6.542   3.317 -0.0559  0.2454  0.1264
 2361TIP3    H128642   2.421   6.603   3.319 -1.0982 -0.6293 -3.3003
 2361TIP3    H228643   2.466   6.472   3.258  2.9232 -0.9953 -0.0604
 2362TIP3   OH228644   5.346   0.656   1.821  0.1664 -0.8744  0.6132
 2362TIP3    H128645   5.329   0.707   1.900  2.4073  0.0330  0.5873
 2362TIP3    H228646   5.398   0.582   1.851 -0.3874 -1.4515  0.1876
 2363TIP3   OH228647   1.366   5.467   5.049  0.5296  0.0157  0.6400
 2363TIP3    H128648   1.273   5.445   5.053  1.0229 -2.2974  1.0900
 2363TIP3    H228649   1.391   5.450   4.958  0.9038 -1.3867  0.9777
 2364TIP3   OH228650   2.056   0.167   2.959 -0.2994  0.0267 -0.8729
 2364TIP3    H128651   1.976   0.116   2.973 -0.8655  0.7963 -1.2576
 2364TIP3    H228652   2.055   0.190   2.866  1.0647 -1.0794 -1.2117
 2365TIP3   OH228653   2.561   5.749   2.544 -0.1204 -0.1548 -0.5608
 2365TIP3    H128654   2.540   5.675   2.488  1.6266 -0.2014 -1.2211
 2365TIP3    H228655   2.624   5.801   2.493  0.6628  0.3947  0.8918
 2366TIP3   OH228656   4.292   3.884   1.917  0.7479  0.6343  0.0024
 2366TIP3    H128657   4.381   3.912   1.938  0.5352 -0.0029  1.9052
 2366TIP3    H228658   4.262   3.837   1.994 -0.8950 -0.0531 -0.9887
 2367TIP3   OH228659   1.258   2.356   2.830  0.2897  0.1259 -0.5881
 2367TIP3    H128660   1.294   2.386   2.913  0.5266 -0.6140 -0.4129
 2367TIP3    H228661   1.298   2.414   2.765 -1.1393  1.7727 -0.0678
 2368TIP3   OH228662   2.916   1.913   3.524 -0.2022 -0.5183 -0.3305
 2368TIP3    H128663   2.980   1.912   3.453  0.9830 -0.3866  0.6962
 2368TIP3    H228664   2.942   1.840   3.580  0.7166  1.1338  1.5019
 2369TIP3   OH228665   0.687   0.252   2.508 -0.0310 -0.2776 -0.0549
 2369TIP3    H128666   0.610   0.197   2.518  0.0539 -0.6106 -1.1022
 2369TIP3    H228667   0.730   0.249   2.593 -1.0728 -0.2261  0.4908
 2370TIP3   OH228668   3.932   1.343   3.412  0.0281 -0.0486  0.1809
 2370TIP3    H128669   3.942   1.264   3.360  0.8489 -0.4557  0.9230
 2370TIP3    H228670   3.915   1.413   3.348 -2.0774 -1.0084 -0.3967
 2371TIP3   OH228671   4.140   1.866   3.033 -0.0824  0.4661  0.3104
 2371TIP3    H128672   4.230   1.834   3.038 -0.0261  0.4715 -0.5114
 2371TIP3    H228673   4.106   1.855   3.122  0.1832 -1.1831  0.2404
 2372TIP3   OH228674   3.715   4.689   1.777 -0.0518 -0.8653  0.2341
 2372TIP3    H128675   3.654   4.755   1.744  0.0226 -0.3021  1.1893
 2372TIP3    H228676   3.725   4.710   1.870  2.7811  0.0198 -0.1811
 2373TIP3   OH228677   5.923   0.446   2.523 -0.4283 -0.0429  0.0490
 2373TIP3    H128678   5.877   0.372   2.485 -3.8500  0.8251  2.0649
 2373TIP3    H228679   5.994   0.465   2.461 -2.0724 -2.2382 -2.7432
 2374TIP3   OH228680   1.003   6.518   1.030  0.2254 -0.6690  0.1425
 2374TIP3    H128681   1.047   6.583   0.975  0.7778  0.2838  1.6582
 2374TIP3    H228682   1.072   6.486   1.088 -0.3598 -1.6202  0.3366
 2375TIP3   OH228683   2.852   1.546   4.771  0.3712 -0.6836 -0.0536
 2375TIP3    H128684   2.916   1.578   4.834  1.2842 -1.2032 -0.7110
 2375TIP3    H228685   2.790   1.619   4.762  0.6790 -0.2905  0.8124
 2376TIP3   OH228686   5.738   1.076   3.674  0.0104  0.4385 -0.6864
 2376TIP3    H128687   5.715   0.999   3.726  1.3195 -0.0124 -0.7293
 2376TIP3    H228688   5.719   1.151   3.731  0.7553 -0.0219  0.1979
 2377TIP3   OH228689   0.556   4.357   8.860 -0.4091  0.2639  0.2842
 2377TIP3    H128690   0.504   4.289   8.903 -0.4837 -0.2605 -0.6003
 2377TIP3    H228691   0.514   4.368   8.774  0.8672 -0.0840 -0.3980
 2378TIP3   OH228692   6.038   6.028   4.035 -0.4320 -0.5480 -0.2680
 2378TIP3    H128693   6.110   6.051   3.977 -1.2244 -1.2251 -1.5559
 2378TIP3    H228694   6.041   5.932   4.040  0.5278 -0.4767  2.0411
 2379TIP3   OH228695   5.014   2.253   2.676 -0.2890 -0.5122  0.2541
 2379TIP3    H128696   4.919   2.247   2.672 -0.1838 -1.4830 -2.7969
 2379TIP3    H228697   5.036   2.331   2.624  0.5983 -0.0005  1.3390
 2380TIP3   OH228698   3.204   5.050   1.468 -0.0677 -0.5937 -0.1034
 2380TIP3    H128699   3.278   5.074   1.524 -1.2092  0.4076  1.0609
 2380TIP3    H228700   3.131   5.104   1.500 -1.0038 -0.6099 -2.0154
 2381TIP3   OH228701   3.828   4.753   0.673  0.5452  0.0566 -0.6493
 2381TIP3    H128702   3.765   4.824   0.686  0.2249 -0.3159 -0.1289
 2381TIP3    H228703   3.833   4.710   0.758  0.3683 -0.8442 -1.0883
 2382TIP3   OH228704   4.852   0.489   3.005  0.2921 -0.3235 -0.5342
 2382TIP3    H128705   4.886   0.496   2.916 -0.1488 -0.7568 -0.7452
 2382TIP3    H228706   4.763   0.524   3.000  0.6058  0.5650 -0.0454
 2383TIP3   OH228707   6.048   1.620   2.244  0.0007 -0.4146  0.3561
 2383TIP3    H128708   6.045   1.634   2.339 -3.1144  1.6859  0.0612
 2383TIP3    H228709   6.091   1.698   2.210 -1.3361  0.1605 -0.0844
 2384TIP3   OH228710   3.350   4.030   1.542 -0.0366 -0.2986 -0.1937
 2384TIP3    H128711   3.321   4.003   1.629  0.0043  0.2743  0.0078
 2384TIP3    H228712   3.277   4.083   1.508 -0.3273 -1.0542 -0.7802
 2385TIP3   OH228713   1.887   3.034   8.544  0.6399 -0.5956  1.1753
 2385TIP3    H128714   1.947   3.078   8.485 -1.7694 -0.1933 -1.1514
 2385TIP3    H228715   1.904   2.941   8.530  0.0939 -0.5047 -0.2192
 2386TIP3   OH228716   6.595   0.251   3.979 -0.5716  0.0114 -0.1465
 2386TIP3    H128717   6.593   0.211   4.065 -1.4320  0.0151 -0.1632
 2386TIP3    H228718   6.661   0.200   3.931 -1.1499 -0.9443  0.0495
 2387TIP3   OH228719   0.800   1.242   1.291 -0.1510 -0.0387 -0.0957
 2387TIP3    H128720   0.706   1.235   1.280 -0.1783 -0.2752  0.2649
 2387TIP3    H228721   0.821   1.332   1.264 -0.3655 -0.2278 -0.9171
 2388TIP3   OH228722   2.597   6.614   2.008  0.8654  0.1878 -0.1250
 2388TIP3    H128723   2.553   6.653   2.083  0.7727  0.6707 -0.4264
 2388TIP3    H228724   2.689   6.635   2.020  0.9536 -0.3704  0.2312
 2389TIP3   OH228725   6.077   2.671   2.984 -0.1109  0.3607 -0.3707
 2389TIP3    H128726   6.132   2.593   2.981  0.1473  0.4333  1.2851
 2389TIP3    H228727   6.022   2.666   2.906  1.5161 -0.2512 -1.5212
 2390TIP3   OH228728   2.843   3.312   2.351 -0.0569 -0.8620  0.1646
 2390TIP3    H128729   2.928   3.356   2.340 -1.0434  0.9628 -0.6025
 2390TIP3    H228730   2.842   3.286   2.443  0.4175  1.2059  0.8267
 2391TIP3   OH228731   2.374   1.165   0.205  0.6030  0.2152 -0.1973
 2391TIP3    H128732   2.389   1.250   0.164  3.4163  0.9596  1.9717
 2391TIP3    H228733   2.413   1.102   0.145 -1.4854  0.3769 -1.8179
 2392TIP3   OH228734   4.273   4.173   0.234  0.8340  0.1204  0.3351
 2392TIP3    H128735   4.237   4.087   0.213 -0.8922  0.4089  1.8473
 2392TIP3    H228736   4.210   4.212   0.294  2.2075  1.9470  0.7076
 2393TIP3   OH228737   2.415   1.936   1.400  0.3883 -0.2655 -0.3490
 2393TIP3    H128738   2.355   2.002   1.435  0.4613 -0.3096 -0.1374
 2393TIP3    H228739   2.399   1.937   1.306  2.3359  2.0486 -0.7465
 2394TIP3   OH228740   5.370   5.490   1.243 -0.1181  0.3791  0.0318
 2394TIP3    H128741   5.373   5.452   1.155  2.2394  1.4336 -0.4251
 2394TIP3    H228742   5.414   5.425   1.299  1.0954  0.9895 -0.1724
 2395TIP3   OH228743   6.356   6.439   1.547 -0.0336  0.0813 -0.1927
 2395TIP3    H128744   6.419   6.368   1.555 -1.2445 -1.2049 -1.4514
 2395TIP3    H228745   6.343   6.448   1.453  0.2119  2.1241 -0.0765
 2396TIP3   OH228746   1.248   3.600   1.572 -0.2920 -0.7924  0.2077
 2396TIP3    H128747   1.162   3.568   1.597  0.2537 -1.8447  0.8068
 2396TIP3    H228748   1.260   3.680   1.624 -0.9742 -0.5465 -0.0128
 2397TIP3   OH228749   3.415   2.870   0.527  0.3767 -0.5893 -0.2021
 2397TIP3    H128750   3.404   2.856   0.621  1.6864 -0.0933  0.0490
 2397TIP3    H228751   3.400   2.784   0.487 -1.0156 -0.6373  0.3518
 2398TIP3   OH228752   6.775   3.425   2.229 -0.1427 -0.3558 -0.1041
 2398TIP3    H128753   6.765   3.417   2.134 -2.7916 -0.9578  0.1709
 2398TIP3    H228754   6.827   3.349   2.254 -1.7840 -1.7592 -0.7861
 2399TIP3   OH228755   4.605   5.334   3.220 -0.1797  0.0063 -0.2414
 2399TIP3    H128756   4.644   5.422   3.222  0.9278 -0.4723  0.9378
 2399TIP3    H228757   4.668   5.281   3.172 -0.5308 -0.2737 -0.3904
 2400TIP3   OH228758   5.153   1.764   1.243  0.2831  0.0063  0.6333
 2400TIP3    H128759   5.167   1.737   1.153 -0.9086 -0.3436  0.5308
 2400TIP3    H228760   5.063   1.797   1.244  0.4204  0.3741  1.6011
 2401TIP3   OH228761   3.310   1.919   3.677 -0.6663 -0.1639 -0.5456
 2401TIP3    H128762   3.270   1.855   3.735 -1.7447 -0.4266 -1.5465
 2401TIP3    H228763   3.301   2.002   3.725 -1.0060 -0.4623 -0.0762
 2402TIP3   OH228764   0.989   6.369   4.682 -1.1181 -0.4306 -0.4656
 2402TIP3    H128765   0.928   6.437   4.709 -1.4047 -1.4962  1.7524
 2402TIP3    H228766   0.990   6.307   4.755  2.2174 -0.7470 -0.6356
 2403TIP3   OH228767   1.001   2.662   3.009  0.1288  0.7034 -0.3918
 2403TIP3    H128768   1.097   2.666   3.015  0.1868 -0.2607 -0.5090
 2403TIP3    H228769   0.982   2.569   2.994 -0.8288  0.8836 -0.3378
 2404TIP3   OH228770   3.126   1.611   2.629 -0.3926  0.2629  0.5016
 2404TIP3    H128771   3.137   1.706   2.641  1.1371  0.0121  1.2496
 2404TIP3    H228772   3.214   1.579   2.609 -1.2809 -0.6604 -2.5433
 2405TIP3   OH228773   4.534   3.921   0.119  0.2335  0.1410  0.1266
 2405TIP3    H128774   4.606   3.979   0.097 -0.1270 -0.0570 -1.6838
 2405TIP3    H228775   4.458   3.958   0.075  0.2449 -2.3349 -2.2649
 2406TIP3   OH228776   1.454   1.260   4.153  0.1211 -0.6640 -0.1494
 2406TIP3    H128777   1.449   1.348   4.191  1.5776 -0.4905 -0.2766
 2406TIP3    H228778   1.445   1.274   4.059  0.5251 -0.6120 -0.1851
 2407TIP3   OH228779   6.633   4.579   2.967 -0.5494  0.2764  0.1601
 2407TIP3    H128780   6.727   4.590   2.956 -0.3091 -1.7068 -0.0495
 2407TIP3    H228781   6.595   4.652   2.917  0.8359  0.1350 -1.1861
 2408TIP3   OH228782   0.738   6.523   0.342  0.0528 -0.3945 -0.0474
 2408TIP3    H128783   0.800   6.483   0.281 -1.0470 -0.8498 -0.9047
 2408TIP3    H228784   0.713   6.605   0.300 -0.1019 -0.3272  0.1767
 2409TIP3   OH228785   4.894   4.011   3.339  0.6881  0.0747 -0.1214
 2409TIP3    H128786   4.882   3.948   3.411 -0.5602 -0.4920 -0.7826
 2409TIP3    H228787   4.954   3.968   3.279 -0.4037 -0.6702 -0.7245
 2410TIP3   OH228788   0.624   4.139   1.180  0.6120  0.0152  0.1277
 2410TIP3    H128789   0.612   4.203   1.110  2.6564  1.0708  0.6458
 2410TIP3    H228790   0.718   4.140   1.198  0.1138  0.3790  3.3846
 2411TIP3   OH228791   3.011   3.922   3.280  0.3259  0.1028  0.6814
 2411TIP3    H128792   2.990   3.893   3.369  0.4345 -2.3113 -0.0048
 2411TIP3    H228793   2.933   3.969   3.251  0.5808  1.6185  2.2774
 2412TIP3   OH228794   2.382   1.482   1.803  0.0658  0.4272 -0.0257
 2412TIP3    H128795   2.459   1.521   1.762  1.2984 -0.5569  1.2367
 2412TIP3    H228796   2.383   1.390   1.774  1.0521 -0.3350  2.1923
 2413TIP3   OH228797   1.451   6.168   4.328  0.2059 -0.3191 -0.4990
 2413TIP3    H128798   1.382   6.226   4.296  1.5376  1.4028 -0.4173
 2413TIP3    H228799   1.410   6.118   4.398 -0.8936  0.8877 -0.2453
 2414TIP3   OH228800   4.552   1.602   1.891 -0.0859 -0.7125 -0.3833
 2414TIP3    H128801   4.471   1.579   1.844  0.3727 -2.1510 -0.5138
 2414TIP3    H228802   4.589   1.518   1.918  1.3185 -0.0763 -0.2322
 2415TIP3   OH228803   0.669   0.531   2.510 -0.2234  0.6157 -0.0762
 2415TIP3    H128804   0.574   0.535   2.505 -0.1076  2.3083 -3.5897
 2415TIP3    H228805   0.690   0.438   2.503 -1.5877  0.3600 -1.0354
 2416TIP3   OH228806   6.125   0.321   1.439  0.0160 -0.0413  0.0985
 2416TIP3    H128807   6.037   0.352   1.421  0.3090  1.6802  1.3527
 2416TIP3    H228808   6.116   0.266   1.517 -0.2360 -1.7841 -1.0978
 2417TIP3   OH228809   1.762   6.632   1.828  0.0878  0.4425 -0.0384
 2417TIP3    H128810   1.766   6.648   1.733 -1.1102  0.3935 -0.1141
 2417TIP3    H228811   1.738   6.716   1.866 -1.3677  0.0251  0.0213
 2418TIP3   OH228812   2.937   5.585   4.920 -0.7234  0.3081  0.3991
 2418TIP3    H128813   2.851   5.596   4.960 -1.0522 -0.3917 -0.0801
 2418TIP3    H228814   2.925   5.616   4.830 -0.2082  1.1143  0.6006
 2419TIP3   OH228815   1.706   5.955   1.268 -0.2318 -0.0074  0.3728
 2419TIP3    H128816   1.775   5.985   1.209  0.3279  0.6350  1.3180
 2419TIP3    H228817   1.634   5.928   1.210  0.7892 -0.6523 -0.6260
 2420TIP3   OH228818   0.404   1.472   0.210 -0.3983 -0.6111  0.2782
 2420TIP3    H128819   0.385   1.461   0.303 -0.0161 -2.0681  0.2053
 2420TIP3    H228820   0.475   1.411   0.193  0.7109  0.8521 -0.6169
 2421TIP3   OH228821   3.831   3.903   1.011 -0.6564 -0.3470 -0.5045
 2421TIP3    H128822   3.850   3.959   0.936 -1.2640  0.7561  0.1420
 2421TIP3    H228823   3.781   3.829   0.974 -0.1262 -0.3107 -1.3157
 2422TIP3   OH228824   5.896   6.611   3.119 -0.5276  0.3299 -0.0832
 2422TIP3    H128825   5.878   6.529   3.073  1.7048 -0.0666 -0.3659
 2422TIP3    H228826   5.925   6.671   3.050 -1.3338  1.1105  0.2387
 2423TIP3   OH228827   6.510   5.064   3.038  0.4769 -0.2141  0.1693
 2423TIP3    H128828   6.566   5.022   3.102 -0.1016  0.9245  1.4670
 2423TIP3    H228829   6.421   5.054   3.073  0.1315  0.2890 -0.5284
 2424TIP3   OH228830   0.534   3.762   3.613  0.7305  0.4758 -0.5385
 2424TIP3    H128831   0.626   3.772   3.591  0.9038 -1.0443 -0.6146
 2424TIP3    H228832   0.532   3.688   3.674 -0.6209 -0.8596 -2.1194
 2425TIP3   OH228833   5.275   5.799   3.400 -0.7127  0.0205 -0.0681
 2425TIP3    H128834   5.208   5.774   3.336  0.9322  2.6828 -3.1417
 2425TIP3    H228835   5.314   5.716   3.427 -1.6044 -1.2733 -2.4373
 2426TIP3   OH228836   2.171   0.062   1.266 -0.2493 -0.3152  0.4444
 2426TIP3    H128837   2.133  -0.026   1.271 -0.3803 -0.2944 -0.1259
 2426TIP3    H228838   2.227   0.059   1.188 -0.4137  0.1689  0.3074
 2427TIP3   OH228839   5.535   1.117   2.744 -0.8524 -0.1917  0.1825
 2427TIP3    H128840   5.517   1.029   2.711  0.0792 -0.6448  0.8348
 2427TIP3    H228841   5.471   1.130   2.814 -1.6079  0.0356 -0.5320
 2428TIP3   OH228842   0.675   4.278   2.959  0.1181 -0.3131 -0.3538
 2428TIP3    H128843   0.680   4.219   3.034 -1.6289  0.4164  0.3867
 2428TIP3    H228844   0.683   4.366   2.996  0.0147  0.0272 -1.1075
 2429TIP3   OH228845   6.503   0.025   4.717  0.0431 -0.0034 -0.4193
 2429TIP3    H128846   6.559   0.089   4.761  0.5929  0.5701 -1.8963
 2429TIP3    H228847   6.439   0.077   4.669 -0.6813 -0.6228 -0.1516
 2430TIP3   OH228848   5.341   4.123   8.500 -0.2632 -0.3666 -0.4479
 2430TIP3    H128849   5.253   4.127   8.461 -0.8580 -0.0643  0.8407
 2430TIP3    H228850   5.376   4.212   8.489  0.0675 -0.5982 -1.3400
 2431TIP3   OH228851   1.567   6.451   0.984  0.9694  0.0250  0.4026
 2431TIP3    H128852   1.591   6.410   0.901 -1.1809 -0.4486 -0.0295
 2431TIP3    H228853   1.581   6.545   0.969  0.6227 -0.0609 -0.4953
 2432TIP3   OH228854   1.067   2.990   1.220  0.1421 -0.3181  0.0193
 2432TIP3    H128855   1.113   2.991   1.304  1.6485 -0.5459 -0.7651
 2432TIP3    H228856   1.065   2.897   1.195 -1.9918 -0.4987  0.6487
 2433TIP3   OH228857   1.414   1.090   1.854 -1.0645 -0.4949  0.2817
 2433TIP3    H128858   1.355   1.041   1.796 -0.3625 -0.7164 -0.2509
 2433TIP3    H228859   1.406   1.180   1.825 -0.2733 -0.6880 -0.5465
 2434TIP3   OH228860   2.035   0.422   1.887 -0.3358  0.6157  0.0565
 2434TIP3    H128861   2.010   0.331   1.872  2.6981 -0.2246 -0.8208
 2434TIP3    H228862   1.970   0.473   1.839 -1.4732 -1.1572 -0.3817
 2435TIP3   OH228863   0.599   2.870   0.788 -0.0405 -0.0774 -0.3308
 2435TIP3    H128864   0.645   2.954   0.790  1.1776 -0.7213  0.4120
 2435TIP3    H228865   0.547   2.873   0.708  0.5169  1.1042 -0.6737
 2436TIP3   OH228866   6.279   4.669   4.352 -0.6528 -0.2264 -0.9774
 2436TIP3    H128867   6.358   4.622   4.326 -0.4560 -0.6855  0.3796
 2436TIP3    H228868   6.255   4.630   4.436 -1.2171  1.2366 -0.4417
 2437TIP3   OH228869   3.947   4.432   3.121  0.1290  0.8354 -0.1502
 2437TIP3    H128870   3.999   4.388   3.188 -0.3060  0.7558  0.1338
 2437TIP3    H228871   3.857   4.410   3.141 -0.0237  1.0098 -0.6197
 2438TIP3   OH228872   4.859   2.365   3.253  0.3195  0.1696 -0.5234
 2438TIP3    H128873   4.766   2.376   3.232 -0.0479 -1.0913  0.3236
 2438TIP3    H228874   4.904   2.432   3.201 -0.9762  0.2185 -1.6270
 2439TIP3   OH228875   1.903   4.756   1.899 -0.4119  0.4699 -0.0227
 2439TIP3    H128876   1.817   4.785   1.870 -2.0281 -2.8071  0.9755
 2439TIP3    H228877   1.910   4.788   1.989 -0.2413  1.3251 -0.3300
 2440TIP3   OH228878   2.471   5.566   8.837  0.5848 -0.3637 -0.3034
 2440TIP3    H128879   2.448   5.498   8.900  0.8923 -0.1883 -0.0001
 2440TIP3    H228880   2.514   5.518   8.766  1.7079 -0.3927  0.3643
 2441TIP3   OH228881   1.947   5.845   1.448 -0.1002 -0.8464  1.0573
 2441TIP3    H128882   1.887   5.877   1.380  1.4209 -0.9725 -0.4054
 2441TIP3    H228883   1.946   5.750   1.438  1.2543 -0.7885  0.1806
 2442TIP3   OH228884   1.315   3.720   4.158 -0.0455 -0.1646 -0.4605
 2442TIP3    H128885   1.349   3.809   4.165 -1.1414  0.2222  0.1856
 2442TIP3    H228886   1.290   3.697   4.247 -1.7512 -0.2973 -0.9488
 2443TIP3   OH228887   2.763   4.334   3.847 -0.1216  0.1009 -0.0021
 2443TIP3    H128888   2.674   4.354   3.875  0.3610  2.8077 -0.1148
 2443TIP3    H228889   2.816   4.347   3.925  0.4547  1.1088 -0.5440
 2444TIP3   OH228890   3.122   2.275   0.101  0.1813  0.5626  0.1574
 2444TIP3    H128891   3.117   2.212   0.173 -0.4331 -0.2178 -0.5433
 2444TIP3    H228892   3.106   2.222   0.023 -1.9979  1.8216 -0.3356
 2445TIP3   OH228893   4.528   1.223   4.684  0.1667 -0.1555 -0.9652
 2445TIP3    H128894   4.592   1.262   4.743  1.8627 -1.8580 -1.5553
 2445TIP3    H228895   4.522   1.132   4.713 -1.2299 -0.2843 -1.5906
 2446TIP3   OH228896   2.007   3.752   0.520 -0.0042 -0.3918 -0.5683
 2446TIP3    H128897   1.938   3.817   0.507 -0.4090 -0.7667 -0.3214
 2446TIP3    H228898   2.039   3.733   0.432  1.1852  1.2703 -0.5410
 2447TIP3   OH228899   0.355   0.780   3.461 -0.7656  0.5663  0.6786
 2447TIP3    H128900   0.438   0.814   3.494  0.0959 -1.6047  0.8645
 2447TIP3    H228901   0.336   0.704   3.516 -2.0659  0.0737 -0.4003
 2448TIP3   OH228902   4.941   0.353   3.242  0.8615 -0.3763 -0.0837
 2448TIP3    H128903   4.910   0.407   3.169  0.6308  0.8206  0.8675
 2448TIP3    H228904   4.883   0.375   3.315  1.9459 -0.5002  0.8501
 2449TIP3   OH228905   5.820   0.985   3.032 -0.0605  0.2393  0.2512
 2449TIP3    H128906   5.788   0.918   2.972  0.7494 -0.6750  0.8114
 2449TIP3    H228907   5.756   0.987   3.102  0.9349 -1.4776  1.2926
 2450TIP3   OH228908   3.939   2.225   0.483 -0.7260 -0.0480  0.2921
 2450TIP3    H128909   3.861   2.273   0.456 -0.6859 -0.6275 -0.9210
 2450TIP3    H228910   3.953   2.161   0.414  0.0350 -0.8783  1.1778
 2451TIP3   OH228911   5.696   0.707   1.715  0.5168 -0.0718 -0.1175
 2451TIP3    H128912   5.639   0.734   1.643  1.5029  2.9210  0.0739
 2451TIP3    H228913   5.770   0.663   1.673  0.0882 -0.2107 -0.7371
 2452TIP3   OH228914   4.195   6.376   0.767 -0.3715  0.2692 -0.0140
 2452TIP3    H128915   4.115   6.366   0.716 -1.0719 -0.3844  1.1632
 2452TIP3    H228916   4.263   6.393   0.702 -1.3698  0.3200 -1.0796
 2453TIP3   OH228917   2.753   3.880   1.282  0.2238  0.3437  0.1886
 2453TIP3    H128918   2.838   3.882   1.239  1.2613 -0.2049  2.0968
 2453TIP3    H228919   2.756   3.801   1.337 -1.0949  0.8834  1.0837
 2454TIP3   OH228920   4.332   6.317   1.299  0.2509  0.7381  0.4769
 2454TIP3    H128921   4.261   6.344   1.240  0.3224  0.0530  0.0626
 2454TIP3    H228922   4.288   6.266   1.368  0.5745 -2.1300 -1.2767
 2455TIP3   OH228923   4.083   1.021   3.864  0.1325  0.0852  0.0786
 2455TIP3    H128924   4.040   1.020   3.949  0.7843  1.4108  0.4429
 2455TIP3    H228925   4.018   1.057   3.804  0.7956  2.4624  0.7022
 2456TIP3   OH228926   5.288   1.816   2.648  0.2551  0.0352  0.2932
 2456TIP3    H128927   5.228   1.814   2.574  0.8669 -1.0105 -0.1965
 2456TIP3    H228928   5.345   1.891   2.631 -0.4434  0.6013  0.3971
 2457TIP3   OH228929   3.316   2.809   3.114  0.0910 -0.3869 -0.1419
 2457TIP3    H128930   3.249   2.854   3.063  2.0429  0.6003 -2.0069
 2457TIP3    H228931   3.341   2.871   3.182 -0.7992 -0.7287  0.5103
 2458TIP3   OH228932   4.545   1.443   3.471 -0.7408  0.3561  0.0019
 2458TIP3    H128933   4.499   1.360   3.484 -1.0295  0.4713 -0.2589
 2458TIP3    H228934   4.553   1.481   3.558  0.7153 -0.6272  0.3345
 2459TIP3   OH228935   1.484   4.642   3.596  0.0660 -0.0338 -0.1192
 2459TIP3    H128936   1.527   4.695   3.663 -0.4446  0.1002  0.1125
 2459TIP3    H228937   1.542   4.647   3.521  1.3065 -1.2577  0.7203
 2460TIP3   OH228938   4.647   2.560   8.777 -0.3268 -0.3511 -0.1324
 2460TIP3    H128939   4.589   2.498   8.733 -0.3389 -0.4181 -0.0244
 2460TIP3    H228940   4.672   2.515   8.858  1.1253 -0.9652 -0.8874
 2461TIP3   OH228941   0.448   0.740   0.992  0.4299 -0.5293  0.0605
 2461TIP3    H128942   0.373   0.684   0.975 -0.1217  0.5181 -1.1815
 2461TIP3    H228943   0.499   0.737   0.911 -0.0537  1.3548 -0.3766
 2462TIP3   OH228944   1.788   2.443   4.037 -0.1518 -0.5636  0.0381
 2462TIP3    H128945   1.782   2.538   4.042 -1.6781 -0.6134 -0.4572
 2462TIP3    H228946   1.805   2.415   4.127 -0.6701  0.1192  0.3593
 2463TIP3   OH228947   1.503   2.204   4.132 -0.0198 -0.3647 -0.4507
 2463TIP3    H128948   1.462   2.282   4.169  0.4510 -1.3271  2.4104
 2463TIP3    H228949   1.581   2.190   4.186  0.9857 -1.7311 -2.1417
 2464TIP3   OH228950   0.313   1.264   8.749  0.0234  0.2077 -0.0618
 2464TIP3    H128951   0.244   1.205   8.719 -1.0790  1.6576 -0.4597
 2464TIP3    H228952   0.368   1.209   8.805  0.2503 -1.7412 -2.0412
 2465TIP3   OH228953   1.661   3.438   2.642  0.9278 -0.7643  0.0946
 2465TIP3    H128954   1.568   3.419   2.635  0.7726  0.3058 -1.0892
 2465TIP3    H228955   1.689   3.457   2.553  2.0734 -0.1335  0.5576
 2466TIP3   OH228956   4.443   3.178   1.162  0.3271 -0.0367 -0.3988
 2466TIP3    H128957   4.419   3.089   1.189  0.8364 -0.0856 -0.0875
 2466TIP3    H228958   4.382   3.235   1.210 -0.5578 -0.2436 -1.2416
 2467TIP3   OH228959   2.083   3.765   2.479 -0.4507  0.0632  0.3685
 2467TIP3    H128960   2.033   3.830   2.430  0.7067 -0.5380 -1.7543
 2467TIP3    H228961   2.027   3.740   2.552 -1.8027  1.8394 -0.0109
 2468TIP3   OH228962   1.377   0.851   2.770  0.4702 -0.1027  0.0107
 2468TIP3    H128963   1.467   0.838   2.801 -0.3399 -0.7866  2.2415
 2468TIP3    H228964   1.369   0.794   2.694  1.4152 -1.3729  0.8313
 2469TIP3   OH228965   5.939   2.739   0.556  0.7670  0.4097  0.0226
 2469TIP3    H128966   6.012   2.680   0.535 -0.8376 -1.9518  0.6323
 2469TIP3    H228967   5.952   2.814   0.498  2.3967 -0.9804 -1.5620
 2470TIP3   OH228968   2.170   4.723   1.979 -0.0745 -0.1184 -0.1373
 2470TIP3    H128969   2.238   4.787   1.963  0.3735 -0.6311 -0.3150
 2470TIP3    H228970   2.092   4.759   1.936  0.6874 -0.6605 -2.0612
 2471TIP3   OH228971   3.515   4.142   8.661 -0.2390 -0.3637  0.1192
 2471TIP3    H128972   3.590   4.137   8.601 -0.0291  1.1524  0.2134
 2471TIP3    H228973   3.487   4.052   8.671  1.0073 -0.8720 -0.6489
 2472TIP3   OH228974   3.696   3.852   2.446 -0.2291 -0.5710 -0.1525
 2472TIP3    H128975   3.737   3.794   2.382 -0.3488 -0.7408 -0.0770
 2472TIP3    H228976   3.714   3.940   2.413 -1.0145 -0.6658 -0.8822
 2473TIP3   OH228977   4.213   5.215   0.787  0.3278  0.1772  0.8901
 2473TIP3    H128978   4.204   5.256   0.701  0.5167  1.4536  1.4605
 2473TIP3    H228979   4.276   5.144   0.774  1.9526  1.6586  0.3896
 2474TIP3   OH228980   4.561   2.677   4.292 -0.1265  0.2369 -0.4818
 2474TIP3    H128981   4.572   2.675   4.387  0.5382 -0.5412 -0.5611
 2474TIP3    H228982   4.512   2.597   4.272 -1.9989  1.3528 -0.6235
 2475TIP3   OH228983   3.903   3.648   0.114 -0.7777 -0.3421  0.4146
 2475TIP3    H128984   3.831   3.669   0.054 -0.4568  1.4084  0.6065
 2475TIP3    H228985   3.982   3.674   0.066 -0.3062 -1.5684  0.4964
 2476TIP3   OH228986   0.194   0.751   1.923  0.5949  0.0877 -0.5350
 2476TIP3    H128987   0.261   0.695   1.962  0.8329 -0.9647 -2.3499
 2476TIP3    H228988   0.241   0.800   1.855 -0.2751  0.0242 -1.1988
 2477TIP3   OH228989   0.367   6.588   3.437  0.2526 -0.1057  0.1502
 2477TIP3    H128990   0.287   6.540   3.455  0.2751 -0.5432 -0.8347
 2477TIP3    H228991   0.415   6.588   3.520 -1.2351  1.1026  1.0669
 2478TIP3   OH228992   0.923   2.614   8.846 -0.8366 -0.0854  0.7459
 2478TIP3    H128993   0.969   2.607   8.762 -2.6462 -0.4197 -0.2669
 2478TIP3    H228994   0.993   2.621   8.911  0.6212  0.2256 -0.7813
 2479TIP3   OH228995   0.017   2.974   2.927 -0.8088  0.3657 -0.4137
 2479TIP3    H128996  -0.008   2.976   3.020 -1.9690 -0.2369 -0.7053
 2479TIP3    H228997   0.055   2.887   2.914 -2.1847 -0.1919 -0.8729
 2480TIP3   OH228998   2.411   4.501   2.276 -0.2071  0.5480  1.0076
 2480TIP3    H128999   2.486   4.525   2.221  0.3997 -0.0494  1.5494
 2480TIP3    H229000   2.349   4.573   2.265 -0.8395 -0.2782 -1.7608
 2481TIP3   OH229001   0.734   3.859   0.718 -0.1445  0.1520 -0.5566
 2481TIP3    H129002   0.659   3.917   0.709 -0.9514 -1.0145 -1.7576
 2481TIP3    H229003   0.742   3.843   0.812 -0.0395  1.9788 -0.2258
 2482TIP3   OH229004   3.114   3.583   3.738 -0.3406  0.4463 -0.1942
 2482TIP3    H129005   3.192   3.531   3.758 -1.1330 -0.5601  0.2976
 2482TIP3    H229006   3.040   3.527   3.760 -1.2429  2.0520  1.1706
 2483TIP3   OH229007   3.517   5.500   1.601 -0.0277  0.4318 -0.7610
 2483TIP3    H129008   3.512   5.414   1.560 -1.4798 -0.3230  0.8695
 2483TIP3    H229009   3.557   5.485   1.686  0.9562  1.6145 -0.9812
 2484TIP3   OH229010   1.209   5.427   2.871 -0.0106  0.0819 -0.5491
 2484TIP3    H129011   1.237   5.357   2.812 -1.3815 -0.9240 -0.0750
 2484TIP3    H229012   1.185   5.500   2.814  2.7681  0.7501 -0.9959
 2485TIP3   OH229013   5.651   1.600   4.351  0.2843  0.1610  0.5268
 2485TIP3    H129014   5.611   1.686   4.342 -0.9854 -0.5336 -0.9855
 2485TIP3    H229015   5.676   1.575   4.262  0.2506 -1.1863  0.8675
 2486TIP3   OH229016   3.342   2.301   3.026  0.2749 -0.1294  0.8470
 2486TIP3    H129017   3.362   2.372   3.087  0.4522  1.2288 -0.7175
 2486TIP3    H229018   3.274   2.251   3.071 -0.4287  1.4851  1.7113
 2487TIP3   OH229019   0.321   5.661   4.392  0.0587  0.1614 -0.1215
 2487TIP3    H129020   0.337   5.608   4.470  1.0933  1.8372  0.8781
 2487TIP3    H229021   0.401   5.651   4.340 -0.8893 -1.4823 -1.3588
 2488TIP3   OH229022   1.723   1.700   1.785  0.9813 -0.7997 -0.2492
 2488TIP3    H129023   1.714   1.660   1.871  1.8628  0.1065  0.2848
 2488TIP3    H229024   1.633   1.707   1.752  0.7157 -2.0799  0.1406
 2489TIP3   OH229025   0.957   0.948   1.030 -0.1303  0.3083  0.0247
 2489TIP3    H129026   0.964   0.942   0.934  0.4067 -0.9803  0.1263
 2489TIP3    H229027   0.973   1.040   1.049 -1.0304  0.7572 -1.1832
 2490TIP3   OH229028   1.187   0.557   4.009 -0.3016  0.3542 -0.3643
 2490TIP3    H129029   1.108   0.581   3.961  0.4676  2.1283 -0.8067
 2490TIP3    H229030   1.200   0.627   4.072  0.8865  0.0631 -0.2589
 2491TIP3   OH229031   1.593   1.198   0.820  0.1661  0.2555  0.2064
 2491TIP3    H129032   1.611   1.222   0.911  1.2765  2.6569 -0.5494
 2491TIP3    H229033   1.532   1.266   0.790 -0.6771 -0.8599 -0.6924
 2492TIP3   OH229034   1.846   5.022   2.956  0.2285 -0.1625  0.3010
 2492TIP3    H129035   1.860   5.013   3.050 -2.0441 -0.7777  0.6374
 2492TIP3    H229036   1.822   4.934   2.926 -5.6316  0.9439  0.5108
 2493TIP3   OH229037   2.684   2.014   3.386 -0.4685 -0.3850 -0.2128
 2493TIP3    H129038   2.604   2.005   3.438  1.4736 -0.9872  2.9373
 2493TIP3    H229039   2.750   1.967   3.436  2.4768  2.3264 -1.2227
 2494TIP3   OH229040   6.545   5.367   1.101 -0.4961  0.5024  0.7522
 2494TIP3    H129041   6.629   5.349   1.058  1.3054  0.0566  4.1584
 2494TIP3    H229042   6.543   5.462   1.110 -1.0599  0.6342 -0.5042
 2495TIP3   OH229043   6.760   3.195   2.665 -0.0992 -0.4057 -0.0490
 2495TIP3    H129044   6.723   3.108   2.655 -1.9705  0.1698  1.3608
 2495TIP3    H229045   6.744   3.238   2.581  0.2920 -1.1897 -0.5389
 2496TIP3   OH229046   2.907   6.395   1.760  0.3097 -0.2001 -0.1584
 2496TIP3    H129047   2.984   6.351   1.795  0.9742  1.6870  0.8712
 2496TIP3    H229048   2.835   6.366   1.816  0.4517 -1.1272 -0.4451
 2497TIP3   OH229049   5.582   3.146   0.976  0.1391  0.1262  0.0418
 2497TIP3    H129050   5.568   3.193   0.893 -1.5537 -0.6898 -0.1834
 2497TIP3    H229051   5.589   3.216   1.042 -0.8347  0.7543 -0.4939
 2498TIP3   OH229052   3.287   6.147   3.825  0.0378  0.0133 -0.0430
 2498TIP3    H129053   3.268   6.150   3.918  1.4422 -0.5331  0.2841
 2498TIP3    H229054   3.206   6.115   3.785 -0.6754  0.5436  0.9431
 2499TIP3   OH229055   1.313   1.978   2.290 -0.0010  0.0777  0.4984
 2499TIP3    H129056   1.279   2.061   2.258  0.6886 -0.3520 -1.4639
 2499TIP3    H229057   1.366   2.002   2.366 -0.5443  1.3144  0.5083
 2500TIP3   OH229058   2.324   6.554   0.465 -0.1376  0.4360 -0.0147
 2500TIP3    H129059   2.357   6.620   0.525  0.0001  2.2560 -1.9548
 2500TIP3    H229060   2.229   6.560   0.471 -0.1245  0.8262 -0.1799
 2501TIP3   OH229061   3.523   1.325   4.220  0.4935 -0.0900 -0.4702
 2501TIP3    H129062   3.593   1.380   4.254 -0.4312 -0.3054  2.0045
 2501TIP3    H229063   3.501   1.267   4.293 -0.0915 -2.2192 -2.2551
 2502TIP3   OH229064   4.902   3.933   1.808 -0.0886  0.4593 -0.3922
 2502TIP3    H129065   4.924   3.840   1.807  1.3133  0.7666 -1.2757
 2502TIP3    H229066   4.941   3.966   1.889 -1.0800  0.1783  0.2066
 2503TIP3   OH229067   2.782   6.294   0.562 -0.5183  0.2825 -0.3692
 2503TIP3    H129068   2.862   6.347   0.569  0.2141 -0.7759 -0.5937
 2503TIP3    H229069   2.721   6.350   0.515  0.2086  0.9729 -0.5231
 2504TIP3   OH229070   5.264   6.798   0.511 -0.4688  0.4754 -0.3014
 2504TIP3    H129071   5.170   6.793   0.498 -0.3814 -0.6259 -0.6553
 2504TIP3    H229072   5.289   6.710   0.541  0.5064  0.5922 -0.7082
 2505TIP3   OH229073   5.329   6.598   0.807 -0.2372 -0.0167 -0.1973
 2505TIP3    H129074   5.279   6.518   0.826  0.6731 -0.5324  0.0842
 2505TIP3    H229075   5.388   6.573   0.736 -0.5868  0.6804 -0.7495
 2506TIP3   OH229076   5.361   0.626   2.159 -0.4833  0.3721  0.4231
 2506TIP3    H129077   5.448   0.653   2.130 -0.2680  0.0137  0.7294
 2506TIP3    H229078   5.377   0.575   2.238 -0.6659 -2.7493 -1.4041
 2507TIP3   OH229079   4.481   3.175   0.874  0.1600 -0.1001 -0.0234
 2507TIP3    H129080   4.415   3.244   0.867  0.3758  0.1201  0.0710
 2507TIP3    H229081   4.504   3.174   0.967  0.8240  0.3342 -0.1729
 2508TIP3   OH229082   0.594   0.907   3.530 -0.1405  0.1069 -0.2188
 2508TIP3    H129083   0.583   0.997   3.559 -0.2125 -0.0501  0.2536
 2508TIP3    H229084   0.689   0.893   3.529 -0.1510 -0.1430  0.7777
 2509TIP3   OH229085   1.944   5.919   0.629 -0.4751 -0.4742  0.0648
 2509TIP3    H129086   1.906   5.881   0.550 -0.3052 -2.9447  1.0508
 2509TIP3    H229087   2.037   5.928   0.608 -0.6859  0.3481 -0.5246
 2510TIP3   OH229088   5.253   4.819   2.815  0.1483  0.0616 -0.0133
 2510TIP3    H129089   5.267   4.725   2.827  1.9592  0.3168  0.1316
 2510TIP3    H229090   5.226   4.850   2.901  1.2013 -0.0684  0.3762
 2511TIP3   OH229091   4.543   2.933   0.016 -0.1985  0.2775 -0.1335
 2511TIP3    H129092   4.563   3.016   0.059 -1.5587 -0.1390  1.4126
 2511TIP3    H229093   4.449   2.922   0.028 -0.3862 -0.5564 -2.0663
 2512TIP3   OH229094   2.407   1.045   2.198  0.3838 -0.3309 -0.4103
 2512TIP3    H129095   2.490   1.093   2.206  0.2610 -0.2046  0.2025
 2512TIP3    H229096   2.358   1.070   2.277  0.1683 -1.1780 -0.2699
 2513TIP3   OH229097   0.669   1.492   0.638 -0.2072  0.3162 -0.4579
 2513TIP3    H129098   0.701   1.409   0.603  3.7229 -0.1857  3.4480
 2513TIP3    H229099   0.688   1.556   0.569  1.3886 -1.3419 -1.6439
 2514TIP3   OH229100   4.737   4.926   3.834 -0.0683 -0.2626 -0.2565
 2514TIP3    H129101   4.642   4.923   3.846  0.0859 -1.3172  0.9274
 2514TIP3    H229102   4.771   4.872   3.905  1.6223  3.2459  1.8688
 2515TIP3   OH229103   6.676   1.626   0.722  0.3044 -0.4712 -0.0059
 2515TIP3    H129104   6.613   1.578   0.669  1.2653 -1.9426  0.1030
 2515TIP3    H229105   6.712   1.693   0.663 -1.4183  0.4961 -0.0147
 2516TIP3   OH229106   4.555   0.084   4.870 -0.4384  0.4238  0.3159
 2516TIP3    H129107   4.530   0.149   4.935  3.3850 -0.0719  2.5718
 2516TIP3    H229108   4.601   0.016   4.919  0.3149 -1.3810 -2.6028
 2517TIP3   OH229109   4.512   3.652   8.575 -0.1159  0.3814  0.5013
 2517TIP3    H129110   4.558   3.736   8.585  2.5644 -0.9293  0.1485
 2517TIP3    H229111   4.515   3.634   8.481  0.2410 -0.5538  0.6846
 2518TIP3   OH229112   6.610   1.394   2.475 -0.6687 -0.4005 -0.0314
 2518TIP3    H129113   6.635   1.457   2.543  2.1552  1.0836 -2.1811
 2518TIP3    H229114   6.587   1.315   2.522  1.6613  0.3779  2.6791
 2519TIP3   OH229115   6.438   5.084   1.331  0.3740 -0.2260  0.5857
 2519TIP3    H129116   6.419   4.990   1.335 -2.7063  0.3230  2.0758
 2519TIP3    H229117   6.357   5.123   1.297  1.3859  1.9624  0.5282
 2520TIP3   OH229118   4.493   4.825   2.435  0.3193 -0.4894 -0.2389
 2520TIP3    H129119   4.499   4.802   2.528  1.4448  1.0303  0.0915
 2520TIP3    H229120   4.494   4.920   2.433  0.1128 -0.4876 -1.8182
 2521TIP3   OH229121   6.077   6.477   2.066 -0.5324  0.0478 -0.2220
 2521TIP3    H129122   6.011   6.546   2.057 -1.2796 -0.6674 -0.4017
 2521TIP3    H229123   6.065   6.445   2.155  0.3010  0.6177  0.1072
 2522TIP3   OH229124   2.849   3.504   1.165  0.3825 -0.3764 -0.0851
 2522TIP3    H129125   2.924   3.469   1.213 -0.0663 -0.2816  0.6926
 2522TIP3    H229126   2.888   3.553   1.093  1.1518  1.5371  1.5574
 2523TIP3   OH229127   1.454   2.103   2.493 -0.0313  0.2002 -0.6496
 2523TIP3    H129128   1.538   2.079   2.453 -0.6235 -1.6971 -0.8512
 2523TIP3    H229129   1.451   2.053   2.574 -0.1514  1.7564  0.3620
 2524TIP3   OH229130   1.811   2.738   0.977  0.3350  0.2389 -0.6889
 2524TIP3    H129131   1.860   2.698   0.905  1.6101  0.5740 -0.0506
 2524TIP3    H229132   1.879   2.777   1.033 -0.6276  0.1852  0.5680
 2525TIP3   OH229133   2.340   0.921   1.902  0.0002  0.1152 -0.5661
 2525TIP3    H129134   2.342   0.941   1.996  0.1271  0.5388 -0.6576
 2525TIP3    H229135   2.268   0.858   1.892  0.8032 -0.9307  0.0107
 2526TIP3   OH229136   4.426   2.511   2.181 -0.4863 -0.5803 -0.0819
 2526TIP3    H129137   4.390   2.463   2.255  0.8149 -1.3597  0.0768
 2526TIP3    H229138   4.478   2.581   2.221 -2.6926  1.3294 -0.3023
 2527TIP3   OH229139   3.139   3.892   3.044  0.4285  0.4222  0.5614
 2527TIP3    H129140   3.105   3.874   3.131  0.7440  0.7058  0.7477
 2527TIP3    H229141   3.211   3.829   3.032  1.7130  1.6764  1.3237
 2528TIP3   OH229142   1.890   2.232   3.060  0.6084  0.3594 -0.0708
 2528TIP3    H129143   1.797   2.248   3.073  0.4154 -0.1482 -0.7763
 2528TIP3    H229144   1.928   2.318   3.044  0.5415  0.7812  1.7853
 2529TIP3   OH229145   0.382   0.180   3.463  0.1654 -0.5970  0.0728
 2529TIP3    H129146   0.453   0.121   3.485 -0.0245 -0.3371  1.4777
 2529TIP3    H229147   0.389   0.252   3.526 -0.3343  0.2838 -0.8293
 2530TIP3   OH229148   4.263   4.142   4.616  0.2669  0.1395 -0.1074
 2530TIP3    H129149   4.332   4.078   4.601  0.5954  0.8308 -1.7328
 2530TIP3    H229150   4.182   4.091   4.613  0.5527 -0.2756 -0.8275
 2531TIP3   OH229151   4.352   2.921   1.170  0.2857  0.0939 -0.1834
 2531TIP3    H129152   4.318   2.860   1.236  0.0472 -1.1849 -1.4243
 2531TIP3    H229153   4.278   2.935   1.111  0.9425 -0.0962 -1.0806
 2532TIP3   OH229154   4.271   5.508   2.281 -0.0636 -0.0980  0.5023
 2532TIP3    H129155   4.356   5.473   2.309  0.5571  0.1908 -0.9024
 2532TIP3    H229156   4.294   5.571   2.213 -1.5357 -2.3116 -2.2514
 2533TIP3   OH229157   5.714   3.308   3.098  0.4177 -0.3366  0.1342
 2533TIP3    H129158   5.678   3.275   3.180 -0.1990  0.7455  0.3179
 2533TIP3    H229159   5.794   3.257   3.085  0.3536 -0.7487  1.2356
 2534TIP3   OH229160   6.247   4.261   3.503  0.1476  0.4973 -0.0176
 2534TIP3    H129161   6.275   4.176   3.470  1.7338  1.3957 -1.1506
 2534TIP3    H229162   6.154   4.250   3.523  0.2200 -1.3655 -0.5231
 2535TIP3   OH229163   4.599   5.478   2.605  0.0696  0.5076  0.7144
 2535TIP3    H129164   4.647   5.412   2.556 -1.6928  0.2920 -0.8063
 2535TIP3    H229165   4.507   5.452   2.598 -0.4539  1.7713  2.1746
 2536TIP3   OH229166   6.788   0.211   2.938  0.0997  0.4141 -0.2417
 2536TIP3    H129167   6.812   0.176   3.024  0.4716  1.2687  0.0128
 2536TIP3    H229168   6.772   0.304   2.954  0.1743  0.5780 -1.1049
 2537TIP3   OH229169   4.742   0.911   5.323  0.1339 -0.2825  0.2020
 2537TIP3    H129170   4.708   0.828   5.358 -0.1180  0.0576  0.7942
 2537TIP3    H229171   4.780   0.955   5.399 -1.6391  1.0794  0.3637
 2538TIP3   OH229172   1.691   1.309   1.786 -0.3446 -0.1293  0.1402
 2538TIP3    H129173   1.660   1.222   1.809 -1.1317 -0.1101 -0.7328
 2538TIP3    H229174   1.714   1.302   1.693  0.6152  0.3212  0.3385
 2539TIP3   OH229175   6.118   3.268   4.005 -0.0507 -0.1673 -0.0208
 2539TIP3    H129176   6.192   3.328   4.008  0.2063 -0.5182  1.7942
 2539TIP3    H229177   6.067   3.290   4.083 -2.2934  0.5672 -1.5804
 2540TIP3   OH229178   2.123   4.691   0.837 -0.0396 -0.2795  0.0342
 2540TIP3    H129179   2.177   4.669   0.914 -0.8593 -0.1073  0.6742
 2540TIP3    H229180   2.043   4.728   0.874 -1.2725 -1.9584 -0.8422
 2541TIP3   OH229181   0.736   4.904   2.767  0.5280 -0.1773  0.8588
 2541TIP3    H129182   0.810   4.858   2.729 -0.7796 -1.0187 -0.7635
 2541TIP3    H229183   0.728   4.985   2.715 -1.3614 -1.4065 -0.9285
 2542TIP3   OH229184   6.044   1.752   2.922 -0.0334  0.2117  0.3747
 2542TIP3    H129185   6.039   1.754   3.017 -0.3659  1.1331  0.3532
 2542TIP3    H229186   5.990   1.678   2.896  0.7343 -0.5569  0.9321
 2543TIP3   OH229187   5.303   0.767   3.600 -0.2238  0.0494  0.2155
 2543TIP3    H129188   5.231   0.816   3.560 -0.7978 -0.1908  0.9396
 2543TIP3    H229189   5.273   0.747   3.689  0.8518  0.1888  0.6258
 2544TIP3   OH229190   3.163   4.664   4.268  0.4664 -0.2697 -0.4015
 2544TIP3    H129191   3.182   4.758   4.264  2.8554 -0.4523  2.7401
 2544TIP3    H229192   3.245   4.622   4.241 -0.1537 -1.4546 -0.5060
 2545TIP3   OH229193   2.626   5.130   8.339  0.3994 -0.4873 -0.2385
 2545TIP3    H129194   2.690   5.059   8.342 -1.0374 -1.8642 -0.4350
 2545TIP3    H229195   2.592   5.135   8.429 -1.6036 -2.1501 -0.8203
 2546TIP3   OH229196   1.037   5.869   2.961  0.0620  0.0416  0.6715
 2546TIP3    H129197   1.057   5.798   2.900 -1.4340  0.0040  0.1909
 2546TIP3    H229198   1.063   5.949   2.915 -3.2550  0.2505 -1.1579
 2547TIP3   OH229199   4.832   0.359   1.651 -0.3372  0.1724 -0.0287
 2547TIP3    H129200   4.740   0.384   1.655  0.3894  3.6841 -1.7757
 2547TIP3    H229201   4.856   0.340   1.742 -2.6173 -0.3394  0.5108
 2548TIP3   OH229202   5.983   6.005   4.351  0.6368  0.3550 -0.1889
 2548TIP3    H129203   5.947   6.022   4.438  1.9540 -0.5842  0.5793
 2548TIP3    H229204   5.911   6.025   4.291  0.0572  2.1675  1.0149
 2549TIP3   OH229205   0.846   0.029   3.181  0.0281 -0.0096 -0.2207
 2549TIP3    H129206   0.856  -0.013   3.266 -1.2135 -0.5061 -0.2977
 2549TIP3    H229207   0.798  -0.035   3.128  0.6725  0.3420 -1.2602
 2550TIP3   OH229208   0.764   3.642   3.816  0.0788  0.0803 -0.0004
 2550TIP3    H129209   0.794   3.551   3.811 -1.4307 -0.4331 -0.0790
 2550TIP3    H229210   0.822   3.689   3.755 -0.1091 -1.1149 -1.1541
 2551TIP3   OH229211   5.705   1.513   4.064  0.0114  0.5389 -0.4553
 2551TIP3    H129212   5.750   1.429   4.069  0.2466  0.6770 -0.2237
 2551TIP3    H229213   5.638   1.500   3.997 -1.0125 -0.3140  0.7043
 2552TIP3   OH229214   6.449   6.288   2.175  0.0759 -0.4581  0.5016
 2552TIP3    H129215   6.525   6.230   2.177 -0.7696 -1.5900  0.7998
 2552TIP3    H229216   6.378   6.235   2.210 -1.0094  0.3444 -0.4237
 2553TIP3   OH229217   6.276   3.448   8.627 -0.6018 -0.4661 -0.2414
 2553TIP3    H129218   6.220   3.516   8.665  1.0115  0.2242  1.0358
 2553TIP3    H229219   6.337   3.426   8.697  2.1284  0.4105 -2.1890
 2554TIP3   OH229220   2.838   3.644   8.627 -0.2102 -0.0426 -0.6119
 2554TIP3    H129221   2.775   3.652   8.555 -2.0267  1.6376  1.0380
 2554TIP3    H229222   2.836   3.552   8.650  0.7490 -0.7092 -2.9371
 2555TIP3   OH229223   2.729   2.797   4.393 -0.3419  0.1462 -0.1345
 2555TIP3    H129224   2.809   2.746   4.376 -0.8593 -0.3864 -1.0380
 2555TIP3    H229225   2.658   2.741   4.361 -1.0699  0.6915  0.5019
 2556TIP3   OH229226   0.716   3.597   0.601  0.1013  0.0736 -0.4057
 2556TIP3    H129227   0.651   3.563   0.663  0.7834 -0.5442 -0.0063
 2556TIP3    H229228   0.741   3.682   0.637  1.4723 -0.8388  0.9654
 2557TIP3   OH229229   3.363   4.204   4.256  0.0336  0.4548 -0.4669
 2557TIP3    H129230   3.372   4.299   4.254 -3.1299  0.8727  0.1059
 2557TIP3    H229231   3.272   4.189   4.283 -0.0561 -2.7112 -2.0599
 2558TIP3   OH229232   2.156   5.713   2.254 -0.0121 -0.2987  0.2895
 2558TIP3    H129233   2.162   5.678   2.165 -1.5535 -1.5793  0.6345
 2558TIP3    H229234   2.065   5.696   2.279  0.2568  0.5477  1.9041
 2559TIP3   OH229235   3.510   2.671   2.551  0.0399  0.3912 -0.5981
 2559TIP3    H129236   3.424   2.690   2.587  0.1532 -0.1234 -0.0462
 2559TIP3    H229237   3.514   2.576   2.544  0.8604  0.3487  0.1701
 2560TIP3   OH229238   1.069   3.816   3.378 -0.0219  0.4745 -0.2962
 2560TIP3    H129239   1.135   3.876   3.413 -0.4015  0.0055  1.3036
 2560TIP3    H229240   0.992   3.871   3.363 -0.4580  0.3974  1.4180
 2561TIP3   OH229241   0.037   1.472   2.928  0.2397  0.4123 -0.2304
 2561TIP3    H129242  -0.019   1.439   2.999  0.9458 -0.1624  0.0678
 2561TIP3    H229243   0.098   1.531   2.971  0.7668 -0.0547 -0.3363
 2562TIP3   OH229244   3.826   6.089   4.291  0.0347 -0.1850  0.0646
 2562TIP3    H129245   3.742   6.066   4.250 -1.2729  1.2710  1.7549
 2562TIP3    H229246   3.834   6.029   4.365  0.0358  0.2530  0.4234
 2563TIP3   OH229247   2.666   0.738   3.145 -0.2716  0.6749  0.0498
 2563TIP3    H129248   2.726   0.810   3.166  1.0117 -0.3122 -0.1165
 2563TIP3    H229249   2.590   0.781   3.106 -0.6316  2.1405  2.2227
 2564TIP3   OH229250   2.605   2.797   3.390  0.2032 -0.3111 -0.0455
 2564TIP3    H129251   2.686   2.797   3.441 -0.0698 -0.8418  0.4021
 2564TIP3    H229252   2.606   2.880   3.342 -0.1334  0.7935  1.7707
 2565TIP3   OH229253   5.476   4.447   3.432  0.4049 -0.5185 -0.2536
 2565TIP3    H129254   5.403   4.507   3.416  0.8586  0.0407 -0.2562
 2565TIP3    H229255   5.553   4.493   3.398  0.7703 -1.0772 -0.2000
 2566TIP3   OH229256   4.843   5.813   3.068  0.0806  0.4058  0.0137
 2566TIP3    H129257   4.833   5.906   3.092  2.1388  1.1816 -1.7412
 2566TIP3    H229258   4.935   5.806   3.041  0.1994 -2.3715  0.8612
 2567TIP3   OH229259   5.197   3.695   0.789  0.3041 -0.2724  0.0424
 2567TIP3    H129260   5.291   3.683   0.798  0.3744  1.2626  1.9213
 2567TIP3    H229261   5.159   3.648   0.864 -0.3387  0.1198 -0.0282
 2568TIP3   OH229262   2.307   4.058   0.152  0.1924 -0.1314  0.4842
 2568TIP3    H129263   2.306   4.136   0.097  2.1185 -0.4264 -0.0510
 2568TIP3    H229264   2.323   3.986   0.091  0.3184 -0.7187  1.1935
 2569TIP3   OH229265   4.968   1.525   0.380  0.2865  0.3454  0.1524
 2569TIP3    H129266   4.905   1.511   0.309 -0.1796  0.2152  0.5798
 2569TIP3    H229267   4.991   1.618   0.374 -0.8479  0.6841  0.7009
 2570TIP3   OH229268   6.532   3.130   1.732  0.0542 -0.1546  0.2989
 2570TIP3    H129269   6.568   3.130   1.820  0.9539 -1.0402 -0.0446
 2570TIP3    H229270   6.603   3.097   1.677 -0.8440 -0.6704 -0.5905
 2571TIP3   OH229271   6.623   5.338   1.401 -0.2439  0.2142 -0.2695
 2571TIP3    H129272   6.583   5.282   1.335 -2.3076 -1.4257  2.1506
 2571TIP3    H229273   6.645   5.419   1.355 -1.7155 -0.7655 -2.8751
 2572TIP3   OH229274   0.267   2.234   4.022  0.1664 -0.0949  0.4225
 2572TIP3    H129275   0.252   2.151   3.978 -2.7672 -0.2916  1.5267
 2572TIP3    H229276   0.262   2.299   3.952  1.7406 -0.7662 -0.3413
 2573TIP3   OH229277   1.831   1.658   3.523 -0.2202 -0.3694 -0.6360
 2573TIP3    H129278   1.878   1.702   3.594 -0.6212 -0.8833 -0.0424
 2573TIP3    H229279   1.874   1.572   3.516 -0.2672 -0.3682 -0.9210
 2574TIP3   OH229280   4.565   4.020   0.559  0.2175  0.7930  0.6536
 2574TIP3    H129281   4.660   4.025   0.564  0.8666 -0.4823 -4.4074
 2574TIP3    H229282   4.544   3.928   0.572  0.2610  0.3440 -1.9797
 2575TIP3   OH229283   3.545   0.616   2.425 -0.0831 -0.5051  0.4782
 2575TIP3    H129284   3.504   0.666   2.355 -0.5279 -2.2820 -0.6018
 2575TIP3    H229285   3.587   0.682   2.480 -3.8008  1.4255  1.3378
 2576TIP3   OH229286   2.867   3.539   2.699 -0.2090 -0.2820 -0.3028
 2576TIP3    H129287   2.821   3.538   2.615 -0.2043  0.3627 -0.3219
 2576TIP3    H229288   2.958   3.558   2.675 -0.2948  0.3808 -0.1210
 2577TIP3   OH229289   6.646   5.536   0.669  0.7125  0.3061 -0.1644
 2577TIP3    H129290   6.727   5.496   0.700  0.3021  0.7496  1.5952
 2577TIP3    H229291   6.581   5.465   0.672  0.5587  0.4686  0.5158
 2578TIP3   OH229292   4.156   3.585   0.697 -0.3197  0.1950 -0.5142
 2578TIP3    H129293   4.214   3.542   0.761 -1.5771  1.5089  1.5998
 2578TIP3    H229294   4.175   3.540   0.614  2.0879 -0.9163  0.5410
 2579TIP3   OH229295   0.839   1.817   2.857 -0.1113 -0.3233  0.2644
 2579TIP3    H129296   0.760   1.776   2.823 -1.6010  1.3251  1.5271
 2579TIP3    H229297   0.826   1.911   2.840  0.9166  0.1176  1.7104
 2580TIP3   OH229298   6.591   1.397   2.182  0.1566  0.5360  0.2641
 2580TIP3    H129299   6.669   1.348   2.156 -0.5714 -0.8137  0.5494
 2580TIP3    H229300   6.592   1.393   2.278 -0.1047  0.7901  0.2768
 2581TIP3   OH229301   4.424   2.132   1.448  0.3645  0.0467 -0.6335
 2581TIP3    H129302   4.408   2.224   1.469  0.1893 -0.0289 -0.4308
 2581TIP3    H229303   4.466   2.096   1.526  0.7329  0.0354 -0.8386
 2582TIP3   OH229304   0.225   4.218   2.207  0.2440  0.6980  0.1319
 2582TIP3    H129305   0.262   4.244   2.291 -0.0772  2.0445 -0.1185
 2582TIP3    H229306   0.139   4.181   2.229  0.2670  0.8132  0.4193
 2583TIP3   OH229307   5.795   6.735   1.399  0.6431 -0.6014  0.1028
 2583TIP3    H129308   5.819   6.812   1.347  1.4131 -1.4203 -0.7859
 2583TIP3    H229309   5.766   6.671   1.334 -0.5847 -0.8643  0.8863
 2584TIP3   OH229310   0.007   1.201   2.162  0.1622  0.0786 -0.2778
 2584TIP3    H129311   0.071   1.130   2.153 -1.6462 -2.1891  2.8242
 2584TIP3    H229312   0.028   1.242   2.247 -1.0216  0.8861 -0.3470
 2585TIP3   OH229313   4.325   3.721   4.437 -0.1406 -0.5692  0.3858
 2585TIP3    H129314   4.265   3.773   4.384 -0.8787 -0.3633  1.3992
 2585TIP3    H229315   4.374   3.668   4.374 -1.0333 -0.3687 -0.4875
 2586TIP3   OH229316   2.979   0.737   1.851 -0.1672 -0.0791  0.3578
 2586TIP3    H129317   3.041   0.771   1.915 -0.9479 -1.7068  2.0597
 2586TIP3    H229318   2.982   0.642   1.862 -1.9633 -0.2720 -0.4682
 2587TIP3   OH229319   6.348   5.864   3.444 -0.6280 -0.1182 -0.6993
 2587TIP3    H129320   6.443   5.875   3.448 -0.6789 -0.0509  0.8972
 2587TIP3    H229321   6.334   5.770   3.453 -0.7289 -0.0859 -0.5184
 2588TIP3   OH229322   4.014   6.153   1.629 -0.8608 -0.0570  0.1039
 2588TIP3    H129323   4.053   6.218   1.687  0.2822  1.3963 -2.1116
 2588TIP3    H229324   3.948   6.203   1.579  0.8220 -0.1874 -2.4340
 2589TIP3   OH229325   5.479   4.613   0.005  0.4020  0.9723  0.1177
 2589TIP3    H129326   5.426   4.637   0.081 -0.9825  1.2463 -0.9044
 2589TIP3    H229327   5.515   4.696  -0.027  0.4753  0.9348  0.1016
 2590TIP3   OH229328   6.049   6.763   2.960 -0.6415  0.3882  0.2791
 2590TIP3    H129329   6.131   6.772   2.912  0.2033 -2.0262  1.1261
 2590TIP3    H229330   6.051   6.834   3.024  0.1272  1.1819 -0.6022
 2591TIP3   OH229331   2.522   0.863   0.994  0.1741 -0.1916  0.2445
 2591TIP3    H129332   2.470   0.786   1.016 -0.4075  0.1643  0.1341
 2591TIP3    H229333   2.485   0.894   0.912 -0.4873  0.9842  0.9565
 2592TIP3   OH229334   0.577   5.291   3.802 -0.8875 -0.0410  0.7880
 2592TIP3    H129335   0.581   5.198   3.826 -0.3083  0.0915  1.2313
 2592TIP3    H229336   0.653   5.330   3.844 -2.0533  0.9732  2.0768
 2593TIP3   OH229337   0.514   2.903   8.860  0.1430 -0.8809  0.6862
 2593TIP3    H129338   0.445   2.840   8.838 -0.2220  0.0004 -0.7668
 2593TIP3    H229339   0.590   2.875   8.809 -0.5906  0.9344 -1.5424
 2594TIP3   OH229340   1.796   6.291   1.024  0.6868 -0.6613 -1.1258
 2594TIP3    H129341   1.743   6.362   0.987 -0.5742 -1.1913 -0.3616
 2594TIP3    H229342   1.847   6.334   1.093 -0.3506 -0.5614 -0.4103
 2595TIP3   OH229343   0.805   3.047   1.460  0.0052 -0.0465 -0.2216
 2595TIP3    H129344   0.804   2.999   1.377  0.2930 -1.1601  0.4073
 2595TIP3    H229345   0.722   3.095   1.461 -1.1500 -1.9818 -0.0355
 2596TIP3   OH229346   3.329   3.734   8.494 -0.2520  0.1356 -0.3788
 2596TIP3    H129347   3.340   3.747   8.400 -0.3389 -1.1966 -0.5959
 2596TIP3    H229348   3.372   3.650   8.512 -1.8891 -0.5726  0.4102
 2597TIP3   OH229349   0.583   4.369   3.231 -0.2203 -0.1200 -0.7083
 2597TIP3    H129350   0.645   4.298   3.215  1.0822  0.9343 -0.5165
 2597TIP3    H229351   0.633   4.433   3.283 -1.1845  1.1715 -1.3221
 2598TIP3   OH229352   6.739   3.388   1.973  0.1933  0.3109 -0.2826
 2598TIP3    H129353   6.693   3.457   1.926 -1.7409 -0.4615  0.3746
 2598TIP3    H229354   6.726   3.310   1.920 -0.6952 -0.2488  0.7243
 2599TIP3   OH229355   6.027   2.785   1.117  0.1717 -0.7574  0.5646
 2599TIP3    H129356   6.091   2.808   1.049  0.0679 -0.1709  0.6618
 2599TIP3    H229357   6.054   2.837   1.194  0.3951 -1.5462  1.0299
 2600TIP3   OH229358   6.633   0.389   2.480  0.6503  0.1052 -0.2264
 2600TIP3    H129359   6.605   0.407   2.390 -2.4802 -2.0457  0.1816
 2600TIP3    H229360   6.696   0.318   2.471 -3.2349 -3.6414 -0.6873
 2601TIP3   OH229361   6.359   1.373   1.680 -0.0284 -0.4541  0.3703
 2601TIP3    H129362   6.324   1.330   1.758  1.0653 -0.4444  0.8934
 2601TIP3    H229363   6.443   1.409   1.709 -0.6347  1.5437 -0.2032
 2602TIP3   OH229364   6.218   0.824   4.020 -0.4640  0.4521  0.6202
 2602TIP3    H129365   6.257   0.901   4.061  0.6518 -0.9538  2.3819
 2602TIP3    H229366   6.214   0.759   4.090  1.1515 -1.9894 -1.3501
 2603TIP3   OH229367   1.304   4.843   0.649  0.0153  0.4001 -0.0209
 2603TIP3    H129368   1.226   4.893   0.673 -0.7211 -0.4782 -0.5558
 2603TIP3    H229369   1.320   4.785   0.724  0.5855  1.0747  0.3921
 2604TIP3   OH229370   0.864   0.063   3.517 -0.0607 -0.6103 -0.1551
 2604TIP3    H129371   0.797   0.130   3.520 -0.9535 -1.4994  0.3309
 2604TIP3    H229372   0.914   0.075   3.598 -0.5557 -0.8724  0.1888
 2605TIP3   OH229373   3.863   3.921   3.480 -0.1780  0.2692 -0.3088
 2605TIP3    H129374   3.815   4.001   3.458 -0.6170 -0.0539 -0.5316
 2605TIP3    H229375   3.951   3.951   3.500 -0.9230  1.1072  1.9677
 2606TIP3   OH229376   2.814   3.091   4.288  0.2479 -0.3084  0.0811
 2606TIP3    H129377   2.902   3.057   4.272  1.4898  0.0759  4.7400
 2606TIP3    H229378   2.827   3.184   4.306 -0.8623 -0.4941  2.0455
 2607TIP3   OH229379   6.756   0.196   2.191  0.3976 -0.3703 -0.3899
 2607TIP3    H129380   6.809   0.188   2.271 -0.6569 -3.9111  0.1458
 2607TIP3    H229381   6.713   0.281   2.199 -0.7891 -1.1210  3.6341
 2608TIP3   OH229382   4.533   5.851   1.995  0.5629  0.5254 -0.0176
 2608TIP3    H129383   4.603   5.848   2.060  1.4548 -1.6893 -1.0118
 2608TIP3    H229384   4.571   5.812   1.916 -1.5237  0.0236 -0.8357
 2609TIP3   OH229385   5.637   0.298   4.589  0.3836  0.2239  0.3353
 2609TIP3    H129386   5.581   0.356   4.640 -1.0360 -0.8334  0.0509
 2609TIP3    H229387   5.625   0.326   4.499  0.2228 -0.0504  0.2679
 2610TIP3   OH229388   1.831   6.700   8.749 -0.3333 -0.1576  0.4317
 2610TIP3    H129389   1.906   6.641   8.738 -0.2205 -0.0932  0.8361
 2610TIP3    H229390   1.865   6.772   8.801 -0.2283  0.7378 -0.8470
 2611TIP3   OH229391   4.259   2.393   4.455 -0.1462 -0.0423  0.0827
 2611TIP3    H129392   4.267   2.298   4.462  0.7977 -0.3128 -3.0640
 2611TIP3    H229393   4.166   2.409   4.439 -0.4323 -0.3072  1.3443
 2612TIP3   OH229394   4.021   5.834   3.959  0.1987  0.1298 -0.8172
 2612TIP3    H129395   3.939   5.855   4.003  0.1137 -1.1081 -0.3308
 2612TIP3    H229396   4.001   5.755   3.908  1.1791 -0.4543 -0.3397
 2613TIP3   OH229397   1.083   2.096   1.480 -0.1230 -0.0370  0.6963
 2613TIP3    H129398   1.110   2.166   1.539 -0.6781  0.5473  0.2701
 2613TIP3    H229399   0.988   2.093   1.488 -0.1293 -0.5342  0.4769
 2614TIP3   OH229400   0.715   1.615   2.099  0.1721  0.0553 -0.6156
 2614TIP3    H129401   0.677   1.537   2.140 -0.1203  0.0980 -0.8046
 2614TIP3    H229402   0.806   1.590   2.082  0.8007  0.5925  1.5606
 2615TIP3   OH229403   3.036   1.619   4.093 -0.2433  0.3699  0.2122
 2615TIP3    H129404   3.062   1.678   4.023  1.5952 -1.9766 -1.2765
 2615TIP3    H229405   2.978   1.555   4.050 -1.3105  0.4376  1.4972
 2616TIP3   OH229406   5.410   0.801   4.816  0.3065  0.1659  0.3713
 2616TIP3    H129407   5.397   0.869   4.882 -0.0305  0.6424 -0.1647
 2616TIP3    H229408   5.404   0.719   4.864 -0.4309  0.4878  0.8624
 2617TIP3   OH229409   5.927   2.260   4.326  0.4860  0.0001  0.7995
 2617TIP3    H129410   5.881   2.205   4.389  0.8712 -1.2026  0.0587
 2617TIP3    H229411   5.931   2.207   4.246  1.7944  0.6962  0.3761
 2618TIP3   OH229412   1.469   5.998   3.660  0.6182  0.2528  0.2336
 2618TIP3    H129413   1.469   5.903   3.649  0.7818 -0.0170  2.1896
 2618TIP3    H229414   1.530   6.030   3.593  0.3333 -0.9831 -0.6469
 2619TIP3   OH229415   5.372   4.254   2.004 -0.2840  0.3171  0.3568
 2619TIP3    H129416   5.378   4.205   2.086  1.0414  1.2377  0.8523
 2619TIP3    H229417   5.368   4.345   2.031  0.4520  0.6459 -0.6008
 2620TIP3   OH229418   1.440   4.289   3.987  0.5754 -0.0254 -0.2756
 2620TIP3    H129419   1.365   4.302   3.929  0.9263 -0.6515 -0.8872
 2620TIP3    H229420   1.451   4.194   3.991  0.4466 -0.0025  0.9733
 2621TIP3   OH229421   1.313   5.497   1.232 -0.1914 -0.0443 -0.1366
 2621TIP3    H129422   1.388   5.496   1.172 -1.1712  0.8792 -1.4313
 2621TIP3    H229423   1.254   5.430   1.198  0.6166 -1.7876  1.7172
 2622TIP3   OH229424   3.121   4.432   0.931 -0.1582 -0.2585  0.1817
 2622TIP3    H129425   3.159   4.515   0.960 -1.1162 -0.3538  1.8740
 2622TIP3    H229426   3.102   4.385   1.012 -3.5121 -0.3538 -0.5142
 2623TIP3   OH229427   3.544   2.306   1.442 -0.3425 -0.1142 -0.2232
 2623TIP3    H129428   3.572   2.309   1.533 -1.3162 -1.2057  0.1429
 2623TIP3    H229429   3.551   2.213   1.418  0.4931  0.2344 -1.4703
 2624TIP3   OH229430   4.574   0.547   3.093 -0.4449  0.2182  0.2169
 2624TIP3    H129431   4.490   0.509   3.121  0.1944 -2.1613 -0.8432
 2624TIP3    H229432   4.554   0.591   3.011 -0.5490 -0.9958 -0.4285
 2625TIP3   OH229433   3.328   2.763   1.416 -0.7752  0.1190 -0.2585
 2625TIP3    H129434   3.394   2.696   1.396  1.5769  1.6101  1.8406
 2625TIP3    H229435   3.350   2.791   1.505 -3.3590  1.8128 -0.0575
 2626TIP3   OH229436   6.762   0.568   2.617 -0.8014  0.5655 -0.4938
 2626TIP3    H129437   6.714   0.491   2.587 -1.0882  0.3251  0.5382
 2626TIP3    H229438   6.838   0.533   2.662 -1.2742  0.8575  0.5542
 2627TIP3   OH229439   2.649   5.099   2.999  0.5788 -0.7304 -0.0831
 2627TIP3    H129440   2.571   5.047   2.980  0.3459  0.0127 -1.2198
 2627TIP3    H229441   2.665   5.149   2.919  0.3032  1.6023  1.2307
 2628TIP3   OH229442   6.157   2.267   2.954 -0.1683 -0.4806 -0.4943
 2628TIP3    H129443   6.233   2.209   2.947  0.2313 -0.0520  0.1371
 2628TIP3    H229444   6.118   2.245   3.039 -0.2132 -0.0684 -0.4054
 2629TIP3   OH229445   5.105   4.393   4.212 -0.0925  0.2722 -0.1398
 2629TIP3    H129446   5.106   4.383   4.307  0.8552  1.1350 -0.0463
 2629TIP3    H229447   5.152   4.317   4.179 -1.7027 -0.8221 -0.0265
 2630TIP3   OH229448   5.678   2.513   1.394  0.1759  0.1512 -0.4557
 2630TIP3    H129449   5.631   2.478   1.469 -0.6942 -1.3839 -1.6465
 2630TIP3    H229450   5.727   2.438   1.359  1.1086  0.9958 -1.0077
 2631TIP3   OH229451   4.768   1.993   3.319  0.4009  0.5039  0.0749
 2631TIP3    H129452   4.731   1.920   3.270  1.3005 -1.4596  2.1654
 2631TIP3    H229453   4.856   2.005   3.284  0.3880  0.3432 -0.0095
 2632TIP3   OH229454   5.193   1.707   2.121 -0.3256 -0.1740  0.2406
 2632TIP3    H129455   5.103   1.714   2.088 -0.0929 -1.9020 -0.8809
 2632TIP3    H229456   5.248   1.721   2.044  0.3146 -0.8242  0.5741
 2633TIP3   OH229457   0.207   5.841   2.176 -0.2425  0.1883 -0.2017
 2633TIP3    H129458   0.189   5.824   2.269  0.4380 -0.6666 -0.2096
 2633TIP3    H229459   0.124   5.875   2.142 -0.2498  1.3425  0.8956
 2634TIP3   OH229460   6.544   4.725   2.349 -0.4709 -0.4517  0.1281
 2634TIP3    H129461   6.611   4.792   2.339 -0.8318  0.1740  1.5449
 2634TIP3    H229462   6.470   4.757   2.298 -0.1839 -0.4468 -0.2892
 2635TIP3   OH229463   4.012   0.415   4.173  0.6495 -0.0403  0.2764
 2635TIP3    H129464   4.042   0.407   4.083 -0.1082  1.4810 -0.1494
 2635TIP3    H229465   4.079   0.467   4.217  1.0248 -0.7912  0.6026
 2636TIP3   OH229466   3.498   5.234   1.536  0.1202 -0.7284 -0.0167
 2636TIP3    H129467   3.433   5.233   1.607  0.0087 -0.0314 -0.1066
 2636TIP3    H229468   3.553   5.158   1.553 -1.3761 -1.9840 -0.5510
 2637TIP3   OH229469   1.533   0.229   1.312 -0.4916  0.1921 -0.4358
 2637TIP3    H129470   1.580   0.245   1.394 -1.0235  0.0837 -0.1051
 2637TIP3    H229471   1.525   0.134   1.307 -0.2022  0.1830 -0.7641
 2638TIP3   OH229472   5.741   4.307   2.378 -0.0808 -0.3028 -0.4643
 2638TIP3    H129473   5.648   4.330   2.381 -0.1881 -0.8113  0.5843
 2638TIP3    H229474   5.744   4.221   2.336 -0.3140 -1.2491  1.3601
 2639TIP3   OH229475   0.294   2.733   3.754 -0.2322 -0.1473  0.0433
 2639TIP3    H129476   0.356   2.663   3.776  1.5134  0.9129 -1.2450
 2639TIP3    H229477   0.276   2.776   3.837 -0.5897 -1.5138  0.7044
 2640TIP3   OH229478   5.864   0.181   2.798  0.1134  0.0645  0.1410
 2640TIP3    H129479   5.914   0.151   2.874  0.3054 -1.7828 -0.6474
 2640TIP3    H229480   5.917   0.251   2.761  1.0255 -0.3568  0.5972
 2641TIP3   OH229481   4.942   5.867   4.702  0.3598 -0.5522  0.0647
 2641TIP3    H129482   4.967   5.932   4.637  0.8666  0.9197  1.6421
 2641TIP3    H229483   4.949   5.783   4.657  1.7243  0.3279 -1.4585
 2642TIP3   OH229484   3.000   5.805   2.600  0.1642 -0.1154  0.2184
 2642TIP3    H129485   2.972   5.893   2.573  1.2785  0.8961  2.1503
 2642TIP3    H229486   2.954   5.746   2.540 -1.4795  1.7209 -0.4322
 2643TIP3   OH229487   3.723   4.306   4.260  0.0842 -0.0976 -0.0094
 2643TIP3    H129488   3.664   4.340   4.193 -1.3545 -2.2046  0.0916
 2643TIP3    H229489   3.744   4.383   4.314  0.2940  1.3862 -2.0885
 2644TIP3   OH229490   1.605   4.639   1.004 -0.2789 -0.0976  0.4224
 2644TIP3    H129491   1.520   4.596   0.994  0.6712 -2.0859  0.3757
 2644TIP3    H229492   1.601   4.680   1.091 -1.8295  1.2569 -0.2283
 2645TIP3   OH229493   0.378   0.121   2.266  0.6692  0.3343 -0.3005
 2645TIP3    H129494   0.299   0.067   2.264 -0.0638  1.2750  1.1051
 2645TIP3    H229495   0.401   0.126   2.359  0.9189  2.1132 -0.4252
 2646TIP3   OH229496   3.530   3.451   1.114 -0.0666  0.1825 -0.0395
 2646TIP3    H129497   3.458   3.440   1.051 -0.0835 -0.2446  0.0468
 2646TIP3    H229498   3.510   3.532   1.159 -0.6760 -0.0973  0.2072
 2647TIP3   OH229499   5.880   0.118   1.999 -0.2742  0.2921  0.1403
 2647TIP3    H129500   5.878   0.139   2.092 -0.7378 -0.5549  0.3349
 2647TIP3    H229501   5.962   0.156   1.967 -1.1752  2.6153  0.3828
 2648TIP3   OH229502   5.411   5.757   1.789 -0.4490  0.6759 -0.1536
 2648TIP3    H129503   5.366   5.824   1.736  1.5308  1.7675 -0.5429
 2648TIP3    H229504   5.454   5.807   1.859  1.1315 -0.1767 -0.4824
 2649TIP3   OH229505   2.325   2.317   1.685  0.1268 -0.5565  0.0586
 2649TIP3    H129506   2.353   2.406   1.664  1.9119 -1.1720 -0.3813
 2649TIP3    H229507   2.243   2.306   1.638  0.6303  0.3831 -1.0867
 2650TIP3   OH229508   5.601   5.668   3.405  0.2288 -0.2387  0.2291
 2650TIP3    H129509   5.549   5.628   3.475  0.0336 -0.5224 -0.0695
 2650TIP3    H229510   5.623   5.755   3.437 -0.0953 -0.2655  0.5290
 2651TIP3   OH229511   0.369   3.103   2.106  0.2486  0.1667  0.6777
 2651TIP3    H129512   0.300   3.168   2.097 -0.9532 -1.1159  0.2240
 2651TIP3    H229513   0.375   3.086   2.200 -0.5115 -0.1648  0.6735
 2652TIP3   OH229514   3.355   3.893   4.634 -0.1505  0.2642 -0.3893
 2652TIP3    H129515   3.346   3.987   4.650 -1.8743  0.1118 -0.2390
 2652TIP3    H229516   3.285   3.873   4.571 -0.5893 -1.1049  0.4945
 2653TIP3   OH229517   1.806   0.549   4.289 -0.0330 -0.3296  0.1151
 2653TIP3    H129518   1.738   0.566   4.224  0.0020  1.7738  0.5611
 2653TIP3    H229519   1.767   0.483   4.347 -1.4000  0.2935 -0.0511
 2654TIP3   OH229520   4.485   2.943   1.955 -0.2420 -0.4225  0.1515
 2654TIP3    H129521   4.437   2.860   1.950 -1.8397  0.4664 -0.0641
 2654TIP3    H229522   4.419   3.009   1.934  1.2022  0.8446 -0.5622
 2655TIP3   OH229523   1.926   4.620   2.195 -0.3818  0.4804  0.1636
 2655TIP3    H129524   1.900   4.610   2.287 -1.0772  2.1856  0.2012
 2655TIP3    H229525   1.905   4.711   2.175  0.7831  0.4395 -1.3787
 2656TIP3   OH229526   3.817   6.767   1.031 -0.3431  0.5510 -0.2934
 2656TIP3    H129527   3.859   6.740   0.949  0.0547  1.1938 -0.3005
 2656TIP3    H229528   3.885   6.812   1.080 -1.0439  1.7518 -0.3718
 2657TIP3   OH229529   3.110   1.318   3.203  0.4151 -1.1224 -0.6130
 2657TIP3    H129530   3.171   1.389   3.187 -2.2432  1.2955 -0.8301
 2657TIP3    H229531   3.135   1.249   3.142  4.4552 -1.4385  1.1030
 2658TIP3   OH229532   1.863   4.696   0.032  0.2400 -0.0500 -0.1006
 2658TIP3    H129533   1.794   4.763   0.036  0.7097  0.5056 -0.9008
 2658TIP3    H229534   1.817   4.613   0.043 -0.4188  0.3777  0.4275
 2659TIP3   OH229535   0.934   3.768   2.639  0.4119 -0.2890 -0.2359
 2659TIP3    H129536   1.002   3.701   2.630  0.2883 -0.8614  2.2731
 2659TIP3    H229537   0.983   3.851   2.644  0.8889 -0.6084  0.6679
 2660TIP3   OH229538   5.773   5.580   2.878 -0.9631 -0.3866  0.3055
 2660TIP3    H129539   5.705   5.594   2.945  0.4669  1.8261  1.3972
 2660TIP3    H229540   5.842   5.642   2.900  1.7644 -2.9358 -0.3682
 2661TIP3   OH229541   6.514   3.004   0.001 -0.3439  0.1535 -0.3961
 2661TIP3    H129542   6.556   3.080  -0.039  0.3817 -0.7151 -1.3560
 2661TIP3    H229543   6.569   2.983   0.076  0.2214 -0.1965 -0.8952
 2662TIP3   OH229544   4.875   1.744   2.802  0.0596  0.1916 -0.4759
 2662TIP3    H129545   4.947   1.681   2.802 -0.0537 -0.1128  2.9968
 2662TIP3    H229546   4.914   1.826   2.770  1.6972 -0.2040  0.4204
 2663TIP3   OH229547   3.723   2.079   2.374 -0.1734 -0.2047 -0.4190
 2663TIP3    H129548   3.736   2.021   2.299  0.6517 -0.9057  0.2491
 2663TIP3    H229549   3.652   2.038   2.424  0.8435 -1.0259  0.3953
 2664TIP3   OH229550   5.182   6.376   1.357 -0.2202  0.2258  0.0098
 2664TIP3    H129551   5.200   6.283   1.338  0.1927  0.2559  0.2330
 2664TIP3    H229552   5.142   6.409   1.277 -1.6464 -0.4798  0.4020
 2665TIP3   OH229553   3.347   6.083   1.488  0.0603 -0.1699 -0.7171
 2665TIP3    H129554   3.345   6.054   1.579 -0.5000 -1.9667 -1.2624
 2665TIP3    H229555   3.315   6.008   1.438  2.1001  0.1036 -2.5802
 2666TIP3   OH229556   4.819   4.842   0.974 -0.8249  0.2271  0.0086
 2666TIP3    H129557   4.907   4.816   0.949 -1.0633 -1.5248  0.8430
 2666TIP3    H229558   4.831   4.897   1.052 -0.5160 -1.7346  1.4223
 2667TIP3   OH229559   5.557   2.470   4.586 -0.1984 -0.0217  0.7575
 2667TIP3    H129560   5.521   2.500   4.502  0.2951  0.3517  0.6684
 2667TIP3    H229561   5.652   2.472   4.572 -0.1365 -1.1806  0.9138
 2668TIP3   OH229562   3.404   0.914   0.359 -0.6779 -0.4377 -0.0511
 2668TIP3    H129563   3.496   0.926   0.381 -0.0731  2.2008 -3.2960
 2668TIP3    H229564   3.359   0.918   0.444  2.1429 -4.3041  1.9888
 2669TIP3   OH229565   6.215   4.110   0.441 -0.0835  0.0798 -0.1276
 2669TIP3    H129566   6.236   4.131   0.350 -1.1380  0.5022 -0.2910
 2669TIP3    H229567   6.292   4.065   0.474  0.2380 -0.2435 -1.2857
 2670TIP3   OH229568   0.917   0.993   0.738  0.4875 -0.1230  0.6490
 2670TIP3    H129569   0.933   0.946   0.656  1.2381  1.3071 -0.0684
 2670TIP3    H229570   0.825   1.019   0.733  0.5341 -0.0259  0.2393
 2671TIP3   OH229571   3.618   2.835   0.223  0.1784 -0.1772 -0.5569
 2671TIP3    H129572   3.696   2.810   0.173  0.0003 -1.9843  0.0025
 2671TIP3    H229573   3.545   2.821   0.164  0.2026  0.6579 -0.7890
 2672TIP3   OH229574   0.843   0.084   1.568  0.1498  0.4126 -0.2555
 2672TIP3    H129575   0.787   0.065   1.492 -0.8181 -1.8139  0.8928
 2672TIP3    H229576   0.822   0.174   1.591 -1.4136  0.3180 -1.1380
 2673TIP3   OH229577   5.989   5.811   1.422  0.1643 -0.6350  0.2929
 2673TIP3    H129578   5.915   5.754   1.445 -0.8128  0.7216  0.6392
 2673TIP3    H229579   6.046   5.808   1.499 -0.6981  0.1091  0.9801
 2674TIP3   OH229580   4.943   6.039   1.946 -0.0267  0.2852  0.2764
 2674TIP3    H129581   4.993   6.118   1.969 -1.1247  1.4576 -1.1309
 2674TIP3    H229582   4.851   6.067   1.949 -0.3843 -0.4764 -1.7500
 2675TIP3   OH229583   3.978   1.031   4.099 -0.3673  0.4502  0.2765
 2675TIP3    H129584   3.901   0.981   4.128  1.3876 -1.6909  1.5015
 2675TIP3    H229585   4.026   1.049   4.180  2.3126 -1.5930 -0.7387
 2676TIP3   OH229586   6.087   3.153   3.376  0.8876 -0.6539 -0.1789
 2676TIP3    H129587   6.179   3.173   3.361  0.1003  1.3419 -2.9720
 2676TIP3    H229588   6.060   3.100   3.301 -0.9590  1.5544 -1.1994
 2677TIP3   OH229589   4.406   1.896   3.138  0.0299 -0.3002  0.1310
 2677TIP3    H129590   4.374   1.948   3.212  0.2851  0.7333 -0.4675
 2677TIP3    H229591   4.485   1.855   3.171 -0.1425 -0.2698  0.5977
 2678TIP3   OH229592   4.536   4.501   8.659 -1.0021  1.0096 -0.5414
 2678TIP3    H129593   4.479   4.558   8.711 -1.1787 -0.7556  1.3164
 2678TIP3    H229594   4.596   4.462   8.722  0.3649  0.5851 -2.0369
 2679TIP3   OH229595   5.498   4.116   8.741  0.7876 -0.1347  0.2197
 2679TIP3    H129596   5.524   4.206   8.718 -2.3625  0.8396 -0.0036
 2679TIP3    H229597   5.450   4.084   8.665 -1.6312 -0.4056  1.7338
 2680TIP3   OH229598   2.848   2.287   0.827  0.0258  0.0117  0.9350
 2680TIP3    H129599   2.913   2.349   0.794  0.4963 -0.7461  0.3925
 2680TIP3    H229600   2.894   2.236   0.893  1.1855 -2.9169 -1.8659
 2681TIP3   OH229601   0.129   4.135   1.200 -0.2543 -0.5225  0.1943
 2681TIP3    H129602   0.035   4.140   1.215 -0.2487 -1.9574  0.9221
 2681TIP3    H229603   0.142   4.180   1.116 -1.5570 -0.1768  0.1532
 2682TIP3   OH229604   1.068   0.799   2.327 -0.2485 -0.4533 -0.4644
 2682TIP3    H129605   1.071   0.706   2.349 -3.2491 -0.3127  1.0611
 2682TIP3    H229606   1.036   0.801   2.237 -2.6076 -0.9379  0.3112
 2683TIP3   OH229607   0.199   4.167   3.073 -0.1822  0.4616  0.1952
 2683TIP3    H129608   0.228   4.159   2.982 -0.0586 -0.6172  0.3188
 2683TIP3    H229609   0.150   4.086   3.090  0.5622  0.2425  1.3624
 2684TIP3   OH229610   1.375   4.267   1.027 -0.5768  0.3060  0.1603
 2684TIP3    H129611   1.350   4.321   1.102 -2.3564 -0.0997 -0.1073
 2684TIP3    H229612   1.402   4.184   1.067  2.5129  1.3804  0.5998
 2685TIP3   OH229613   1.689   6.009   2.220  0.1617  0.5177 -0.1526
 2685TIP3    H129614   1.751   6.081   2.216  1.3292 -0.4296  0.1432
 2685TIP3    H229615   1.716   5.950   2.149  0.4257 -0.5349  0.7971
 2686TIP3   OH229616   4.403   1.612   3.999  0.2525 -0.8749  0.8069
 2686TIP3    H129617   4.489   1.653   4.008  0.4739 -1.1415  0.0134
 2686TIP3    H229618   4.385   1.575   4.085  0.4540  0.0924  1.2728
 2687TIP3   OH229619   4.694   4.113   4.746  0.1439  0.0751 -0.4135
 2687TIP3    H129620   4.683   4.039   4.686 -0.1667 -0.0295 -0.2304
 2687TIP3    H229621   4.778   4.151   4.722  0.1263 -0.1040 -0.7650
 2688TIP3   OH229622   5.261   2.206   2.910  0.1230 -0.0645  0.0431
 2688TIP3    H129623   5.349   2.170   2.917 -0.4886 -1.6424  0.1180
 2688TIP3    H229624   5.227   2.203   3.000 -0.2229 -0.0284 -0.0850
 2689TIP3   OH229625   1.065   2.590   8.591  0.4766  0.1664 -0.0138
 2689TIP3    H129626   0.999   2.543   8.540  1.0214  1.5446 -2.1039
 2689TIP3    H229627   1.148   2.549   8.569  0.5982 -0.0385  0.7818
 2690TIP3   OH229628   6.009   0.593   0.761  0.2452  0.6410  0.0866
 2690TIP3    H129629   6.022   0.508   0.719  3.6274  1.7966 -1.5703
 2690TIP3    H229630   5.982   0.651   0.690 -1.5250  1.1378  1.1033
 2691TIP3   OH229631   1.075   6.484   2.430 -0.6980  0.2253  0.0316
 2691TIP3    H129632   0.985   6.452   2.427 -0.0981 -1.5647  0.0238
 2691TIP3    H229633   1.128   6.406   2.451  0.9333  1.0553 -0.8202
 2692TIP3   OH229634   2.872   0.544   1.100 -0.0699 -0.7855  0.3772
 2692TIP3    H129635   2.885   0.636   1.122 -0.4705  0.4057 -3.4880
 2692TIP3    H229636   2.794   0.518   1.149  0.5838  0.5809  2.2599
 2693TIP3   OH229637   3.916   0.112   2.708  0.3585 -0.1070  0.0745
 2693TIP3    H129638   3.987   0.059   2.743  0.0604 -0.4633  0.1418
 2693TIP3    H229639   3.838   0.058   2.718 -0.2672  1.0209  1.8715
 2694TIP3   OH229640   0.147   2.930   1.968  0.4503  0.3092 -0.3627
 2694TIP3    H129641   0.234   2.941   2.005  0.6751 -0.5021 -0.6335
 2694TIP3    H229642   0.151   2.847   1.919 -1.1718 -1.1550  1.7725
 2695TIP3   OH229643   5.271   2.447   3.619  0.2232  0.6712 -0.2759
 2695TIP3    H129644   5.206   2.378   3.633 -0.6145  1.4326 -0.2814
 2695TIP3    H229645   5.252   2.512   3.687  1.7989  0.3478  0.5158
 2696TIP3   OH229646   3.474   1.469   3.419 -0.1498  0.9463  0.1047
 2696TIP3    H129647   3.512   1.381   3.421  1.8033  1.6182 -2.2258
 2696TIP3    H229648   3.469   1.495   3.511  1.0520 -0.8543  0.7490
 2697TIP3   OH229649   4.938   6.506   0.880  0.5025  0.3183  0.5709
 2697TIP3    H129650   4.956   6.533   0.790  0.5977  0.4711  0.6347
 2697TIP3    H229651   4.859   6.453   0.874  1.3542 -0.9576  0.1734
 2698TIP3   OH229652   1.092   2.841   2.739 -0.3211  0.0584  0.2790
 2698TIP3    H129653   1.003   2.825   2.771  0.2718 -3.1758  0.6234
 2698TIP3    H229654   1.080   2.881   2.653 -2.0188  2.0634  1.3669
 2699TIP3   OH229655   3.429   3.862   8.741  0.0458  0.1732 -0.0547
 2699TIP3    H129656   3.352   3.849   8.796 -0.0320  1.6684  0.2270
 2699TIP3    H229657   3.419   3.799   8.670 -0.6160 -0.7475  0.8187
 2700TIP3   OH229658   3.493   4.667   2.197  0.1338 -0.0188  0.2198
 2700TIP3    H129659   3.485   4.596   2.260  0.1969 -0.3448 -0.1332
 2700TIP3    H229660   3.407   4.709   2.195  0.1163 -0.0460  0.4751
 2701TIP3   OH229661   6.470   5.591   0.871 -0.0312  0.0597 -0.5499
 2701TIP3    H129662   6.433   5.510   0.837  2.5062 -2.5500  2.2053
 2701TIP3    H229663   6.541   5.612   0.811  0.0600 -0.4958 -0.6398
 2702TIP3   OH229664   0.137   4.302   2.756  0.3729  0.3292  0.4297
 2702TIP3    H129665   0.201   4.253   2.808 -0.2428 -0.4613  0.4536
 2702TIP3    H229666   0.054   4.258   2.772 -0.4539  2.1646  1.4820
 2703TIP3   OH229667   3.568   5.998   1.273  0.2425 -0.2766  0.5801
 2703TIP3    H129668   3.514   6.077   1.285 -1.0170 -1.2566  1.6541
 2703TIP3    H229669   3.636   6.006   1.340  1.1651  0.7022 -0.4293
 2704TIP3   OH229670   0.064   2.693   2.867 -0.0837 -0.3236  0.3683
 2704TIP3    H129671   0.139   2.636   2.847  0.8697  1.6522 -2.4237
 2704TIP3    H229672  -0.012   2.644   2.836  0.7656 -0.0143 -2.5273
 2705TIP3   OH229673   5.557   3.265   0.685  0.6687  0.1664  0.1438
 2705TIP3    H129674   5.602   3.346   0.661  2.8395 -1.3265 -1.2499
 2705TIP3    H229675   5.589   3.200   0.621 -3.2998 -1.1509 -0.8050
 2706TIP3   OH229676   6.513   6.065   1.303 -0.6775  0.0497  0.4136
 2706TIP3    H129677   6.436   6.008   1.312 -0.3375 -0.3754  0.6979
 2706TIP3    H229678   6.510   6.095   1.212 -0.8278 -0.4839  0.2364
 2707TIP3   OH229679   2.682   4.936   4.711 -0.4943  0.6212  0.0442
 2707TIP3    H129680   2.742   4.863   4.695  0.1898  0.8269  1.5004
 2707TIP3    H229681   2.651   4.961   4.624  1.9028  0.8123 -0.8341
 2708TIP3   OH229682   0.110   0.207   0.195 -0.3066  0.3330  0.4632
 2708TIP3    H129683   0.138   0.270   0.129 -0.0728  0.4210  0.6427
 2708TIP3    H229684   0.034   0.164   0.157  0.8520 -0.8346 -0.5816
 2709TIP3   OH229685   4.844   4.993   3.609 -0.7896 -0.4545 -1.0797
 2709TIP3    H129686   4.824   4.970   3.700 -2.0327  0.0086 -1.2235
 2709TIP3    H229687   4.843   5.089   3.608  3.1236 -0.2451 -0.7594
 2710TIP3   OH229688   0.525   5.639   3.323 -0.2286  0.1567 -0.0712
 2710TIP3    H129689   0.585   5.568   3.348 -1.3740 -0.7513  0.1653
 2710TIP3    H229690   0.535   5.646   3.228  0.2222 -0.0016 -0.0410
 2711TIP3   OH229691   1.396   5.064   0.936 -0.0526  1.0891  0.0179
 2711TIP3    H129692   1.373   4.971   0.928 -1.9213  1.2354  2.5685
 2711TIP3    H229693   1.359   5.104   0.857  0.9522 -0.3032 -1.2236
 2712TIP3   OH229694   6.394   6.771   4.318 -0.4488 -0.2835  0.1267
 2712TIP3    H129695   6.301   6.762   4.341 -0.0308 -1.4075  1.5674
 2712TIP3    H229696   6.421   6.683   4.291  0.5209 -0.3534  1.1958
 2713TIP3   OH229697   2.490   4.757   3.363  0.2253  0.9359 -0.9328
 2713TIP3    H129698   2.518   4.754   3.455  0.3937  0.2091 -0.9992
 2713TIP3    H229699   2.530   4.837   3.329  3.6822 -0.8003 -1.4416
 2714TIP3   OH229700   6.417   0.294   4.613 -0.0010  0.7942  0.2053
 2714TIP3    H129701   6.343   0.234   4.615  1.5045 -1.1783  0.4803
 2714TIP3    H229702   6.400   0.357   4.682 -0.6175 -0.6521  1.4185
 2715TIP3   OH229703   2.051   4.403   2.740 -0.3775 -0.0100 -0.1646
 2715TIP3    H129704   2.068   4.309   2.744  0.3040  0.1579  2.4634
 2715TIP3    H229705   2.135   4.442   2.714 -0.9394 -0.1240 -2.3747
 2716TIP3   OH229706   5.197   5.403   3.241  0.4528  0.5343  0.0704
 2716TIP3    H129707   5.111   5.405   3.283  0.2281  0.8269 -0.3891
 2716TIP3    H229708   5.179   5.377   3.151  1.0860 -1.4674  0.4820
 2717TIP3   OH229709   5.967   2.350   0.511  0.1975 -0.4484  0.2540
 2717TIP3    H129710   5.874   2.367   0.526  0.0281 -0.2771 -0.8783
 2717TIP3    H229711   5.971   2.314   0.422  0.9793 -2.6202  1.1114
 2718TIP3   OH229712   3.054   4.476   1.423 -0.1855  0.4604 -0.1691
 2718TIP3    H129713   3.046   4.510   1.513 -0.8828  0.3545 -0.1828
 2718TIP3    H229714   3.017   4.545   1.369 -0.2657  0.2938 -0.3265
 2719TIP3   OH229715   6.296   1.179   3.588 -0.6068 -0.3039  0.7117
 2719TIP3    H129716   6.371   1.121   3.603 -0.8411 -0.3636  1.7715
 2719TIP3    H229717   6.220   1.127   3.614 -0.9976 -0.1734 -0.1675
 2720TIP3   OH229718   1.264   6.360   1.104  0.5598  0.3461 -0.2910
 2720TIP3    H129719   1.298   6.358   1.015  1.0548  0.1318 -0.0987
 2720TIP3    H229720   1.297   6.280   1.145  0.3846  0.4679  0.1018
 2721TIP3   OH229721   4.611   6.045   2.651  0.4127  0.0414  0.7446
 2721TIP3    H129722   4.650   6.083   2.572  0.1793 -0.2077  0.5063
 2721TIP3    H229723   4.535   5.995   2.618  0.4741 -0.2834  1.0969
 2722TIP3   OH229724   0.961   0.126   2.968  0.3619 -1.0376 -0.4563
 2722TIP3    H129725   1.007   0.204   2.996 -2.5105  0.5257  0.2709
 2722TIP3    H229726   0.938   0.081   3.049  1.1506 -2.1974 -0.8384
 2723TIP3   OH229727   1.387   4.907   1.489 -0.1051 -0.1589  0.2453
 2723TIP3    H129728   1.383   4.979   1.425 -0.7678 -0.3491  0.0642
 2723TIP3    H229729   1.410   4.830   1.436  0.7603 -0.0635  0.4630
 2724TIP3   OH229730   4.604   2.311   3.182  0.0475  0.3986  0.4131
 2724TIP3    H129731   4.549   2.263   3.121  1.9577 -2.3754  0.6691
 2724TIP3    H229732   4.599   2.260   3.264 -0.1513  2.3643  1.6885
 2725TIP3   OH229733   4.103   6.107   3.930 -0.3734 -0.2880 -0.3840
 2725TIP3    H129734   4.014   6.093   3.898 -0.1911 -1.4143 -0.4461
 2725TIP3    H229735   4.135   6.019   3.951 -0.1243  0.2944  1.9351
 2726TIP3   OH229736   1.995   1.866   2.524 -0.1328  0.1923 -0.0800
 2726TIP3    H129737   2.025   1.822   2.445  0.3278  1.2221 -0.4877
 2726TIP3    H229738   2.049   1.945   2.530  1.2563 -0.8088  2.3373
 2727TIP3   OH229739   6.443   3.598   3.317  0.9723 -0.2414  0.6142
 2727TIP3    H129740   6.461   3.561   3.404  4.0880 -0.9050 -0.2005
 2727TIP3    H229741   6.470   3.530   3.256  1.1996  1.1381 -0.8901
 2728TIP3   OH229742   6.431   0.694   1.678  0.0580 -0.4643 -0.0532
 2728TIP3    H129743   6.476   0.619   1.640 -1.9058  0.1576 -4.1303
 2728TIP3    H229744   6.482   0.770   1.647 -1.2903  0.0398 -1.1489
 2729TIP3   OH229745   2.469   6.621   1.066  0.2319  0.4360  0.1388
 2729TIP3    H129746   2.409   6.615   0.991  0.9741 -0.3913 -0.4089
 2729TIP3    H229747   2.531   6.549   1.053  1.0870  1.0053  0.9285
 2730TIP3   OH229748   5.819   4.554   4.167 -0.2118 -0.6778  0.2077
 2730TIP3    H129749   5.824   4.629   4.109 -1.4484 -1.1473 -0.5393
 2730TIP3    H229750   5.908   4.520   4.171  0.5298  1.1987  1.1110
 2731TIP3   OH229751   4.401   2.678   1.959  0.1169  0.0498 -0.2826
 2731TIP3    H129752   4.417   2.616   2.030 -0.6070 -0.3222 -0.4429
 2731TIP3    H229753   4.338   2.635   1.902 -1.3256  1.4092  0.2306
 2732TIP3   OH229754   1.560   1.838   4.752 -0.6833  0.7315  0.2030
 2732TIP3    H129755   1.624   1.888   4.702 -0.3491 -0.9139 -1.1085
 2732TIP3    H229756   1.612   1.777   4.804 -1.1384 -0.4003 -0.6338
 2733TIP3   OH229757   3.478   2.722   2.907 -0.3795  0.0530  0.1981
 2733TIP3    H129758   3.414   2.747   2.974  0.4192  1.5383  0.4524
 2733TIP3    H229759   3.477   2.626   2.908 -2.8716  0.0266 -0.1046
 2734TIP3   OH229760   4.230   2.146   2.934 -0.1923 -0.0007 -0.1268
 2734TIP3    H129761   4.238   2.052   2.950 -1.2745  0.0683  1.0085
 2734TIP3    H229762   4.248   2.186   3.019 -0.4729  0.7618 -0.4246
 2735TIP3   OH229763   0.278   3.926   4.697  0.0994  0.6656 -0.0459
 2735TIP3    H129764   0.312   3.958   4.780  0.5154  1.5735 -0.5516
 2735TIP3    H229765   0.219   3.995   4.667  0.0792  0.4226 -0.5786
 2736TIP3   OH229766   4.025   4.545   3.441 -0.2197  0.3116  0.0178
 2736TIP3    H129767   4.011   4.452   3.457  1.5846 -0.2813 -1.4250
 2736TIP3    H229768   3.946   4.573   3.395 -0.3410 -0.7754 -0.4755
 2737TIP3   OH229769   2.640   1.533   0.962 -0.5781 -0.2374  0.0614
 2737TIP3    H129770   2.592   1.461   0.920 -0.8167  0.4446 -0.8854
 2737TIP3    H229771   2.582   1.563   1.032  0.2583 -2.0490  1.6056
 2738TIP3   OH229772   3.168   6.346   0.652  0.2543 -0.3486  0.4630
 2738TIP3    H129773   3.223   6.417   0.686  0.0990 -0.7979  1.7215
 2738TIP3    H229774   3.095   6.391   0.610  0.2934  0.2506  1.0181
 2739TIP3   OH229775   1.895   6.266   3.291 -0.3581 -0.1815 -0.3575
 2739TIP3    H129776   1.856   6.339   3.244  0.5577  0.5600 -0.0016
 2739TIP3    H229777   1.822   6.222   3.333 -0.7192  1.8965  1.3207
 2740TIP3   OH229778   4.789   5.316   5.311 -0.4364  0.2099  0.0434
 2740TIP3    H129779   4.879   5.333   5.282 -0.4372  0.8118  0.3763
 2740TIP3    H229780   4.790   5.226   5.343  0.6474  0.9800  2.3294
 2741TIP3   OH229781   0.321   3.609   3.491  0.2716 -0.4184 -0.1847
 2741TIP3    H129782   0.369   3.690   3.505 -0.1990 -0.0109 -0.8712
 2741TIP3    H229783   0.329   3.592   3.397  0.5048 -1.2603 -0.0283
 2742TIP3   OH229784   1.458   3.974   4.216 -0.0352 -0.1957 -0.1293
 2742TIP3    H129785   1.508   3.924   4.281 -0.3549 -1.7294 -1.0234
 2742TIP3    H229786   1.519   3.988   4.144 -0.2272 -0.0976 -0.2737
 2743TIP3   OH229787   0.411   5.454   0.900  0.5306 -0.2496  0.4806
 2743TIP3    H129788   0.475   5.455   0.971  0.5207  0.8022  0.4763
 2743TIP3    H229789   0.328   5.476   0.941  0.4338 -0.1491  0.2339
 2744TIP3   OH229790   2.806   2.767   0.448  0.2736  0.5900 -0.4004
 2744TIP3    H129791   2.893   2.797   0.419  0.8313  0.7864  1.3796
 2744TIP3    H229792   2.824   2.711   0.523 -1.1518  0.6378 -0.0009
 2745TIP3   OH229793   4.044   4.854   2.659  0.0523  0.0955  0.0425
 2745TIP3    H129794   4.035   4.919   2.589  0.0605  1.9549  1.6760
 2745TIP3    H229795   4.101   4.896   2.723 -2.1475 -0.3358  2.4513
 2746TIP3   OH229796   3.148   5.859   3.602  0.8938 -0.2024  0.2299
 2746TIP3    H129797   3.210   5.829   3.536 -0.4625  0.2382 -1.3144
 2746TIP3    H229798   3.102   5.780   3.630 -0.3320 -0.1156 -1.3487
 2747TIP3   OH229799   4.894   4.707   4.036 -0.3052 -0.2980  0.3425
 2747TIP3    H129800   4.933   4.638   3.982 -1.7590  0.0447 -1.2306
 2747TIP3    H229801   4.950   4.783   4.021 -0.3166 -0.3841 -0.1518
 2748TIP3   OH229802   5.688   5.444   1.318 -0.0339  0.1925 -0.1504
 2748TIP3    H129803   5.610   5.390   1.307  0.3620 -0.6105  0.8184
 2748TIP3    H229804   5.687   5.469   1.411  0.9412  0.0228 -0.0819
 2749TIP3   OH229805   2.252   5.952   0.619 -0.8331  0.1321  0.0075
 2749TIP3    H129806   2.257   5.952   0.524  1.1326  0.6126  0.0776
 2749TIP3    H229807   2.285   6.038   0.645  2.0300 -1.2167  1.2060
 2750TIP3   OH229808   4.603   0.288   2.990 -0.4709  0.0364 -0.3906
 2750TIP3    H129809   4.598   0.306   2.897  0.6385 -1.7028 -0.8325
 2750TIP3    H229810   4.629   0.372   3.030  1.1528  0.3128 -1.8964
 2751TIP3   OH229811   1.355   1.533   4.114  0.0676 -0.4183  0.2818
 2751TIP3    H129812   1.275   1.581   4.135 -0.2330 -1.2921  1.1937
 2751TIP3    H229813   1.326   1.464   4.053  1.0174  2.4708 -3.8551
 2752TIP3   OH229814   5.069   1.486   0.828 -0.1487  0.1302  0.0389
 2752TIP3    H129815   5.014   1.447   0.760 -1.7088  1.0649  0.7152
 2752TIP3    H229816   5.028   1.460   0.910  0.3942  0.9023  0.5660
 2753TIP3   OH229817   5.882   2.314   4.012 -0.4703  0.7783 -0.0260
 2753TIP3    H129818   5.945   2.329   3.941  0.1207  1.3430  0.5878
 2753TIP3    H229819   5.907   2.379   4.079 -0.7776  0.0224  0.8411
 2754TIP3   OH229820   1.049   4.641   4.821  0.0280  0.3271  0.0736
 2754TIP3    H129821   1.140   4.643   4.790  0.5286 -0.0909  1.4460
 2754TIP3    H229822   1.021   4.732   4.818  1.3991  0.8916  2.1211
 2755TIP3   OH229823   3.944   4.577   2.222 -0.4060  0.1403  0.2305
 2755TIP3    H129824   4.030   4.544   2.247 -0.5011  0.0039  0.3788
 2755TIP3    H229825   3.921   4.639   2.292  0.0444  0.9962 -0.3617
 2756TIP3   OH229826   5.080   1.048   3.869 -0.4685  0.0406  0.3990
 2756TIP3    H129827   5.074   0.954   3.853 -0.3642  0.0243  0.4536
 2756TIP3    H229828   5.000   1.070   3.916  0.1944 -0.3010  1.7330
 2757TIP3   OH229829   3.073   3.432   2.334  0.1521 -0.2160  0.0428
 2757TIP3    H129830   3.160   3.392   2.328 -0.1784 -1.2386  1.4501
 2757TIP3    H229831   3.061   3.450   2.427 -1.4176 -0.7512 -0.0188
 2758TIP3   OH229832   1.458   5.957   1.058 -0.4599 -0.6229 -0.3401
 2758TIP3    H129833   1.523   5.887   1.059 -0.2957 -0.5894 -2.7411
 2758TIP3    H229834   1.383   5.919   1.013 -0.6027  0.4984 -1.0967
 2759TIP3   OH229835   1.712   6.041   0.730  0.3814  0.0806 -0.6143
 2759TIP3    H129836   1.633   5.990   0.712 -1.5880  2.7769 -0.2303
 2759TIP3    H229837   1.783   5.988   0.694 -1.4884 -2.6753 -0.6170
 2760TIP3   OH229838   5.505   3.563   4.584  0.0994 -0.2173  0.3029
 2760TIP3    H129839   5.568   3.526   4.647 -1.0327  0.4531  1.8687
 2760TIP3    H229840   5.482   3.648   4.620  0.3960  0.7918 -1.7324
 2761TIP3   OH229841   2.891   2.618   2.584  0.1322 -0.0536 -0.3287
 2761TIP3    H129842   2.971   2.594   2.538  0.6350  1.2384 -0.1579
 2761TIP3    H229843   2.912   2.605   2.677  0.1121  0.2257 -0.2868
 2762TIP3   OH229844   2.333   5.598   3.343 -0.2210  0.2257 -0.8422
 2762TIP3    H129845   2.240   5.603   3.367  0.5433  1.0754  2.5723
 2762TIP3    H229846   2.351   5.504   3.336 -1.0031 -0.0444  0.3163
 2763TIP3   OH229847   2.537   1.398   3.774 -0.6730  0.0137  0.8154
 2763TIP3    H129848   2.489   1.388   3.856  0.6826 -0.7605  1.5582
 2763TIP3    H229849   2.618   1.443   3.798 -1.0405  1.4257 -0.4321
 2764TIP3   OH229850   2.920   4.823   2.581  0.3816  0.3239  0.0022
 2764TIP3    H129851   2.880   4.909   2.576 -1.0237 -0.3574 -1.2567
 2764TIP3    H229852   2.853   4.763   2.547  2.4381 -0.9066 -2.1983
 2765TIP3   OH229853   0.130   5.402   4.116 -1.0737 -0.1623  0.3037
 2765TIP3    H129854   0.065   5.460   4.157 -1.0035  0.4537 -0.4375
 2765TIP3    H229855   0.214   5.443   4.135 -1.0145 -0.0864 -0.1300
 2766TIP3   OH229856   4.756   5.755   3.522 -0.1149 -0.1184 -0.1047
 2766TIP3    H129857   4.727   5.792   3.606 -0.2873 -0.7152  0.1067
 2766TIP3    H229858   4.843   5.720   3.540 -0.7737 -1.6490  0.2604
 2767TIP3   OH229859   2.810   0.511   0.698  0.4993 -0.7134  0.0875
 2767TIP3    H129860   2.876   0.578   0.717  0.6142 -0.4081 -1.2607
 2767TIP3    H229861   2.861   0.432   0.679  0.3738 -1.1279  1.3546
 2768TIP3   OH229862   6.052   3.465   0.723  0.2877  0.0744 -0.3534
 2768TIP3    H129863   6.005   3.440   0.803  3.1352 -0.6002  1.2686
 2768TIP3    H229864   6.036   3.393   0.663 -1.0007  0.0456 -0.0106
 2769TIP3   OH229865   2.324   4.430   3.162  0.0401  0.3399 -0.3490
 2769TIP3    H129866   2.292   4.341   3.148  1.0457 -0.0739 -0.1737
 2769TIP3    H229867   2.355   4.430   3.253 -0.1116  0.9165 -0.2957
 2770TIP3   OH229868   5.715   2.521   2.324 -0.0877  0.3120  0.1305
 2770TIP3    H129869   5.626   2.510   2.357  0.1882 -1.6586  0.3457
 2770TIP3    H229870   5.729   2.615   2.322 -2.1387  0.6516  0.1798
 2771TIP3   OH229871   4.661   2.852   0.595 -0.8124  0.1778 -0.0821
 2771TIP3    H129872   4.675   2.930   0.647  1.2743 -1.2779  1.7073
 2771TIP3    H229873   4.733   2.850   0.533 -1.9598  0.6412 -1.4990
 2772TIP3   OH229874   6.425   5.807   0.646  0.2254 -0.2004  0.3164
 2772TIP3    H129875   6.332   5.814   0.669 -0.2423 -0.9940 -1.1583
 2772TIP3    H229876   6.424   5.786   0.552  1.9530  1.2746 -0.0671
 2773TIP3   OH229877   5.053   2.687   2.965  0.3750 -0.4356 -0.2048
 2773TIP3    H129878   5.117   2.625   2.930  1.5654  0.4444  0.3430
 2773TIP3    H229879   5.106   2.758   3.003 -0.9323  0.9300 -0.8204
 2774TIP3   OH229880   6.577   0.712   2.457  0.6000 -0.4561  0.4226
 2774TIP3    H129881   6.647   0.652   2.481 -0.3531 -2.0151 -0.5533
 2774TIP3    H229882   6.552   0.686   2.368  0.5757  1.8129 -0.3008
 2775TIP3   OH229883   2.536   5.052   3.351 -0.1093  0.6448 -0.1903
 2775TIP3    H129884   2.565   5.127   3.300  0.9786  0.4347  0.0814
 2775TIP3    H229885   2.441   5.052   3.343 -0.2724  2.9652  1.0899
 2776TIP3   OH229886   1.699   3.323   1.806 -0.2861  0.1041 -0.6898
 2776TIP3    H129887   1.793   3.310   1.818 -0.5374 -1.6034 -0.1890
 2776TIP3    H229888   1.692   3.380   1.729  1.1468  0.4217 -0.6169
 2777TIP3   OH229889   4.333   5.193   1.682  0.0179  0.5884  0.1103
 2777TIP3    H129890   4.329   5.103   1.713 -0.8614  0.9216  1.0388
 2777TIP3    H229891   4.369   5.242   1.756  0.4452  1.0209 -0.3700
 2778TIP3   OH229892   5.708   5.610   4.510 -0.3366 -0.0245  0.1214
 2778TIP3    H129893   5.766   5.649   4.575  1.0533 -0.2245 -0.9403
 2778TIP3    H229894   5.676   5.530   4.551 -0.1783  0.2945  0.8790
 2779TIP3   OH229895   2.838   6.397   0.139 -0.0181 -0.0357  0.2165
 2779TIP3    H129896   2.882   6.430   0.061 -0.9020  1.5349  0.3330
 2779TIP3    H229897   2.768   6.341   0.106 -0.5923  0.8820 -0.1522
 2780TIP3   OH229898   0.610   4.130   2.618 -0.4031  0.1097 -0.3347
 2780TIP3    H129899   0.557   4.189   2.564  0.7212  2.0318  0.5479
 2780TIP3    H229900   0.623   4.053   2.563  2.7879  2.8816 -4.0800
 2781TIP3   OH229901   3.415   6.173   1.834  0.0604 -0.0298 -0.6611
 2781TIP3    H129902   3.491   6.143   1.784  1.5322 -1.0054  1.9556
 2781TIP3    H229903   3.446   6.251   1.879 -0.5768 -0.2595  0.1940
 2782TIP3   OH229904   3.338   4.772   3.244  0.1847 -0.2510 -0.6654
 2782TIP3    H129905   3.350   4.707   3.314 -1.6154 -0.0924 -0.1519
 2782TIP3    H229906   3.255   4.814   3.266 -0.7875 -0.6469 -3.2741
 2783TIP3   OH229907   2.128   2.883   0.293  0.5650  0.0534  0.0949
 2783TIP3    H129908   2.167   2.914   0.211  0.9997  0.6599  0.5236
 2783TIP3    H229909   2.067   2.953   0.318 -0.9882 -0.9708 -0.6768
 2784TIP3   OH229910   3.121   0.383   4.089 -0.0996 -0.0578  0.0242
 2784TIP3    H129911   3.162   0.436   4.021  0.4474  0.9599  1.1002
 2784TIP3    H229912   3.124   0.438   4.167  0.8127 -1.7779  1.2900
 2785TIP3   OH229913   5.104   5.329   1.465 -0.2743 -0.1891 -0.7163
 2785TIP3    H129914   5.131   5.277   1.389 -0.3326 -1.8087  0.3113
 2785TIP3    H229915   5.151   5.411   1.457  2.7809 -1.7669 -0.5234
 2786TIP3   OH229916   5.112   5.805   3.026  0.1825 -0.3738  0.3795
 2786TIP3    H129917   5.160   5.880   3.061 -0.6809  0.4225 -0.1163
 2786TIP3    H229918   5.170   5.730   3.041  0.7063  0.2600  1.6211
 2787TIP3   OH229919   5.670   1.320   1.427  0.4882  0.5515  0.0548
 2787TIP3    H129920   5.744   1.261   1.410  0.2510 -0.4540  2.2308
 2787TIP3    H229921   5.634   1.291   1.511  0.0792  3.5238  1.0364
 2788TIP3   OH229922   3.185   1.207   2.507 -0.0790  0.5134 -0.0921
 2788TIP3    H129923   3.249   1.156   2.556 -0.3877 -0.7492 -0.9267
 2788TIP3    H229924   3.147   1.267   2.571  0.2971 -0.3258  0.9450
 2789TIP3   OH229925   4.540   0.696   1.826 -0.0721  0.5576 -0.9893
 2789TIP3    H129926   4.558   0.779   1.781  1.8430  0.6145 -0.2149
 2789TIP3    H229927   4.447   0.680   1.810 -0.9947  3.7782  0.3440
 2790TIP3   OH229928   0.350   6.095   3.557 -0.2443  0.5643 -0.5805
 2790TIP3    H129929   0.323   6.172   3.607  0.4940 -0.7627  2.0229
 2790TIP3    H229930   0.274   6.037   3.557 -1.1350  1.5514 -3.3673
 2791TIP3   OH229931   6.033   3.249   1.250 -0.1854  0.3534 -0.2144
 2791TIP3    H129932   6.126   3.268   1.248  0.3390 -1.6628  1.4922
 2791TIP3    H229933   6.000   3.294   1.328 -1.2065  2.9041 -1.9641
 2792TIP3   OH229934   3.494   3.998   2.581 -0.0564 -0.0745  0.2651
 2792TIP3    H129935   3.560   4.061   2.610 -0.5312 -0.0707  1.3828
 2792TIP3    H229936   3.461   3.959   2.662 -0.5725 -0.9455 -0.3498
 2793TIP3   OH229937   4.791   4.668   1.726  0.4660  0.3101  0.8638
 2793TIP3    H129938   4.715   4.615   1.751  1.0526 -1.4948 -0.9100
 2793TIP3    H229939   4.795   4.659   1.630  4.3347 -1.7270  1.0533
 2794TIP3   OH229940   2.055   0.122   2.503 -0.3269 -0.0370 -0.4705
 2794TIP3    H129941   2.145   0.100   2.481 -0.4937  0.7013 -1.9647
 2794TIP3    H229942   2.002   0.065   2.447 -0.7959 -0.2209  0.1479
 2795TIP3   OH229943   2.991   3.778   3.617 -0.3991  0.0746  0.3364
 2795TIP3    H129944   2.994   3.742   3.529 -0.2286  0.0543  0.3497
 2795TIP3    H229945   3.045   3.719   3.669  0.5543  0.7882  0.1947
 2796TIP3   OH229946   0.251   0.412   0.552 -0.1527  0.5269  0.0673
 2796TIP3    H129947   0.218   0.493   0.515 -0.4038 -0.4185 -1.8805
 2796TIP3    H229948   0.345   0.414   0.535 -0.2206  0.2292 -0.3472
 2797TIP3   OH229949   1.189   2.623   1.784  0.1451  0.1092 -0.2704
 2797TIP3    H129950   1.179   2.648   1.876  2.4020 -0.9277  0.3547
 2797TIP3    H229951   1.202   2.705   1.737 -0.7004  0.6236  0.3790
 2798TIP3   OH229952   4.903   6.726   3.782  0.3291 -0.6497 -0.3914
 2798TIP3    H129953   4.822   6.774   3.797  0.8553  0.5235 -1.1096
 2798TIP3    H229954   4.879   6.658   3.719 -0.4360 -1.3762  0.6638
 2799TIP3   OH229955   0.661   6.338   2.074  0.3283  0.2911  0.0566
 2799TIP3    H129956   0.639   6.374   1.988 -1.5008 -1.5766 -0.3178
 2799TIP3    H229957   0.685   6.247   2.057  0.3417  0.0051  1.4849
 2800TIP3   OH229958   4.093   2.614   1.400  0.1616 -0.0487  0.1134
 2800TIP3    H129959   4.075   2.699   1.441  0.3938  0.3044 -0.4891
 2800TIP3    H229960   4.165   2.577   1.450  1.2031  0.8849 -0.6457
 2801TIP3   OH229961   2.783   0.222   1.451  0.2640  0.6416 -0.8254
 2801TIP3    H129962   2.867   0.216   1.407  0.6084  0.2514 -0.1422
 2801TIP3    H229963   2.794   0.293   1.514 -0.2902  1.3380 -1.4903
 2802TIP3   OH229964   3.714   4.290   3.193  0.0046  0.2225 -0.9573
 2802TIP3    H129965   3.658   4.225   3.150 -2.1005  1.1995  0.1992
 2802TIP3    H229966   3.723   4.259   3.283 -0.2203  1.0277 -0.6494
 2803TIP3   OH229967   1.728   2.274   0.488  0.2038 -0.2740 -0.3854
 2803TIP3    H129968   1.686   2.313   0.564  0.0437  2.8604 -1.9322
 2803TIP3    H229969   1.657   2.232   0.440 -0.1055 -0.1341 -0.0507
 2804TIP3   OH229970   3.374   4.416   0.794 -0.2599  0.5744 -0.1573
 2804TIP3    H129971   3.289   4.407   0.837 -0.6249 -0.4093 -1.0346
 2804TIP3    H229972   3.438   4.413   0.865 -0.9307  0.7325  0.4577
 2805TIP3   OH229973   1.142   2.273   1.968 -0.5651  0.6536  0.1852
 2805TIP3    H129974   1.125   2.180   1.985  0.5666 -0.0666 -2.1662
 2805TIP3    H229975   1.057   2.314   1.975 -0.9241 -0.3209  2.3971
 2806TIP3   OH229976   3.179   1.868   2.697 -0.3945 -0.0880  0.3081
 2806TIP3    H129977   3.144   1.924   2.766 -3.4395 -2.2830  0.7106
 2806TIP3    H229978   3.250   1.820   2.739  0.7689  1.7478  0.5624
 2807TIP3   OH229979   6.243   6.165   1.199 -0.2307 -0.2561  0.0018
 2807TIP3    H129980   6.189   6.133   1.271  0.6282 -0.8115  0.4158
 2807TIP3    H229981   6.274   6.251   1.229 -1.6779  0.5405 -0.6666
 2808TIP3   OH229982   6.458   0.330   4.328  0.2031  0.1263 -0.1146
 2808TIP3    H129983   6.428   0.421   4.328  0.6711  0.2876  0.2884
 2808TIP3    H229984   6.450   0.303   4.420  2.4110  0.5622  0.2424
 2809TIP3   OH229985   5.763   0.113   3.428 -0.1654  0.2416  0.6427
 2809TIP3    H129986   5.755   0.068   3.512  0.3416 -1.1221 -0.0055
 2809TIP3    H229987   5.725   0.052   3.365  0.3822  0.7981 -0.2477
 2810TIP3   OH229988   5.494   6.498   2.856 -0.1101  0.3360 -0.0106
 2810TIP3    H129989   5.535   6.417   2.826 -1.0317  0.0932 -0.6418
 2810TIP3    H229990   5.405   6.473   2.879 -1.0491  1.5150 -2.1254
 2811TIP3   OH229991   2.339   2.696   2.909  0.3371 -0.8081  0.1635
 2811TIP3    H129992   2.308   2.667   2.995 -1.3323  1.1345  0.3083
 2811TIP3    H229993   2.269   2.753   2.877  1.3551 -0.7242 -2.0825
 2812TIP3   OH229994   4.581   2.338   3.555  0.5112 -0.6612  0.1787
 2812TIP3    H129995   4.558   2.254   3.516 -0.6329 -1.5759  2.5817
 2812TIP3    H229996   4.618   2.315   3.640  0.5126  1.2474  0.7439
 2813TIP3   OH229997   4.919   4.911   2.097 -0.0333 -0.2301 -0.4147
 2813TIP3    H129998   4.943   4.878   2.011 -0.8603 -1.1960 -0.2888
 2813TIP3    H229999   4.925   5.006   2.089 -0.5313 -0.2913 -1.6684
 2814TIP3   OH230000   1.182   6.711   0.902  0.2691  0.0182  0.1442
 2814TIP3    H130001   1.267   6.709   0.859 -0.3334  0.6270 -1.1028
 2814TIP3    H230002   1.171   6.802   0.930 -1.0333  0.5449 -1.9319
 2815TIP3   OH230003   4.896   1.146   1.907 -0.8063 -0.0103 -0.3017
 2815TIP3    H130004   4.898   1.051   1.899  1.4791  0.0359 -0.9390
 2815TIP3    H230005   4.972   1.176   1.857 -0.2986  2.0196  1.5358
 2816TIP3   OH230006   1.810   4.599   1.497 -0.3151 -0.1769 -0.3279
 2816TIP3    H130007   1.745   4.549   1.547 -2.0192  1.5299 -0.7230
 2816TIP3    H230008   1.879   4.619   1.561 -1.6687  0.5983  0.9445
 2817TIP3   OH230009   0.624   2.188   8.539  0.3343  0.8709  0.2893
 2817TIP3    H130010   0.625   2.105   8.493 -0.0045  0.6940  0.5985
 2817TIP3    H230011   0.707   2.190   8.587 -0.3419 -0.0002  1.5358
 2818TIP3   OH230012   5.408   1.974   3.180 -0.1322 -0.1458  0.1450
 2818TIP3    H130013   5.320   1.971   3.144 -0.8710 -0.2550  1.8426
 2818TIP3    H230014   5.447   2.052   3.141 -1.4092  0.5929  0.2800
 2819TIP3   OH230015   3.997   5.563   3.849 -0.0992 -0.2718 -0.1323
 2819TIP3    H130016   4.035   5.489   3.802 -1.1583 -0.7314 -0.3058
 2819TIP3    H230017   3.930   5.524   3.905 -1.9566  0.6854 -1.5563
 2820TIP3   OH230018   2.258   1.284   1.419 -0.0325  0.2153  0.1444
 2820TIP3    H130019   2.229   1.226   1.348  0.6873 -1.9308  1.4845
 2820TIP3    H230020   2.330   1.236   1.461 -0.2910  1.4921  2.1776
 2821TIP3   OH230021   5.723   4.196   0.401 -0.1347 -0.0640 -0.1253
 2821TIP3    H130022   5.815   4.207   0.424 -0.3253 -0.3236  0.7811
 2821TIP3    H230023   5.696   4.282   0.369  0.3564  0.0775 -0.1641
 2822TIP3   OH230024   0.702   5.030   1.482 -0.6068  0.0286  0.0104
 2822TIP3    H130025   0.675   5.086   1.410  1.2832  2.9120  1.3863
 2822TIP3    H230026   0.789   4.999   1.457  0.2517  1.4056  1.1594
 2823TIP3   OH230027   1.332   0.388   4.361 -0.4003 -0.3747 -0.2361
 2823TIP3    H130028   1.354   0.302   4.396 -1.2266 -0.3188  0.4461
 2823TIP3    H230029   1.265   0.370   4.294 -1.5906 -0.1594  0.8677
 2824TIP3   OH230030   3.904   4.652   1.589 -0.1656 -0.3804 -0.4794
 2824TIP3    H130031   3.937   4.742   1.593 -0.8730 -0.0950 -0.9834
 2824TIP3    H230032   3.850   4.643   1.668  0.2910 -0.5224 -0.1796
 2825TIP3   OH230033   4.958   2.220   1.096  0.1294 -0.5950  0.2434
 2825TIP3    H130034   4.884   2.203   1.154 -2.3601 -1.6055 -2.9621
 2825TIP3    H230035   4.964   2.316   1.093 -1.8454 -0.4378 -0.2690
 2826TIP3   OH230036   3.724   3.994   0.173  0.3448 -0.2929 -0.2628
 2826TIP3    H130037   3.726   3.931   0.101  1.2099  0.6411 -1.0744
 2826TIP3    H230038   3.805   3.977   0.222  0.4644  0.0339 -0.3471
 2827TIP3   OH230039   5.284   3.270   3.540  0.2523  0.8033  0.0412
 2827TIP3    H130040   5.221   3.199   3.556  0.1843  0.6931 -0.6733
 2827TIP3    H230041   5.333   3.242   3.463  1.2844  0.8286  0.6681
 2828TIP3   OH230042   0.978   2.449   2.189  0.0358 -0.7751  0.1005
 2828TIP3    H130043   0.990   2.385   2.258  0.3060 -0.8800 -0.0396
 2828TIP3    H230044   0.883   2.456   2.178 -0.0036 -0.8537  0.3894
 2829TIP3   OH230045   3.068   2.488   8.798 -0.6693  0.6258  0.1089
 2829TIP3    H130046   3.083   2.417   8.860 -0.4096  0.8620  0.3221
 2829TIP3    H230047   3.150   2.494   8.748 -1.1200 -0.0128 -0.7282
 2830TIP3   OH230048   4.205   2.023   3.841  0.3303  0.2068  0.0961
 2830TIP3    H130049   4.187   1.957   3.907  0.1000  0.6871  0.5249
 2830TIP3    H230050   4.296   2.048   3.855  0.1839  0.5454  0.4495
 2831TIP3   OH230051   3.522   3.443   0.729 -1.0386  0.5331  0.4313
 2831TIP3    H130052   3.534   3.513   0.665 -0.7192 -0.7543 -0.9759
 2831TIP3    H230053   3.588   3.378   0.706 -2.4006 -0.9852  0.6144
 2832TIP3   OH230054   3.195   2.239   2.502  0.2605  0.8485 -0.2949
 2832TIP3    H130055   3.198   2.144   2.497 -1.3667  0.7519 -0.0578
 2832TIP3    H230056   3.215   2.259   2.593  0.4918  0.7332 -0.3191
 2833TIP3   OH230057   2.495   4.939   0.436 -0.3617  0.2169 -0.1525
 2833TIP3    H130058   2.453   4.854   0.425 -1.1525  0.4743  0.6576
 2833TIP3    H230059   2.581   4.920   0.473  0.3299 -0.3320 -1.9738
 2834TIP3   OH230060   5.187   3.199   2.270  0.2998  0.0919  0.0740
 2834TIP3    H130061   5.251   3.227   2.204  0.8728 -0.6811  0.2869
 2834TIP3    H230062   5.144   3.280   2.297  0.4977  0.4961 -0.7924
 2835TIP3   OH230063   6.400   0.750   1.966  0.2360 -0.4231 -0.3652
 2835TIP3    H130064   6.485   0.792   1.979 -0.6634  1.7500 -1.1634
 2835TIP3    H230065   6.394   0.738   1.871 -1.4758  2.0403 -0.6300
 2836TIP3   OH230066   3.472   6.594   2.546 -0.2066 -0.0199  0.4311
 2836TIP3    H130067   3.432   6.510   2.525 -0.2442 -0.0295  0.5407
 2836TIP3    H230068   3.511   6.581   2.632  1.1228 -0.3873 -0.2053
 2837TIP3   OH230069   2.146   1.905   0.949 -0.5422 -0.0630 -0.7022
 2837TIP3    H130070   2.123   1.987   0.991 -0.0707 -0.5951  0.6541
 2837TIP3    H230071   2.072   1.847   0.965 -0.1023 -0.4595 -0.0410
 2838TIP3   OH230072   4.940   4.157   2.275 -0.2141  0.0173  0.3364
 2838TIP3    H130073   4.955   4.235   2.329 -0.9390  0.6701 -0.3760
 2838TIP3    H230074   4.998   4.091   2.311 -0.4574  0.5314  1.7189
 2839TIP3   OH230075   3.881   1.819   3.783 -0.5597 -0.5212  0.1611
 2839TIP3    H130076   3.792   1.784   3.780 -0.1133 -2.0582  2.2323
 2839TIP3    H230077   3.932   1.751   3.827  2.3540 -1.0064 -3.5223
 2840TIP3   OH230078   2.873   0.081   2.434 -0.2733 -0.3138  0.1038
 2840TIP3    H130079   2.801   0.030   2.398 -0.3730  0.0499 -0.2067
 2840TIP3    H230080   2.881   0.049   2.524 -0.0434 -1.1990 -0.2159
 2841TIP3   OH230081   6.627   1.070   3.570 -0.2265  0.4440  0.1331
 2841TIP3    H130082   6.682   1.146   3.590  0.6203  0.0512 -0.6111
 2841TIP3    H230083   6.655   1.043   3.482  0.8960 -1.9263  1.1324
 2842TIP3   OH230084   6.594   0.444   2.213 -0.1141 -0.7269 -0.8993
 2842TIP3    H130085   6.522   0.504   2.229  0.3346 -0.0881 -1.2249
 2842TIP3    H230086   6.665   0.499   2.181  0.5079 -1.3471 -0.6342
 2843TIP3   OH230087   0.768   2.126   4.377  0.4024  0.0274  0.0830
 2843TIP3    H130088   0.832   2.118   4.448  0.2836  2.2677  0.5222
 2843TIP3    H230089   0.688   2.088   4.413  0.0451  2.0503  1.6441
 2844TIP3   OH230090   1.223   1.700   3.810  0.3577  0.2381  0.0932
 2844TIP3    H130091   1.196   1.696   3.719 -0.5703  0.8041  0.3283
 2844TIP3    H230092   1.213   1.610   3.842  1.1295 -0.0568 -0.4718
 2845TIP3   OH230093   3.573   3.859   5.051  0.5955  0.4893 -0.0189
 2845TIP3    H130094   3.668   3.844   5.055  1.0055  2.3326 -1.4322
 2845TIP3    H230095   3.565   3.953   5.034 -1.2538 -0.3122 -5.6346
 2846TIP3   OH230096   3.293   5.935   0.544  0.3211 -0.3698  0.2021
 2846TIP3    H130097   3.223   5.885   0.502  0.6834 -0.8193  0.1308
 2846TIP3    H230098   3.374   5.895   0.512  0.6436  1.0501 -0.8467
 2847TIP3   OH230099   6.134   2.572   3.848  0.3762  0.6010 -0.9174
 2847TIP3    H130100   6.094   2.655   3.873  0.4413  0.6963 -1.1261
 2847TIP3    H230101   6.109   2.560   3.756  0.9793  0.7535 -1.1055
 2848TIP3   OH230102   6.420   0.197   3.219  0.4923  0.3618 -0.8023
 2848TIP3    H130103   6.444   0.253   3.144  0.0504  1.6631 -0.0059
 2848TIP3    H230104   6.471   0.232   3.292 -0.0612 -0.0634 -0.2066
 2849TIP3   OH230105   1.748   2.116   0.936 -0.1321  0.1202  0.2308
 2849TIP3    H130106   1.685   2.122   0.865  0.8505  0.4846 -0.6403
 2849TIP3    H230107   1.726   2.034   0.981 -1.2266  0.2535 -0.0289
 2850TIP3   OH230108   1.459   6.075   2.715  0.6880  0.1251  0.6444
 2850TIP3    H130109   1.380   6.024   2.697  0.6678  0.8096 -1.4184
 2850TIP3    H230110   1.428   6.165   2.725  1.3078  0.6840 -1.8581
 2851TIP3   OH230111   0.902   6.413   0.141 -0.0903 -0.2497  0.1589
 2851TIP3    H130112   0.979   6.391   0.087 -0.3297  1.1361 -0.8072
 2851TIP3    H230113   0.831   6.421   0.078 -0.8611 -0.7007  0.9607
 2852TIP3   OH230114   5.933   0.231   4.027 -0.0876 -0.0758  0.5214
 2852TIP3    H130115   5.907   0.252   4.117 -0.1058  0.3961  0.4098
 2852TIP3    H230116   5.877   0.287   3.973 -0.1383 -0.4231  0.2152
 2853TIP3   OH230117   4.898   0.660   0.050 -0.1450 -0.0286  0.3413
 2853TIP3    H130118   4.917   0.678   0.142  0.4417 -0.9676  0.4118
 2853TIP3    H230119   4.957   0.718   0.001 -0.0755  0.0769  0.5503
 2854TIP3   OH230120   3.545   3.187   1.788 -0.3805  0.2384 -0.6555
 2854TIP3    H130121   3.603   3.139   1.847  1.2090  3.0632  0.2849
 2854TIP3    H230122   3.460   3.187   1.832 -0.1609 -0.8322 -0.2089
 2855TIP3   OH230123   6.204   6.425   3.219 -0.5438  0.4782  0.3103
 2855TIP3    H130124   6.227   6.468   3.136 -5.0984  4.0654  0.4624
 2855TIP3    H230125   6.152   6.349   3.192 -1.4781  1.2770 -0.2418
 2856TIP3   OH230126   0.829   2.136   0.852 -0.0958 -0.4805 -0.4966
 2856TIP3    H130127   0.802   2.133   0.944 -0.0254 -1.5697 -0.4971
 2856TIP3    H230128   0.899   2.071   0.845 -1.5917 -2.0538 -1.7615
 2857TIP3   OH230129   0.593   5.519   1.561  0.2017  0.1076  0.6077
 2857TIP3    H130130   0.637   5.444   1.600  0.6603  1.3716  2.6584
 2857TIP3    H230131   0.659   5.561   1.506 -0.1838 -1.1782 -0.9055
 2858TIP3   OH230132   6.009   0.087   1.563  0.2106 -0.1800  0.1528
 2858TIP3    H130133   5.997  -0.004   1.591  0.3437  0.4902  2.5386
 2858TIP3    H230134   5.922   0.126   1.571 -0.0754 -0.2800 -1.8369
 2859TIP3   OH230135   4.841   5.452   0.833  0.0688  0.3297 -0.2536
 2859TIP3    H130136   4.765   5.494   0.873  0.4759 -0.2604  1.2187
 2859TIP3    H230137   4.814   5.432   0.744 -0.9369  1.5537 -0.2400
 2860TIP3   OH230138   3.073   2.914   2.686 -0.2330  0.5558 -0.7275
 2860TIP3    H130139   2.991   2.872   2.711 -0.0035  0.8920  0.6869
 2860TIP3    H230140   3.140   2.847   2.701 -0.2224  0.3253 -1.7486
 2861TIP3   OH230141   5.487   3.451   1.846 -0.0290  0.2814  0.0968
 2861TIP3    H130142   5.568   3.447   1.896  0.4553 -0.4441 -0.6962
 2861TIP3    H230143   5.513   3.423   1.758 -0.7193  2.0806 -0.7283
 2862TIP3   OH230144   6.147   5.765   4.612  0.1146 -0.3950 -0.3942
 2862TIP3    H130145   6.169   5.772   4.519 -0.1827  1.4042 -0.3704
 2862TIP3    H230146   6.228   5.786   4.658 -0.3912  1.5973 -0.3015
 2863TIP3   OH230147   5.763   1.196   4.090  0.2251 -0.0293 -0.2071
 2863TIP3    H130148   5.716   1.118   4.119  1.7824 -0.7661  0.4915
 2863TIP3    H230149   5.826   1.164   4.025  0.3763  0.7683 -0.4710
 2864TIP3   OH230150   2.675   6.352   3.397  0.5813 -0.2303 -0.1368
 2864TIP3    H130151   2.623   6.316   3.469 -0.0790 -0.0861 -0.5285
 2864TIP3    H230152   2.639   6.439   3.382  1.2019  0.0305 -0.1594
 2865TIP3   OH230153   4.326   4.807   0.886 -0.1407 -0.0348  0.2925
 2865TIP3    H130154   4.294   4.756   0.960 -1.0233 -1.2561 -0.8799
 2865TIP3    H230155   4.420   4.820   0.904 -0.1493 -1.0736  1.1816
 2866TIP3   OH230156   3.233   5.598   3.931  0.4342  0.0559 -0.9763
 2866TIP3    H130157   3.215   5.546   4.009  3.2990  0.4495  0.0820
 2866TIP3    H230158   3.220   5.688   3.958 -0.7139  0.1046 -1.6430
 2867TIP3   OH230159   0.069   0.761   3.648  0.3801  0.2926 -0.3266
 2867TIP3    H130160  -0.001   0.718   3.600  0.1113  1.5170 -1.0669
 2867TIP3    H230161   0.103   0.827   3.588  1.5772  0.3231  0.3453
 2868TIP3   OH230162   5.562   4.688   2.238  0.8189  0.2677  0.6407
 2868TIP3    H130163   5.623   4.657   2.306 -0.7809 -3.0643  0.7646
 2868TIP3    H230164   5.475   4.671   2.274 -0.1283  1.1446 -1.1072
 2869TIP3   OH230165   3.356   4.741   2.948 -0.6104  0.0516  0.1766
 2869TIP3    H130166   3.359   4.783   3.034 -1.5638  0.5029  0.0063
 2869TIP3    H230167   3.291   4.791   2.899 -0.2368 -0.3389 -0.7369
 2870TIP3   OH230168   4.499   4.317   0.263  0.6607 -0.1269  0.4018
 2870TIP3    H130169   4.577   4.273   0.230  1.7483  1.5039  0.6990
 2870TIP3    H230170   4.429   4.253   0.251  1.4914 -0.6561 -2.4715
 2871TIP3   OH230171   4.436   2.032   1.182  0.2266  0.3720  0.1101
 2871TIP3    H130172   4.380   2.094   1.230 -0.5516 -1.9748  2.4460
 2871TIP3    H230173   4.525   2.055   1.209  0.1728  1.8721 -0.8603
 2872TIP3   OH230174   0.614   4.671   1.380  0.3999 -0.4548 -0.6064
 2872TIP3    H130175   0.560   4.593   1.393  1.0203 -0.6883  0.7625
 2872TIP3    H230176   0.617   4.713   1.466  1.1890  0.3403 -1.0014
 2873TIP3   OH230177   5.719   2.754   1.652  0.0681 -0.3935  0.5022
 2873TIP3    H130178   5.790   2.781   1.593  1.1648 -2.9382  0.5186
 2873TIP3    H230179   5.733   2.806   1.731  0.2586  1.0417 -0.4179
 2874TIP3   OH230180   6.629   0.716   2.823  0.4549  0.2058  0.8674
 2874TIP3    H130181   6.673   0.676   2.748  1.1158 -0.0653  1.3811
 2874TIP3    H230182   6.536   0.710   2.803  0.6072 -0.3172  0.2961
 2875TIP3   OH230183   3.630   2.802   3.350  0.1457  0.0743  0.2080
 2875TIP3    H130184   3.658   2.894   3.357 -1.6335  0.7101 -0.3882
 2875TIP3    H230185   3.695   2.762   3.292  0.4166  1.2186 -0.3229
 2876TIP3   OH230186   2.027   1.558   2.980  0.0291 -0.3940  0.0870
 2876TIP3    H130187   2.039   1.614   2.904 -1.3870  0.3205  0.3603
 2876TIP3    H230188   2.079   1.599   3.049  1.5162 -1.1808 -0.5235
 2877TIP3   OH230189   1.915   6.291   8.684 -0.2331 -0.0759  0.2346
 2877TIP3    H130190   1.947   6.223   8.744 -0.8350 -0.2116  0.4040
 2877TIP3    H230191   1.832   6.320   8.722  0.0025  0.7334  0.1414
 2878TIP3   OH230192   5.587   4.427   0.288 -0.2208 -0.2700 -0.4494
 2878TIP3    H130193   5.511   4.484   0.276 -0.0624 -0.2288 -1.2808
 2878TIP3    H230194   5.563   4.345   0.245  0.0034 -0.4438 -0.2485
 2879TIP3   OH230195   3.777   2.824   0.757 -0.1526  0.0158  0.3789
 2879TIP3    H130196   3.857   2.840   0.707  0.6563 -1.5167  1.1306
 2879TIP3    H230197   3.713   2.795   0.692  0.3421 -0.1796 -0.0208
 2880TIP3   OH230198   4.621   3.488   1.908  0.1625 -0.3859  0.4426
 2880TIP3    H130199   4.695   3.429   1.901 -0.7790 -1.5334 -0.2218
 2880TIP3    H230200   4.546   3.431   1.926 -0.7263  0.6416  0.1381
 2881TIP3   OH230201   4.572   6.138   1.263 -0.7575  0.1780  0.6495
 2881TIP3    H130202   4.512   6.212   1.263 -0.5922  0.3159  1.3293
 2881TIP3    H230203   4.554   6.093   1.180 -0.0267  1.6363 -0.3297
 2882TIP3   OH230204   5.189   2.910   1.780 -0.2280  0.0671 -0.4251
 2882TIP3    H130205   5.215   2.828   1.739  0.3280 -0.3961  0.8089
 2882TIP3    H230206   5.096   2.898   1.801  0.3274 -1.1019  1.6287
 2883TIP3   OH230207   5.903   3.351   3.525  0.3503  0.3108  0.4203
 2883TIP3    H130208   5.924   3.277   3.469 -1.4370  0.3327 -0.3332
 2883TIP3    H230209   5.950   3.334   3.606  0.5773 -1.2494 -0.0153
 2884TIP3   OH230210   0.281   2.110   0.777  0.0813 -0.4608 -0.0555
 2884TIP3    H130211   0.267   2.017   0.794  0.2834 -0.2918  1.1014
 2884TIP3    H230212   0.301   2.114   0.683 -2.3251 -1.2897 -0.6661
 2885TIP3   OH230213   5.761   2.830   3.040 -0.1858  0.7315  0.0245
 2885TIP3    H130214   5.826   2.794   2.980  1.5559  1.8551  1.1414
 2885TIP3    H230215   5.770   2.778   3.120 -1.4105  0.2302 -0.1417
 2886TIP3   OH230216   4.650   3.326   4.258 -0.3943  0.2182 -0.1389
 2886TIP3    H130217   4.557   3.308   4.268 -0.5024 -0.6740 -2.2490
 2886TIP3    H230218   4.691   3.285   4.334 -1.5157 -1.4844 -0.3925
 2887TIP3   OH230219   2.369   2.043   3.518 -0.1667  0.1749 -0.2651
 2887TIP3    H130220   2.399   1.954   3.537 -0.3223  0.1247 -0.2574
 2887TIP3    H230221   2.279   2.046   3.551 -0.1852  0.3134 -0.3277
 2888TIP3   OH230222   0.477   6.046   1.916 -0.1059  0.2713 -0.3282
 2888TIP3    H130223   0.559   6.042   1.866 -0.5553 -3.7951 -1.0173
 2888TIP3    H230224   0.409   6.024   1.853 -1.2333 -0.6385  1.1451
 2889TIP3   OH230225   1.091   0.944   3.803 -0.4257 -0.4975  0.3662
 2889TIP3    H130226   1.129   0.857   3.794  3.1592  0.6147  2.7047
 2889TIP3    H230227   1.042   0.939   3.885 -0.1229 -0.3092  0.5604
 2890TIP3   OH230228   0.446   4.740   2.302 -0.4116  0.4716  0.2797
 2890TIP3    H130229   0.493   4.823   2.308 -0.3572  0.4765 -0.1902
 2890TIP3    H230230   0.478   4.688   2.375 -0.1226  0.7030  0.3162
 2891TIP3   OH230231   4.303   3.268   4.057  0.8954  0.1355 -0.5518
 2891TIP3    H130232   4.221   3.283   4.010  0.2801  0.0944  0.4910
 2891TIP3    H230233   4.335   3.356   4.078 -0.5503  0.1653  1.8498
 2892TIP3   OH230234   0.408   1.018   1.455 -0.2532  0.2044  0.5318
 2892TIP3    H130235   0.432   0.974   1.373  0.7428  0.3279  0.7344
 2892TIP3    H230236   0.461   0.973   1.522 -3.0655 -1.8202  1.6252
 2893TIP3   OH230237   4.676   5.251   4.314  0.7666  0.1847 -0.0938
 2893TIP3    H130238   4.646   5.162   4.333  2.8135 -0.8885 -1.4341
 2893TIP3    H230239   4.680   5.294   4.399  0.3749 -1.2264  0.6747
 2894TIP3   OH230240   1.614   3.119   2.872  0.4051 -0.4915  0.2641
 2894TIP3    H130241   1.616   3.045   2.934  0.2084 -1.3075 -0.6773
 2894TIP3    H230242   1.525   3.154   2.880  0.9121  0.5159  1.6969
 2895TIP3   OH230243   5.187   4.867   1.006  0.0425  0.2447  0.0610
 2895TIP3    H130244   5.213   4.829   1.090 -0.8023  1.3660  0.8668
 2895TIP3    H230245   5.149   4.795   0.957  0.2454 -0.3622  0.7818
 2896TIP3   OH230246   1.633   0.556   2.488 -0.3092 -0.1542  0.7040
 2896TIP3    H130247   1.665   0.491   2.551 -0.8139  0.5514  1.7038
 2896TIP3    H230248   1.539   0.557   2.500 -0.6940 -1.4930 -1.5356
 2897TIP3   OH230249   6.667   2.221   2.316 -0.8264  0.1271  0.3716
 2897TIP3    H130250   6.583   2.190   2.284  0.3665 -1.2513 -1.6260
 2897TIP3    H230251   6.688   2.163   2.390 -0.7868 -0.7613 -0.3234
 2898TIP3   OH230252   0.504   1.062   0.045  0.0863  0.4010 -0.0554
 2898TIP3    H130253   0.564   0.995   0.013  0.7454  0.5431  0.8280
 2898TIP3    H230254   0.417   1.029   0.025  0.3439 -1.2679  1.3591
 2899TIP3   OH230255   6.520   5.402   3.688 -0.1328  0.2978  0.4007
 2899TIP3    H130256   6.498   5.463   3.619  2.7227  2.2322  1.0205
 2899TIP3    H230257   6.581   5.340   3.647 -3.8748 -3.2038 -0.5607
 2900TIP3   OH230258   3.504   0.184   0.391  0.6879  0.1373  0.1101
 2900TIP3    H130259   3.494   0.111   0.453 -1.6314 -0.5832 -1.0015
 2900TIP3    H230260   3.442   0.249   0.422  0.2790  0.2060 -0.8361
 2901TIP3   OH230261   4.657   4.419   2.409  0.3841  0.0495 -0.2535
 2901TIP3    H130262   4.575   4.426   2.458  1.3419 -1.8395  1.7958
 2901TIP3    H230263   4.697   4.506   2.417  0.1235  0.0416  1.7030
 2902TIP3   OH230264   6.457   5.528   4.091  0.0977 -0.1129 -0.0911
 2902TIP3    H130265   6.408   5.525   4.008 -0.6137  0.2974  0.3082
 2902TIP3    H230266   6.390   5.518   4.159  0.7411 -1.0194  0.4276
 2903TIP3   OH230267   4.228   0.962   0.749 -0.3435  0.4863 -0.3602
 2903TIP3    H130268   4.233   0.978   0.655  0.1001  0.2960 -0.3744
 2903TIP3    H230269   4.135   0.956   0.767 -0.4195 -0.2834 -0.9356
 2904TIP3   OH230270   4.707   6.648   2.173 -0.8092 -0.5709 -1.2129
 2904TIP3    H130271   4.795   6.681   2.156  0.1034 -1.9829  0.4360
 2904TIP3    H230272   4.671   6.709   2.237 -0.4407 -0.8165 -0.7619
 2905TIP3   OH230273   0.867   4.706   1.467  0.4207 -0.0242  0.4305
 2905TIP3    H130274   0.850   4.642   1.536 -1.2137  1.3642  1.4032
 2905TIP3    H230275   0.783   4.715   1.422  0.8657  0.8022 -0.2633
 2906TIP3   OH230276   6.148   0.197   2.016 -0.1874 -0.5278  0.3335
 2906TIP3    H130277   6.220   0.137   1.995 -0.2036 -0.6726  0.6879
 2906TIP3    H230278   6.151   0.205   2.111  0.4977  0.9037  0.2130
 2907TIP3   OH230279   1.142   2.974   2.498  0.0969  0.3306  0.2179
 2907TIP3    H130280   1.135   2.955   2.404 -0.5879  0.2000  0.2892
 2907TIP3    H230281   1.085   3.050   2.511  3.1070  2.8700 -0.1518
 2908TIP3   OH230282   0.552   6.631   4.482  0.0011 -0.4186  0.1504
 2908TIP3    H130283   0.574   6.538   4.492  3.8301  0.4578  1.2766
 2908TIP3    H230284   0.458   6.635   4.501 -0.5050 -4.1086 -0.6988
 2909TIP3   OH230285   1.647   4.015   3.288  0.4449  0.1928 -0.1959
 2909TIP3    H130286   1.611   4.047   3.206 -1.1654 -1.3872 -0.1810
 2909TIP3    H230287   1.659   3.921   3.274  1.3522  0.1157  0.9603
 2910TIP3   OH230288   6.378   4.073   4.240  0.3754 -1.0064  0.3707
 2910TIP3    H130289   6.454   4.085   4.296  0.5594 -1.8750  0.3276
 2910TIP3    H230290   6.364   3.978   4.239 -0.3835 -0.8989 -0.0452
 2911TIP3   OH230291   2.956   4.675   0.650  0.2685  0.3301 -0.4347
 2911TIP3    H130292   3.029   4.614   0.635 -0.3881 -0.0759 -2.1975
 2911TIP3    H230293   2.880   4.618   0.666 -0.1870  0.6970 -1.2682
 2912TIP3   OH230294   5.535   6.724   5.107  0.1780  0.9708  0.0630
 2912TIP3    H130295   5.579   6.771   5.178 -1.5957  1.5473  0.8215
 2912TIP3    H230296   5.475   6.788   5.069  0.5881  0.4625 -1.5353
 2913TIP3   OH230297   1.007   1.446   4.103  0.3947  0.9075  0.0813
 2913TIP3    H130298   1.001   1.542   4.106  0.4783  0.9280 -0.3841
 2913TIP3    H230299   1.000   1.419   4.195  3.8505  1.5678  0.6993
 2914TIP3   OH230300   3.216   4.066   3.454  0.5563  0.0630 -0.3178
 2914TIP3    H130301   3.255   4.121   3.386 -0.8957 -0.2827 -1.4786
 2914TIP3    H230302   3.181   3.990   3.407 -0.5935 -0.1323  0.7840
 2915TIP3   OH230303   1.597   5.238   4.483  0.0153 -0.0443 -0.2757
 2915TIP3    H130304   1.525   5.228   4.546  0.5920  0.0965  0.4129
 2915TIP3    H230305   1.644   5.315   4.513  0.1845  0.1426 -1.0039
 2916TIP3   OH230306   4.065   6.036   3.656  0.3416  0.1141  0.1085
 2916TIP3    H130307   4.087   6.015   3.747  0.3021  0.6365  0.2441
 2916TIP3    H230308   4.150   6.052   3.614  0.2851  2.4431  0.7093
 2917TIP3   OH230309   2.055   6.791   4.230  0.4104 -0.0526 -0.3583
 2917TIP3    H130310   2.091   6.845   4.300 -0.9352 -0.8382  1.0198
 2917TIP3    H230311   1.990   6.847   4.187  1.1032  0.3670 -0.8832
 2918TIP3   OH230312   3.846   6.593   2.535 -0.0411  0.0207 -0.2553
 2918TIP3    H130313   3.812   6.683   2.543  1.2187  0.4356  0.8949
 2918TIP3    H230314   3.872   6.570   2.624  0.0586 -1.3373 -0.6196
 2919TIP3   OH230315   1.913   3.336   3.719  0.0535 -0.5701 -0.1620
 2919TIP3    H130316   1.975   3.405   3.741 -1.5576  0.3670  1.7233
 2919TIP3    H230317   1.863   3.371   3.645  1.4243 -1.1602 -1.4155
 2920TIP3   OH230318   3.950   1.301   4.310 -0.5113  0.3714 -1.0423
 2920TIP3    H130319   4.005   1.354   4.368 -0.7356 -1.0245  0.5251
 2920TIP3    H230320   3.929   1.223   4.361 -2.5986  0.0980 -2.2006
 2921TIP3   OH230321   4.123   4.693   4.918  0.2440  0.2054  0.0784
 2921TIP3    H130322   4.065   4.628   4.957  0.3074 -0.4587 -0.8816
 2921TIP3    H230323   4.210   4.673   4.953  0.1126  0.3737  0.5060
 2922TIP3   OH230324   3.141   0.009   2.337 -0.2566 -0.1186  0.3708
 2922TIP3    H130325   3.202   0.079   2.359 -0.5944  0.4965 -0.5627
 2922TIP3    H230326   3.056   0.040   2.369 -0.4516  0.0248 -0.2677
 2923TIP3   OH230327   6.040   0.750   4.296  0.0854  0.0987  0.4157
 2923TIP3    H130328   6.103   0.717   4.361  0.2759 -0.3817 -0.0107
 2923TIP3    H230329   6.039   0.683   4.228 -0.0844  0.6279 -0.1005
 2924TIP3   OH230330   1.452   1.098   0.430  0.0277  0.4203 -0.0711
 2924TIP3    H130331   1.376   1.104   0.372  0.1481 -1.9573 -0.5610
 2924TIP3    H230332   1.414   1.086   0.517 -0.1421  1.8488  0.0685
 2925TIP3   OH230333   0.265   0.100   4.306  0.1392 -0.7352 -0.4085
 2925TIP3    H130334   0.338   0.118   4.246 -1.1066 -0.4348 -1.9140
 2925TIP3    H230335   0.233   0.187   4.331  1.4793 -0.8200  1.8519
 2926TIP3   OH230336   3.047   1.675   4.564  0.2458 -0.1401 -0.0650
 2926TIP3    H130337   3.138   1.701   4.554 -0.1197  1.5765  0.6396
 2926TIP3    H230338   3.004   1.709   4.485 -0.4549  2.7585  1.3898
 2927TIP3   OH230339   1.813   4.141   3.503  0.1811  0.6338  0.3144
 2927TIP3    H130340   1.821   4.059   3.550  0.9613  1.6743  2.0773
 2927TIP3    H230341   1.782   4.116   3.416  0.5299 -1.5120  0.7670
 2928TIP3   OH230342   2.721   5.908   3.066 -0.7886 -0.6440 -0.2823
 2928TIP3    H130343   2.702   5.898   2.973 -0.0955  0.1229 -0.5240
 2928TIP3    H230344   2.691   5.997   3.087 -0.4116 -0.6005  0.0847
 2929TIP3   OH230345   1.000   4.884   0.718 -0.2570  0.3478  0.4937
 2929TIP3    H130346   1.004   4.928   0.634 -1.0634  0.0233  0.2764
 2929TIP3    H230347   1.003   4.790   0.697  0.1571  0.2665  0.8718
 2930TIP3   OH230348   1.618   3.701   1.161 -0.2432  0.1792 -0.2842
 2930TIP3    H130349   1.646   3.788   1.189 -1.9993  0.6027  0.2817
 2930TIP3    H230350   1.673   3.682   1.085  0.0738  1.8600 -0.5283
 2931TIP3   OH230351   1.573   0.153   2.783 -0.0062  0.4508  0.0170
 2931TIP3    H130352   1.651   0.144   2.727 -0.2862 -0.1578 -0.2821
 2931TIP3    H230353   1.607   0.188   2.865  1.0291 -2.2491  0.8611
 2932TIP3   OH230354   2.299   6.218   2.622  0.1508 -0.4095 -0.1920
 2932TIP3    H130355   2.235   6.200   2.691  2.1571 -2.4771  1.2773
 2932TIP3    H230356   2.246   6.235   2.544 -2.2000 -2.9311  0.7080
 2933TIP3   OH230357   1.165   1.879   1.784  0.3129  0.0363  0.5941
 2933TIP3    H130358   1.219   1.839   1.716  0.5278  1.0563  0.1382
 2933TIP3    H230359   1.140   1.964   1.748  3.4918  2.3278  3.1359
 2934TIP3   OH230360   1.203   1.210   3.438  0.2583  0.4374 -0.0424
 2934TIP3    H130361   1.170   1.127   3.404  0.2235  1.4291 -2.6925
 2934TIP3    H230362   1.176   1.212   3.530 -0.5315 -2.0448 -0.1610
 2935TIP3   OH230363   0.011   2.614   0.703  0.3295 -0.4769 -1.0880
 2935TIP3    H130364  -0.007   2.689   0.647 -0.3514 -0.9249 -1.4778
 2935TIP3    H230365  -0.042   2.629   0.781  0.3772 -0.4435 -1.0614
 2936TIP3   OH230366   2.734   4.594   2.859  0.3993 -0.2337 -0.2308
 2936TIP3    H130367   2.654   4.550   2.888  0.3741 -0.9109 -1.2602
 2936TIP3    H230368   2.801   4.526   2.861  1.1198  0.4875  1.2445
 2937TIP3   OH230369   5.591   1.137   2.207 -0.5375  0.3917  0.1768
 2937TIP3    H130370   5.498   1.143   2.229 -0.8615 -0.1828 -0.9515
 2937TIP3    H230371   5.599   1.188   2.126  0.3932  1.5170  0.9512
 2938TIP3   OH230372   2.376   0.666   8.776  0.1392 -0.3958 -0.3512
 2938TIP3    H130373   2.282   0.674   8.796  0.6631  1.3040  1.7855
 2938TIP3    H230374   2.402   0.754   8.748  1.1282 -0.8242 -0.8309
 2939TIP3   OH230375   3.359   0.393   0.492  0.1864 -0.2882  0.3055
 2939TIP3    H130376   3.397   0.398   0.580 -0.3378  1.6836  0.4645
 2939TIP3    H230377   3.354   0.485   0.463  0.9394 -0.9143 -2.0458
 2940TIP3   OH230378   6.468   2.000   0.654  0.0659  0.0662  0.0149
 2940TIP3    H130379   6.550   2.042   0.677 -0.4089  0.7471  0.5072
 2940TIP3    H230380   6.467   2.000   0.558  0.0704  1.2061 -0.0025
 2941TIP3   OH230381   3.116   6.241   1.797 -0.1984  0.1461 -0.5078
 2941TIP3    H130382   3.202   6.252   1.836 -1.1761 -0.8509  2.1295
 2941TIP3    H230383   3.105   6.147   1.788 -0.6586  0.2968 -1.7859
 2942TIP3   OH230384   5.611   0.797   5.107 -0.0642  0.0821 -0.5516
 2942TIP3    H130385   5.696   0.764   5.080 -0.0468 -0.1890 -0.1766
 2942TIP3    H230386   5.601   0.880   5.061  0.1298 -0.1842 -1.0777
 2943TIP3   OH230387   3.980   3.130   3.266  0.0977 -0.4132  0.0577
 2943TIP3    H130388   4.044   3.062   3.245 -1.0237 -1.5456  0.1768
 2943TIP3    H230389   3.987   3.193   3.194  2.8734  0.6974  1.1516
 2944TIP3   OH230390   5.384   3.367   4.252  0.8277 -0.3133  0.1328
 2944TIP3    H130391   5.461   3.424   4.261  0.0504  0.8691 -0.4401
 2944TIP3    H230392   5.333   3.382   4.331  0.2157  0.4344 -0.3912
 2945TIP3   OH230393   1.263   2.647   3.094  0.2829  0.2520 -0.7394
 2945TIP3    H130394   1.298   2.568   3.135 -0.6403  1.2988  2.3122
 2945TIP3    H230395   1.340   2.701   3.076  0.8702 -1.0246 -2.3515
 2946TIP3   OH230396   4.962   3.784   2.437 -0.2595  0.0802  0.6423
 2946TIP3    H130397   4.882   3.732   2.428  0.4758 -1.2266  1.3317
 2946TIP3    H230398   4.984   3.778   2.530  1.6710 -1.2222  0.1713
 2947TIP3   OH230399   0.262   5.108   3.826  0.0709  0.8176 -0.3237
 2947TIP3    H130400   0.231   5.076   3.910 -1.4123  2.6471 -0.0965
 2947TIP3    H230401   0.357   5.116   3.836  0.2815 -1.5845  0.1819
 2948TIP3   OH230402   5.421   6.564   0.341 -0.1641 -0.2673 -0.3367
 2948TIP3    H130403   5.438   6.486   0.289 -2.7924 -0.2428 -1.4234
 2948TIP3    H230404   5.358   6.535   0.407  0.0491  0.5943  0.2644
 2949TIP3   OH230405   4.469   5.297   2.324 -0.1399 -0.1082  0.1193
 2949TIP3    H130406   4.513   5.240   2.387 -0.2630  0.1870  0.4748
 2949TIP3    H230407   4.510   5.276   2.240 -1.7596 -2.4514 -0.2092
 2950TIP3   OH230408   1.485   3.954   2.338  0.3228  0.1449  0.3151
 2950TIP3    H130409   1.489   4.016   2.265  0.2687  0.3810  0.5093
 2950TIP3    H230410   1.575   3.950   2.370  0.1647  0.8391  0.8860
 2951TIP3   OH230411   6.071   4.453   4.193 -0.0459 -0.1881  0.3736
 2951TIP3    H130412   6.120   4.533   4.176 -0.3401 -0.2753 -0.9386
 2951TIP3    H230413   6.125   4.383   4.156 -1.6670 -0.1676 -2.2145
 2952TIP3   OH230414   6.512   0.332   2.992 -0.2726 -0.4225  0.1120
 2952TIP3    H130415   6.544   0.419   3.018  0.6553 -0.5600 -0.5038
 2952TIP3    H230416   6.501   0.338   2.897  1.7240 -1.5283 -0.2568
 2953TIP3   OH230417   3.380   2.547   3.179  0.3523  0.0968  0.0246
 2953TIP3    H130418   3.322   2.515   3.248  0.0912  1.3799  0.4348
 2953TIP3    H230419   3.339   2.629   3.149  0.1701 -0.6973 -2.0529
 2954TIP3   OH230420   3.294   2.088   0.620  0.6088 -0.4151  0.0684
 2954TIP3    H130421   3.267   2.161   0.565  1.9133  2.4702  2.9181
 2954TIP3    H230422   3.219   2.029   0.620 -1.4649  2.0258 -0.6689
 2955TIP3   OH230423   0.640   1.772   1.132 -0.0476  0.0327 -0.1787
 2955TIP3    H130424   0.704   1.761   1.202 -0.1519 -0.1446 -0.1121
 2955TIP3    H230425   0.557   1.740   1.169 -0.3450  0.9785  0.0105
 2956TIP3   OH230426   2.690   2.613   2.099 -0.0004 -0.3385 -0.4460
 2956TIP3    H130427   2.641   2.575   2.173 -0.1510  1.9677  0.7289
 2956TIP3    H230428   2.752   2.545   2.074 -1.0836 -1.8155  0.6998
 2957TIP3   OH230429   2.915   4.804   1.547  0.5622  0.1321 -0.0604
 2957TIP3    H130430   2.845   4.864   1.521  0.9887  0.2174 -1.0303
 2957TIP3    H230431   2.870   4.736   1.597 -0.0564  0.7586  0.2513
 2958TIP3   OH230432   4.738   5.387   3.531  0.0398 -0.2939 -0.0441
 2958TIP3    H130433   4.740   5.432   3.616  0.1765 -0.4925  0.0572
 2958TIP3    H230434   4.654   5.340   3.531 -0.3193  0.3311 -0.3427
 2959TIP3   OH230435   3.788   6.536   0.761 -0.5018  0.4378  0.7833
 2959TIP3    H130436   3.834   6.477   0.701 -0.7314 -0.9352  1.9119
 2959TIP3    H230437   3.856   6.595   0.794 -0.1427  0.3813  0.1669
 2960TIP3   OH230438   0.393   0.622   2.584  0.0483  0.0306  0.2966
 2960TIP3    H130439   0.355   0.624   2.672  0.1988  2.7747  0.3896
 2960TIP3    H230440   0.323   0.653   2.526  0.6244  0.3805 -0.2264
 2961TIP3   OH230441   3.363   5.071   3.380 -0.6973 -0.0076 -0.1367
 2961TIP3    H130442   3.279   5.069   3.334 -0.6018  0.7238 -0.3563
 2961TIP3    H230443   3.399   5.157   3.360  0.3549 -0.5155 -0.4705
 2962TIP3   OH230444   0.330   1.421   0.735 -0.1489  0.5425 -0.3155
 2962TIP3    H130445   0.401   1.481   0.758 -0.7723  0.8855  0.7920
 2962TIP3    H230446   0.252   1.460   0.775 -0.3371 -1.7147  1.7276
 2963TIP3   OH230447   1.039   5.071   1.188 -0.2618 -0.2500  0.7831
 2963TIP3    H130448   1.031   4.999   1.126  2.2910 -0.6158  0.7703
 2963TIP3    H230449   1.007   5.035   1.271 -2.1391 -0.2706  0.1142
 2964TIP3   OH230450   3.293   3.490   3.469  0.1586 -0.7975  0.0836
 2964TIP3    H130451   3.349   3.452   3.537  1.5555 -3.3158 -2.2691
 2964TIP3    H230452   3.205   3.461   3.491  0.2306  0.2172  1.9053
 2965TIP3   OH230453   0.107   4.509   4.110 -0.3455  0.2081 -0.6839
 2965TIP3    H130454   0.066   4.590   4.143  0.5870  1.2350 -1.9634
 2965TIP3    H230455   0.194   4.508   4.151 -0.6291 -0.5871 -0.0615
 2966TIP3   OH230456   3.917   6.510   2.783  0.3162 -0.0028  0.4060
 2966TIP3    H130457   3.969   6.434   2.757  2.3126  1.8986 -1.6360
 2966TIP3    H230458   3.941   6.525   2.875  1.5307 -0.5995  0.2062
 2967TIP3   OH230459   4.275   3.381   0.899 -0.2119  0.1838 -0.1106
 2967TIP3    H130460   4.357   3.399   0.945 -0.3039 -1.1023  0.6089
 2967TIP3    H230461   4.210   3.435   0.943 -0.0233  0.0758  0.2991
 2968TIP3   OH230462   0.356   6.567   0.966  0.0865  0.1180 -0.0716
 2968TIP3    H130463   0.268   6.551   0.934 -0.2039  1.8270 -0.1718
 2968TIP3    H230464   0.412   6.514   0.909 -0.6675  0.9637 -1.6526
 2969TIP3   OH230465   6.030   0.476   2.153 -0.2088 -0.4295  1.3290
 2969TIP3    H130466   6.082   0.553   2.130 -0.1653 -0.7103  0.4732
 2969TIP3    H230467   6.093   0.415   2.192  0.1258 -0.7850  0.2599
 2970TIP3   OH230468   4.396   0.225   0.683 -0.0797 -0.4272  0.3645
 2970TIP3    H130469   4.351   0.246   0.601 -2.4759 -0.1193  1.6722
 2970TIP3    H230470   4.396   0.308   0.732 -0.8407 -1.1359  1.6110
 2971TIP3   OH230471   4.870   3.041   1.685 -0.3332  0.0605 -0.1180
 2971TIP3    H130472   4.885   2.974   1.618  0.3635  0.0714  0.0177
 2971TIP3    H230473   4.800   3.006   1.739 -1.2221  0.2542 -1.1155
 2972TIP3   OH230474   6.702   2.255   2.652 -0.8872  0.4604  0.0462
 2972TIP3    H130475   6.671   2.174   2.613 -0.9825 -0.4301  1.8669
 2972TIP3    H230476   6.767   2.289   2.590  0.7486 -2.1364  0.2009
 2973TIP3   OH230477   1.035   3.124   2.187  0.0161  0.2547  0.0833
 2973TIP3    H130478   0.960   3.103   2.243 -0.1479 -0.1123 -0.2733
 2973TIP3    H230479   1.060   3.040   2.148 -0.8044  0.7379 -1.5621
 2974TIP3   OH230480   2.896   0.893   3.792  0.1954  0.2645  0.7006
 2974TIP3    H130481   2.867   0.830   3.727 -0.3004  1.6719 -0.4768
 2974TIP3    H230482   2.884   0.847   3.876 -0.5180 -1.0482 -0.0805
 2975TIP3   OH230483   2.628   0.943   2.806 -0.2986  0.6981  0.3188
 2975TIP3    H130484   2.625   1.004   2.732 -0.2506  1.7473  1.1435
 2975TIP3    H230485   2.659   0.861   2.769 -2.2558  0.5687 -1.2307
 2976TIP3   OH230486   3.774   2.794   1.853  0.2884 -0.1956 -0.1717
 2976TIP3    H130487   3.738   2.803   1.765  0.1615 -0.7668 -0.1817
 2976TIP3    H230488   3.754   2.878   1.895 -1.9818 -0.8217  0.1550
 2977TIP3   OH230489   5.418   3.435   3.327  0.7594  0.1974  0.8360
 2977TIP3    H130490   5.495   3.407   3.376  0.5878 -0.3995  0.7721
 2977TIP3    H230491   5.443   3.519   3.289  1.0855  0.4020  1.4892
 2978TIP3   OH230492   1.220   4.796   3.264  0.6625 -0.1409 -0.1828
 2978TIP3    H130493   1.166   4.857   3.314  0.2779 -1.9010  1.7204
 2978TIP3    H230494   1.305   4.839   3.258  0.0322  1.1627 -0.1345
 2979TIP3   OH230495   0.871   5.974   3.172  0.3071 -0.3683  0.0168
 2979TIP3    H130496   0.936   5.936   3.114 -1.3855 -2.6936 -0.5258
 2979TIP3    H230497   0.787   5.949   3.133 -0.9424 -2.3298  3.4928
 2980TIP3   OH230498   5.226   5.234   2.052 -0.1038 -0.2328 -0.5274
 2980TIP3    H130499   5.134   5.229   2.027 -0.1558 -0.6907 -0.2388
 2980TIP3    H230500   5.229   5.305   2.117 -0.6511 -1.7321  1.2136
 2981TIP3   OH230501   3.033   6.784   0.696 -0.6752  0.3044 -0.2061
 2981TIP3    H130502   3.089   6.783   0.773 -2.2948  2.5673  1.1004
 2981TIP3    H230503   3.093   6.794   0.622  0.7806 -0.0002  0.9024
 2982TIP3   OH230504   0.261   6.747   2.526 -0.0619 -0.0684  0.2393
 2982TIP3    H130505   0.218   6.689   2.462 -1.8075  2.1556 -0.7749
 2982TIP3    H230506   0.191   6.770   2.588  1.1962 -0.8696  2.0344
 2983TIP3   OH230507   6.060   0.294   3.425  0.4206  0.0501  0.1669
 2983TIP3    H130508   6.083   0.316   3.515  2.3944 -1.8749  0.2103
 2983TIP3    H230509   6.083   0.373   3.375 -0.7138  1.1437  1.3082
 2984TIP3   OH230510   0.715   3.962   2.428  0.1719 -0.2843  0.3376
 2984TIP3    H130511   0.794   3.937   2.380  0.4137  0.1939  0.4771
 2984TIP3    H230512   0.674   3.879   2.452 -0.3918 -0.5466 -1.3947
 2985TIP3   OH230513   5.651   5.870   3.645 -0.0600 -0.0125 -0.0895
 2985TIP3    H130514   5.642   5.958   3.608 -1.1022 -0.3389 -0.6690
 2985TIP3    H230515   5.745   5.852   3.641 -0.0320  0.3439 -1.7385
 2986TIP3   OH230516   6.696   6.714   3.202  0.6492 -0.1782  0.5381
 2986TIP3    H130517   6.761   6.775   3.236  0.5037  0.5128 -0.3965
 2986TIP3    H230518   6.614   6.738   3.247  0.8306 -0.4467  1.0226
 2987TIP3   OH230519   1.001   2.276   2.431 -0.1672 -0.2810 -0.4243
 2987TIP3    H130520   1.090   2.258   2.401 -0.1778  0.4382 -0.8798
 2987TIP3    H230521   1.012   2.341   2.501 -0.2183 -1.2812  0.5457
 2988TIP3   OH230522   1.651   6.660   0.458  0.2886 -0.0529  0.0504
 2988TIP3    H130523   1.612   6.575   0.436  0.3544 -0.0370 -0.1320
 2988TIP3    H230524   1.650   6.709   0.376 -1.2949  0.7573  0.5227
 2989TIP3   OH230525   4.544   2.142   3.378  0.4368  0.9732  0.2976
 2989TIP3    H130526   4.621   2.090   3.355 -0.3416  0.3482 -1.0554
 2989TIP3    H230527   4.473   2.077   3.384 -0.7669  1.8880 -2.4013
 2990TIP3   OH230528   3.574   5.720   0.114 -0.0273 -0.1941 -0.9982
 2990TIP3    H130529   3.664   5.746   0.135  0.0773 -1.5774  0.4990
 2990TIP3    H230530   3.584   5.643   0.059 -0.2316 -1.2263  0.3466
 2991TIP3   OH230531   3.442   3.046   1.166 -0.2426 -0.3270 -0.1441
 2991TIP3    H130532   3.375   2.981   1.189 -1.6147  0.6391 -1.2582
 2991TIP3    H230533   3.471   3.020   1.078 -0.0833 -0.0068 -0.1881
 2992TIP3   OH230534   1.095   0.956   3.387  0.2463 -0.0940 -0.0537
 2992TIP3    H130535   1.022   0.921   3.439 -0.9179  0.1075 -1.5058
 2992TIP3    H230536   1.146   0.879   3.363 -0.3315 -0.4106 -0.2852
 2993TIP3   OH230537   0.545   4.864   1.930  0.1971  0.2695  0.0639
 2993TIP3    H130538   0.604   4.918   1.878  0.3307  1.1266  1.0665
 2993TIP3    H230539   0.570   4.881   2.021 -0.9445 -0.1151  0.4756
 2994TIP3   OH230540   2.866   3.780   0.714  0.4556 -0.4613 -0.1440
 2994TIP3    H130541   2.959   3.804   0.709  0.3919 -0.0148  0.6068
 2994TIP3    H230542   2.822   3.841   0.654  0.6663 -0.7849 -0.6292
 2995TIP3   OH230543   4.773   0.945   5.040  0.4152  0.4729  0.0521
 2995TIP3    H130544   4.754   0.918   5.130 -0.7310  0.8251 -0.0725
 2995TIP3    H230545   4.751   1.038   5.037  0.0632  0.3729 -0.6921
 2996TIP3   OH230546   2.638   3.482   3.066  0.1964  0.4748 -0.0024
 2996TIP3    H130547   2.593   3.513   3.145 -0.0040  2.5281 -0.8674
 2996TIP3    H230548   2.583   3.511   2.994 -0.0320 -2.0472 -0.9453
 2997TIP3   OH230549   0.267   2.176   3.064 -1.1455 -0.0846  0.2113
 2997TIP3    H130550   0.298   2.085   3.064  0.6602  0.4716 -0.3712
 2997TIP3    H230551   0.227   2.188   3.149  0.6619 -0.8024  1.2256
 2998TIP3   OH230552   6.411   2.356   2.771  0.1824  0.2952 -0.0630
 2998TIP3    H130553   6.448   2.438   2.804  1.8889 -1.0537  1.6167
 2998TIP3    H230554   6.462   2.287   2.814 -1.7165 -1.6851 -0.7600
 2999TIP3   OH230555   0.010   5.147   4.294  0.2146  0.1702  0.4246
 2999TIP3    H130556  -0.067   5.099   4.324  0.2877  0.7136  1.5400
 2999TIP3    H230557  -0.025   5.216   4.238  0.1630 -1.5673 -1.8030
 3000TIP3   OH230558   0.805   5.323   3.640 -0.1626 -0.4841 -0.4720
 3000TIP3    H130559   0.721   5.279   3.626 -0.2202 -0.3090 -0.6689
 3000TIP3    H230560   0.859   5.257   3.684 -0.5810 -0.4186  0.1620
 3001TIP3   OH230561   0.626   1.380   3.292 -0.0387 -0.1303 -0.4796
 3001TIP3    H130562   0.682   1.355   3.365 -0.4886  0.9213  0.2455
 3001TIP3    H230563   0.686   1.417   3.227  0.1902  0.2969 -0.0271
 3002TIP3   OH230564   2.635   6.165   3.130  0.4248  0.1881 -0.1047
 3002TIP3    H130565   2.662   6.148   3.220  0.5662 -1.3237 -0.4089
 3002TIP3    H230566   2.609   6.257   3.130  0.0628  0.1198  1.5736
 3003TIP3   OH230567   2.518   4.368   3.947 -0.1114 -0.5384  0.3982
 3003TIP3    H130568   2.450   4.347   3.883  1.4918 -0.2182 -1.5047
 3003TIP3    H230569   2.506   4.461   3.966  0.0190 -0.3888 -0.2327
 3004TIP3   OH230570   2.937   1.995   1.749 -0.0910 -0.4996 -0.0225
 3004TIP3    H130571   2.966   1.979   1.659 -0.6465  1.0257 -0.5028
 3004TIP3    H230572   2.921   2.090   1.752 -0.4561 -0.5938  1.5762
 3005TIP3   OH230573   5.848   2.248   3.438  0.5306 -0.0416  0.2954
 3005TIP3    H130574   5.908   2.183   3.474  0.4389 -0.2983 -0.0126
 3005TIP3    H230575   5.833   2.220   3.348 -0.3019 -0.1540  0.4612
 3006TIP3   OH230576   6.796   3.895   1.074 -0.1547 -0.1847  0.1909
 3006TIP3    H130577   6.768   3.818   1.025 -1.6871  1.2071 -1.2595
 3006TIP3    H230578   6.888   3.908   1.047 -0.2282 -0.8498 -0.4207
 3007TIP3   OH230579   3.941   3.244   2.232  0.2220 -0.2048 -0.0720
 3007TIP3    H130580   3.886   3.293   2.171  0.0992  0.2035  0.3663
 3007TIP3    H230581   3.964   3.164   2.184  2.5627  1.3648 -1.8226
 3008TIP3   OH230582   3.931   1.157   0.329 -0.2805 -0.4561  0.1880
 3008TIP3    H130583   3.855   1.200   0.290 -1.0570 -1.9254  0.0008
 3008TIP3    H230584   3.902   1.134   0.417  1.3029  2.4309  1.6091
 3009TIP3   OH230585   3.417   0.646   0.412  0.5218 -0.4617  0.3206
 3009TIP3    H130586   3.436   0.587   0.339 -0.1673 -0.5781  0.2282
 3009TIP3    H230587   3.435   0.733   0.377  1.1489 -0.5833  0.3280
 3010TIP3   OH230588   5.826   6.011   4.593 -0.3754  0.2464 -0.2549
 3010TIP3    H130589   5.808   6.082   4.654  0.0870  0.7193 -0.6598
 3010TIP3    H230590   5.739   5.979   4.568 -0.5703 -0.1238  0.8313
 3011TIP3   OH230591   0.806   1.006   0.217 -0.1858  0.8494 -0.0044
 3011TIP3    H130592   0.751   0.980   0.144 -1.0308 -1.5778  1.3530
 3011TIP3    H230593   0.745   1.044   0.281 -0.0201 -0.0337  0.7044
 3012TIP3   OH230594   4.153   1.706   2.781  0.1204 -0.5917  0.0599
 3012TIP3    H130595   4.089   1.694   2.710  0.8646  0.4062 -0.8181
 3012TIP3    H230596   4.104   1.749   2.851 -0.1540  0.2864 -0.6549
 3013TIP3   OH230597   0.574   0.246   1.252 -0.2504  0.6888  0.4638
 3013TIP3    H130598   0.530   0.230   1.168 -1.2382  2.1687  0.6515
 3013TIP3    H230599   0.653   0.295   1.229  1.0136 -1.3572  0.1903
 3014TIP3   OH230600   4.428   4.210   4.097 -0.1137  0.3513  0.1013
 3014TIP3    H130601   4.347   4.190   4.050  0.1757  0.0613 -0.2784
 3014TIP3    H230602   4.404   4.204   4.189 -1.3742  3.5930  0.1164
 3015TIP3   OH230603   5.997   4.274   4.737  0.7891  0.3501 -0.4202
 3015TIP3    H130604   5.995   4.205   4.671  2.2540 -0.9230  0.7876
 3015TIP3    H230605   5.913   4.265   4.783  1.2227 -1.0778  0.1331
 3016TIP3   OH230606   1.193   0.199   1.022 -0.3331  0.4383 -0.0124
 3016TIP3    H130607   1.192   0.294   1.030 -0.6531  0.3556  1.0971
 3016TIP3    H230608   1.232   0.169   1.104 -2.2895 -0.4668  0.6271
 3017TIP3   OH230609   4.635   6.067   4.222 -0.1926 -0.2075 -0.5145
 3017TIP3    H130610   4.678   6.071   4.137  2.4531 -2.5703  0.5443
 3017TIP3    H230611   4.555   6.016   4.205 -0.0755 -0.0268 -1.7096
 3018TIP3   OH230612   2.291   4.087   4.215  0.1461  0.0131 -0.1742
 3018TIP3    H130613   2.247   4.129   4.289 -1.1583 -1.4039 -0.0913
 3018TIP3    H230614   2.384   4.091   4.237 -0.2076 -0.2890  1.4952
 3019TIP3   OH230615   4.381   3.790   3.899  0.2280 -0.1364  0.1488
 3019TIP3    H130616   4.367   3.824   3.987  0.5478 -1.0987  0.5877
 3019TIP3    H230617   4.428   3.859   3.854 -0.0450  0.4165  0.6906
 3020TIP3   OH230618   2.933   2.667   4.194  0.0851 -0.4056  0.2405
 3020TIP3    H130619   2.959   2.686   4.103 -0.4291 -0.2289  0.1259
 3020TIP3    H230620   2.997   2.713   4.247 -0.2236  0.3679 -0.0370
 3021TIP3   OH230621   0.631   6.731   3.814 -0.0982  0.5069 -0.4622
 3021TIP3    H130622   0.653   6.788   3.888 -0.7204  0.5295 -0.2908
 3021TIP3    H230623   0.639   6.642   3.848 -0.6984  0.5203 -0.2646
 3022TIP3   OH230624   2.305   6.471   1.410 -0.0358  0.1642  0.1784
 3022TIP3    H130625   2.374   6.426   1.361 -0.3191 -0.5824  0.4664
 3022TIP3    H230626   2.238   6.490   1.344  0.3165  0.6515 -0.0487
 3023TIP3   OH230627   4.717   3.094   1.288  0.2273 -0.1948 -0.4497
 3023TIP3    H130628   4.678   3.160   1.231 -1.3107  0.8810  1.7082
 3023TIP3    H230629   4.771   3.144   1.350  1.2537 -1.2408 -0.4680
 3024TIP3   OH230630   5.806   2.495   1.735 -0.8901  0.6422  0.1299
 3024TIP3    H130631   5.800   2.591   1.729 -2.4447  0.7133  1.7124
 3024TIP3    H230632   5.829   2.479   1.827 -2.1342 -0.4992  0.2815
 3025TIP3   OH230633   6.584   5.968   4.446 -0.3834  0.0642 -0.1677
 3025TIP3    H130634   6.628   5.902   4.393 -0.1694  0.5438 -0.5997
 3025TIP3    H230635   6.614   5.951   4.535  0.8800  0.5288 -0.4831
 3026TIP3   OH230636   0.827   4.246   2.738 -0.3752 -0.2172 -0.0612
 3026TIP3    H130637   0.763   4.198   2.686 -2.1002  1.3906  0.4505
 3026TIP3    H230638   0.786   4.253   2.825  0.9680 -0.0091  0.5861
 3027TIP3   OH230639   4.628   6.177   1.997 -0.1666 -0.3197  0.1182
 3027TIP3    H130640   4.588   6.116   2.059 -0.2221  0.6082  1.0126
 3027TIP3    H230641   4.580   6.161   1.915  0.3012 -1.9650  0.1256
 3028TIP3   OH230642   1.132   4.121   2.079 -0.5270 -0.3196  0.8500
 3028TIP3    H130643   1.048   4.162   2.096 -0.4519  1.7674 -2.8240
 3028TIP3    H230644   1.196   4.177   2.124 -0.8323  0.7053  0.0545
 3029TIP3   OH230645   2.564   0.124   0.905  0.2400  0.0988  0.2694
 3029TIP3    H130646   2.568   0.220   0.910 -0.8232  0.0879  2.8023
 3029TIP3    H230647   2.639   0.094   0.955  1.6818 -0.4954 -2.0821
 3030TIP3   OH230648   4.118   2.626   2.875 -0.0159 -0.0759 -0.3304
 3030TIP3    H130649   4.084   2.621   2.785  1.3620  0.7786 -0.9347
 3030TIP3    H230650   4.160   2.712   2.880 -1.4715  0.5763  1.6809
 3031TIP3   OH230651   5.863   3.413   0.922  0.0270  0.2456  0.2470
 3031TIP3    H130652   5.905   3.383   1.002  1.6335 -0.2106 -0.7179
 3031TIP3    H230653   5.848   3.506   0.937  0.4151  0.1888  1.0474
 3032TIP3   OH230654   0.573   4.737   1.643  0.9198  0.0060 -0.0827
 3032TIP3    H130655   0.552   4.679   1.717  0.0181 -0.2696 -0.5456
 3032TIP3    H230656   0.612   4.814   1.684 -0.8754  0.4900  0.8257
 3033TIP3   OH230657   2.084   0.366   4.019 -0.1870 -0.0687  0.2824
 3033TIP3    H130658   2.045   0.348   3.934 -0.4982  0.7988  0.2385
 3033TIP3    H230659   2.141   0.290   4.035 -2.5565 -1.8511  0.7819
 3034TIP3   OH230660   3.977   4.062   1.204  0.0159  0.9142  0.2903
 3034TIP3    H130661   4.071   4.042   1.200 -0.1085  0.4146 -0.2889
 3034TIP3    H230662   3.936   3.998   1.146 -1.0172 -0.9060  2.8429
 3035TIP3   OH230663   5.426   4.965   0.868  0.1227 -0.2596 -0.1984
 3035TIP3    H130664   5.354   4.948   0.929  2.0171 -2.8176  1.5663
 3035TIP3    H230665   5.473   5.039   0.907 -1.4306  1.4377 -1.3702
 3036TIP3   OH230666   3.554   4.799   0.590 -0.2494  0.0209  0.2427
 3036TIP3    H130667   3.523   4.709   0.582  1.3285 -0.7051  1.5425
 3036TIP3    H230668   3.510   4.833   0.668  0.5661 -0.3066  0.8679
 3037TIP3   OH230669   3.188   5.858   3.987 -0.3660 -0.3654 -0.3228
 3037TIP3    H130670   3.098   5.829   3.996 -0.6167  0.4012 -0.2856
 3037TIP3    H230671   3.185   5.953   4.002  0.5802 -0.4578  0.6634
 3038TIP3   OH230672   5.243   4.593   4.073  0.3979  0.5154 -0.3114
 3038TIP3    H130673   5.187   4.536   4.125 -0.2941 -0.0829 -1.6376
 3038TIP3    H230674   5.332   4.563   4.090  0.1251 -0.1455 -0.0374
 3039TIP3   OH230675   6.727   5.713   4.005 -0.2070 -0.2479  0.4295
 3039TIP3    H130676   6.677   5.632   4.012 -0.4773 -0.2535 -1.0450
 3039TIP3    H230677   6.707   5.761   4.085 -0.4024 -1.4271  1.1161
 3040TIP3   OH230678   0.352   6.746   1.949 -0.1964 -0.0061  0.2186
 3040TIP3    H130679   0.346   6.798   1.870 -1.4067  0.3134  0.5046
 3040TIP3    H230680   0.346   6.655   1.919 -0.1100  0.0965 -0.1039
 3041TIP3   OH230681   5.258   6.338   2.959 -0.2715 -0.0750 -0.0784
 3041TIP3    H130682   5.319   6.302   3.022  0.5815 -0.3128 -1.0098
 3041TIP3    H230683   5.204   6.264   2.932  0.4375 -0.3455 -0.8125
 3042TIP3   OH230684   5.631   5.681   0.686 -0.0832  0.1719  0.0458
 3042TIP3    H130685   5.670   5.630   0.614 -1.2695  0.9474 -1.1812
 3042TIP3    H230686   5.630   5.771   0.654 -2.2274  0.2772  0.2967
 3043TIP3   OH230687   4.319   4.490   3.145  0.4753 -0.7595 -0.0467
 3043TIP3    H130688   4.284   4.426   3.207  0.3800 -0.4393  0.2405
 3043TIP3    H230689   4.408   4.460   3.127  1.7916  0.9070  2.8785
 3044TIP3   OH230690   0.521   6.397   0.861 -0.0940  0.1964  0.2267
 3044TIP3    H130691   0.601   6.428   0.903  0.6729  1.6892 -2.0864
 3044TIP3    H230692   0.546   6.315   0.819 -0.4973 -0.6162  1.5383
 3045TIP3   OH230693   5.778   1.071   2.562  0.0355  0.0912 -0.5097
 3045TIP3    H130694   5.817   0.983   2.558  1.6986  0.8454 -1.9776
 3045TIP3    H230695   5.684   1.055   2.574  0.3344 -1.8728 -0.4660
 3046TIP3   OH230696   6.161   3.340   4.519 -0.2305  0.8508 -0.0788
 3046TIP3    H130697   6.087   3.400   4.521  1.0298  2.4715  0.2517
 3046TIP3    H230698   6.196   3.342   4.608  1.3513  1.6691 -0.6675
 3047TIP3   OH230699   3.782   4.527   0.496 -0.5804  0.5390 -0.5007
 3047TIP3    H130700   3.808   4.592   0.561  0.2209 -0.5855  0.3328
 3047TIP3    H230701   3.686   4.532   0.494 -0.5725  1.1518  0.1682
 3048TIP3   OH230702   0.377   2.482   1.833 -0.3788  0.1654  0.5341
 3048TIP3    H130703   0.392   2.402   1.883  1.2380  0.1709  0.1238
 3048TIP3    H230704   0.443   2.480   1.763 -0.8669  1.4328 -0.0099
 3049TIP3   OH230705   2.452   1.801   3.790  0.0608 -0.4301  0.5034
 3049TIP3    H130706   2.401   1.720   3.791 -2.3411  0.9622  0.2687
 3049TIP3    H230707   2.482   1.810   3.699 -0.1485 -0.7782  0.3993
 3050TIP3   OH230708   4.531   3.452   0.947 -0.0493 -0.3344  0.1939
 3050TIP3    H130709   4.592   3.442   0.874 -0.4072 -0.8927 -0.0300
 3050TIP3    H230710   4.578   3.417   1.023  0.7449  1.2116  0.4766
 3051TIP3   OH230711   1.770   6.783   3.387 -0.2942 -0.1158  0.1902
 3051TIP3    H130712   1.826   6.742   3.452 -0.6043  0.0654  0.5772
 3051TIP3    H230713   1.820   6.778   3.305  0.0526 -0.4356  0.4189
 3052TIP3   OH230714   0.098   3.775   0.531  0.3609 -0.3086  0.0403
 3052TIP3    H130715   0.101   3.785   0.436 -2.0941  0.6706 -0.0016
 3052TIP3    H230716   0.188   3.753   0.556  1.1000 -0.3926 -2.4635
 3053TIP3   OH230717   4.512   0.374   4.722 -0.1991  0.3829 -0.4960
 3053TIP3    H130718   4.579   0.418   4.775 -0.8051 -0.0454  0.6486
 3053TIP3    H230719   4.430   0.390   4.768 -0.9726  1.2200 -2.0919
 3054TIP3   OH230720   0.042   3.928   3.117 -0.3541  0.4014  0.1949
 3054TIP3    H130721   0.031   3.934   3.212  0.3912 -0.4973  0.3450
 3054TIP3    H230722   0.023   3.837   3.095 -1.0523  0.7216 -0.6015
 3055TIP3   OH230723   2.880   4.439   0.757  0.1198  0.2687 -0.5825
 3055TIP3    H130724   2.967   4.448   0.797  0.8457  0.2470 -2.0996
 3055TIP3    H230725   2.885   4.356   0.709 -1.0186 -0.1241 -0.0512
 3056TIP3   OH230726   0.750   6.459   8.793 -0.2912  0.0253  0.1214
 3056TIP3    H130727   0.671   6.483   8.843 -0.8594 -0.5196 -0.4880
 3056TIP3    H230728   0.792   6.542   8.772 -0.7009  0.3243  0.4596
 3057TIP3   OH230729   2.182   3.674   3.210  0.2707 -0.5565  0.2066
 3057TIP3    H130730   2.248   3.696   3.275  1.0539  0.4016 -0.8669
 3057TIP3    H230731   2.206   3.586   3.180  0.1410 -0.8337  0.9040
 3058TIP3   OH230732   3.262   2.710   2.755 -0.2131 -0.2318 -0.6772
 3058TIP3    H130733   3.346   2.712   2.800  0.5512  1.3108 -2.0722
 3058TIP3    H230734   3.198   2.693   2.824  1.0504  0.5458  0.7368
 3059TIP3   OH230735   5.442   0.839   2.758  0.7976 -0.0528 -0.0368
 3059TIP3    H130736   5.420   0.771   2.695  0.4484  1.3067 -1.4509
 3059TIP3    H230737   5.358   0.862   2.798  0.6248  0.6583 -0.7668
 3060TIP3   OH230738   5.276   3.303   2.842 -0.3957 -0.0224 -0.3902
 3060TIP3    H130739   5.276   3.276   2.934 -0.3216 -0.0679 -0.4041
 3060TIP3    H230740   5.296   3.397   2.845 -0.1800 -0.0685 -0.3740
 3061TIP3   OH230741   2.835   0.646   4.260  0.4974 -0.1471  0.1383
 3061TIP3    H130742   2.836   0.629   4.355  1.3310 -1.1285 -0.0354
 3061TIP3    H230743   2.842   0.741   4.253 -0.3450  0.0078  1.0662
 3062TIP3   OH230744   0.647   1.144   0.805  0.1143  0.0212  0.0656
 3062TIP3    H130745   0.645   1.185   0.718  0.3132  0.6921  0.3668
 3062TIP3    H230746   0.567   1.093   0.810 -1.2814  2.1521  0.5174
 3063TIP3   OH230747   6.147   3.831   1.397 -0.4358 -0.1408  0.4935
 3063TIP3    H130748   6.191   3.863   1.318  1.0623  1.3481  1.8787
 3063TIP3    H230749   6.187   3.746   1.413 -0.1600 -0.0908  0.1090
 3064TIP3   OH230750   6.326   0.374   2.279 -0.5921  0.0082 -0.2102
 3064TIP3    H130751   6.384   0.362   2.203 -2.0665  1.3571 -1.6284
 3064TIP3    H230752   6.359   0.312   2.344  2.3965  0.6851 -0.9211
 3065TIP3   OH230753   5.928   3.505   4.543  0.0981 -0.4463  0.0274
 3065TIP3    H130754   5.884   3.567   4.601 -1.4861 -1.8613  0.4315
 3065TIP3    H230755   5.919   3.543   4.456 -0.2377  0.2291  0.3455
 3066TIP3   OH230756   4.968   3.925   3.929  0.0471  0.3645 -0.0440
 3066TIP3    H130757   4.915   4.004   3.926 -1.3119 -0.5242 -1.3576
 3066TIP3    H230758   4.948   3.885   4.014 -1.7938 -0.1660 -0.6816
 3067TIP3   OH230759   0.061   0.052   2.709 -0.2279  0.3134  0.2769
 3067TIP3    H130760   0.094  -0.027   2.751 -4.3367 -1.6956  0.1994
 3067TIP3    H230761  -0.003   0.088   2.770 -3.1746 -0.2342 -2.1980
 3068TIP3   OH230762   3.030   2.119   0.326  0.2667 -0.0181 -0.0036
 3068TIP3    H130763   2.943   2.089   0.302  0.1773  0.7718 -0.6967
 3068TIP3    H230764   3.087   2.044   0.311  0.0202  0.0694 -1.5376
 3069TIP3   OH230765   3.096   2.415   1.245 -0.1005  0.5444  0.7753
 3069TIP3    H130766   3.026   2.382   1.189  1.1973 -0.5058 -0.3100
 3069TIP3    H230767   3.113   2.344   1.307  0.7535  0.2960  0.2820
 3070TIP3   OH230768   0.892   3.529   2.273  0.4571 -0.5807  0.3145
 3070TIP3    H130769   0.983   3.544   2.297  0.1947  1.8868 -0.0126
 3070TIP3    H230770   0.841   3.575   2.339 -0.7157 -3.4573  1.5905
 3071TIP3   OH230771   0.478   2.507   8.832  0.0604  0.3811  0.7035
 3071TIP3    H130772   0.561   2.482   8.872  0.2453 -0.2771 -0.0521
 3071TIP3    H230773   0.438   2.423   8.806  0.1528  0.8015 -0.8540
 3072TIP3   OH230774   0.252   5.718   3.770  0.2814  0.4993 -0.4423
 3072TIP3    H130775   0.278   5.692   3.681  3.0998 -0.1629  0.4956
 3072TIP3    H230776   0.168   5.674   3.783  1.7401 -2.9115 -1.3447
 3073TIP3   OH230777   5.866   1.037   1.772 -0.1117 -0.2099  0.1422
 3073TIP3    H130778   5.950   1.057   1.812  0.4667 -1.4749 -0.4190
 3073TIP3    H230779   5.831   0.965   1.824  1.1037 -2.5758 -2.1119
 3074TIP3   OH230780   5.437   6.185   4.847  0.0743 -0.1361 -0.4644
 3074TIP3    H130781   5.458   6.212   4.936 -0.3091 -2.9556  0.5608
 3074TIP3    H230782   5.341   6.182   4.844  0.0973 -1.5619 -0.4358
 3075TIP3   OH230783   3.933   0.563   2.090 -0.2691  0.6361 -0.5552
 3075TIP3    H130784   3.953   0.653   2.065 -2.0061  1.7102  1.5714
 3075TIP3    H230785   3.895   0.571   2.177 -1.3398 -2.0743 -0.6913
 3076TIP3   OH230786   6.752   3.034   0.242 -0.3265 -0.2852  0.7904
 3076TIP3    H130787   6.801   3.026   0.160  0.2386 -0.5631  1.1490
 3076TIP3    H230788   6.745   2.945   0.275 -3.7169 -0.7333 -0.7393
 3077TIP3   OH230789   3.365   1.695   2.827 -0.2960  0.5300  0.0872
 3077TIP3    H130790   3.377   1.735   2.913 -1.3672  0.4673  0.2765
 3077TIP3    H230791   3.301   1.625   2.842  0.5828 -0.4301 -0.4841
 3078TIP3   OH230792   1.815   3.053   2.712 -0.2298 -0.5836  0.4324
 3078TIP3    H130793   1.886   3.017   2.766 -0.4963 -1.9547 -0.0959
 3078TIP3    H230794   1.744   3.070   2.774 -1.1836 -3.7810  0.3999
 3079TIP3   OH230795   4.481   6.496   2.541 -0.3439  0.3527  0.7306
 3079TIP3    H130796   4.411   6.555   2.513 -1.0553 -0.7062  0.2055
 3079TIP3    H230797   4.500   6.442   2.463  0.1784 -0.2085  1.2316
 3080TIP3   OH230798   5.912   2.684   4.641 -0.3142 -0.4575 -1.1120
 3080TIP3    H130799   5.878   2.614   4.586 -2.0127 -0.7056  0.1508
 3080TIP3    H230800   5.896   2.764   4.591 -1.3555 -0.7205 -1.2293
 3081TIP3   OH230801   0.144   5.943   1.127  0.0290  0.4371 -0.1610
 3081TIP3    H130802   0.094   5.974   1.203  0.8919  0.2917  0.4800
 3081TIP3    H230803   0.110   5.855   1.109 -0.9975  0.9307 -0.6957
 3082TIP3   OH230804   4.912   6.510   1.742  0.6302  0.2170  0.1225
 3082TIP3    H130805   4.851   6.503   1.816  1.7403  0.7554  1.1299
 3082TIP3    H230806   4.900   6.599   1.709  1.3450  0.5656  0.7733
 3083TIP3   OH230807   6.042   3.711   0.541 -0.6073 -0.7239  0.2967
 3083TIP3    H130808   6.012   3.662   0.618 -0.1481  0.6029  1.3490
 3083TIP3    H230809   5.989   3.791   0.542  0.2834 -0.1216 -0.0376
 3084TIP3   OH230810   1.496   0.043   2.453 -0.9542  0.0139  0.0159
 3084TIP3    H130811   1.560   0.002   2.511  0.5560  1.6473 -0.4210
 3084TIP3    H230812   1.429  -0.024   2.440  0.1164 -1.3750  1.3503
 3085TIP3   OH230813   0.716   4.507   0.161 -0.5210 -0.6699 -0.4126
 3085TIP3    H130814   0.656   4.559   0.214 -0.5346 -1.3070  0.2142
 3085TIP3    H230815   0.659   4.452   0.108 -0.5009 -0.9924 -0.1042
 3086TIP3   OH230816   5.140   1.821   0.429  0.2943 -0.2129 -0.3321
 3086TIP3    H130817   5.063   1.875   0.443  0.0171 -0.8166  0.5426
 3086TIP3    H230818   5.165   1.790   0.516  1.8110  0.3356 -0.5311
 3087TIP3   OH230819   4.351   1.587   2.146  0.0654 -0.4031 -0.3543
 3087TIP3    H130820   4.381   1.530   2.076  1.0821  1.0221 -1.1289
 3087TIP3    H230821   4.416   1.576   2.216 -0.6927 -1.4742  0.1973
 3088TIP3   OH230822   4.985   2.502   1.068 -0.1051  0.2117 -0.1740
 3088TIP3    H130823   5.008   2.530   1.156 -0.5482 -0.2724  0.0988
 3088TIP3    H230824   4.892   2.522   1.059 -0.5482 -1.5161  0.1885
 3089TIP3   OH230825   4.713   3.260   2.866  0.3398 -0.0843  0.0382
 3089TIP3    H130826   4.666   3.288   2.944  0.0852 -2.9815  1.0190
 3089TIP3    H230827   4.806   3.266   2.891  0.2616 -0.9268  0.5700
 3090TIP3   OH230828   4.269   6.442   1.059 -0.2333 -0.4581 -0.7734
 3090TIP3    H130829   4.291   6.528   1.022 -0.8016 -0.4544 -1.1291
 3090TIP3    H230830   4.273   6.382   0.985 -1.5658 -0.4196 -0.9150
 3091TIP3   OH230831   0.025   4.762   3.783  0.6105 -0.6975  0.4466
 3091TIP3    H130832   0.005   4.801   3.867 -1.7456 -1.7277  0.4345
 3091TIP3    H230833  -0.003   4.827   3.718 -0.2133 -1.0358  0.4544
 3092TIP3   OH230834   5.080   3.380   2.050 -0.2301 -0.0138  0.3208
 3092TIP3    H130835   5.039   3.413   2.130  0.7262  0.2227  0.7239
 3092TIP3    H230836   5.151   3.442   2.032 -0.8965  0.3764 -1.1464
 3093TIP3   OH230837   6.640   0.876   2.011  0.0781  0.0674 -0.1220
 3093TIP3    H130838   6.671   0.936   1.944  0.0979 -0.7080 -0.8269
 3093TIP3    H230839   6.654   0.922   2.094  0.5292  0.8288 -0.6142
 3094TIP3   OH230840   5.509   5.127   4.936  0.6243  0.0253 -0.9373
 3094TIP3    H130841   5.567   5.052   4.923  1.5173  0.4505  0.3870
 3094TIP3    H230842   5.560   5.203   4.907  1.0146  0.4697  0.8062
 3095TIP3   OH230843   5.004   1.385   3.892 -0.3003  0.2898 -0.3279
 3095TIP3    H130844   4.971   1.454   3.950 -1.2748  0.0615 -0.5913
 3095TIP3    H230845   4.968   1.304   3.928 -0.5533  0.1018 -1.0007
 3096TIP3   OH230846   0.590   2.391   0.221 -0.2333  0.0828  0.2797
 3096TIP3    H130847   0.612   2.316   0.277 -0.8532  0.1376  0.6065
 3096TIP3    H230848   0.509   2.425   0.258  0.2105  1.1132  0.3269
 3097TIP3   OH230849   0.315   4.380   3.169 -0.2542 -0.0855 -0.3315
 3097TIP3    H130850   0.286   4.289   3.159  0.5738 -0.5445  1.0480
 3097TIP3    H230851   0.411   4.374   3.174 -0.1367  0.9629 -0.9814
 3098TIP3   OH230852   3.465   4.646   1.017  0.4812  0.1618  0.0656
 3098TIP3    H130853   3.467   4.550   1.019 -0.6210  0.0806 -1.2830
 3098TIP3    H230854   3.379   4.669   1.051  0.4808  0.6483 -0.2576
 3099TIP3   OH230855   5.924   2.146   8.790  0.3867 -0.0248 -0.5854
 3099TIP3    H130856   5.942   2.065   8.741 -1.0189  0.9016 -2.8078
 3099TIP3    H230857   5.876   2.201   8.728 -0.7754  1.6033  1.6337
 3100TIP3   OH230858   3.926   0.537   3.735 -0.5718  0.0652  0.7610
 3100TIP3    H130859   3.909   0.459   3.683 -0.1467  0.7439 -0.4232
 3100TIP3    H230860   4.022   0.539   3.745 -0.4250  1.2531 -0.5691
 3101TIP3   OH230861   0.159   2.486   1.444  0.5386  0.2549  0.6328
 3101TIP3    H130862   0.241   2.516   1.484  1.6562 -1.3712 -0.3318
 3101TIP3    H230863   0.147   2.397   1.478  0.0055 -0.0891 -0.4130
 3102TIP3   OH230864   5.236   5.792   3.804 -0.2389 -0.1482 -0.1314
 3102TIP3    H130865   5.153   5.780   3.850 -0.1263  1.5854  0.5705
 3102TIP3    H230866   5.212   5.792   3.711 -0.8255 -0.9970  0.0076
 3103TIP3   OH230867   5.056   4.299   2.040  0.4232 -0.1509  0.0517
 3103TIP3    H130868   4.985   4.316   1.978 -0.5392 -0.7369  0.9548
 3103TIP3    H230869   5.014   4.251   2.111  1.5695  0.2208  1.0062
 3104TIP3   OH230870   0.388   3.316   8.564  0.3463 -0.3054 -0.6079
 3104TIP3    H130871   0.362   3.294   8.474  0.9358 -0.7241 -0.6817
 3104TIP3    H230872   0.463   3.259   8.582 -0.8160 -1.4818  0.7608
 3105TIP3   OH230873   5.390   1.861   1.353 -0.7422 -0.1521 -0.1109
 3105TIP3    H130874   5.451   1.827   1.287 -0.0430 -1.1526  1.0037
 3105TIP3    H230875   5.304   1.849   1.314 -0.2673  1.1275 -1.6478
 3106TIP3   OH230876   4.222   2.831   1.719  0.4989  0.1045  0.8152
 3106TIP3    H130877   4.147   2.857   1.665  0.6164  0.8672  1.0085
 3106TIP3    H230878   4.212   2.737   1.731  0.9890 -0.2582 -1.3267
 3107TIP3   OH230879   2.983   3.831   1.147 -0.4149  0.3471 -0.6571
 3107TIP3    H130880   2.985   3.757   1.086  0.1788 -0.0913 -0.1127
 3107TIP3    H230881   3.001   3.907   1.092  3.0874 -0.3138 -0.6549
 3108TIP3   OH230882   6.662   3.056   3.727 -0.3085  0.8223  0.3999
 3108TIP3    H130883   6.593   2.999   3.694  0.1677 -0.0968  0.9383
 3108TIP3    H230884   6.685   3.019   3.812  0.7623  1.1831  0.2878
 3109TIP3   OH230885   2.749   2.421   4.417  0.1671 -0.0127 -0.6126
 3109TIP3    H130886   2.669   2.429   4.468 -0.1433  0.9120 -1.2090
 3109TIP3    H230887   2.819   2.415   4.482  0.0992  3.9223  0.0841
 3110TIP3   OH230888   1.005   6.635   3.769 -0.0398  0.0828 -0.0844
 3110TIP3    H130889   1.046   6.549   3.763 -0.6896 -0.2218 -0.2526
 3110TIP3    H230890   1.053   6.680   3.839  1.7336  0.3975 -1.4475
 3111TIP3   OH230891   4.761   6.457   3.988  0.3766  0.5784 -0.4503
 3111TIP3    H130892   4.671   6.456   3.958  0.1195  0.0649  0.3137
 3111TIP3    H230893   4.798   6.375   3.955  0.0105 -0.1292  0.8387
 3112TIP3   OH230894   0.127   1.780   1.739 -0.0466 -0.5298 -0.0313
 3112TIP3    H130895   0.099   1.695   1.706  0.4924 -0.6563 -0.1689
 3112TIP3    H230896   0.047   1.833   1.740 -0.2098 -0.7498 -0.8398
 3113TIP3   OH230897   2.298   3.368   2.497  0.5487 -0.1088  0.1308
 3113TIP3    H130898   2.215   3.387   2.454  1.8394 -0.7994 -2.9326
 3113TIP3    H230899   2.328   3.287   2.456  2.1345 -0.6208  2.1370
 3114TIP3   OH230900   0.876   6.278   3.214 -0.1547 -0.4247  0.5567
 3114TIP3    H130901   0.805   6.286   3.278  0.2911  0.4431  0.9510
 3114TIP3    H230902   0.876   6.185   3.191 -2.8297 -0.1025 -1.0985
 3115TIP3   OH230903   1.757   0.733   2.132  0.4303  0.4214 -0.1085
 3115TIP3    H130904   1.691   0.723   2.063  1.1018 -0.2150 -0.6881
 3115TIP3    H230905   1.723   0.802   2.188 -0.0907  1.0414 -1.1470
 3116TIP3   OH230906   3.925   3.044   0.255  0.0458  0.0707 -0.0575
 3116TIP3    H130907   3.900   2.953   0.274  0.9742  0.0311  1.0863
 3116TIP3    H230908   3.969   3.039   0.170  0.2339 -0.5866  0.0687
 3117TIP3   OH230909   1.438   4.320   2.209  0.0093  0.0312 -0.0139
 3117TIP3    H130910   1.501   4.388   2.233 -0.1850  0.3457 -0.3749
 3117TIP3    H230911   1.360   4.341   2.259 -0.5629  0.9780 -1.2477
 3118TIP3   OH230912   2.232   4.367   3.615 -0.4340  0.6673 -0.5683
 3118TIP3    H130913   2.185   4.441   3.654 -1.4224 -0.3543  0.2352
 3118TIP3    H230914   2.189   4.290   3.651 -1.4729 -0.3736 -3.6892
 3119TIP3   OH230915   3.483   1.624   2.088  0.6698 -0.0486 -0.5323
 3119TIP3    H130916   3.497   1.688   2.017 -0.4677 -0.8006 -1.4704
 3119TIP3    H230917   3.571   1.595   2.111  1.0475 -0.1492 -2.0032
 3120TIP3   OH230918   5.525   0.958   2.481  0.3270 -0.0198  0.2495
 3120TIP3    H130919   5.430   0.950   2.469  0.0836  1.3529  1.0553
 3120TIP3    H230920   5.559   0.872   2.457 -0.9371 -0.0370 -1.7413
 3121TIP3   OH230921   1.156   1.433   3.895 -1.1650  0.0903 -0.2760
 3121TIP3    H130922   1.161   1.338   3.885  1.5872 -0.3013  2.8596
 3121TIP3    H230923   1.110   1.445   3.979  1.4599  1.2156  1.1133
 3122TIP3   OH230924   5.873   1.863   2.222  0.5395 -0.4710 -0.3702
 3122TIP3    H130925   5.799   1.912   2.188  1.5279  0.5593 -1.1219
 3122TIP3    H230926   5.949   1.919   2.204  1.2851 -0.4841  2.2954
 3123TIP3   OH230927   6.496   3.799   0.965  0.4045 -0.1220 -0.0650
 3123TIP3    H130928   6.417   3.852   0.952 -0.4522 -1.4431 -0.3819
 3123TIP3    H230929   6.503   3.790   1.060  1.0002  1.1688  0.0405
 3124TIP3   OH230930   3.779   1.951   3.285  0.0959  0.0376  0.3854
 3124TIP3    H130931   3.738   1.914   3.363  0.1390  0.0486  0.4139
 3124TIP3    H230932   3.868   1.916   3.287  0.2513  0.4461  0.6183
 3125TIP3   OH230933   1.133   4.621   1.101  0.4962  0.0833 -0.4111
 3125TIP3    H130934   1.135   4.527   1.084 -1.8236 -0.2265  0.6883
 3125TIP3    H230935   1.139   4.629   1.196  0.9260  1.0730 -0.5102
 3126TIP3   OH230936   3.690   3.037   1.971 -0.6651  0.4384  0.0816
 3126TIP3    H130937   3.781   3.065   1.984  0.1482 -1.3765 -1.1693
 3126TIP3    H230938   3.658   3.018   2.059 -0.1183  1.8407  0.6188
 3127TIP3   OH230939   4.175   0.011   1.672 -0.2969  0.2964 -0.1583
 3127TIP3    H130940   4.202  -0.049   1.742 -1.2836 -0.0222 -0.0227
 3127TIP3    H230941   4.252   0.022   1.617  1.4785  2.7979  2.5053
 3128TIP3   OH230942   1.612   5.577   2.038 -0.1976 -0.3334  0.1897
 3128TIP3    H130943   1.620   5.555   1.945  0.9286 -0.7666  0.3693
 3128TIP3    H230944   1.686   5.532   2.080  0.1966  1.0802  1.0792
 3129TIP3   OH230945   4.421   2.235   2.705  0.6305  0.2985 -0.0812
 3129TIP3    H130946   4.375   2.193   2.778 -0.4210 -0.8589 -1.3540
 3129TIP3    H230947   4.503   2.187   2.697  0.5150  0.0860  0.0045
 3130TIP3   OH230948   5.200   4.896   3.731  0.0553 -0.1607 -0.2160
 3130TIP3    H130949   5.288   4.860   3.731  0.5267  0.7828 -2.5164
 3130TIP3    H230950   5.179   4.909   3.638 -1.7120  1.4932  0.3264
 3131TIP3   OH230951   5.412   0.437   3.384 -0.7947 -0.6406 -0.3669
 3131TIP3    H130952   5.414   0.518   3.333  0.3680 -0.2762  0.2222
 3131TIP3    H230953   5.335   0.447   3.441  0.5288  1.0655  1.2588
 3132TIP3   OH230954   3.738   1.517   2.113  0.1202 -0.1670 -0.0277
 3132TIP3    H130955   3.771   1.428   2.124 -0.2194 -0.2462  0.3777
 3132TIP3    H230956   3.785   1.551   2.037 -0.5469 -1.0705 -0.8766
 3133TIP3   OH230957   4.723   4.736   1.350  0.2011 -0.2534 -0.1256
 3133TIP3    H130958   4.649   4.787   1.318 -0.5416 -0.7126  0.8019
 3133TIP3    H230959   4.683   4.661   1.394  1.2402 -2.2623 -2.3497
 3134TIP3   OH230960   2.056   4.117   1.712 -0.3454 -0.5113  0.6287
 3134TIP3    H130961   2.018   4.165   1.785 -0.8063  1.2259 -0.6775
 3134TIP3    H230962   2.022   4.028   1.721 -0.8426 -0.1840  2.1763
 3135TIP3   OH230963   2.582   2.539   3.514 -0.3709 -0.4386  0.0895
 3135TIP3    H130964   2.559   2.497   3.431  2.8782 -2.0907 -0.1325
 3135TIP3    H230965   2.552   2.629   3.504 -4.5374 -1.7168 -0.7948
 3136TIP3   OH230966   3.604   0.818   3.849  0.6627  0.1103 -0.1637
 3136TIP3    H130967   3.625   0.725   3.859 -0.5170 -0.3217 -1.3737
 3136TIP3    H230968   3.644   0.860   3.925  2.3016 -1.1898 -0.2410
 3137TIP3   OH230969   5.846   3.566   3.774 -0.0943  0.4214  0.2760
 3137TIP3    H130970   5.856   3.479   3.811  1.2496 -0.5675 -2.1892
 3137TIP3    H230971   5.925   3.613   3.800 -0.7986  0.9382  1.5687
 3138TIP3   OH230972   0.647   0.857   1.556 -0.2616 -0.7579  0.1437
 3138TIP3    H130973   0.684   0.863   1.644  0.3404 -1.0602 -0.0823
 3138TIP3    H230974   0.717   0.888   1.499 -1.2490  1.1861 -0.1111
 3139TIP3   OH230975   0.358   0.703   2.913 -0.5269  0.1590  0.6618
 3139TIP3    H130976   0.294   0.774   2.913 -0.7188  0.0207  1.9764
 3139TIP3    H230977   0.334   0.650   2.989 -0.2044 -1.1522 -0.1367
 3140TIP3   OH230978   4.043   4.135   2.719 -0.7454  0.2159 -0.2698
 3140TIP3    H130979   3.990   4.163   2.794  1.0000  0.8298  0.7802
 3140TIP3    H230980   4.053   4.213   2.665 -1.6777 -0.1338 -0.9771
 3141TIP3   OH230981   5.106   1.802   2.429  0.1827 -0.0044  0.6449
 3141TIP3    H130982   5.070   1.792   2.341 -1.5599  1.4564  1.1236
 3141TIP3    H230983   5.088   1.718   2.472  1.7143 -1.0084 -0.5535
 3142TIP3   OH230984   2.664   1.268   0.516 -0.0596 -0.3209  0.0117
 3142TIP3    H130985   2.580   1.234   0.548 -0.3219 -0.0614 -0.3897
 3142TIP3    H230986   2.641   1.348   0.469  0.5228  0.2872  0.7356
 3143TIP3   OH230987   4.367   3.066   3.758 -0.0996 -0.0478 -0.0511
 3143TIP3    H130988   4.442   3.111   3.719 -1.8893  2.3970 -0.9256
 3143TIP3    H230989   4.337   3.124   3.828 -0.6938 -1.3980  0.8821
 3144TIP3   OH230990   0.975   0.050   2.243 -0.7272 -0.4341  0.4340
 3144TIP3    H130991   0.967   0.097   2.326 -1.8548 -1.2450  0.8069
 3144TIP3    H230992   0.961   0.116   2.176  1.1974  0.4377  0.8257
 3145TIP3   OH230993   1.570   1.686   4.214 -0.6740 -0.3113  0.7421
 3145TIP3    H130994   1.514   1.623   4.169 -0.2833 -0.1786  0.0530
 3145TIP3    H230995   1.652   1.639   4.230 -0.5405 -0.1190  0.6293
 3146TIP3   OH230996   3.202   1.993   1.824  0.3235  0.0446 -0.9987
 3146TIP3    H130997   3.223   1.933   1.752 -1.4451 -1.5879 -0.2664
 3146TIP3    H230998   3.107   2.006   1.817  0.3947  1.3162 -0.0304
 3147TIP3   OH230999   4.979   1.152   3.181 -0.1342 -0.4532  0.7018
 3147TIP3    H131000   5.060   1.145   3.232  0.8732 -0.6593 -0.8792
 3147TIP3    H231001   4.954   1.245   3.189  0.9907 -0.0858  0.1449
 3148TIP3   OH231002   4.775   1.368   2.312 -0.0749  0.4655  0.4413
 3148TIP3    H131003   4.715   1.401   2.246  0.6194  0.2757 -0.3018
 3148TIP3    H231004   4.757   1.420   2.390 -0.9987  0.6014  0.1431
 3149TIP3   OH231005   6.622   3.904   3.328  0.4916 -0.3389 -0.1647
 3149TIP3    H131006   6.603   3.994   3.299  1.4959  0.8006  2.4028
 3149TIP3    H231007   6.550   3.852   3.293 -0.6222  1.6179 -0.9822
 3150TIP3   OH231008   6.650   2.958   1.220  0.1084 -0.1516  0.8196
 3150TIP3    H131009   6.742   2.972   1.199  0.1535  0.8179  1.5883
 3150TIP3    H231010   6.647   2.959   1.316 -0.7852  0.4423  0.7978
 3151TIP3   OH231011   4.441   1.055   3.526  0.5026 -0.2299  0.4119
 3151TIP3    H131012   4.392   1.137   3.516  0.5392 -0.1875  0.5744
 3151TIP3    H231013   4.494   1.068   3.605 -0.3603 -0.8305  1.1187
 3152TIP3   OH231014   4.375   1.493   2.785 -0.8749  0.2301  0.1542
 3152TIP3    H131015   4.326   1.567   2.823 -0.5169  0.2352  0.6052
 3152TIP3    H231016   4.467   1.515   2.800 -0.6663  0.7645 -1.6790
 3153TIP3   OH231017   4.917   2.617   0.712  0.1676 -0.5216 -0.1558
 3153TIP3    H131018   4.822   2.605   0.721 -0.2251  1.8741 -0.4023
 3153TIP3    H231019   4.939   2.680   0.781  1.1115  0.8123 -1.6167
 3154TIP3   OH231020   3.662   3.473   3.076 -0.1919 -0.0832 -0.1484
 3154TIP3    H131021   3.641   3.552   3.025  1.6723  1.1632  0.8840
 3154TIP3    H231022   3.618   3.487   3.160  1.2324  0.5657  0.5285
 3155TIP3   OH231023   5.049   4.577   3.608 -0.0045  0.1846 -0.1705
 3155TIP3    H131024   5.066   4.578   3.702 -2.5935 -2.0365  0.4309
 3155TIP3    H231025   5.004   4.660   3.591  0.4107  0.5642  0.5258
 3156TIP3   OH231026   4.216   4.721   3.354 -0.2571  0.6312  0.3386
 3156TIP3    H131027   4.283   4.667   3.311  0.4989  0.8183  1.2402
 3156TIP3    H231028   4.152   4.658   3.387 -0.2207  0.4051 -0.0173
 3157TIP3   OH231029   2.417   6.537   2.297  0.4395 -0.3852  0.0865
 3157TIP3    H131030   2.506   6.509   2.274 -0.3903 -1.0376 -2.6730
 3157TIP3    H231031   2.387   6.587   2.221 -1.7211 -0.5917  0.7464
 3158TIP3   OH231032   2.919   3.316   3.276  0.3379 -0.5515 -0.4055
 3158TIP3    H131033   2.906   3.380   3.207 -0.5473 -1.9893 -1.6332
 3158TIP3    H231034   2.994   3.264   3.248  0.6551 -0.4590  0.2514
 3159TIP3   OH231035   4.190   1.201   1.690 -0.6348 -0.2175 -0.2781
 3159TIP3    H131036   4.272   1.154   1.708 -0.4560  0.1565 -0.1108
 3159TIP3    H231037   4.152   1.153   1.617  0.0867  0.0372 -0.8330
 3160TIP3   OH231038   0.224   6.285   1.047 -0.5283 -0.1077  0.3807
 3160TIP3    H131039   0.205   6.359   0.989 -1.6417 -1.1518 -0.6527
 3160TIP3    H231040   0.139   6.261   1.083 -0.3177 -1.4123  0.0403
 3161TIP3   OH231041   2.962   2.693   4.511 -0.8495 -0.3082 -0.6875
 3161TIP3    H131042   2.965   2.602   4.538 -0.8945  0.1530  1.0228
 3161TIP3    H231043   3.036   2.704   4.451  1.2320 -0.7376  1.6589
 3162TIP3   OH231044   4.138   3.947   3.536 -0.2353  0.6369  0.2773
 3162TIP3    H131045   4.163   3.930   3.446 -1.8519  1.3599 -0.3437
 3162TIP3    H231046   4.170   3.871   3.585  1.2064  0.5326 -0.7733
 3163TIP3   OH231047   0.577   5.596   0.233 -0.0630  0.3807 -0.1173
 3163TIP3    H131048   0.539   5.650   0.163 -2.1810  0.5437  1.0738
 3163TIP3    H231049   0.571   5.651   0.311  0.9784 -0.3147  0.4714
 3164TIP3   OH231050   4.961   1.556   1.290  0.0642  0.0770 -0.5595
 3164TIP3    H131051   4.995   1.517   1.371 -0.0023 -1.3191 -1.1719
 3164TIP3    H231052   5.007   1.639   1.283  2.1552 -1.0086 -0.5039
 3165TIP3   OH231053   0.117   0.688   3.157 -0.3815 -0.1438  0.1395
 3165TIP3    H131054   0.105   0.610   3.212 -1.2037 -0.0289  0.1307
 3165TIP3    H231055   0.196   0.729   3.192 -0.0691 -0.8537  0.2928
 3166TIP3   OH231056   0.729   5.879   2.750 -0.7988  0.3354 -0.2761
 3166TIP3    H131057   0.642   5.912   2.772 -0.3070  1.1750  0.4667
 3166TIP3    H231058   0.748   5.812   2.816 -0.9685 -0.0106 -0.5745
 3167TIP3   OH231059   5.379   1.172   1.503 -0.5180  0.1696  0.0162
 3167TIP3    H131060   5.343   1.109   1.565 -0.7676  0.1126 -0.1849
 3167TIP3    H231061   5.473   1.174   1.523 -0.4871 -0.3667 -0.0622
 3168TIP3   OH231062   1.590   2.501   3.833  0.1426  0.2312  0.3299
 3168TIP3    H131063   1.511   2.455   3.862 -1.5707  2.7213 -0.1057
 3168TIP3    H231064   1.654   2.482   3.901 -0.0326 -3.5517 -0.3049
 3169TIP3   OH231065   5.068   6.535   2.905 -0.7806 -0.1335 -0.0722
 3169TIP3    H131066   4.994   6.476   2.916 -0.6296 -0.4106 -0.5490
 3169TIP3    H231067   5.145   6.478   2.908 -0.6784 -0.0977 -1.5418
 3170TIP3   OH231068   1.800   0.307   1.506  0.1949 -0.0526 -0.4720
 3170TIP3    H131069   1.859   0.297   1.580  0.5754  1.3369 -0.5630
 3170TIP3    H231070   1.774   0.399   1.508 -3.5865 -0.9567  0.7808
 3171TIP3   OH231071   1.056   1.091   2.904 -0.6681  0.1969 -0.5163
 3171TIP3    H131072   1.129   1.116   2.849  1.0010  1.6309  2.1563
 3171TIP3    H231073   1.024   1.009   2.866  2.2466 -0.4241 -1.8564
 3172TIP3   OH231074   1.694   1.474   3.935  0.0712 -0.4825 -0.2623
 3172TIP3    H131075   1.751   1.485   4.011  0.1627  0.2939 -0.4410
 3172TIP3    H231076   1.754   1.467   3.861 -0.0525  0.5529 -0.4789
 3173TIP3   OH231077   2.714   4.735   4.304 -0.0358  0.4271 -0.0947
 3173TIP3    H131078   2.668   4.699   4.380  3.3423 -0.2572  1.8331
 3173TIP3    H231079   2.653   4.799   4.267 -3.2405 -1.7709  0.9641
 3174TIP3   OH231080   0.200   3.062   2.762 -0.8196 -0.3817  0.6175
 3174TIP3    H131081   0.149   3.131   2.719 -1.1238 -0.3192  1.0663
 3174TIP3    H231082   0.143   3.032   2.833  0.0800  0.2433  1.6254
 3175TIP3   OH231083   0.876   5.607   3.975  0.3076  0.6125 -0.0519
 3175TIP3    H131084   0.781   5.599   3.968  0.3887 -3.8008  1.0036
 3175TIP3    H231085   0.902   5.652   3.895 -2.5141 -0.0774 -1.5023
 3176TIP3   OH231086   6.319   2.191   4.911  0.1000 -0.4499  0.0569
 3176TIP3    H131087   6.390   2.248   4.942  0.2691  0.3115 -1.6258
 3176TIP3    H231088   6.243   2.249   4.904 -0.3640 -0.9811  0.6187
 3177TIP3   OH231089   1.958   5.981   2.488  0.2569  0.0176 -0.5952
 3177TIP3    H131090   2.046   5.953   2.466 -0.2773 -2.1410 -0.2355
 3177TIP3    H231091   1.902   5.934   2.427 -0.6712  1.3550 -0.8222
 3178TIP3   OH231092   2.474   5.840   3.663 -0.4654  0.3959  0.2183
 3178TIP3    H131093   2.533   5.809   3.594 -1.4074 -0.2280 -0.3286
 3178TIP3    H231094   2.508   5.926   3.688  0.5345  0.1391 -0.2411
 3179TIP3   OH231095   1.640   0.874   0.404 -0.4730 -0.3709 -0.5391
 3179TIP3    H131096   1.566   0.920   0.443  0.0364  0.3690 -0.4253
 3179TIP3    H231097   1.672   0.932   0.335  1.3391  0.3678  0.8184
 3180TIP3   OH231098   4.221   5.928   4.564  0.4501  0.6179  0.7303
 3180TIP3    H131099   4.181   5.859   4.617 -0.3301 -0.1483 -0.8063
 3180TIP3    H231100   4.229   6.002   4.624  0.4450 -0.4918  2.1632
 3181TIP3   OH231101   4.935   4.455   0.740  0.1001  0.2199 -0.3553
 3181TIP3    H131102   4.842   4.437   0.727  0.3423  0.1511 -2.3481
 3181TIP3    H231103   4.978   4.370   0.733  0.3693  0.3185  0.0284
 3182TIP3   OH231104   2.356   3.052   0.627  0.2437 -0.1984 -0.0907
 3182TIP3    H131105   2.409   3.079   0.702 -0.8679  0.9224  0.3453
 3182TIP3    H231106   2.416   3.003   0.571  0.6688 -2.8016  2.4151
 3183TIP3   OH231107   5.527   6.110   1.458 -0.1295 -0.1436 -0.5951
 3183TIP3    H131108   5.484   6.123   1.373  2.3231 -0.6180 -2.0106
 3183TIP3    H231109   5.483   6.171   1.517 -0.5975  1.6771 -2.6875
 3184TIP3   OH231110   6.294   6.371   4.223  0.6078  0.5730  0.9538
 3184TIP3    H131111   6.255   6.304   4.280  1.0836 -1.1129 -0.6203
 3184TIP3    H231112   6.221   6.430   4.203 -0.4104 -0.7881  0.5225
 3185TIP3   OH231113   4.975   0.181   1.871 -0.2748  0.0739  0.4669
 3185TIP3    H131114   4.917   0.141   1.807 -0.9196 -0.1374  1.1754
 3185TIP3    H231115   5.063   0.173   1.833 -0.8625  2.2974 -1.6247
 3186TIP3   OH231116   5.854   4.007   1.285  0.2711  0.7099  0.5170
 3186TIP3    H131117   5.842   4.049   1.370  0.7472  1.0671  0.4081
 3186TIP3    H231118   5.947   4.017   1.265  0.4000 -0.4219  0.4980
 3187TIP3   OH231119   5.647   1.830   2.650  0.9209 -0.5934  0.0877
 3187TIP3    H131120   5.741   1.822   2.667  1.8706  2.1329 -2.7538
 3187TIP3    H231121   5.638   1.916   2.610 -3.1322 -0.0076  1.7793
 3188TIP3   OH231122   0.988   6.248   4.090  0.1681 -0.3130  0.3779
 3188TIP3    H131123   1.071   6.265   4.134  1.2687  2.1758 -2.3363
 3188TIP3    H231124   1.012   6.223   4.001 -1.9793 -0.0813 -0.3337
 3189TIP3   OH231125   2.517   0.246   8.406 -0.3925  0.2741  0.2184
 3189TIP3    H131126   2.468   0.166   8.386 -0.1002  0.1900 -0.1821
 3189TIP3    H231127   2.463   0.292   8.470  0.4874 -1.3497  2.2815
 3190TIP3   OH231128   2.232   0.338   0.930 -0.2870 -0.3099  0.4409
 3190TIP3    H131129   2.224   0.257   0.981 -1.0535 -0.4833  0.0629
 3190TIP3    H231130   2.296   0.390   0.978 -0.7161 -0.6231  1.3837
 3191TIP3   OH231131   2.530   0.351   2.286 -0.8387 -0.2283  0.5374
 3191TIP3    H131132   2.489   0.363   2.200 -2.2994 -1.6254  0.9835
 3191TIP3    H231133   2.624   0.361   2.269 -1.1092 -0.2477 -1.1723
 3192TIP3   OH231134   2.457   1.711   2.845 -0.5353 -0.1912  0.3271
 3192TIP3    H131135   2.409   1.771   2.903  0.8816 -0.2244  1.5852
 3192TIP3    H231136   2.546   1.711   2.879 -0.3115 -2.4214 -0.1300
 3193TIP3   OH231137   4.641   3.958   1.301 -0.0286 -0.6195 -0.0855
 3193TIP3    H131138   4.712   3.912   1.346  0.3999  0.4696  0.3904
 3193TIP3    H231139   4.642   3.923   1.212  2.1044  0.4396 -0.5317
 3194TIP3   OH231140   3.676   1.736   4.494 -0.2501 -0.3660  0.3760
 3194TIP3    H131141   3.639   1.791   4.424 -0.2804 -1.2826 -0.3491
 3194TIP3    H231142   3.761   1.708   4.460  0.0390 -0.2631  1.0061
 3195TIP3   OH231143   4.664   4.276   1.547 -0.4326 -0.0756 -0.1187
 3195TIP3    H131144   4.598   4.249   1.610 -0.1863  1.3138  0.7913
 3195TIP3    H231145   4.739   4.219   1.565 -0.2270  0.5492  1.1606
 3196TIP3   OH231146   3.245   0.643   0.995  0.1809  0.4217  0.3096
 3196TIP3    H131147   3.243   0.677   1.084  2.8635  0.4191  0.4458
 3196TIP3    H231148   3.188   0.701   0.945 -1.4565  0.3452  2.0186
 3197TIP3   OH231149   1.821   0.492   3.893  0.0524 -0.0645  0.1703
 3197TIP3    H131150   1.892   0.511   3.955 -0.6382 -0.3577  1.0745
 3197TIP3    H231151   1.862   0.435   3.827  0.5356 -0.6919  0.9826
 3198TIP3   OH231152   2.304   2.355   2.564 -0.2340  0.0219  0.3580
 3198TIP3    H131153   2.356   2.429   2.531  0.5926 -1.3028 -1.4897
 3198TIP3    H231154   2.224   2.357   2.512 -0.1075 -0.5100  0.1374
 3199TIP3   OH231155   2.197   2.264   8.800  0.1074  0.2437  0.1407
 3199TIP3    H131156   2.286   2.301   8.803 -0.0937  0.6783  1.6007
 3199TIP3    H231157   2.141   2.340   8.783 -0.2029  0.4717  1.9804
 3200TIP3   OH231158   4.517   0.518   2.538 -0.5197 -0.1310 -0.3404
 3200TIP3    H131159   4.560   0.549   2.458  1.0162 -0.8918  0.1443
 3200TIP3    H231160   4.513   0.596   2.595  1.7251 -0.3260  0.2050
 3201TIP3   OH231161   2.935   4.342   3.482 -0.4379 -0.6426 -0.6849
 3201TIP3    H131162   2.932   4.358   3.387  0.5582  3.7005 -0.2227
 3201TIP3    H231163   3.027   4.356   3.505 -0.8777 -0.4752  1.0714
 3202TIP3   OH231164   4.459   3.599   2.869 -0.0696 -0.0007  0.4837
 3202TIP3    H131165   4.532   3.568   2.922  0.0955  2.0840  1.5646
 3202TIP3    H231166   4.406   3.652   2.928 -0.9823  0.7715 -0.9540
 3203TIP3   OH231167   6.251   5.846   2.013 -0.4352 -0.1728  0.3224
 3203TIP3    H131168   6.278   5.931   1.977 -1.5303  0.3521  0.6939
 3203TIP3    H231169   6.205   5.868   2.094  0.2432 -1.2026  1.0080
 3204TIP3   OH231170   3.986   0.258   0.329 -0.6264 -0.0327  0.2753
 3204TIP3    H131171   4.058   0.236   0.270 -0.4178  0.3805  0.3678
 3204TIP3    H231172   3.972   0.179   0.382 -0.2876 -0.1377  0.2078
 3205TIP3   OH231173   4.275   2.230   0.910  0.2680  0.1547 -0.2713
 3205TIP3    H131174   4.231   2.272   0.984 -0.4600  2.4451 -1.8663
 3205TIP3    H231175   4.231   2.146   0.900  0.3044 -0.1692  1.7728
 3206TIP3   OH231176   6.643   0.953   2.603  0.0943  0.3403  0.2766
 3206TIP3    H131177   6.611   0.909   2.524  1.9358 -0.3774 -0.1182
 3206TIP3    H231178   6.678   0.883   2.657  1.3499  1.1063  0.4925
 3207TIP3   OH231179   6.669   2.114   1.167  0.1451  0.4170 -0.6990
 3207TIP3    H131180   6.693   2.034   1.215  2.5463  0.9914 -0.7946
 3207TIP3    H231181   6.727   2.114   1.091  0.0204  2.0969 -0.8365
 3208TIP3   OH231182   6.762   2.838   8.524  0.2763 -0.1246 -0.0175
 3208TIP3    H131183   6.710   2.839   8.604  0.7573  1.6010  0.3070
 3208TIP3    H231184   6.835   2.779   8.543  0.8484  0.9133  1.1413
 3209TIP3   OH231185   2.445   4.040   2.476  0.3928 -0.3391  0.1899
 3209TIP3    H131186   2.379   4.104   2.502  0.8512  0.7501 -1.1897
 3209TIP3    H231187   2.462   3.989   2.555 -1.3360  0.0173  0.8333
 3210TIP3   OH231188   3.346   5.857   1.267  0.0600  0.5095 -0.4373
 3210TIP3    H131189   3.408   5.786   1.281 -1.0158 -0.3082  0.3664
 3210TIP3    H231190   3.400   5.936   1.262  1.0603  0.0768  2.1415
 3211TIP3   OH231191   6.770   4.968   3.622 -0.0189  0.0630  0.3724
 3211TIP3    H131192   6.729   4.966   3.536 -0.1646 -0.2486  0.4471
 3211TIP3    H231193   6.788   5.060   3.638 -0.4713  0.1791  0.2345
 3212TIP3   OH231194   5.622   6.099   3.897  0.0499 -0.0520 -0.1848
 3212TIP3    H131195   5.582   6.033   3.954  2.3991 -0.9778  0.5361
 3212TIP3    H231196   5.693   6.136   3.950 -1.9448  4.1356 -0.0337
 3213TIP3   OH231197   3.888   2.387   2.979  0.0765  0.8300  0.3493
 3213TIP3    H131198   3.887   2.482   2.986 -0.3644  0.8776 -0.3068
 3213TIP3    H231199   3.815   2.358   3.034  0.3209  0.8570  0.6908
 3214TIP3   OH231200   4.781   4.233   3.643 -0.0494 -0.2047 -0.1352
 3214TIP3    H131201   4.769   4.327   3.658 -1.2808 -0.0643 -1.7242
 3214TIP3    H231202   4.754   4.220   3.552  0.2013 -2.0901  0.0282
 3215TIP3   OH231203   6.220   3.447   3.662  0.6427 -0.1202  0.0381
 3215TIP3    H131204   6.296   3.436   3.604 -0.9235 -1.0077 -1.9890
 3215TIP3    H231205   6.187   3.358   3.674 -0.9598  0.3943 -0.4041
 3216TIP3   OH231206   2.281   2.466   4.713  0.0327  0.1008  0.5273
 3216TIP3    H131207   2.251   2.556   4.700  0.7269  0.9896  4.1627
 3216TIP3    H231208   2.212   2.425   4.766  0.8848 -0.7560  1.0056
 3217TIP3   OH231209   2.667   5.392   0.552 -0.6029 -0.6207  0.0243
 3217TIP3    H131210   2.724   5.467   0.536 -0.6923 -0.8105 -1.2805
 3217TIP3    H231211   2.727   5.318   0.564 -0.5133 -0.3432  1.3696
 3218TIP3   OH231212   1.554   1.005   4.438  0.7409 -0.0768  0.0115
 3218TIP3    H131213   1.631   1.013   4.494 -0.4825  1.7602  1.5821
 3218TIP3    H231214   1.492   1.068   4.474 -0.8223 -0.1448 -2.3409
 3219TIP3   OH231215   6.030   4.555   3.335  0.0987 -0.2384 -0.0486
 3219TIP3    H131216   6.046   4.479   3.279 -1.0851 -1.0234  0.6414
 3219TIP3    H231217   6.112   4.566   3.383  0.6450 -0.4114 -0.9159
 3220TIP3   OH231218   1.013   0.695   1.165  0.8540  0.1499  0.1431
 3220TIP3    H131219   1.004   0.787   1.188  1.1181  0.3179 -0.4102
 3220TIP3    H231220   0.924   0.665   1.152  0.7431  0.2305  0.6748
 3221TIP3   OH231221   0.254   1.541   3.624 -0.3950 -0.3535  0.4791
 3221TIP3    H131222   0.338   1.520   3.664 -0.0726  0.7306  0.4093
 3221TIP3    H231223   0.242   1.635   3.641 -1.6905 -0.5237  0.6688
 3222TIP3   OH231224   2.607   5.330   0.845 -0.3710  0.3786 -0.0950
 3222TIP3    H131225   2.621   5.397   0.779  1.5390  0.4092  0.2949
 3222TIP3    H231226   2.688   5.280   0.847 -2.1251 -2.8610 -1.3257
 3223TIP3   OH231227   6.293   4.610   2.759 -0.7753 -0.4580  0.2828
 3223TIP3    H131228   6.213   4.578   2.801  0.2085 -1.7938  1.2517
 3223TIP3    H231229   6.335   4.665   2.826 -1.8729  2.0493 -0.9697
 3224TIP3   OH231230   3.614   6.321   3.904 -0.2570 -0.4180  0.3076
 3224TIP3    H131231   3.532   6.293   3.946 -0.2419 -1.0690 -0.0717
 3224TIP3    H231232   3.624   6.413   3.927 -1.8468  0.0751 -0.8128
 3225TIP3   OH231233   4.919   3.338   2.538  0.4058 -0.2593 -0.1195
 3225TIP3    H131234   5.002   3.303   2.570 -0.0228 -0.2826  0.9958
 3225TIP3    H231235   4.900   3.412   2.596  1.5935  2.3286 -2.7778
 3226TIP3   OH231236   1.984   5.922   2.967 -0.3508  0.3531  0.4170
 3226TIP3    H131237   1.973   6.010   2.931  1.7493  0.7766  0.6443
 3226TIP3    H231238   1.941   5.926   3.053  1.0682  1.6991  1.1211
 3227TIP3   OH231239   2.743   1.592   2.197 -0.5810 -0.3908  0.0229
 3227TIP3    H131240   2.831   1.591   2.236  0.4565 -1.3327 -2.1566
 3227TIP3    H231241   2.690   1.642   2.258  1.3895 -0.0911  1.5919
 3228TIP3   OH231242   2.619   0.525   1.907  0.1972 -0.2480 -0.7306
 3228TIP3    H131243   2.695   0.493   1.956 -0.8507 -0.4549  0.8187
 3228TIP3    H231244   2.549   0.528   1.972 -1.1420 -0.1295 -2.1522
 3229TIP3   OH231245   5.867   4.677   1.232 -0.0000  0.0369  0.5797
 3229TIP3    H131246   5.794   4.699   1.175 -1.0676  1.3746  2.3488
 3229TIP3    H231247   5.931   4.636   1.175 -1.9270 -0.7562 -1.1264
 3230TIP3   OH231248   2.359   1.149   1.727  0.0462  0.2069  0.8198
 3230TIP3    H131249   2.371   1.058   1.754  2.7094  0.3953  0.5728
 3230TIP3    H231250   2.401   1.154   1.641 -0.7405  1.5082  0.4854
 3231TIP3   OH231251   2.959   1.277   1.239 -0.1669 -0.2397  0.1681
 3231TIP3    H131252   2.958   1.366   1.204 -0.5828 -0.7420 -1.1456
 3231TIP3    H231253   3.052   1.254   1.242  0.0751  0.7407  1.9390
 3232TIP3   OH231254   2.470   4.663   0.744  0.0670  0.4531  0.0714
 3232TIP3    H131255   2.502   4.667   0.834 -0.0205  0.1596  0.1164
 3232TIP3    H231256   2.544   4.629   0.694 -0.4689 -1.1668  0.3296
 3233TIP3   OH231257   4.845   2.568   2.806  0.0757 -0.5627 -0.4838
 3233TIP3    H131258   4.842   2.474   2.826 -0.6924  0.0848  2.9747
 3233TIP3    H231259   4.917   2.602   2.858 -1.5268  1.1845  0.7353
 3234TIP3   OH231260   2.798   1.003   4.779  0.1633  0.3333 -0.2443
 3234TIP3    H131261   2.756   0.954   4.849  0.1066  0.6297 -0.0716
 3234TIP3    H231262   2.860   1.061   4.823  1.2940 -0.6126 -0.5385
 3235TIP3   OH231263   4.438   4.671   2.233  0.2737 -0.1735  0.5365
 3235TIP3    H131264   4.349   4.685   2.265  0.0104 -2.4591  0.9059
 3235TIP3    H231265   4.494   4.712   2.299 -0.4564  2.8618 -0.5531
 3236TIP3   OH231266   5.280   5.043   2.230  0.0436 -0.0662 -0.2791
 3236TIP3    H131267   5.367   5.077   2.249 -0.2870  1.4735 -1.3790
 3236TIP3    H231268   5.254   5.086   2.148 -0.9642 -1.9762 -1.0370
 3237TIP3   OH231269   3.414   2.699   3.480  0.1141 -0.0117  0.1495
 3237TIP3    H131270   3.332   2.732   3.443 -0.3888 -1.8639 -0.4955
 3237TIP3    H231271   3.483   2.744   3.431 -0.4149  2.8952  1.8744
 3238TIP3   OH231272   1.129   0.669   3.742  0.3632 -0.5292  0.1515
 3238TIP3    H131273   1.205   0.619   3.711  0.1113 -1.3039  0.7308
 3238TIP3    H231274   1.054   0.626   3.700  0.3019  1.1023 -1.5428
 3239TIP3   OH231275   4.365   6.227   3.808 -0.1872 -0.4175  0.1262
 3239TIP3    H131276   4.341   6.211   3.717 -3.5144  1.4920  0.5151
 3239TIP3    H231277   4.331   6.151   3.855  1.5502 -1.4140 -0.1382
 3240TIP3   OH231278   3.551   4.609   3.157 -0.6465  0.1478  0.2035
 3240TIP3    H131279   3.473   4.663   3.167  0.0076  1.1478  0.0059
 3240TIP3    H231280   3.575   4.618   3.065 -1.2103 -1.4545 -0.1311
 3241TIP3   OH231281   6.374   6.218   2.799  0.6061 -0.0707  0.0129
 3241TIP3    H131282   6.372   6.123   2.792 -0.5275  0.0712 -2.1033
 3241TIP3    H231283   6.430   6.247   2.727  0.4499  0.8936  0.2590
 3242TIP3   OH231284   3.520   6.428   2.965 -0.4927  0.3234 -0.1286
 3242TIP3    H131285   3.601   6.438   3.015 -0.0006  1.6032 -1.0888
 3242TIP3    H231286   3.466   6.368   3.016  0.3095  0.9180  1.4870
 3243TIP3   OH231287   1.920   4.051   0.040  0.2524 -0.2165 -0.1194
 3243TIP3    H131288   1.984   4.119   0.059 -0.8947  1.7154 -2.5263
 3243TIP3    H231289   1.961   3.997  -0.027  0.3455 -0.5641  0.2185
 3244TIP3   OH231290   0.643   2.176   1.701  0.4155  0.4520  0.3407
 3244TIP3    H131291   0.562   2.216   1.669 -0.0908  1.4607  2.6933
 3244TIP3    H231292   0.625   2.082   1.699  0.3734  0.4519 -2.0512
 3245TIP3   OH231293   6.019   1.529   1.695 -0.2484 -0.0768  0.2171
 3245TIP3    H131294   6.096   1.529   1.639 -0.6986 -2.5466 -0.5425
 3245TIP3    H231295   6.054   1.523   1.784  0.4656 -0.3626 -0.0718
 3246TIP3   OH231296   5.842   4.473   0.968 -0.1607 -0.0625 -0.4655
 3246TIP3    H131297   5.904   4.531   0.923  0.0570  0.6389  0.7165
 3246TIP3    H231298   5.892   4.438   1.042 -1.0909  0.2976  0.3492
 3247TIP3   OH231299   4.325   2.328   1.983 -0.0799 -0.1209 -0.6099
 3247TIP3    H131300   4.386   2.369   2.045  0.7431 -1.1450 -0.7001
 3247TIP3    H231301   4.282   2.401   1.939  0.5041  0.6273  0.0341
 3248TIP3   OH231302   6.549   6.715   1.668  0.6152 -0.1962 -0.8386
 3248TIP3    H131303   6.466   6.751   1.700  1.3267  0.8661 -0.0989
 3248TIP3    H231304   6.524   6.640   1.614 -0.7941 -0.1914 -0.2335
 3249TIP3   OH231305   2.622   6.403   0.955  0.0401  0.4138 -0.2390
 3249TIP3    H131306   2.638   6.314   0.925  0.3136  0.7032 -0.9817
 3249TIP3    H231307   2.709   6.440   0.969 -0.0629  0.6508 -0.2099
 3250TIP3   OH231308   6.308   3.882   0.058 -0.3185  0.0915  0.1441
 3250TIP3    H131309   6.364   3.940   0.005 -0.1098  1.1348  1.4285
 3250TIP3    H231310   6.222   3.888   0.018  0.0902 -0.0666 -0.7669
 3251TIP3   OH231311   2.333   1.592   0.276 -0.5170 -0.2644 -0.3847
 3251TIP3    H131312   2.403   1.613   0.214 -0.8329  2.8182  0.1521
 3251TIP3    H231313   2.261   1.561   0.221  0.8090 -2.3861 -1.0360
 3252TIP3   OH231314   1.992   5.685   0.807  0.3539 -0.5482  0.4557
 3252TIP3    H131315   1.967   5.777   0.794  2.7091  0.3765  1.7414
 3252TIP3    H231316   2.061   5.670   0.742 -0.3953 -1.6113 -0.1132
 3253TIP3   OH231317   2.555   2.327   0.722 -0.1184 -0.8958  0.2845
 3253TIP3    H131318   2.477   2.307   0.772 -0.3036 -1.9163 -0.3890
 3253TIP3    H231319   2.621   2.349   0.788 -1.5387  2.3375  0.8166
 3254TIP3   OH231320   5.798   6.601   2.180 -0.0992  0.3531 -0.2217
 3254TIP3    H131321   5.859   6.632   2.247 -0.5819 -0.4448  0.6162
 3254TIP3    H231322   5.718   6.582   2.228 -0.5757  0.1217 -1.0934
 3255TIP3   OH231323   1.649   4.848   3.707 -0.0796 -0.7669  0.0410
 3255TIP3    H131324   1.650   4.873   3.615  1.0348 -0.9156 -0.0054
 3255TIP3    H231325   1.635   4.930   3.754  1.3792 -0.3630 -0.1918
 3256TIP3   OH231326   4.447   3.942   1.498  0.2398  0.5189  0.0612
 3256TIP3    H131327   4.497   3.950   1.417 -0.3252  0.6650 -0.2766
 3256TIP3    H231328   4.513   3.926   1.565  0.6485 -0.4471 -0.5462
 3257TIP3   OH231329   0.641   2.555   1.676  0.2850  0.3919  0.0054
 3257TIP3    H131330   0.724   2.528   1.635  0.4365 -0.9496  1.1047
 3257TIP3    H231331   0.663   2.635   1.723  0.7258  0.5732 -0.4950
 3258TIP3   OH231332   4.524   3.597   4.263 -0.0862 -0.5949  0.0398
 3258TIP3    H131333   4.600   3.634   4.216  1.0622 -1.1616  1.3731
 3258TIP3    H231334   4.554   3.511   4.293 -1.4096 -0.9968  0.2473
 3259TIP3   OH231335   5.939   0.319   3.704 -0.1256  0.9060  0.4998
 3259TIP3    H131336   5.880   0.335   3.630  1.3880  0.2426 -0.8988
 3259TIP3    H231337   5.972   0.231   3.689  1.5605  1.4278  1.0109
 3260TIP3   OH231338   2.618   3.228   4.472  0.3071 -0.0280 -0.2116
 3260TIP3    H131339   2.582   3.257   4.388  1.5563  1.5592 -0.2479
 3260TIP3    H231340   2.582   3.289   4.536  1.8933  0.8581 -0.0910
 3261TIP3   OH231341   6.114   0.324   0.044 -0.1401  0.0957  0.4952
 3261TIP3    H131342   6.028   0.364   0.048 -0.0863  0.2323  0.2858
 3261TIP3    H231343   6.160   0.371  -0.026  0.4000  0.5900  1.1726
 3262TIP3   OH231344   6.448   2.656   3.713 -0.3501  1.0756  0.6811
 3262TIP3    H131345   6.392   2.729   3.741 -0.7060  1.1166 -0.0930
 3262TIP3    H231346   6.488   2.687   3.632 -1.8830 -0.2184 -0.6507
 3263TIP3   OH231347   0.242   0.323   8.854  0.2162 -0.2810 -0.0772
 3263TIP3    H131348   0.328   0.355   8.881  0.4518  0.2468 -1.3524
 3263TIP3    H231349   0.197   0.402   8.822  0.1693 -0.9330 -1.6822
 3264TIP3   OH231350   1.847   6.403   2.448  0.4518 -0.4366 -0.1939
 3264TIP3    H131351   1.807   6.323   2.481 -0.6353 -0.8869 -2.4256
 3264TIP3    H231352   1.778   6.446   2.398  1.1196  1.7489  0.6196
 3265TIP3   OH231353   3.259   2.204   1.400  0.0989  0.1176  0.2115
 3265TIP3    H131354   3.347   2.197   1.363 -0.2990 -0.4844 -0.6584
 3265TIP3    H231355   3.271   2.251   1.482  1.2158  0.1515  0.0422
 3266TIP3   OH231356   2.405   1.901   4.158 -0.1983  0.6019  0.1500
 3266TIP3    H131357   2.356   1.839   4.212  0.8925 -1.6751 -1.3380
 3266TIP3    H231358   2.493   1.902   4.195 -0.2912  1.5575  0.3691
 3267TIP3   OH231359   2.160   0.629   4.169 -0.4180  0.2687 -0.4052
 3267TIP3    H131360   2.176   0.711   4.121 -2.7300  1.0485  0.0205
 3267TIP3    H231361   2.144   0.564   4.101  2.9350 -0.2948 -0.8093
 3268TIP3   OH231362   3.782   0.642   3.954  0.7097 -0.7833  0.3893
 3268TIP3    H131363   3.800   0.565   4.007  1.4863 -1.7102 -1.1282
 3268TIP3    H231364   3.802   0.614   3.864 -0.5739  0.6887 -0.4093
 3269TIP3   OH231365   4.616   2.833   1.263  0.1721 -0.0167  0.1822
 3269TIP3    H131366   4.631   2.927   1.248  1.8707 -0.5259 -1.7225
 3269TIP3    H231367   4.552   2.808   1.198 -2.9175  0.3841  2.8328
 3270TIP3   OH231368   0.482   3.048   0.343 -0.0156 -0.5588  0.7700
 3270TIP3    H131369   0.570   3.083   0.331 -0.7794  0.8630 -1.4196
 3270TIP3    H231370   0.444   3.050   0.255 -2.3122 -0.9162  1.6916
 3271TIP3   OH231371   4.590   5.767   1.725  0.2277  0.0745  0.0736
 3271TIP3    H131372   4.553   5.815   1.651 -0.3948 -2.0037 -1.0463
 3271TIP3    H231373   4.685   5.772   1.713  0.1717  0.8640 -0.0887
 3272TIP3   OH231374   1.157   1.404   2.633 -0.2350  0.1719  0.1680
 3272TIP3    H131375   1.183   1.312   2.643  0.3764  0.4883  1.6038
 3272TIP3    H231376   1.229   1.454   2.671  0.3597  1.3675 -2.2983
 3273TIP3   OH231377   5.150   5.601   1.827  0.3723 -0.0031 -0.1172
 3273TIP3    H131378   5.067   5.554   1.836 -0.2010  0.5876 -1.9384
 3273TIP3    H231379   5.131   5.689   1.861  0.4043 -0.0031 -0.0980
 3274TIP3   OH231380   4.794   1.673   4.491  0.1358  0.3431  0.2822
 3274TIP3    H131381   4.781   1.757   4.537  0.9610  0.2408  0.7167
 3274TIP3    H231382   4.801   1.608   4.561 -1.5094 -0.2691 -0.0659
 3275TIP3   OH231383   5.690   4.874   2.051  0.6660 -0.2029 -0.0569
 3275TIP3    H131384   5.657   4.832   2.131  0.0947  1.1003  0.4084
 3275TIP3    H231385   5.612   4.885   1.996  0.7364  0.6389  0.0104
 3276TIP3   OH231386   1.364   1.759   3.213 -0.1929  1.1878 -0.1810
 3276TIP3    H131387   1.453   1.730   3.233 -0.0444  1.1721 -0.8587
 3276TIP3    H231388   1.318   1.680   3.186 -0.0871  1.3919 -0.9718
 3277TIP3   OH231389   2.253   5.395   3.943 -0.1450  0.0798  0.3007
 3277TIP3    H131390   2.326   5.374   4.002  0.3517 -0.1835 -0.3848
 3277TIP3    H231391   2.280   5.477   3.901 -0.4622  0.2247  0.3790
 3278TIP3   OH231392   3.822   5.173   3.901 -0.1473 -0.5588 -0.3038
 3278TIP3    H131393   3.739   5.215   3.880 -0.5569  0.1420  2.3592
 3278TIP3    H231394   3.807   5.080   3.880 -0.8371 -0.1451 -1.8086
 3279TIP3   OH231395   2.406   0.962   0.770 -0.6750 -0.0299 -0.0856
 3279TIP3    H131396   2.314   0.960   0.745 -0.3834 -0.5373 -1.1806
 3279TIP3    H231397   2.443   1.033   0.717 -0.5291  0.5064  0.7192
 3280TIP3   OH231398   0.360   5.719   2.870 -0.8920 -0.1398  1.0343
 3280TIP3    H131399   0.317   5.641   2.905 -2.1687  0.8333  1.7209
 3280TIP3    H231400   0.427   5.740   2.935 -0.0810 -0.9993  0.5219
 3281TIP3   OH231401   6.610   5.916   1.609  0.7647  0.1024  0.8011
 3281TIP3    H131402   6.533   5.860   1.600 -0.3307  1.6836 -0.2588
 3281TIP3    H231403   6.681   5.864   1.572 -0.2565 -0.5253 -0.3834
 3282TIP3   OH231404   2.998   6.388   2.161 -0.3780 -0.4155 -0.2995
 3282TIP3    H131405   3.058   6.317   2.183 -0.5706 -0.4971 -0.0299
 3282TIP3    H231406   3.055   6.457   2.127 -0.1426 -0.5361 -0.1596
 3283TIP3   OH231407   3.968   2.080   4.536  0.1743  0.3159 -0.1022
 3283TIP3    H131408   3.882   2.044   4.560  1.2045 -1.5137  1.0456
 3283TIP3    H231409   3.968   2.167   4.575 -0.7226 -0.1169  0.9331
 3284TIP3   OH231410   5.129   2.515   2.561  0.1453  0.0937  0.8336
 3284TIP3    H131411   5.125   2.608   2.541 -3.5432  0.0568  0.8486
 3284TIP3    H231412   5.136   2.511   2.657  1.0533  0.3028  0.7869
 3285TIP3   OH231413   0.762   3.151   1.019  0.5110 -0.1038 -0.6601
 3285TIP3    H131414   0.670   3.170   1.003  0.7450  1.1115 -0.6166
 3285TIP3    H231415   0.761   3.075   1.078 -0.4820  0.4606  0.0753
 3286TIP3   OH231416   4.389   2.505   2.803  0.4785 -0.1893  0.4080
 3286TIP3    H131417   4.388   2.426   2.751  2.7150 -0.0621  0.0891
 3286TIP3    H231418   4.305   2.505   2.848 -0.3474 -1.7363 -1.0334
 3287TIP3   OH231419   1.877   5.675   2.287 -0.7165  0.0518  0.4201
 3287TIP3    H131420   1.793   5.690   2.332 -0.6670  0.4396  0.3828
 3287TIP3    H231421   1.865   5.590   2.244 -2.1072  1.2897 -1.8515
 3288TIP3   OH231422   3.658   0.340   1.462 -0.0946  0.6433 -0.2607
 3288TIP3    H131423   3.617   0.264   1.504 -0.6604  1.1988  0.2307
 3288TIP3    H231424   3.746   0.343   1.499  0.3969 -0.5552 -1.3123
 3289TIP3   OH231425   6.240   4.494   1.273 -0.0478  0.3127  0.1576
 3289TIP3    H131426   6.261   4.568   1.331 -1.4057 -0.1599  1.3237
 3289TIP3    H231427   6.207   4.427   1.332 -3.0053  0.3569 -1.2753
 3290TIP3   OH231428   2.903   6.383   3.848 -0.4113  0.2040 -0.0800
 3290TIP3    H131429   2.984   6.434   3.853 -1.3427  1.6245  1.9481
 3290TIP3    H231430   2.899   6.338   3.933 -1.5798 -0.0977 -0.2845
 3291TIP3   OH231431   4.586   4.698   0.327 -0.4611  0.1042 -0.1373
 3291TIP3    H131432   4.578   4.793   0.341  0.3503 -0.0472  1.6245
 3291TIP3    H231433   4.679   4.685   0.309 -0.9783 -0.0927 -3.1953
 3292TIP3   OH231434   1.192   6.098   4.438  0.1656  0.5768 -0.1130
 3292TIP3    H131435   1.133   6.022   4.443  1.2892 -0.4019 -0.9609
 3292TIP3    H231436   1.267   6.073   4.492  1.2449  0.3899 -1.6386
 3293TIP3   OH231437   1.425   0.294   4.076  0.3569  0.6965  0.2605
 3293TIP3    H131438   1.405   0.215   4.126  1.7378  0.1282 -0.0374
 3293TIP3    H231439   1.358   0.297   4.007 -0.7610  0.7718  1.3047
 3294TIP3   OH231440   4.326   0.071   3.446  0.5024  0.5260 -0.4097
 3294TIP3    H131441   4.292   0.160   3.435 -0.2897  0.0947 -1.8003
 3294TIP3    H231442   4.263   0.016   3.398  1.2108 -0.7298  0.0590
 3295TIP3   OH231443   0.201   5.269   3.429 -0.1159 -0.9019 -0.0585
 3295TIP3    H131444   0.163   5.334   3.370  1.0963 -1.8287 -1.9820
 3295TIP3    H231445   0.254   5.319   3.491 -2.0596  0.1603  0.8157
 3296TIP3   OH231446   5.476   1.797   5.066  0.4610  0.0876  0.1589
 3296TIP3    H131447   5.449   1.788   4.975  1.4551  0.3202 -0.1768
 3296TIP3    H231448   5.534   1.873   5.066  1.8630 -0.9383  0.6322
 3297TIP3   OH231449   2.970   6.478   8.770 -0.9537 -0.5330  0.3502
 3297TIP3    H131450   2.904   6.514   8.711 -0.3438 -1.2406 -0.7935
 3297TIP3    H231451   3.043   6.540   8.764 -1.4773  0.2427  1.6051
 3298TIP3   OH231452   1.261   0.149   3.144 -0.3536  0.2474  0.5905
 3298TIP3    H131453   1.343   0.167   3.098  0.3382  2.6793  2.5722
 3298TIP3    H231454   1.204   0.222   3.121 -1.4799 -0.6518  0.4246
 3299TIP3   OH231455   1.072   6.398   3.648  0.0188  0.6079 -0.7440
 3299TIP3    H131456   1.110   6.401   3.560 -0.3802  0.9327 -0.9118
 3299TIP3    H231457   1.022   6.315   3.649  0.0296  0.6000 -0.8240
 3300TIP3   OH231458   1.770   4.632   3.837 -0.0077 -0.4117 -0.2719
 3300TIP3    H131459   1.827   4.585   3.777 -1.3775 -0.8938 -1.2384
 3300TIP3    H231460   1.747   4.713   3.790  1.6005  0.8710  1.0086
 3301TIP3   OH231461   3.753   5.917   4.036  0.6230  0.3349 -0.5099
 3301TIP3    H131462   3.704   5.997   4.057 -0.0952 -0.0140 -0.8050
 3301TIP3    H231463   3.686   5.856   4.004  0.9231 -0.8849  1.0477
 3302TIP3   OH231464   4.146   6.123   1.013  0.0711  0.0205 -0.2775
 3302TIP3    H131465   4.095   6.151   0.937 -0.4326  0.3138  0.1672
 3302TIP3    H231466   4.099   6.047   1.047  2.0357 -2.2006 -2.1616
 3303TIP3   OH231467   2.586   2.151   2.251  0.1717 -0.8966 -0.7042
 3303TIP3    H131468   2.532   2.085   2.208  2.1525 -1.8155 -1.8943
 3303TIP3    H231469   2.659   2.166   2.191  2.0721 -0.8477  1.4701
 3304TIP3   OH231470   0.052   0.753   0.076  0.5877  0.4592 -0.0135
 3304TIP3    H131471  -0.032   0.725   0.111  0.8398  0.6100  0.7212
 3304TIP3    H231472   0.048   0.849   0.077  1.7317  0.5620  2.5014
 3305TIP3   OH231473   1.212   3.962   3.564  0.4672  0.8793 -0.3720
 3305TIP3    H131474   1.233   3.921   3.648 -0.3497  2.4975  0.6578
 3305TIP3    H231475   1.293   4.007   3.539  0.1009  2.1088  0.5934
 3306TIP3   OH231476   3.698   5.160   3.144 -0.0963 -0.3825  0.0031
 3306TIP3    H131477   3.696   5.243   3.191  1.0762 -0.9538  1.0971
 3306TIP3    H231478   3.714   5.094   3.211  1.6567 -1.2261 -1.1715
 3307TIP3   OH231479   0.314   5.043   0.482 -0.4936 -0.4253  0.0601
 3307TIP3    H131480   0.310   5.071   0.390  0.2460  0.2214  0.2172
 3307TIP3    H231481   0.261   5.106   0.529 -0.5941 -0.5584  0.1272
 3308TIP3   OH231482   2.748   6.131   1.200  0.1460 -0.1321 -0.0710
 3308TIP3    H131483   2.771   6.131   1.107  0.7831 -1.8881  0.0531
 3308TIP3    H231484   2.685   6.060   1.209 -0.6963  0.6826  0.6908
 3309TIP3   OH231485   4.180   6.531   3.707 -0.7134 -0.0350  0.7296
 3309TIP3    H131486   4.102   6.570   3.745 -0.9198  1.1876 -0.8350
 3309TIP3    H231487   4.148   6.459   3.653 -0.5971 -0.5548  1.3444
 3310TIP3   OH231488   2.315   1.133   2.833  0.0220 -0.0080  0.0224
 3310TIP3    H131489   2.385   1.139   2.768 -0.5810 -0.3080 -0.6738
 3310TIP3    H231490   2.343   1.190   2.905  2.4482 -2.4379  1.1755
 3311TIP3   OH231491   1.967   5.393   2.593  0.0980  0.1910  0.0843
 3311TIP3    H131492   1.873   5.408   2.579  0.1029  1.3007  1.1333
 3311TIP3    H231493   2.005   5.399   2.506 -1.0162 -2.1656 -0.6563
 3312TIP3   OH231494   2.307   5.297   3.154 -0.4205  0.3984 -0.2730
 3312TIP3    H131495   2.402   5.287   3.148 -0.7073 -2.9913 -1.6446
 3312TIP3    H231496   2.286   5.274   3.245  0.0013 -0.3934 -0.3623
 3313TIP3   OH231497   1.869   5.017   4.342  0.0900  0.1400  0.6404
 3313TIP3    H131498   1.904   5.103   4.320  0.9781 -0.2544  0.4630
 3313TIP3    H231499   1.932   4.955   4.304 -0.2983 -0.5777  1.1486
 3314TIP3   OH231500   2.228   6.371   3.481  0.3067  0.5855  0.1499
 3314TIP3    H131501   2.302   6.421   3.514 -0.7359  1.9227  0.5493
 3314TIP3    H231502   2.202   6.416   3.401 -0.7226  0.7664  0.5749
 3315TIP3   OH231503   3.245   4.332   2.013 -0.0634 -0.3589 -0.1835
 3315TIP3    H131504   3.340   4.340   2.004  0.1315 -0.9489  1.2217
 3315TIP3    H231505   3.231   4.244   2.048 -1.0511  0.1227  0.6713
 3316TIP3   OH231506   0.598   3.157   8.626  0.0116  0.3625  0.2056
 3316TIP3    H131507   0.690   3.162   8.650  0.0783 -0.6330  0.2172
 3316TIP3    H231508   0.587   3.067   8.594 -0.8867  0.5631 -0.0711
 3317TIP3   OH231509   2.678   6.434   0.356  0.0512 -0.4666 -0.3036
 3317TIP3    H131510   2.639   6.500   0.298  0.3409 -0.0425 -0.0264
 3317TIP3    H231511   2.764   6.416   0.318  1.4776  1.9225  1.4752
 3318TIP3   OH231512   0.847   6.327   1.269 -0.8581 -0.5125  0.1837
 3318TIP3    H131513   0.905   6.347   1.341  0.3240  0.5270 -1.0065
 3318TIP3    H231514   0.795   6.407   1.257  0.0271 -0.0834 -1.0541
 3319TIP3   OH231515   6.430   1.009   1.176  0.3464 -0.3770  0.0914
 3319TIP3    H131516   6.402   0.918   1.161  0.4945 -0.7820  2.0203
 3319TIP3    H231517   6.360   1.048   1.228  0.1321  0.7373 -0.9970
 3320TIP3   OH231518   2.109   6.451   1.982 -0.2942  0.1721 -0.5064
 3320TIP3    H131519   2.028   6.485   2.021  1.3608  1.1406  2.4495
 3320TIP3    H231520   2.117   6.362   2.017  0.0838  0.2276 -0.4404
 3321TIP3   OH231521   2.200   5.399   8.748 -0.1565 -0.2994  0.3053
 3321TIP3    H131522   2.130   5.335   8.766 -0.0856 -0.9099 -1.3572
 3321TIP3    H231523   2.264   5.385   8.817 -1.0922 -0.6306  1.1218
 3322TIP3   OH231524   2.118   2.653   1.760 -0.2810  0.4033 -0.1965
 3322TIP3    H131525   2.090   2.608   1.839  2.4619 -0.0846  0.5667
 3322TIP3    H231526   2.120   2.746   1.784 -2.7284  0.7120 -0.8086
 3323TIP3   OH231527   4.886   2.927   1.161 -0.1400 -0.7097  0.2039
 3323TIP3    H131528   4.822   2.962   1.223 -1.4391 -1.8136 -0.4634
 3323TIP3    H231529   4.964   2.910   1.214  1.2697  4.5288  0.3651
 3324TIP3   OH231530   3.142   2.186   3.136 -0.0645 -0.1307 -0.4153
 3324TIP3    H131531   3.108   2.097   3.125  2.0746 -1.2955  1.7452
 3324TIP3    H231532   3.096   2.220   3.213  0.5892 -0.1137 -0.0341
 3325TIP3   OH231533   5.739   5.090   4.115 -0.5416 -0.3198  0.9602
 3325TIP3    H131534   5.764   5.021   4.176  0.8714 -0.0972  0.6751
 3325TIP3    H231535   5.725   5.167   4.170  1.4609  0.0762  1.0070
 3326TIP3   OH231536   4.925   6.342   1.480 -0.2888 -0.3831  0.2323
 3326TIP3    H131537   4.950   6.350   1.572  0.9706 -1.4782  0.0140
 3326TIP3    H231538   4.994   6.388   1.432 -0.8425  0.0229 -0.1975
 3327TIP3   OH231539   0.028   3.985   0.676  0.6731  0.0609 -0.1201
 3327TIP3    H131540  -0.053   3.999   0.627  1.1786 -0.3593 -1.1148
 3327TIP3    H231541   0.050   3.894   0.660  1.5449  0.2743 -0.1782
 3328TIP3   OH231542   2.529   2.477   4.580 -0.0875  0.2168  0.3562
 3328TIP3    H131543   2.476   2.467   4.659  1.6617  1.0083  1.6816
 3328TIP3    H231544   2.479   2.538   4.525 -0.9251  0.3297  1.2149
 3329TIP3   OH231545   2.009   0.125   3.241  0.2243  0.1265  0.5509
 3329TIP3    H131546   2.014   0.130   3.146  1.0728 -2.0836  0.3996
 3329TIP3    H231547   2.045   0.208   3.272  0.5705  0.6064 -1.0634
 3330TIP3   OH231548   0.355   2.946   2.587  0.5544  0.7898 -0.2470
 3330TIP3    H131549   0.313   2.978   2.667  0.2619  0.8544 -0.4262
 3330TIP3    H231550   0.364   2.852   2.601  1.0669  0.8905  0.1204
 3331TIP3   OH231551   1.334   3.485   3.764  0.5012  0.0046 -0.1488
 3331TIP3    H131552   1.407   3.425   3.748  2.0018  1.3733  1.1993
 3331TIP3    H231553   1.274   3.435   3.819  0.8650 -0.8412 -0.4995
 3332TIP3   OH231554   4.291   3.715   1.054 -0.6844 -0.3107 -0.2410
 3332TIP3    H131555   4.381   3.685   1.066 -1.3087 -1.4596  1.9962
 3332TIP3    H231556   4.299   3.792   0.997  1.5078 -1.3952 -1.5575
 3333TIP3   OH231557   6.199   0.738   3.001 -0.4567  0.3580 -0.1694
 3333TIP3    H131558   6.226   0.709   2.914 -0.0823  1.7405 -0.5360
 3333TIP3    H231559   6.191   0.833   2.993 -1.8115  0.3723  0.9305
 3334TIP3   OH231560   4.028   5.677   3.547  0.1931 -0.2178  0.4325
 3334TIP3    H131561   4.108   5.730   3.552  0.4939 -0.4395 -1.5442
 3334TIP3    H231562   4.041   5.609   3.613  1.3410  0.1420  0.6077
 3335TIP3   OH231563   5.758   5.251   3.861 -0.2098 -1.0234  0.1551
 3335TIP3    H131564   5.793   5.200   3.934  2.3583 -0.1426 -0.3582
 3335TIP3    H231565   5.713   5.325   3.902 -0.9191 -1.8193  0.8467
 3336TIP3   OH231566   4.041   6.554   3.039  0.3298  0.2235  0.3065
 3336TIP3    H131567   4.047   6.529   3.131 -0.1400  0.0410  0.2901
 3336TIP3    H231568   4.125   6.526   3.001 -0.7431 -2.8272 -0.0692
 3337TIP3   OH231569   3.632   1.029   1.167 -0.1085  0.1014 -0.1711
 3337TIP3    H131570   3.596   1.029   1.078  1.3688 -2.1798 -0.8648
 3337TIP3    H231571   3.605   0.945   1.203  1.2014  0.0266  0.6902
 3338TIP3   OH231572   2.732   1.946   3.844 -0.0032  0.2178 -1.0018
 3338TIP3    H131573   2.824   1.969   3.858  0.3148 -0.7058 -1.5033
 3338TIP3    H231574   2.732   1.892   3.765 -1.0815  0.8533 -1.4588
 3339TIP3   OH231575   3.478   2.412   2.509  0.2752  0.4166 -0.4448
 3339TIP3    H131576   3.537   2.350   2.466 -1.2316 -1.3192 -0.1723
 3339TIP3    H231577   3.391   2.375   2.494 -0.9396  3.5775 -2.0159
 3340TIP3   OH231578   3.232   2.584   0.493  0.6037 -0.2335  0.7945
 3340TIP3    H131579   3.248   2.577   0.587 -0.9603 -0.2287  1.0804
 3340TIP3    H231580   3.172   2.658   0.484  0.2664 -0.6092 -0.1577
 3341TIP3   OH231581   1.733   4.262   1.738 -0.0637  0.5151 -0.1137
 3341TIP3    H131582   1.828   4.257   1.747 -0.1481 -0.6252  0.2556
 3341TIP3    H231583   1.705   4.320   1.810  0.5823  3.3333 -1.9879
 3342TIP3   OH231584   6.125   0.055   0.469 -0.3055 -0.0314 -0.3115
 3342TIP3    H131585   6.121  -0.001   0.391  0.9828  0.3727 -0.6936
 3342TIP3    H231586   6.161  -0.001   0.537 -1.6860 -0.4629  0.0848
 3343TIP3   OH231587   2.351   2.019   4.481 -0.3001 -0.1197 -0.1635
 3343TIP3    H131588   2.435   1.974   4.487  0.1716  0.2701 -2.6949
 3343TIP3    H231589   2.287   1.953   4.506  0.6179 -1.1180 -0.3437
 3344TIP3   OH231590   4.712   4.380   0.446 -0.2327  0.1216 -0.1899
 3344TIP3    H131591   4.735   4.294   0.482 -0.0588  0.9185  1.6973
 3344TIP3    H231592   4.796   4.424   0.433 -0.3542  0.3108 -0.3326
 3345TIP3   OH231593   1.194   4.207   2.785 -0.4852 -0.1827 -0.2266
 3345TIP3    H131594   1.280   4.169   2.767  0.2931  1.9127 -1.2294
 3345TIP3    H231595   1.191   4.287   2.733 -3.6139 -0.8510 -1.3218
 3346TIP3   OH231596   0.607   6.216   3.325 -0.3115 -0.4517  0.6375
 3346TIP3    H131597   0.625   6.144   3.263 -0.6121  1.2037 -1.4985
 3346TIP3    H231598   0.542   6.270   3.280 -1.1379  0.4380  2.7982
 3347TIP3   OH231599   6.089   2.385   3.339 -0.1229  0.4994 -0.0407
 3347TIP3    H131600   6.180   2.369   3.316  0.0323 -0.3113  1.0598
 3347TIP3    H231601   6.039   2.325   3.284  0.1063 -0.0310  0.3245
 3348TIP3   OH231602   5.892   0.259   0.259 -0.3631 -0.0782  0.1134
 3348TIP3    H131603   5.867   0.282   0.169  0.6426 -0.0557 -0.1700
 3348TIP3    H231604   5.930   0.339   0.295 -1.1632  0.0422  0.7201
 3349TIP3   OH231605   3.830   6.131   3.899 -0.5198 -0.5013 -0.4452
 3349TIP3    H131606   3.747   6.178   3.913 -0.5617 -1.0871  1.5637
 3349TIP3    H231607   3.810   6.041   3.922  0.4348 -0.8364 -0.8984
 3350TIP3   OH231608   5.794   1.783   3.247  0.0577 -0.9248 -0.7598
 3350TIP3    H131609   5.772   1.808   3.336  0.0593  1.5299 -1.3689
 3350TIP3    H231610   5.712   1.747   3.211 -0.8100  0.8432 -0.6427
 3351TIP3   OH231611   3.007   4.045   1.925 -0.0342  0.2363 -0.3286
 3351TIP3    H131612   3.101   4.054   1.913 -0.0714  1.5038  0.1035
 3351TIP3    H231613   2.998   3.973   1.987  0.6443  0.0353 -0.4530
 3352TIP3   OH231614   2.166   6.454   3.112 -0.1911  0.0637  0.4472
 3352TIP3    H131615   2.104   6.382   3.098  0.7009 -0.7439  0.4926
 3352TIP3    H231616   2.113   6.525   3.147 -1.2907 -0.1882 -0.6439
 3353TIP3   OH231617   5.651   4.830   8.801 -0.5682  0.3865  0.0005
 3353TIP3    H131618   5.740   4.822   8.836 -0.5646 -0.2262 -0.1332
 3353TIP3    H231619   5.608   4.893   8.859  0.2411  1.4480 -0.5148
 3354TIP3   OH231620   4.149   2.932   3.203  0.5026 -0.2213 -0.1191
 3354TIP3    H131621   4.225   2.965   3.155  0.6841 -0.7482 -0.2013
 3354TIP3    H231622   4.186   2.873   3.269  0.1276 -0.9312 -0.5401
 3355TIP3   OH231623   0.881   3.771   4.043 -0.3857 -0.2153 -0.3879
 3355TIP3    H131624   0.827   3.781   4.122  0.4439  0.9040  0.0566
 3355TIP3    H231625   0.834   3.705   3.991 -1.4915 -0.2225  0.5627
 3356TIP3   OH231626   4.528   4.467   2.916  0.1890 -0.2026 -0.2268
 3356TIP3    H131627   4.558   4.393   2.970  1.0051  0.6628  0.5446
 3356TIP3    H231628   4.608   4.517   2.897 -0.5624  1.4907  0.8412
 3357TIP3   OH231629   3.797   4.398   0.250  0.0633 -0.4109 -0.5917
 3357TIP3    H131630   3.830   4.430   0.334 -0.2218  0.7659 -0.9189
 3357TIP3    H231631   3.727   4.337   0.273  0.9348 -1.2149  0.0437
 3358TIP3   OH231632   3.528   3.694   0.540 -0.1210 -0.3844  0.3120
 3358TIP3    H131633   3.563   3.759   0.479  1.0019 -2.2497 -1.1535
 3358TIP3    H231634   3.444   3.730   0.568 -0.4131  0.8520 -1.9047
 3359TIP3   OH231635   4.257   2.547   1.741 -0.1070 -0.2234 -0.0278
 3359TIP3    H131636   4.165   2.523   1.744 -0.0432 -0.3971  0.9350
 3359TIP3    H231637   4.289   2.509   1.659 -1.0841  0.6186 -0.8282
 3360TIP3   OH231638   2.835   0.646   3.533  0.4798  0.3278  0.0207
 3360TIP3    H131639   2.795   0.620   3.615 -0.8606  2.2742  0.0394
 3360TIP3    H231640   2.784   0.721   3.503  2.1620  0.9163 -1.5928
 3361TIP3   OH231641   3.739   2.775   3.074 -0.4020 -0.0233 -0.3746
 3361TIP3    H131642   3.662   2.779   3.018 -1.3744 -1.1567  0.8292
 3361TIP3    H231643   3.746   2.683   3.100 -1.3334  0.7139  3.1044
 3362TIP3   OH231644   2.129   3.079   1.552 -0.2632  0.3631  0.4077
 3362TIP3    H131645   2.064   3.131   1.506  0.6482 -0.1131 -1.5280
 3362TIP3    H231646   2.207   3.084   1.498  0.3891 -1.5478  1.0669
 3363TIP3   OH231647   2.779   5.102   0.908  0.1163 -0.0825 -0.1172
 3363TIP3    H131648   2.791   5.101   0.813 -3.6581 -0.0847 -0.7311
 3363TIP3    H231649   2.868   5.091   0.943  1.5918 -0.6570 -3.5927
 3364TIP3   OH231650   3.511   4.359   1.987  0.0944 -0.3600 -0.2786
 3364TIP3    H131651   3.499   4.447   1.951  2.4979  0.5519  0.9238
 3364TIP3    H231652   3.559   4.373   2.069  1.9617 -2.8735 -0.8228
 3365TIP3   OH231653   4.573   2.707   0.264  0.0017 -0.1456  0.3170
 3365TIP3    H131654   4.649   2.658   0.297  0.2309 -0.2693 -0.3777
 3365TIP3    H231655   4.610   2.770   0.202 -0.4657 -0.2209 -0.0443
 3366TIP3   OH231656   5.425   5.852   4.005 -0.2216  0.1415  0.4170
 3366TIP3    H131657   5.353   5.844   3.942 -0.3378 -1.6451  0.7107
 3366TIP3    H231658   5.417   5.941   4.039 -0.6060  0.8916 -1.5297
 3367TIP3   OH231659   0.988   3.305   1.489 -0.4994  0.1665 -0.1949
 3367TIP3    H131660   1.080   3.286   1.468 -0.3998  0.1053  0.2915
 3367TIP3    H231661   0.949   3.218   1.503 -0.6763  0.1826 -0.5786
 3368TIP3   OH231662   3.716   5.884   0.885 -0.3815  0.1009  0.2676
 3368TIP3    H131663   3.687   5.903   0.974 -1.1806  1.3424 -0.2371
 3368TIP3    H231664   3.807   5.856   0.895 -0.4699  0.1869  1.4670
 3369TIP3   OH231665   4.856   4.720   0.302 -0.9026  0.5499 -0.6056
 3369TIP3    H131666   4.927   4.657   0.302 -0.7143  0.6974  1.2382
 3369TIP3    H231667   4.898   4.805   0.286 -1.0319  0.3496 -2.1174
 3370TIP3   OH231668   1.222   4.590   0.463 -0.0013  0.1354  0.0445
 3370TIP3    H131669   1.172   4.540   0.399 -0.4191 -1.0433  1.2435
 3370TIP3    H231670   1.196   4.681   0.448 -0.9515 -0.2447 -0.6982
 3371TIP3   OH231671   1.498   0.182   2.118  0.0295 -0.0298  0.5392
 3371TIP3    H131672   1.565   0.243   2.089 -0.1953  0.3023  0.7124
 3371TIP3    H231673   1.440   0.234   2.174 -0.8363 -0.1071 -0.2634
 3372TIP3   OH231674   3.964   6.492   3.296  0.4279 -0.4175  0.4839
 3372TIP3    H131675   3.878   6.485   3.337  0.1332 -3.1800 -0.4057
 3372TIP3    H231676   4.024   6.447   3.355  1.0820  0.5605  0.5869
 3373TIP3   OH231677   6.284   4.855   4.107 -0.0458  0.7664  0.1352
 3373TIP3    H131678   6.297   4.825   4.197  0.9440  1.0410  0.1026
 3373TIP3    H231679   6.370   4.888   4.081 -0.5667  1.5985 -0.5740
 3374TIP3   OH231680   1.645   6.518   2.296  0.1129 -0.2438  0.2845
 3374TIP3    H131681   1.631   6.558   2.382  1.6010  1.0741 -0.0297
 3374TIP3    H231682   1.562   6.531   2.250  0.2703  1.8456  0.4784
 3375TIP3   OH231683   1.101   5.873   3.508  0.1656 -0.5112 -0.1105
 3375TIP3    H131684   1.137   5.915   3.430 -1.1607  1.6169  0.3397
 3375TIP3    H231685   1.008   5.893   3.505  0.3292  1.4570  2.9863
 3376TIP3   OH231686   6.532   2.781   8.721 -0.0918 -0.4833 -0.0867
 3376TIP3    H131687   6.439   2.765   8.704 -0.1998  0.2954 -0.2422
 3376TIP3    H231688   6.534   2.865   8.767  0.5378 -0.4696 -0.1341
 3377TIP3   OH231689   4.812   1.702   2.253  0.0977  0.1861 -0.1312
 3377TIP3    H131690   4.804   1.756   2.332  0.3053  1.5076 -0.9892
 3377TIP3    H231691   4.734   1.646   2.255 -2.0778  2.9611 -0.9814
 3378TIP3   OH231692   5.600   2.610   1.988 -0.4074 -0.5036  0.1207
 3378TIP3    H131693   5.511   2.624   2.023 -0.6924 -0.3134 -0.6687
 3378TIP3    H231694   5.633   2.697   1.969 -0.5630 -0.6358 -0.8161
 3379TIP3   OH231695   6.380   4.330   4.681  0.1470  0.2476  0.1576
 3379TIP3    H131696   6.326   4.279   4.620  0.2185 -0.6799  0.8482
 3379TIP3    H231697   6.457   4.275   4.696  0.2699  0.5980  0.8523
 3380TIP3   OH231698   3.642   1.628   0.314 -0.2773  0.1200 -0.3099
 3380TIP3    H131699   3.555   1.668   0.319 -0.9035 -0.8106 -2.6309
 3380TIP3    H231700   3.702   1.703   0.311 -1.1172  0.8095 -0.2285
 3381TIP3   OH231701   0.902   0.828   3.558  0.0029 -0.1102 -0.1557
 3381TIP3    H131702   0.855   0.747   3.579 -0.5086  0.2922  0.2643
 3381TIP3    H231703   0.945   0.853   3.640 -0.2346  0.3063 -0.1585
 3382TIP3   OH231704   4.818   3.583   1.284 -0.2355  0.7731 -0.7642
 3382TIP3    H131705   4.832   3.624   1.199 -1.4614 -0.3481 -1.5580
 3382TIP3    H231706   4.892   3.611   1.338  0.2679  1.9512 -2.0283
 3383TIP3   OH231707   4.783   0.450   3.432  0.0067  0.4288  0.5217
 3383TIP3    H131708   4.763   0.534   3.392  1.0384  0.7628  0.6672
 3383TIP3    H231709   4.698   0.408   3.446 -0.4183  0.6771 -1.1763
 3384TIP3   OH231710   1.929   1.122   0.565 -0.8548  0.4193  0.6011
 3384TIP3    H131711   1.850   1.074   0.542 -0.8883  0.8192 -0.1612
 3384TIP3    H231712   1.924   1.203   0.514  0.2108  0.2920  0.2519
 3385TIP3   OH231713   0.715   2.527   2.043  0.0676  0.5945 -0.0997
 3385TIP3    H131714   0.646   2.558   2.102 -1.7524 -1.6069 -0.8991
 3385TIP3    H231715   0.701   2.578   1.963 -0.0994  0.7494  0.0251
 3386TIP3   OH231716   3.126   5.631   0.618 -0.3240  0.8516 -0.1956
 3386TIP3    H131717   3.221   5.640   0.629 -0.0009 -1.4277 -0.5304
 3386TIP3    H231718   3.103   5.693   0.549  1.2033  0.3975 -1.1706
 3387TIP3   OH231719   2.989   5.798   2.879  0.7899 -0.0982 -0.0216
 3387TIP3    H131720   2.999   5.785   2.784  1.1962 -0.5620  0.0792
 3387TIP3    H231721   3.078   5.796   2.913  0.7244  1.0325  0.2639
 3388TIP3   OH231722   1.571   3.719   0.314  0.2835 -0.1383  0.0405
 3388TIP3    H131723   1.549   3.731   0.221 -0.3430  0.1906  0.2206
 3388TIP3    H231724   1.519   3.786   0.359  0.1667 -0.6538  0.6772
 3389TIP3   OH231725   0.693   1.768   2.632  0.2445  0.9529  0.1226
 3389TIP3    H131726   0.774   1.751   2.583 -1.6457 -1.4188 -2.4846
 3389TIP3    H231727   0.650   1.838   2.582 -0.0537  1.0655  0.5355
 3390TIP3   OH231728   3.727   2.834   1.593 -0.1629  0.3669  0.0448
 3390TIP3    H131729   3.731   2.804   1.503 -0.3397  0.5399 -0.0202
 3390TIP3    H231730   3.675   2.914   1.590  0.4708  0.7937  0.1834
 3391TIP3   OH231731   3.542   6.485   1.794  0.4773 -0.3290 -0.1123
 3391TIP3    H131732   3.567   6.565   1.749 -1.2717  0.1856 -0.2372
 3391TIP3    H231733   3.458   6.505   1.836  0.6007 -1.7130  0.8900
 3392TIP3   OH231734   2.064   5.569   3.419  0.3192  0.5538  0.2531
 3392TIP3    H131735   2.011   5.498   3.456  0.6379  0.1870  0.0073
 3392TIP3    H231736   2.035   5.574   3.328 -0.7375  1.7089  0.6296
 3393TIP3   OH231737   0.055   1.578   2.193 -0.0868  0.2806  0.6773
 3393TIP3    H131738   0.060   1.502   2.250 -0.2615 -1.0849 -1.0548
 3393TIP3    H231739   0.145   1.590   2.161 -0.5724 -1.2304 -1.5024
 3394TIP3   OH231740   6.572   0.904   1.573 -0.5248 -0.4124  0.0683
 3394TIP3    H131741   6.596   0.876   1.485 -0.1709  0.5885 -0.1748
 3394TIP3    H231742   6.520   0.984   1.559 -0.3851 -0.1927  0.7645
 3395TIP3   OH231743   0.072   4.167   3.501 -0.1388 -0.4532 -0.5877
 3395TIP3    H131744   0.050   4.226   3.429  0.2684 -0.5366 -0.7832
 3395TIP3    H231745   0.167   4.172   3.508 -0.2406  0.2388  0.5333
 3396TIP3   OH231746   1.687   0.684   8.417 -0.2280  0.3608 -0.4067
 3396TIP3    H131747   1.768   0.734   8.429  0.0676 -0.1140 -0.4036
 3396TIP3    H231748   1.629   0.718   8.485  0.1970  0.2448  0.0216
 3397TIP3   OH231749   0.317   0.072   1.273 -0.0156 -0.3770  0.0001
 3397TIP3    H131750   0.274   0.054   1.190 -2.8522  0.0741  1.2690
 3397TIP3    H231751   0.338  -0.014   1.308 -1.6010 -0.7197  0.1636
 3398TIP3   OH231752   3.676   3.668   0.902  0.4862 -0.3452  0.2101
 3398TIP3    H131753   3.659   3.575   0.908  1.3902 -0.5047  0.4638
 3398TIP3    H231754   3.753   3.675   0.845 -1.1163  0.4192 -2.0142
 3399TIP3   OH231755   5.552   2.499   3.819  0.0467  0.2861  0.1492
 3399TIP3    H131756   5.632   2.551   3.827 -0.4771  1.4821 -1.9550
 3399TIP3    H231757   5.559   2.457   3.733 -1.2288 -0.2685  0.3008
 3400TIP3   OH231758   4.944   5.751   0.722 -0.5973  0.5486  0.6519
 3400TIP3    H131759   4.901   5.741   0.807  0.0050 -2.6457  0.7164
 3400TIP3    H231760   5.022   5.802   0.740 -0.9243  0.6473  1.8594
 3401TIP3   OH231761   4.556   1.054   2.021 -0.5643 -0.2364 -0.3950
 3401TIP3    H131762   4.632   1.093   2.064 -0.6498 -0.0222 -0.4385
 3401TIP3    H231763   4.564   0.960   2.038 -1.4666 -0.0203  1.5163
 3402TIP3   OH231764   3.826   2.287   3.392  0.4874  0.0220  0.0017
 3402TIP3    H131765   3.839   2.381   3.406 -0.8364 -0.1210  2.9260
 3402TIP3    H231766   3.755   2.264   3.452  0.6800 -2.8379 -0.7492
 3403TIP3   OH231767   1.931   6.264   4.197  0.1017 -0.1119  0.2442
 3403TIP3    H131768   1.866   6.273   4.267 -1.6563 -0.5051 -1.2508
 3403TIP3    H231769   1.969   6.351   4.189  0.9076 -0.2276  2.1486
 3404TIP3   OH231770   4.486   5.787   0.773 -0.0215 -0.1842 -0.2189
 3404TIP3    H131771   4.515   5.725   0.839 -0.0906  1.6567  1.6407
 3404TIP3    H231772   4.390   5.782   0.776 -0.1000  1.3047  1.3385
 3405TIP3   OH231773   0.966   3.660   2.999  0.5970 -0.0619  0.1813
 3405TIP3    H131774   0.930   3.744   2.970 -0.3075  0.0758  1.5844
 3405TIP3    H231775   1.055   3.681   3.029  0.4493  0.3735  0.3289
 3406TIP3   OH231776   4.271   0.785   3.364  0.5336  0.3002  0.6223
 3406TIP3    H131777   4.251   0.797   3.457  0.4796 -0.4880  0.7228
 3406TIP3    H231778   4.356   0.827   3.352  0.4676  0.5412  0.9928
 3407TIP3   OH231779   4.306   6.506   2.147  0.0309 -0.5820 -0.3833
 3407TIP3    H131780   4.255   6.579   2.112  0.0952 -0.0751  0.5740
 3407TIP3    H231781   4.247   6.431   2.141 -1.1366  0.1406  1.4128
 3408TIP3   OH231782   3.162   5.618   2.278 -0.2133  0.0935  0.3448
 3408TIP3    H131783   3.085   5.571   2.311 -1.3807  1.3743 -0.4718
 3408TIP3    H231784   3.143   5.710   2.295  1.8147  0.3658  1.4717
 3409TIP3   OH231785   5.769   6.432   3.837 -0.3354 -0.2865  0.0841
 3409TIP3    H131786   5.809   6.455   3.753 -0.2713 -0.3462  0.0977
 3409TIP3    H231787   5.843   6.406   3.892 -0.4990 -1.5468 -0.2590
 3410TIP3   OH231788   0.382   6.603   5.228  0.2051  0.0803 -0.4155
 3410TIP3    H131789   0.389   6.513   5.260 -0.1985 -0.3321 -1.4630
 3410TIP3    H231790   0.293   6.631   5.251  0.1670  0.0457 -0.5223
 3411TIP3   OH231791   2.938   6.073   2.004  0.3905  0.3441  0.0043
 3411TIP3    H131792   2.931   5.981   1.979  1.1421 -0.8850  3.6495
 3411TIP3    H231793   3.032   6.091   2.004  0.3149  0.7561  0.3604
 3412TIP3   OH231794   3.934   5.689   2.355 -0.0410 -0.1288 -0.0007
 3412TIP3    H131795   3.998   5.759   2.355  0.8763 -0.9135 -1.6520
 3412TIP3    H231796   3.887   5.699   2.438 -0.1233  2.5579 -0.2844
 3413TIP3   OH231797   5.585   5.632   5.229 -0.4506 -0.1136 -0.1521
 3413TIP3    H131798   5.677   5.648   5.246 -0.4014 -0.6475  0.0913
 3413TIP3    H231799   5.575   5.537   5.236 -0.9769 -0.0781 -0.3715
 3414TIP3   OH231800   0.899   3.350   1.203 -0.1946  0.6146 -0.0325
 3414TIP3    H131801   0.917   3.341   1.297 -0.2691  0.1587 -0.0612
 3414TIP3    H231802   0.880   3.261   1.174  0.5541  0.6452 -0.6297
 3415TIP3   OH231803   2.310   1.682   4.312 -0.3912 -0.3722 -0.4694
 3415TIP3    H131804   2.275   1.644   4.392  0.9304 -0.8084 -0.0785
 3415TIP3    H231805   2.368   1.615   4.276 -1.0109 -0.2196 -1.8532
 3416TIP3   OH231806   1.942   0.795   4.285 -0.3858 -0.4361 -0.0886
 3416TIP3    H131807   2.029   0.760   4.263  0.0159 -0.5188  1.5017
 3416TIP3    H231808   1.891   0.719   4.312 -0.1642 -0.0966  1.3572
 3417TIP3   OH231809   1.793   5.708   3.513 -0.4569  0.0064  0.1198
 3417TIP3    H131810   1.709   5.681   3.476  0.2888  0.0514 -1.6802
 3417TIP3    H231811   1.845   5.628   3.517 -0.2501  0.1489  0.3130
 3418TIP3   OH231812   5.487   3.655   4.022  0.3533  0.0351 -0.1423
 3418TIP3    H131813   5.407   3.602   4.011  0.2421 -0.0778  1.0284
 3418TIP3    H231814   5.476   3.695   4.108  0.5111  1.8731 -0.9405
 3419TIP3   OH231815   3.104   1.114   3.667 -0.3639 -0.0657 -0.0556
 3419TIP3    H131816   3.063   1.174   3.605 -1.0185 -0.4923 -0.0409
 3419TIP3    H231817   3.182   1.160   3.698 -0.8041  0.7234 -0.1241
 3420TIP3   OH231818   0.498   5.139   0.877 -0.5056  0.0271  0.2044
 3420TIP3    H131819   0.551   5.125   0.955 -2.3241  0.8385  1.6888
 3420TIP3    H231820   0.410   5.155   0.911 -1.5992 -0.6500 -2.0853
 3421TIP3   OH231821   0.944   1.569   2.870 -0.3769  0.3670  0.3039
 3421TIP3    H131822   0.948   1.552   2.776 -0.8242 -1.0350  0.5148
 3421TIP3    H231823   0.892   1.649   2.878 -0.8896  0.1349 -0.6203
 3422TIP3   OH231824   5.008   4.838   2.348  0.4736 -0.1712  0.1663
 3422TIP3    H131825   5.057   4.913   2.382 -1.6770  1.0302  0.8138
 3422TIP3    H231826   4.979   4.866   2.261 -0.8540  0.0343  0.6538
 3423TIP3   OH231827   0.449   5.706   1.213 -0.3673  0.8130  0.2945
 3423TIP3    H131828   0.476   5.788   1.171 -0.7652  0.8580  0.1132
 3423TIP3    H231829   0.366   5.684   1.170 -0.1739  0.2179  0.2086
 3424TIP3   OH231830   6.526   6.236   1.616  0.1630  0.4836 -0.0260
 3424TIP3    H131831   6.543   6.145   1.589  0.9626  1.1246 -1.8056
 3424TIP3    H231832   6.587   6.288   1.565 -1.4443  2.1845 -0.3090
 3425TIP3   OH231833   2.853   4.007   0.311  0.5969  0.3301  0.1903
 3425TIP3    H131834   2.877   3.984   0.221 -0.0993 -1.3907  0.4088
 3425TIP3    H231835   2.821   4.097   0.304  0.4438  0.1956 -1.3236
 3426TIP3   OH231836   6.248   3.072   0.898  0.9078  0.4443  0.1958
 3426TIP3    H131837   6.167   3.090   0.945  0.3684  0.5281 -0.7321
 3426TIP3    H231838   6.263   3.152   0.846  1.7690  0.5623  0.6114
 3427TIP3   OH231839   0.422   3.214   2.851 -0.2812 -0.2153  0.0856
 3427TIP3    H131840   0.351   3.154   2.826  0.9101 -1.5548 -0.1731
 3427TIP3    H231841   0.410   3.289   2.793 -1.4931 -0.4028  0.0538
 3428TIP3   OH231842   6.602   0.509   1.551  0.0405 -0.0599 -0.0226
 3428TIP3    H131843   6.548   0.436   1.581 -3.5882  2.2524 -0.3158
 3428TIP3    H231844   6.691   0.475   1.551 -1.2012 -3.7993  1.7861
 3429TIP3   OH231845   5.316   1.567   2.943  0.2469 -0.2493 -0.3495
 3429TIP3    H131846   5.255   1.632   2.977 -0.1286 -1.4831  1.4767
 3429TIP3    H231847   5.398   1.615   2.931  0.3565  0.3335  2.2080
 3430TIP3   OH231848   3.327   2.190   3.759  0.5659 -0.0770 -0.5592
 3430TIP3    H131849   3.317   2.216   3.668  0.7914  0.4714 -0.4348
 3430TIP3    H231850   3.416   2.154   3.764  1.5843  2.2820 -0.0403
 3431TIP3   OH231851   1.605   0.837   1.702  0.4520 -0.1146  0.2036
 3431TIP3    H131852   1.523   0.837   1.652  0.7075 -0.4551 -0.2180
 3431TIP3    H231853   1.673   0.851   1.637  0.8960 -1.7869  0.2602
 3432TIP3   OH231854   3.593   3.653   3.338 -0.4159  0.1956  0.4941
 3432TIP3    H131855   3.573   3.699   3.420 -0.9134  0.0034  0.4827
 3432TIP3    H231856   3.535   3.693   3.273 -2.6265 -2.0335  0.9696
 3433TIP3   OH231857   4.018   0.595   1.744 -0.0578 -0.2918 -0.3714
 3433TIP3    H131858   3.928   0.567   1.761 -0.6427  1.6333 -0.1039
 3433TIP3    H231859   4.023   0.604   1.649 -0.2301 -0.1254 -0.3643
 3434TIP3   OH231860   0.935   0.323   0.409  0.5714 -0.0176  0.3711
 3434TIP3    H131861   0.935   0.334   0.504 -0.0705 -0.6846  0.4590
 3434TIP3    H231862   0.877   0.249   0.393  0.7043  0.0562 -0.5428
 3435TIP3   OH231863   1.433   5.241   1.139 -0.5135  0.2372 -0.4128
 3435TIP3    H131864   1.390   5.208   1.218  0.0442  0.7871  0.1288
 3435TIP3    H231865   1.423   5.170   1.076 -0.9683 -0.2127  0.1451
 3436TIP3   OH231866   0.752   0.610   1.140 -0.2992  0.4557 -0.2884
 3436TIP3    H131867   0.762   0.515   1.131 -2.0067  0.3542 -2.0966
 3436TIP3    H231868   0.657   0.623   1.136 -0.0380  2.3098 -1.5363
 3437TIP3   OH231869   3.444   4.124   2.895  0.2112  0.1849  0.5865
 3437TIP3    H131870   3.468   4.216   2.883  1.7441 -0.3497 -0.7811
 3437TIP3    H231871   3.503   4.093   2.964 -0.1979  0.1668  0.9350
 3438TIP3   OH231872   5.751   2.545   0.489 -0.2744  0.3838 -0.3508
 3438TIP3    H131873   5.797   2.612   0.540 -0.1239  0.4643 -0.5909
 3438TIP3    H231874   5.747   2.580   0.401  2.6761 -1.2310 -1.2750
 3439TIP3   OH231875   2.187   4.319   2.260  0.4019  0.0227 -0.4460
 3439TIP3    H131876   2.271   4.360   2.279  0.6121  0.0087 -1.2741
 3439TIP3    H231877   2.143   4.380   2.201 -0.1544  0.0156 -0.0437
 3440TIP3   OH231878   6.663   4.007   0.457 -0.3623 -0.0073 -0.0120
 3440TIP3    H131879   6.587   3.956   0.429 -1.1170  1.6612 -1.1623
 3440TIP3    H231880   6.731   3.985   0.393 -0.5165  0.0235 -0.1880
 3441TIP3   OH231881   5.603   3.393   3.905  0.1578  0.0845  0.5642
 3441TIP3    H131882   5.535   3.425   3.846  1.3217  0.1067 -0.8216
 3441TIP3    H231883   5.579   3.429   3.991 -1.6223 -0.0175  0.1443
 3442TIP3   OH231884   0.191   2.101   0.202  0.5013  0.5091 -0.1239
 3442TIP3    H131885   0.117   2.056   0.243  0.8933  0.4998  0.5937
 3442TIP3    H231886   0.216   2.168   0.266  1.9146 -0.3085  0.2204
 3443TIP3   OH231887   4.402   0.403   4.069 -0.3805 -0.0896 -0.2141
 3443TIP3    H131888   4.459   0.367   4.001  1.4044 -0.5577  1.4383
 3443TIP3    H231889   4.315   0.406   4.029 -0.0755 -3.4371 -1.4526
 3444TIP3   OH231890   0.647   0.567   1.496  0.4454  0.4954  0.4515
 3444TIP3    H131891   0.586   0.552   1.424  2.2713  1.2115 -1.3568
 3444TIP3    H231892   0.673   0.659   1.487  1.8430  0.1865  1.0809
 3445TIP3   OH231893   0.195   4.377   2.461  0.2121 -0.1275  0.0428
 3445TIP3    H131894   0.159   4.334   2.539 -0.2132  1.0136  0.5074
 3445TIP3    H231895   0.127   4.439   2.435 -0.2282 -1.3776 -2.0533
 3446TIP3   OH231896   1.327   1.381   3.157  0.0436  0.0103 -0.2464
 3446TIP3    H131897   1.262   1.335   3.103 -0.1808 -0.4328  0.3917
 3446TIP3    H231898   1.295   1.371   3.246 -0.4056  2.0507 -0.1374
 3447TIP3   OH231899   6.540   6.515   2.286  0.3992 -0.4860 -0.3915
 3447TIP3    H131900   6.533   6.432   2.239 -0.0508 -0.9374  0.4440
 3447TIP3    H231901   6.449   6.543   2.297  0.5925  0.9478 -2.0718
 3448TIP3   OH231902   4.545   1.649   1.308 -0.1390 -0.9268 -0.3621
 3448TIP3    H131903   4.522   1.656   1.400  1.5572  1.8323 -0.0536
 3448TIP3    H231904   4.465   1.671   1.261 -0.1592  1.1052  0.5466
 3449TIP3   OH231905   0.227   6.118   3.026 -0.5391 -0.2905 -0.6093
 3449TIP3    H131906   0.144   6.072   3.033 -1.0965  0.8018  0.3179
 3449TIP3    H231907   0.223   6.186   3.093  1.2630 -0.4438 -0.2848
 3450TIP3   OH231908   0.561   5.832   0.410 -0.0707 -0.0407  0.3928
 3450TIP3    H131909   0.484   5.866   0.364 -1.7004 -1.0979  2.1809
 3450TIP3    H231910   0.628   5.823   0.342 -2.5205 -2.1782 -1.9846
 3451TIP3   OH231911   2.183   0.942   0.972 -0.0291 -0.1856  0.0944
 3451TIP3    H131912   2.095   0.967   0.944 -0.2857 -1.8641 -0.7343
 3451TIP3    H231913   2.197   0.856   0.934  1.8342 -0.1386  0.5524
 3452TIP3   OH231914   6.251   3.440   4.754 -0.1360  0.4936  0.4374
 3452TIP3    H131915   6.197   3.365   4.780 -0.3044  0.3954 -0.1678
 3452TIP3    H231916   6.335   3.425   4.798 -0.0435 -0.2580  0.0251
 3453TIP3   OH231917   0.275   0.358   2.893 -0.5007 -0.0667 -0.0882
 3453TIP3    H131918   0.201   0.327   2.945 -1.3160  2.7054  0.6235
 3453TIP3    H231919   0.352   0.323   2.937 -1.2387  0.8281  2.0777
 3454TIP3   OH231920   1.925   1.428   1.900  0.9191  0.5287  0.1462
 3454TIP3    H131921   1.856   1.449   1.962  0.3690  0.4130 -0.4150
 3454TIP3    H231922   1.881   1.377   1.832  1.9041 -1.1316  0.6991
 3455TIP3   OH231923   0.409   1.674   2.425  0.1295 -0.3981 -0.1155
 3455TIP3    H131924   0.382   1.688   2.334  0.5376  0.1804 -0.1522
 3455TIP3    H231925   0.457   1.753   2.448 -0.7544 -0.1308  0.9009
 3456TIP3   OH231926   4.484   0.439   4.458 -0.2048 -0.1482 -0.6606
 3456TIP3    H131927   4.501   0.409   4.547  3.4214  0.9386 -0.8305
 3456TIP3    H231928   4.435   0.368   4.418 -0.3185 -1.4758  1.6402
 3457TIP3   OH231929   3.291   0.647   2.778 -0.2342 -0.3430  0.1756
 3457TIP3    H131930   3.330   0.623   2.695  1.5682  1.5425  0.4034
 3457TIP3    H231931   3.210   0.693   2.754 -0.3792 -0.9205 -0.4640
 3458TIP3   OH231932   3.260   4.166   4.730 -0.3926  0.3540 -0.2703
 3458TIP3    H131933   3.299   4.253   4.726 -0.1115  0.2443 -0.0008
 3458TIP3    H231934   3.265   4.141   4.823  0.0041 -0.1627 -0.4253
 3459TIP3   OH231935   4.128   3.180   3.027  0.2967 -0.3601 -0.3569
 3459TIP3    H131936   4.186   3.111   2.997  1.1457  0.6108 -0.9910
 3459TIP3    H231937   4.186   3.249   3.059 -0.5316  0.0312  0.3742
 3460TIP3   OH231938   0.374   1.550   1.676  0.1723 -0.2052 -0.5959
 3460TIP3    H131939   0.280   1.540   1.693  0.2453 -0.6144 -0.4214
 3460TIP3    H231940   0.382   1.543   1.581  0.1599 -1.3775 -0.5290
 3461TIP3   OH231941   1.912   1.478   1.538 -0.4607  0.3245  0.0419
 3461TIP3    H131942   1.961   1.512   1.613  0.1250 -3.8450  1.8650
 3461TIP3    H231943   1.961   1.507   1.461  0.9754  1.7938  1.4436
 3462TIP3   OH231944   6.360   4.757   2.973  0.4593  0.5670 -0.2415
 3462TIP3    H131945   6.394   4.736   3.060  1.2023  0.4409 -0.5628
 3462TIP3    H231946   6.329   4.848   2.981 -1.4196 -0.0941  0.7360
 3463TIP3   OH231947   2.588   0.446   0.836  0.0454 -0.5290 -0.5522
 3463TIP3    H131948   2.683   0.436   0.828  0.0530 -0.1475 -0.9742
 3463TIP3    H231949   2.558   0.460   0.746 -0.3480 -0.1103 -0.3568
 3464TIP3   OH231950   3.593   4.062   3.112  0.1756 -0.0635 -0.0938
 3464TIP3    H131951   3.673   4.009   3.104  1.1493  1.0849  1.4742
 3464TIP3    H231952   3.529   4.003   3.151  0.2812 -0.9406 -1.1777
 3465TIP3   OH231953   2.645   3.881   2.393  0.4222 -0.2026  0.9249
 3465TIP3    H131954   2.658   3.913   2.304  1.5064  0.9173  1.4517
 3465TIP3    H231955   2.568   3.927   2.425  0.2129 -0.3785  0.6744
 3466TIP3   OH231956   6.725   4.780   4.298 -0.0953  0.1680  0.0758
 3466TIP3    H131957   6.686   4.865   4.318  0.7838  1.0242 -1.6454
 3466TIP3    H231958   6.816   4.788   4.327  0.4529  0.4745 -1.5747
 3467TIP3   OH231959   4.482   2.408   4.301 -0.2175  0.1110 -0.1739
 3467TIP3    H131960   4.387   2.403   4.293 -0.3218  1.6269 -0.2943
 3467TIP3    H231961   4.501   2.375   4.389 -0.8733 -0.0256 -0.0797
 3468TIP3   OH231962   5.124   0.563   1.287 -0.0339  0.3820  0.2492
 3468TIP3    H131963   5.098   0.522   1.204  0.9686 -0.9858  0.5720
 3468TIP3    H231964   5.068   0.640   1.294 -2.1836 -1.0402 -0.2772
 3469TIP3   OH231965   1.370   0.032   3.827  0.0954 -0.3517 -0.6168
 3469TIP3    H131966   1.446  -0.008   3.870  0.1413  0.5637  0.1910
 3469TIP3    H231967   1.397   0.123   3.811 -0.4807 -0.2791 -1.2034
 3470TIP3   OH231968   4.624   4.223   1.239  0.8510  0.1325  0.0489
 3470TIP3    H131969   4.642   4.154   1.303  1.3627 -0.8969 -1.1484
 3470TIP3    H231970   4.534   4.249   1.256  0.1708 -1.8167 -0.3234
 3471TIP3   OH231971   0.636   0.063   2.181 -0.0929  0.6061 -0.2744
 3471TIP3    H131972   0.670   0.001   2.244 -0.3282 -0.2362 -0.9582
 3471TIP3    H231973   0.542   0.066   2.198 -0.0700  0.8445 -0.1857
 3472TIP3   OH231974   3.746   3.223   2.929 -0.0849  0.4921 -0.3320
 3472TIP3    H131975   3.733   3.313   2.957  2.1786  1.1630 -1.2471
 3472TIP3    H231976   3.702   3.218   2.844 -0.0600  0.7861 -0.3631
 3473TIP3   OH231977   2.710   5.668   4.200  0.2555 -0.0449  0.1389
 3473TIP3    H131978   2.728   5.759   4.177  2.7609 -0.3092  0.7240
 3473TIP3    H231979   2.729   5.663   4.294  2.8010 -1.6634 -0.3644
 3474TIP3   OH231980   6.476   3.058   4.256 -0.0682 -0.0256 -0.2946
 3474TIP3    H131981   6.409   3.036   4.321  1.2186  2.1440  1.9552
 3474TIP3    H231982   6.559   3.036   4.299  0.7969 -2.1626 -2.7966
 3475TIP3   OH231983   3.262   1.424   1.823 -0.2937  0.1347  0.1432
 3475TIP3    H131984   3.317   1.495   1.792 -2.1072  1.2842 -0.6298
 3475TIP3    H231985   3.224   1.457   1.905  1.4381 -1.3375  1.6347
 3476TIP3   OH231986   3.017   6.289   2.570  0.1797  0.4027  0.4180
 3476TIP3    H131987   3.103   6.291   2.612  0.7714  1.4108 -0.7809
 3476TIP3    H231988   3.018   6.209   2.516 -0.1193 -0.2346  1.3283
 3477TIP3   OH231989   5.442   2.196   1.370  0.2935 -0.0890 -0.4710
 3477TIP3    H131990   5.355   2.162   1.391 -0.1278  0.0634 -1.8441
 3477TIP3    H231991   5.499   2.159   1.437 -1.2330  2.0474  2.1930
 3478TIP3   OH231992   5.108   2.868   1.317 -0.1929  0.1330 -0.6441
 3478TIP3    H131993   5.181   2.925   1.292 -0.0522  0.2443  0.0120
 3478TIP3    H231994   5.127   2.842   1.407 -2.5100  2.6710  0.7337
 3479TIP3   OH231995   3.335   0.825   3.114  0.1384  0.2916  0.1869
 3479TIP3    H131996   3.356   0.882   3.188 -0.0679  0.0249  0.4474
 3479TIP3    H231997   3.292   0.883   3.051 -2.5189 -0.1026  1.5395
 3480TIP3   OH231998   0.047   5.435   2.477 -0.4147 -0.0159  0.0176
 3480TIP3    H131999  -0.044   5.412   2.458 -0.0924  0.4469 -2.4668
 3480TIP3    H232000   0.082   5.465   2.393  2.5319 -1.7977  0.4796
 3481TIP3   OH232001   2.838   1.453   2.994 -0.4628 -0.5248  0.3393
 3481TIP3    H132002   2.873   1.480   3.079  0.5313 -3.4322  0.9790
 3481TIP3    H232003   2.878   1.367   2.978 -2.8614 -1.3933 -1.7011
 3482TIP3   OH232004   2.227   2.112   1.469 -0.0218  0.4678  0.5970
 3482TIP3    H132005   2.213   2.190   1.416  0.5609 -0.1888 -0.5554
 3482TIP3    H232006   2.152   2.110   1.529  0.2494  2.2191  1.0669
 3483TIP3   OH232007   5.049   3.586   1.711  0.4455  0.6390  0.0863
 3483TIP3    H132008   5.123   3.637   1.744  1.3408 -1.0554  0.8630
 3483TIP3    H232009   4.980   3.600   1.776  1.7693 -1.6176  2.1970
 3484TIP3   OH232010   6.076   3.220   0.296 -0.6521 -0.2382  0.2346
 3484TIP3    H132011   6.157   3.181   0.265  0.0190  1.7458 -0.7104
 3484TIP3    H232012   6.035   3.256   0.217 -1.7237  0.0248  0.8928
 3485TIP3   OH232013   5.208   5.533   0.537  0.2723  0.4600 -0.4423
 3485TIP3    H132014   5.282   5.484   0.501  1.8202  1.8530  0.7021
 3485TIP3    H232015   5.135   5.509   0.480  1.4028 -1.5266 -1.1942
 3486TIP3   OH232016   5.224   3.227   1.392 -0.0981 -0.6678  0.2964
 3486TIP3    H132017   5.308   3.182   1.386  0.7025  0.9868 -3.2096
 3486TIP3    H232018   5.210   3.239   1.486  2.3968 -3.0076  1.1017
 3487TIP3   OH232019   1.810   0.234   3.574  0.2591 -0.1190 -0.1480
 3487TIP3    H132020   1.745   0.174   3.611  0.3451 -0.6653 -0.8448
 3487TIP3    H232021   1.853   0.183   3.505 -0.2292  0.9986 -1.3338
 3488TIP3   OH232022   2.407   4.873   1.921  0.5386 -0.5113  0.0861
 3488TIP3    H132023   2.467   4.798   1.919 -0.8521 -1.7878  2.2118
 3488TIP3    H232024   2.455   4.941   1.967  1.3849 -0.5001 -0.7928
 3489TIP3   OH232025   4.063   2.476   1.182 -0.4582 -0.4862  0.6479
 3489TIP3    H132026   3.982   2.457   1.229 -0.1294 -1.1269  0.9782
 3489TIP3    H232027   4.107   2.541   1.236 -0.6920 -0.2328  0.5348
 3490TIP3   OH232028   6.577   2.724   1.686 -0.4368 -0.0752 -0.3714
 3490TIP3    H132029   6.671   2.708   1.693 -0.2221  1.1758 -0.2875
 3490TIP3    H232030   6.538   2.674   1.758 -0.1010 -2.5049 -1.7600
 3491TIP3   OH232031   0.487   6.749   2.794  0.5863  0.3365  0.6185
 3491TIP3    H132032   0.561   6.755   2.733  0.8475  0.0144  0.9025
 3491TIP3    H232033   0.435   6.676   2.762  0.1951  0.7836  0.2116
 3492TIP3   OH232034   2.983   5.013   1.293  0.1129 -0.0112  0.3586
 3492TIP3    H132035   3.042   5.004   1.368 -0.5996 -1.5957  0.7763
 3492TIP3    H232036   2.897   5.029   1.331 -0.1122  0.0194 -0.1455
 3493TIP3   OH232037   5.699   4.825   1.080  0.1439 -0.2355  0.3047
 3493TIP3    H132038   5.735   4.901   1.036 -1.7926  0.1282 -0.7920
 3493TIP3    H232039   5.632   4.792   1.020 -0.8922 -1.2104  1.9061
 3494TIP3   OH232040   4.847   3.907   0.507  0.2733  0.4636  0.3785
 3494TIP3    H132041   4.839   3.873   0.418 -0.3182 -0.1728  0.6693
 3494TIP3    H232042   4.885   3.835   0.557 -2.3262 -0.3458  1.3181
 3495TIP3   OH232043   0.198   1.189   0.892  0.1577 -0.3509  0.0796
 3495TIP3    H132044   0.281   1.233   0.873  0.8702 -1.3877  0.6799
 3495TIP3    H232045   0.154   1.246   0.955  0.9504 -0.3717  0.6644
 3496TIP3   OH232046   5.417   3.954   2.120  0.2846  0.6808 -0.4828
 3496TIP3    H132047   5.434   3.928   2.029  0.9651  0.1449 -0.2142
 3496TIP3    H232048   5.378   3.877   2.160  1.3654  0.3925  0.0580
 3497TIP3   OH232049   1.746   1.998   0.657  0.4370  0.0967 -0.0782
 3497TIP3    H132050   1.773   1.907   0.642  1.0214  0.3117 -0.3618
 3497TIP3    H232051   1.825   2.050   0.638  0.5116  0.5671  1.4171
 3498TIP3   OH232052   6.251   5.548   1.150 -0.7536 -0.4239  0.4001
 3498TIP3    H132053   6.239   5.608   1.224 -1.5126 -0.0787  0.0201
 3498TIP3    H232054   6.342   5.559   1.124 -0.1830 -1.3207  1.9250
 3499TIP3   OH232055   1.127   6.035   2.315  0.2570  0.0916 -0.2229
 3499TIP3    H132056   1.146   6.029   2.221  0.3112 -1.6613 -0.1287
 3499TIP3    H232057   1.068   5.961   2.332  1.3119 -0.4367  1.3589
 3500TIP3   OH232058   0.316   5.814   4.023 -0.5877  0.3419  0.3660
 3500TIP3    H132059   0.309   5.773   3.938  2.2872 -0.2344  0.3051
 3500TIP3    H232060   0.365   5.895   4.007  3.2487 -1.4489  1.7316
 3501TIP3   OH232061   6.421   0.233   0.488  0.4776  0.5241 -0.2137
 3501TIP3    H132062   6.515   0.235   0.469  0.7356  0.6675  1.0118
 3501TIP3    H232063   6.380   0.269   0.409  1.4239  0.1743 -0.8837
 3502TIP3   OH232064   2.673   3.623   2.524 -0.1259  1.0662  0.3644
 3502TIP3    H132065   2.677   3.717   2.503  1.6606  0.6624 -1.3949
 3502TIP3    H232066   2.604   3.589   2.467  1.7829  0.7342 -1.9091
 3503TIP3   OH232067   3.672   0.027   2.101 -0.2068 -0.1618  0.1336
 3503TIP3    H132068   3.611  -0.005   2.167  0.6410 -0.6685  0.6930
 3503TIP3    H232069   3.682  -0.047   2.040 -0.3868  0.0262 -0.1225
 3504TIP3   OH232070   4.981   0.920   1.746 -0.0565 -0.2117  0.1162
 3504TIP3    H132071   5.069   0.954   1.726  0.5049 -0.9540  1.2134
 3504TIP3    H232072   4.995   0.828   1.765 -0.9938 -0.2056  0.8954
 3505TIP3   OH232073   0.260   5.183   2.918 -0.2362  0.3067  0.0465
 3505TIP3    H132074   0.179   5.140   2.944 -0.1188 -0.5010 -0.8590
 3505TIP3    H232075   0.294   5.223   2.998 -0.5734 -0.9187  0.8174
 3506TIP3   OH232076   2.031   0.554   1.236 -0.7881 -0.6272  0.3263
 3506TIP3    H132077   2.095   0.504   1.286 -1.0133 -0.3303  0.9309
 3506TIP3    H232078   1.974   0.488   1.197 -0.2990 -0.8813  0.0348
 3507TIP3   OH232079   1.693   2.986   2.020  0.6994 -0.5220  0.0115
 3507TIP3    H132080   1.785   3.002   1.996  0.2488 -0.1386 -1.6186
 3507TIP3    H232081   1.643   3.029   1.951 -0.8861  3.4210  3.2566
 3508TIP3   OH232082   5.075   4.203   0.751  0.8709 -0.1132 -0.7183
 3508TIP3    H132083   5.026   4.129   0.788 -0.1402  1.7821  2.0979
 3508TIP3    H232084   5.161   4.196   0.791  0.8418  0.0802 -0.6197
 3509TIP3   OH232085   5.423   2.972   0.630  0.0003  0.1075  0.0564
 3509TIP3    H132086   5.454   3.058   0.659  1.5643 -0.3189 -0.2869
 3509TIP3    H232087   5.388   2.987   0.542  0.5399  0.3309 -0.1184
 3510TIP3   OH232088   0.249   6.240   3.937  0.2608 -1.1123 -0.2899
 3510TIP3    H132089   0.237   6.264   4.029  0.6880  0.0230 -0.5102
 3510TIP3    H232090   0.169   6.271   3.894  0.9368  0.2669 -0.6249
 3511TIP3   OH232091   0.938   4.394   1.269  0.3141  0.0348  0.0852
 3511TIP3    H132092   0.881   4.438   1.207  0.2758 -0.9320 -0.5748
 3511TIP3    H232093   0.914   4.302   1.264  1.1831 -0.2362  0.5961
 3512TIP3   OH232094   5.566   2.295   1.669 -0.2860 -0.1858  0.2533
 3512TIP3    H132095   5.539   2.325   1.756  1.2801  1.1545  0.3325
 3512TIP3    H232096   5.633   2.357   1.642 -1.6694  0.2321 -2.5373
 3513TIP3   OH232097   2.069   3.893   3.910 -0.0173  0.3273 -0.3069
 3513TIP3    H132098   2.161   3.873   3.896 -0.2015 -1.1298  0.2938
 3513TIP3    H232099   2.028   3.880   3.825  0.3674  1.3357 -0.6619
 3514TIP3   OH232100   6.439   1.305   0.086  0.3658  0.1962  0.4498
 3514TIP3    H132101   6.372   1.369   0.111 -1.2644 -1.1347 -0.2685
 3514TIP3    H232102   6.509   1.357   0.047 -0.0176  1.6838  1.6518
 3515TIP3   OH232103   5.280   5.494   3.517  0.1370 -0.1684  0.3613
 3515TIP3    H132104   5.245   5.457   3.436  0.0161 -0.0081  0.3382
 3515TIP3    H232105   5.289   5.420   3.576  0.9510 -0.4137 -0.0517
 3516TIP3   OH232106   3.133   1.894   2.966 -0.3555 -0.1845  0.1287
 3516TIP3    H132107   3.218   1.933   2.985 -1.4986  2.4041  0.2637
 3516TIP3    H232108   3.079   1.916   3.042 -1.3399 -1.2631 -0.2292
 3517TIP3   OH232109   1.980   4.055   4.454  0.1691 -0.2282  0.5536
 3517TIP3    H132110   2.059   4.001   4.446 -0.9086 -1.9916  1.0758
 3517TIP3    H232111   2.008   4.143   4.428  2.2867 -0.7866  0.7131
 3518TIP3   OH232112   0.597   6.790   3.537 -0.2601  0.3445 -0.1308
 3518TIP3    H132113   0.612   6.767   3.628  0.6266  2.8549  0.4516
 3518TIP3    H232114   0.681   6.774   3.493 -0.8254 -1.3348 -0.6682
 3519TIP3   OH232115   5.273   5.036   5.067 -0.3999 -0.6331  0.3556
 3519TIP3    H132116   5.207   5.026   4.999  0.9853 -1.0788 -0.9742
 3519TIP3    H232117   5.353   5.059   5.020  0.2904  0.4862  1.9634
 3520TIP3   OH232118   0.390   6.183   1.247 -0.0646 -0.6720  0.3027
 3520TIP3    H132119   0.340   6.242   1.189 -2.1409 -0.1313  2.4771
 3520TIP3    H232120   0.366   6.095   1.218 -1.1721 -0.4072  0.3681
 3521TIP3   OH232121   6.248   5.280   4.723 -0.2456  0.5581  0.5650
 3521TIP3    H132122   6.340   5.282   4.699 -0.3500 -0.1376  0.0777
 3521TIP3    H232123   6.246   5.315   4.812  0.5141  0.3641  0.6682
 3522TIP3   OH232124   0.499   1.458   1.432 -0.1954  0.1017 -0.0875
 3522TIP3    H132125   0.531   1.412   1.354  1.2230  1.1853 -0.1817
 3522TIP3    H232126   0.472   1.387   1.491 -1.2134 -0.7363 -1.5000
 3523TIP3   OH232127   4.009   0.912   2.878  0.0597  0.2971  0.1763
 3523TIP3    H132128   3.993   0.844   2.944  0.9781 -2.2343 -2.0392
 3523TIP3    H232129   4.008   0.994   2.928 -0.8246 -1.3195  3.0502
 3524TIP3   OH232130   6.189   0.613   4.494 -0.4604  0.0961  0.0373
 3524TIP3    H132131   6.225   0.661   4.569 -0.0068  1.0460 -0.7657
 3524TIP3    H232132   6.120   0.559   4.531  0.4232 -0.2223  1.3034
 3525TIP3   OH232133   3.386   1.703   0.979 -0.3936  0.2394 -0.4625
 3525TIP3    H132134   3.470   1.716   0.936 -0.3459 -0.5049 -0.6057
 3525TIP3    H232135   3.402   1.634   1.043 -1.2947 -1.2079 -1.7190
 3526TIP3   OH232136   4.548   4.361   4.816  0.2254 -0.7916 -0.5069
 3526TIP3    H132137   4.570   4.268   4.810 -0.2889 -1.0328  0.9399
 3526TIP3    H232138   4.589   4.400   4.739  0.8706 -2.1310 -0.8789
 3527TIP3   OH232139   3.315   6.343   8.697  0.4183  0.3601 -0.1618
 3527TIP3    H132140   3.238   6.288   8.685  0.2377  1.0998 -3.0437
 3527TIP3    H232141   3.377   6.287   8.744 -0.5362 -1.5404 -1.0691
 3528TIP3   OH232142   0.267   3.520   1.397  0.1659 -0.1815 -0.5242
 3528TIP3    H132143   0.249   3.532   1.303 -0.2580 -1.7951 -0.6832
 3528TIP3    H232144   0.213   3.586   1.440  1.3940  1.5009 -1.4455
 3529TIP3   OH232145   4.657   1.246   3.074  0.5914 -0.0652  0.1585
 3529TIP3    H132146   4.730   1.272   3.019 -0.6283 -0.7821 -1.9052
 3529TIP3    H232147   4.677   1.156   3.100  0.2714 -0.4047 -0.7463
 3530TIP3   OH232148   3.306   3.365   1.507 -0.0894 -0.4400 -0.9575
 3530TIP3    H132149   3.279   3.281   1.470  0.3803 -0.0063 -2.3306
 3530TIP3    H232150   3.395   3.378   1.476 -0.1122  0.5172 -0.6511
 3531TIP3   OH232151   6.330   1.887   2.740 -0.2720 -0.8783 -0.0955
 3531TIP3    H132152   6.378   1.854   2.664 -2.2445 -1.1657 -1.2906
 3531TIP3    H232153   6.250   1.834   2.742 -1.7439  1.2435  0.2567
 3532TIP3   OH232154   5.298   5.818   2.390  0.3205  0.9468 -0.1645
 3532TIP3    H132155   5.357   5.753   2.353  1.0865  0.6075  1.5848
 3532TIP3    H232156   5.352   5.868   2.452 -1.2503  0.4678  1.6700
 3533TIP3   OH232157   4.173   4.354   1.022  0.7129  0.3516 -0.0601
 3533TIP3    H132158   4.167   4.425   0.958 -1.8476 -2.5150 -3.4296
 3533TIP3    H232159   4.085   4.348   1.059  0.9978 -0.7064  0.4935
 3534TIP3   OH232160   0.594   5.812   4.795 -0.1151  0.0104 -0.3465
 3534TIP3    H132161   0.589   5.891   4.743  0.5947  0.3621  0.1036
 3534TIP3    H232162   0.687   5.790   4.797 -0.3124 -0.8701 -0.5188
 3535TIP3   OH232163   2.211   5.934   2.394  0.2906 -0.0504  0.2122
 3535TIP3    H132164   2.201   5.861   2.333 -2.6386 -0.0510  0.5426
 3535TIP3    H232165   2.269   5.902   2.462 -0.4795 -1.9088  0.0461
 3536TIP3   OH232166   6.219   2.282   2.583 -0.0725 -0.5222 -0.2145
 3536TIP3    H132167   6.299   2.311   2.627 -0.5566  0.4880  0.0257
 3536TIP3    H232168   6.154   2.276   2.652 -0.8679  1.1849 -0.7684
 3537TIP3   OH232169   2.086   6.189   0.593 -0.9732  0.0955 -0.7577
 3537TIP3    H132170   2.051   6.266   0.547 -0.7362  1.0522  0.6123
 3537TIP3    H232171   2.062   6.115   0.536 -0.5248  1.2258 -2.4950
 3538TIP3   OH232172   6.788   2.899   0.641 -0.4869  0.3066  0.0549
 3538TIP3    H132173   6.706   2.942   0.617 -0.7500 -0.7069 -0.9822
 3538TIP3    H232174   6.855   2.947   0.593 -1.0496 -1.9797 -3.3970
 3539TIP3   OH232175   1.637   4.288   1.472  0.2122  1.0457  0.1951
 3539TIP3    H132176   1.702   4.314   1.407  0.0754  1.5819  0.2739
 3539TIP3    H232177   1.688   4.277   1.553  0.4394  0.0531 -0.0597
 3540TIP3   OH232178   4.576   4.372   3.193  0.5305 -0.2611 -0.7543
 3540TIP3    H132179   4.627   4.426   3.254  1.0253  0.5965 -1.8792
 3540TIP3    H232180   4.630   4.293   3.181  1.3374  0.3891 -1.4983
 3541TIP3   OH232181   5.346   1.240   4.370  0.5860 -0.2667  0.0763
 3541TIP3    H132182   5.331   1.277   4.282 -2.9965  2.7371  1.6666
 3541TIP3    H232183   5.278   1.174   4.380  0.0919  0.3639  1.0122
 3542TIP3   OH232184   4.693   0.675   3.300  0.5594 -0.1926  0.4402
 3542TIP3    H132185   4.686   0.654   3.207  0.4538 -1.0789  0.6357
 3542TIP3    H232186   4.621   0.736   3.317 -0.0284 -0.7900  0.1430
 3543TIP3   OH232187   3.837   0.921   1.802  0.7747  0.1662  0.5237
 3543TIP3    H132188   3.867   0.884   1.885 -0.7568  0.9486  1.4605
 3543TIP3    H232189   3.864   1.013   1.806  0.5245  0.2541  0.2346
 3544TIP3   OH232190   6.530   0.842   0.741  0.2503 -0.2779  0.1140
 3544TIP3    H132191   6.565   0.835   0.830 -1.2187  1.4836  0.8945
 3544TIP3    H232192   6.437   0.825   0.750 -0.1028  0.9625 -0.9031
 3545TIP3   OH232193   0.965   0.650   2.103  0.4945 -0.3415 -0.4347
 3545TIP3    H132194   0.885   0.652   2.157 -0.0285  0.9259 -1.2138
 3545TIP3    H232195   0.941   0.597   2.027  0.0900  0.7119 -1.0715
 3546TIP3   OH232196   5.266   1.029   1.711  0.4263  0.4716  0.0674
 3546TIP3    H132197   5.315   0.947   1.700  1.0740  0.8391  0.1799
 3546TIP3    H232198   5.285   1.056   1.801  0.3483  0.8314 -0.0228
 3547TIP3   OH232199   4.261   5.044   2.850 -0.0181  0.0425  0.2034
 3547TIP3    H132200   4.347   5.003   2.854  0.1070  0.3200  0.3705
 3547TIP3    H232201   4.245   5.074   2.939 -0.1940  0.1804  0.1262
 3548TIP3   OH232202   0.966   0.774   0.585 -0.1171 -0.2476  0.3713
 3548TIP3    H132203   0.988   0.728   0.503  0.8479  1.8871 -0.6540
 3548TIP3    H232204   0.873   0.758   0.597 -0.2378 -0.7786 -1.0375
 3549TIP3   OH232205   3.962   0.851   2.047 -0.2469  0.2578  0.0246
 3549TIP3    H132206   4.054   0.853   2.071 -0.3025 -0.8231  0.3933
 3549TIP3    H232207   3.916   0.884   2.124 -0.3009 -1.4589  0.7802
 3550TIP3   OH232208   4.530   0.588   1.456 -0.1674  0.3623 -0.2598
 3550TIP3    H132209   4.442   0.626   1.448  0.7468  3.0749  1.2644
 3550TIP3    H232210   4.519   0.514   1.516 -1.5375 -0.0689 -0.9814
 3551TIP3   OH232211   0.099   4.977   4.503 -0.5497  0.1348  0.1461
 3551TIP3    H132212   0.095   5.028   4.422 -1.2848 -0.5903 -0.2888
 3551TIP3    H232213   0.138   5.037   4.567 -1.5760  1.3190 -0.2965
 3552TIP3   OH232214   1.235   4.607   3.519  0.5039 -0.2284  0.1047
 3552TIP3    H132215   1.321   4.626   3.558  0.6144  0.9180 -0.6555
 3552TIP3    H232216   1.253   4.541   3.453  1.0181  0.8490 -0.8601
 3553TIP3   OH232217   1.007   1.709   0.758 -0.1312  0.1774  0.2999
 3553TIP3    H132218   1.016   1.722   0.663  0.0985 -1.1155  0.1320
 3553TIP3    H232219   0.919   1.742   0.778 -1.0985 -1.5917 -0.7757
 3554TIP3   OH232220   4.649   1.793   3.173  0.0525 -0.2969  0.0798
 3554TIP3    H132221   4.632   1.700   3.182 -2.7735  0.2648  1.5110
 3554TIP3    H232222   4.663   1.806   3.079  1.0861 -2.1851 -0.0722
 3555TIP3   OH232223   5.741   6.099   4.208  0.0507 -0.4633 -0.0444
 3555TIP3    H132224   5.645   6.107   4.203  0.0716 -0.5635 -0.5784
 3555TIP3    H232225   5.768   6.177   4.256 -0.0043  1.3343 -2.7514
 3556TIP3   OH232226   3.068   0.839   0.419 -0.4738 -0.0370 -0.7873
 3556TIP3    H132227   2.973   0.838   0.416 -0.5371 -0.0941  0.7067
 3556TIP3    H232228   3.090   0.883   0.501  0.7727 -0.9096 -0.6127
 3557TIP3   OH232229   5.298   1.956   3.650  0.5913 -0.5709  0.5688
 3557TIP3    H132230   5.351   1.922   3.723 -1.7830 -4.5242  0.7180
 3557TIP3    H232231   5.360   1.959   3.577  1.6478 -3.0246  1.2181
 3558TIP3   OH232232   2.389   5.736   4.517  0.2425 -0.7821 -0.1240
 3558TIP3    H132233   2.320   5.669   4.517  1.3538 -1.9727 -1.0543
 3558TIP3    H232234   2.404   5.755   4.424  0.7576 -0.0865  0.0930
 3559TIP3   OH232235   3.181   0.036   2.865 -0.5359  0.0631  0.0425
 3559TIP3    H132236   3.090   0.040   2.837 -0.6446  1.5635  0.5473
 3559TIP3    H232237   3.231   0.036   2.783 -0.9270  2.0700 -0.2526
 3560TIP3   OH232238   4.779   1.839   3.565 -0.8294  0.2598  0.6751
 3560TIP3    H132239   4.809   1.769   3.506 -2.2067  0.9192 -0.8693
 3560TIP3    H232240   4.767   1.915   3.509  0.8647  1.8963  2.3618
 3561TIP3   OH232241   2.012   0.727   3.246 -0.2400 -0.4516  0.2453
 3561TIP3    H132242   2.042   0.807   3.203 -1.0724  0.5772  1.4908
 3561TIP3    H232243   1.962   0.758   3.321  0.0311 -2.1616  1.1841
 3562TIP3   OH232244   0.382   3.384   0.546 -0.1440  0.3666 -0.0202
 3562TIP3    H132245   0.375   3.300   0.592 -1.1868  0.2129 -0.4293
 3562TIP3    H232246   0.467   3.381   0.503 -0.5415 -0.8785 -0.7804
 3563TIP3   OH232247   2.882   6.096   2.260  0.0210  0.0847 -0.2235
 3563TIP3    H132248   2.884   6.188   2.290  0.8320  0.2181 -0.6445
 3563TIP3    H232249   2.886   6.102   2.165 -0.9686 -0.3784 -0.3024
 3564TIP3   OH232250   5.978   1.196   0.516  0.5735  0.2084  0.3459
 3564TIP3    H132251   5.917   1.151   0.457  0.2994  0.9491  0.0505
 3564TIP3    H232252   6.052   1.220   0.460  0.0427  1.4526  0.1477
 3565TIP3   OH232253   2.960   6.509   0.524 -0.7781  0.0602 -0.4181
 3565TIP3    H132254   2.931   6.569   0.593  1.6153  0.2401  0.5361
 3565TIP3    H232255   3.008   6.565   0.463  0.5889 -0.6811 -0.0609
 3566TIP3   OH232256   1.229   5.824   0.757  0.3191 -0.2515  0.0216
 3566TIP3    H132257   1.242   5.744   0.708  2.2989  1.0101 -1.6471
 3566TIP3    H232258   1.191   5.885   0.694 -0.5512  0.3716  1.0924
 3567TIP3   OH232259   4.239   0.658   4.990  0.1519 -0.0114 -0.0379
 3567TIP3    H132260   4.292   0.616   5.058  1.1815 -0.7829 -1.2908
 3567TIP3    H232261   4.242   0.598   4.916 -0.6632  0.9809 -0.9057
 3568TIP3   OH232262   0.014   5.094   3.006  0.1697 -0.2690 -0.2958
 3568TIP3    H132263  -0.005   5.019   3.062  3.0011 -2.6210 -2.2100
 3568TIP3    H232264  -0.051   5.089   2.936 -0.5982  0.0082  0.3894
 3569TIP3   OH232265   5.813   1.177   3.410  0.0231 -0.2767 -0.1503
 3569TIP3    H132266   5.790   1.189   3.502 -1.2583 -1.5497 -0.2699
 3569TIP3    H232267   5.799   1.263   3.370  1.5494  0.5453  1.0046
 3570TIP3   OH232268   6.654   0.438   4.557  0.4798 -0.4558  0.2659
 3570TIP3    H132269   6.719   0.398   4.615  1.0151  1.3503  0.9556
 3570TIP3    H232270   6.573   0.390   4.576  1.5922 -2.9736 -0.8440
 3571TIP3   OH232271   3.059   5.444   1.243 -0.5674  0.3289  0.6670
 3571TIP3    H132272   2.980   5.405   1.281  0.4257 -1.2157  1.2379
 3571TIP3    H232273   3.119   5.455   1.317  1.1147 -2.0086 -0.2316
 3572TIP3   OH232274   4.688   1.821   4.732 -0.0203 -0.0602  0.4811
 3572TIP3    H132275   4.778   1.849   4.750  0.2175  0.8017 -1.7534
 3572TIP3    H232276   4.639   1.902   4.719 -0.8041 -0.5527  0.2905
 3573TIP3   OH232277   0.517   3.994   0.620 -0.0113  0.1223  0.1357
 3573TIP3    H132278   0.504   3.926   0.554  1.1748 -0.4834  0.4963
 3573TIP3    H232279   0.429   4.014   0.652 -0.3133 -2.1013  0.8660
 3574TIP3   OH232280   5.232   0.682   2.992 -0.1780  0.4347 -0.0664
 3574TIP3    H132281   5.202   0.683   3.083 -4.1905 -1.1734 -1.1781
 3574TIP3    H232282   5.320   0.646   2.997  0.3147  1.7012  3.2395
 3575TIP3   OH232283   1.820   0.031   3.996  0.6069 -0.6608  0.7291
 3575TIP3    H132284   1.768   0.111   3.988 -0.5498 -1.3573  1.1761
 3575TIP3    H232285   1.758  -0.040   3.987  1.4716 -1.5205  1.2975
 3576TIP3   OH232286   5.697   4.694   0.640 -0.2337 -0.0375 -0.3068
 3576TIP3    H132287   5.724   4.781   0.669 -1.8734  1.0280 -1.7770
 3576TIP3    H232288   5.681   4.704   0.546 -0.1048 -2.0355 -0.5876
 3577TIP3   OH232289   3.044   6.678   3.936 -0.1341  0.3926 -0.6996
 3577TIP3    H132290   3.083   6.624   3.867 -2.7163 -0.9520 -1.2551
 3577TIP3    H232291   3.089   6.762   3.928  2.4777 -0.9405 -1.2869
 3578TIP3   OH232292   4.870   1.167   4.030 -0.3693 -0.3588 -0.2287
 3578TIP3    H132293   4.924   1.154   4.108  0.6297  0.5327 -0.7599
 3578TIP3    H232294   4.794   1.110   4.044  0.9565 -2.0726  0.2849
 3579TIP3   OH232295   6.435   0.530   3.999  0.0447  0.2313 -0.2568
 3579TIP3    H132296   6.424   0.549   4.093 -0.4722 -0.5070 -0.1627
 3579TIP3    H232297   6.442   0.435   3.994 -1.5281  0.1359 -1.1143
 3580TIP3   OH232298   0.368   5.803   3.165  0.1694 -0.1189  0.5353
 3580TIP3    H132299   0.362   5.878   3.224 -0.4230 -1.0279  1.6746
 3580TIP3    H232300   0.296   5.746   3.192 -1.1812  0.1752 -2.1731
 3581TIP3   OH232301   1.080   5.044   0.493  0.1295 -0.1199 -0.6695
 3581TIP3    H132302   1.026   5.121   0.514 -0.9155 -0.9769 -0.1080
 3581TIP3    H232303   1.112   5.061   0.404 -0.7527  0.6085 -0.8662
 3582TIP3   OH232304   3.433   3.865   3.261 -0.3091 -0.0088  0.3725
 3582TIP3    H132305   3.359   3.844   3.318 -0.0620  0.0196  0.7035
 3582TIP3    H232306   3.407   3.831   3.175 -0.4362 -0.5604  0.6251
 3583TIP3   OH232307   3.368   6.631   0.947 -0.4700 -0.0214 -0.1939
 3583TIP3    H132308   3.335   6.597   1.030  1.2058  0.0664  0.5532
 3583TIP3    H232309   3.462   6.613   0.950 -0.0094  1.9696 -1.0911
 3584TIP3   OH232310   6.000   3.958   2.884  0.8394 -0.2925  0.0035
 3584TIP3    H132311   5.921   3.910   2.907  1.5881 -2.1308 -0.9856
 3584TIP3    H232312   5.969   4.038   2.843 -0.5064 -0.6857  0.2179
 3585TIP3   OH232313   5.845   0.275   1.676 -0.2368 -0.4302  0.0086
 3585TIP3    H132314   5.915   0.318   1.725 -1.6133  2.1231 -0.0873
 3585TIP3    H232315   5.772   0.272   1.737 -0.5938 -1.4318 -0.4515
 3586TIP3   OH232316   1.895   0.097   1.246  0.2604 -0.2352  0.3109
 3586TIP3    H132317   1.874   0.190   1.253  0.4426 -0.0788 -0.9980
 3586TIP3    H232318   1.991   0.093   1.253  0.5268  0.0015 -2.1643
 3587TIP3   OH232319   1.628   4.129   2.161 -0.0287  0.0276 -0.4874
 3587TIP3    H132320   1.645   4.117   2.068 -0.1994 -2.8629 -0.2339
 3587TIP3    H232321   1.565   4.201   2.165  0.4628  0.6193 -2.5431
 3588TIP3   OH232322   5.653   6.678   3.926 -0.5525  0.1020  0.3766
 3588TIP3    H132323   5.560   6.661   3.940  0.0975 -2.8741  2.1171
 3588TIP3    H232324   5.681   6.611   3.864  0.5311  0.6504  0.2482
 3589TIP3   OH232325   4.501   1.354   0.365 -0.1590  0.0504  0.0392
 3589TIP3    H132326   4.554   1.434   0.361 -1.1827  0.7957  0.9377
 3589TIP3    H232327   4.469   1.351   0.455  0.2254 -1.6350  0.1578
 3590TIP3   OH232328   3.846   0.431   1.860  0.4820 -0.1475  0.0818
 3590TIP3    H132329   3.901   0.464   1.931  0.2230 -0.8498  0.6240
 3590TIP3    H232330   3.893   0.355   1.826  0.9555  0.6048 -0.9934
 3591TIP3   OH232331   5.561   4.534   2.745 -0.3995  0.8366 -0.3411
 3591TIP3    H132332   5.488   4.475   2.726 -0.2980 -0.0561  1.7811
 3591TIP3    H232333   5.522   4.606   2.795  0.0069  0.8305 -0.0066
 3592TIP3   OH232334   0.884   1.695   3.601  0.0384  0.0717 -0.0620
 3592TIP3    H132335   0.810   1.686   3.661 -0.7223  0.2827 -0.9506
 3592TIP3    H232336   0.938   1.618   3.619 -2.0157 -1.8971 -1.5604
 3593TIP3   OH232337   3.827   5.430   4.039 -0.0333 -0.1151 -0.3002
 3593TIP3    H132338   3.830   5.339   4.010 -0.9092 -0.1093 -0.4607
 3593TIP3    H232339   3.733   5.449   4.047  0.0477  1.4437 -2.4158
 3594TIP3   OH232340   2.245   0.561   2.310  0.1726  0.2138 -0.0946
 3594TIP3    H132341   2.289   0.526   2.388  1.7867  1.3165 -0.4512
 3594TIP3    H232342   2.238   0.655   2.327  0.3720  0.4401 -1.1966
 3595TIP3   OH232343   1.264   0.459   0.507  0.5835  0.2433  0.2498
 3595TIP3    H132344   1.315   0.540   0.505 -1.0776  1.3106 -0.4903
 3595TIP3    H232345   1.264   0.428   0.416 -0.1839  0.3217  0.2179
 3596TIP3   OH232346   1.241   0.298   3.869 -0.2815  0.0578 -0.0773
 3596TIP3    H132347   1.232   0.391   3.890 -0.4021 -0.0811  0.4899
 3596TIP3    H232348   1.314   0.295   3.806  1.7714  0.2559  2.1347
 3597TIP3   OH232349   6.626   3.642   2.347 -0.1238 -0.0712  0.1002
 3597TIP3    H132350   6.686   3.573   2.319  0.5098  0.2648  0.6087
 3597TIP3    H232351   6.539   3.610   2.321  0.3485 -0.1284 -1.4895
 3598TIP3   OH232352   4.026   5.906   1.119 -0.0212 -0.0784  0.5055
 3598TIP3    H132353   4.073   5.871   1.044 -1.1386  1.9446 -1.2575
 3598TIP3    H232354   3.940   5.864   1.116  0.6364 -1.6522  2.0448
 3599TIP3   OH232355   6.791   1.287   3.626  0.3339 -0.3419 -0.9385
 3599TIP3    H132356   6.705   1.322   3.649 -0.4750 -3.0335  0.5330
 3599TIP3    H232357   6.851   1.330   3.686 -0.7303 -1.7584  1.3218
 3600TIP3   OH232358   5.707   3.440   2.023  0.1039 -0.5678 -0.0746
 3600TIP3    H132359   5.704   3.499   2.099 -0.3846  0.1216 -0.6141
 3600TIP3    H232360   5.776   3.377   2.044 -1.4814 -1.7564  1.9227
 3601TIP3   OH232361   5.400   2.774   2.895  0.5065 -0.0230  0.4136
 3601TIP3    H132362   5.438   2.744   2.812 -2.2448 -2.7639 -0.0338
 3601TIP3    H232363   5.346   2.849   2.870  0.2801 -0.3631 -0.1359
 3602TIP3   OH232364   1.596   6.671   4.003  0.3177 -0.1799  0.2543
 3602TIP3    H132365   1.539   6.708   4.071 -2.1556  0.5169 -2.0041
 3602TIP3    H232366   1.568   6.580   3.996  1.4047 -0.5730  0.9718
 3603TIP3   OH232367   0.493   4.056   2.255 -0.4305 -0.2625 -0.0339
 3603TIP3    H132368   0.431   4.077   2.325 -1.7918  1.2944 -1.6030
 3603TIP3    H232369   0.576   4.043   2.300 -1.5790 -1.0330  2.0133
 3604TIP3   OH232370   2.864   5.733   2.191 -0.0422  0.1718  0.0905
 3604TIP3    H132371   2.785   5.761   2.144  0.6074  1.0292 -0.5385
 3604TIP3    H232372   2.913   5.681   2.127  0.1104  0.0278  0.3244
 3605TIP3   OH232373   2.314   5.496   0.889  0.3761  0.3309  0.3487
 3605TIP3    H132374   2.323   5.442   0.810  0.0705  0.1145  0.4595
 3605TIP3    H232375   2.342   5.584   0.861  1.2239  0.0426  0.2656
 3606TIP3   OH232376   1.393   5.539   3.867  0.1377 -0.4212  0.0935
 3606TIP3    H132377   1.473   5.551   3.918  0.1159 -2.0663  0.5626
 3606TIP3    H232378   1.336   5.488   3.924 -0.3378 -1.2848 -1.1333
 3607TIP3   OH232379   6.208   4.066   3.205 -0.5047  0.0894  0.0622
 3607TIP3    H132380   6.204   3.983   3.158  0.3895  0.2196 -0.2662
 3607TIP3    H232381   6.233   4.042   3.294 -0.7238 -0.0373  0.0885
 3608TIP3   OH232382   4.427   5.732   0.435  0.1613 -0.1567  0.0801
 3608TIP3    H132383   4.518   5.712   0.456  0.3140  0.0039 -0.4086
 3608TIP3    H232384   4.432   5.796   0.364 -0.3290 -0.2808 -0.0744
 3609TIP3   OH232385   0.677   0.255   1.862 -0.5828  0.4821  0.5172
 3609TIP3    H132386   0.712   0.279   1.777 -1.5197  2.0222  0.5302
 3609TIP3    H232387   0.626   0.175   1.845  0.0036  0.2472 -0.1678
 3610TIP3   OH232388   5.565   6.484   0.589 -0.0653  0.1706 -0.1058
 3610TIP3    H132389   5.509   6.406   0.579  0.3002 -0.1087  0.0050
 3610TIP3    H232390   5.573   6.518   0.500 -0.1895  0.0560 -0.1624
 3611TIP3   OH232391   0.086   6.357   2.000  0.5147 -0.1069  0.1272
 3611TIP3    H132392   0.171   6.384   1.967  1.5201  0.1747  2.7375
 3611TIP3    H232393   0.097   6.264   2.021  0.4602  0.1143  1.2024
 3612TIP3   OH232394   4.654   1.697   4.038  0.0311 -0.5078  0.3898
 3612TIP3    H132395   4.659   1.787   4.006 -0.8608 -0.6632 -0.2439
 3612TIP3    H232396   4.741   1.660   4.021  0.1681  0.0133 -0.0614
 3613TIP3   OH232397   5.439   3.294   2.132  0.3027  0.0148  0.0246
 3613TIP3    H132398   5.457   3.202   2.112 -0.5680 -0.0888 -0.3177
 3613TIP3    H232399   5.423   3.334   2.046 -0.1373  0.3053  0.2431
 3614TIP3   OH232400   1.255   5.148   0.672 -0.1896 -0.0706 -0.1656
 3614TIP3    H132401   1.201   5.094   0.614  0.6662 -0.4936 -0.5848
 3614TIP3    H232402   1.323   5.185   0.615 -0.1654  0.6521  0.3064
 3615TIP3   OH232403   3.912   2.180   2.775 -0.1712 -0.6554  0.1330
 3615TIP3    H132404   3.916   2.220   2.862 -1.8654 -0.9860  0.3806
 3615TIP3    H232405   3.900   2.087   2.792 -0.8293 -0.6820 -0.4479
 3616TIP3   OH232406   2.033   3.814   8.754  0.0252 -0.2098 -0.2358
 3616TIP3    H132407   2.125   3.789   8.744  0.7382  2.5508 -1.3918
 3616TIP3    H232408   1.985   3.747   8.704  1.1346 -2.6824  1.7673
 3617TIP3   OH232409   5.129   0.447   2.067 -0.1938  0.5306  0.6584
 3617TIP3    H132410   5.217   0.476   2.092  0.2919 -0.2352 -0.1257
 3617TIP3    H232411   5.142   0.360   2.030 -1.0177  1.1432 -1.2114
 3618TIP3   OH232412   0.851   3.223   8.824 -0.6737  0.4623  0.3026
 3618TIP3    H132413   0.902   3.143   8.810  0.6816  1.2527  0.5289
 3618TIP3    H232414   0.914   3.294   8.810 -1.6242  1.4707  1.0052
 3619TIP3   OH232415   5.847   5.939   4.974 -0.4004  0.2856  0.3324
 3619TIP3    H132416   5.827   6.011   4.914  2.3739  1.1297  0.2591
 3619TIP3    H232417   5.880   5.983   5.053 -1.8612 -0.8713  1.6394
 3620TIP3   OH232418   2.637   4.311   2.046 -0.6007 -0.7200  0.4415
 3620TIP3    H132419   2.654   4.316   1.952  0.5412 -0.0924  0.6589
 3620TIP3    H232420   2.707   4.363   2.086  0.0921 -2.5494  1.7554
 3621TIP3   OH232421   6.167   1.534   1.925 -0.4535 -0.2212  0.1727
 3621TIP3    H132422   6.222   1.459   1.946 -0.0335 -0.1373 -0.6215
 3621TIP3    H232423   6.218   1.610   1.951  1.1817  0.0432 -3.3430
 3622TIP3   OH232424   2.700   3.536   0.114 -0.3719 -0.0295 -0.0479
 3622TIP3    H132425   2.650   3.584   0.048 -3.0965 -2.6269 -0.0939
 3622TIP3    H232426   2.699   3.593   0.191 -1.7384  0.8472 -0.6699
 3623TIP3   OH232427   4.809   6.049   4.891 -0.1976 -0.4633  0.1364
 3623TIP3    H132428   4.813   5.975   4.830 -1.6201 -0.1508 -0.3613
 3623TIP3    H232429   4.901   6.070   4.909  0.2260 -1.6652 -0.5497
 3624TIP3   OH232430   5.929   1.869   1.782  0.0058  0.0304  0.4658
 3624TIP3    H132431   6.019   1.900   1.790  0.1734 -0.3317  0.0212
 3624TIP3    H232432   5.879   1.947   1.756  0.3654  0.0150 -0.3031
 3625TIP3   OH232433   0.898   2.280   1.787 -0.6938  0.1608 -0.2987
 3625TIP3    H132434   0.819   2.250   1.742 -0.9825  2.0045 -1.1167
 3625TIP3    H232435   0.920   2.363   1.744  0.8758  0.3926  0.8637
 3626TIP3   OH232436   2.340   4.356   0.531  0.0689  0.3411 -0.0123
 3626TIP3    H132437   2.305   4.424   0.473 -1.5117 -0.2303  0.2073
 3626TIP3    H232438   2.387   4.296   0.474  1.6096  1.6524 -0.1963
 3627TIP3   OH232439   2.480   5.128   8.561 -0.6001 -0.5724 -0.0835
 3627TIP3    H132440   2.493   5.052   8.618 -1.2574 -2.4765 -2.3173
 3627TIP3    H232441   2.387   5.125   8.539 -1.1585  2.2362  1.4637
 3628TIP3   OH232442   3.652   5.991   0.252  0.3650 -0.3430  0.1096
 3628TIP3    H132443   3.725   5.946   0.209  0.3136 -0.1236 -0.2187
 3628TIP3    H232444   3.592   6.013   0.180  0.4730  0.3960  0.2383
 3629TIP3   OH232445   1.003   4.884   3.677  0.8534  0.3717  0.3494
 3629TIP3    H132446   1.005   4.973   3.644  1.4374  0.1445 -0.2565
 3629TIP3    H232447   0.950   4.888   3.757 -0.3422  0.9910 -0.4470
 3630TIP3   OH232448   5.977   6.778   4.152 -0.0206 -0.2868 -0.6025
 3630TIP3    H132449   5.916   6.800   4.223 -1.0223 -1.7995 -0.9388
 3630TIP3    H232450   5.975   6.855   4.095 -0.4195  0.3176  0.2015
 3631TIP3   OH232451   5.150   0.208   1.132  0.2341 -0.1659  0.0084
 3631TIP3    H132452   5.133   0.135   1.071  2.1581 -1.0737  0.4853
 3631TIP3    H232453   5.066   0.254   1.137 -1.6616 -3.4044  1.1107
 3632TIP3   OH232454   0.423   1.475   0.470 -0.1194  0.4724 -0.0192
 3632TIP3    H132455   0.422   1.410   0.540 -0.0758  0.4753 -0.0156
 3632TIP3    H232456   0.515   1.483   0.447 -0.2479 -0.4152 -0.9025
 3633TIP3   OH232457   3.369   3.141   3.705  0.5730 -0.3012 -0.1028
 3633TIP3    H132458   3.417   3.201   3.648  0.3363  1.0412  1.0659
 3633TIP3    H232459   3.429   3.068   3.718  1.6361  0.5511 -0.0671
 3634TIP3   OH232460   0.196   1.405   3.867 -0.2943 -0.2737 -0.3288
 3634TIP3    H132461   0.175   1.452   3.786 -0.7344  1.5312  0.7838
 3634TIP3    H232462   0.264   1.343   3.842 -0.3075  0.3562 -2.0437
 3635TIP3   OH232463   5.812   2.110   3.172  0.0436 -0.2511 -0.5130
 3635TIP3    H132464   5.758   2.106   3.093 -1.1311 -1.5453  0.3159
 3635TIP3    H232465   5.902   2.102   3.140 -0.3977 -0.6098 -1.7285
 3636TIP3   OH232466   5.376   6.640   3.368  0.0029 -0.0292 -0.0122
 3636TIP3    H132467   5.451   6.652   3.425 -0.0100  0.7274 -0.1377
 3636TIP3    H232468   5.308   6.602   3.424 -0.3664  1.7042  0.7799
 3637TIP3   OH232469   6.104   0.967   2.111 -0.1452  0.5156 -0.6432
 3637TIP3    H132470   6.137   1.010   2.032  1.9029 -0.0521 -0.1604
 3637TIP3    H232471   6.018   1.008   2.126  0.5622  2.5393 -1.6649
 3638TIP3   OH232472   4.287   5.755   2.174 -0.5886 -0.3147  0.0384
 3638TIP3    H132473   4.362   5.794   2.129  0.1187 -1.5124  0.1410
 3638TIP3    H232474   4.217   5.753   2.108 -0.4107  0.4140 -0.1806
 3639TIP3   OH232475   1.266   1.928   0.324  0.2246  0.2135 -0.0165
 3639TIP3    H132476   1.179   1.967   0.323  0.8405  1.7160  1.2395
 3639TIP3    H232477   1.325   1.999   0.298  1.0875 -0.8251 -1.0250
 3640TIP3   OH232478   1.683   3.208   0.789  0.0170  0.3604  0.2265
 3640TIP3    H132479   1.742   3.148   0.744  0.5314  0.4803  0.7329
 3640TIP3    H232480   1.598   3.164   0.787 -0.2982  0.9471 -2.0116
 3641TIP3   OH232481   0.427   4.193   2.857  0.6465  0.2380 -0.2738
 3641TIP3    H132482   0.518   4.205   2.883  0.1580  0.1909  1.6537
 3641TIP3    H232483   0.423   4.102   2.826  0.9085 -0.3943  1.4265
 3642TIP3   OH232484   6.362   6.074   1.861 -0.0604 -0.1680  0.9932
 3642TIP3    H132485   6.276   6.117   1.862  0.9981  2.0982  0.2860
 3642TIP3    H232486   6.424   6.144   1.838  2.0770 -1.5703  2.1452
 3643TIP3   OH232487   6.062   2.338   0.897 -0.1322 -0.0274  0.8690
 3643TIP3    H132488   5.969   2.324   0.913 -0.0864 -0.2106  0.9741
 3643TIP3    H232489   6.081   2.422   0.939 -0.5568  0.7053 -0.3498
 3644TIP3   OH232490   6.187   6.050   4.795 -0.6591 -0.3222 -0.2152
 3644TIP3    H132491   6.128   6.016   4.862 -1.6791  1.2082 -0.2798
 3644TIP3    H232492   6.242   5.975   4.770 -1.0582 -1.2107  1.4609
 3645TIP3   OH232493   0.458   3.803   2.531 -0.1904  0.6259  0.4301
 3645TIP3    H132494   0.512   3.764   2.599 -0.7789  1.8277  1.6399
 3645TIP3    H232495   0.420   3.729   2.484  0.9126 -0.2236  0.8375
 3646TIP3   OH232496   5.082   4.917   3.034  0.2818  0.0458  0.6732
 3646TIP3    H132497   5.092   4.897   3.127 -0.8891  1.3085  1.0932
 3646TIP3    H232498   5.035   4.841   2.998 -0.4510  0.1504  1.3893
 3647TIP3   OH232499   1.757   6.149   2.575 -0.1400 -0.1960 -0.0827
 3647TIP3    H132500   1.828   6.092   2.547 -0.0960 -0.7948  1.1919
 3647TIP3    H232501   1.697   6.150   2.500  1.5623  1.0198 -1.5342
 3648TIP3   OH232502   0.946   2.739   1.293  0.3660 -0.5946  0.2174
 3648TIP3    H132503   0.907   2.768   1.375 -1.0299  1.0210 -0.9261
 3648TIP3    H232504   0.908   2.653   1.277 -0.3338 -0.3764  0.6577
 3649TIP3   OH232505   5.476   6.305   3.109  0.1654  0.5883  0.4593
 3649TIP3    H132506   5.488   6.349   3.193  0.7052  0.2230  0.5806
 3649TIP3    H232507   5.532   6.354   3.049 -0.9164  1.4169  0.0933
 3650TIP3   OH232508   2.087   6.702   0.742  0.1962 -0.0163  0.4202
 3650TIP3    H132509   2.106   6.739   0.655  0.7757 -2.9825 -0.8368
 3650TIP3    H232510   1.992   6.710   0.750 -0.1891 -1.6547 -1.5565
 3651TIP3   OH232511   2.307   4.059   2.788 -0.4383  0.5262  0.1325
 3651TIP3    H132512   2.309   4.083   2.881 -4.0985 -1.6053  0.9383
 3651TIP3    H232513   2.351   3.974   2.785 -2.7498 -0.7444  0.5186
 3652TIP3   OH232514   1.420   0.488   1.407  0.0357 -0.3070 -0.1861
 3652TIP3    H132515   1.463   0.454   1.329  1.6209 -0.9465  0.9059
 3652TIP3    H232516   1.329   0.501   1.381  0.0125 -2.5838 -1.5163
 3653TIP3   OH232517   5.181   5.573   1.549 -0.2700 -0.5614 -0.0981
 3653TIP3    H132518   5.087   5.585   1.532  0.3055  2.0356 -2.2459
 3653TIP3    H232519   5.191   5.594   1.642 -1.4897  2.5583 -0.5309
 3654TIP3   OH232520   5.092   0.974   5.488  0.2767 -0.3105  0.0669
 3654TIP3    H132521   5.157   1.032   5.528 -0.0491  0.4418 -0.4762
 3654TIP3    H232522   5.091   0.998   5.396 -0.9284 -0.1442  0.1015
 3655TIP3   OH232523   2.744   0.520   3.281  0.2347 -0.1868 -0.0876
 3655TIP3    H132524   2.787   0.543   3.363 -1.8917 -0.3192  1.1258
 3655TIP3    H232525   2.724   0.603   3.239  0.3225 -0.0847  0.0742
 3656TIP3   OH232526   5.538   4.367   3.119 -0.0518 -0.2244 -0.3810
 3656TIP3    H132527   5.472   4.299   3.113 -0.6147  0.4252 -2.0179
 3656TIP3    H232528   5.554   4.376   3.213 -1.1817 -1.4288 -0.0435
 3657TIP3   OH232529   2.063   6.052   3.585  0.0114 -0.0631 -0.1436
 3657TIP3    H132530   2.049   5.960   3.608  2.1214 -0.1304  1.0971
 3657TIP3    H232531   2.147   6.054   3.541  0.4118  1.3791  0.6398
 3658TIP3   OH232532   4.487   1.018   4.176 -0.1520  0.1789  0.2416
 3658TIP3    H132533   4.432   1.014   4.098  2.3406  1.8077 -1.7864
 3658TIP3    H232534   4.509   1.111   4.185  1.3780 -0.2595  1.5600
 3659TIP3   OH232535   3.070   2.884   0.445 -0.6667 -0.8816  0.4969
 3659TIP3    H132536   3.095   2.949   0.380 -2.4772 -0.4129  0.2108
 3659TIP3    H232537   3.040   2.936   0.520  0.5395 -1.4163  1.3853
 3660TIP3   OH232538   2.291   2.780   1.992 -0.3659 -0.1516  0.9033
 3660TIP3    H132539   2.251   2.830   1.920 -0.4420 -0.7201  0.5470
 3660TIP3    H232540   2.275   2.833   2.070 -2.3844 -0.6449  0.8721
 3661TIP3   OH232541   0.775   1.120   1.720  0.0139 -0.5393 -0.0314
 3661TIP3    H132542   0.849   1.100   1.778 -0.4243  0.1122  0.7745
 3661TIP3    H232543   0.793   1.070   1.641  1.9845  0.5848 -0.3588
 3662TIP3   OH232544   2.698   1.728   1.442  0.3856 -0.1551 -0.0101
 3662TIP3    H132545   2.609   1.695   1.451 -0.0902  0.9340 -0.4622
 3662TIP3    H232546   2.699   1.769   1.355  1.8470 -1.6558 -0.7572
 3663TIP3   OH232547   1.483   0.537   0.723  0.0231 -0.0939 -0.2850
 3663TIP3    H132548   1.448   0.448   0.720 -0.0606 -0.0438 -0.8325
 3663TIP3    H232549   1.423   0.589   0.670  0.3302  0.2013 -0.3518
 3664TIP3   OH232550   4.989   3.286   2.942  0.2268  0.3314 -0.1309
 3664TIP3    H132551   4.989   3.378   2.916  0.0914 -0.3336 -2.7843
 3664TIP3    H232552   5.081   3.260   2.938  0.0210 -0.3270 -2.4574
 3665TIP3   OH232553   2.676   6.770   1.197  0.6690 -0.5877  0.2534
 3665TIP3    H132554   2.649   6.781   1.288 -1.1203 -0.9257 -0.1999
 3665TIP3    H232555   2.595   6.749   1.150  1.7613 -1.8289 -1.1826
 3666TIP3   OH232556   3.941   0.308   3.581  0.0534  0.1663  0.1871
 3666TIP3    H132557   3.896   0.225   3.594 -0.5427  0.4523  0.0132
 3666TIP3    H232558   3.884   0.357   3.521  0.8165  0.3723 -0.3794
 3667TIP3   OH232559   4.353   0.485   0.804  0.7087  0.1337 -0.2050
 3667TIP3    H132560   4.447   0.487   0.818  0.5867 -0.4966  0.8235
 3667TIP3    H232561   4.327   0.577   0.804  1.5623  0.4345 -2.4805
 3668TIP3   OH232562   3.523   1.661   8.722 -0.0558 -0.3160  0.4903
 3668TIP3    H132563   3.593   1.703   8.771 -0.5338 -0.2248  1.1181
 3668TIP3    H232564   3.535   1.690   8.632  0.5867 -0.1394  0.6321
 3669TIP3   OH232565   3.076   2.690   3.503  0.2585  0.3697  0.2037
 3669TIP3    H132566   2.995   2.739   3.518  0.3052  0.5862 -0.2424
 3669TIP3    H232567   3.114   2.680   3.590  0.1511  0.9641  0.3207
 3670TIP3   OH232568   6.641   3.242   0.379  0.0996  0.1783  0.3929
 3670TIP3    H132569   6.674   3.331   0.369  1.5375 -0.1067  2.0697
 3670TIP3    H232570   6.694   3.189   0.319  1.1381  0.0820  1.3592
 3671TIP3   OH232571   3.661   6.165   1.690 -0.3658 -0.3114 -0.5722
 3671TIP3    H132572   3.694   6.112   1.763  0.4088 -0.7868 -1.2534
 3671TIP3    H232573   3.698   6.124   1.612 -0.6576  0.5820 -1.1915
 3672TIP3   OH232574   4.339   4.389   1.570 -0.3164 -0.0834 -0.3308
 3672TIP3    H132575   4.382   4.470   1.544 -0.3088  0.0997  0.2553
 3672TIP3    H232576   4.393   4.354   1.640  0.8618 -1.6732 -1.9250
 3673TIP3   OH232577   6.177   3.009   4.053  0.2228  0.9128 -0.4927
 3673TIP3    H132578   6.129   3.003   4.136  1.1936  1.8441  0.1613
 3673TIP3    H232579   6.171   3.102   4.029  2.5489  1.2951  0.1622
 3674TIP3   OH232580   2.757   4.390   1.820 -0.0741  0.2283  0.2430
 3674TIP3    H132581   2.823   4.335   1.863  0.0518  0.2911  0.1309
 3674TIP3    H232582   2.711   4.330   1.761 -0.7887 -0.0396  1.0563
 3675TIP3   OH232583   0.960   2.387   3.024 -0.1694  0.8059 -0.7494
 3675TIP3    H132584   0.950   2.338   3.106  0.1698  0.8187 -0.6972
 3675TIP3    H232585   0.959   2.320   2.956 -0.9192  0.8367 -0.7723
 3676TIP3   OH232586   1.625   3.057   2.521 -0.2430  0.0803  0.1645
 3676TIP3    H132587   1.682   3.085   2.592  0.3719 -1.3728  0.2843
 3676TIP3    H232588   1.538   3.051   2.560 -0.2621  1.0717  0.3028
 3677TIP3   OH232589   3.628   5.793   2.685  0.0090  0.1686 -0.3573
 3677TIP3    H132590   3.719   5.791   2.655  0.3281 -0.6815  0.6430
 3677TIP3    H232591   3.631   5.841   2.768 -0.3135 -0.6543  0.1341
 3678TIP3   OH232592   2.221   3.851   0.324  0.0115 -0.2714  0.0055
 3678TIP3    H132593   2.276   3.899   0.262  1.9347 -0.7729  1.2130
 3678TIP3    H232594   2.225   3.760   0.294 -1.6577 -0.0786 -0.9024
 3679TIP3   OH232595   2.420   6.739   3.995  0.6936  0.4582  0.1351
 3679TIP3    H132596   2.458   6.774   4.076 -1.2267 -0.5482  1.5529
 3679TIP3    H232597   2.427   6.644   4.004  1.5296  0.3540 -1.4560
 3680TIP3   OH232598   6.139   2.872   2.825  0.4674  0.2844 -0.2931
 3680TIP3    H132599   6.153   2.956   2.868  3.7854 -0.8563  1.1128
 3680TIP3    H232600   6.127   2.809   2.897 -1.2193 -0.6077 -1.2911
 3681TIP3   OH232601   3.045   6.232   8.657  0.2923  0.8011  0.3407
 3681TIP3    H132602   2.982   6.178   8.705  0.4184  1.6409  1.5017
 3681TIP3    H232603   3.005   6.319   8.655  1.2476  1.2725  0.8120
 3682TIP3   OH232604   2.725   5.191   2.331  0.0531  0.4236  0.2742
 3682TIP3    H132605   2.733   5.097   2.313  0.6734  0.6842 -0.9536
 3682TIP3    H232606   2.738   5.199   2.425 -0.0067 -0.7207  0.3914
 3683TIP3   OH232607   4.406   4.404   1.187 -0.1194  0.2778 -0.0860
 3683TIP3    H132608   4.328   4.382   1.136  0.7029  0.4286 -1.4805
 3683TIP3    H232609   4.412   4.500   1.181 -1.1899  0.5384  2.1508
 3684TIP3   OH232610   0.598   6.077   2.345  0.7552  0.2242  0.2138
 3684TIP3    H132611   0.534   6.033   2.290  0.2077  0.5574  0.5796
 3684TIP3    H232612   0.681   6.065   2.299  0.6815 -1.4164  0.4272
 3685TIP3   OH232613   0.213   1.625   3.094  0.4518  0.1785 -0.5857
 3685TIP3    H132614   0.219   1.680   3.016  0.1270  0.3324 -0.5052
 3685TIP3    H232615   0.262   1.673   3.161 -1.0939  1.1356 -0.0938
 3686TIP3   OH232616   2.535   4.268   0.103  0.0598 -0.2700  0.3712
 3686TIP3    H132617   2.455   4.287   0.054 -1.2513 -3.0483  1.2414
 3686TIP3    H232618   2.605   4.283   0.041 -1.2597  0.2945 -1.0481
 3687TIP3   OH232619   1.800   3.542   0.413 -0.1303  0.0687 -0.0260
 3687TIP3    H132620   1.754   3.582   0.339  0.6170  0.6248 -0.2004
 3687TIP3    H232621   1.873   3.601   0.431 -1.8853  1.5070  3.0502
 3688TIP3   OH232622   4.812   3.222   4.474  0.2727 -0.5156  0.3035
 3688TIP3    H132623   4.822   3.289   4.542  1.1898  1.1514 -1.4034
 3688TIP3    H232624   4.871   3.151   4.502  0.5742  0.0906  1.2619
 3689TIP3   OH232625   3.884   1.182   1.759  0.3050  0.1701 -0.3584
 3689TIP3    H132626   3.856   1.272   1.774  1.3611  0.2161  1.6515
 3689TIP3    H232627   3.979   1.185   1.764  0.4250 -0.8929 -1.4557
 3690TIP3   OH232628   2.472   6.402   2.741  0.5022 -0.5521  0.4241
 3690TIP3    H132629   2.511   6.473   2.691 -0.2946  0.3786  1.0931
 3690TIP3    H232630   2.427   6.349   2.675  0.5629 -0.0871 -0.0004
 3691TIP3   OH232631   5.954   4.167   3.287  0.0881  0.0268 -0.5569
 3691TIP3    H132632   5.991   4.239   3.338  0.2492 -1.4037  1.4254
 3691TIP3    H232633   6.027   4.137   3.233  0.5498  0.1502 -0.0139
 3692TIP3   OH232634   6.516   2.356   3.856 -0.3781 -0.3281  0.0592
 3692TIP3    H132635   6.460   2.430   3.879  1.1749  1.1759 -0.7942
 3692TIP3    H232636   6.505   2.294   3.929  0.6098  2.1069  2.4543
 3693TIP3   OH232637   4.372   1.108   0.924 -0.3011 -0.2476  0.1207
 3693TIP3    H132638   4.328   1.047   0.865 -0.4431 -0.1485  0.1244
 3693TIP3    H232639   4.465   1.101   0.901 -0.3562 -0.2083 -0.1173
 3694TIP3   OH232640   2.574   5.604   2.309  0.0963 -0.1010  0.2035
 3694TIP3    H132641   2.574   5.689   2.264  0.6785  0.8153  1.8710
 3694TIP3    H232642   2.635   5.551   2.259 -0.5371  0.3207 -1.0740
 3695TIP3   OH232643   2.300   1.599   3.863 -0.2969  0.5325 -0.4448
 3695TIP3    H132644   2.257   1.531   3.812 -2.4799  1.4888 -0.0107
 3695TIP3    H232645   2.289   1.570   3.954 -0.9756  1.2821 -0.2771
 3696TIP3   OH232646   5.722   2.742   1.251  0.1319 -0.4480 -0.3240
 3696TIP3    H132647   5.668   2.817   1.276 -0.9730 -1.0863 -0.7434
 3696TIP3    H232648   5.686   2.669   1.301  1.3570 -0.6753  0.2696
 3697TIP3   OH232649   3.337   0.777   1.661 -0.6262 -0.2347  0.6601
 3697TIP3    H132650   3.287   0.706   1.701 -0.6610 -0.0849  0.8837
 3697TIP3    H232651   3.273   0.846   1.647 -0.4139  0.0914  1.2765
 3698TIP3   OH232652   1.314   1.081   0.679 -0.0858 -0.3934 -0.0741
 3698TIP3    H132653   1.230   1.124   0.692 -0.8993 -1.1937 -2.1728
 3698TIP3    H232654   1.365   1.104   0.756 -1.8998  0.8710  0.8286
 3699TIP3   OH232655   6.704   3.522   0.490 -0.3548  0.1458  0.2857
 3699TIP3    H132656   6.730   3.601   0.538 -2.6781  0.2968  1.4542
 3699TIP3    H232657   6.754   3.452   0.532 -0.3407  0.6393  1.1225
 3700TIP3   OH232658   6.410   2.739   0.753 -0.3813  0.3654 -0.8472
 3700TIP3    H132659   6.401   2.645   0.739  0.0836  0.7276 -4.2115
 3700TIP3    H232660   6.463   2.746   0.833 -0.9432 -2.1533 -0.1517
 3701TIP3   OH232661   6.710   0.576   4.936 -0.2468 -0.4572 -0.0554
 3701TIP3    H132662   6.761   0.540   5.008 -0.3242  0.3307  0.4134
 3701TIP3    H232663   6.776   0.610   4.875 -0.1830 -1.0168 -0.3006
 3702TIP3   OH232664   4.348   4.825   0.502 -0.5316 -0.4530  0.0795
 3702TIP3    H132665   4.371   4.871   0.421  0.0411  0.2798  0.6430
 3702TIP3    H232666   4.362   4.732   0.482  0.0841 -0.2425 -0.5036
 3703TIP3   OH232667   2.645   2.428   2.297 -0.5291  0.1664  0.7081
 3703TIP3    H132668   2.713   2.396   2.355 -1.2703  0.3029  1.6856
 3703TIP3    H232669   2.582   2.356   2.291 -0.7763  0.3853  0.6055
 3704TIP3   OH232670   6.571   3.887   1.496 -0.2288  0.1095 -0.1985
 3704TIP3    H132671   6.588   3.969   1.542 -0.6197 -0.0809  0.2889
 3704TIP3    H232672   6.512   3.838   1.553  1.1977 -1.1789  0.2345
 3705TIP3   OH232673   0.485   0.822   2.360 -0.1370 -0.2243  0.3544
 3705TIP3    H132674   0.551   0.821   2.429  0.3530 -1.6412 -0.1159
 3705TIP3    H232675   0.422   0.755   2.386 -1.8307  1.5588  1.1586
 3706TIP3   OH232676   5.762   6.075   2.989 -0.0003 -0.8915  0.2932
 3706TIP3    H132677   5.685   6.033   2.949  0.5805 -1.3677 -0.3506
 3706TIP3    H232678   5.758   6.166   2.958 -0.8945 -0.6187  1.1508
 3707TIP3   OH232679   5.224   1.504   4.103  0.1669  0.1390  0.1319
 3707TIP3    H132680   5.253   1.443   4.035  0.3060 -1.7259  1.7648
 3707TIP3    H232681   5.275   1.584   4.087  0.5998 -0.4313 -1.5764
 3708TIP3   OH232682   1.145   1.309   1.856 -0.5016 -0.1244 -0.2518
 3708TIP3    H132683   1.178   1.357   1.933 -0.3063 -0.1308 -0.3303
 3708TIP3    H232684   1.189   1.350   1.782 -1.5775  0.6535 -0.4748
 3709TIP3   OH232685   3.863   2.368   1.996  0.2159 -0.0810  0.0809
 3709TIP3    H132686   3.772   2.343   2.010 -0.7411  3.3112  0.7977
 3709TIP3    H232687   3.894   2.397   2.081  2.1159 -1.3779 -0.1003
 3710TIP3   OH232688   6.469   6.401   3.298  0.4387 -0.4574 -0.1630
 3710TIP3    H132689   6.508   6.479   3.258 -0.0308  0.7916  1.6997
 3710TIP3    H232690   6.378   6.402   3.270  0.7621 -1.1757 -1.3073
 3711TIP3   OH232691   3.616   5.279   3.782  0.0484  0.3818 -0.3080
 3711TIP3    H132692   3.541   5.335   3.800 -0.1243 -0.1214  0.6274
 3711TIP3    H232693   3.674   5.332   3.728  0.0478  1.5996  0.8567
 3712TIP3   OH232694   4.227   4.894   4.049  0.2183  0.1054 -0.4393
 3712TIP3    H132695   4.182   4.978   4.048  0.6989  0.3593 -0.8123
 3712TIP3    H232696   4.217   4.860   3.960 -0.4336 -0.4852 -0.1573
 3713TIP3   OH232697   5.688   4.489   4.397 -0.8939  0.5031  0.5331
 3713TIP3    H132698   5.612   4.465   4.343 -1.0951 -0.4946  1.2387
 3713TIP3    H232699   5.749   4.530   4.335 -3.3987  4.6919  0.5130
 3714TIP3   OH232700   6.430   3.885   1.935  1.0479 -0.2020 -0.2239
 3714TIP3    H132701   6.517   3.920   1.912  1.3680 -0.4511  0.5676
 3714TIP3    H232702   6.375   3.962   1.945  0.9798 -0.0747 -1.4855
 3715TIP3   OH232703   5.553   0.544   4.694  0.1247 -0.0172 -0.1914
 3715TIP3    H132704   5.505   0.616   4.652 -2.2287 -1.6242 -0.4868
 3715TIP3    H232705   5.492   0.511   4.760  1.3670 -1.3844  0.3017
 3716TIP3   OH232706   0.561   3.930   0.960 -0.1669 -0.4639 -0.4645
 3716TIP3    H132707   0.552   4.019   0.993  1.1964 -0.3592 -0.2930
 3716TIP3    H232708   0.471   3.899   0.947 -0.6578  0.8051 -0.1967
 3717TIP3   OH232709   4.835   1.734   0.632  0.1862 -0.2355  0.2321
 3717TIP3    H132710   4.769   1.708   0.567  1.3818 -0.5429 -0.9085
 3717TIP3    H232711   4.825   1.829   0.639 -0.6691 -0.3309  0.4069
 3718TIP3   OH232712   3.221   0.546   1.724  0.0546  0.4740 -0.1746
 3718TIP3    H132713   3.303   0.504   1.698 -0.3112 -0.5433  0.2427
 3718TIP3    H232714   3.159   0.521   1.655 -0.3147 -0.1922  0.3838
 3719TIP3   OH232715   0.013   2.767   0.167  0.1074 -0.3343 -0.0058
 3719TIP3    H132716   0.013   2.818   0.086  0.2758  0.8656  0.7267
 3719TIP3    H232717   0.087   2.707   0.158  1.6655  1.4455  0.2400
 3720TIP3   OH232718   6.285   5.005   2.125  0.1878  0.3637  0.1540
 3720TIP3    H132719   6.354   5.068   2.106 -0.6113  1.3207  0.3808
 3720TIP3    H232720   6.204   5.048   2.097 -0.4385 -0.2820  0.9268
 3721TIP3   OH232721   2.313   6.612   0.845  0.0729 -0.1647 -0.4939
 3721TIP3    H132722   2.234   6.660   0.821  0.3514  0.1649 -0.7629
 3721TIP3    H232723   2.325   6.548   0.774 -0.6931 -1.1259  0.2181
 3722TIP3   OH232724   4.698   4.182   0.101  0.0467 -0.1251  0.3716
 3722TIP3    H132725   4.743   4.260   0.069  0.5073 -0.2486  0.7147
 3722TIP3    H232726   4.720   4.114   0.039 -0.0377 -0.0777  0.2891
 3723TIP3   OH232727   3.045   3.214   1.638 -0.0043 -0.0298  0.0293
 3723TIP3    H132728   3.058   3.218   1.732  1.0086  1.6669 -0.1379
 3723TIP3    H232729   2.952   3.233   1.625  0.3259  2.3873  0.6195
 3724TIP3   OH232730   5.348   1.739   1.894 -0.2862  0.2184  0.0999
 3724TIP3    H132731   5.424   1.701   1.851  0.8209  1.2499  1.0793
 3724TIP3    H232732   5.354   1.833   1.875  0.1147  0.6789  2.2517
 3725TIP3   OH232733   2.973   2.298   1.551 -0.0366  0.1475  0.3211
 3725TIP3    H132734   2.912   2.331   1.616  0.2974 -1.4556  1.5094
 3725TIP3    H232735   2.934   2.321   1.467 -1.1613  1.0568  1.0751
 3726TIP3   OH232736   1.638   2.905   3.032  0.0637 -0.2920  0.0750
 3726TIP3    H132737   1.669   2.847   3.101  0.1173  0.0460  0.3319
 3726TIP3    H232738   1.620   2.846   2.958  0.4434 -0.5941  0.2229
 3727TIP3   OH232739   5.431   4.921   1.525  0.7136 -0.1883  0.4981
 3727TIP3    H132740   5.497   4.983   1.554 -0.3697  1.3050 -0.1004
 3727TIP3    H232741   5.447   4.911   1.431 -1.5419  2.3959 -0.2760
 3728TIP3   OH232742   0.777   6.482   3.778  0.2851 -0.1356 -0.1577
 3728TIP3    H132743   0.766   6.431   3.698 -1.3601 -1.2588  0.7076
 3728TIP3    H232744   0.854   6.537   3.762  0.4686 -0.9007 -2.1781
 3729TIP3   OH232745   3.014   1.172   4.846  0.4534 -0.1787 -0.4326
 3729TIP3    H132746   3.091   1.133   4.887 -0.7482  0.2126  2.4590
 3729TIP3    H232747   3.046   1.254   4.809  1.5342 -0.2468  0.2944
 3730TIP3   OH232748   5.256   1.138   2.190  0.4925  0.5927  0.2512
 3730TIP3    H132749   5.263   1.058   2.241  1.5768 -0.8652 -2.0518
 3730TIP3    H232750   5.169   1.173   2.212 -0.9114 -2.3473 -0.2446
 3731TIP3   OH232751   1.473   3.824   0.068  0.7656  0.1721 -0.0668
 3731TIP3    H132752   1.398   3.878   0.044  0.2817 -0.9349 -1.1649
 3731TIP3    H232753   1.546   3.885   0.075 -0.1003  1.1839  0.4187
 3732TIP3   OH232754   0.101   0.515   2.185 -0.0807 -0.4444 -0.2729
 3732TIP3    H132755   0.127   0.565   2.107  0.6608  1.3155  1.0460
 3732TIP3    H232756   0.147   0.431   2.176 -0.1748 -0.3603 -1.8185
 3733TIP3   OH232757   3.753   3.227   0.838 -0.1026  0.7345 -0.0874
 3733TIP3    H132758   3.848   3.224   0.825  0.0312 -0.0630  0.9485
 3733TIP3    H232759   3.717   3.234   0.750  0.9494  2.1935 -0.4316
 3734TIP3   OH232760   0.515   2.854   3.613 -0.3489  0.1101  0.4054
 3734TIP3    H132761   0.470   2.777   3.648 -0.2511  0.1489  0.6154
 3734TIP3    H232762   0.451   2.925   3.620  0.2971  0.5497  2.2626
 3735TIP3   OH232763   3.218   1.169   1.217 -0.7197  0.1303 -0.0049
 3735TIP3    H132764   3.209   1.085   1.263  2.9988 -1.3638 -1.5858
 3735TIP3    H232765   3.302   1.203   1.247  0.1902  0.7804 -2.9592
 3736TIP3   OH232766   5.107   1.752   3.706 -0.3686 -0.1117 -0.6687
 3736TIP3    H132767   5.095   1.773   3.799 -0.6715 -0.6699 -0.5732
 3736TIP3    H232768   5.186   1.799   3.680  0.7911 -1.4314  0.3593
 3737TIP3   OH232769   4.263   6.645   2.449 -0.1217 -0.2312 -0.1374
 3737TIP3    H132770   4.253   6.663   2.356 -0.2278 -1.7039 -0.4285
 3737TIP3    H232771   4.178   6.664   2.487 -0.9732 -2.3492 -0.8417
 3738TIP3   OH232772   5.362   3.109   1.641  0.5289  0.1267  0.2963
 3738TIP3    H132773   5.294   3.067   1.693 -0.3549  1.1475  0.0195
 3738TIP3    H232774   5.395   3.040   1.584 -1.6907  0.0028 -0.9624
 3739TIP3   OH232775   0.961   5.545   1.142 -0.3630  0.4064  0.0215
 3739TIP3    H132776   1.033   5.608   1.144 -1.3082  1.5729 -1.3787
 3739TIP3    H232777   0.884   5.596   1.118 -1.8525 -0.6772  2.1858
 3740TIP3   OH232778   3.518   0.466   1.009  0.1562 -0.1604  0.3030
 3740TIP3    H132779   3.557   0.443   0.925  1.3912  1.3069  0.4315
 3740TIP3    H232780   3.437   0.511   0.987  0.1071 -0.4294 -0.0716
 3741TIP3   OH232781   6.697   0.797   0.544 -0.8371 -0.2694  0.0347
 3741TIP3    H132782   6.627   0.824   0.603 -0.9306 -2.4811  1.0106
 3741TIP3    H232783   6.652   0.765   0.466 -0.9221 -1.2397  0.4691
 3742TIP3   OH232784   4.177   1.454   3.631 -0.4856  0.2602 -0.8567
 3742TIP3    H132785   4.230   1.440   3.709 -0.4567  0.9329 -0.7503
 3742TIP3    H232786   4.182   1.548   3.615  0.1499  0.0344 -2.1196
 3743TIP3   OH232787   4.768   0.262   3.664  0.0268  0.1651 -0.0400
 3743TIP3    H132788   4.715   0.278   3.586 -0.6578  0.5258  0.4825
 3743TIP3    H232789   4.783   0.349   3.700  1.8323  0.1639 -0.7089
 3744TIP3   OH232790   3.201   3.063   4.591  0.3916 -0.0311  0.6473
 3744TIP3    H132791   3.159   3.058   4.677 -0.7225 -1.4138  0.0627
 3744TIP3    H232792   3.276   3.122   4.605  0.4046 -0.4190  2.6248
 3745TIP3   OH232793   2.402   0.523   4.197 -0.0194  0.0412 -0.5553
 3745TIP3    H132794   2.313   0.557   4.205 -0.2221 -0.4781 -0.5808
 3745TIP3    H232795   2.404   0.445   4.253  0.1647 -0.4476 -1.2269
 3746TIP3   OH232796   6.127   5.101   3.971 -0.3423  0.0885  0.1406
 3746TIP3    H132797   6.149   5.009   3.985 -0.6999  0.2715  2.0779
 3746TIP3    H232798   6.174   5.124   3.891  0.4610 -1.5321  0.1022
 3747TIP3   OH232799   1.978   1.777   2.039  0.2334  0.1897 -0.8341
 3747TIP3    H132800   2.039   1.712   2.006 -0.6325 -0.7130 -0.7242
 3747TIP3    H232801   1.947   1.823   1.962  1.1466  0.7598 -0.8761
 3748TIP3   OH232802   5.836   0.152   1.236 -0.2822  0.0794 -0.2828
 3748TIP3    H132803   5.927   0.155   1.205  0.6713  0.3848  2.3475
 3748TIP3    H232804   5.786   0.129   1.158  2.1986 -1.5551 -1.5392
 3749TIP3   OH232805   4.432   3.175   1.606 -0.1602  0.1759  0.4359
 3749TIP3    H132806   4.389   3.135   1.682  0.2207 -0.3558  0.3794
 3749TIP3    H232807   4.458   3.100   1.552  0.4121  0.5128  0.2412
 3750TIP3   OH232808   1.251   4.190   3.067  0.0597  1.0196 -0.0008
 3750TIP3    H132809   1.229   4.195   2.974  0.7546  0.6854 -0.1946
 3750TIP3    H232810   1.336   4.234   3.073  0.1188  0.8422  0.4376
 3751TIP3   OH232811   1.517   3.860   2.917  0.2526  0.0763  0.2736
 3751TIP3    H132812   1.590   3.798   2.917  0.5054  0.3235 -1.4176
 3751TIP3    H232813   1.540   3.924   2.984  0.4729 -1.0851  1.3447
 3752TIP3   OH232814   4.655   4.555   4.031  0.5535  0.7113 -0.3208
 3752TIP3    H132815   4.730   4.609   4.054  0.2940  0.8970  0.1147
 3752TIP3    H232816   4.594   4.567   4.104 -0.1883  1.1052 -0.9898
 3753TIP3   OH232817   2.325   2.575   2.397  0.4401  0.1128  0.2541
 3753TIP3    H132818   2.250   2.635   2.397  0.8905  0.6833  0.4968
 3753TIP3    H232819   2.330   2.543   2.307  0.2516  0.5121  0.0980
 3754TIP3   OH232820   2.435   1.817   8.628 -0.2228 -0.1282  0.3933
 3754TIP3    H132821   2.483   1.773   8.698 -0.8354 -0.6312  0.4990
 3754TIP3    H232822   2.439   1.757   8.554 -0.0092  0.1839  0.1457
 3755TIP3   OH232823   5.716   2.286   1.248  0.2095  0.4406  0.2692
 3755TIP3    H132824   5.779   2.238   1.302 -0.0730  1.2629  1.3609
 3755TIP3    H232825   5.630   2.255   1.278  0.0562 -0.0712 -0.6489
 3756TIP3   OH232826   0.212   3.421   0.845 -0.0487 -0.0052  0.5824
 3756TIP3    H132827   0.230   3.328   0.831  0.7789  0.0828  0.9696
 3756TIP3    H232828   0.122   3.433   0.816 -0.3439 -1.0371  1.0176
 3757TIP3   OH232829   6.241   5.629   1.853  0.0088 -0.3043  0.3233
 3757TIP3    H132830   6.226   5.713   1.897  0.9130 -0.5677  1.1789
 3757TIP3    H232831   6.155   5.587   1.852 -0.5704  0.8497 -0.6267
 3758TIP3   OH232832   6.283   4.105   1.957 -0.3433 -0.0563  0.0319
 3758TIP3    H132833   6.235   4.105   1.874  0.9100  0.5766 -0.7305
 3758TIP3    H232834   6.215   4.095   2.024 -1.3637 -0.7632 -1.0687
 3759TIP3   OH232835   0.439   5.246   2.417 -0.6233 -0.4664  0.6087
 3759TIP3    H132836   0.375   5.184   2.384 -1.8531  0.3903  1.3211
 3759TIP3    H232837   0.470   5.293   2.340 -0.4085 -1.2677  0.1955
 3760TIP3   OH232838   2.223   2.337   1.309 -0.3902  0.5854  0.1102
 3760TIP3    H132839   2.277   2.416   1.315  0.6379 -0.1193  0.3028
 3760TIP3    H232840   2.146   2.356   1.364 -0.3036  1.5594 -0.0917
 3761TIP3   OH232841   5.475   1.551   3.330  0.2645 -0.3556  0.1985
 3761TIP3    H132842   5.515   1.608   3.396 -1.4589 -0.7947  1.7268
 3761TIP3    H232843   5.463   1.608   3.254 -0.1286  0.9618  1.1919
 3762TIP3   OH232844   0.844   1.281   3.435  0.3267 -0.1163 -0.3350
 3762TIP3    H132845   0.871   1.217   3.501 -1.1579 -0.7130 -0.2612
 3762TIP3    H232846   0.926   1.308   3.392  1.2169 -0.3932  1.1177
 3763TIP3   OH232847   0.594   1.151   2.787 -0.0553  0.7000 -1.1137
 3763TIP3    H132848   0.660   1.219   2.798 -0.2615  0.7340  0.0949
 3763TIP3    H232849   0.511   1.198   2.776 -0.3030  0.6876  0.4154
 3764TIP3   OH232850   2.090   1.737   2.298 -0.3225 -0.0562  0.5895
 3764TIP3    H132851   2.129   1.650   2.286  1.7695  1.0634 -1.8254
 3764TIP3    H232852   2.060   1.761   2.210 -1.2720  1.4902  1.3020
 3765TIP3   OH232853   4.148   5.383   3.420 -0.0140 -0.1004 -0.0262
 3765TIP3    H132854   4.107   5.445   3.359 -2.1157 -0.4105  0.9828
 3765TIP3    H232855   4.119   5.297   3.390 -0.1077 -0.3303  0.7086
 3766TIP3   OH232856   6.249   6.583   1.750 -0.5497 -0.0956 -0.1562
 3766TIP3    H132857   6.283   6.557   1.835  0.5619  0.7447 -0.3271
 3766TIP3    H232858   6.299   6.530   1.687 -2.0327 -1.4381 -0.2939
 3767TIP3   OH232859   4.346   1.926   3.409  0.1771 -0.2806  0.7423
 3767TIP3    H132860   4.274   1.949   3.467  0.3765  0.9810  0.5020
 3767TIP3    H232861   4.339   1.831   3.399 -1.1191 -0.2416  1.1507
 3768TIP3   OH232862   3.271   2.999   2.396  0.1018  0.4568 -0.3195
 3768TIP3    H132863   3.195   3.056   2.407  0.5064  0.5930  2.2895
 3768TIP3    H232864   3.235   2.915   2.370 -1.1321  0.1639  2.0909
 3769TIP3   OH232865   2.492   5.975   0.485 -0.1615 -0.7067  0.0018
 3769TIP3    H132866   2.461   5.922   0.558  1.8787  0.8547  2.1246
 3769TIP3    H232867   2.583   5.948   0.472  0.1056  0.4145 -0.6144
 3770TIP3   OH232868   2.196   5.273   1.988  0.3728 -0.8423  0.2024
 3770TIP3    H132869   2.142   5.231   2.054  1.8193  0.6307  2.4384
 3770TIP3    H232870   2.141   5.273   1.909 -2.2512 -0.8207  1.9088
 3771TIP3   OH232871   4.778   4.477   3.790 -0.2038 -0.1912  0.1645
 3771TIP3    H132872   4.858   4.476   3.843 -0.8807  0.9848  1.2535
 3771TIP3    H232873   4.707   4.480   3.854 -1.1845 -1.9162 -0.7628
 3772TIP3   OH232874   2.901   3.265   0.790 -0.2800 -0.2436  0.7766
 3772TIP3    H132875   2.811   3.290   0.769  0.4943  1.9303 -0.2222
 3772TIP3    H232876   2.949   3.348   0.789  1.7643 -1.3803  1.1669
 3773TIP3   OH232877   0.212   2.073   1.092 -0.6226  0.0926 -0.1127
 3773TIP3    H132878   0.221   2.137   1.021  1.4202 -1.5435 -1.4634
 3773TIP3    H232879   0.302   2.051   1.116 -1.2779 -0.5794  1.9448
 3774TIP3   OH232880   4.814   2.898   2.201 -0.0426  0.5922 -0.1736
 3774TIP3    H132881   4.839   2.928   2.288  2.4080 -1.1946 -0.1515
 3774TIP3    H232882   4.719   2.895   2.203 -0.0569 -0.1891  2.7477
 3775TIP3   OH232883   6.404   3.531   0.360  0.5765 -0.1026 -0.2282
 3775TIP3    H132884   6.487   3.577   0.369  0.7197 -0.3983 -0.0052
 3775TIP3    H232885   6.418   3.447   0.404 -0.3049  0.4432  1.1742
 3776TIP3   OH232886   2.677   5.475   1.204  0.1767  0.0706 -0.0321
 3776TIP3    H132887   2.695   5.545   1.142 -2.3931  0.5865 -0.3164
 3776TIP3    H232888   2.594   5.438   1.175  0.3541 -1.6230  1.4215
 3777TIP3   OH232889   4.356   6.453   4.626  0.1990 -0.5473  0.4411
 3777TIP3    H132890   4.363   6.373   4.679  2.6231 -0.3355  0.5506
 3777TIP3    H232891   4.386   6.522   4.684  0.6675  0.0475 -0.5003
 3778TIP3   OH232892   3.999   0.109   1.162  0.7418  0.8011  0.4378
 3778TIP3    H132893   4.011   0.202   1.179 -0.2606  0.8496  0.9608
 3778TIP3    H232894   3.994   0.069   1.249  2.6279  0.0260  0.2423
 3779TIP3   OH232895   5.736   3.758   3.984  0.0733 -0.0364  0.8931
 3779TIP3    H132896   5.655   3.720   4.017 -0.3679  0.0788 -0.0029
 3779TIP3    H232897   5.732   3.743   3.889  0.7648  0.5817  0.7560
 3780TIP3   OH232898   0.199   3.305   2.012 -0.3974 -0.1715 -0.2175
 3780TIP3    H132899   0.231   3.375   1.956 -1.5993  1.6332  1.2036
 3780TIP3    H232900   0.106   3.299   1.991 -0.4967 -0.6915  0.3495
 3781TIP3   OH232901   2.028   6.531   0.947 -0.3842  0.3351 -0.2050
 3781TIP3    H132902   2.049   6.438   0.958 -1.2002  0.2533  0.8876
 3781TIP3    H232903   2.076   6.557   0.869  0.3047 -0.8685 -0.2195
 3782TIP3   OH232904   5.630   1.257   0.774 -0.5984  0.3703 -0.2211
 3782TIP3    H132905   5.717   1.241   0.812  0.7665  0.6132 -2.9717
 3782TIP3    H232906   5.613   1.349   0.792 -0.7111  0.1034  1.0973
 3783TIP3   OH232907   2.448   6.386   0.675 -0.5773 -0.2095  0.6398
 3783TIP3    H132908   2.506   6.463   0.678  0.7666 -1.2095  1.8295
 3783TIP3    H232909   2.421   6.380   0.584  0.1887  1.0266  0.3030
 3784TIP3   OH232910   1.235   5.062   3.821  0.4384 -0.5109 -0.1161
 3784TIP3    H132911   1.243   5.004   3.745  0.3041 -0.7675  0.0654
 3784TIP3    H232912   1.259   5.007   3.896 -1.7622 -0.9640  0.3172
 3785TIP3   OH232913   2.248   1.918   1.878 -0.3103 -0.3132 -0.1544
 3785TIP3    H132914   2.228   1.838   1.927 -3.0148 -0.1283 -0.8155
 3785TIP3    H232915   2.282   1.887   1.794 -1.4072 -0.7877 -0.4311
 3786TIP3   OH232916   2.775   6.668   3.134  0.2730 -0.3650  0.0181
 3786TIP3    H132917   2.752   6.602   3.068  0.8954 -1.0451  0.4673
 3786TIP3    H232918   2.843   6.627   3.187 -0.3694  0.0860  1.2303
 3787TIP3   OH232919   0.048   4.761   2.746 -0.2019 -0.2536  0.5693
 3787TIP3    H132920   0.077   4.853   2.748 -0.7455 -0.0417 -0.5625
 3787TIP3    H232921  -0.040   4.764   2.708 -0.2804 -1.2343  0.6469
 3788TIP3   OH232922   6.711   5.016   1.343 -0.6354 -0.1416  0.5433
 3788TIP3    H132923   6.620   5.036   1.321 -1.6983 -3.5481  1.2684
 3788TIP3    H232924   6.715   5.029   1.438 -0.2031  0.4658  0.4462
 3789TIP3   OH232925   3.337   5.096   1.709 -0.1804 -0.0334 -0.0750
 3789TIP3    H132926   3.409   5.086   1.772  0.8015  0.2574 -1.1136
 3789TIP3    H232927   3.266   5.043   1.745  0.2840  0.2709  1.3713
 3790TIP3   OH232928   6.116   2.092   4.074 -0.8019 -0.2912  0.0480
 3790TIP3    H132929   6.206   2.062   4.072 -1.2770 -1.9212  1.0506
 3790TIP3    H232930   6.122   2.187   4.065  0.8713 -0.5053 -1.8547
 3791TIP3   OH232931   3.056   2.871   1.614  0.3648  0.1803  0.0638
 3791TIP3    H132932   3.002   2.900   1.540 -0.3837  1.0000  0.9018
 3791TIP3    H232933   3.059   2.776   1.605 -1.5122  0.0651  0.1397
 3792TIP3   OH232934   4.762   2.175   3.785  0.1133  0.4624  0.1194
 3792TIP3    H132935   4.796   2.090   3.812  0.8486  0.0541 -1.8912
 3792TIP3    H232936   4.769   2.230   3.863  0.3242 -1.0986  1.2540
 3793TIP3   OH232937   3.473   3.721   4.792 -0.2941  0.0479 -0.6017
 3793TIP3    H132938   3.522   3.757   4.866 -0.8024 -1.8328  0.7239
 3793TIP3    H232939   3.439   3.798   4.746 -1.1485  1.3227  1.9529
 3794TIP3   OH232940   6.234   2.041   1.567 -0.0277  0.2503  0.0133
 3794TIP3    H132941   6.290   2.117   1.586 -0.2180  0.2415  0.6234
 3794TIP3    H232942   6.238   1.988   1.646 -0.1098 -0.2479 -0.3145
 3795TIP3   OH232943   4.554   2.674   1.601  0.4987 -0.1613  0.4028
 3795TIP3    H132944   4.518   2.601   1.551  0.8020 -0.9369  1.2902
 3795TIP3    H232945   4.519   2.663   1.689 -1.1948  2.0089  0.0848
 3796TIP3   OH232946   1.523   6.461   1.812  0.6628  0.3024  0.0604
 3796TIP3    H132947   1.460   6.522   1.849  1.2485  0.7853  0.2744
 3796TIP3    H232948   1.604   6.512   1.803  0.9841 -0.2660 -0.3406
 3797TIP3   OH232949   5.948   2.844   8.546 -0.1442 -0.6273 -0.5317
 3797TIP3    H132950   5.944   2.826   8.640 -1.7963  0.7571 -0.2727
 3797TIP3    H232951   6.040   2.862   8.529 -0.0961  1.3241  1.3196
 3798TIP3   OH232952   2.079   2.516   8.860  0.2688 -0.4413  0.0355
 3798TIP3    H132953   2.004   2.467   8.894 -0.5299  0.6859 -0.0464
 3798TIP3    H232954   2.042   2.600   8.833  1.5793  0.1632  0.0608
 3799TIP3   OH232955   0.355   3.078   3.635  0.2584 -0.1600 -0.2857
 3799TIP3    H132956   0.387   3.168   3.633  2.5924 -0.9364 -1.0379
 3799TIP3    H232957   0.270   3.082   3.591 -1.5466  2.2469  3.0343
 3800TIP3   OH232958   1.331   2.878   3.955  0.1125 -0.1238 -0.2726
 3800TIP3    H132959   1.405   2.848   3.901  0.2492 -0.4158  0.0757
 3800TIP3    H232960   1.254   2.845   3.909  0.2553 -0.9150  0.0373
 3801TIP3   OH232961   6.613   4.132   4.698  0.1198 -0.2626  0.0821
 3801TIP3    H132962   6.637   4.056   4.752  1.8709  0.1471 -0.0598
 3801TIP3    H232963   6.663   4.204   4.736 -0.7834  0.6304 -0.3871
 3802TIP3   OH232964   5.534   0.939   1.844 -0.5476 -0.2190 -0.1766
 3802TIP3    H132965   5.464   0.886   1.882 -0.2086 -0.6259 -0.1221
 3802TIP3    H232966   5.609   0.880   1.838 -0.1006  0.3156  0.0963
 3803TIP3   OH232967   1.476   2.496   2.631 -0.1696 -0.4579 -0.0104
 3803TIP3    H132968   1.537   2.454   2.692  1.5194 -3.0774 -3.1577
 3803TIP3    H232969   1.531   2.557   2.582 -0.8343 -0.4022 -0.6927
 3804TIP3   OH232970   5.883   4.858   2.482  0.2567  0.1953  0.3646
 3804TIP3    H132971   5.871   4.827   2.392  0.4735 -1.7727  0.9519
 3804TIP3    H232972   5.870   4.953   2.477  1.1189  0.2526 -1.8686
 3805TIP3   OH232973   6.303   6.053   3.247  0.1491  0.1556  1.2596
 3805TIP3    H132974   6.347   6.020   3.325 -0.4008  0.6245  1.7853
 3805TIP3    H232975   6.235   6.112   3.281  0.0064  0.4941  0.4204
 3806TIP3   OH232976   1.995   5.870   3.332  0.2500 -0.2894  0.2666
 3806TIP3    H132977   1.906   5.836   3.345 -0.1805  0.7673  0.1967
 3806TIP3    H232978   2.048   5.792   3.316 -0.7673 -0.8927 -0.2876
 3807TIP3   OH232979   5.205   3.788   3.866 -0.5075 -0.8184  0.2096
 3807TIP3    H132980   5.133   3.851   3.866  1.1651  1.2099  1.0600
 3807TIP3    H232981   5.213   3.761   3.957 -0.7859 -1.7812 -0.0435
 3808TIP3   OH232982   3.229   4.550   8.818  0.1509  0.3153  0.1658
 3808TIP3    H132983   3.286   4.512   8.751  3.0413  1.2140  1.9398
 3808TIP3    H232984   3.206   4.636   8.784  0.7996  0.3882 -0.1078
 3809TIP3   OH232985   6.769   2.637   1.018  0.0460  0.4779 -0.3833
 3809TIP3    H132986   6.826   2.569   1.054  0.6254  2.1012  2.0743
 3809TIP3    H232987   6.817   2.718   1.034 -2.4240  1.8193  0.7307
 3810TIP3   OH232988   1.107   2.012   0.814  0.1991  0.9490  0.1311
 3810TIP3    H132989   1.187   2.025   0.763  0.0030 -0.3582 -0.5648
 3810TIP3    H232990   1.135   2.019   0.906  1.4791 -1.0485 -0.0377
 3811TIP3   OH232991   5.900   3.337   2.792  0.2692 -0.5526 -0.4363
 3811TIP3    H132992   5.933   3.270   2.851  0.9781  0.2289  0.0704
 3811TIP3    H232993   5.878   3.289   2.712 -1.4018 -1.7537  0.6623
 3812TIP3   OH232994   5.514   2.501   1.152  0.4354  0.2163 -0.1362
 3812TIP3    H132995   5.560   2.521   1.234  0.3105 -2.3528  0.6306
 3812TIP3    H232996   5.519   2.406   1.143 -0.2305  0.3319 -2.7497
 3813TIP3   OH232997   5.568   2.214   3.305  0.4824 -0.4801 -0.2937
 3813TIP3    H132998   5.660   2.200   3.283  1.5283  2.0490  1.9478
 3813TIP3    H232999   5.557   2.309   3.303 -1.6208 -0.6295  1.2157
 3814TIP3   OH233000   5.988   2.870   1.556  0.1130  0.0953 -0.0077
 3814TIP3    H133001   6.074   2.907   1.578 -0.3808  0.7743  0.8304
 3814TIP3    H233002   5.971   2.903   1.467  0.4915  0.3826  0.0189
 3815TIP3   OH233003   3.102   1.257   2.076  0.3670 -0.0116  0.5533
 3815TIP3    H133004   3.021   1.211   2.095  0.7070  0.4695  3.5437
 3815TIP3    H233005   3.078   1.350   2.074  0.4952  0.0224 -0.8827
 3816TIP3   OH233006   1.455   1.617   1.292  0.1204 -0.3639 -0.0013
 3816TIP3    H133007   1.403   1.644   1.215  0.9393  2.2996  0.2719
 3816TIP3    H233008   1.389   1.588   1.355 -0.8495  0.4672 -0.5851
 3817TIP3   OH233009   5.875   6.784   5.327 -0.5362 -0.0385 -0.4416
 3817TIP3    H133010   5.939   6.845   5.365  0.3331 -0.6497 -0.8677
 3817TIP3    H233011   5.822   6.838   5.269 -1.0986  0.6772  0.6978
 3818TIP3   OH233012   3.147   6.270   1.519  0.0262 -0.5746 -0.4176
 3818TIP3    H133013   3.210   6.200   1.505 -0.9267 -1.2369 -1.5261
 3818TIP3    H233014   3.128   6.267   1.613 -0.0428 -1.8570 -0.4524
 3819TIP3   OH233015   6.635   2.374   0.929  0.3489  0.1003  0.5482
 3819TIP3    H133016   6.564   2.341   0.983 -0.0423 -0.8246 -0.4941
 3819TIP3    H233017   6.678   2.440   0.984 -0.2953 -0.4853  1.8063
 3820TIP3   OH233018   4.331   1.326   1.951  0.6513 -0.3251  0.3034
 3820TIP3    H133019   4.352   1.236   1.928  1.7294 -0.3817  1.4083
 3820TIP3    H233020   4.268   1.318   2.023  1.0880 -0.2217  0.7066
 3821TIP3   OH233021   5.626   3.975   3.686  0.0424  0.0099  0.2784
 3821TIP3    H133022   5.630   4.023   3.769  1.0767  1.6411 -0.6489
 3821TIP3    H233023   5.585   3.892   3.708  0.1683  0.4505  2.3940
 3822TIP3   OH233024   5.606   4.563   1.115 -0.5975  0.2695  0.5466
 3822TIP3    H133025   5.684   4.510   1.097  0.0150  0.4955  2.3278
 3822TIP3    H233026   5.597   4.620   1.038  1.8064  1.1785  0.8429
 3823TIP3   OH233027   1.349   1.820   4.345  0.0340 -0.2160 -0.3712
 3823TIP3    H133028   1.419   1.760   4.319  0.6500  0.7232 -0.9504
 3823TIP3    H233029   1.389   1.907   4.341 -1.0949  0.3228 -0.4733
 3824TIP3   OH233030   2.289   3.657   2.660 -0.0150  0.6747  0.5563
 3824TIP3    H133031   2.297   3.666   2.565 -1.3386  2.2242  0.5551
 3824TIP3    H233032   2.207   3.610   2.673  0.1901  0.4197  0.9364
 3825TIP3   OH233033   0.198   1.497   8.857  0.0980  0.4152 -0.0414
 3825TIP3    H133034   0.235   1.482   8.944 -1.9212 -0.5528  0.7129
 3825TIP3    H233035   0.209   1.413   8.812 -2.3549 -0.3961  0.7154
 3826TIP3   OH233036   1.739   2.585   3.372  0.5694 -0.0528  0.0900
 3826TIP3    H133037   1.749   2.600   3.466 -2.0150 -1.6914  0.7383
 3826TIP3    H233038   1.682   2.656   3.343 -1.6304 -1.4814  0.6235
 3827TIP3   OH233039   2.098   3.594   1.189  0.1459  0.6947 -0.0934
 3827TIP3    H133040   2.019   3.611   1.138 -0.0932  0.3412  0.1478
 3827TIP3    H233041   2.163   3.569   1.124 -0.0094  0.7539 -0.2743
 3828TIP3   OH233042   2.781   3.496   0.631 -0.0292  0.3280  0.3155
 3828TIP3    H133043   2.860   3.452   0.602  0.6666  0.7415  1.5414
 3828TIP3    H233044   2.812   3.574   0.677 -1.1388  0.4135  0.9532
 3829TIP3   OH233045   4.888   2.201   3.498 -0.6415 -0.4366  0.2052
 3829TIP3    H133046   4.828   2.128   3.481 -0.2408 -0.7656  0.2004
 3829TIP3    H233047   4.862   2.269   3.436 -1.7098 -0.1623  0.9172
 3830TIP3   OH233048   0.252   2.553   0.244  0.0348  0.1347  0.6035
 3830TIP3    H133049   0.289   2.573   0.158 -0.0241  0.5670  0.6800
 3830TIP3    H233050   0.319   2.582   0.306  0.3344 -0.7138  0.6907
 3831TIP3   OH233051   2.093   5.013   1.276 -0.4127  0.3222  0.2885
 3831TIP3    H133052   2.181   4.977   1.263 -1.1946 -1.2308 -1.0095
 3831TIP3    H233053   2.041   4.939   1.306 -1.7168  0.7165 -0.9076
 3832TIP3   OH233054   5.142   2.605   3.418 -0.4427 -0.1778 -0.2193
 3832TIP3    H133055   5.057   2.580   3.453  0.0521 -1.8961 -0.1304
 3832TIP3    H233056   5.204   2.581   3.486  0.0176  3.0654  0.6579
 3833TIP3   OH233057   3.844   3.929   3.064 -0.5676 -0.3531  0.0167
 3833TIP3    H133058   3.911   3.875   3.023  0.6497  1.8036 -1.0267
 3833TIP3    H233059   3.890   4.010   3.088 -2.1937  0.0949  1.8743
 3834TIP3   OH233060   4.311   4.926   4.945 -0.2527  0.6951 -0.7805
 3834TIP3    H133061   4.246   4.856   4.947 -0.7158  1.1262 -0.1109
 3834TIP3    H233062   4.273   4.995   4.999  0.2744  1.3950 -1.2795
 3835TIP3   OH233063   6.783   5.974   2.969 -0.1397 -0.4011  0.0415
 3835TIP3    H133064   6.733   5.948   2.891 -0.0851 -1.4533  0.3461
 3835TIP3    H233065   6.723   6.031   3.018 -0.3204 -0.0569 -0.5658
 3836TIP3   OH233066   6.721   4.305   2.028  0.2574 -0.5004 -0.2224
 3836TIP3    H133067   6.736   4.258   2.110 -0.2908  0.0947  0.2317
 3836TIP3    H233068   6.660   4.375   2.052  1.3071  0.6496 -0.7989
 3837TIP3   OH233069   3.329   2.097   2.036 -0.3124  0.5698 -0.2553
 3837TIP3    H133070   3.277   2.054   1.968  0.7101 -0.9374 -0.1347
 3837TIP3    H233071   3.416   2.058   2.028 -0.0816  0.5741  1.7229
 3838TIP3   OH233072   3.537   6.282   2.194 -0.0538  0.1024  0.1788
 3838TIP3    H133073   3.582   6.309   2.275 -0.2004  0.0191  0.2885
 3838TIP3    H233074   3.602   6.295   2.125  0.3993 -0.7213  0.4352
 3839TIP3   OH233075   2.456   5.992   0.183  0.3669  0.2834 -0.5840
 3839TIP3    H133076   2.406   6.021   0.260  1.8559 -0.0968  0.5718
 3839TIP3    H233077   2.529   6.054   0.177  0.9443 -0.4151 -0.9451
 3840TIP3   OH233078   3.969   4.018   0.344 -0.7156  0.2283  0.1977
 3840TIP3    H133079   4.049   3.991   0.299 -0.5546  0.5192  0.3043
 3840TIP3    H233080   3.976   4.114   0.349 -1.8103  0.4290 -1.2228
 3841TIP3   OH233081   2.163   5.353   0.411  0.1500  0.4779 -0.3524
 3841TIP3    H133082   2.159   5.410   0.334 -0.2364 -0.7685 -1.2853
 3841TIP3    H233083   2.225   5.284   0.387 -0.8171 -0.5387  0.0198
 3842TIP3   OH233084   3.810   3.071   2.700 -0.0973 -0.2387  0.4104
 3842TIP3    H133085   3.770   2.986   2.719  0.0480 -0.2397  0.7049
 3842TIP3    H233086   3.736   3.126   2.671  0.1099 -1.1071 -2.0162
 3843TIP3   OH233087   1.569   3.549   3.146 -0.3087  0.5987 -0.2971
 3843TIP3    H133088   1.483   3.514   3.171  0.1558  1.2117  2.5054
 3843TIP3    H233089   1.598   3.493   3.074 -2.2152 -0.8531 -0.0041
 3844TIP3   OH233090   3.036   2.369   2.946  0.1896  0.1977  0.4622
 3844TIP3    H133091   2.947   2.371   2.981  0.3837 -0.0824  0.9886
 3844TIP3    H233092   3.078   2.296   2.992  0.5912  0.1146 -0.0257
 3845TIP3   OH233093   3.007   0.597   2.160  0.8170  0.6919 -0.1203
 3845TIP3    H133094   3.081   0.606   2.100  0.4755  1.6885 -0.4109
 3845TIP3    H233095   2.993   0.686   2.194 -0.3048  0.5327 -0.1475
 3846TIP3   OH233096   1.294   3.811   2.746 -0.2894 -0.0632  0.1373
 3846TIP3    H133097   1.254   3.887   2.703 -1.5225 -0.8343 -0.1193
 3846TIP3    H233098   1.360   3.849   2.804 -1.1682  1.2401  0.3315
 3847TIP3   OH233099   1.883   2.041   3.442  0.1315  0.1915  0.0326
 3847TIP3    H133100   1.869   1.995   3.360 -0.3803  0.4833 -0.0466
 3847TIP3    H233101   1.937   2.116   3.419  0.1861  0.1428  0.0026
 3848TIP3   OH233102   1.020   4.066   0.977  0.1365 -0.0382  0.0283
 3848TIP3    H133103   0.987   3.977   0.968 -0.1874 -0.1199  1.7025
 3848TIP3    H233104   1.104   4.066   0.930 -0.6255 -0.7474 -1.3746
 3849TIP3   OH233105   0.561   0.586   3.142  0.0045  0.7181  0.1676
 3849TIP3    H133106   0.576   0.563   3.051  0.9065  2.5413 -0.2000
 3849TIP3    H233107   0.554   0.682   3.141 -0.2461  0.7454  1.9652
 3850TIP3   OH233108   4.475   6.409   5.325  0.3418 -0.5937  0.0172
 3850TIP3    H133109   4.431   6.344   5.379 -1.5404 -0.3189 -1.0930
 3850TIP3    H233110   4.483   6.486   5.382 -2.4859  0.0233 -0.2535
 3851TIP3   OH233111   0.503   3.301   4.301 -0.1402  0.2166  0.5887
 3851TIP3    H133112   0.425   3.282   4.353 -0.0034 -0.2605  0.6208
 3851TIP3    H233113   0.539   3.215   4.279 -1.5252  0.2638 -2.3557
 3852TIP3   OH233114   4.266   5.024   3.558 -0.2896 -0.3618 -0.2549
 3852TIP3    H133115   4.198   5.059   3.501  1.1916  2.7729 -0.3702
 3852TIP3    H233116   4.326   4.979   3.499  0.1882  1.1135 -0.9535
 3853TIP3   OH233117   4.725   1.537   0.948 -0.4686 -0.3701  0.2253
 3853TIP3    H133118   4.688   1.609   0.897  1.1591 -0.5646 -1.3137
 3853TIP3    H233119   4.713   1.459   0.893 -0.4486 -0.9516  1.0185
 3854TIP3   OH233120   4.198   1.070   1.126 -0.4265 -0.6713 -0.2481
 3854TIP3    H133121   4.205   1.136   1.057 -0.3844 -0.2930  0.1100
 3854TIP3    H233122   4.144   1.113   1.193  0.9513 -0.3820  0.7095
 3855TIP3   OH233123   6.775   3.732   0.049 -0.4626 -0.1136  0.1340
 3855TIP3    H133124   6.796   3.767  -0.038 -0.9763 -0.8061 -0.2700
 3855TIP3    H233125   6.680   3.725   0.050 -0.5608  0.8977  1.1568
 3856TIP3   OH233126   2.606   1.654   1.757  0.5870  0.0531 -0.3434
 3856TIP3    H133127   2.649   1.722   1.810  0.0344  0.2906 -0.1860
 3856TIP3    H233128   2.539   1.702   1.708  0.3253 -0.3531 -0.3825
 3857TIP3   OH233129   3.548   3.341   1.377 -0.0387  0.3078  0.2624
 3857TIP3    H133130   3.521   3.360   1.288  1.5286  3.4364  0.3315
 3857TIP3    H233131   3.561   3.246   1.378 -0.6521  0.0998 -2.6534
 3858TIP3   OH233132   5.367   4.508   4.469 -0.2203 -0.0020 -0.9700
 3858TIP3    H133133   5.387   4.496   4.376 -1.3609  0.1834 -1.2490
 3858TIP3    H233134   5.295   4.447   4.485  0.2498 -0.3404 -0.0929
 3859TIP3   OH233135   1.832   6.154   2.949 -0.0761  0.0797 -0.1566
 3859TIP3    H133136   1.847   6.160   3.043 -1.1117 -0.1578  0.0393
 3859TIP3    H233137   1.744   6.191   2.936 -0.1950 -0.4378 -0.9441
 3860TIP3   OH233138   5.527   6.171   3.665 -0.2857 -0.2553  0.2001
 3860TIP3    H133139   5.449   6.115   3.671  0.8569 -1.8629  0.7118
 3860TIP3    H233140   5.577   6.151   3.745  1.0798  0.0912 -0.5346
 3861TIP3   OH233141   2.054   2.263   2.469  0.1259  0.2605  0.6174
 3861TIP3    H133142   2.038   2.202   2.397 -1.8260 -0.2408  1.3988
 3861TIP3    H233143   2.044   2.210   2.548  0.1598  1.2262  1.2895
 3862TIP3   OH233144   1.322   0.428   0.218  0.5031 -0.5524 -0.7783
 3862TIP3    H133145   1.318   0.482   0.139 -0.8276 -0.0203 -0.3687
 3862TIP3    H233146   1.235   0.391   0.226  0.6842 -0.7610  0.3388
 3863TIP3   OH233147   3.152   3.732   1.337  0.1013 -0.9074  0.3021
 3863TIP3    H133148   3.122   3.791   1.268  1.9565  0.0816  0.2881
 3863TIP3    H233149   3.106   3.650   1.320 -0.4645 -0.2890 -1.3213
 3864TIP3   OH233150   2.658   1.672   4.095 -0.7805 -0.0187 -0.4272
 3864TIP3    H133151   2.720   1.643   4.028 -0.9645 -1.1063 -0.1434
 3864TIP3    H233152   2.686   1.761   4.116  0.3090 -0.2733 -0.7372
 3865TIP3   OH233153   4.237   3.801   2.505  0.3321  0.3541 -0.0872
 3865TIP3    H133154   4.175   3.868   2.475  0.0196 -0.1632 -0.6197
 3865TIP3    H233155   4.191   3.718   2.492 -0.0745  0.0938  2.3738
 3866TIP3   OH233156   4.118   3.370   2.451 -0.2802  0.1574  0.4373
 3866TIP3    H133157   4.211   3.392   2.446 -0.4480  0.6673 -0.9339
 3866TIP3    H233158   4.116   3.277   2.474  0.5678  0.1348  0.4492
 3867TIP3   OH233159   0.271   0.350   2.629 -0.6678  0.0353  0.6425
 3867TIP3    H133160   0.252   0.355   2.723 -0.3083 -0.6786  0.7612
 3867TIP3    H233161   0.323   0.428   2.611 -1.1027  0.3988  0.9484
 3868TIP3   OH233162   6.583   2.796   3.522  0.4529  0.0749  0.4087
 3868TIP3    H133163   6.529   2.773   3.447 -0.5922  2.9511  0.1548
 3868TIP3    H233164   6.673   2.776   3.495 -0.2280 -4.7419  0.8132
 3869TIP3   OH233165   3.976   3.859   2.667  0.8064 -0.4022 -0.0804
 3869TIP3    H133166   4.013   3.947   2.667  1.2637 -0.5800  1.0228
 3869TIP3    H233167   3.988   3.828   2.577  1.4066  0.3423 -0.2665
 3870TIP3   OH233168   3.463   0.623   2.977  0.1902 -0.0548  0.4750
 3870TIP3    H133169   3.404   0.633   2.902  0.4954  1.1562  0.3823
 3870TIP3    H233170   3.421   0.674   3.047  1.5527  1.6004  0.1449
 3871TIP3   OH233171   4.691   3.403   2.291 -0.2612  0.1058 -0.0171
 3871TIP3    H133172   4.762   3.372   2.236  1.9682  3.1890  0.8746
 3871TIP3    H233173   4.670   3.328   2.348  1.8445 -1.0959 -0.7307
 3872TIP3   OH233174   0.819   5.541   1.893 -0.6165  0.2621 -0.2776
 3872TIP3    H133175   0.851   5.450   1.892 -2.4124 -0.4072 -0.2449
 3872TIP3    H233176   0.855   5.579   1.813 -0.8716 -0.8778 -0.9669
 3873TIP3   OH233177   4.476   4.214   0.827 -0.6738 -0.0956  0.2428
 3873TIP3    H133178   4.437   4.139   0.782 -0.7606 -0.3128  0.6805
 3873TIP3    H233179   4.433   4.290   0.788  0.6454 -0.1588 -1.4469
 3874TIP3   OH233180   3.077   1.393   4.696  0.2912 -0.6782 -0.2074
 3874TIP3    H133181   3.113   1.463   4.641  0.2352 -0.6424 -0.1987
 3874TIP3    H233182   2.986   1.418   4.709  0.6193 -0.0276  0.9560
 3875TIP3   OH233183   3.882   3.957   1.435 -0.3728 -0.1315  0.2393
 3875TIP3    H133184   3.924   3.873   1.419 -1.2399 -0.2181 -1.9114
 3875TIP3    H233185   3.917   4.015   1.367 -0.5503  0.9893  1.0606
 3876TIP3   OH233186   3.510   0.980   3.621  0.1932 -0.2866  0.1290
 3876TIP3    H133187   3.538   0.940   3.704  2.3631  1.2429  0.2148
 3876TIP3    H233188   3.421   1.009   3.638  0.5868  0.0023  1.9525
 3877TIP3   OH233189   2.867   4.841   1.856 -0.0471  0.4586 -0.1926
 3877TIP3    H133190   2.785   4.889   1.850 -0.7792 -0.6210  0.8016
 3877TIP3    H233191   2.855   4.766   1.797 -0.3049 -0.3922  0.8973
 3878TIP3   OH233192   0.255   2.152   2.238  0.0752 -0.5397  0.2349
 3878TIP3    H133193   0.234   2.198   2.319  2.0300  0.2476  0.3564
 3878TIP3    H233194   0.346   2.124   2.249  0.0322 -1.3851 -1.2621
 3879TIP3   OH233195   4.971   5.663   3.317  0.6782 -0.3629 -0.0609
 3879TIP3    H133196   4.909   5.596   3.286 -0.8924 -0.2265  2.4741
 3879TIP3    H233197   4.940   5.744   3.277  0.5456 -0.6259 -0.5019
 3880TIP3   OH233198   2.106   0.946   3.499  0.1993  0.5191 -0.3071
 3880TIP3    H133199   2.139   0.915   3.415  0.0673  1.0501 -0.5565
 3880TIP3    H233200   2.104   0.867   3.554  0.4276  0.1978 -0.7507
 3881TIP3   OH233201   5.729   2.772   2.501 -0.3230  0.3270  0.5115
 3881TIP3    H133202   5.805   2.783   2.444  0.1019 -0.9597  0.7891
 3881TIP3    H233203   5.683   2.855   2.496 -0.0657  0.4041 -1.3631
 3882TIP3   OH233204   2.124   0.542   2.720 -0.5315  0.0526  0.7325
 3882TIP3    H133205   2.122   0.450   2.692  2.0831 -0.0387  0.5313
 3882TIP3    H233206   2.070   0.588   2.657 -1.8938 -1.3323  0.8294
 3883TIP3   OH233207   4.309   0.345   0.429  0.4546 -0.2247  0.1757
 3883TIP3    H133208   4.255   0.401   0.484  0.2902  1.2072 -1.3446
 3883TIP3    H233209   4.377   0.404   0.395 -0.9177 -0.3076 -3.1340
 3884TIP3   OH233210   6.201   4.838   3.667 -0.3149 -0.0764 -0.0636
 3884TIP3    H133211   6.292   4.847   3.637 -0.2200 -2.7230 -0.8404
 3884TIP3    H233212   6.153   4.905   3.617  0.9211  0.1042 -1.0836
 3885TIP3   OH233213   4.116   2.295   2.633 -0.4658 -0.1791 -0.1916
 3885TIP3    H133214   4.037   2.291   2.686  0.3863  0.0612  1.1273
 3885TIP3    H233215   4.181   2.244   2.682  0.2009 -0.4123 -1.2697
 3886TIP3   OH233216   0.491   5.987   2.589 -0.2325 -0.0803  0.1480
 3886TIP3    H133217   0.408   5.989   2.541 -0.1481 -0.0950  0.0026
 3886TIP3    H233218   0.558   6.003   2.522 -0.0370 -1.0626  0.1036
 3887TIP3   OH233219   2.331   0.065   1.029  0.3238  0.3571 -0.8666
 3887TIP3    H133220   2.406   0.105   0.986  1.1316  0.1965  0.3365
 3887TIP3    H233221   2.358  -0.025   1.046  0.3995  0.6653  0.7780
 3888TIP3   OH233222   1.193   3.339   2.271 -0.1829  0.5145  0.2887
 3888TIP3    H133223   1.137   3.285   2.216  0.0746  0.9718 -0.4420
 3888TIP3    H233224   1.274   3.289   2.279  0.1697  0.9086 -0.6443
 3889TIP3   OH233225   0.595   5.683   4.300  0.1884 -0.8390 -0.0467
 3889TIP3    H133226   0.662   5.716   4.361 -0.6450  0.2380  0.3226
 3889TIP3    H233227   0.608   5.734   4.220  0.3458 -1.2130 -0.2568
 3890TIP3   OH233228   1.054   2.925   1.787  0.3493  0.0229  0.0962
 3890TIP3    H133229   1.119   2.943   1.719  0.8206 -0.9211  0.2825
 3890TIP3    H233230   1.104   2.926   1.869  0.0157 -0.1017  0.3010
 3891TIP3   OH233231   6.182   6.756   1.348  0.8882 -0.0424 -0.2068
 3891TIP3    H133232   6.093   6.758   1.382  1.0567  0.7303  0.2150
 3891TIP3    H233233   6.202   6.663   1.339  0.7723 -0.2910  1.6627
 3892TIP3   OH233234   6.265   6.768   2.337 -0.4058 -0.5319 -0.5401
 3892TIP3    H133235   6.277   6.772   2.242 -1.2269 -0.5301 -0.6565
 3892TIP3    H233236   6.292   6.855   2.368 -1.4854 -0.0195 -0.9556
 3893TIP3   OH233237   4.582   6.176   2.919  0.3641 -0.1964  0.5139
 3893TIP3    H133238   4.567   6.130   2.836 -2.1894 -0.1941  0.8772
 3893TIP3    H233239   4.517   6.139   2.978 -0.3734  2.3576  1.4352
 3894TIP3   OH233240   5.300   6.027   2.202 -0.2608  0.1394 -0.4474
 3894TIP3    H133241   5.283   5.952   2.259  1.1303 -1.3391 -1.8774
 3894TIP3    H233242   5.377   6.069   2.240 -0.8081  0.6502  0.1294
 3895TIP3   OH233243   4.819   5.556   3.745 -0.4198 -0.0065  0.2437
 3895TIP3    H133244   4.724   5.568   3.749 -0.3071  0.5610  2.6574
 3895TIP3    H233245   4.842   5.516   3.828  1.6755  1.6198  0.5533
 3896TIP3   OH233246   3.724   5.362   2.303 -0.2323 -0.0761 -0.1048
 3896TIP3    H133247   3.707   5.310   2.381  0.4817 -1.5962 -0.9145
 3896TIP3    H233248   3.811   5.398   2.316 -0.7553  1.0330  0.4882
 3897TIP3   OH233249   3.218   3.691   0.742  0.2009 -0.6256  0.3116
 3897TIP3    H133250   3.298   3.686   0.794  0.2632 -1.5734  0.1281
 3897TIP3    H233251   3.232   3.765   0.683  1.1081 -1.0437  0.0006
 3898TIP3   OH233252   5.405   1.027   3.877 -0.9589  0.0801 -0.2094
 3898TIP3    H133253   5.492   0.987   3.885 -0.8694  0.2244 -0.4742
 3898TIP3    H233254   5.398   1.051   3.785 -0.2095  2.5327  0.3218
 3899TIP3   OH233255   0.884   5.478   3.060 -0.1398 -0.4413 -0.2685
 3899TIP3    H133256   0.812   5.449   3.116 -0.2095 -1.9239 -1.1047
 3899TIP3    H233257   0.919   5.556   3.105 -1.5967 -0.2950  0.6673
 3900TIP3   OH233258   5.596   4.739   0.382 -0.0783 -0.0743 -0.0409
 3900TIP3    H133259   5.523   4.791   0.414 -1.1269 -1.3102 -0.3682
 3900TIP3    H233260   5.642   4.796   0.320  0.3870  1.3837  1.5781
 3901TIP3   OH233261   4.588   4.120   3.460  0.3189 -0.0394  0.0967
 3901TIP3    H133262   4.540   4.155   3.535 -1.8691 -1.7158 -0.4158
 3901TIP3    H233263   4.635   4.044   3.494  0.0461 -0.2713 -0.0395
 3902TIP3   OH233264   0.747   4.408   1.900 -0.0318  0.5147 -0.5583
 3902TIP3    H133265   0.665   4.457   1.894 -0.5700 -0.3513 -0.4458
 3902TIP3    H233266   0.787   4.419   1.814 -0.8646 -0.0628 -1.0426
 3903TIP3   OH233267   3.270   2.803   3.771  0.5465  0.2885 -0.2279
 3903TIP3    H133268   3.339   2.796   3.704  0.4581 -0.6534 -0.2364
 3903TIP3    H233269   3.318   2.822   3.852  0.6631  1.3281 -0.5281
 3904TIP3   OH233270   2.374   4.087   3.912 -0.3989 -0.0780 -0.4693
 3904TIP3    H133271   2.384   4.077   4.007 -1.8387 -0.1618 -0.2932
 3904TIP3    H233272   2.448   4.040   3.875 -0.0599 -0.4339  0.6016
 3905TIP3   OH233273   2.491   3.261   3.718  0.5843 -0.2023  0.3913
 3905TIP3    H133274   2.511   3.324   3.787  0.6608  0.0109  0.1775
 3905TIP3    H233275   2.406   3.225   3.743  1.0941 -0.9123  1.1548
 3906TIP3   OH233276   6.105   4.073   4.109  0.2131  0.3405  0.4116
 3906TIP3    H133277   6.028   4.097   4.161 -1.1788 -0.3831 -1.2253
 3906TIP3    H233278   6.142   4.157   4.082 -1.1123  0.7310 -0.3084
 3907TIP3   OH233279   5.129   5.414   3.791 -0.6872 -0.0336  0.5636
 3907TIP3    H133280   5.163   5.457   3.870 -1.5506  1.8974 -0.0507
 3907TIP3    H233281   5.200   5.358   3.762  0.0026 -0.0588  2.1741
 3908TIP3   OH233282   6.627   5.225   2.008  0.8838  0.1243  0.3878
 3908TIP3    H133283   6.655   5.139   1.977 -0.2430  0.1314 -0.7397
 3908TIP3    H233284   6.655   5.286   1.940 -1.9649  0.0988 -0.9661
 3909TIP3   OH233285   6.345   2.629   1.218  0.5024  0.9516 -0.2006
 3909TIP3    H133286   6.250   2.614   1.222  0.4390  0.9592 -1.3412
 3909TIP3    H233287   6.360   2.661   1.129  1.6070  0.7090 -0.1094
 3910TIP3   OH233288   0.843   1.134   4.057  0.1397 -0.2414 -0.1881
 3910TIP3    H133289   0.818   1.169   4.143  1.5245 -1.3459  0.7204
 3910TIP3    H233290   0.899   1.059   4.078  0.7070 -0.3800 -2.0717
 3911TIP3   OH233291   0.608   3.376   0.393  0.5627  0.2731  0.1350
 3911TIP3    H133292   0.639   3.320   0.322  0.3220 -0.1223  0.3389
 3911TIP3    H233293   0.637   3.464   0.368 -0.6399  0.3564 -1.1153
 3912TIP3   OH233294   4.883   3.214   2.197  0.3782 -0.2668  0.5119
 3912TIP3    H133295   4.936   3.162   2.257  1.2786  1.7801  1.5977
 3912TIP3    H233296   4.918   3.194   2.110  0.4823 -1.6584  0.8468
 3913TIP3   OH233297   2.333   1.085   0.461 -0.0364 -0.3179  0.5749
 3913TIP3    H133298   2.365   1.148   0.526  1.5715 -1.9763  1.4886
 3913TIP3    H233299   2.351   1.126   0.377 -0.7689  1.2298  1.1231
 3914TIP3   OH233300   2.522   2.907   3.914  0.3390 -0.0667  0.1087
 3914TIP3    H133301   2.614   2.924   3.936  0.4473  0.1384 -0.5067
 3914TIP3    H233302   2.523   2.819   3.876  0.5126  0.5423 -1.3260
 3915TIP3   OH233303   3.944   3.691   1.454  0.4607  0.0446 -0.2147
 3915TIP3    H133304   3.858   3.651   1.446  0.6182 -0.6614  1.2368
 3915TIP3    H233305   3.964   3.688   1.548  1.1235  2.2076 -0.2117
 3916TIP3   OH233306   5.547   6.740   2.972 -0.2017 -0.1838 -0.6299
 3916TIP3    H133307   5.555   6.722   3.066 -0.7164  2.0535 -0.1166
 3916TIP3    H233308   5.520   6.656   2.935 -0.2179 -1.0710  1.2349
 3917TIP3   OH233309   1.482   5.458   0.996  0.2690 -0.2311 -0.0554
 3917TIP3    H133310   1.463   5.373   1.035 -0.0367  0.0024  0.3112
 3917TIP3    H233311   1.492   5.440   0.903  1.5931 -0.8929  0.1769
 3918TIP3   OH233312   3.233   4.872   1.228  0.4027 -0.5755 -0.2641
 3918TIP3    H133313   3.192   4.939   1.282  0.3856  0.5218 -1.5886
 3918TIP3    H233314   3.303   4.919   1.182  0.3239 -1.4491 -1.2920
 3919TIP3   OH233315   3.691   6.429   2.391  0.2500  0.1808  0.3063
 3919TIP3    H133316   3.612   6.414   2.444  1.7418 -3.4227  1.8963
 3919TIP3    H233317   3.752   6.472   2.451  0.6394 -0.3396  0.2950
 3920TIP3   OH233318   3.035   2.104   8.789 -0.1152  0.3721 -0.4047
 3920TIP3    H133319   2.978   2.134   8.718  0.0877 -0.8779 -1.1220
 3920TIP3    H233320   3.063   2.016   8.762 -0.2736 -0.2580  1.3632
 3921TIP3   OH233321   1.842   5.311   3.166  0.1510  0.0543 -0.2032
 3921TIP3    H133322   1.749   5.290   3.163  0.1140  0.2299 -0.3443
 3921TIP3    H233323   1.857   5.342   3.255 -0.0619  0.6225 -0.3538
 3922TIP3   OH233324   4.318   3.408   3.089 -0.0958  0.1534  0.5509
 3922TIP3    H133325   4.309   3.448   3.176  1.0017  1.2448  0.2019
 3922TIP3    H233326   4.410   3.421   3.067 -0.1851 -0.8256 -0.4439
 3923TIP3   OH233327   2.075   0.318   0.132 -0.4309 -0.8767 -0.8047
 3923TIP3    H133328   1.998   0.313   0.075 -0.8540 -1.1761 -0.2171
 3923TIP3    H233329   2.050   0.378   0.202 -1.0517 -2.8129  0.7387
 3924TIP3   OH233330   0.097   1.355   2.375  0.1128 -0.2180 -0.1518
 3924TIP3    H133331   0.185   1.371   2.407 -0.4371  1.2310  0.7277
 3924TIP3    H233332   0.040   1.376   2.449 -1.0792  0.9400 -1.3451
 3925TIP3   OH233333   0.893   1.371   4.362 -0.1364 -0.3843 -0.0961
 3925TIP3    H133334   0.925   1.434   4.427 -0.6160  1.9188 -1.9751
 3925TIP3    H233335   0.807   1.345   4.395 -0.8717  1.6276 -0.2767
 3926TIP3   OH233336   4.713   2.532   0.986  0.0070 -0.1296 -0.0467
 3926TIP3    H133337   4.642   2.577   1.032 -1.2283 -1.4952 -0.5806
 3926TIP3    H233338   4.683   2.526   0.896  0.1276 -2.0196  0.0114
 3927TIP3   OH233339   1.944   4.788   1.319  0.3374  0.1379 -0.8643
 3927TIP3    H133340   1.974   4.699   1.302  0.2088 -0.0046 -0.3624
 3927TIP3    H233341   1.879   4.779   1.388  0.5592  0.6612 -0.5814
 3928TIP3   OH233342   0.888   0.552   3.643 -0.4093 -0.3254 -0.6205
 3928TIP3    H133343   0.794   0.553   3.630 -0.1882 -2.5011 -2.9979
 3928TIP3    H233344   0.917   0.468   3.609  2.3893  0.1715  0.2459
 3929TIP3   OH233345   2.267   4.321   4.397  0.4220  0.6221 -0.1437
 3929TIP3    H133346   2.172   4.331   4.406  0.2899 -0.3056 -0.3057
 3929TIP3    H233347   2.289   4.370   4.317  0.0763  0.8350 -0.1094
 3930TIP3   OH233348   5.289   2.550   3.891  0.1802 -0.4999 -0.0246
 3930TIP3    H133349   5.303   2.570   3.984  0.9773 -4.0650  0.8132
 3930TIP3    H233350   5.377   2.550   3.853 -0.2411  2.1357 -1.1788
 3931TIP3   OH233351   2.359   5.306   0.676  0.7006 -0.1721  0.1154
 3931TIP3    H133352   2.391   5.221   0.706 -0.1980 -0.2464  0.9450
 3931TIP3    H233353   2.397   5.318   0.589  2.0418 -0.7374  0.6014
 3932TIP3   OH233354   0.839   0.415   1.986 -0.2841  0.3269  0.1441
 3932TIP3    H133355   0.801   0.399   2.072 -1.5770 -1.4245 -0.6799
 3932TIP3    H233356   0.807   0.342   1.932  3.6329 -0.8838 -0.8687
 3933TIP3   OH233357   2.595   1.742   2.372  0.3250  0.7007 -0.0335
 3933TIP3    H133358   2.515   1.711   2.415  0.0790 -0.5296 -1.2740
 3933TIP3    H233359   2.611   1.828   2.409 -1.7228  1.0860  0.0729
 3934TIP3   OH233360   2.451   4.571   1.641 -0.0777 -0.3075 -0.2085
 3934TIP3    H133361   2.438   4.511   1.715  0.4164 -0.3737 -0.1684
 3934TIP3    H233362   2.372   4.625   1.640  0.3284  0.3669  1.0100
 3935TIP3   OH233363   1.527   2.832   2.747  0.0585 -0.1636 -0.1319
 3935TIP3    H133364   1.476   2.895   2.697  0.4103  0.0400 -0.2408
 3935TIP3    H233365   1.598   2.806   2.688 -1.4039 -2.4918 -1.0059
 3936TIP3   OH233366   2.126   0.450   3.426 -0.2984  0.1125 -0.2299
 3936TIP3    H133367   2.143   0.357   3.441 -1.1876  0.2328  1.7275
 3936TIP3    H233368   2.034   0.462   3.452  0.5581  2.0485  2.2415
 3937TIP3   OH233369   0.882   1.702   1.295  0.8004  0.2399  0.2444
 3937TIP3    H133370   0.959   1.760   1.293  1.2860 -0.3805  0.5543
 3937TIP3    H233371   0.912   1.622   1.252  0.6062 -0.3349  1.1602
 3938TIP3   OH233372   2.524   4.161   3.016 -0.9914  0.1964 -0.1429
 3938TIP3    H133373   2.433   4.173   3.043 -1.0561  0.4158 -0.4494
 3938TIP3    H233374   2.539   4.067   3.023 -0.8198  0.3128  1.2395
 3939TIP3   OH233375   3.725   1.534   4.216  0.3235  0.6538 -0.9793
 3939TIP3    H133376   3.789   1.488   4.162  1.2020  1.3433 -0.5554
 3939TIP3    H233377   3.778   1.581   4.281 -0.7048 -0.9819  1.1722
 3940TIP3   OH233378   0.127   5.935   3.615 -0.7903 -0.2401 -0.0631
 3940TIP3    H133379   0.065   6.003   3.640  0.2535  0.5975  0.3055
 3940TIP3    H233380   0.153   5.894   3.698  3.2246  3.0137  0.6152
 3941TIP3   OH233381   1.247   0.584   2.316  0.5956  0.9550  0.4674
 3941TIP3    H133382   1.256   0.509   2.257 -0.9089  0.7949  0.3849
 3941TIP3    H233383   1.262   0.660   2.260 -1.1211  0.8182 -0.2582
 3942TIP3   OH233384   2.736   5.954   4.184 -0.2032 -0.2967  0.1127
 3942TIP3    H133385   2.678   5.986   4.115 -0.7041  1.3129  1.2275
 3942TIP3    H233386   2.755   6.031   4.237  0.6273 -1.3769  1.4504
 3943TIP3   OH233387   1.321   0.274   2.338  0.7746 -0.3845  0.0830
 3943TIP3    H133388   1.342   0.335   2.409  1.2029 -0.2908 -0.1203
 3943TIP3    H233389   1.348   0.188   2.371 -0.8619 -0.6679  0.8243
 3944TIP3   OH233390   4.501   3.679   1.364 -0.5415 -0.4803 -0.2595
 3944TIP3    H133391   4.487   3.666   1.270  0.4892 -1.0146 -0.3481
 3944TIP3    H233392   4.579   3.628   1.384 -0.8920 -0.5733  0.9442
 3945TIP3   OH233393   2.962   0.757   3.055 -0.1804 -0.2951  0.0608
 3945TIP3    H133394   2.904   0.810   3.109  0.1604 -1.0360  1.1882
 3945TIP3    H233395   2.903   0.701   3.005 -0.4759 -1.1167  1.2751
 3946TIP3   OH233396   5.181   5.301   0.275  0.1836 -0.4816 -0.6051
 3946TIP3    H133397   5.117   5.358   0.317 -0.9776 -2.6727  0.7952
 3946TIP3    H233398   5.262   5.316   0.325  0.5206  1.4325 -1.6305
 3947TIP3   OH233399   3.977   6.114   2.464 -0.8947  0.4998 -0.1522
 3947TIP3    H133400   4.031   6.187   2.434  0.7157 -0.1274  1.0472
 3947TIP3    H233401   4.018   6.037   2.426 -1.0310  0.0094  0.6828
 3948TIP3   OH233402   2.016   6.109   1.344 -0.1067 -0.3227  0.1852
 3948TIP3    H133403   2.024   6.020   1.309 -0.0401 -1.3653  2.6613
 3948TIP3    H233404   1.959   6.100   1.420 -0.1890  1.7947  0.4294
 3949TIP3   OH233405   1.566   4.834   2.268 -0.3537  1.0172  0.1913
 3949TIP3    H133406   1.522   4.875   2.193 -0.2296  0.0679 -0.4166
 3949TIP3    H233407   1.659   4.835   2.244 -0.3074  0.7681  0.3671
 3950TIP3   OH233408   4.285   3.494   2.646  0.4567  0.8430  0.0301
 3950TIP3    H133409   4.247   3.567   2.597 -0.3628  0.4479  0.0639
 3950TIP3    H233410   4.333   3.536   2.717  0.4322  1.3706 -0.2596
 3951TIP3   OH233411   4.089   3.162   3.609 -0.1104 -0.4311 -0.7124
 3951TIP3    H133412   4.134   3.079   3.620  0.2150 -0.4615 -2.1093
 3951TIP3    H233413   4.078   3.195   3.698  1.7560 -0.9062 -0.2521
 3952TIP3   OH233414   3.824   1.036   2.634  0.4660  0.1131  0.1546
 3952TIP3    H133415   3.915   1.005   2.638 -0.0250 -1.3244  0.9448
 3952TIP3    H233416   3.812   1.087   2.714  0.5294  0.1322  0.1516
 3953TIP3   OH233417   6.257   3.290   0.736  0.1647 -0.7226 -0.1008
 3953TIP3    H133418   6.169   3.279   0.702 -0.3313  0.4912  0.6893
 3953TIP3    H233419   6.312   3.301   0.658 -0.1394 -2.7435 -0.6532
 3954TIP3   OH233420   4.335   5.934   3.831  0.0415  0.4281 -0.0944
 3954TIP3    H133421   4.344   5.934   3.736  1.6235  0.8165  0.0362
 3954TIP3    H233422   4.321   5.842   3.854  1.1087  0.1279 -0.5917
 3955TIP3   OH233423   6.210   0.436   3.595  0.2902 -0.1434 -0.4018
 3955TIP3    H133424   6.278   0.369   3.594 -0.9763 -1.4582 -1.2379
 3955TIP3    H233425   6.244   0.504   3.654  2.7382 -0.2868 -1.5511
 3956TIP3   OH233426   1.302   4.430   1.931 -0.1331  0.3119 -0.0697
 3956TIP3    H133427   1.344   4.515   1.914  1.9198 -0.5801  0.1803
 3956TIP3    H233428   1.254   4.443   2.012  0.7828  1.0632  0.3834
 3957TIP3   OH233429   1.454   1.945   1.056  0.2609 -0.4707  0.6840
 3957TIP3    H133430   1.463   1.989   0.972 -0.9811  1.6114  1.5611
 3957TIP3    H233431   1.540   1.953   1.097  0.2774  0.4168  0.4826
 3958TIP3   OH233432   1.849   5.339   3.807 -0.4654 -0.3878  0.3833
 3958TIP3    H133433   1.873   5.294   3.888  0.5868 -1.8736 -0.6977
 3958TIP3    H233434   1.903   5.419   3.808 -0.7350 -0.2068  1.3055
 3959TIP3   OH233435   6.254   2.926   1.696  0.0289  0.2553  0.4169
 3959TIP3    H133436   6.295   2.980   1.763  1.2133 -0.2979  0.1709
 3959TIP3    H233437   6.318   2.922   1.625  0.4166 -2.1534  0.7860
 3960TIP3   OH233438   6.343   4.774   1.719  0.1107  0.1098  0.5566
 3960TIP3    H133439   6.307   4.801   1.804 -0.3438  1.9040 -0.1577
 3960TIP3    H233440   6.311   4.840   1.658  1.3473 -0.5279 -0.8248
 3961TIP3   OH233441   3.966   4.731   0.352 -0.2880  0.3519  0.3381
 3961TIP3    H133442   3.943   4.669   0.421 -1.4698  0.1385 -0.2188
 3961TIP3    H233443   3.940   4.816   0.387 -0.8059  0.2536  0.2115
 3962TIP3   OH233444   3.789   1.507   0.652 -0.2006  0.2489  0.1626
 3962TIP3    H133445   3.755   1.597   0.655 -3.2386 -0.8092  2.3677
 3962TIP3    H233446   3.743   1.467   0.579  1.0566  0.3883 -0.7361
 3963TIP3   OH233447   1.354   4.982   0.286  0.5395 -0.7782 -0.5443
 3963TIP3    H133448   1.362   5.076   0.273  0.4939 -0.4777  1.3170
 3963TIP3    H233449   1.269   4.960   0.248 -0.2075  0.2437  0.4832
 3964TIP3   OH233450   3.677   3.071   3.279 -0.0616  0.4982 -0.1329
 3964TIP3    H133451   3.753   3.128   3.269  0.2597 -0.2268 -2.5513
 3964TIP3    H233452   3.673   3.022   3.197 -0.8907 -2.2694  1.4180
 3965TIP3   OH233453   2.481   5.098   5.037  0.3440 -0.3379 -0.5646
 3965TIP3    H133454   2.497   5.145   4.956  1.6338  0.3753  0.0612
 3965TIP3    H233455   2.444   5.014   5.009  2.9997 -1.1189 -2.1024
 3966TIP3   OH233456   0.718   0.599   0.362  0.5347 -0.8848  0.2762
 3966TIP3    H133457   0.659   0.662   0.320 -0.7731 -1.7634  0.7394
 3966TIP3    H233458   0.805   0.623   0.330 -0.2595 -0.7566 -1.9572
 3967TIP3   OH233459   3.222   0.606   1.979 -0.3422 -0.3456  0.7517
 3967TIP3    H133460   3.214   0.589   1.885  1.1709  0.2538  0.4776
 3967TIP3    H233461   3.260   0.694   1.983 -0.4092 -0.3611  1.9331
 3968TIP3   OH233462   2.243   0.626   3.810  0.3450  0.5347 -0.1426
 3968TIP3    H133463   2.321   0.582   3.844 -0.8374 -1.0423  0.6571
 3968TIP3    H233464   2.227   0.697   3.872  2.6073  2.6193 -1.7585
 3969TIP3   OH233465   0.286   3.905   1.074  0.1207  0.2363  0.2673
 3969TIP3    H133466   0.347   3.886   1.145  0.1566  0.7919  0.3944
 3969TIP3    H233467   0.268   3.999   1.083 -0.3164  0.1918 -0.1111
 3970TIP3   OH233468   5.935   5.905   3.613  0.2677  0.6859 -0.3007
 3970TIP3    H133469   5.935   5.924   3.519 -1.8054  1.0000 -0.2793
 3970TIP3    H233470   6.013   5.851   3.626 -0.1493 -0.5526 -2.4374
 3971TIP3   OH233471   3.152   4.367   0.185  0.2359 -0.0517  0.0083
 3971TIP3    H133472   3.170   4.434   0.119 -1.6540  0.5028  0.0020
 3971TIP3    H233473   3.153   4.284   0.137  0.2235  0.2105 -0.4490
 3972TIP3   OH233474   4.607   5.698   3.962  0.1914  0.1367  0.0148
 3972TIP3    H133475   4.659   5.626   3.996  1.9055  0.9559 -0.7698
 3972TIP3    H233476   4.563   5.662   3.885  0.5392 -0.2309 -0.0092
 3973TIP3   OH233477   2.529   5.094   1.231  0.0669 -0.1030 -0.4656
 3973TIP3    H133478   2.525   5.176   1.181 -1.0313 -0.2344 -0.6253
 3973TIP3    H233479   2.544   5.026   1.165 -2.8565 -0.4576 -0.9116
 3974TIP3   OH233480   2.784   5.162   3.862  0.1985  0.6249 -0.1701
 3974TIP3    H133481   2.700   5.125   3.835 -0.6426  0.4385  2.3717
 3974TIP3    H233482   2.771   5.184   3.955  3.1428  0.0117  0.4887
 3975TIP3   OH233483   0.673   5.800   0.654 -0.4564  0.1549  0.2873
 3975TIP3    H133484   0.595   5.792   0.709  0.5713 -0.6591  1.6704
 3975TIP3    H233485   0.638   5.817   0.566 -2.3509 -3.2042  0.2298
 3976TIP3   OH233486   4.991   0.208   4.094 -0.8277  0.1039 -0.0664
 3976TIP3    H133487   4.975   0.255   4.012 -0.0896  0.9376  0.2548
 3976TIP3    H233488   4.913   0.154   4.106 -1.0405  0.1387 -1.2022
 3977TIP3   OH233489   3.432   5.282   3.133  0.2803 -0.4525  0.1695
 3977TIP3    H133490   3.509   5.282   3.077  0.5659  0.4250  0.5353
 3977TIP3    H233491   3.435   5.367   3.177 -0.2124 -0.9122  1.1213
 3978TIP3   OH233492   0.772   4.207   3.832 -0.9453 -0.3096 -0.3475
 3978TIP3    H133493   0.825   4.141   3.787 -0.7400 -0.5874  0.2847
 3978TIP3    H233494   0.817   4.220   3.916 -1.9138 -0.5837  0.2209
 3979TIP3   OH233495   1.641   4.172   2.591  0.4293 -0.4214  0.1785
 3979TIP3    H133496   1.691   4.239   2.638 -1.5164  2.3478 -1.3593
 3979TIP3    H233497   1.693   4.154   2.513  0.4277  0.2497  0.0132
 3980TIP3   OH233498   2.141   0.709   1.844 -0.7298 -0.0152  0.4905
 3980TIP3    H133499   2.080   0.735   1.914 -0.1198  1.4866  0.5022
 3980TIP3    H233500   2.104   0.628   1.810 -1.6421 -0.2022  1.8266
 3981TIP3   OH233501   6.618   2.849   2.039 -0.5921 -0.0552  0.0685
 3981TIP3    H133502   6.646   2.758   2.049 -1.1611 -0.0044  3.1153
 3981TIP3    H233503   6.679   2.887   1.975  2.2130 -1.5805  1.6753
 3982TIP3   OH233504   2.226   3.434   1.564  0.0882  0.4219  0.4934
 3982TIP3    H133505   2.248   3.430   1.657 -2.6186  0.8449  1.2586
 3982TIP3    H233506   2.288   3.374   1.521  0.4275 -0.9729  2.7872
 3983TIP3   OH233507   0.972   1.092   1.914  0.1564 -0.0233 -0.2165
 3983TIP3    H133508   1.036   1.162   1.898  1.3018 -1.3155 -1.5682
 3983TIP3    H233509   0.970   1.083   2.009  1.2053  0.7696 -0.1001
 3984TIP3   OH233510   5.186   6.135   4.764  0.5024 -0.1060 -0.6763
 3984TIP3    H133511   5.132   6.135   4.685 -0.1112 -0.0245 -0.2676
 3984TIP3    H233512   5.127   6.166   4.833  1.1175  0.1245 -0.2442
 3985TIP3   OH233513   4.815   0.879   4.509  0.0232 -0.5106  0.0801
 3985TIP3    H133514   4.726   0.907   4.486 -0.7296 -1.3225  1.8676
 3985TIP3    H233515   4.870   0.918   4.440 -1.8057 -0.8929 -1.7120
 3986TIP3   OH233516   2.250   3.566   0.594 -0.4707 -0.0143 -0.2154
 3986TIP3    H133517   2.168   3.516   0.599 -0.7024  0.3879  0.0779
 3986TIP3    H233518   2.228   3.644   0.544  0.0152 -0.4282 -1.1053
 3987TIP3   OH233519   5.105   0.775   2.158  0.0237  0.2426  0.1634
 3987TIP3    H133520   5.091   0.751   2.249 -1.4507 -1.0991 -0.3800
 3987TIP3    H233521   5.030   0.830   2.135  1.2359  1.9966  0.1936
 3988TIP3   OH233522   6.544   1.956   2.040  0.4369  0.7266 -0.4737
 3988TIP3    H133523   6.636   1.944   2.064  0.4841  0.8367 -0.6014
 3988TIP3    H233524   6.515   2.031   2.091 -0.2172 -0.6617  1.3269
 3989TIP3   OH233525   4.523   3.930   3.183  0.5109  0.1372  0.6014
 3989TIP3    H133526   4.564   4.006   3.226 -0.0567  0.1411  1.1597
 3989TIP3    H233527   4.448   3.967   3.136 -0.2199 -0.1605  1.4996
 3990TIP3   OH233528   2.211   1.965   3.774  0.1297 -0.4656 -0.1938
 3990TIP3    H133529   2.307   1.958   3.772  0.2678  1.1156 -1.6311
 3990TIP3    H233530   2.194   2.046   3.821 -0.4282 -0.0448 -1.0895
 3991TIP3   OH233531   2.858   2.247   8.649 -0.4663  0.0582 -0.2124
 3991TIP3    H133532   2.894   2.300   8.578  1.6511  1.1291  1.5115
 3991TIP3    H233533   2.801   2.308   8.697 -1.7165 -0.6003 -0.8010
 3992TIP3   OH233534   3.433   1.313   2.751  0.0746 -0.5872  0.0065
 3992TIP3    H133535   3.402   1.369   2.680 -0.8601 -0.5341  0.4469
 3992TIP3    H233536   3.392   1.228   2.734  1.4329 -1.1524 -0.6260
 3993TIP3   OH233537   0.012   1.065   3.271  0.0318 -0.2275  0.1448
 3993TIP3    H133538  -0.071   1.073   3.224 -0.9209  1.1283  1.9450
 3993TIP3    H233539   0.075   1.109   3.215  0.2716 -3.6236 -2.6124
 3994TIP3   OH233540   1.488   2.686   2.973 -0.1608  0.1839  0.0459
 3994TIP3    H133541   1.467   2.731   2.891 -0.1644 -1.3409 -0.8223
 3994TIP3    H233542   1.548   2.617   2.948 -0.8772 -0.8942  1.1876
 3995TIP3   OH233543   5.518   1.890   1.045  0.0185  0.5895  0.2878
 3995TIP3    H133544   5.453   1.959   1.055 -0.9319 -0.2359 -0.0801
 3995TIP3    H233545   5.499   1.851   0.960  1.4826  0.8245 -0.1827
 3996TIP3   OH233546   6.775   4.112   2.217 -0.2500  0.5213 -0.4335
 3996TIP3    H133547   6.733   4.067   2.290  0.4771  2.6206  1.3904
 3996TIP3    H233548   6.788   4.043   2.151 -1.3147 -1.3763  1.2179
 3997TIP3   OH233549   2.739   4.641   1.703  0.2131 -0.8518  0.1453
 3997TIP3    H133550   2.644   4.626   1.706  0.1239 -0.3814 -0.0853
 3997TIP3    H233551   2.777   4.568   1.751 -0.3225 -0.5856  0.9906
 3998TIP3   OH233552   1.542   5.797   2.345 -0.1769  0.0517  0.7798
 3998TIP3    H133553   1.600   5.825   2.416 -2.5337 -0.7498  3.2005
 3998TIP3    H233554   1.532   5.874   2.290  0.7410  1.1193  2.0595
 3999TIP3   OH233555   2.923   6.257   3.066 -0.2020  0.0407  0.3917
 3999TIP3    H133556   2.872   6.301   2.998  1.5375  1.3095 -0.1625
 3999TIP3    H233557   2.976   6.192   3.018 -2.0274 -2.0803  1.0883
 4000TIP3   OH233558   4.614   5.736   2.510 -0.3603 -0.1708 -0.2123
 4000TIP3    H133559   4.585   5.656   2.554  0.3755  0.1845  0.9619
 4000TIP3    H233560   4.697   5.758   2.553 -0.3510  0.9969 -0.7956
 4001TIP3   OH233561   5.041   0.994   2.562 -0.3722 -0.3723  0.0617
 4001TIP3    H133562   5.049   0.990   2.657 -0.9703 -0.3201  0.1188
 4001TIP3    H233563   5.045   0.903   2.534  0.8434 -0.3300  0.0343
 4002TIP3   OH233564   3.849   3.590   1.135  0.6032 -0.6110 -0.2462
 4002TIP3    H133565   3.795   3.514   1.114 -0.6322  0.0711  0.3428
 4002TIP3    H233566   3.828   3.609   1.226  3.4439 -1.5785  0.7225
 4003TIP3   OH233567   0.321   4.221   1.406  0.2390  0.0895  0.7831
 4003TIP3    H133568   0.251   4.251   1.464 -0.3760  1.3142 -0.5173
 4003TIP3    H233569   0.276   4.201   1.324  1.4551  1.5636 -0.3078
 4004TIP3   OH233570   5.468   5.581   2.352 -0.0160 -0.2218 -0.5595
 4004TIP3    H133571   5.546   5.528   2.334 -0.5072 -0.6289 -1.5834
 4004TIP3    H233572   5.444   5.618   2.267  0.0279  1.2821  0.0417
 4005TIP3   OH233573   4.648   3.236   2.550  0.3651  0.0584  0.2199
 4005TIP3    H133574   4.742   3.223   2.535  0.4276  0.1004  0.5613
 4005TIP3    H233575   4.627   3.176   2.621  0.3662  0.8280  0.8809
 4006TIP3   OH233576   2.620   6.168   2.862  0.4404  0.6238 -0.1731
 4006TIP3    H133577   2.611   6.146   2.955 -0.5502  1.7549  0.0131
 4006TIP3    H233578   2.532   6.190   2.833  0.5377 -0.7650 -1.6909
 4007TIP3   OH233579   1.030   0.809   2.884  0.0171 -0.0854 -0.2433
 4007TIP3    H133580   0.971   0.817   2.958 -0.2622 -0.9063 -0.3644
 4007TIP3    H233581   0.980   0.762   2.817  0.7649 -0.7395 -0.3714
 4008TIP3   OH233582   4.363   0.744   0.851 -0.0721  0.0318  0.5753
 4008TIP3    H133583   4.454   0.761   0.872  0.2364 -0.5241 -0.2512
 4008TIP3    H233584   4.326   0.831   0.832  0.4728  0.1839  0.2004
 4009TIP3   OH233585   1.166   4.449   2.673 -0.2324 -0.2652  0.0651
 4009TIP3    H133586   1.237   4.442   2.610  0.5037  1.6773  0.6029
 4009TIP3    H233587   1.091   4.479   2.622 -1.0276 -3.1548 -0.6725
 4010TIP3   OH233588   2.048   3.398   2.992 -0.2683  0.0363 -0.3158
 4010TIP3    H133589   1.991   3.435   2.925 -2.1066 -0.7229  0.7561
 4010TIP3    H233590   1.989   3.351   3.050  1.3634 -0.0038  1.3982
 4011TIP3   OH233591   1.608   1.899   3.696 -0.2305 -0.0572 -0.1892
 4011TIP3    H133592   1.579   1.810   3.712 -0.7347  0.1932  0.3353
 4011TIP3    H233593   1.703   1.896   3.706 -0.2666 -0.4890  0.0325
 4012TIP3   OH233594   3.407   5.888   1.713 -0.2037 -0.1192 -0.1957
 4012TIP3    H133595   3.318   5.856   1.732 -0.0418 -0.2243  0.3891
 4012TIP3    H233596   3.452   5.884   1.797 -0.4026  2.3812  0.1165
 4013TIP3   OH233597   2.636   0.962   2.520 -0.1292  0.4459  0.7022
 4013TIP3    H133598   2.689   0.893   2.481  0.4687  0.0423  2.1390
 4013TIP3    H233599   2.548   0.925   2.526 -0.3633  0.7169 -0.6963
 4014TIP3   OH233600   1.004   0.901   4.065 -0.5798  0.4389 -0.0148
 4014TIP3    H133601   1.087   0.858   4.085  0.2640  2.5131  1.3962
 4014TIP3    H233602   0.939   0.852   4.114  0.4094  0.9184  1.8985
 4015TIP3   OH233603   1.985   3.846   1.656 -0.0555  0.6645 -0.0440
 4015TIP3    H133604   1.897   3.884   1.663 -0.2265  0.0844  1.2084
 4015TIP3    H233605   1.970   3.756   1.627  0.0899  0.4310  0.5930
 4016TIP3   OH233606   2.802   5.488   3.217 -0.0481 -0.0310  0.2530
 4016TIP3    H133607   2.831   5.568   3.262 -2.6847 -1.0381  4.2355
 4016TIP3    H233608   2.878   5.430   3.221  0.9898  1.2591 -0.0894
 4017TIP3   OH233609   0.849   4.949   3.924  0.2533 -0.1159 -0.5878
 4017TIP3    H133610   0.791   4.884   3.963 -0.2392 -0.0924 -1.2707
 4017TIP3    H233611   0.910   4.972   3.994 -0.8394  0.1927  0.2797
 4018TIP3   OH233612   2.516   4.680   2.538 -0.1922 -0.4401  0.0767
 4018TIP3    H133613   2.557   4.738   2.601  0.0340 -1.2319  0.6729
 4018TIP3    H233614   2.575   4.681   2.462 -1.1283  1.5564 -0.7101
 4019TIP3   OH233615   3.892   3.002   3.880 -0.3436  0.1562  0.1228
 4019TIP3    H133616   3.845   3.019   3.798 -2.3656  0.7828  1.3562
 4019TIP3    H233617   3.888   2.908   3.891  2.4729 -0.3499 -1.8584
 4020TIP3   OH233618   5.409   6.078   4.497 -0.5501  0.9494 -0.0535
 4020TIP3    H133619   5.487   6.030   4.471  0.8218  3.9653 -2.0603
 4020TIP3    H233620   5.338   6.013   4.491  1.4948 -1.4587  0.2067
 4021TIP3   OH233621   6.218   4.978   1.590 -0.0704  0.1412  0.4407
 4021TIP3    H133622   6.160   4.981   1.666 -2.6394  2.0762 -1.3998
 4021TIP3    H233623   6.164   5.012   1.518  3.1372  1.2894 -1.6329
 4022TIP3   OH233624   6.638   5.732   1.908  0.3507 -0.5276  0.3643
 4022TIP3    H133625   6.638   5.757   2.000 -0.6469 -0.3466  0.3248
 4022TIP3    H233626   6.731   5.724   1.885  0.6189  0.0600  1.2072
 4023TIP3   OH233627   6.512   6.507   4.281  0.1104 -0.1180 -0.0711
 4023TIP3    H133628   6.525   6.450   4.356  1.0117  0.6048  0.3486
 4023TIP3    H233629   6.441   6.466   4.231 -0.9065 -0.3187  1.4653
 4024TIP3   OH233630   2.504   1.684   3.197  0.2062 -0.0203 -0.0656
 4024TIP3    H133631   2.558   1.680   3.118  0.5091  2.4029 -0.0606
 4024TIP3    H233632   2.565   1.671   3.269 -0.0943 -2.3949 -0.1520
 4025TIP3   OH233633   2.659   4.621   2.129 -0.4469 -0.2548  0.0363
 4025TIP3    H133634   2.745   4.600   2.092 -0.8042 -0.4466 -0.7250
 4025TIP3    H233635   2.597   4.602   2.057 -1.1819 -0.7328  0.7673
 4026TIP3   OH233636   2.312   2.122   0.641  0.1165 -0.1990  0.2215
 4026TIP3    H133637   2.285   2.048   0.587 -0.8041  0.3550 -0.1020
 4026TIP3    H233638   2.374   2.171   0.586 -1.3423  0.7444 -0.6499
 4027TIP3   OH233639   4.683   1.946   4.172  0.2301  0.2506 -0.2348
 4027TIP3    H133640   4.691   2.041   4.174 -0.5394  0.3203  1.2103
 4027TIP3    H233641   4.590   1.930   4.159  0.5534 -0.3551 -2.1044
 4028TIP3   OH233642   4.604   1.836   1.771 -0.5633 -0.4096 -0.5588
 4028TIP3    H133643   4.559   1.784   1.838 -1.2670 -1.9970 -2.1868
 4028TIP3    H233644   4.662   1.774   1.728  1.5340  1.1034 -0.0228
 4029TIP3   OH233645   6.184   2.397   4.297  0.1323 -0.3037  0.3666
 4029TIP3    H133646   6.180   2.463   4.366  0.8233  1.3637 -1.1134
 4029TIP3    H233647   6.098   2.354   4.300 -0.0134  0.0250  1.9381
 4030TIP3   OH233648   5.768   3.208   4.227 -0.2079  0.2562 -0.3436
 4030TIP3    H133649   5.728   3.286   4.189 -0.1420 -0.4783 -2.0085
 4030TIP3    H233650   5.858   3.234   4.247 -0.4798  0.8884  0.0510
 4031TIP3   OH233651   2.976   1.565   3.251 -0.1876 -1.0625  0.4226
 4031TIP3    H133652   3.068   1.581   3.231 -0.5169 -0.2699 -0.5549
 4031TIP3    H233653   2.977   1.495   3.316  1.0769 -1.3865  0.0745
 4032TIP3   OH233654   0.440   2.859   1.485 -0.1851 -0.2488 -0.1365
 4032TIP3    H133655   0.490   2.926   1.530  1.0670 -1.0691 -0.2713
 4032TIP3    H233656   0.479   2.854   1.397 -2.6124  1.3757 -1.4273
 4033TIP3   OH233657   1.920   3.604   3.329  0.0218 -0.1834  0.4980
 4033TIP3    H133658   1.960   3.580   3.412 -0.0647  0.9384  0.8717
 4033TIP3    H233659   1.995   3.617   3.270  0.0657 -1.5738  0.2088
 4034TIP3   OH233660   3.291   6.772   0.271 -0.4801  0.0576  0.5701
 4034TIP3    H133661   3.380   6.803   0.254 -0.7907  0.2602 -0.7771
 4034TIP3    H233662   3.271   6.803   0.360  0.4865  0.7063  0.5687
 4035TIP3   OH233663   4.151   5.380   3.699 -0.3675 -0.0158 -0.2231
 4035TIP3    H133664   4.246   5.374   3.699 -0.4452 -1.7566 -0.4843
 4035TIP3    H233665   4.126   5.364   3.608 -0.8808  1.7421 -0.4320
 4036TIP3   OH233666   4.521   2.171   2.975  0.3462  0.1445 -0.2883
 4036TIP3    H133667   4.531   2.076   2.986  0.2277  0.3040  1.4694
 4036TIP3    H233668   4.600   2.197   2.927  0.5864 -0.7756 -0.4296
 4037TIP3   OH233669   6.217   0.187   3.930 -0.2128 -0.2642 -0.1632
 4037TIP3    H133670   6.139   0.240   3.914 -0.4014 -0.0563  1.2602
 4037TIP3    H233671   6.250   0.219   4.014  2.5284  0.9912 -1.6039
 4038TIP3   OH233672   4.050   6.639   0.862 -0.1080 -0.1103  0.3158
 4038TIP3    H133673   4.080   6.711   0.807  0.1596 -0.0135  0.5849
 4038TIP3    H233674   4.117   6.571   0.853 -0.5255 -0.4629 -0.1985
 4039TIP3   OH233675   2.563   2.364   3.028 -0.0389  0.0967 -0.1122
 4039TIP3    H133676   2.596   2.371   2.938 -1.4672 -0.2981 -0.6928
 4039TIP3    H233677   2.469   2.349   3.018  0.1351 -2.4639  1.3785
 4040TIP3   OH233678   4.385   1.881   4.213  0.3302  0.6158 -0.2569
 4040TIP3    H133679   4.391   1.888   4.309  0.2754  0.9861 -0.2778
 4040TIP3    H233680   4.324   1.809   4.199 -0.1703  0.9798 -0.0032
 4041TIP3   OH233681   0.027   5.493   3.471  0.8144 -0.3324 -0.1309
 4041TIP3    H133682   0.012   5.536   3.386 -0.6855 -1.0294 -0.2575
 4041TIP3    H233683   0.017   5.563   3.535 -1.4492 -0.3811 -0.3481
 4042TIP3   OH233684   1.908   4.369   1.050  0.4238 -0.3205 -0.2073
 4042TIP3    H133685   1.886   4.368   1.143  1.3043  0.3876  0.0312
 4042TIP3    H233686   1.858   4.443   1.014 -2.0809 -2.2459 -0.9122
 4043TIP3   OH233687   3.991   2.931   1.294  0.4443  0.3523 -0.5673
 4043TIP3    H133688   4.046   2.936   1.216  0.1233  1.0899 -0.7538
 4043TIP3    H233689   3.911   2.977   1.270 -0.1531 -0.4768 -0.2054
 4044TIP3   OH233690   2.461   1.225   3.418  0.8096 -0.0776  0.0183
 4044TIP3    H133691   2.452   1.238   3.324  1.7843  0.2160 -0.0453
 4044TIP3    H233692   2.458   1.314   3.455 -1.0928 -0.2583  0.4410
 4045TIP3   OH233693   2.731   1.426   2.741 -0.0249 -0.2816  0.4838
 4045TIP3    H133694   2.772   1.453   2.824  3.3356  2.0592 -1.6994
 4045TIP3    H233695   2.740   1.502   2.684 -1.4037 -2.1038 -2.3646
 4046TIP3   OH233696   6.507   2.393   8.601  0.1040  0.0985  0.1382
 4046TIP3    H133697   6.503   2.469   8.543 -0.4501 -0.6266 -0.8188
 4046TIP3    H233698   6.584   2.345   8.570 -0.5187 -0.5847 -0.4103
 4047TIP3   OH233699   2.684   3.162   2.017  0.0400 -0.5072 -0.4066
 4047TIP3    H133700   2.702   3.074   2.052 -1.5276 -0.4151  0.7597
 4047TIP3    H233701   2.620   3.147   1.947 -1.8320 -0.2063  1.1400
 4048TIP3   OH233702   0.944   3.372   3.446  0.2420 -0.0864  0.3566
 4048TIP3    H133703   0.852   3.386   3.468  0.6946  0.9105  1.7038
 4048TIP3    H233704   0.980   3.323   3.520  1.0943  0.6690  0.4620
 4049TIP3   OH233705   2.480   2.699   0.785 -0.3673  0.1171 -0.4091
 4049TIP3    H133706   2.539   2.761   0.828 -0.4283 -0.3474  0.3640
 4049TIP3    H233707   2.482   2.725   0.693 -1.9440  2.5539  0.1533
 4050TIP3   OH233708   1.049   3.784   0.983 -0.4494  0.4709  0.2606
 4050TIP3    H133709   1.011   3.699   1.004 -0.8717  0.8307  0.9984
 4050TIP3    H233710   1.134   3.783   1.027 -1.2826  1.1757  1.9747
 4051TIP3   OH233711   2.709   0.113   2.971  0.2459 -0.5885 -0.1801
 4051TIP3    H133712   2.744   0.177   3.033 -0.3146  0.7404 -1.1888
 4051TIP3    H233713   2.724   0.028   3.013  0.3937  0.2294  1.5093
 4052TIP3   OH233714   3.595   1.010   2.292 -0.4679  1.0256  0.0076
 4052TIP3    H133715   3.532   1.079   2.312 -0.3884  1.3702 -0.9036
 4052TIP3    H233716   3.567   0.975   2.208 -0.4293  0.0224  0.3948
 4053TIP3   OH233717   1.893   0.771   0.728  0.2875 -0.1582 -0.6979
 4053TIP3    H133718   1.902   0.866   0.726  0.7205 -0.1747  0.0613
 4053TIP3    H233719   1.813   0.755   0.778 -0.3033 -0.1800 -1.6268
 4054TIP3   OH233720   1.897   0.586   1.692 -0.1079  0.2519  0.1928
 4054TIP3    H133721   1.934   0.673   1.683 -1.0388  0.9364  2.3983
 4054TIP3    H233722   1.802   0.600   1.696 -0.2879 -0.8789  0.3320
 4055TIP3   OH233723   3.420   6.083   2.868 -0.0558 -0.0262 -0.1278
 4055TIP3    H133724   3.490   6.022   2.893 -0.6513 -0.4869  0.4619
 4055TIP3    H233725   3.419   6.080   2.772 -0.5758 -1.5713 -0.1126
 4056TIP3   OH233726   0.280   6.507   0.168  0.2104 -0.3931  0.1427
 4056TIP3    H133727   0.216   6.442   0.196  0.3785 -2.0373 -2.7619
 4056TIP3    H233728   0.229   6.572   0.120  0.3111  0.3803  1.0707
 4057TIP3   OH233729   2.903   5.789   8.497 -0.4062 -0.4126  0.2499
 4057TIP3    H133730   2.951   5.819   8.420 -1.6696  1.5112  0.1645
 4057TIP3    H233731   2.812   5.809   8.479 -0.8683 -0.9900  1.7750
 4058TIP3   OH233732   6.671   4.193   2.776  0.3935 -0.0489 -0.1302
 4058TIP3    H133733   6.647   4.133   2.846  0.2331 -0.2045 -0.3167
 4058TIP3    H233734   6.595   4.250   2.765 -0.1965 -0.9890 -1.1947
 4059TIP3   OH233735   6.066   0.430   1.141  0.3506  0.6973 -0.7298
 4059TIP3    H133736   6.100   0.348   1.177 -0.5546  1.1823  1.4086
 4059TIP3    H233737   6.082   0.494   1.209 -0.6414  1.9061 -1.5855
 4060TIP3   OH233738   3.424   5.477   2.604  0.3078  0.1794  0.2294
 4060TIP3    H133739   3.501   5.504   2.655  0.2747 -0.6860  0.7533
 4060TIP3    H233740   3.365   5.552   2.609  0.6235  0.3962  0.8381
 4061TIP3   OH233741   4.496   2.686   1.021 -0.2809 -0.5319 -0.0469
 4061TIP3    H133742   4.428   2.754   1.013  0.1152 -0.0921  0.2936
 4061TIP3    H233743   4.466   2.616   0.962  0.8663  1.1961 -2.8665
 4062TIP3   OH233744   1.258   0.212   3.512  0.6214 -0.2043  0.0765
 4062TIP3    H133745   1.297   0.133   3.477  0.9788  0.4816 -1.1260
 4062TIP3    H233746   1.180   0.182   3.559  1.0362 -1.3017  0.0838
 4063TIP3   OH233747   6.161   5.578   2.733  0.0976  0.1444 -0.1386
 4063TIP3    H133748   6.103   5.507   2.707  1.0366  0.0464 -2.2387
 4063TIP3    H233749   6.248   5.551   2.702  0.6373  1.7867 -0.1947
 4064TIP3   OH233750   0.277   5.090   2.240 -0.6893  0.5095  0.3719
 4064TIP3    H133751   0.308   5.152   2.174 -0.5490  0.8957  0.7962
 4064TIP3    H233752   0.254   5.011   2.191  1.1846  0.1147  0.0591
 4065TIP3   OH233753   1.937   4.989   0.464  0.1992  0.2802 -0.4831
 4065TIP3    H133754   1.865   4.947   0.511  0.7321  1.4480  1.4947
 4065TIP3    H233755   1.917   5.083   0.467  1.1816  0.5232 -0.9879
 4066TIP3   OH233756   3.548   2.309   4.668 -0.1708 -0.3455  0.4501
 4066TIP3    H133757   3.565   2.235   4.727  1.3506 -0.0664  0.4094
 4066TIP3    H233758   3.491   2.367   4.718 -0.3452 -0.9511  0.9717
 4067TIP3   OH233759   6.162   1.513   3.701  0.2294 -0.1385 -0.0016
 4067TIP3    H133760   6.230   1.501   3.635  0.7091 -0.8523  0.6045
 4067TIP3    H233761   6.127   1.425   3.716 -2.0558  0.4214 -1.5440
 4068TIP3   OH233762   5.293   4.750   4.572  0.3003  0.2099 -0.1305
 4068TIP3    H133763   5.342   4.760   4.654  1.2087 -0.6070 -0.5618
 4068TIP3    H233764   5.327   4.669   4.534 -0.7188  0.1342 -0.9076
 4069TIP3   OH233765   0.658   3.741   2.726  0.6019 -0.0703 -0.4191
 4069TIP3    H133766   0.752   3.759   2.723  0.8774 -1.4955 -1.9404
 4069TIP3    H233767   0.645   3.692   2.807  0.8399  1.6160  0.6832
 4070TIP3   OH233768   5.761   2.094   1.700 -0.0397  0.2921 -0.2987
 4070TIP3    H133769   5.796   2.138   1.778 -2.4627 -0.1714  1.1655
 4070TIP3    H233770   5.678   2.139   1.684 -0.7017 -1.1906 -1.1617
 4071TIP3   OH233771   6.707   4.132   1.668  0.8297  0.7311  0.4271
 4071TIP3    H133772   6.786   4.125   1.614 -0.6440 -2.6158 -1.6340
 4071TIP3    H233773   6.687   4.226   1.670  3.3745  1.4072 -1.1534
 4072TIP3   OH233774   1.953   3.074   1.948 -0.3130 -0.1247 -0.2813
 4072TIP3    H133775   1.944   3.134   1.874  0.7555  1.1602  0.5845
 4072TIP3    H233776   2.020   3.114   2.003  1.4209 -2.7911 -0.3020
 4073TIP3   OH233777   2.585   4.663   1.004  0.4464 -0.1120 -0.8619
 4073TIP3    H133778   2.647   4.734   1.018 -0.7670  0.9860 -0.8210
 4073TIP3    H233779   2.522   4.671   1.076 -0.2742 -0.5823 -1.4172
 4074TIP3   OH233780   5.033   3.594   3.929  0.3070  0.2910 -0.0717
 4074TIP3    H133781   5.074   3.622   3.847  1.5856 -1.4194 -0.0881
 4074TIP3    H233782   4.975   3.666   3.954  1.3022  1.6421 -1.5056
 4075TIP3   OH233783   3.163   5.885   2.269 -0.6205  0.0300 -0.1973
 4075TIP3    H133784   3.091   5.945   2.250 -1.2380 -0.0693  1.5877
 4075TIP3    H233785   3.242   5.930   2.239 -1.4397 -0.2753 -3.1231
 4076TIP3   OH233786   1.420   0.676   0.449 -0.4844 -0.5477 -0.0687
 4076TIP3    H133787   1.412   0.728   0.529 -2.1142 -1.7661  0.6220
 4076TIP3    H233788   1.390   0.735   0.379 -1.4402 -0.2501  0.5729
 4077TIP3   OH233789   4.428   6.570   1.369 -0.3009 -0.1157  0.1117
 4077TIP3    H133790   4.356   6.631   1.350 -0.0332  1.1215  2.6369
 4077TIP3    H233791   4.390   6.483   1.358 -2.5716  0.4862  2.3229
 4078TIP3   OH233792   6.130   4.714   3.924 -0.0128 -0.8495 -0.0982
 4078TIP3    H133793   6.183   4.766   3.984 -1.5496  0.0582  0.5203
 4078TIP3    H233794   6.159   4.741   3.837 -0.7161  1.0339  0.2048
 4079TIP3   OH233795   2.005   5.894   1.137  0.0528 -0.3911 -0.5794
 4079TIP3    H133796   1.939   5.950   1.095 -0.6032 -2.2720 -2.2255
 4079TIP3    H233797   2.088   5.935   1.114 -0.4553  0.6758 -0.5709
 4080TIP3   OH233798   4.324   0.043   4.145  0.6305  0.1441 -0.2329
 4080TIP3    H133799   4.372  -0.022   4.094 -1.0991 -0.5086 -1.1497
 4080TIP3    H233800   4.258  -0.008   4.193 -0.3521  1.1310 -0.4705
 4081TIP3   OH233801   4.989   4.410   1.711  0.3760 -0.6150  0.0495
 4081TIP3    H133802   4.948   4.342   1.658  1.1634 -1.6134  0.6882
 4081TIP3    H233803   4.985   4.488   1.657 -0.5008 -1.1737 -0.7236
 4082TIP3   OH233804   1.655   4.901   0.887 -0.0536  0.1350 -0.2954
 4082TIP3    H133805   1.633   4.951   0.965 -0.7441  1.5216 -1.3229
 4082TIP3    H233806   1.627   4.812   0.907 -0.4720  0.5174  0.9294
 4083TIP3   OH233807   5.891   3.526   1.476 -0.1952  0.0515  0.0474
 4083TIP3    H133808   5.834   3.596   1.446 -0.3389 -0.3802 -0.7245
 4083TIP3    H233809   5.871   3.516   1.569 -0.5536  0.6718  0.0382
 4084TIP3   OH233810   5.463   4.777   1.295 -0.0193 -0.6951  0.2349
 4084TIP3    H133811   5.530   4.720   1.257  0.2135 -0.8703  0.9114
 4084TIP3    H233812   5.381   4.744   1.258  0.4245  1.7645 -3.5867
 4085TIP3   OH233813   2.783   5.814   0.194  0.2059 -0.4965 -0.1189
 4085TIP3    H133814   2.840   5.787   0.122 -0.5758  1.1182 -1.4284
 4085TIP3    H233815   2.819   5.899   0.221 -1.3973  0.4773 -0.8674
 4086TIP3   OH233816   2.571   3.453   8.692 -0.9872 -0.5723  0.4070
 4086TIP3    H133817   2.551   3.519   8.758 -0.1016  1.0556 -0.8730
 4086TIP3    H233818   2.526   3.484   8.613  1.7332  0.1379 -0.9926
 4087TIP3   OH233819   0.200   0.679   2.397 -0.0734  0.1416 -0.3364
 4087TIP3    H133820   0.133   0.746   2.384 -0.4752 -0.2479 -0.3136
 4087TIP3    H233821   0.192   0.622   2.321 -0.4054 -0.4356  0.1198
 4088TIP3   OH233822   1.768   1.615   3.060  0.0959  0.0321 -0.0986
 4088TIP3    H133823   1.850   1.571   3.041  0.9181  1.2022  0.6330
 4088TIP3    H233824   1.793   1.696   3.106 -1.4766  0.1760  0.5895
 4089TIP3   OH233825   5.092   3.444   3.511  0.1026  0.1674  0.4164
 4089TIP3    H133826   5.150   3.520   3.507 -1.5945  1.5026  0.2215
 4089TIP3    H233827   5.147   3.373   3.545  1.3725  1.8037  1.9128
 4090TIP3   OH233828   6.141   0.705   2.062  0.4988 -0.1279  0.0309
 4090TIP3    H133829   6.141   0.798   2.086  1.2437  0.3278 -1.6340
 4090TIP3    H233830   6.217   0.695   2.005  1.4596 -2.1611  1.5369
 4091TIP3   OH233831   3.617   2.844   2.361  0.1552 -0.4741  0.7955
 4091TIP3    H133832   3.581   2.777   2.420  0.6541 -1.6495 -0.1960
 4091TIP3    H233833   3.711   2.835   2.369  0.2506  0.6805  1.2417
 4092TIP3   OH233834   4.916   4.164   1.578 -0.1273  0.0098  0.0775
 4092TIP3    H133835   5.011   4.148   1.583  0.0842  1.4093  3.0670
 4092TIP3    H233836   4.878   4.099   1.636 -0.7193  0.9412  0.7647
 4093TIP3   OH233837   3.503   4.374   1.019 -0.1123 -0.3364 -0.7482
 4093TIP3    H133838   3.451   4.358   1.098  0.9049  0.6666  0.1611
 4093TIP3    H233839   3.559   4.296   1.011 -0.0554 -0.3378 -0.3415
 4094TIP3   OH233840   6.052   5.805   1.152  0.0942  0.0445  0.4628
 4094TIP3    H133841   5.974   5.754   1.129  0.3575 -0.1268 -0.0669
 4094TIP3    H233842   6.055   5.803   1.248 -0.4994 -0.0249  0.4832
 4095TIP3   OH233843   1.086   4.910   2.010 -0.0638  0.2239  0.4066
 4095TIP3    H133844   1.059   4.966   1.937 -1.2433  0.7905  1.2587
 4095TIP3    H233845   1.077   4.821   1.975 -1.4964  0.4533  0.1054
 4096TIP3   OH233846   6.637   3.584   1.815  0.8228  0.2555 -0.3842
 4096TIP3    H133847   6.678   3.643   1.752 -0.6761  1.7826 -0.0022
 4096TIP3    H233848   6.549   3.570   1.781  0.3892  0.1481  0.7390
 4097TIP3   OH233849   5.262   2.125   2.646 -0.4799  0.5476 -0.5201
 4097TIP3    H133850   5.175   2.145   2.609 -1.3703 -0.2443  1.0671
 4097TIP3    H233851   5.251   2.138   2.740 -0.0001 -3.2655  0.2157
 4098TIP3   OH233852   1.382   3.001   2.622 -0.4691 -0.3847 -0.1629
 4098TIP3    H133853   1.342   3.051   2.693 -1.4769 -0.4966 -0.6248
 4098TIP3    H233854   1.307   2.958   2.579 -0.2531  1.8594 -3.0254
 4099TIP3   OH233855   5.390   0.629   2.548 -0.7359 -0.4527  0.5848
 4099TIP3    H133856   5.327   0.557   2.553  0.3265 -1.5932 -1.5998
 4099TIP3    H233857   5.475   0.588   2.556 -0.0460  0.3449 -1.8898
 4100TIP3   OH233858   1.451   1.912   2.717  0.1220 -0.3848 -0.1126
 4100TIP3    H133859   1.389   1.902   2.789 -2.2018  1.1014 -1.7518
 4100TIP3    H233860   1.443   1.831   2.667 -0.4212 -0.2581 -0.2388
 4101TIP3   OH233861   5.185   6.081   2.611 -0.3398  0.6999 -0.2034
 4101TIP3    H133862   5.201   6.060   2.519  2.3222  2.8369 -0.3575
 4101TIP3    H233863   5.128   6.158   2.609 -2.2082 -0.5943  0.0961
 4102TIP3   OH233864   3.006   3.030   3.472  0.1580  0.6072 -0.4977
 4102TIP3    H133865   2.986   3.106   3.417 -2.2131  0.0594 -0.5071
 4102TIP3    H233866   3.018   3.066   3.560  0.2164  1.0944 -0.6987
 4103TIP3   OH233867   3.870   1.687   3.529  0.1347  0.3152  0.0047
 4103TIP3    H133868   3.880   1.755   3.596  2.2093  0.0264  0.0372
 4103TIP3    H233869   3.877   1.605   3.577  1.4415  0.1060 -0.4946
 4104TIP3   OH233870   0.687   1.650   1.548  0.0242 -0.1558  0.5137
 4104TIP3    H133871   0.698   1.702   1.469  2.2699 -2.0463 -0.5229
 4104TIP3    H233872   0.637   1.573   1.521 -0.7912  0.0461  1.3743
 4105TIP3   OH233873   1.486   0.853   3.951 -0.3546  0.1873  0.5608
 4105TIP3    H133874   1.435   0.877   4.028 -1.4391  1.5618 -0.5524
 4105TIP3    H233875   1.512   0.936   3.912  2.2102 -0.4466  0.6756
 4106TIP3   OH233876   4.906   1.392   1.565 -0.6702 -0.0798 -0.5332
 4106TIP3    H133877   4.913   1.334   1.641  0.0276  0.7547  0.0650
 4106TIP3    H233878   4.889   1.334   1.491 -2.2360 -0.8443  0.3837
 4107TIP3   OH233879   4.974   6.705   0.705  0.4292 -0.0742 -0.1665
 4107TIP3    H133880   4.963   6.719   0.611  1.1459 -2.0439 -0.6034
 4107TIP3    H233881   4.892   6.736   0.744 -0.6170 -0.8423 -1.6545
 4108TIP3   OH233882   0.377   5.438   1.888 -0.1652  0.0802 -0.4981
 4108TIP3    H133883   0.429   5.477   1.959 -2.5350  0.1809  1.3044
 4108TIP3    H233884   0.405   5.484   1.809  2.0376  0.4975  0.4432
 4109TIP3   OH233885   4.244   4.734   4.564 -0.6729  0.5882 -0.0850
 4109TIP3    H133886   4.266   4.659   4.619 -0.4568 -0.3049 -1.3397
 4109TIP3    H233887   4.266   4.706   4.475  4.0034  3.7488 -0.2777
 4110TIP3   OH233888   3.646   5.443   1.859  0.0797 -0.1805 -0.4971
 4110TIP3    H133889   3.660   5.498   1.936  1.9716  1.2777 -1.7764
 4110TIP3    H233890   3.650   5.353   1.892 -0.0607  0.4119  1.2067
 4111TIP3   OH233891   3.369   3.440   0.287  0.2391 -0.3796 -0.1804
 4111TIP3    H133892   3.322   3.444   0.204  1.5108  0.4259 -0.9087
 4111TIP3    H233893   3.320   3.378   0.340 -0.9298 -0.4771 -1.3284
 4112TIP3   OH233894   0.710   4.503   1.188 -0.4379 -0.0987 -0.3185
 4112TIP3    H133895   0.619   4.474   1.180 -0.4067 -0.0091 -1.0797
 4112TIP3    H233896   0.704   4.591   1.224 -0.6354 -0.2185 -0.0544
 4113TIP3   OH233897   0.000   6.042   1.350  0.1121 -0.3647  0.5145
 4113TIP3    H133898   0.038   6.094   1.420 -0.5726 -0.2333  0.7973
 4113TIP3    H233899  -0.093   6.063   1.353  0.1625  0.1806 -0.8801
 4114TIP3   OH233900   0.510   2.552   1.113 -0.0115  0.0863 -0.5865
 4114TIP3    H133901   0.605   2.542   1.120 -0.1248 -0.0470  0.9608
 4114TIP3    H233902   0.498   2.614   1.041  1.3522  2.1294  0.8393
 4115TIP3   OH233903   0.436   1.610   0.903  0.1056  0.0315  0.2385
 4115TIP3    H133904   0.426   1.641   0.993 -2.6485  0.1271 -0.0097
 4115TIP3    H233905   0.530   1.614   0.887  0.6927  0.0771  3.0662
 4116TIP3   OH233906   2.282   4.668   1.076 -0.0271  0.2984 -0.2121
 4116TIP3    H133907   2.291   4.581   1.116 -0.6447  0.5544  0.5109
 4116TIP3    H233908   2.280   4.728   1.150 -1.7117  0.7390 -0.5760
 4117TIP3   OH233909   6.669   2.963   1.492  0.2944  0.1631  1.1620
 4117TIP3    H133910   6.575   2.950   1.502  0.0644  0.2375 -0.5362
 4117TIP3    H233911   6.708   2.884   1.529 -0.6388 -1.4484 -1.0591
 4118TIP3   OH233912   5.260   2.383   1.262  0.4044 -0.6068  0.6069
 4118TIP3    H133913   5.308   2.434   1.197  0.7908 -2.1577 -0.3890
 4118TIP3    H233914   5.327   2.352   1.323  0.6134 -2.1261 -0.3404
 4119TIP3   OH233915   4.834   0.090   1.231 -0.4684  0.1627  0.3182
 4119TIP3    H133916   4.808   0.002   1.258  1.8490 -0.6670  0.0908
 4119TIP3    H233917   4.868   0.131   1.310  1.2813 -0.3050 -0.1433
 4120TIP3   OH233918   0.545   5.535   3.050 -0.5253  0.6505 -0.5149
 4120TIP3    H133919   0.574   5.453   3.010 -0.1501  1.4305 -1.9199
 4120TIP3    H233920   0.454   5.545   3.021 -0.7571  0.4546  0.1316
 4121TIP3   OH233921   1.412   5.743   8.634 -0.4590 -0.4584  1.0518
 4121TIP3    H133922   1.334   5.779   8.676 -0.4447  1.7208 -0.6281
 4121TIP3    H233923   1.485   5.773   8.688 -0.5328  1.2280  0.2768
 4122TIP3   OH233924   0.682   2.519   2.934 -0.1699 -0.4158  0.2679
 4122TIP3    H133925   0.736   2.563   2.999 -0.9271 -1.4090  1.6076
 4122TIP3    H233926   0.596   2.512   2.974 -1.0961  0.3220 -1.4695
 4123TIP3   OH233927   5.239   2.760   2.378 -0.9629  0.0295  0.4396
 4123TIP3    H133928   5.251   2.838   2.432 -3.0238  0.4903  0.3125
 4123TIP3    H233929   5.191   2.791   2.301  1.1398 -0.7702 -1.3112
 4124TIP3   OH233930   6.569   3.904   1.233  0.1193  0.5742  0.1304
 4124TIP3    H133931   6.588   3.892   1.326  1.1830 -0.5013 -0.1968
 4124TIP3    H233932   6.651   3.882   1.189 -0.2666  1.4060 -1.0538
 4125TIP3   OH233933   4.509   2.857   3.332 -0.7727  0.0178  0.3468
 4125TIP3    H133934   4.514   2.930   3.393 -0.7316  0.2415  0.0801
 4125TIP3    H233935   4.423   2.818   3.348 -1.8347  1.5882 -1.1411
 4126TIP3   OH233936   0.869   3.453   2.731 -0.0450 -0.1689 -0.6410
 4126TIP3    H133937   0.950   3.504   2.725  0.2222 -0.3941  0.7769
 4126TIP3    H233938   0.830   3.478   2.815 -0.6988 -1.1500 -0.6308
 4127TIP3   OH233939   2.646   5.865   2.788 -0.2235 -0.0991 -0.4372
 4127TIP3    H133940   2.615   5.847   2.699 -0.6211  1.0615 -0.5586
 4127TIP3    H233941   2.693   5.786   2.814  1.3527  0.1505 -2.3008
 4128TIP3   OH233942   0.350   3.732   4.518  0.3221  0.0223 -0.2880
 4128TIP3    H133943   0.441   3.759   4.500  0.9202 -1.1110  0.8361
 4128TIP3    H233944   0.332   3.767   4.605  0.1044 -0.7300 -0.0195
 4129TIP3   OH233945   4.078   3.375   2.746  0.1552 -0.0257  0.1530
 4129TIP3    H133946   4.015   3.379   2.675  0.8575 -0.6694 -0.5318
 4129TIP3    H233947   4.161   3.403   2.707  0.6249 -0.7286  0.6045
 4130TIP3   OH233948   4.718   3.735   3.887 -0.9467 -0.1315 -0.5672
 4130TIP3    H133949   4.720   3.730   3.983  1.5666 -0.1488 -0.5597
 4130TIP3    H233950   4.630   3.705   3.864 -0.9168 -2.2737  1.6295
 4131TIP3   OH233951   1.178   5.809   3.206 -0.9018 -0.4347 -0.2152
 4131TIP3    H133952   1.246   5.877   3.203 -1.0652 -0.2894 -0.7548
 4131TIP3    H233953   1.113   5.838   3.142 -2.4909  0.4987  1.7233
 4132TIP3   OH233954   0.592   3.065   4.202  0.1201 -0.8317 -0.0605
 4132TIP3    H133955   0.592   2.969   4.191 -1.5636 -0.5851 -3.8134
 4132TIP3    H233956   0.657   3.096   4.139  0.5939  0.5601  1.0567
 4133TIP3   OH233957   5.928   6.118   5.154  0.3194 -0.4233  0.1880
 4133TIP3    H133958   5.882   6.110   5.237 -0.0860 -0.4065 -0.0294
 4133TIP3    H233959   5.935   6.212   5.139  2.3489 -0.3634  1.2571
 4134TIP3   OH233960   6.595   5.827   0.242 -0.5706  0.2597  0.0896
 4134TIP3    H133961   6.553   5.907   0.276 -1.4218 -0.1244 -0.0173
 4134TIP3    H233962   6.539   5.756   0.274  1.5688 -0.5402  2.3916
 4135TIP3   OH233963   0.171   3.744   4.298 -0.0680  0.0384  0.0628
 4135TIP3    H133964   0.219   3.746   4.381 -0.4059  0.9314  0.2416
 4135TIP3    H233965   0.092   3.694   4.317 -0.7581  1.3021  0.6295
 4136TIP3   OH233966   5.611   3.588   0.385  0.4399 -0.1441  0.7550
 4136TIP3    H133967   5.628   3.521   0.319 -0.6426  0.9120 -0.6468
 4136TIP3    H233968   5.617   3.541   0.468 -2.1279 -2.4802 -0.2070
 4137TIP3   OH233969   5.975   5.583   1.757 -0.4653  0.0328  0.2874
 4137TIP3    H133970   5.998   5.509   1.701  0.1378 -0.7918  1.5718
 4137TIP3    H233971   5.933   5.646   1.698  0.7808 -0.4770 -1.2060
 4138TIP3   OH233972   0.726   1.360   1.863  0.1429  0.1141 -0.5828
 4138TIP3    H133973   0.744   1.309   1.784  3.0676 -0.0413  0.0769
 4138TIP3    H233974   0.724   1.296   1.934  1.8526  0.6202 -0.0176
 4139TIP3   OH233975   5.810   5.055   0.953  0.1986  0.9765  0.3442
 4139TIP3    H133976   5.726   5.094   0.978  1.3856  1.9381  3.1509
 4139TIP3    H233977   5.849   5.120   0.894 -0.4165  1.1870  0.1579
 4140TIP3   OH233978   3.598   4.217   0.270  0.3716 -0.7151  0.5906
 4140TIP3    H133979   3.522   4.222   0.213  0.2114 -0.3721  0.8310
 4140TIP3    H233980   3.651   4.146   0.234  2.1765  1.8806 -2.3191
 4141TIP3   OH233981   3.508   5.714   0.394 -0.7566 -0.1691  0.4698
 4141TIP3    H133982   3.586   5.740   0.345 -1.0296  1.9173  1.0546
 4141TIP3    H233983   3.447   5.682   0.328  0.0795 -0.5145 -0.1450
 4142TIP3   OH233984   1.904   1.310   0.786  0.0476 -0.0832 -0.1534
 4142TIP3    H133985   1.833   1.372   0.772  2.2025  2.7243  0.4615
 4142TIP3    H233986   1.907   1.259   0.705 -1.9732  0.4019 -0.5947
 4143TIP3   OH233987   3.879   2.505   3.830  0.3679 -0.0940 -0.1604
 4143TIP3    H133988   3.875   2.564   3.754 -0.8577  0.0413 -0.0094
 4143TIP3    H233989   3.917   2.559   3.900  0.3814  0.1436 -0.3502
 4144TIP3   OH233990   5.339   4.026   1.822 -0.2317 -0.2406 -0.3126
 4144TIP3    H133991   5.419   4.029   1.770 -2.8602 -1.7108 -5.0432
 4144TIP3    H233992   5.306   4.116   1.823  0.9277  0.1950  0.8558
 4145TIP3   OH233993   0.649   1.997   2.494  0.3746 -0.4733  0.6043
 4145TIP3    H133994   0.726   2.022   2.444  0.4109 -2.8742 -0.6911
 4145TIP3    H233995   0.597   2.077   2.500  1.5978  0.5025 -1.0391
 4146TIP3   OH233996   2.471   6.243   3.857  0.7229  0.2224  0.2540
 4146TIP3    H133997   2.527   6.319   3.873  0.4235  0.3527  0.6741
 4146TIP3    H233998   2.524   6.187   3.800  1.2673  0.3621  0.6138
 4147TIP3   OH233999   3.757   4.682   2.691 -0.6069  0.1119 -0.3787
 4147TIP3    H134000   3.817   4.656   2.762 -0.3369 -0.5036 -0.8258
 4147TIP3    H234001   3.719   4.765   2.722 -2.5309 -1.4346  1.7340
 4148TIP3   OH234002   1.326   1.741   1.575  0.0322  0.0958  0.4155
 4148TIP3    H134003   1.394   1.799   1.541  0.0558 -0.8128 -1.1739
 4148TIP3    H234004   1.252   1.754   1.516 -0.6439 -0.0862  1.2048
 4149TIP3   OH234005   1.521   3.348   3.351  0.5566  0.3909 -0.0164
 4149TIP3    H134006   1.450   3.384   3.298  1.1318 -0.5963 -1.5032
 4149TIP3    H234007   1.580   3.307   3.288 -0.5164 -4.0718  1.5183
 4150TIP3   OH234008   0.805   2.746   4.365  0.1178 -0.4469  0.8535
 4150TIP3    H134009   0.800   2.802   4.443 -0.4804 -0.3198  0.7286
 4150TIP3    H234010   0.716   2.746   4.330  0.6719  0.6837 -0.6611
 4151TIP3   OH234011   5.716   3.792   2.137 -0.6541 -0.3158 -0.1227
 4151TIP3    H134012   5.810   3.773   2.138 -0.2152  1.6180  0.6181
 4151TIP3    H234013   5.698   3.817   2.047 -0.4240 -0.5373 -0.2314
 4152TIP3   OH234014   3.800   6.167   1.446 -0.3821 -0.0709 -0.0641
 4152TIP3    H134015   3.818   6.206   1.361 -1.6817 -0.5743 -0.5954
 4152TIP3    H234016   3.805   6.073   1.431  1.3533 -0.1510  0.8885
 4153TIP3   OH234017   4.174   0.934   4.963 -0.2658  0.0318 -0.2428
 4153TIP3    H134018   4.239   0.960   5.028 -1.4474  0.0247  0.9692
 4153TIP3    H234019   4.179   0.838   4.961  0.3382  0.0636 -0.7895
 4154TIP3   OH234020   3.774   5.452   3.635  0.0122  0.3119 -0.2117
 4154TIP3    H134021   3.800   5.454   3.543 -2.5577 -0.4008 -1.0500
 4154TIP3    H234022   3.722   5.533   3.647 -0.2357  0.0713  0.4079
 4155TIP3   OH234023   1.870   4.759   2.671  0.4383  0.0546 -0.5492
 4155TIP3    H134024   1.807   4.743   2.741 -0.3115 -1.6725 -1.5453
 4155TIP3    H234025   1.900   4.849   2.685 -1.1464  0.4128  0.8153
 4156TIP3   OH234026   5.760   6.764   3.682 -0.4250 -0.4863  0.0344
 4156TIP3    H134027   5.760   6.822   3.758 -0.0094  0.0720 -0.3795
 4156TIP3    H234028   5.841   6.713   3.691 -0.2369 -0.2270 -0.1729
 4157TIP3   OH234029   3.753   3.559   4.698  0.1685 -0.5797 -0.1228
 4157TIP3    H134030   3.705   3.498   4.753  0.8419 -0.5055  0.5659
 4157TIP3    H234031   3.686   3.603   4.645 -0.4168 -1.1374  0.1513
 4158TIP3   OH234032   3.593   5.004   3.963  0.1908 -0.1237 -0.2665
 4158TIP3    H134033   3.583   4.935   3.897  1.0044 -0.0396 -0.4884
 4158TIP3    H234034   3.529   5.071   3.937  0.6380 -0.0055 -1.0923
 4159TIP3   OH234035   4.813   3.791   0.890 -0.3203  0.0666 -0.1616
 4159TIP3    H134036   4.828   3.876   0.850 -2.0536  0.4511 -0.0901
 4159TIP3    H234037   4.796   3.733   0.816 -1.2654  0.2821 -0.1346
 4160TIP3   OH234038   6.712   3.835   2.134  0.0730 -0.5918  0.0238
 4160TIP3    H134039   6.668   3.779   2.198  0.0430  0.6965  1.1830
 4160TIP3    H234040   6.660   3.825   2.054 -0.4615 -1.4988  0.4693
 4161TIP3   OH234041   2.425   3.636   2.911 -0.2435  0.0451  0.3253
 4161TIP3    H134042   2.400   3.611   2.822 -0.0434  1.6413 -0.2238
 4161TIP3    H234043   2.367   3.585   2.968 -0.5579 -0.7949 -0.7178
 4162TIP3   OH234044   0.452   2.899   0.568 -0.4281 -0.5947 -0.0709
 4162TIP3    H134045   0.437   2.977   0.623  1.0559  0.6804 -1.3905
 4162TIP3    H234046   0.462   2.934   0.480  1.9861 -2.1023 -0.4602
 4163TIP3   OH234047   2.711   5.950   1.738 -0.1875 -0.5583 -0.5103
 4163TIP3    H134048   2.689   6.012   1.808 -0.4977 -0.9270 -0.2739
 4163TIP3    H234049   2.645   5.881   1.746  1.0928 -1.7299  0.2537
 4164TIP3   OH234050   3.149   4.521   2.210  0.4282  0.1235 -0.2660
 4164TIP3    H134051   3.198   4.598   2.236 -0.1781  0.8893 -1.3485
 4164TIP3    H234052   3.191   4.491   2.130 -1.5662  1.5485 -1.9466
 4165TIP3   OH234053   3.256   2.267   1.745 -0.7288 -0.3200 -0.2021
 4165TIP3    H134054   3.256   2.179   1.781  1.4588  0.0629  0.8623
 4165TIP3    H234055   3.174   2.306   1.777 -0.2993 -1.0019  1.8762
 4166TIP3   OH234056   4.567   0.279   3.479  0.4662  0.0840  0.2745
 4166TIP3    H134057   4.604   0.209   3.424 -0.6944 -0.8292  0.6097
 4166TIP3    H234058   4.486   0.242   3.513  0.9355  0.7768  2.2779
 4167TIP3   OH234059   2.056   2.512   8.478 -0.0785  0.2589  0.1659
 4167TIP3    H134060   2.120   2.467   8.532  0.3091  0.0289 -0.4707
 4167TIP3    H234061   2.029   2.448   8.413 -2.0867 -0.1320  1.2951
 4168TIP3   OH234062   3.167   3.083   0.207 -0.1563  0.1384 -0.2602
 4168TIP3    H134063   3.092   3.119   0.161 -1.7070 -1.5714  0.7826
 4168TIP3    H234064   3.219   3.041   0.139 -0.3183  1.0412 -0.9490
 4169TIP3   OH234065   3.781   0.736   3.605  0.1450  0.1383  0.3866
 4169TIP3    H134066   3.694   0.711   3.637 -0.2223  0.8874 -0.0074
 4169TIP3    H234067   3.842   0.682   3.656 -0.6020 -1.2795 -0.1910
 4170TIP3   OH234068   3.272   0.690   0.669 -0.1776 -0.1263  0.2862
 4170TIP3    H134069   3.327   0.621   0.706  0.4902 -0.7168 -1.6579
 4170TIP3    H234070   3.222   0.645   0.600 -2.5702  0.5528  1.4858
 4171TIP3   OH234071   1.562   4.033   1.386 -0.5917 -0.1997  0.5795
 4171TIP3    H134072   1.575   4.127   1.401 -0.0359 -0.0924 -0.4509
 4171TIP3    H234073   1.483   4.011   1.437 -0.3566  0.6745  1.3549
 4172TIP3   OH234074   1.593   4.707   1.292  0.1967  0.0702 -0.0686
 4172TIP3    H134075   1.530   4.661   1.348 -0.5560  1.7596  0.5557
 4172TIP3    H234076   1.676   4.702   1.340  0.1679 -0.7555 -0.0951
 4173TIP3   OH234077   3.318   3.645   3.957  0.5894  0.0828  0.0224
 4173TIP3    H134078   3.334   3.709   4.026 -0.5057 -0.3115  0.6841
 4173TIP3    H234079   3.255   3.688   3.898 -0.1224 -0.3420  0.4500
 4174TIP3   OH234080   2.948   4.919   3.871  0.3821 -0.1949 -0.2318
 4174TIP3    H134081   2.894   4.998   3.865  0.4417 -0.1819 -0.6378
 4174TIP3    H234082   2.910   4.868   3.942  0.0041 -0.0567 -0.3372
 4175TIP3   OH234083   0.262   2.622   4.263 -0.1358  0.1555 -0.1921
 4175TIP3    H134084   0.351   2.657   4.255 -0.1546  0.3010  0.2158
 4175TIP3    H234085   0.208   2.698   4.282 -0.0352 -0.1908  1.7264
 4176TIP3   OH234086   2.426   3.754   3.686 -0.3574 -0.1098  0.0380
 4176TIP3    H134087   2.519   3.733   3.683  0.7140  3.8761 -0.1742
 4176TIP3    H234088   2.399   3.730   3.775  0.6267 -1.9003 -0.0932
 4177TIP3   OH234089   2.009   6.525   4.128 -0.4382 -0.4709  0.0638
 4177TIP3    H134090   2.018   6.619   4.145 -1.2370 -0.3333 -0.2595
 4177TIP3    H234091   2.076   6.507   4.061  1.1020 -0.5546  1.5481
 4178TIP3   OH234092   1.519   2.417   4.402 -0.0170  0.4103  0.1163
 4178TIP3    H134093   1.553   2.328   4.412 -2.2221 -0.3304  1.8199
 4178TIP3    H234094   1.463   2.413   4.325  3.2750  1.6056 -2.6232
 4179TIP3   OH234095   4.855   5.223   1.762  0.2294 -0.3383  0.0077
 4179TIP3    H134096   4.895   5.136   1.753  0.8985  0.1335 -2.3701
 4179TIP3    H234097   4.803   5.233   1.682  0.7605  1.7310 -0.1392
 4180TIP3   OH234098   3.570   4.869   1.260 -0.6152 -0.4623 -0.7706
 4180TIP3    H134099   3.575   4.964   1.261  1.8425 -0.5235 -0.8621
 4180TIP3    H234100   3.587   4.845   1.169  1.2877 -1.0196 -0.3063
 4181TIP3   OH234101   4.957   5.814   4.401 -0.2187  0.1591  0.3356
 4181TIP3    H134102   4.904   5.894   4.405  1.2891  1.1828  0.7474
 4181TIP3    H234103   4.950   5.785   4.310  0.3231  1.5660 -0.1796
 4182TIP3   OH234104   4.983   5.286   4.524  0.0336 -0.4045 -0.0444
 4182TIP3    H134105   4.949   5.218   4.583 -0.1703  0.4470  0.8434
 4182TIP3    H234106   4.945   5.368   4.557  1.7506  0.3993  0.0504
 4183TIP3   OH234107   0.421   3.554   4.246 -0.2835  0.0591  0.0242
 4183TIP3    H134108   0.391   3.598   4.326  1.9312  0.5040  0.6830
 4183TIP3    H234109   0.447   3.467   4.275  2.1228  0.7770  0.1819
 4184TIP3   OH234110   1.295   5.271   1.905 -0.9451  0.8257  0.1663
 4184TIP3    H134111   1.280   5.198   1.844 -0.5173  0.8798 -0.0081
 4184TIP3    H234112   1.324   5.343   1.849  0.4922  0.5649  0.5276
 4185TIP3   OH234113   2.612   2.641   3.777 -0.2854  0.2114 -0.2488
 4185TIP3    H134114   2.520   2.620   3.763  0.0180 -0.8022 -0.8711
 4185TIP3    H234115   2.658   2.595   3.706  0.9346 -1.3878  1.4778
 4186TIP3   OH234116   2.684   3.712   1.490  0.5116 -0.1465 -0.1077
 4186TIP3    H134117   2.677   3.617   1.487 -2.5821 -0.2048  2.6410
 4186TIP3    H234118   2.727   3.730   1.573 -0.6972  0.7989  0.3478
 4187TIP3   OH234119   3.902   6.091   3.433 -0.0368 -0.3813  0.1870
 4187TIP3    H134120   3.945   6.105   3.517 -1.4265  0.1219  0.8491
 4187TIP3    H234121   3.899   5.996   3.423  0.1371 -0.4448  0.7166
 4188TIP3   OH234122   4.876   2.821   2.690 -0.0459 -0.3072  0.2409
 4188TIP3    H134123   4.918   2.881   2.752 -0.8243 -0.0394  0.5210
 4188TIP3    H234124   4.847   2.748   2.744  0.0725 -0.5029  0.0430
 4189TIP3   OH234125   1.810   3.630   4.575 -0.1928 -0.0155 -0.2811
 4189TIP3    H134126   1.888   3.602   4.527  0.3125  1.2625 -0.2701
 4189TIP3    H234127   1.837   3.711   4.618 -1.2713 -0.0257  0.4488
 4190TIP3   OH234128   6.021   2.637   0.165  0.4098  0.2733  0.2846
 4190TIP3    H134129   5.944   2.634   0.222  1.6814  0.1014  2.0593
 4190TIP3    H234130   5.994   2.694   0.093 -0.3548  3.0150  2.5324
 4191TIP3   OH234131   4.552   6.396   1.108 -0.0494  0.6247 -0.3655
 4191TIP3    H134132   4.539   6.317   1.055 -0.4325  2.3913 -3.1257
 4191TIP3    H234133   4.466   6.437   1.111  0.5454  1.9506 -0.7737
 4192TIP3   OH234134   6.513   0.323   1.173 -0.1288  0.0726  0.2319
 4192TIP3    H134135   6.562   0.336   1.092 -1.5027 -0.2384 -0.6858
 4192TIP3    H234136   6.509   0.409   1.214  0.5917  0.2278 -0.0122
 4193TIP3   OH234137   2.458   5.070   0.694  0.2416  0.2119 -0.0478
 4193TIP3    H134138   2.390   5.013   0.731 -1.4753  1.7065 -0.7731
 4193TIP3    H234139   2.509   5.012   0.637 -0.6448 -0.8591  0.2092
 4194TIP3   OH234140   2.211   0.856   1.395  0.8349  0.0717 -0.3130
 4194TIP3    H134141   2.233   0.799   1.321  0.9979  0.3921 -0.5109
 4194TIP3    H234142   2.268   0.826   1.466  1.0227  0.0779 -0.4593
 4195TIP3   OH234143   2.417   4.908   2.907  0.0867  0.1349 -0.0600
 4195TIP3    H134144   2.330   4.927   2.942  0.0844 -0.2766  0.1555
 4195TIP3    H234145   2.431   4.815   2.924  0.9793  0.4114  0.7990
 4196TIP3   OH234146   6.566   4.447   3.184  0.2326  0.5496 -0.3744
 4196TIP3    H134147   6.519   4.512   3.237 -0.7237 -0.5783  0.2148
 4196TIP3    H234148   6.580   4.490   3.100  0.6567  1.9222  0.3698
 4197TIP3   OH234149   5.665   1.325   2.620  0.1268 -0.1892 -0.4292
 4197TIP3    H134150   5.723   1.254   2.593 -0.3140 -0.2760 -1.1543
 4197TIP3    H234151   5.596   1.281   2.670  0.0762 -0.2125 -0.5215
 4198TIP3   OH234152   5.824   5.312   2.927 -0.5793  0.0951 -0.4049
 4198TIP3    H134153   5.804   5.401   2.901 -0.6612 -0.3888 -2.1113
 4198TIP3    H234154   5.893   5.321   2.992 -0.3637  1.3846 -0.7862
 4199TIP3   OH234155   5.264   5.596   0.858 -0.3988 -0.1287 -0.7679
 4199TIP3    H134156   5.236   5.666   0.799 -2.4029 -2.3082 -2.6181
 4199TIP3    H234157   5.194   5.590   0.923 -0.3116 -0.4455 -0.6989
 4200TIP3   OH234158   0.938   1.827   3.883 -0.4914  0.7714  0.3971
 4200TIP3    H134159   1.010   1.772   3.853 -0.9393  1.1121 -1.4120
 4200TIP3    H234160   0.927   1.804   3.976  2.0464  0.8673  0.7743
 4201TIP3   OH234161   4.530   6.322   4.358  0.5790 -0.9529 -0.2341
 4201TIP3    H134162   4.450   6.312   4.305 -0.3455  0.2773  0.8431
 4201TIP3    H234163   4.581   6.244   4.339 -0.2086 -1.0849 -2.0863
 4202TIP3   OH234164   6.376   3.949   0.619  0.2490 -0.0717 -0.3993
 4202TIP3    H134165   6.393   3.855   0.621  0.9477  0.0468  0.9314
 4202TIP3    H234166   6.297   3.960   0.672  0.9595  0.1964  0.6473
 4203TIP3   OH234167   5.810   4.433   2.769  0.1579 -0.4222 -0.0245
 4203TIP3    H134168   5.720   4.464   2.761 -0.1635 -1.5806 -1.4255
 4203TIP3    H234169   5.814   4.390   2.854 -0.9832 -1.4648 -0.4856
 4204TIP3   OH234170   0.849   4.764   0.234 -0.6094  0.2335  0.0762
 4204TIP3    H134171   0.818   4.681   0.199  0.8059 -0.2775 -0.0063
 4204TIP3    H234172   0.848   4.752   0.329 -0.5829  0.1792  0.0698
 4205TIP3   OH234173   5.812   0.801   1.060 -0.1397  0.0723 -0.5393
 4205TIP3    H134174   5.809   0.844   1.145  1.5993  1.1133 -0.9734
 4205TIP3    H234175   5.724   0.814   1.024 -0.8995 -0.3849  1.0599
 4206TIP3   OH234176   4.292   5.640   3.885 -0.2989 -0.2944 -0.0111
 4206TIP3    H134177   4.202   5.612   3.870 -1.4030  2.1617  1.4964
 4206TIP3    H234178   4.304   5.633   3.979  1.0264 -0.3372 -0.1648
 4207TIP3   OH234179   6.006   4.929   3.005 -0.0007  0.1266  0.1295
 4207TIP3    H134180   6.067   5.002   2.993  2.1756 -1.9291 -2.6316
 4207TIP3    H234181   6.050   4.871   3.067  0.5671 -0.9420 -1.2006
 4208TIP3   OH234182   3.083   1.902   2.095  0.0612  0.1027 -0.1800
 4208TIP3    H134183   3.176   1.920   2.105  0.3164 -0.8727 -0.6364
 4208TIP3    H234184   3.074   1.867   2.006 -1.0172  1.7959 -0.7879
 4209TIP3   OH234185   3.464   3.525   1.907  0.3432  0.2577 -0.5088
 4209TIP3    H134186   3.546   3.550   1.865  0.8073  0.7245  0.6251
 4209TIP3    H234187   3.482   3.439   1.945 -0.1690 -0.3008 -1.4908
 4210TIP3   OH234188   0.252   0.943   0.487 -0.1774  0.4129  0.2283
 4210TIP3    H134189   0.183   0.959   0.423 -1.2275 -0.8721  0.9891
 4210TIP3    H234190   0.251   1.021   0.543  0.5448  1.4079 -1.0874
 4211TIP3   OH234191   6.499   4.610   1.449 -0.5512 -0.3994 -0.5274
 4211TIP3    H134192   6.579   4.651   1.480 -0.3072 -0.0161 -1.6273
 4211TIP3    H234193   6.507   4.518   1.473  1.2126 -0.8244 -2.4868
 4212TIP3   OH234194   4.716   3.658   2.393 -0.3137 -0.7243  0.1730
 4212TIP3    H134195   4.715   3.564   2.374 -1.5570 -0.4652 -1.2731
 4212TIP3    H234196   4.624   3.680   2.409 -0.7248  0.8680 -3.3210
 4213TIP3   OH234197   3.890   3.445   0.347 -0.2245 -0.1308  0.1155
 4213TIP3    H134198   3.808   3.451   0.396 -0.0877  1.4745  0.2008
 4213TIP3    H234199   3.876   3.501   0.270  1.1033  0.9763  0.6320
 4214TIP3   OH234200   1.718   2.497   4.595 -0.0884 -0.2043  0.6128
 4214TIP3    H134201   1.647   2.494   4.531  0.0489 -1.9686  0.4957
 4214TIP3    H234202   1.781   2.432   4.564  1.2385  0.8004  1.1191
 4215TIP3   OH234203   5.047   1.567   1.838  0.0373 -0.2434  0.2317
 4215TIP3    H134204   5.092   1.514   1.903  1.0106  0.6874  0.3492
 4215TIP3    H234205   4.994   1.628   1.889  0.5033  0.2315  0.1634
 4216TIP3   OH234206   4.457   4.786   3.510  0.4782  0.3258 -0.0655
 4216TIP3    H134207   4.367   4.756   3.501  0.9923 -1.3602 -0.0288
 4216TIP3    H234208   4.470   4.794   3.605  0.1128  1.4934 -0.0963
 4217TIP3   OH234209   6.675   3.962   1.867  0.0569  0.1796  0.4178
 4217TIP3    H134210   6.675   4.028   1.798  0.6824  0.0651  0.2981
 4217TIP3    H234211   6.766   3.958   1.896 -0.0790 -0.2411  0.7974
 4218TIP3   OH234212   1.443   2.622   1.380 -0.1590 -0.0832  0.4687
 4218TIP3    H134213   1.483   2.632   1.293 -0.8186  0.4694  0.2230
 4218TIP3    H234214   1.391   2.542   1.373 -3.1186  1.7947 -0.8330
 4219TIP3   OH234215   3.663   2.651   3.647  0.0212  0.2857 -0.2412
 4219TIP3    H134216   3.600   2.682   3.582 -0.1863 -0.2509 -0.2964
 4219TIP3    H234217   3.719   2.727   3.663 -0.0952  0.5042 -0.8394
 4220TIP3   OH234218   1.663   3.513   1.581 -0.1028 -0.4632  0.3924
 4220TIP3    H134219   1.738   3.537   1.527 -0.0736 -1.6493 -0.1257
 4220TIP3    H234220   1.622   3.597   1.605  0.9932  0.1628  0.1397
 4221TIP3   OH234221   0.196   3.081   0.437  0.3657  0.8086  0.1001
 4221TIP3    H134222   0.159   3.065   0.350 -1.2842  1.8461  0.5742
 4221TIP3    H234223   0.290   3.095   0.421  0.4730 -1.0080 -1.2419
 4222TIP3   OH234224   6.062   3.208   3.713  0.8623  0.3543 -0.5731
 4222TIP3    H134225   6.060   3.118   3.680 -0.9349  0.0674  0.1964
 4222TIP3    H234226   6.024   3.202   3.800 -1.0582  2.1116 -1.2074
 4223TIP3   OH234227   1.202   3.787   3.085  0.1377  0.1210  0.8181
 4223TIP3    H134228   1.214   3.868   3.036  2.8699  0.3129  1.6258
 4223TIP3    H234229   1.219   3.811   3.176 -1.4549 -0.9049  1.4194
 4224TIP3   OH234230   4.875   6.595   4.597  0.0718  0.7356 -0.7717
 4224TIP3    H134231   4.791   6.550   4.592 -0.1287  0.9585  0.2890
 4224TIP3    H234232   4.887   6.613   4.690  1.1386  1.0084 -0.9450
 4225TIP3   OH234233   0.229   3.693   1.816 -0.6335  0.4966 -0.2039
 4225TIP3    H134234   0.186   3.776   1.836  0.9758  1.3413 -0.0418
 4225TIP3    H234235   0.313   3.698   1.862  1.0509  0.3582 -3.0197
 4226TIP3   OH234236   2.199   0.077   8.837  0.7431  0.0606 -0.0317
 4226TIP3    H134237   2.209   0.170   8.860  1.1326 -0.0999  0.4692
 4226TIP3    H234238   2.240   0.069   8.751 -0.9414  0.7227 -0.9479
 4227TIP3   OH234239   4.129   0.798   1.099 -0.0925 -0.3257 -0.2630
 4227TIP3    H134240   4.217   0.774   1.128  0.8067  0.5522 -2.1152
 4227TIP3    H234241   4.124   0.893   1.114 -0.9659 -0.4623  0.3887
 4228TIP3   OH234242   3.491   6.091   0.748 -0.0854 -0.5000 -0.1660
 4228TIP3    H134243   3.516   6.033   0.677 -0.8574 -1.0150 -0.0206
 4228TIP3    H234244   3.407   6.058   0.779  0.7271 -0.9636  1.7149
 4229TIP3   OH234245   3.864   1.811   0.853  0.1002 -0.3904  0.3176
 4229TIP3    H134246   3.792   1.789   0.912  0.9632 -0.1421  1.5110
 4229TIP3    H234247   3.822   1.851   0.777 -1.4648 -4.8519 -1.5005
 4230TIP3   OH234248   0.321   5.631   2.607  0.7429  0.4140  0.5487
 4230TIP3    H134249   0.329   5.539   2.632  2.2832  1.0424  2.5665
 4230TIP3    H234250   0.339   5.680   2.687  1.4132  2.5140 -0.7970
 4231TIP3   OH234251   3.934   1.589   3.953 -0.2738 -0.5955 -0.0245
 4231TIP3    H134252   3.932   1.496   3.930 -1.0592 -0.6597  0.2915
 4231TIP3    H234253   3.842   1.613   3.967 -0.4753  1.0293 -3.2900
 4232TIP3   OH234254   0.738   4.179   3.480  0.1373  0.2186 -0.0866
 4232TIP3    H134255   0.763   4.270   3.466 -0.2787  0.4002  0.3240
 4232TIP3    H234256   0.809   4.143   3.534 -0.7842  0.9194  1.6646
 4233TIP3   OH234257   0.760   1.444   3.997  0.4507 -0.0346 -0.1015
 4233TIP3    H134258   0.846   1.414   4.026 -0.9873 -2.4562  2.0507
 4233TIP3    H234259   0.734   1.510   4.060 -0.0618 -0.7440  0.4439
 4234TIP3   OH234260   6.021   5.363   2.668 -0.0335  0.1285  0.0147
 4234TIP3    H134261   5.997   5.347   2.759 -0.6078  0.4242 -0.0837
 4234TIP3    H234262   6.097   5.306   2.653 -0.8874 -1.0927  0.2173
 4235TIP3   OH234263   3.107   0.484   2.951 -0.3089  0.3696  0.1882
 4235TIP3    H134264   3.167   0.536   2.896 -0.5188  0.8746  0.4349
 4235TIP3    H234265   3.023   0.529   2.944 -0.7470 -0.5027 -0.3864
 4236TIP3   OH234266   1.602   5.290   4.229  0.1096 -0.0029  0.2083
 4236TIP3    H134267   1.580   5.254   4.315 -3.2052 -0.9428 -0.8431
 4236TIP3    H234268   1.619   5.213   4.175 -0.4662  0.3904 -0.5508
 4237TIP3   OH234269   3.312   6.385   4.802 -0.2431  0.6154 -0.2916
 4237TIP3    H134270   3.236   6.427   4.842  1.3236  3.8437 -0.3828
 4237TIP3    H234271   3.324   6.430   4.719  1.8514  0.3741 -0.1880
 4238TIP3   OH234272   0.909   3.406   3.843  0.1503  0.8753  0.7858
 4238TIP3    H134273   0.932   3.376   3.931 -1.5936 -1.1799  0.6237
 4238TIP3    H234274   0.955   3.347   3.784 -0.2938  0.9526  0.3559
 4239TIP3   OH234275   2.750   2.275   3.359  0.2855 -0.6965 -0.0326
 4239TIP3    H134276   2.752   2.284   3.264  0.2947  0.0641  0.0336
 4239TIP3    H234277   2.703   2.193   3.375 -0.6612 -0.2937 -0.6696
 4240TIP3   OH234278   6.649   4.995   3.376 -0.1101 -0.8200  0.3032
 4240TIP3    H134279   6.679   5.086   3.376  1.5749 -1.2908 -2.1254
 4240TIP3    H234280   6.570   4.996   3.321 -0.2228 -0.8161  0.4621
 4241TIP3   OH234281   1.988   4.653   1.673  0.4846 -0.4145  0.3680
 4241TIP3    H134282   2.038   4.587   1.722 -0.5617 -1.1210  0.5110
 4241TIP3    H234283   1.932   4.694   1.739  1.1998  0.7186  0.3007
 4242TIP3   OH234284   3.151   5.096   2.690  0.0901  0.6658  0.0152
 4242TIP3    H134285   3.113   5.184   2.691  0.3540  0.8120 -1.0585
 4242TIP3    H234286   3.134   5.061   2.778  0.6891  2.0915  0.7320
 4243TIP3   OH234287   3.677   0.040   3.786  0.3236 -0.5948  0.1588
 4243TIP3    H134288   3.641   0.128   3.789 -2.1417 -1.4450 -1.4934
 4243TIP3    H234289   3.757   0.048   3.733  1.7846  1.0328  2.4018
 4244TIP3   OH234290   3.784   0.759   2.562 -0.1283  0.1746  0.1513
 4244TIP3    H134291   3.771   0.721   2.649 -0.1150 -1.0250 -0.3605
 4244TIP3    H234292   3.784   0.854   2.578 -2.2056  0.0691  1.1870
 4245TIP3   OH234293   5.045   6.039   3.678  0.0690 -0.2407  0.1711
 4245TIP3    H134294   5.009   5.953   3.698  0.7887 -0.4388  0.6531
 4245TIP3    H234295   5.033   6.049   3.584 -0.4127 -0.6817  0.1840
 4246TIP3   OH234296   2.945   4.363   3.199  0.3722  0.1186  0.1998
 4246TIP3    H134297   2.898   4.428   3.147  0.2389  0.1994  0.4177
 4246TIP3    H234298   3.018   4.336   3.144  1.0446  1.2388  0.5209
 4247TIP3   OH234299   1.158   3.568   2.372 -0.0101 -0.7607 -0.1745
 4247TIP3    H134300   1.169   3.477   2.346 -1.6167 -0.8035 -0.8665
 4247TIP3    H234301   1.160   3.568   2.467  0.0732 -1.5142 -0.1769
 4248TIP3   OH234302   5.812   1.767   1.048  0.4383  0.1533 -0.3369
 4248TIP3    H134303   5.854   1.850   1.069 -1.0655  0.3460  2.3620
 4248TIP3    H234304   5.731   1.791   1.004  0.6878  0.0063 -0.8952
 4249TIP3   OH234305   3.728   3.058   1.336  0.5921 -0.0856  0.2155
 4249TIP3    H134306   3.707   3.107   1.256  2.9405 -1.4015 -1.3445
 4249TIP3    H234307   3.644   3.020   1.363 -0.1315 -0.4269 -2.2374
 4250TIP3   OH234308   5.391   4.047   2.474  0.2089  0.1597 -0.1236
 4250TIP3    H134309   5.300   4.077   2.472  0.3869  1.0933  2.0877
 4250TIP3    H234310   5.423   4.059   2.385 -1.7688 -0.0313 -0.9075
 4251TIP3   OH234311   1.372   1.263   1.516  0.1994  0.8886 -0.0340
 4251TIP3    H134312   1.416   1.291   1.597  1.8056  0.3710 -0.6858
 4251TIP3    H234313   1.436   1.281   1.447 -0.6091  0.0597 -1.0241
 4252TIP3   OH234314   1.265   4.886   1.737  0.2098 -0.3025  0.2589
 4252TIP3    H134315   1.197   4.953   1.743  0.4990 -0.1176  2.1269
 4252TIP3    H234316   1.301   4.896   1.649 -3.3818 -1.6684 -1.5285
 4253TIP3   OH234317   3.067   2.266   1.024  0.7270 -0.7645 -0.0676
 4253TIP3    H134318   3.156   2.281   1.057  2.4085 -4.1304 -2.4760
 4253TIP3    H234319   3.077   2.198   0.957 -3.4106  0.2321 -2.0495
 4254TIP3   OH234320   5.584   6.759   3.235  0.4243  0.4131 -0.2547
 4254TIP3    H134321   5.581   6.852   3.213 -1.4844  0.6500  0.7844
 4254TIP3    H234322   5.493   6.737   3.258  1.1943 -1.2285  1.4326
 4255TIP3   OH234323   0.190   5.619   4.780  0.0760 -0.1923  0.4377
 4255TIP3    H134324   0.129   5.684   4.745  1.5922  0.8142 -0.4117
 4255TIP3    H234325   0.190   5.635   4.875 -0.3178  0.3779  0.3468
 4256TIP3   OH234326   4.845   5.453   3.997  0.3449  0.5408  0.4079
 4256TIP3    H134327   4.820   5.364   3.975  1.1964 -0.0189  1.5837
 4256TIP3    H234328   4.889   5.445   4.082 -0.7144  2.2393  1.1829
 4257TIP3   OH234329   0.601   1.842   1.993 -0.1646 -0.0358  0.4221
 4257TIP3    H134330   0.644   1.763   2.024 -1.1411 -0.1612  1.5315
 4257TIP3    H234331   0.519   1.811   1.954  1.0432  0.0980 -2.5258
 4258TIP3   OH234332   4.547   4.012   1.998 -0.2264 -0.0075 -0.1019
 4258TIP3    H134333   4.562   4.104   1.980 -2.6096  0.2068 -1.4958
 4258TIP3    H234334   4.617   3.987   2.058 -0.8110  3.2796  2.2514
 4259TIP3   OH234335   6.284   2.702   8.447 -0.0045 -0.1694  0.3680
 4259TIP3    H134336   6.284   2.775   8.385 -0.0892  0.3665  0.9907
 4259TIP3    H234337   6.365   2.655   8.430 -0.8605 -1.1342 -1.4215
 4260TIP3   OH234338   5.937   3.945   1.551  0.4905  0.4519  0.1527
 4260TIP3    H134339   5.992   4.000   1.607  0.2244  1.5580 -0.6476
 4260TIP3    H234340   5.999   3.904   1.490  0.9001 -1.4608  1.7597
 4261TIP3   OH234341   4.055   5.821   4.745 -0.2962  0.2602  0.0351
 4261TIP3    H134342   4.035   5.727   4.739 -0.2505  0.3190 -1.1683
 4261TIP3    H234343   3.972   5.865   4.727 -0.0671  0.4629 -0.5329
 4262TIP3   OH234344   6.267   5.840   3.992  0.7314  0.1957  0.7703
 4262TIP3    H134345   6.275   5.899   4.067 -0.3569  0.0464  1.0211
 4262TIP3    H234346   6.351   5.847   3.947  1.7042 -0.3154  2.4292
 4263TIP3   OH234347   1.412   3.102   3.207  0.1300 -0.0038  0.2722
 4263TIP3    H134348   1.505   3.123   3.197  0.0304  0.0830 -0.4899
 4263TIP3    H234349   1.380   3.090   3.118 -0.5502 -0.2237  0.5411
 4264TIP3   OH234350   4.361   2.344   2.396  0.4439  0.1846  0.5074
 4264TIP3    H134351   4.267   2.334   2.383  0.4215  1.1889 -0.2926
 4264TIP3    H234352   4.392   2.257   2.419 -0.5753 -0.3185  0.0360
 4265TIP3   OH234353   0.167   3.954   1.869  0.2313 -0.6001 -0.0523
 4265TIP3    H134354   0.193   4.028   1.815 -1.9216  0.1274 -0.1863
 4265TIP3    H234355   0.226   3.958   1.945  1.3454  0.1256 -0.9316
 4266TIP3   OH234356   3.484   4.046   0.490 -0.3177 -0.5932 -0.1619
 4266TIP3    H134357   3.478   4.094   0.573 -4.3150  0.6294 -0.9648
 4266TIP3    H234358   3.516   4.111   0.427 -1.5737 -0.1793 -0.3975
 4267TIP3   OH234359   3.329   4.626   1.378  0.2767  0.1953 -0.4773
 4267TIP3    H134360   3.256   4.638   1.438  2.5143  1.1435  2.2548
 4267TIP3    H234361   3.334   4.709   1.330  0.4106  0.6612  0.3356
 4268TIP3   OH234362   3.688   0.650   2.797  0.1138  0.4606  0.0481
 4268TIP3    H134363   3.753   0.652   2.868 -0.5598 -0.2001  0.7019
 4268TIP3    H234364   3.612   0.606   2.835 -0.0972 -0.3309 -1.2327
 4269TIP3   OH234365   6.629   2.074   4.065  0.7074 -0.1060  0.3898
 4269TIP3    H134366   6.639   2.121   4.148  1.6352 -0.1082  0.2897
 4269TIP3    H234367   6.653   1.984   4.086  0.0814 -0.2979  0.3098
 4270TIP3   OH234368   2.986   1.351   1.700  0.1849  0.0986  0.0385
 4270TIP3    H134369   2.922   1.304   1.753 -0.3352 -1.4370 -1.8416
 4270TIP3    H234370   2.938   1.427   1.667  0.3831  0.8200  1.3444
 4271TIP3   OH234371   0.308   3.970   3.530 -0.0351  0.6545  0.2375
 4271TIP3    H134372   0.365   3.921   3.590 -0.6058 -0.6690 -0.2706
 4271TIP3    H234373   0.221   3.934   3.545 -0.4094  1.2481 -0.4571
 4272TIP3   OH234374   4.139   2.556   0.769 -0.1561  0.0467  0.5604
 4272TIP3    H134375   4.075   2.585   0.704  0.0973  1.6576  0.9810
 4272TIP3    H234376   4.089   2.501   0.830 -0.3198 -1.7902 -1.1389
 4273TIP3   OH234377   2.449   3.896   0.503  0.1910 -0.5310 -0.3796
 4273TIP3    H134378   2.377   3.840   0.475  0.6853 -1.4786  0.2232
 4273TIP3    H234379   2.422   3.930   0.588  1.1807 -2.3239  0.7172
 4274TIP3   OH234380   4.174   1.079   0.204  0.5838 -0.6091 -0.2462
 4274TIP3    H134381   4.151   1.013   0.138  0.1230  1.5420 -2.3952
 4274TIP3    H234382   4.090   1.101   0.245  0.0507  1.1066 -2.0760
 4275TIP3   OH234383   1.316   3.620   2.136 -0.5425  0.1376  0.1041
 4275TIP3    H134384   1.300   3.565   2.059  1.5246 -0.5556  0.1217
 4275TIP3    H234385   1.247   3.596   2.198 -0.6551 -1.2187 -0.5251
 4276TIP3   OH234386   2.732   4.604   3.944 -0.1684 -0.2583  0.3080
 4276TIP3    H134387   2.639   4.614   3.922  0.0144  1.9759  0.3565
 4276TIP3    H234388   2.732   4.547   4.020 -1.7169  1.4275  1.6685
 4277TIP3   OH234389   5.111   5.860   4.156 -0.0541 -0.1753  0.0390
 4277TIP3    H134390   5.117   5.892   4.066  1.6097 -1.1358 -0.2296
 4277TIP3    H234391   5.041   5.795   4.153 -0.2368  0.0351 -0.4781
 4278TIP3   OH234392   1.493   4.369   3.096 -0.3112  0.1362  0.3203
 4278TIP3    H134393   1.468   4.443   3.041 -0.3121 -0.0339  0.0952
 4278TIP3    H234394   1.508   4.408   3.182  0.9832  0.6127 -0.0963
 4279TIP3   OH234395   5.598   1.623   2.082  0.1395  0.4956 -0.0805
 4279TIP3    H134396   5.563   1.676   2.011  1.0051 -0.1124 -0.9917
 4279TIP3    H234397   5.528   1.559   2.101  0.0324  0.4462 -0.6211
 4280TIP3   OH234398   0.698   2.416   1.252  0.0634 -0.1671  0.7577
 4280TIP3    H134399   0.734   2.350   1.311 -1.5094 -0.3633  1.5657
 4280TIP3    H234400   0.608   2.387   1.236  0.2577  0.1907 -1.3132
 4281TIP3   OH234401   6.797   1.025   0.097 -0.3599  0.3655 -0.1802
 4281TIP3    H134402   6.710   1.064   0.087  0.3128  1.7311 -0.9999
 4281TIP3    H234403   6.808   1.014   0.191 -0.7840  1.7164  0.0443
 4282TIP3   OH234404   2.365   5.987   3.102  0.1294 -0.0374 -0.0503
 4282TIP3    H134405   2.431   5.920   3.121 -0.9143 -1.2397 -0.5843
 4282TIP3    H234406   2.324   5.959   3.021 -0.5515  1.0990 -0.1258
 4283TIP3   OH234407   2.273   1.460   2.295 -0.0376  0.6388  0.7204
 4283TIP3    H134408   2.262   1.394   2.363  0.9196 -0.4509 -0.1429
 4283TIP3    H234409   2.366   1.456   2.273 -0.5635 -0.1049 -1.6850
 4284TIP3   OH234410   6.107   2.074   0.100 -0.0514 -0.2868 -0.2288
 4284TIP3    H134411   6.056   2.113   0.030  0.6810  0.7644 -0.2022
 4284TIP3    H234412   6.198   2.080   0.070  0.0775 -2.5615 -0.5000
 4285TIP3   OH234413   4.546   4.135   2.769 -0.0522  0.7121  0.1182
 4285TIP3    H134414   4.477   4.076   2.740  0.6787 -0.9212  1.5301
 4285TIP3    H234415   4.605   4.141   2.695 -0.4101  0.0893 -0.2224
 4286TIP3   OH234416   5.292   1.642   5.192 -0.2763 -0.5581 -0.0971
 4286TIP3    H134417   5.365   1.702   5.172  0.1522 -1.0294  0.0221
 4286TIP3    H234418   5.214   1.692   5.171 -0.0113  0.7038  1.7419
 4287TIP3   OH234419   1.888   6.443   3.881  0.1455  0.7968 -0.0093
 4287TIP3    H134420   1.962   6.395   3.845 -0.2994  0.6485 -0.7641
 4287TIP3    H234421   1.900   6.441   3.976 -0.7565 -2.3150  0.1492
 4288TIP3   OH234422   0.862   3.129   1.995 -0.2710  0.3514 -0.1833
 4288TIP3    H134423   0.822   3.043   2.004 -1.2728  0.8428  0.2158
 4288TIP3    H234424   0.937   3.126   2.055 -1.0177  0.1610  0.7718
 4289TIP3   OH234425   4.184   0.646   3.746  0.1097  0.2224 -0.2987
 4289TIP3    H134426   4.178   0.733   3.705  1.0138  0.4095 -0.0566
 4289TIP3    H234427   4.274   0.618   3.729 -0.0120 -0.4249  0.1120
 4290TIP3   OH234428   4.509   1.263   3.717  0.3972  0.1395  0.0744
 4290TIP3    H134429   4.432   1.247   3.772 -0.3141 -0.2510 -1.0025
 4290TIP3    H234430   4.547   1.343   3.753 -0.8969  0.7163  0.2304
 4291TIP3   OH234431   0.143   5.208   1.269  0.2528 -0.3873 -0.0569
 4291TIP3    H134432   0.119   5.187   1.359  0.1338 -0.2234 -0.0506
 4291TIP3    H234433   0.189   5.292   1.275  1.6909 -1.1496  0.0520
 4292TIP3   OH234434   3.995   3.948   2.381 -0.1191  0.3710 -0.0999
 4292TIP3    H134435   3.919   4.000   2.406 -0.5730 -0.5958  0.5820
 4292TIP3    H234436   4.008   3.967   2.288 -0.8881  0.9228 -0.1001
 4293TIP3   OH234437   1.364   3.225   1.864  0.0383 -0.6978 -0.1521
 4293TIP3    H134438   1.434   3.181   1.815  0.9465 -0.4387  0.8743
 4293TIP3    H234439   1.383   3.318   1.854 -0.5994 -0.5911 -0.4670
 4294TIP3   OH234440   3.071   5.436   4.726  0.0650  0.7127 -0.1366
 4294TIP3    H134441   3.142   5.494   4.698  1.3840 -1.2704 -1.1102
 4294TIP3    H234442   3.023   5.487   4.792  2.0259  2.3425  0.1290
 4295TIP3   OH234443   4.092   0.657   4.008 -0.2115  0.1862 -0.0326
 4295TIP3    H134444   4.015   0.707   3.983  0.7134  2.7397  1.7898
 4295TIP3    H234445   4.127   0.624   3.926 -2.3233  0.2996 -1.0448
 4296TIP3   OH234446   3.370   6.751   4.428 -0.4193 -0.3791 -0.1243
 4296TIP3    H134447   3.443   6.813   4.432  0.2802 -1.2475  0.9906
 4296TIP3    H234448   3.322   6.776   4.349  0.7986  0.5142 -0.6088
 4297TIP3   OH234449   2.240   4.699   3.486 -0.2138 -0.3359  0.1929
 4297TIP3    H134450   2.308   4.691   3.420 -1.9565  1.2659 -1.9360
 4297TIP3    H234451   2.287   4.699   3.569  2.3370  0.3165 -1.1620
 4298TIP3   OH234452   5.566   6.615   3.557  0.2575 -0.0166 -0.3107
 4298TIP3    H134453   5.645   6.655   3.594  0.8474 -2.2365  0.9952
 4298TIP3    H234454   5.541   6.549   3.621 -2.1849  0.0342 -1.1330
 4299TIP3   OH234455   1.367   6.701   0.681  0.8741  0.2620  0.2736
 4299TIP3    H134456   1.322   6.767   0.628  0.7495  0.1791  0.2763
 4299TIP3    H234457   1.324   6.619   0.658  0.5574  0.2780  0.7957
 4300TIP3   OH234458   2.789   5.078   2.611 -0.4553  0.6303  0.9010
 4300TIP3    H134459   2.745   5.014   2.667 -1.2221  0.8247  0.5433
 4300TIP3    H234460   2.806   5.153   2.669  0.7011  0.0139  1.3905
 4301TIP3   OH234461   0.275   0.238   3.953  0.1787  0.0692 -0.1698
 4301TIP3    H134462   0.219   0.166   3.984 -0.3867  1.2182  1.6421
 4301TIP3    H234463   0.350   0.237   4.013 -0.3006  1.5451  0.5029
 4302TIP3   OH234464   6.309   0.336   0.252  0.1866 -0.2963  0.7837
 4302TIP3    H134465   6.348   0.423   0.246  0.7087 -0.5232  0.9146
 4302TIP3    H234466   6.225   0.345   0.207  0.4152  0.1712  0.4456
 4303TIP3   OH234467   2.847   3.882   1.737  0.1475  0.5784  0.2003
 4303TIP3    H134468   2.908   3.859   1.667  2.1772 -0.4111  2.1977
 4303TIP3    H234469   2.879   3.966   1.771 -0.9879  1.1917 -0.1680
 4304TIP3   OH234470   2.075   1.847   1.282 -1.0287 -0.0223  0.1012
 4304TIP3    H134471   2.027   1.767   1.302 -0.9239 -0.0298  0.3155
 4304TIP3    H234472   2.162   1.818   1.256 -0.7187  0.0685  1.0038
 4305TIP3   OH234473   5.572   2.563   2.990  0.1344 -0.1611 -0.5010
 4305TIP3    H134474   5.568   2.519   2.906  1.6025  1.4569 -1.4787
 4305TIP3    H234475   5.521   2.644   2.978  0.5693  0.2064  0.0575
 4306TIP3   OH234476   0.896   3.305   0.836  0.0486 -0.0537  0.7256
 4306TIP3    H134477   0.856   3.250   0.904 -0.4840 -1.2412 -0.4975
 4306TIP3    H234478   0.978   3.259   0.814  0.0849  0.1692  0.3890
 4307TIP3   OH234479   4.276   4.093   1.167 -0.0224 -0.1468  0.1208
 4307TIP3    H134480   4.298   4.159   1.232 -1.3288  1.0923 -0.6387
 4307TIP3    H234481   4.259   4.143   1.087  1.1602 -1.5963 -1.0897
 4308TIP3   OH234482   1.393   2.223   3.140  0.0520  0.6797  0.1002
 4308TIP3    H134483   1.309   2.180   3.151 -0.6983  0.7683 -3.7953
 4308TIP3    H234484   1.394   2.291   3.207 -3.1129  0.8203  0.1526
 4309TIP3   OH234485   0.269   0.737   0.237  0.0326  0.3021  0.9457
 4309TIP3    H134486   0.203   0.778   0.181  0.4429  0.6931  0.7487
 4309TIP3    H234487   0.221   0.714   0.317 -0.5711 -0.3426  0.4058
 4310TIP3   OH234488   0.275   0.131   1.753 -0.2178 -0.5039  0.2551
 4310TIP3    H134489   0.296   0.211   1.800 -0.2937 -1.5731  2.2023
 4310TIP3    H234490   0.188   0.107   1.784 -0.6010 -0.8663 -1.0282
 4311TIP3   OH234491   1.392   6.143   1.255  0.0972  0.4314 -0.1028
 4311TIP3    H134492   1.467   6.200   1.269 -0.2286  0.8116  0.1089
 4311TIP3    H234493   1.422   6.080   1.189  0.4282  0.8952 -0.4032
 4312TIP3   OH234494   1.677   5.320   0.624 -0.3054  0.0368 -0.1415
 4312TIP3    H134495   1.759   5.274   0.606  0.7947  1.9142 -0.1453
 4312TIP3    H234496   1.627   5.312   0.543  1.3688  1.8378 -1.4434
 4313TIP3   OH234497   1.697   3.036   3.427  0.6136 -0.4416  0.3122
 4313TIP3    H134498   1.622   3.076   3.472  0.4465 -0.1801 -0.1931
 4313TIP3    H234499   1.771   3.051   3.486  0.0566 -1.7743  1.3963
 4314TIP3   OH234500   3.419   4.624   1.851 -0.1780 -0.7174 -0.0166
 4314TIP3    H134501   3.415   4.689   1.780 -0.0859 -1.6224 -0.8847
 4314TIP3    H234502   3.359   4.657   1.917  0.6299  0.7618  0.0115
 4315TIP3   OH234503   1.266   4.860   3.648 -0.2543  0.0790 -0.4308
 4315TIP3    H134504   1.313   4.820   3.574  0.9796  1.6632 -0.5542
 4315TIP3    H234505   1.182   4.815   3.649 -0.5265  0.3350 -3.1484
 4316TIP3   OH234506   4.849   0.155   3.069 -0.3127  0.1828 -0.1120
 4316TIP3    H134507   4.891   0.214   3.132 -0.9479  1.8027 -1.1472
 4316TIP3    H234508   4.759   0.188   3.062 -0.1283  0.3484 -2.2134
 4317TIP3   OH234509   1.108   2.002   2.019 -0.1988 -0.3099  0.3601
 4317TIP3    H134510   1.116   1.945   1.942 -0.6283 -0.3980  0.3827
 4317TIP3    H234511   1.030   1.971   2.064  0.8315 -1.1736  1.5993
 4318TIP3   OH234512   0.659   4.880   4.410 -0.3264 -0.1857  0.0400
 4318TIP3    H134513   0.570   4.895   4.380 -0.9075 -1.6487  0.9317
 4318TIP3    H234514   0.678   4.954   4.468 -0.1856  1.1912 -1.6981
 4319TIP3   OH234515   3.196   4.300   3.847  0.3138  0.1268 -0.7416
 4319TIP3    H134516   3.192   4.395   3.837  0.2927  0.1024 -0.9770
 4319TIP3    H234517   3.290   4.279   3.843  0.3706  0.2108  0.0327
 4320TIP3   OH234518   5.744   5.782   4.030 -0.9063 -0.1387 -0.3409
 4320TIP3    H134519   5.778   5.864   4.066 -1.0729 -0.3853  0.3934
 4320TIP3    H234520   5.752   5.719   4.101  0.8357 -1.2253 -1.4152
 4321TIP3   OH234521   1.966   4.218   3.077 -0.1568  0.0334  0.1085
 4321TIP3    H134522   1.913   4.141   3.055 -0.3481  0.6582 -1.8141
 4321TIP3    H234523   1.904   4.279   3.116 -0.2727 -0.2906  0.4356
 4322TIP3   OH234524   5.257   3.378   4.006 -0.4312  0.2589 -0.5037
 4322TIP3    H134525   5.317   3.384   3.932  0.8341  2.3812  0.5857
 4322TIP3    H234526   5.309   3.341   4.077 -0.4178  1.8985  0.3908
 4323TIP3   OH234527   6.552   1.406   3.687 -0.4447 -0.5839  0.7323
 4323TIP3    H134528   6.492   1.443   3.622  1.0315  0.2640 -0.2002
 4323TIP3    H234529   6.573   1.480   3.744  1.2222 -0.3606 -0.1336
 4324TIP3   OH234530   3.226   2.355   2.734  0.1313 -0.1921  0.2619
 4324TIP3    H134531   3.166   2.365   2.808  0.0721  1.0609  0.0694
 4324TIP3    H234532   3.311   2.382   2.769 -0.1922  2.0337 -0.5187
 4325TIP3   OH234533   2.819   2.401   3.606 -0.0638 -0.5900 -0.1163
 4325TIP3    H134534   2.751   2.437   3.550  0.6472 -0.9891 -1.2661
 4325TIP3    H234535   2.828   2.310   3.578 -0.0634 -0.9585  1.0208
 4326TIP3   OH234536   6.079   1.195   8.687 -0.3290 -0.4957 -0.3813
 4326TIP3    H134537   6.113   1.284   8.678 -0.1390 -0.4583  0.6638
 4326TIP3    H234538   5.986   1.207   8.708 -0.3466 -0.5483 -0.4291
 4327TIP3   OH234539   4.047   0.571   3.328 -0.6021  0.3087 -0.0318
 4327TIP3    H134540   3.971   0.619   3.361  0.0082  1.1451  0.1927
 4327TIP3    H234541   4.104   0.639   3.292  0.1171 -0.2940 -0.0510
 4328TIP3   OH234542   5.501   3.119   2.694 -0.7427  0.5562 -0.2802
 4328TIP3    H134543   5.431   3.059   2.719  0.2240 -1.2184 -1.5866
 4328TIP3    H234544   5.570   3.104   2.759 -1.1779  1.6044  0.4461
 4329TIP3   OH234545   2.295   4.261   2.525  0.6231 -0.2716 -0.9028
 4329TIP3    H134546   2.324   4.336   2.577  0.2547  0.5294 -1.8170
 4329TIP3    H234547   2.258   4.300   2.446  0.6538 -1.4357 -1.5102
 4330TIP3   OH234548   1.384   3.707   0.640  0.1452 -0.6284 -0.4535
 4330TIP3    H134549   1.293   3.676   0.644 -0.0725  0.1130  0.9498
 4330TIP3    H234550   1.378   3.795   0.604  0.0212  0.2890  1.6558
 4331TIP3   OH234551   2.303   2.087   3.263  0.3173  0.3756 -0.5461
 4331TIP3    H134552   2.210   2.110   3.262  0.3046  0.6087  1.5568
 4331TIP3    H234553   2.321   2.065   3.355  2.1154 -0.6304 -1.1004
 4332TIP3   OH234554   4.012   6.260   2.720 -0.0121 -0.5301 -0.0129
 4332TIP3    H134555   3.929   6.238   2.679  0.3866  0.7224 -1.5928
 4332TIP3    H234556   4.075   6.198   2.683  0.0912 -0.3060 -0.2139
 4333TIP3   OH234557   5.346   0.408   3.741 -0.0448  0.1917 -0.3600
 4333TIP3    H134558   5.306   0.445   3.662 -1.0583 -0.9914 -0.4325
 4333TIP3    H234559   5.418   0.467   3.761 -1.4390  2.0733 -0.5937
 4334TIP3   OH234560   1.591   6.694   0.852 -0.1904 -0.5650  0.0082
 4334TIP3    H134561   1.516   6.684   0.793  0.6623 -0.6750 -1.1021
 4334TIP3    H234562   1.658   6.735   0.798  0.5011 -0.3157  1.0322
 4335TIP3   OH234563   3.494   4.755   3.890  0.0505 -0.0816  0.0904
 4335TIP3    H134564   3.409   4.799   3.888  0.6056  1.0826  1.0610
 4335TIP3    H234565   3.478   4.672   3.844 -1.7863 -0.2352  0.8929
 4336TIP3   OH234566   4.169   5.836   5.400 -0.1571  0.4581  0.1653
 4336TIP3    H134567   4.247   5.889   5.416  1.3467 -1.3455 -0.6976
 4336TIP3    H234568   4.173   5.768   5.468  0.1666 -0.7974 -1.0621
 4337TIP3   OH234569   2.408   5.426   4.170 -0.4116  0.0230  0.4080
 4337TIP3    H134570   2.497   5.404   4.200 -0.6029 -0.1459  0.8607
 4337TIP3    H234571   2.352   5.400   4.243 -0.9528 -0.9772 -0.3426
 4338TIP3   OH234572   3.035   0.329   0.598 -0.2520 -0.2211  0.4554
 4338TIP3    H134573   3.059   0.409   0.551 -1.4413  1.1558  2.0421
 4338TIP3    H234574   3.088   0.331   0.677  2.0174 -2.7126 -0.8794
 4339TIP3   OH234575   0.824   2.241   1.438 -0.1833 -0.2997 -0.0089
 4339TIP3    H134576   0.843   2.323   1.484  0.0186  0.9437 -2.1633
 4339TIP3    H234577   0.798   2.180   1.507  2.1923  0.7792  1.9837
 4340TIP3   OH234578   1.176   5.101   3.518  0.0688 -0.0311 -0.3521
 4340TIP3    H134579   1.224   5.029   3.559  0.6824 -0.0877 -1.1569
 4340TIP3    H234580   1.201   5.178   3.568  0.5866 -0.1463 -0.4322
 4341TIP3   OH234581   0.020   0.566   1.188  0.2853  0.1330 -0.2291
 4341TIP3    H134582   0.057   0.590   1.273  1.1863  1.3624 -0.9392
 4341TIP3    H234583  -0.075   0.573   1.200  0.4264  0.9071  0.5013
 4342TIP3   OH234584   0.466   1.348   3.511 -0.0764  0.4666  0.3388
 4342TIP3    H134585   0.372   1.346   3.495 -0.1640  0.2499  0.8514
 4342TIP3    H234586   0.505   1.374   3.427 -0.6199  1.0262  0.2559
 4343TIP3   OH234587   0.558   3.164   2.528 -0.0369 -0.2091  0.1358
 4343TIP3    H134588   0.487   3.100   2.537 -0.9268  0.7805  0.3998
 4343TIP3    H234589   0.545   3.203   2.442  0.7057 -0.6018 -0.1654
 4344TIP3   OH234590   1.179   0.726   3.244  0.0699  0.0951 -0.0736
 4344TIP3    H134591   1.134   0.758   3.166  2.0402  0.5665 -1.0831
 4344TIP3    H234592   1.126   0.652   3.273 -0.6630 -0.1851 -1.9433
 4345TIP3   OH234593   1.520   4.084   3.734  0.3412  0.0499  0.1181
 4345TIP3    H134594   1.452   4.017   3.725 -0.4070  0.7067  0.7008
 4345TIP3    H234595   1.478   4.164   3.704  1.0695  0.3495 -0.1015
 4346TIP3   OH234596   0.578   0.735   0.742  0.4338  0.3728 -0.0727
 4346TIP3    H134597   0.538   0.729   0.656 -2.2714  2.7559  0.8467
 4346TIP3    H234598   0.640   0.808   0.735 -0.3524  1.0730  0.1624
 4347TIP3   OH234599   4.642   0.739   4.921 -0.5017  0.4371  0.5069
 4347TIP3    H134600   4.657   0.646   4.939 -1.4267  0.3332  0.8252
 4347TIP3    H234601   4.702   0.785   4.980  1.9854  0.0688 -1.5579
 4348TIP3   OH234602   5.118   0.133   3.275 -0.1970  0.1782  0.0993
 4348TIP3    H134603   5.121   0.101   3.365  0.5046  0.0715  0.0429
 4348TIP3    H234604   5.044   0.193   3.273 -0.7664 -0.5028  0.5167
 4349TIP3   OH234605   5.399   4.005   3.299 -0.6146 -0.3668  0.2610
 4349TIP3    H134606   5.467   3.939   3.285  0.3252  0.4122  0.9510
 4349TIP3    H234607   5.353   3.977   3.377  0.0949  0.0172  0.8321
 4350TIP3   OH234608   1.551   3.426   1.182  0.6279 -0.2352 -0.4892
 4350TIP3    H134609   1.495   3.439   1.258 -0.0317  0.7941 -1.1231
 4350TIP3    H234610   1.582   3.514   1.160  2.4380 -0.7771 -0.2112
 4351TIP3   OH234611   2.658   4.592   0.549  0.1827 -0.0248  0.0754
 4351TIP3    H134612   2.702   4.646   0.484  1.6734 -0.5718  0.5814
 4351TIP3    H234613   2.603   4.532   0.499  1.6616 -0.7512 -0.7561
 4352TIP3   OH234614   4.245   3.216   0.591 -0.0327 -0.1922  0.5456
 4352TIP3    H134615   4.261   3.310   0.590  1.0845 -0.3658  0.5462
 4352TIP3    H234616   4.161   3.206   0.545 -0.6466  0.8653  1.3893
 4353TIP3   OH234617   1.691   2.573   1.976 -0.0506  0.3100 -0.2142
 4353TIP3    H134618   1.718   2.648   1.922 -1.4581  0.9906 -0.0056
 4353TIP3    H234619   1.614   2.538   1.931  0.2291 -0.6538  0.0293
 4354TIP3   OH234620   3.573   1.330   1.998 -0.5143  0.2129 -0.1850
 4354TIP3    H134621   3.635   1.290   2.059 -1.1163 -1.5407 -0.6665
 4354TIP3    H234622   3.550   1.414   2.039  0.4702 -0.1053  1.0846
 4355TIP3   OH234623   6.074   0.066   3.732 -0.5587  0.5418  0.3423
 4355TIP3    H134624   6.134   0.081   3.804 -1.6721  3.2269  0.8288
 4355TIP3    H234625   6.103  -0.016   3.692  2.2680  0.8280  1.6307
 4356TIP3   OH234626   2.995   4.367   8.766  0.0478  0.0279  0.5115
 4356TIP3    H134627   3.038   4.451   8.782  1.3569 -0.3573 -0.7238
 4356TIP3    H234628   3.068   4.305   8.757 -0.8681 -1.1161  0.7592
 4357TIP3   OH234629   1.523   3.872   8.588 -0.6805 -0.1082 -0.9862
 4357TIP3    H134630   1.456   3.907   8.646 -1.2261 -1.7383 -0.5626
 4357TIP3    H234631   1.601   3.924   8.606 -1.5016  1.0101 -0.5833
 4358TIP3   OH234632   0.785   4.288   2.366  0.0619 -0.4973  0.4473
 4358TIP3    H134633   0.711   4.264   2.423  0.0094 -1.4775 -0.0116
 4358TIP3    H234634   0.830   4.205   2.350  0.5285 -0.1042 -0.3153
 4359TIP3   OH234635   1.109   0.266   4.253 -0.2369 -0.0031  0.1980
 4359TIP3    H134636   1.163   0.194   4.220 -0.2552 -0.0451  0.2602
 4359TIP3    H234637   1.051   0.225   4.317  0.3293  0.2141  0.8711
 4360TIP3   OH234638   5.223   1.121   1.270  0.0078 -0.0652 -0.1196
 4360TIP3    H134639   5.239   1.166   1.352  0.2510  0.4260 -0.4362
 4360TIP3    H234640   5.265   1.035   1.281  2.7144  1.0668 -0.8257
 4361TIP3   OH234641   2.817   2.004   2.902  0.0592  0.2052  0.1350
 4361TIP3    H134642   2.762   1.947   2.848 -1.8448  0.8941  1.2592
 4361TIP3    H234643   2.834   2.080   2.846 -1.6254  0.7694  0.3437
 4362TIP3   OH234644   3.955   0.185   1.814 -0.0121 -0.3971  0.2060
 4362TIP3    H134645   3.905   0.132   1.876  0.0248  0.0468  0.6227
 4362TIP3    H234646   4.028   0.129   1.786  0.0677 -0.5390  0.7011
 4363TIP3   OH234647   6.102   0.396   0.524 -0.3442 -0.6012 -0.0100
 4363TIP3    H134648   6.077   0.400   0.432  1.1801 -1.0858 -0.4853
 4363TIP3    H234649   6.093   0.303   0.547  0.7778 -0.7522 -0.1418
 4364TIP3   OH234650   4.479   4.450   2.617  0.1938 -0.6782  0.2040
 4364TIP3    H134651   4.436   4.374   2.656 -0.6248 -0.3632 -0.0789
 4364TIP3    H234652   4.451   4.524   2.670  0.0548 -0.4143 -0.2289
 4365TIP3   OH234653   5.781   2.272   2.709 -0.2047 -0.0549  0.3849
 4365TIP3    H134654   5.802   2.356   2.669  1.8990  0.9219  3.2249
 4365TIP3    H234655   5.859   2.218   2.693 -1.7160 -1.7648 -1.8281
 4366TIP3   OH234656   1.660   3.216   1.511 -0.1457 -0.2419 -0.1172
 4366TIP3    H134657   1.672   3.301   1.552  0.5912 -0.6950  0.6336
 4366TIP3    H234658   1.705   3.223   1.427  1.0830 -0.3111  0.5189
 4367TIP3   OH234659   0.053   5.605   4.334 -0.2785  0.4709  0.6394
 4367TIP3    H134660   0.143   5.605   4.304 -0.6731 -2.1764 -0.8757
 4367TIP3    H234661   0.059   5.612   4.429  1.6766 -1.4730  0.7379
 4368TIP3   OH234662   4.987   0.230   1.475  0.4897 -0.9317 -0.0823
 4368TIP3    H134663   4.921   0.282   1.522 -0.0476 -0.7113 -1.0458
 4368TIP3    H234664   5.055   0.294   1.451 -0.2176 -0.6100 -1.3519
 4369TIP3   OH234665   0.274   1.842   0.853  0.3046  0.6950 -0.2838
 4369TIP3    H134666   0.311   1.774   0.910 -1.6508  0.7154  1.1288
 4369TIP3    H234667   0.252   1.796   0.772  1.6041  0.2943 -0.4305
 4370TIP3   OH234668   5.892   4.038   2.497  0.0398  0.4917  0.2456
 4370TIP3    H134669   5.869   4.079   2.580  2.0778  0.5997  0.8198
 4370TIP3    H234670   5.887   3.944   2.514 -0.5960  0.5054  0.1551
 4371TIP3   OH234671   3.178   2.467   3.322  0.2433 -0.0512 -0.5753
 4371TIP3    H134672   3.145   2.525   3.390 -0.0244 -0.0926 -0.6701
 4371TIP3    H234673   3.117   2.393   3.321  2.4942 -2.1803  2.0704
 4372TIP3   OH234674   2.418   6.349   3.117 -0.3855 -0.2958 -0.4803
 4372TIP3    H134675   2.397   6.259   3.142 -0.3551 -0.8221 -2.2338
 4372TIP3    H234676   2.334   6.389   3.096 -0.5474  0.5149  1.4404
 4373TIP3   OH234677   6.162   3.658   4.585 -0.1920  0.1860 -0.1069
 4373TIP3    H134678   6.192   3.609   4.662 -0.7412  0.0216  0.0080
 4373TIP3    H234679   6.078   3.618   4.562  0.0353  0.1408 -0.8824
 4374TIP3   OH234680   3.099   4.218   4.306 -0.0927 -0.2847 -0.1607
 4374TIP3    H134681   3.054   4.300   4.325  0.0403 -0.4736  1.0675
 4374TIP3    H234682   3.044   4.175   4.240 -1.1677 -0.0362  0.5393
 4375TIP3   OH234683   2.928   2.674   0.882  0.0392 -0.9754  0.3518
 4375TIP3    H134684   2.988   2.738   0.845 -0.5097 -1.1052 -0.7971
 4375TIP3    H234685   2.954   2.591   0.842 -0.4659 -1.1472  0.3752
 4376TIP3   OH234686   0.904   1.535   2.563 -0.3740 -0.5986 -0.2100
 4376TIP3    H134687   0.915   1.621   2.524 -0.7360 -0.2245  0.4896
 4376TIP3    H234688   0.993   1.502   2.574 -0.1783  0.1170  0.4440
 4377TIP3   OH234689   3.781   1.665   2.955  0.0570 -0.0295 -0.1103
 4377TIP3    H134690   3.740   1.644   2.871  3.5482  1.6082 -2.5163
 4377TIP3    H234691   3.809   1.756   2.945  2.1569 -0.3243  2.1224
 4378TIP3   OH234692   5.676   1.869   8.503  0.2351  0.4584  0.0718
 4378TIP3    H134693   5.625   1.944   8.537  1.0639 -0.0109  2.5849
 4378TIP3    H234694   5.650   1.796   8.559  2.0267 -0.3018 -0.0341
 4379TIP3   OH234695   4.023   5.976   5.221 -0.4694 -0.1072 -0.4691
 4379TIP3    H134696   4.048   6.066   5.241 -0.0871  0.0449 -1.5730
 4379TIP3    H234697   4.031   5.930   5.305  0.1125  0.7095 -0.0615
 4380TIP3   OH234698   3.919   6.412   2.191  0.1969 -0.2123 -0.5868
 4380TIP3    H134699   3.885   6.439   2.106 -0.0416  0.2470 -0.3519
 4380TIP3    H234700   3.840   6.400   2.245  0.3562 -0.2675 -0.3656
 4381TIP3   OH234701   6.664   2.553   8.780 -0.3444 -0.0616 -0.4438
 4381TIP3    H134702   6.587   2.505   8.748 -0.5153  1.6873 -2.9473
 4381TIP3    H234703   6.641   2.645   8.768  1.9924  0.5154 -0.9201
 4382TIP3   OH234704   3.913   3.703   0.754  0.6450 -0.3553  0.1111
 4382TIP3    H134705   3.975   3.640   0.718 -0.9688 -1.0290 -1.6493
 4382TIP3    H234706   3.882   3.753   0.678 -0.7981  0.1101  0.9636
 4383TIP3   OH234707   2.711   2.339   0.337 -0.0322 -0.1856  0.4860
 4383TIP3    H134708   2.747   2.312   0.253  1.7268 -0.1266  1.1825
 4383TIP3    H234709   2.724   2.264   0.394 -1.1019 -0.1805  0.7570
 4384TIP3   OH234710   3.617   5.097   1.082  0.2845  0.2042 -0.3164
 4384TIP3    H134711   3.697   5.142   1.108  0.2566  0.1252 -0.0873
 4384TIP3    H234712   3.570   5.161   1.029  0.3742  0.3480 -0.2239
 4385TIP3   OH234713   3.994   5.744   4.318 -0.3239 -0.5994  0.2052
 4385TIP3    H134714   3.968   5.802   4.390 -1.9881  0.5985 -1.2859
 4385TIP3    H234715   3.919   5.686   4.305  0.8843 -2.4027  0.9242
 4386TIP3   OH234716   5.432   6.388   1.079  0.3004 -0.4734  0.2847
 4386TIP3    H134717   5.366   6.407   1.013 -0.7309 -2.0126  0.8247
 4386TIP3    H234718   5.464   6.474   1.107  0.3424  0.2287 -1.7539
 4387TIP3   OH234719   1.721   6.257   4.384 -0.1704  0.1632 -0.2374
 4387TIP3    H134720   1.736   6.243   4.478 -0.6196 -0.6233 -0.2780
 4387TIP3    H234721   1.627   6.270   4.377 -0.3210 -1.1362 -0.7434
 4388TIP3   OH234722   0.081   3.032   3.487 -0.9770  0.0328 -0.2322
 4388TIP3    H134723   0.100   2.939   3.501 -2.4247 -0.1523  0.7471
 4388TIP3    H234724   0.001   3.047   3.538 -1.0168  1.7086 -0.7610
 4389TIP3   OH234725   0.182   1.356   3.428 -0.1523  0.1077 -0.0227
 4389TIP3    H134726   0.189   1.441   3.470  1.0256 -0.8504  1.8078
 4389TIP3    H234727   0.133   1.302   3.490 -0.7865 -0.6092 -1.1086
 4390TIP3   OH234728   2.505   5.055   3.815  0.2494  0.4382 -0.0009
 4390TIP3    H134729   2.437   5.014   3.762  0.1850  1.6116 -0.8614
 4390TIP3    H234730   2.468   5.059   3.903  0.2163 -1.2136  0.0830
 4391TIP3   OH234731   6.196   1.347   2.541 -0.3744  0.4031  0.5749
 4391TIP3    H134732   6.267   1.341   2.478 -1.1833  1.5411 -0.5064
 4391TIP3    H234733   6.203   1.436   2.577 -2.5581  1.4238 -1.2618
 4392TIP3   OH234734   1.520   5.718   3.692 -0.0603 -0.0624 -0.1215
 4392TIP3    H134735   1.465   5.668   3.753  0.5356 -0.9866 -0.3052
 4392TIP3    H234736   1.512   5.670   3.609 -0.1075  0.6276 -0.5202
 4393TIP3   OH234737   1.323   3.455   3.191 -0.6340  0.7717 -0.4211
 4393TIP3    H134738   1.261   3.413   3.131 -0.5004  1.2532 -0.9089
 4393TIP3    H234739   1.268   3.501   3.254 -0.8162  2.2857 -1.6156
 4394TIP3   OH234740   6.108   0.379   4.846  0.8489 -0.2763 -0.5565
 4394TIP3    H134741   6.197   0.413   4.858  0.8220 -0.1161 -0.7908
 4394TIP3    H234742   6.052   0.455   4.863  0.7610 -0.3519 -0.5089
 4395TIP3   OH234743   3.172   0.256   2.032 -0.6429 -0.2365  0.1377
 4395TIP3    H134744   3.229   0.194   1.986 -1.5470 -0.6422 -0.4728
 4395TIP3    H234745   3.231   0.322   2.067  0.1985 -0.6264 -0.5220
 4396TIP3   OH234746   5.688   4.259   3.790 -0.0077  0.2401 -0.1200
 4396TIP3    H134747   5.620   4.242   3.725  0.6442  1.4450 -1.1640
 4396TIP3    H234748   5.727   4.342   3.763  0.1351  0.8928  1.9682
 4397TIP3   OH234749   1.265   4.343   0.591  0.2442 -0.0533 -0.4305
 4397TIP3    H134750   1.235   4.421   0.544  1.0829  0.4104 -0.2075
 4397TIP3    H234751   1.248   4.270   0.531  1.5941  0.5552 -1.6074
 4398TIP3   OH234752   1.481   3.709   0.895  0.0662  0.6475  0.1670
 4398TIP3    H134753   1.450   3.701   0.805 -0.1968 -0.7598  0.3619
 4398TIP3    H234754   1.551   3.644   0.902  0.5557  1.2338  0.7826
 4399TIP3   OH234755   3.601   3.753   3.796 -0.1919  0.1188 -0.2682
 4399TIP3    H134756   3.608   3.662   3.825 -1.3743  0.5210  1.3975
 4399TIP3    H234757   3.559   3.747   3.710  0.9130 -0.9533 -0.7726
 4400TIP3   OH234758   2.098   1.804   0.706  0.3651  0.0895 -0.3226
 4400TIP3    H134759   2.154   1.791   0.782 -1.0758 -0.9918  0.6158
 4400TIP3    H234760   2.114   1.894   0.679  1.0215  0.4494  1.1854
 4401TIP3   OH234761   3.126   6.099   3.462  0.1191  0.0443  0.3193
 4401TIP3    H134762   3.052   6.130   3.410 -0.8567 -1.0284  1.0125
 4401TIP3    H234763   3.088   6.033   3.521  1.5403 -0.1813  1.0294
 4402TIP3   OH234764   3.138   5.980   1.150 -0.7051  0.1165 -0.2418
 4402TIP3    H134765   3.100   5.951   1.068  2.4841  2.8480 -2.9834
 4402TIP3    H234766   3.219   5.931   1.159  0.1308  1.4709 -0.0173
 4403TIP3   OH234767   2.629   2.877   2.069 -0.2144  0.2460 -0.3755
 4403TIP3    H134768   2.679   2.796   2.075 -0.8479 -0.0711  1.5990
 4403TIP3    H234769   2.544   2.850   2.035  0.1031  0.3590 -1.2683
 4404TIP3   OH234770   2.066   2.087   2.267  0.4404  0.5420  0.3696
 4404TIP3    H134771   2.155   2.076   2.233  0.2541  0.9677 -0.2784
 4404TIP3    H234772   2.010   2.043   2.203  0.2880 -1.1141  1.5778
 4405TIP3   OH234773   2.851   1.574   0.341 -0.3400  0.0574 -0.2398
 4405TIP3    H134774   2.882   1.486   0.321 -2.2184 -0.9388  0.8925
 4405TIP3    H234775   2.812   1.605   0.259  0.5585 -0.0341 -0.7136
 4406TIP3   OH234776   4.646   6.576   4.249  0.2918 -0.3250 -0.0370
 4406TIP3    H134777   4.583   6.608   4.186 -0.2736  0.8820  1.0935
 4406TIP3    H234778   4.603   6.502   4.291 -0.2329  0.2380  0.4415
 4407TIP3   OH234779   1.761   0.176   2.479  0.1223 -0.2134  0.3669
 4407TIP3    H134780   1.814   0.193   2.402 -0.1166 -0.6489  0.0985
 4407TIP3    H234781   1.671   0.172   2.446 -0.1670  1.2581  0.9312
 4408TIP3   OH234782   2.122   5.472   3.045 -0.4692 -0.3319  0.0619
 4408TIP3    H134783   2.173   5.553   3.039 -0.3320 -0.4501 -0.4000
 4408TIP3    H234784   2.183   5.408   3.081 -1.1378  0.2431  2.3965
 4409TIP3   OH234785   2.152   0.268   4.501 -0.0256  0.9945  0.0242
 4409TIP3    H134786   2.216   0.231   4.441 -0.3049  1.7582 -0.7580
 4409TIP3    H234787   2.118   0.345   4.457  1.5805  3.1073  2.2161
 4410TIP3   OH234788   2.968   5.427   0.706 -0.8261  0.3113  0.3285
 4410TIP3    H134789   3.014   5.490   0.650 -0.8939 -0.7623 -0.9965
 4410TIP3    H234790   2.990   5.454   0.795  1.3652  0.5963 -0.2310
 4411TIP3   OH234791   5.872   5.598   1.111  0.1880 -0.1303 -0.7052
 4411TIP3    H134792   5.935   5.527   1.126 -0.3481 -0.3896  0.4657
 4411TIP3    H234793   5.803   5.583   1.176 -1.8871 -0.7371 -2.8987
 4412TIP3   OH234794   4.348   0.183   4.370  0.1427  0.2322  0.0264
 4412TIP3    H134795   4.344   0.110   4.432  1.3060  0.0560 -0.0932
 4412TIP3    H234796   4.329   0.143   4.285  1.2551 -0.0454 -0.1110
 4413TIP3   OH234797   4.665   5.867   1.363  0.0627 -0.1869  0.4157
 4413TIP3    H134798   4.571   5.887   1.365  0.2398  0.7929 -0.3886
 4413TIP3    H234799   4.706   5.947   1.397  0.6170 -0.5589  0.6216
 4414TIP3   OH234800   2.484   1.174   3.106  0.1455 -0.0432  0.4385
 4414TIP3    H134801   2.476   1.079   3.113 -0.7914 -0.3532 -2.8342
 4414TIP3    H234802   2.576   1.190   3.087  0.2213 -0.3412  0.5592
 4415TIP3   OH234803   5.879   2.472   1.140 -0.4265 -0.2993  0.3819
 4415TIP3    H134804   5.815   2.402   1.133  0.3879 -0.9936 -0.3991
 4415TIP3    H234805   5.933   2.448   1.215 -0.1747 -0.5029  0.1408
 4416TIP3   OH234806   4.224   2.107   4.478  0.0387  0.1050  0.2186
 4416TIP3    H134807   4.267   2.021   4.484 -0.6298 -0.4205 -1.8991
 4416TIP3    H234808   4.131   2.088   4.486 -0.1271  0.5966 -0.4771
 4417TIP3   OH234809   0.837   3.786   2.095 -0.1582 -0.2585  0.1101
 4417TIP3    H134810   0.804   3.699   2.116 -0.0225 -0.2315  0.4508
 4417TIP3    H234811   0.876   3.817   2.177  0.4159 -0.1619 -0.1926
 4418TIP3   OH234812   1.191   6.218   2.962  0.1893 -0.9827  0.5468
 4418TIP3    H134813   1.220   6.184   2.878  1.4781  4.0841 -1.3481
 4418TIP3    H234814   1.102   6.249   2.947  0.6538  0.5432  0.8056
 4419TIP3   OH234815   5.183   6.089   0.575  0.4459  1.0042  0.1644
 4419TIP3    H134816   5.264   6.135   0.552  0.7644  1.6403  2.3251
 4419TIP3    H234817   5.124   6.159   0.603 -0.1193  0.3560  0.6101
 4420TIP3   OH234818   1.018   2.054   2.609 -0.2698 -0.1932  0.0278
 4420TIP3    H134819   1.003   2.121   2.543  0.4606  1.3936  1.3904
 4420TIP3    H234820   1.110   2.029   2.597 -0.3604 -0.4866 -0.0638
 4421TIP3   OH234821   6.634   2.576   2.011  0.5509 -0.5524  0.1031
 4421TIP3    H134822   6.539   2.590   2.013  0.8703  1.9930  0.9524
 4421TIP3    H234823   6.657   2.582   1.918  0.1752  1.6172  0.1054
 4422TIP3   OH234824   4.705   0.156   1.512  0.3911  0.0875 -0.1444
 4422TIP3    H134825   4.726   0.245   1.542  0.2477  0.1168 -0.1309
 4422TIP3    H234826   4.670   0.168   1.423 -0.8231  0.1681  0.3276
 4423TIP3   OH234827   0.786   2.910   2.141 -0.3746  0.1111  0.4823
 4423TIP3    H134828   0.802   2.960   2.221  0.8150  1.3085 -0.4556
 4423TIP3    H234829   0.692   2.897   2.139 -0.9692  3.5321  0.1229
 4424TIP3   OH234830   1.141   4.618   0.165 -0.0627  0.4306  0.7534
 4424TIP3    H134831   1.085   4.693   0.186  0.9426  1.2231  0.6411
 4424TIP3    H234832   1.081   4.554   0.127 -1.1417  0.7102  1.9198
 4425TIP3   OH234833   5.402   5.668   2.102 -0.5052  0.0344 -0.4744
 4425TIP3    H134834   5.412   5.742   2.041  1.8003  0.0350 -0.1710
 4425TIP3    H234835   5.383   5.593   2.046  2.4385 -0.1414 -1.3847
 4426TIP3   OH234836   1.284   0.101   1.282  0.1805  0.0823 -0.1773
 4426TIP3    H134837   1.376   0.129   1.283  0.4591 -0.8160 -0.2795
 4426TIP3    H234838   1.278   0.037   1.353 -0.1434 -0.5544 -0.7717
 4427TIP3   OH234839   6.541   0.867   3.220  0.6044  0.0487  0.2865
 4427TIP3    H134840   6.471   0.808   3.191  0.4679  0.9455 -1.3215
 4427TIP3    H234841   6.496   0.946   3.248  0.9457  0.5334 -0.5083
 4428TIP3   OH234842   1.753   2.749   0.135  0.1471 -0.2941 -0.1970
 4428TIP3    H134843   1.678   2.698   0.105 -1.3200  1.6104 -0.0000
 4428TIP3    H234844   1.791   2.786   0.056  0.4177 -0.6567 -0.2370
 4429TIP3   OH234845   4.265   2.699   2.461 -0.1220  0.2672 -0.1265
 4429TIP3    H134846   4.281   2.788   2.493  1.2038 -0.1386  0.4003
 4429TIP3    H234847   4.343   2.677   2.410 -1.1638  0.0115 -1.7028
 4430TIP3   OH234848   5.227   3.319   3.128 -0.6102  0.0071 -0.3955
 4430TIP3    H134849   5.288   3.346   3.196 -0.0275 -2.5680  0.2035
 4430TIP3    H234850   5.143   3.311   3.173 -0.4212 -0.8035 -0.1820
 4431TIP3   OH234851   2.253   6.554   1.746  0.2018 -0.2394 -0.1655
 4431TIP3    H134852   2.195   6.517   1.812 -2.7165  1.1250 -1.7790
 4431TIP3    H234853   2.269   6.483   1.684 -0.3030 -0.4716 -0.0350
 4432TIP3   OH234854   5.795   0.444   3.091  0.4130  0.2183 -0.2177
 4432TIP3    H134855   5.768   0.491   3.170  1.0125  0.2263 -0.0085
 4432TIP3    H234856   5.822   0.358   3.123  0.4690  0.1540 -0.4394
 4433TIP3   OH234857   2.043   5.250   4.002  0.2814  0.2078  0.2237
 4433TIP3    H134858   2.102   5.325   4.007  0.2313  0.1682  2.3052
 4433TIP3    H234859   2.012   5.238   4.092 -1.6647 -0.7693 -0.5278
 4434TIP3   OH234860   0.822   4.399   4.601  0.5067  0.1446  0.1569
 4434TIP3    H134861   0.913   4.400   4.571  0.8959 -0.5039  1.2827
 4434TIP3    H234862   0.805   4.490   4.628  1.0809  0.1025  0.6894
 4435TIP3   OH234863   5.395   5.477   1.858  0.2522 -0.2217  0.2380
 4435TIP3    H134864   5.406   5.571   1.842  1.3189 -0.2677  0.5744
 4435TIP3    H234865   5.301   5.464   1.862  0.0910  0.8603  0.3125
 4436TIP3   OH234866   2.816   1.794   1.102 -0.2665 -0.1586 -0.1036
 4436TIP3    H134867   2.730   1.836   1.108 -0.2293 -0.2450  1.1794
 4436TIP3    H234868   2.837   1.798   1.009 -1.3935  0.3946 -0.3593
 4437TIP3   OH234869   6.765   5.007   0.434  0.4408  0.6319  0.1689
 4437TIP3    H134870   6.766   5.010   0.338 -0.3076  1.4029  0.1691
 4437TIP3    H234871   6.759   5.099   0.460 -2.4524  0.3210  0.8798
 4438TIP3   OH234872   0.329   5.623   3.511  0.0575 -0.4096  0.2529
 4438TIP3    H134873   0.335   5.536   3.550  0.9319 -0.2849  0.4252
 4438TIP3    H234874   0.394   5.622   3.441  0.2823  0.1915  0.4458
 4439TIP3   OH234875   5.456   4.248   3.625 -0.6188 -0.0414  0.1977
 4439TIP3    H134876   5.404   4.270   3.703  1.7382  2.3855  1.2347
 4439TIP3    H234877   5.443   4.323   3.567  1.3913  0.5093  0.3794
 4440TIP3   OH234878   6.031   4.863   4.919  0.2984  0.0598  0.1188
 4440TIP3    H134879   6.120   4.876   4.885  1.0240  0.1068  1.9206
 4440TIP3    H234880   6.033   4.775   4.956 -0.5850 -0.1415 -0.2984
 4441TIP3   OH234881   1.431   1.382   1.774  0.3632 -0.0488  0.2955
 4441TIP3    H134882   1.525   1.377   1.794  0.7746 -0.3702 -1.5529
 4441TIP3    H234883   1.409   1.474   1.791  0.5353 -0.3678  2.5316
 4442TIP3   OH234884   1.999   5.188   3.454 -0.2903  0.2142  0.1111
 4442TIP3    H134885   1.906   5.173   3.439 -0.2636 -0.4250  0.5216
 4442TIP3    H234886   2.003   5.241   3.534 -0.3062  0.2572  0.0831
 4443TIP3   OH234887   3.185   2.368   2.063 -0.3217  0.3333  0.2744
 4443TIP3    H134888   3.209   2.276   2.048  1.6299  0.2435  3.2449
 4443TIP3    H234889   3.246   2.417   2.009 -0.8361 -0.0408 -0.6902
 4444TIP3   OH234890   1.524   6.425   0.372 -0.4301  0.1626 -0.3236
 4444TIP3    H134891   1.552   6.335   0.390 -0.8435  0.1630  0.3539
 4444TIP3    H234892   1.593   6.461   0.316 -0.6585 -0.8340 -1.2746
 4445TIP3   OH234893   5.174   4.537   1.929  0.1345 -0.4057 -0.6279
 4445TIP3    H134894   5.252   4.543   1.984 -0.9682  0.0098  0.9723
 4445TIP3    H234895   5.112   4.485   1.980 -0.8355 -0.2612 -1.6182
 4446TIP3   OH234896   2.670   0.396   1.273 -0.9123 -0.5916 -0.0722
 4446TIP3    H134897   2.687   0.474   1.326 -3.3281 -0.3661  0.5256
 4446TIP3    H234898   2.691   0.323   1.332 -0.1452 -0.3954 -0.0881
 4447TIP3   OH234899   3.855   5.394   0.361  0.2528  0.1482 -0.2025
 4447TIP3    H134900   3.908   5.470   0.385  1.6085 -0.3567 -1.5066
 4447TIP3    H234901   3.820   5.415   0.275 -0.6971 -0.0640  0.1116
 4448TIP3   OH234902   5.494   6.052   2.960  0.3311 -0.5200 -0.3865
 4448TIP3    H134903   5.458   5.973   3.000  1.1018 -0.9104 -0.4555
 4448TIP3    H234904   5.467   6.123   3.018 -0.6487 -0.7781 -0.4958
 4449TIP3   OH234905   1.322   1.965   3.544  0.5064 -0.6494  0.3217
 4449TIP3    H134906   1.267   1.952   3.622 -0.4590  0.4156 -0.1534
 4449TIP3    H234907   1.265   2.009   3.482  1.4677 -0.8999 -0.7676
 4450TIP3   OH234908   2.299   6.774   3.283 -0.0062  0.4145 -0.0096
 4450TIP3    H134909   2.219   6.822   3.304 -0.4881 -0.4428  0.2106
 4450TIP3    H234910   2.291   6.753   3.190  1.0299  2.2251 -0.5408
 4451TIP3   OH234911   5.197   5.564   2.814 -0.2324  0.4663  0.0169
 4451TIP3    H134912   5.161   5.645   2.778  0.0435  0.8988  0.7000
 4451TIP3    H234913   5.256   5.593   2.884 -0.8256 -0.3594  0.8808
 4452TIP3   OH234914   2.558   4.344   2.832  0.6641 -0.5803 -0.2021
 4452TIP3    H134915   2.604   4.306   2.757  0.5117 -0.1010 -0.5446
 4452TIP3    H234916   2.553   4.273   2.896  1.8886 -0.6442 -0.1517
 4453TIP3   OH234917   6.143   5.521   0.901 -0.1204  0.1053 -0.1875
 4453TIP3    H134918   6.173   5.516   0.992 -0.9544 -0.2928  0.0729
 4453TIP3    H234919   6.221   5.500   0.849  0.4231  0.5950  0.4223
 4454TIP3   OH234920   3.560   6.046   4.183  0.2009 -0.4000 -0.0412
 4454TIP3    H134921   3.521   6.026   4.269 -2.1240 -0.8983 -1.1155
 4454TIP3    H234922   3.493   6.099   4.139  0.5149 -1.7125 -2.2201
 4455TIP3   OH234923   3.610   6.146   1.009  0.2677 -0.6476 -0.0348
 4455TIP3    H134924   3.567   6.120   0.928 -1.7999  1.5743  0.2224
 4455TIP3    H234925   3.538   6.158   1.071  1.4184  1.3081  1.0221
 4456TIP3   OH234926   6.342   6.798   2.081  0.0229  0.3620 -0.5951
 4456TIP3    H134927   6.417   6.836   2.035 -0.6217  0.6758 -1.3965
 4456TIP3    H234928   6.344   6.705   2.056  1.0684  0.0091  0.6580
 4457TIP3   OH234929   6.274   5.220   3.782  0.2957 -0.8612 -0.3763
 4457TIP3    H134930   6.342   5.269   3.736  0.2149  0.2534  0.6401
 4457TIP3    H234931   6.192   5.249   3.743  0.2419 -0.0872  0.2900
 4458TIP3   OH234932   3.427   3.748   3.561 -0.2600  0.0796 -0.3289
 4458TIP3    H134933   3.407   3.674   3.504  1.2888  1.5475 -2.9683
 4458TIP3    H234934   3.365   3.740   3.634 -2.5420 -1.7790 -2.3156
 4459TIP3   OH234935   6.492   5.624   0.425 -0.5863 -0.7310 -0.3415
 4459TIP3    H134936   6.540   5.593   0.502 -1.0182 -0.9410 -0.1582
 4459TIP3    H234937   6.417   5.565   0.418  0.7165 -2.2808 -2.3288
 4460TIP3   OH234938   3.356   6.153   1.143 -0.1740 -0.1535 -0.2009
 4460TIP3    H134939   3.274   6.104   1.136  0.2356 -0.9181  0.3036
 4460TIP3    H234940   3.328   6.243   1.160 -0.9086 -0.6232  1.2444
 4461TIP3   OH234941   5.196   2.676   1.548  0.6120  0.1014 -0.1875
 4461TIP3    H134942   5.290   2.665   1.565  0.3729 -0.6926  0.7567
 4461TIP3    H234943   5.161   2.587   1.554 -0.1522  0.3440 -0.8916
 4462TIP3   OH234944   3.747   5.516   4.411 -0.4118  0.5907  0.2537
 4462TIP3    H134945   3.702   5.601   4.410 -2.8723 -0.6085  0.6597
 4462TIP3    H234946   3.763   5.498   4.503 -0.2505  0.4336  0.1962
 4463TIP3   OH234947   5.506   2.002   1.550 -0.2433  0.2650 -0.3082
 4463TIP3    H134948   5.456   1.961   1.479  0.3649 -0.7069 -0.1799
 4463TIP3    H234949   5.548   1.930   1.596  0.2639  0.9745  0.3762
 4464TIP3   OH234950   5.462   0.229   2.968  0.1258 -0.6874 -0.8743
 4464TIP3    H134951   5.503   0.145   2.946  0.9930 -0.3043 -0.7663
 4464TIP3    H234952   5.451   0.226   3.063  0.4560 -0.5561 -0.8292
 4465TIP3   OH234953   6.757   6.595   4.257  0.4123  0.1561  0.0264
 4465TIP3    H134954   6.667   6.586   4.288  0.8543  0.4142  1.4575
 4465TIP3    H234955   6.751   6.583   4.162 -0.9029 -1.3926  0.2628
 4466TIP3   OH234956   0.293   0.366   1.219  0.2486  0.2831 -0.5505
 4466TIP3    H134957   0.273   0.300   1.152 -2.3770  0.9884 -0.5387
 4466TIP3    H234958   0.217   0.424   1.220 -0.0898  0.0373  3.3889
 4467TIP3   OH234959   1.058   1.492   3.647  0.5591  0.5889 -0.6641
 4467TIP3    H134960   1.069   1.436   3.723 -2.4500 -1.4923 -1.5427
 4467TIP3    H234961   1.132   1.470   3.590  1.4661  0.3073  0.5881
 4468TIP3   OH234962   1.724   6.068   3.571 -0.4425 -0.1584  0.3164
 4468TIP3    H134963   1.753   5.993   3.622  0.5814  1.1327  1.7212
 4468TIP3    H234964   1.804   6.116   3.552 -1.1272  0.8443 -0.1240
 4469TIP3   OH234965   2.635   3.366   2.186  0.9212  0.6986  0.1137
 4469TIP3    H134966   2.639   3.301   2.115  1.1737  0.8379 -0.0011
 4469TIP3    H234967   2.706   3.341   2.245  1.1497  0.9932 -0.0359
 4470TIP3   OH234968   5.950   2.157   0.338 -0.2625 -0.2723 -0.4638
 4470TIP3    H134969   6.013   2.138   0.268  0.7624  0.1672  0.3163
 4470TIP3    H234970   5.877   2.201   0.293  0.7373  0.7403 -1.1595
 4471TIP3   OH234971   4.610   0.031   3.325 -0.4438 -0.1749 -0.3769
 4471TIP3    H134972   4.600   0.056   3.233  0.4460  1.2213 -0.1296
 4471TIP3    H234973   4.523   0.039   3.362 -0.8596 -0.9893 -1.1374
 4472TIP3   OH234974   5.809   1.770   8.735  0.1479  0.1553 -0.6895
 4472TIP3    H134975   5.826   1.829   8.662  2.8501  0.0750 -0.2216
 4472TIP3    H234976   5.892   1.723   8.748 -0.4145 -0.2541  2.0388
 4473TIP3   OH234977   4.137   1.444   1.145 -0.2479 -0.5290 -0.1876
 4473TIP3    H134978   4.182   1.384   1.204 -0.9745 -1.6526 -0.7322
 4473TIP3    H234979   4.099   1.388   1.077 -2.5866  0.3106  0.3093
 4474TIP3   OH234980   6.500   3.617   1.175  0.2453 -0.7572 -0.0378
 4474TIP3    H134981   6.560   3.642   1.245  1.2786 -1.4753 -0.6319
 4474TIP3    H234982   6.529   3.529   1.150 -1.7461 -1.5893  0.3793
 4475TIP3   OH234983   5.646   2.178   4.353 -0.2961 -0.5353  0.6632
 4475TIP3    H134984   5.698   2.149   4.428  1.3938  1.7048  0.4573
 4475TIP3    H234985   5.556   2.185   4.387  0.4215  0.4322  2.5175
 4476TIP3   OH234986   0.141   6.771   1.084 -0.2538 -0.2735 -0.3972
 4476TIP3    H134987   0.063   6.815   1.119 -0.1180 -0.0445 -0.3811
 4476TIP3    H234988   0.118   6.678   1.084 -0.2901 -0.2697  0.2221
 4477TIP3   OH234989   1.479   5.319   2.107 -0.1952 -0.0500 -0.0272
 4477TIP3    H134990   1.518   5.392   2.060 -1.1756 -0.3624 -1.3918
 4477TIP3    H234991   1.417   5.280   2.044  0.4594 -2.1930  0.5624
 4478TIP3   OH234992   0.982   4.803   2.968  0.5052  0.5353  0.4727
 4478TIP3    H134993   0.965   4.850   2.886 -0.2455  0.4033  0.5472
 4478TIP3    H234994   0.955   4.864   3.037 -0.8257 -0.1204  0.5613
 4479TIP3   OH234995   2.070   1.142   2.714 -0.3785 -0.2812  0.4248
 4479TIP3    H134996   2.156   1.102   2.731 -0.2511 -0.3929 -0.4036
 4479TIP3    H234997   2.038   1.168   2.800  0.4304 -0.3571  0.7618
 4480TIP3   OH234998   4.650   1.872   2.898  0.4329 -0.2231  0.4862
 4480TIP3    H134999   4.579   1.812   2.874  0.6538 -0.4469  0.3911
 4480TIP3    H235000   4.728   1.832   2.861  0.8213 -0.6883  1.7516
 4481TIP3   OH235001   0.116   4.623   0.783  0.2086 -0.1215  0.7676
 4481TIP3    H135002   0.032   4.634   0.739 -0.7668 -3.7277  1.4278
 4481TIP3    H235003   0.095   4.625   0.876  0.9237 -0.5404  0.9458
 4482TIP3   OH235004   0.208   6.618   3.220 -0.0717 -0.2045 -0.1969
 4482TIP3    H135005   0.222   6.703   3.177  0.5016 -0.8884 -1.3868
 4482TIP3    H235006   0.273   6.617   3.291  2.7397 -1.2499 -2.5951
 4483TIP3   OH235007   2.006   0.809   1.612  0.3091 -0.2391  0.3295
 4483TIP3    H135008   2.064   0.834   1.685 -0.3995 -2.2747  1.6976
 4483TIP3    H235009   2.062   0.816   1.535  2.1401 -1.1578  1.4737
 4484TIP3   OH235010   5.716   1.999   0.641 -0.0002  0.3025 -0.5587
 4484TIP3    H135011   5.689   1.987   0.732 -0.4759  0.1867 -0.7120
 4484TIP3    H235012   5.804   2.036   0.646 -0.0867  0.4351 -0.0526
 4485TIP3   OH235013   2.073   0.359   8.659  0.6561 -0.1838  0.2716
 4485TIP3    H135014   2.044   0.314   8.580 -0.1950  2.0223 -0.7459
 4485TIP3    H235015   2.003   0.344   8.723 -0.3715  0.9025 -0.5555
 4486TIP3   OH235016   6.359   3.575   2.280 -0.1731 -0.3506 -0.1287
 4486TIP3    H135017   6.348   3.481   2.297 -4.7166 -0.0562 -0.3434
 4486TIP3    H235018   6.283   3.616   2.319  1.2163  3.2365 -0.7797
 4487TIP3   OH235019   6.654   4.161   4.379  0.2108 -0.4520 -0.2208
 4487TIP3    H135020   6.743   4.194   4.390  0.4253 -0.4097 -1.8308
 4487TIP3    H235021   6.653   4.079   4.428  0.6985  0.2317  0.9660
 4488TIP3   OH235022   1.163   3.461   1.928 -0.0857 -0.2581  0.1796
 4488TIP3    H135023   1.139   3.369   1.914  1.8035 -0.8368  0.5643
 4488TIP3    H235024   1.240   3.474   1.874 -0.2595  1.0933  0.2367
 4489TIP3   OH235025   6.342   5.058   3.445  0.3628 -0.0558 -0.9643
 4489TIP3    H135026   6.249   5.055   3.465  0.6471  0.6197  0.5902
 4489TIP3    H235027   6.357   5.147   3.414  1.1386  1.1885  2.5844
 4490TIP3   OH235028   2.894   3.365   0.187 -0.0906 -0.2358 -0.1252
 4490TIP3    H135029   2.835   3.420   0.134 -0.6426 -1.0608 -0.3932
 4490TIP3    H235030   2.861   3.276   0.174  0.0828 -0.5129  1.2113
 4491TIP3   OH235031   6.168   3.876   3.925  0.2888  0.3538 -0.2180
 4491TIP3    H135032   6.173   3.913   3.837  0.0795 -0.1563 -0.4448
 4491TIP3    H235033   6.142   3.950   3.980  0.6159  0.7207 -0.5512
 4492TIP3   OH235034   5.159   0.478   3.520  0.6915 -0.4094  0.1864
 4492TIP3    H135035   5.112   0.403   3.483  0.2316 -0.0736  0.0792
 4492TIP3    H235036   5.113   0.497   3.601 -1.0820  1.5785 -1.1739
 4493TIP3   OH235037   4.671   1.019   2.812  0.4171 -0.1635 -0.3676
 4493TIP3    H135038   4.713   0.933   2.811  0.3992 -0.1673 -1.3412
 4493TIP3    H235039   4.728   1.074   2.758  0.2604  0.3546 -0.0100
 4494TIP3   OH235040   1.602   0.377   1.813  0.1189  0.0187 -0.3976
 4494TIP3    H135041   1.527   0.400   1.867 -0.2665 -0.7083 -0.6232
 4494TIP3    H235042   1.585   0.420   1.729  1.3171  2.2198  0.3817
 4495TIP3   OH235043   4.789   5.570   2.811  0.1574 -0.1939 -0.2209
 4495TIP3    H135044   4.856   5.501   2.815  0.6147  0.2722  0.2560
 4495TIP3    H235045   4.733   5.544   2.738 -0.4261 -1.7639  0.7169
 4496TIP3   OH235046   1.621   5.733   4.239 -0.6915 -0.2230 -0.1417
 4496TIP3    H135047   1.617   5.828   4.231  1.0534 -0.2495 -1.9916
 4496TIP3    H235048   1.580   5.715   4.324 -0.8743  2.1742  0.3615
 4497TIP3   OH235049   2.991   1.606   2.331 -0.3912  0.4296 -0.3286
 4497TIP3    H135050   2.981   1.695   2.365  0.0672  0.5083 -0.3937
 4497TIP3    H235051   3.031   1.558   2.403  0.4817  0.5706 -0.7156
 4498TIP3   OH235052   6.127   2.542   1.416 -0.3456  0.1288 -0.0723
 4498TIP3    H135053   6.111   2.471   1.354  1.5059 -1.2319  0.9384
 4498TIP3    H235054   6.222   2.544   1.426 -0.1749  3.6350 -1.0461
 4499TIP3   OH235055   3.742   0.211   2.956  0.1432  0.0276  0.4685
 4499TIP3    H135056   3.713   0.301   2.969  2.6320  0.5307  3.4732
 4499TIP3    H235057   3.813   0.218   2.892 -2.3686 -0.5078 -2.6179
 4500TIP3   OH235058   4.603   0.407   0.882 -0.1713  0.5414 -0.7566
 4500TIP3    H135059   4.651   0.461   0.945 -0.5982  2.1109 -1.7140
 4500TIP3    H235060   4.666   0.343   0.852 -0.5106 -1.8070  2.8760
 4501TIP3   OH235061   1.927   0.212   1.749 -0.1744  0.3400 -0.3366
 4501TIP3    H135062   1.992   0.145   1.768  0.2223  0.1250 -2.2735
 4501TIP3    H235063   1.843   0.167   1.753  0.0421 -0.1272 -0.9217
 4502TIP3   OH235064   4.301   3.089   1.834  0.1301 -0.0303 -0.4013
 4502TIP3    H135065   4.278   3.002   1.801  0.5778  0.8465 -3.2714
 4502TIP3    H235066   4.228   3.145   1.806  0.3671  0.7241  0.4552
 4503TIP3   OH235067   5.284   4.374   8.769 -0.3503  0.0947 -0.1038
 4503TIP3    H135068   5.299   4.459   8.811 -0.2419 -1.7279  4.0504
 4503TIP3    H235069   5.363   4.359   8.716  1.0068  1.3501  1.4396
 4504TIP3   OH235070   3.093   4.643   3.046  0.4266  0.6785 -0.3165
 4504TIP3    H135071   3.158   4.713   3.051 -0.5145  1.5318  0.4118
 4504TIP3    H235072   3.110   4.590   3.124  0.9242  0.2743 -0.6922
 4505TIP3   OH235073   1.325   2.715   0.850 -0.2118 -0.0194  0.3393
 4505TIP3    H135074   1.335   2.647   0.784 -1.9276  0.7638 -0.8033
 4505TIP3    H235075   1.262   2.680   0.912  0.7604 -0.4145  1.1352
 4506TIP3   OH235076   2.015   5.364   2.327  0.3624  0.4001  0.2747
 4506TIP3    H135077   2.002   5.271   2.310 -0.5472  0.5732 -0.0421
 4506TIP3    H235078   2.110   5.376   2.326  0.5407 -0.6883  1.2179
 4507TIP3   OH235079   5.770   3.470   4.163  0.0042  0.4710  0.2482
 4507TIP3    H135080   5.804   3.533   4.100 -0.1968  0.3097 -0.0243
 4507TIP3    H235081   5.707   3.520   4.216 -0.7268  0.3263 -0.4596
 4508TIP3   OH235082   2.063   1.667   3.697  0.3124 -0.4582  0.1717
 4508TIP3    H135083   2.110   1.710   3.769  1.6893  1.6790 -1.8612
 4508TIP3    H235084   2.097   1.578   3.696  0.0909 -0.6333  2.2357
 4509TIP3   OH235085   3.472   4.130   2.312 -0.8388  0.0054 -0.2354
 4509TIP3    H135086   3.503   4.217   2.336  1.7896 -1.0693  0.6024
 4509TIP3    H235087   3.506   4.072   2.380 -2.0017 -1.7691 -1.0860
 4510TIP3   OH235088   4.840   6.755   2.791  0.0927  0.8403  0.3243
 4510TIP3    H135089   4.908   6.688   2.783 -0.3918  0.4733 -0.9374
 4510TIP3    H235090   4.852   6.811   2.714 -0.6284  1.1366  0.4178
 4511TIP3   OH235091   5.822   4.454   1.609  0.0370  0.2368  0.6022
 4511TIP3    H135092   5.820   4.518   1.538  0.5046  0.9487  1.2139
 4511TIP3    H235093   5.767   4.491   1.677 -0.4836 -0.4854  0.5902
 4512TIP3   OH235094   3.896   0.820   3.348  0.0866 -0.0172  0.3271
 4512TIP3    H135095   3.852   0.813   3.433 -0.1850 -0.5003  0.1554
 4512TIP3    H235096   3.985   0.848   3.368 -0.3103  1.0391  0.6796
 4513TIP3   OH235097   3.968   6.429   1.061  0.1200  0.3644  0.5061
 4513TIP3    H135098   4.063   6.430   1.074  0.3191  0.1261 -0.8306
 4513TIP3    H235099   3.952   6.499   0.998 -0.1726 -1.5914 -1.7183
 4514TIP3   OH235100   3.832   5.813   3.426 -0.1175 -0.0074  0.2923
 4514TIP3    H135101   3.765   5.758   3.467  0.8170 -2.5634 -1.3339
 4514TIP3    H235102   3.915   5.770   3.447  0.9581  2.2677  1.0436
 4515TIP3   OH235103   4.513   6.475   3.848  0.4005 -1.0579 -0.0529
 4515TIP3    H135104   4.500   6.531   3.771  1.2123 -0.6088  0.1155
 4515TIP3    H235105   4.463   6.396   3.829 -0.9318 -0.2030 -0.2209
 4516TIP3   OH235106   5.534   5.418   4.206 -0.3770  0.0296 -0.2002
 4516TIP3    H135107   5.564   5.353   4.271  0.9484  0.4614 -0.3392
 4516TIP3    H235108   5.452   5.451   4.241 -1.4111 -2.1371 -0.4195
 4517TIP3   OH235109   5.861   4.966   1.289 -0.8135  0.0149  0.1248
 4517TIP3    H135110   5.798   4.940   1.222 -2.7581 -0.7307  2.1336
 4517TIP3    H235111   5.888   4.883   1.330 -0.7302  0.5295  1.1538
 4518TIP3   OH235112   5.165   1.238   2.526 -0.2319  0.1770 -0.3261
 4518TIP3    H135113   5.135   1.148   2.541 -0.6738  0.2031 -1.0245
 4518TIP3    H235114   5.193   1.268   2.612  1.5745 -1.2220 -0.3634
 4519TIP3   OH235115   4.302   3.573   3.471 -0.6976 -0.1652 -0.0666
 4519TIP3    H135116   4.231   3.571   3.406  0.3467 -0.4540 -1.2258
 4519TIP3    H235117   4.256   3.578   3.555 -2.0934 -0.1361 -0.7887
 4520TIP3   OH235118   6.695   3.857   2.788  0.4212  0.4210  0.8961
 4520TIP3    H135119   6.629   3.797   2.756  0.9257  1.4469 -2.4111
 4520TIP3    H235120   6.647   3.918   2.844 -1.1728  0.3215 -0.3012
 4521TIP3   OH235121   3.016   0.575   0.480 -0.1623  0.3602 -0.7232
 4521TIP3    H135122   3.053   0.659   0.452 -0.5480  0.4358 -1.0137
 4521TIP3    H235123   2.955   0.551   0.410  0.9858 -0.8606 -1.3448
 4522TIP3   OH235124   1.759   3.837   0.473  0.3778  0.3144 -0.3410
 4522TIP3    H135125   1.776   3.924   0.437 -0.9345  1.2984  1.2344
 4522TIP3    H235126   1.692   3.799   0.416  0.7717  0.4377 -0.8876
 4523TIP3   OH235127   2.761   3.010   4.026  0.4012 -0.3170 -0.4373
 4523TIP3    H135128   2.853   2.992   4.007 -0.4441 -4.4614 -1.6297
 4523TIP3    H235129   2.760   3.028   4.120  2.3741 -0.6501 -0.2933
 4524TIP3   OH235130   1.975   0.028   2.110  1.2845 -0.2321  0.0440
 4524TIP3    H135131   1.954  -0.040   2.173 -0.0388  0.2980  0.1971
 4524TIP3    H235132   1.964   0.110   2.158 -0.0291  0.1990 -0.9156
 4525TIP3   OH235133   6.746   6.526   3.998 -0.6023  0.6638 -0.4056
 4525TIP3    H135134   6.692   6.457   3.961  1.3879 -1.2371  0.0668
 4525TIP3    H235135   6.824   6.528   3.943 -0.1525  1.8158  0.2369
 4526TIP3   OH235136   5.682   0.349   0.851 -0.7652  0.0685 -0.4330
 4526TIP3    H135137   5.702   0.394   0.933 -2.2956 -1.2992  0.7395
 4526TIP3    H235138   5.610   0.400   0.813 -0.1357  0.6309 -0.9178
 4527TIP3   OH235139   1.580   1.141   3.829  0.1692 -0.3020  0.5992
 4527TIP3    H135140   1.537   1.130   3.744  1.9007 -0.3479 -0.3261
 4527TIP3    H235141   1.530   1.210   3.873 -0.6278 -0.1133 -0.5671
 4528TIP3   OH235142   5.461   1.956   0.554  0.2458  0.6687  0.5693
 4528TIP3    H135143   5.550   1.990   0.549 -0.4191  2.4073 -1.0264
 4528TIP3    H235144   5.428   1.987   0.639  1.2467 -0.3361  1.3518
 4529TIP3   OH235145   3.598   2.028   1.098  0.1048 -0.1406  0.3401
 4529TIP3    H135146   3.595   1.934   1.112  3.4135 -0.4703 -0.3545
 4529TIP3    H235147   3.677   2.057   1.144  0.3392  1.9333 -1.2126
 4530TIP3   OH235148   2.726   4.106   3.443  0.1106  0.2348 -0.3205
 4530TIP3    H135149   2.768   4.106   3.357 -0.5705 -2.6387 -0.7459
 4530TIP3    H235150   2.633   4.093   3.424  0.0444 -1.2705  0.8494
 4531TIP3   OH235151   5.286   3.315   0.721 -0.2449 -0.1594  0.2395
 4531TIP3    H135152   5.267   3.311   0.627 -0.1917 -1.0830  0.2606
 4531TIP3    H235153   5.381   3.320   0.726 -0.3185  2.0855  0.2006
 4532TIP3   OH235154   6.096   0.994   2.947 -0.3673 -0.7715 -0.2176
 4532TIP3    H135155   6.006   0.961   2.946 -0.5657 -0.3174  0.9925
 4532TIP3    H235156   6.106   1.038   2.862 -1.4352 -0.4538 -0.1977
 4533TIP3   OH235157   0.185   5.092   4.089  0.8552  0.1120  1.0874
 4533TIP3    H135158   0.117   5.134   4.140 -0.3602 -0.3041 -0.1091
 4533TIP3    H235159   0.265   5.140   4.110  0.2700  0.4081  2.7715
 4534TIP3   OH235160   3.290   3.856   0.562  0.2272 -0.7127 -0.3134
 4534TIP3    H135161   3.216   3.908   0.530 -0.4048 -0.9201  0.7399
 4534TIP3    H235162   3.359   3.920   0.579  0.1300 -0.4584 -0.8569
 4535TIP3   OH235163   3.187   5.703   1.541  0.5326  0.4074 -0.2767
 4535TIP3    H135164   3.240   5.755   1.602  1.6332 -1.1161  0.1138
 4535TIP3    H235165   3.186   5.755   1.460 -0.9919  2.4977  0.9611
 4536TIP3   OH235166   3.219   5.823   0.112  0.1483  0.0788  0.4353
 4536TIP3    H135167   3.160   5.796   0.042  1.6595 -2.3813 -0.0102
 4536TIP3    H235168   3.276   5.747   0.126  0.5348  0.8074  3.6943
 4537TIP3   OH235169   5.396   0.872   1.212  0.2674 -0.0501 -0.5592
 4537TIP3    H135170   5.479   0.904   1.248 -1.1082  2.8251  0.3430
 4537TIP3    H235171   5.371   0.800   1.269 -0.2601  2.3073  2.4833
 4538TIP3   OH235172   1.372   5.722   1.560 -0.3772  0.0598  0.4029
 4538TIP3    H135173   1.288   5.681   1.540 -1.2165  1.7281  0.2881
 4538TIP3    H235174   1.408   5.747   1.475 -0.3358  0.3904  0.5133
 4539TIP3   OH235175   5.848   1.056   2.161  0.5788  0.0795  0.0457
 4539TIP3    H135176   5.755   1.045   2.142 -0.0162  1.6448  1.7383
 4539TIP3    H235177   5.850   1.085   2.253  2.8182 -1.1232  0.4428
 4540TIP3   OH235178   0.909   6.271   0.970 -0.2542  0.4089  0.7423
 4540TIP3    H135179   0.862   6.271   1.054 -2.9937  1.0024 -0.6853
 4540TIP3    H235180   0.962   6.351   0.972 -1.2712  1.0876  1.4199
 4541TIP3   OH235181   2.467   5.081   4.082 -0.0508 -0.5789 -0.1743
 4541TIP3    H135182   2.478   5.012   4.148 -0.3639  1.5819  2.3404
 4541TIP3    H235183   2.532   5.147   4.106  0.0260  0.1684 -2.2695
 4542TIP3   OH235184   3.547   1.346   2.991  0.1717  0.7535 -0.1725
 4542TIP3    H135185   3.509   1.358   2.904  1.3457 -0.0825 -0.8178
 4542TIP3    H235186   3.491   1.280   3.032  0.1599  0.4795 -0.6270
 4543TIP3   OH235187   1.762   5.738   3.832 -0.8387  0.2717  0.1730
 4543TIP3    H135188   1.808   5.656   3.853 -0.7010  0.0648 -0.9018
 4543TIP3    H235189   1.699   5.714   3.764  0.2222  1.3183 -1.2493
 4544TIP3   OH235190   5.615   6.128   0.137 -0.5186  0.4297 -0.5485
 4544TIP3    H135191   5.563   6.050   0.121 -0.5574  0.3343  0.0183
 4544TIP3    H235192   5.699   6.095   0.169 -0.0707  0.5797 -1.5450
 4545TIP3   OH235193   1.868   6.257   1.817  0.3563  0.3332  0.3128
 4545TIP3    H135194   1.865   6.337   1.870  2.3796 -0.2516  1.4565
 4545TIP3    H235195   1.954   6.260   1.774  0.8214 -1.5548  1.0066
 4546TIP3   OH235196   5.236   5.878   4.474  0.0504  0.2422  0.2121
 4546TIP3    H135197   5.145   5.850   4.464 -0.0373  0.5533  0.1527
 4546TIP3    H235198   5.280   5.844   4.395 -0.4246  1.7801 -0.7464
 4547TIP3   OH235199   1.664   0.627   3.130  0.4584  0.4188 -0.1987
 4547TIP3    H135200   1.589   0.574   3.104  0.1676  0.3293  0.8177
 4547TIP3    H235201   1.721   0.627   3.052 -0.7443  0.7759 -1.1069
 4548TIP3   OH235202   2.631   4.026   2.153 -0.3286  0.0372  0.6397
 4548TIP3    H135203   2.601   4.108   2.113  0.7664  0.0515 -0.1842
 4548TIP3    H235204   2.604   3.959   2.091  0.3757 -0.0497  0.4249
 4549TIP3   OH235205   5.511   5.295   4.468 -0.4934 -0.0417  0.1392
 4549TIP3    H135206   5.548   5.208   4.479 -0.4784  0.0338  0.7259
 4549TIP3    H235207   5.430   5.294   4.519 -1.9839 -0.5881 -2.1210
 4550TIP3   OH235208   3.494   4.420   2.398  0.1382 -0.0276 -0.6289
 4550TIP3    H135209   3.409   4.460   2.416 -0.0360 -0.7507  0.2274
 4550TIP3    H235210   3.542   4.428   2.480  0.6857 -0.1574 -0.9301
 4551TIP3   OH235211   3.477   0.250   2.051  0.2698  0.6468 -0.0221
 4551TIP3    H135212   3.528   0.185   2.098  0.1335  0.5025 -0.0690
 4551TIP3    H235213   3.540   0.294   1.994  0.5478  1.2315  0.7198
 4552TIP3   OH235214   2.146   2.875   0.699 -0.5882  0.2374  0.4420
 4552TIP3    H135215   2.221   2.933   0.683  0.8851 -1.6844 -0.0603
 4552TIP3    H235216   2.100   2.871   0.615  0.4649 -0.8070 -0.1258
 4553TIP3   OH235217   5.498   4.965   0.562  0.6617 -0.0070 -0.1345
 4553TIP3    H135218   5.517   4.972   0.656  0.6061  0.8148 -0.1776
 4553TIP3    H235219   5.558   5.026   0.521  1.3590 -1.0726 -0.7353
 4554TIP3   OH235220   6.766   5.991   2.108 -0.5972  0.2264  0.2230
 4554TIP3    H135221   6.695   5.976   2.170 -1.7005  1.5218 -0.6617
 4554TIP3    H235222   6.722   6.017   2.027  0.8686  0.3522 -0.5685
 4555TIP3   OH235223   4.961   3.719   1.106 -0.2978  0.7010  0.1571
 4555TIP3    H135224   4.919   3.732   1.021  0.2806 -0.1343 -0.2718
 4555TIP3    H235225   4.955   3.804   1.150 -2.9185  0.5054  0.3469
 4556TIP3   OH235226   4.196   1.080   4.314  0.1871  0.0870  0.6968
 4556TIP3    H135227   4.159   0.997   4.342  1.2923 -1.2220 -1.4663
 4556TIP3    H235228   4.271   1.094   4.372  0.0623 -0.4760  0.9987
 4557TIP3   OH235229   3.077   5.281   2.123 -0.4337 -0.3868  0.1810
 4557TIP3    H135230   3.132   5.290   2.046  0.2778 -0.3833  0.6800
 4557TIP3    H235231   3.099   5.195   2.159 -2.0196 -1.1524 -0.5754
 4558TIP3   OH235232   2.702   2.726   2.435 -0.1128 -0.0691 -0.2457
 4558TIP3    H135233   2.656   2.652   2.396 -2.5881  0.5264  1.3306
 4558TIP3    H235234   2.767   2.687   2.493 -0.0864 -0.9745 -0.8728
 4559TIP3   OH235235   0.267   3.256   4.427 -0.1390  0.2285 -0.0334
 4559TIP3    H135236   0.201   3.325   4.438 -0.2874  0.1931 -0.6596
 4559TIP3    H235237   0.216   3.175   4.424  0.1361 -0.0954  2.2534
 4560TIP3   OH235238   2.746   1.645   3.394  0.2004 -0.9352  0.0975
 4560TIP3    H135239   2.807   1.621   3.464 -0.0318 -0.5845  0.4240
 4560TIP3    H235240   2.801   1.654   3.316  0.3490 -2.1486  0.0356
 4561TIP3   OH235241   0.875   2.250   8.647  0.4761 -0.1655 -0.0551
 4561TIP3    H135242   0.818   2.308   8.699 -0.2078 -0.2598 -0.6842
 4561TIP3    H235243   0.956   2.245   8.698  0.6403  1.5192 -0.0902
 4562TIP3   OH235244   0.751   0.301   3.155  0.8030  0.5834 -0.3669
 4562TIP3    H135245   0.668   0.303   3.108  0.5484  1.2296  0.0907
 4562TIP3    H235246   0.769   0.208   3.169  0.6967  0.4020 -1.3996
 4563TIP3   OH235247   2.334   6.705   2.083 -0.6409  0.0407  0.3118
 4563TIP3    H135248   2.269   6.691   2.015 -0.1050  0.3816 -0.2835
 4563TIP3    H235249   2.319   6.794   2.115 -1.2605 -0.3168  1.0569
 4564TIP3   OH235250   5.424   0.636   4.276  0.2068 -0.8766 -0.1994
 4564TIP3    H135251   5.453   0.682   4.355 -0.2121 -0.2905 -0.3827
 4564TIP3    H235252   5.328   0.638   4.281  0.1739 -0.4383 -0.9482
 4565TIP3   OH235253   5.783   1.701   0.553 -0.6508  0.6685 -0.3726
 4565TIP3    H135254   5.722   1.644   0.507  0.6400  0.6141 -2.0727
 4565TIP3    H235255   5.731   1.779   0.574 -1.9143 -0.3142  0.3276
 4566TIP3   OH235256   0.839   6.380   2.402  0.6079 -0.2846  0.1818
 4566TIP3    H135257   0.851   6.317   2.331 -0.2869 -0.0184 -0.2194
 4566TIP3    H235258   0.760   6.350   2.447 -1.4815  2.0010 -1.6469
 4567TIP3   OH235259   2.022   4.142   2.419  0.5395  0.3481 -0.4300
 4567TIP3    H135260   2.087   4.076   2.393  0.3958  0.4858 -1.1417
 4567TIP3    H235261   2.055   4.224   2.381 -0.4640  0.2784 -1.4967
 4568TIP3   OH235262   3.518   1.252   4.490  0.6074  0.9818  0.0946
 4568TIP3    H135263   3.493   1.185   4.554  1.7650 -1.2768 -1.6634
 4568TIP3    H235264   3.593   1.297   4.531 -0.0523  1.1022  1.2180
 4569TIP3   OH235265   1.199   0.077   2.513 -0.0968 -0.4146  0.0027
 4569TIP3    H135266   1.218   0.010   2.447  0.5309  0.0495 -0.2926
 4569TIP3    H235267   1.213   0.032   2.597  1.1521 -0.4228 -0.1967
 4570TIP3   OH235268   3.149   4.534   3.287  0.1506  0.1088 -0.4009
 4570TIP3    H135269   3.082   4.489   3.339  1.8187 -0.8726  1.0055
 4570TIP3    H235270   3.223   4.543   3.346  1.4993  0.6105 -2.0848
 4571TIP3   OH235271   6.362   1.671   4.660 -0.4549 -0.3154  0.3721
 4571TIP3    H135272   6.450   1.686   4.695 -0.4943 -1.0550  0.8116
 4571TIP3    H235273   6.374   1.608   4.589 -0.6779 -0.7772  0.7376
 4572TIP3   OH235274   1.719   4.731   4.523 -0.5429  0.1978  0.2970
 4572TIP3    H135275   1.667   4.685   4.589  0.4127 -2.2146 -0.5049
 4572TIP3    H235276   1.810   4.715   4.548 -0.0809 -2.3478 -2.3899
 4573TIP3   OH235277   0.713   4.991   1.096  0.3102  0.0147  0.4984
 4573TIP3    H135278   0.785   4.927   1.102  0.0344 -0.5023 -1.1972
 4573TIP3    H235279   0.714   5.020   1.005 -0.9340  0.8459  0.7261
 4574TIP3   OH235280   1.041   3.670   1.328  0.2876 -0.1691 -0.4533
 4574TIP3    H135281   1.111   3.651   1.265 -2.1854 -2.1656 -2.8826
 4574TIP3    H235282   1.024   3.585   1.369  0.8830  0.8215  1.9669
 4575TIP3   OH235283   6.612   1.038   2.249 -0.1965 -0.2508  0.4276
 4575TIP3    H135284   6.628   1.121   2.205 -0.4137  0.7620  2.1882
 4575TIP3    H235285   6.530   1.050   2.295  0.0668 -1.2288  1.1843
 4576TIP3   OH235286   4.378   0.673   4.405  0.3996  0.3083  0.0869
 4576TIP3    H135287   4.426   0.591   4.394 -2.3812 -1.3129 -1.1519
 4576TIP3    H235288   4.347   0.671   4.495 -1.0609 -0.9163 -0.4049
 4577TIP3   OH235289   2.830   5.389   1.412  0.5408  0.1625 -0.2726
 4577TIP3    H135290   2.748   5.401   1.365 -0.8903 -0.8439  1.8325
 4577TIP3    H235291   2.858   5.477   1.435 -0.1328  0.4894 -0.6886
 4578TIP3   OH235292   0.521   3.541   3.832  0.4581 -0.0439  0.1252
 4578TIP3    H135293   0.606   3.579   3.810  0.8020 -1.1418 -0.5455
 4578TIP3    H235294   0.534   3.499   3.917  1.0812 -1.6066 -0.7045
 4579TIP3   OH235295   3.591   3.423   2.458 -0.1242  0.2667  0.3651
 4579TIP3    H135296   3.623   3.345   2.413 -0.1826  1.1028 -1.1863
 4579TIP3    H235297   3.550   3.476   2.389 -0.3598  1.5230  1.4272
 4580TIP3   OH235298   2.218   5.096   1.521 -0.1964 -0.7082  0.3389
 4580TIP3    H135299   2.191   5.090   1.613 -1.7326  0.4820  0.0106
 4580TIP3    H235300   2.137   5.082   1.472  0.6178 -1.3876 -0.8517
 4581TIP3   OH235301   3.125   2.794   2.364 -0.3682  0.3274 -0.6763
 4581TIP3    H135302   3.138   2.732   2.436 -0.3561  0.5845 -0.4565
 4581TIP3    H235303   3.068   2.747   2.303  1.1916 -0.6551 -1.4548
 4582TIP3   OH235304   1.393   2.259   3.753  0.4617  0.3999 -0.6983
 4582TIP3    H135305   1.372   2.336   3.806  0.9311 -0.0336  0.1355
 4582TIP3    H235306   1.406   2.188   3.817  1.4557 -0.0318 -1.3534
 4583TIP3   OH235307   6.346   5.971   4.214  0.1525  0.1687 -0.4703
 4583TIP3    H135308   6.308   6.043   4.264  1.1588  1.1382 -1.0621
 4583TIP3    H235309   6.440   5.991   4.209  0.6195 -1.6218  0.0696
 4584TIP3   OH235310   4.085   2.246   0.205  0.3380  0.6736  0.0245
 4584TIP3    H135311   4.051   2.258   0.116 -1.2386 -2.1428  0.1109
 4584TIP3    H235312   4.040   2.168   0.237  3.2810 -0.3651  2.0932
 4585TIP3   OH235313   2.972   5.529   1.996  0.2603 -0.2707  0.1759
 4585TIP3    H135314   2.926   5.498   1.918  0.6575 -0.4165 -0.0008
 4585TIP3    H235315   3.012   5.451   2.033  0.5092 -0.1154  0.2343
 4586TIP3   OH235316   0.472   5.372   4.526  0.1948 -0.2529 -0.0868
 4586TIP3    H135317   0.506   5.452   4.566 -0.4418  1.3202 -2.5067
 4586TIP3    H235318   0.459   5.312   4.600 -0.8150  2.3866  2.0476
 4587TIP3   OH235319   2.273   5.781   1.902  0.2180  0.8069  0.3559
 4587TIP3    H135320   2.223   5.714   1.948  1.7963  0.0310  1.0232
 4587TIP3    H235321   2.210   5.821   1.842 -1.1014 -0.3276  0.9268
 4588TIP3   OH235322   1.506   5.884   0.669 -0.1126  0.1325 -0.7531
 4588TIP3    H135323   1.418   5.851   0.688 -0.3066  0.6426 -0.7606
 4588TIP3    H235324   1.554   5.807   0.639 -0.4996 -0.1883 -0.5590
 4589TIP3   OH235325   6.434   4.756   3.261 -0.6729 -0.2141 -0.0363
 4589TIP3    H135326   6.519   4.752   3.305  0.5345 -1.1527 -2.2915
 4589TIP3    H235327   6.378   4.805   3.321  2.0170  2.2702  0.6916
 4590TIP3   OH235328   3.121   4.395   2.570 -0.0444  0.2071 -0.2163
 4590TIP3    H135329   3.147   4.305   2.589  2.6079  1.0707  0.7633
 4590TIP3    H235330   3.105   4.434   2.656  0.2078  1.0099 -0.5223
 4591TIP3   OH235331   2.824   2.366   3.097  0.0956  0.3330 -0.1263
 4591TIP3    H135332   2.819   2.449   3.144  1.0000  1.1959 -1.4921
 4591TIP3    H235333   2.733   2.339   3.085 -0.1708  0.2064  1.8417
 4592TIP3   OH235334   0.918   6.161   3.650 -0.5967  0.5233 -0.7309
 4592TIP3    H135335   0.885   6.095   3.589 -2.3435 -1.8899  2.5147
 4592TIP3    H235336   0.840   6.206   3.681 -0.0139  0.3582  1.0937
 4593TIP3   OH235337   1.634   3.591   1.927 -0.5803  0.3288  0.0737
 4593TIP3    H135338   1.661   3.670   1.973 -1.0195  0.5928 -0.1244
 4593TIP3    H235339   1.717   3.547   1.906 -0.3816 -0.0422  1.5221
 4594TIP3   OH235340   6.011   4.648   1.487  0.2522  0.5822 -0.0868
 4594TIP3    H135341   5.944   4.672   1.551 -0.9066 -3.4568  0.4566
 4594TIP3    H235342   5.969   4.663   1.402 -0.4120  0.4486  0.2083
 4595TIP3   OH235343   1.571   3.748   3.557  0.2018  0.3039  0.3512
 4595TIP3    H135344   1.591   3.754   3.463 -0.1863 -0.8867  0.1702
 4595TIP3    H235345   1.477   3.730   3.560  0.2965 -0.1251  0.9403
 4596TIP3   OH235346   1.110   4.589   1.363 -0.0495  0.4696  0.1831
 4596TIP3    H135347   1.027   4.542   1.362  0.4128 -0.3688 -0.9863
 4596TIP3    H235348   1.125   4.609   1.456 -0.5758 -1.1462  0.6415
 4597TIP3   OH235349   4.346   0.297   2.339 -0.2138  0.0071 -0.1046
 4597TIP3    H135350   4.300   0.381   2.345  2.8222  1.7680  0.5098
 4597TIP3    H235351   4.355   0.268   2.430 -0.7837 -0.7773 -0.2802
 4598TIP3   OH235352   3.388   3.814   2.425  0.2566 -0.6240  0.0630
 4598TIP3    H135353   3.406   3.891   2.480 -0.3116 -1.1227  0.9718
 4598TIP3    H235354   3.473   3.772   2.415  0.3152 -0.7165  0.8685
 4599TIP3   OH235355   3.718   4.403   2.226  0.2191  0.8622  0.6143
 4599TIP3    H135356   3.782   4.474   2.230  0.9122  0.2124  1.2832
 4599TIP3    H235357   3.668   4.410   2.307 -0.2805  1.1094  0.2876
 4600TIP3   OH235358   6.352   6.054   0.451 -0.4835 -0.2180  0.2485
 4600TIP3    H135359   6.331   5.971   0.409 -0.9517 -0.2022  0.4443
 4600TIP3    H235360   6.307   6.050   0.535 -0.6718  0.3137  0.1775
 4601TIP3   OH235361   0.597   5.534   2.040  0.0223 -0.4588  0.4429
 4601TIP3    H135362   0.641   5.481   2.106 -0.9260 -1.5610  0.2453
 4601TIP3    H235363   0.656   5.533   1.965  0.4571 -0.4134  0.7860
 4602TIP3   OH235364   5.422   3.890   2.706  0.1992 -0.9111  0.2607
 4602TIP3    H135365   5.410   3.932   2.621  1.1767  1.3870  1.1924
 4602TIP3    H235366   5.334   3.864   2.732 -0.0427 -2.4180 -1.7492
 4603TIP3   OH235367   6.239   0.646   0.482 -0.1671  0.2901  0.0143
 4603TIP3    H135368   6.287   0.619   0.404 -0.9975 -0.5947 -0.2078
 4603TIP3    H235369   6.212   0.564   0.523 -0.0888  0.7538  1.0177
 4604TIP3   OH235370   1.219   5.251   1.570 -0.7638  0.1812 -0.4082
 4604TIP3    H135371   1.137   5.228   1.615 -1.5251  0.2334 -1.7136
 4604TIP3    H235372   1.214   5.346   1.559 -0.3360  0.2357 -0.1499
 4605TIP3   OH235373   0.925   0.424   2.672 -0.0873 -0.4113 -0.0261
 4605TIP3    H135374   0.909   0.347   2.727  1.4814 -0.9651 -0.2694
 4605TIP3    H235375   0.917   0.391   2.582 -1.2527  0.1633 -0.1463
 4606TIP3   OH235376   3.846   4.211   2.087 -0.2984  0.3264  0.0307
 4606TIP3    H135377   3.800   4.287   2.121 -4.5178 -1.8549 -0.0747
 4606TIP3    H235378   3.834   4.215   1.992  0.9448  0.3175 -0.1502
 4607TIP3   OH235379   5.376   0.374   0.849 -0.3619 -0.4815  0.0993
 4607TIP3    H135380   5.281   0.382   0.841 -0.3311 -0.6530 -0.4563
 4607TIP3    H235381   5.393   0.280   0.845 -0.0465 -0.3887 -1.3755
 4608TIP3   OH235382   6.077   6.262   2.797 -0.0307  0.4906  0.1450
 4608TIP3    H135383   6.170   6.249   2.784 -0.1261 -0.6899  0.5428
 4608TIP3    H235384   6.048   6.310   2.719  0.8834  0.8159 -0.0025
 4609TIP3   OH235385   6.043   2.438   3.588 -0.4379  0.3641  0.2858
 4609TIP3    H135386   6.120   2.478   3.548 -0.5673  0.1861 -0.1413
 4609TIP3    H235387   6.005   2.384   3.519 -1.1349  0.7103  0.3972
 4610TIP3   OH235388   1.546   3.518   4.144  0.3499 -0.0951 -0.1508
 4610TIP3    H135389   1.474   3.575   4.116  1.7625  1.7513 -0.2077
 4610TIP3    H235390   1.553   3.533   4.238  0.7633 -0.1261 -0.1748
 4611TIP3   OH235391   5.370   4.826   1.973 -0.1351  0.6383 -0.7441
 4611TIP3    H135392   5.350   4.871   1.891  1.9893  2.9076 -0.1450
 4611TIP3    H235393   5.328   4.879   2.041 -1.0050 -0.6367 -0.2467
 4612TIP3   OH235394   5.384   0.170   2.609  0.1563  0.2185  0.3094
 4612TIP3    H135395   5.382   0.258   2.648  0.8873 -0.4212  1.8898
 4612TIP3    H235396   5.461   0.128   2.648 -0.8682 -1.5356  0.5774
 4613TIP3   OH235397   3.982   4.938   1.166  0.4216 -0.0697 -0.2104
 4613TIP3    H135398   3.917   4.915   1.100 -0.2615  0.1540  0.3665
 4613TIP3    H235399   4.051   4.983   1.117  0.1585 -0.3360 -0.8385
 4614TIP3   OH235400   6.338   3.304   2.311 -0.0352 -0.4152 -0.7685
 4614TIP3    H135401   6.266   3.281   2.252  1.7066 -0.2532 -3.1448
 4614TIP3    H235402   6.414   3.257   2.275  1.4228  0.8451  0.4987
 4615TIP3   OH235403   3.634   5.561   2.134  0.2924 -0.4420 -0.1852
 4615TIP3    H135404   3.595   5.635   2.182 -0.0993 -0.8777  0.1770
 4615TIP3    H235405   3.651   5.496   2.202 -1.8818 -1.7858 -0.8259
 4616TIP3   OH235406   6.709   3.332   3.219  0.0987 -0.2984 -1.0926
 4616TIP3    H135407   6.747   3.412   3.253 -1.3355  0.7038 -1.7138
 4616TIP3    H235408   6.743   3.325   3.130  0.7773 -0.7782 -0.8010
 4617TIP3   OH235409   5.809   6.396   1.055 -0.0670 -0.7428  0.4413
 4617TIP3    H135410   5.788   6.457   0.985 -1.5331 -0.2751  1.2494
 4617TIP3    H235411   5.902   6.409   1.071 -0.0615  0.2849 -0.3426
 4618TIP3   OH235412   2.746   4.415   4.146  0.1012  0.6255 -0.2108
 4618TIP3    H135413   2.806   4.435   4.217 -1.3730 -0.8834  1.5619
 4618TIP3    H235414   2.721   4.323   4.160 -1.4616  0.7520 -1.7363
 4619TIP3   OH235415   0.868   2.246   3.252  0.1734  0.1074  0.5274
 4619TIP3    H135416   0.881   2.153   3.236  0.7739  0.3301 -0.3812
 4619TIP3    H235417   0.892   2.258   3.344 -0.3170 -0.6991  0.7683
 4620TIP3   OH235418   4.790   1.837   0.291 -0.0636 -0.1986  0.6920
 4620TIP3    H135419   4.770   1.848   0.198  0.2165 -0.0806  0.6462
 4620TIP3    H235420   4.854   1.905   0.311  1.7108 -1.7042  0.4036
 4621TIP3   OH235421   0.971   6.638   1.595 -0.2313  0.6718  0.0213
 4621TIP3    H135422   0.948   6.706   1.532  1.2452  0.6954 -0.5403
 4621TIP3    H235423   0.965   6.556   1.545 -0.4993  0.5392  0.2666
 4622TIP3   OH235424   5.488   4.401   2.373  0.0101 -0.1784 -0.7709
 4622TIP3    H135425   5.459   4.421   2.462  1.2165 -0.4072 -0.3070
 4622TIP3    H235426   5.407   4.388   2.323 -0.6977  0.8032  0.0869
 4623TIP3   OH235427   1.701   0.363   2.055  0.2173  0.6063  0.3638
 4623TIP3    H135428   1.689   0.380   1.962  0.6767  0.1546  0.2140
 4623TIP3    H235429   1.689   0.448   2.097  0.0478  0.8192 -0.1138
 4624TIP3   OH235430   1.938   0.857   2.745  0.4646  0.2598 -0.4029
 4624TIP3    H135431   1.875   0.839   2.675 -0.2478  1.5260 -0.1159
 4624TIP3    H235432   2.023   0.855   2.701  0.1325 -0.1810 -1.0518
 4625TIP3   OH235433   0.359   2.836   8.515 -0.8734  0.1226  0.5157
 4625TIP3    H135434   0.373   2.750   8.556 -0.9519 -1.1988 -2.0273
 4625TIP3    H235435   0.445   2.876   8.514 -0.5263 -0.6145  0.2955
 4626TIP3   OH235436   0.152   4.342   1.008  0.1846 -0.0512  0.1871
 4626TIP3    H135437   0.077   4.341   0.948  1.4711 -1.1104 -1.4868
 4626TIP3    H235438   0.192   4.428   0.995  0.8823 -0.5397 -1.0925
 4627TIP3   OH235439   1.087   2.654   3.309 -0.0130 -0.4712  0.1719
 4627TIP3    H135440   1.161   2.710   3.330 -0.7905  0.9444 -0.7314
 4627TIP3    H235441   1.105   2.623   3.220 -0.1779 -0.6917  0.2139
 4628TIP3   OH235442   6.008   5.097   2.294  0.2709 -0.5551  0.4864
 4628TIP3    H135443   5.937   5.125   2.351 -1.0163 -0.5025 -1.0808
 4628TIP3    H235444   6.005   5.001   2.297  1.7115 -0.6201  2.2342
 4629TIP3   OH235445   1.155   4.533   2.152  0.2718  0.0325 -0.4143
 4629TIP3    H135446   1.161   4.456   2.208 -0.8087  0.0604 -0.2346
 4629TIP3    H235447   1.068   4.569   2.170  1.0739  1.7778  0.1146
 4630TIP3   OH235448   6.000   5.341   1.098  0.0357 -0.0473 -0.3478
 4630TIP3    H135449   5.990   5.270   1.034  0.6717 -0.4202 -0.0420
 4630TIP3    H235450   5.966   5.306   1.180 -0.0992  0.1726 -0.3085
 4631TIP3   OH235451   4.256   6.148   4.734  0.2580  0.2738 -0.6560
 4631TIP3    H135452   4.332   6.175   4.786 -0.7466  0.3422  0.8593
 4631TIP3    H235453   4.181   6.188   4.779 -0.8154 -1.0645 -1.1767
 4632TIP3   OH235454   4.212   3.334   8.408  0.2145  0.3964 -0.0114
 4632TIP3    H135455   4.121   3.304   8.407 -0.3430  1.9730 -0.6186
 4632TIP3    H235456   4.206   3.429   8.405  1.8860  0.5263 -2.1683
 4633TIP3   OH235457   3.358   3.985   4.046  0.3962  0.6790  0.2559
 4633TIP3    H135458   3.417   3.939   4.106 -0.5916  1.2997  1.7697
 4633TIP3    H235459   3.273   3.943   4.060 -0.2920  2.1987  0.8634
 4634TIP3   OH235460   5.611   0.061   0.386 -0.2107  0.0721  0.1549
 4634TIP3    H135461   5.535   0.023   0.342  0.4372  2.3298 -3.3580
 4634TIP3    H235462   5.581   0.148   0.413  0.7443  0.5230 -0.2048
 4635TIP3   OH235463   5.045   6.325   2.554 -0.4614  0.3276 -0.4037
 4635TIP3    H135464   4.990   6.302   2.629  0.7383  1.1451  0.7758
 4635TIP3    H235465   5.001   6.399   2.513 -0.7248  0.3830 -0.0239
 4636TIP3   OH235466   6.783   3.586   2.823 -0.0996 -0.1326  0.5142
 4636TIP3    H135467   6.777   3.681   2.814 -0.3031 -0.2285 -0.5324
 4636TIP3    H235468   6.750   3.568   2.911  1.5630  0.9025  1.3969
 4637TIP3   OH235469   4.614   0.546   2.277  0.4859  0.3703  0.0816
 4637TIP3    H135470   4.597   0.477   2.213 -0.0728 -0.8179  1.4453
 4637TIP3    H235471   4.673   0.606   2.232  0.1347 -0.4244 -1.5271
 4638TIP3   OH235472   5.781   4.547   3.753  0.1770  0.7869  0.0039
 4638TIP3    H135473   5.836   4.583   3.683 -0.4614  2.8699  0.4905
 4638TIP3    H235474   5.840   4.541   3.828  0.5166 -0.1122 -0.3224
 4639TIP3   OH235475   4.407   1.471   4.854 -0.2057  0.0652  0.8235
 4639TIP3    H135476   4.489   1.436   4.821 -0.3199  0.3290  0.2392
 4639TIP3    H235477   4.367   1.399   4.903 -0.2376 -0.4840  0.0111
 4640TIP3   OH235478   6.743   5.170   2.244 -0.2566 -0.1991 -0.0921
 4640TIP3    H135479   6.694   5.199   2.167  1.3656  1.7062 -0.5133
 4640TIP3    H235480   6.819   5.229   2.247 -0.0097 -0.5220  2.6949
 4641TIP3   OH235481   1.092   2.293   4.139  0.1599 -0.1235  0.1671
 4641TIP3    H135482   1.156   2.364   4.142 -0.2119  0.9017 -5.7739
 4641TIP3    H235483   1.033   2.311   4.213  3.9089  1.5001  3.1018
 4642TIP3   OH235484   2.008   3.674   0.221  0.0935 -0.0795  0.1636
 4642TIP3    H135485   1.948   3.738   0.183 -0.0561  0.2164  0.8953
 4642TIP3    H235486   2.084   3.674   0.161  0.4870  1.4302  0.6255
 4643TIP3   OH235487   2.463   2.129   3.837 -0.5019 -0.3405  0.3356
 4643TIP3    H135488   2.383   2.148   3.788 -0.2384  2.6724  0.8933
 4643TIP3    H235489   2.534   2.147   3.776 -0.2182 -0.4951  0.6152
 4644TIP3   OH235490   1.754   5.160   1.119 -0.3497  0.3114 -0.7065
 4644TIP3    H135491   1.666   5.176   1.153 -0.0907  1.5560 -0.5918
 4644TIP3    H235492   1.743   5.162   1.023 -0.4726  0.3080 -0.6924
 4645TIP3   OH235493   4.981   0.489   1.046 -0.4641  0.4712 -0.7552
 4645TIP3    H135494   4.905   0.541   1.021 -0.0111  1.3344 -0.3594
 4645TIP3    H235495   5.007   0.445   0.965 -0.9481  0.7188 -1.0540
 4646TIP3   OH235496   5.428   6.337   0.208  0.2480 -0.6495  0.3107
 4646TIP3    H135497   5.501   6.276   0.207 -1.0195 -2.2391 -1.1809
 4646TIP3    H235498   5.354   6.287   0.173 -0.6790  1.9223 -1.7681
 4647TIP3   OH235499   4.066   1.362   2.895 -0.2491  0.3407  0.0200
 4647TIP3    H135500   4.078   1.291   2.959  0.5313  0.4397 -0.0053
 4647TIP3    H235501   4.122   1.337   2.822 -0.3999  0.7158 -0.2235
 4648TIP3   OH235502   1.019   2.838   4.244 -0.7762 -0.2724  0.2878
 4648TIP3    H135503   0.953   2.802   4.303  0.2548  0.7963  2.1935
 4648TIP3    H235504   1.031   2.928   4.272 -0.0365  0.2147 -1.4224
 4649TIP3   OH235505   5.917   5.254   0.801  0.4890 -0.2099 -0.2805
 4649TIP3    H135506   5.897   5.345   0.824 -0.5126 -0.6163  0.5584
 4649TIP3    H235507   6.012   5.253   0.785  0.5959  0.8753  0.2233
 4650TIP3   OH235508   1.178   5.534   1.474 -0.2422  0.0310  0.5351
 4650TIP3    H135509   1.091   5.498   1.494  0.5474 -2.3276 -0.0270
 4650TIP3    H235510   1.188   5.523   1.379  0.0541  1.8377  0.3138
 4651TIP3   OH235511   5.776   6.465   0.754  0.0449  0.1127 -0.6158
 4651TIP3    H135512   5.705   6.471   0.690  1.2712 -1.2320 -2.2115
 4651TIP3    H235513   5.853   6.494   0.706  0.8568 -0.0674  0.5603
 4652TIP3   OH235514   1.491   6.234   2.424  0.0425  0.0793 -0.0345
 4652TIP3    H135515   1.473   6.162   2.364  1.0579 -1.5765  1.5624
 4652TIP3    H235516   1.523   6.304   2.367 -1.9273 -0.3077 -1.7445
 4653TIP3   OH235517   6.190   4.500   2.476 -0.3153 -0.1517 -0.1401
 4653TIP3    H135518   6.119   4.441   2.499  0.1501 -0.8569 -0.4946
 4653TIP3    H235519   6.215   4.540   2.560 -1.7934  0.8939 -0.1555
 4654TIP3   OH235520   5.085   1.710   4.671  0.0789 -0.4277  0.1733
 4654TIP3    H135521   5.036   1.628   4.675  2.1895 -1.7770 -0.2834
 4654TIP3    H235522   5.080   1.738   4.580  0.8572 -1.0475 -0.0709
 4655TIP3   OH235523   4.525   0.588   1.168 -0.2336  0.3344 -0.2026
 4655TIP3    H135524   4.525   0.581   1.264  0.4474  0.2144 -0.2051
 4655TIP3    H235525   4.465   0.519   1.139  0.9383 -0.8388  0.0729
 4656TIP3   OH235526   6.458   0.671   2.239 -0.2866 -0.3693  0.0312
 4656TIP3    H135527   6.413   0.708   2.164 -0.6826  0.5124  0.6805
 4656TIP3    H235528   6.402   0.692   2.314 -0.0766 -1.5343  0.5425
 4657TIP3   OH235529   0.631   0.589   3.661 -0.4950 -0.4228 -0.3357
 4657TIP3    H135530   0.586   0.531   3.722  0.9094 -1.1853  0.0383
 4657TIP3    H235531   0.598   0.566   3.575 -0.1433 -1.6262 -0.1638
 4658TIP3   OH235532   6.328   4.016   0.929 -0.4829  0.3429 -0.0687
 4658TIP3    H135533   6.332   4.111   0.937 -1.3179  0.3633  0.2005
 4658TIP3    H235534   6.250   3.999   0.876  0.1788 -0.1628 -0.9251
 4659TIP3   OH235535   6.284   5.299   2.570  0.5134  0.2325  0.0187
 4659TIP3    H135536   6.281   5.203   2.572  2.8469  0.1199  0.6542
 4659TIP3    H235537   6.277   5.320   2.477  2.1558 -0.7049 -0.3531
 4660TIP3   OH235538   5.806   3.231   3.830  0.2932  0.1724 -0.0663
 4660TIP3    H135539   5.736   3.295   3.842  0.2401  0.1531 -0.2673
 4660TIP3    H235540   5.787   3.191   3.745 -0.5158 -1.1560  0.6930
 4661TIP3   OH235541   4.914   5.025   1.181 -0.2756  0.2366  0.2570
 4661TIP3    H135542   4.906   5.066   1.267  0.2173  0.9997 -0.0478
 4661TIP3    H235543   5.007   5.002   1.174 -0.8355 -2.9333  1.2831
 4662TIP3   OH235544   5.852   0.251   0.558  0.1185  0.3132  0.0539
 4662TIP3    H135545   5.787   0.295   0.504 -1.3914 -2.2089 -0.3315
 4662TIP3    H235546   5.815   0.254   0.647 -0.0988 -0.3283 -0.0108
 4663TIP3   OH235547   5.259   0.931   4.369 -1.1030 -0.8214 -0.6301
 4663TIP3    H135548   5.242   0.871   4.442  0.8377  0.5569  1.0366
 4663TIP3    H235549   5.174   0.970   4.350 -1.7316 -1.5528  0.5644
 4664TIP3   OH235550   6.784   0.156   1.690  0.4765  0.1645 -0.0187
 4664TIP3    H135551   6.790   0.116   1.777  0.1820 -0.7218 -0.3961
 4664TIP3    H235552   6.728   0.232   1.702  0.8097  0.3090  0.6597
 4665TIP3   OH235553   3.830   1.256   0.741 -0.9536 -0.2203 -0.1623
 4665TIP3    H135554   3.789   1.188   0.688  2.5579 -1.7165 -1.2602
 4665TIP3    H235555   3.814   1.337   0.692 -0.2466 -1.1631 -2.0612
 4666TIP3   OH235556   6.094   1.066   1.113 -0.3837 -0.4365  0.3774
 4666TIP3    H135557   6.016   1.119   1.130 -0.8329 -1.1064  0.4109
 4666TIP3    H235558   6.118   1.089   1.023 -1.7017 -1.5813 -0.2975
 4667TIP3   OH235559   1.093   4.943   0.177 -0.1972 -0.1760  0.3082
 4667TIP3    H135560   1.009   4.902   0.197 -0.0898 -1.7869 -2.1361
 4667TIP3    H235561   1.073   5.009   0.111  0.1066  1.5825  1.8827
 4668TIP3   OH235562   6.095   6.176   1.966 -0.6901  0.7340  0.0452
 4668TIP3    H135563   6.017   6.150   1.916 -1.1719  1.2640  0.5129
 4668TIP3    H235564   6.077   6.265   1.995 -0.5822  0.3138  1.4917
 4669TIP3   OH235565   0.534   6.346   4.153  0.1118  0.4332  0.3911
 4669TIP3    H135566   0.456   6.337   4.208  0.3760  1.7920  1.0393
 4669TIP3    H235567   0.599   6.289   4.195 -0.2955 -0.1130  0.2925
 4670TIP3   OH235568   0.395   5.374   3.605 -0.7570 -0.3278  0.1347
 4670TIP3    H135569   0.446   5.348   3.529 -0.9676  0.4749 -0.2950
 4670TIP3    H235570   0.448   5.348   3.680  0.2044  0.3107 -0.3005
 4671TIP3   OH235571   0.813   2.499   3.427 -0.8055 -0.1503 -0.6676
 4671TIP3    H135572   0.835   2.409   3.449  2.5266  1.1883  2.5634
 4671TIP3    H235573   0.717   2.501   3.427 -1.2302 -2.7971  4.4790
 4672TIP3   OH235574   2.008   6.773   0.199 -0.0562 -0.2037  1.0270
 4672TIP3    H135575   2.065   6.843   0.168 -0.3901 -0.5898 -0.5414
 4672TIP3    H235576   1.920   6.800   0.174 -0.0712 -1.7230 -0.7364
 4673TIP3   OH235577   3.204   5.444   1.464  0.3194  0.2237 -0.4283
 4673TIP3    H135578   3.187   5.533   1.496  0.9381  0.7782 -1.5763
 4673TIP3    H235579   3.156   5.387   1.524 -3.0054  1.4820 -1.6773
 4674TIP3   OH235580   5.844   2.239   1.900 -0.2195 -0.8198 -0.3237
 4674TIP3    H135581   5.918   2.300   1.890 -0.0190 -1.0361 -0.1863
 4674TIP3    H235582   5.776   2.291   1.943 -0.5963 -0.2737 -1.5195
 4675TIP3   OH235583   3.218   6.478   3.414 -0.4462 -0.1089 -0.5989
 4675TIP3    H135584   3.130   6.441   3.421 -0.7532  0.6846 -0.0990
 4675TIP3    H235585   3.277   6.407   3.441 -1.0742 -0.0020  1.1899
 4676TIP3   OH235586   0.341   6.024   0.968 -0.0617  0.2688  0.7896
 4676TIP3    H135587   0.333   6.114   0.938 -1.2691  0.3640  1.3384
 4676TIP3    H235588   0.273   6.014   1.034  0.4128 -0.8883  1.1437
 4677TIP3   OH235589   1.452   6.015   0.225 -0.2178  0.5322 -0.4215
 4677TIP3    H135590   1.445   5.966   0.143 -0.6879  1.7688 -1.1506
 4677TIP3    H235591   1.395   5.968   0.286  1.0722 -1.1080 -0.3970
 4678TIP3   OH235592   5.960   1.894   8.485  0.4734  0.0653 -0.1620
 4678TIP3    H135593   6.000   1.810   8.465  1.2143  0.7445 -1.7485
 4678TIP3    H235594   5.878   1.894   8.436  1.7143  1.2487 -2.4060
 4679TIP3   OH235595   1.131   0.371   3.084  0.0133  0.4381  0.0281
 4679TIP3    H135596   1.069   0.421   3.137 -0.0761  2.4779 -1.8530
 4679TIP3    H235597   1.168   0.436   3.024  2.4037 -1.1438 -0.3470
 4680TIP3   OH235598   3.008   2.167   3.660  0.0363 -0.2324 -0.4187
 4680TIP3    H135599   3.041   2.134   3.743  0.3144 -0.6349 -0.6833
 4680TIP3    H235600   2.988   2.088   3.609 -1.3807  0.0030 -0.2512
 4681TIP3   OH235601   0.552   3.985   1.696 -0.5262 -0.0103 -0.4015
 4681TIP3    H135602   0.594   3.997   1.611 -0.3359 -1.1224 -0.4807
 4681TIP3    H235603   0.624   3.996   1.759 -0.8997  2.1101 -0.2669
 4682TIP3   OH235604   5.729   6.471   1.576  0.5243  0.4027  0.2454
 4682TIP3    H135605   5.753   6.388   1.535 -0.7163 -0.5974  1.4482
 4682TIP3    H235606   5.802   6.492   1.634  1.7414  1.2153 -1.4813
 4683TIP3   OH235607   3.709   3.771   2.706  0.4565 -0.2295 -0.4975
 4683TIP3    H135608   3.693   3.823   2.627  1.1022 -0.9549 -1.1146
 4683TIP3    H235609   3.798   3.794   2.733  0.4767 -0.4734 -0.3538
 4684TIP3   OH235610   5.019   4.695   2.582  0.6777 -0.1040  0.0394
 4684TIP3    H135611   5.014   4.749   2.503  0.3562 -1.3200 -0.8011
 4684TIP3    H235612   4.974   4.747   2.649 -1.8603 -0.3126 -1.3493
 4685TIP3   OH235613   6.683   5.495   3.038  0.3271  0.4747  0.3206
 4685TIP3    H135614   6.744   5.433   3.077  0.4255  0.4597  0.1430
 4685TIP3    H235615   6.724   5.581   3.052  1.3671  0.3361 -1.5218
 4686TIP3   OH235616   6.254   0.786   0.736  0.5305  0.5313  0.0136
 4686TIP3    H135617   6.253   0.733   0.656 -1.5761  1.5799 -0.7380
 4686TIP3    H235618   6.182   0.752   0.788  0.3430  1.4251  0.3584
 4687TIP3   OH235619   4.355   2.733   1.361  0.1906 -0.2530 -0.3537
 4687TIP3    H135620   4.394   2.647   1.375 -0.4083 -0.2962  1.3010
 4687TIP3    H235621   4.393   2.788   1.429 -1.6812 -0.0086  0.5683
 4688TIP3   OH235622   0.454   2.973   3.092  0.1871  0.5661  0.6803
 4688TIP3    H135623   0.482   3.005   3.006 -0.7168  0.1311  0.2170
 4688TIP3    H235624   0.502   3.028   3.155  1.4091  0.4180 -0.0839
 4689TIP3   OH235625   0.082   5.308   3.865 -0.0293  0.1131  0.7010
 4689TIP3    H135626   0.086   5.335   3.956 -0.6383  1.9827  0.2032
 4689TIP3    H235627   0.167   5.268   3.849  1.3066  2.5156  1.2993
 4690TIP3   OH235628   1.939   5.576   0.449 -0.2460 -0.5364  0.0152
 4690TIP3    H135629   1.951   5.645   0.383 -0.4697 -1.6050 -1.1798
 4690TIP3    H235630   2.017   5.583   0.504 -1.4610  2.3739  1.6063
 4691TIP3   OH235631   4.194   4.165   3.729 -0.1182  0.7980  0.1401
 4691TIP3    H135632   4.110   4.200   3.761 -0.1664  1.4319 -0.6719
 4691TIP3    H235633   4.169   4.097   3.667 -0.0390  1.4724 -0.6372
 4692TIP3   OH235634   2.059   4.090   4.843  0.3531 -0.1697  0.3904
 4692TIP3    H135635   2.114   4.012   4.832  1.3215  0.1939  2.2201
 4692TIP3    H235636   2.121   4.161   4.861 -0.5551  0.8987 -0.5809
 4693TIP3   OH235637   1.499   5.353   2.718  0.2007  0.7855 -0.0895
 4693TIP3    H135638   1.580   5.401   2.699  1.3894 -1.7430 -2.0862
 4693TIP3    H235639   1.529   5.272   2.759 -1.4396  0.2849  0.1777
 4694TIP3   OH235640   6.414   3.853   2.768  0.4544  0.4726  0.2838
 4694TIP3    H135641   6.367   3.934   2.788  1.4107  0.7577  1.4837
 4694TIP3    H235642   6.345   3.786   2.762 -0.4408  1.4943 -1.6507
 4695TIP3   OH235643   4.344   1.095   2.265 -0.5214  0.4505 -0.0528
 4695TIP3    H135644   4.263   1.080   2.315 -0.0028  0.7825  0.9100
 4695TIP3    H235645   4.399   1.147   2.324  1.1483 -1.3368  0.0733
 4696TIP3   OH235646   3.230   0.249   4.381  0.5460 -0.5535  0.6519
 4696TIP3    H135647   3.306   0.243   4.323  1.0890  0.8563  1.1647
 4696TIP3    H235648   3.200   0.340   4.370  1.6861  0.3064  3.7859
 4697TIP3   OH235649   6.384   1.071   3.279 -0.5877  0.0681  0.4623
 4697TIP3    H135650   6.345   1.124   3.209  0.2336  2.1263  1.4767
 4697TIP3    H235651   6.312   1.056   3.341 -0.7388  0.3151  0.3478
 4698TIP3   OH235652   3.948   3.500   2.032 -0.4570  0.3078 -0.8770
 4698TIP3    H135653   3.905   3.430   1.982  1.8831 -0.4287 -1.9911
 4698TIP3    H235654   4.033   3.464   2.056  0.0553  2.1090  0.2068
 4699TIP3   OH235655   2.684   1.687   2.992  0.4638 -0.5856  0.1157
 4699TIP3    H135656   2.755   1.749   3.011  0.6926 -0.7234 -0.2768
 4699TIP3    H235657   2.729   1.605   2.970  0.2411 -0.3283 -1.4489
 4700TIP3   OH235658   3.908   5.814   2.947 -0.1015 -0.3247 -0.1492
 4700TIP3    H135659   3.854   5.834   3.023  1.0569  0.2860  0.5421
 4700TIP3    H235660   3.992   5.854   2.966  0.0590  0.3367 -2.0104
 4701TIP3   OH235661   0.966   6.550   2.696  0.5643  0.7908  0.8743
 4701TIP3    H135662   0.950   6.464   2.734  0.7670  0.7899  0.9577
 4701TIP3    H235663   1.030   6.535   2.627  0.3991  0.8347  0.7100
 4702TIP3   OH235664   2.188   5.889   4.718 -0.2612  0.1795  0.1083
 4702TIP3    H135665   2.128   5.831   4.765 -1.8043  1.2720 -0.3877
 4702TIP3    H235666   2.248   5.831   4.672 -1.2210 -0.9912  0.2885
 4703TIP3   OH235667   5.940   0.854   3.927  0.4635 -0.1182 -0.1932
 4703TIP3    H135668   6.024   0.819   3.956  1.2463  1.5670 -0.3317
 4703TIP3    H235669   5.959   0.945   3.901 -1.1562 -0.0720 -1.3791
 4704TIP3   OH235670   5.173   2.873   2.719  0.2944  0.1505  0.0168
 4704TIP3    H135671   5.152   2.905   2.631  2.0086  1.5047  0.0493
 4704TIP3    H235672   5.126   2.932   2.778  0.5993  0.3851  0.0271
 4705TIP3   OH235673   3.330   5.575   2.050  0.5387 -0.2381 -0.2787
 4705TIP3    H135674   3.421   5.579   2.081  1.6015  0.6664 -3.1645
 4705TIP3    H235675   3.279   5.610   2.122  2.6875  0.9513  0.7803
 4706TIP3   OH235676   0.436   4.485   1.450 -0.6268  0.6614  0.5930
 4706TIP3    H135677   0.377   4.489   1.526 -0.5052  0.9454  0.6722
 4706TIP3    H235678   0.432   4.393   1.423 -2.4139  0.9816 -0.4185
 4707TIP3   OH235679   0.311   3.623   0.620  0.1795 -0.0986 -0.1070
 4707TIP3    H135680   0.312   3.528   0.613 -1.0296 -0.1299 -0.1073
 4707TIP3    H235681   0.294   3.640   0.713 -1.8285  0.0682 -0.4750
 4708TIP3   OH235682   1.586   3.248   0.281 -0.0152  0.4323 -0.2265
 4708TIP3    H135683   1.506   3.212   0.243  0.6426 -0.7868 -0.5003
 4708TIP3    H235684   1.642   3.265   0.206  0.4515  0.1100  0.0486
 4709TIP3   OH235685   5.326   6.145   1.244 -0.1782  0.1417  0.0330
 4709TIP3    H135686   5.257   6.115   1.185  1.3029 -0.6531 -1.4149
 4709TIP3    H235687   5.373   6.212   1.193  1.9319 -1.4694 -0.3072
 4710TIP3   OH235688   3.161   5.182   0.687  0.0936  0.4508 -0.0834
 4710TIP3    H135689   3.197   5.260   0.730  0.1183  1.1092 -1.2667
 4710TIP3    H235690   3.075   5.211   0.656  0.6863  0.4525 -1.7883
 4711TIP3   OH235691   4.114   6.327   3.487 -0.3747  0.6600  0.1939
 4711TIP3    H135692   4.192   6.272   3.495 -0.7462  0.0087 -0.4726
 4711TIP3    H235693   4.040   6.266   3.496 -0.8703  1.5395  2.7430
 4712TIP3   OH235694   2.218   3.542   1.831  0.4482 -0.5133 -0.1876
 4712TIP3    H135695   2.185   3.597   1.901  0.4735  1.3149 -1.5396
 4712TIP3    H235696   2.304   3.512   1.862  0.8142  0.9271  0.2623
 4713TIP3   OH235697   4.579   6.279   0.833 -0.6892  0.9626  0.0615
 4713TIP3    H135698   4.674   6.274   0.820 -0.7919 -1.3081 -0.2086
 4713TIP3    H235699   4.549   6.345   0.771  0.5366  0.5119 -1.0495
 4714TIP3   OH235700   5.759   4.861   4.249 -1.0843  0.2251  0.2531
 4714TIP3    H135701   5.805   4.815   4.179 -0.1990 -0.7748  1.4333
 4714TIP3    H235702   5.670   4.826   4.246 -1.1660  0.4840 -0.6005
 4715TIP3   OH235703   2.509   3.485   0.677  0.0515  0.2242  0.2653
 4715TIP3    H135704   2.537   3.568   0.716 -0.3535  1.1014 -1.2049
 4715TIP3    H235705   2.423   3.504   0.641 -0.8020 -1.3541  1.3750
 4716TIP3   OH235706   0.212   1.034   1.816  0.0794 -0.1119 -0.1443
 4716TIP3    H135707   0.229   1.096   1.887  0.2382  1.9898 -1.9233
 4716TIP3    H235708   0.298   1.001   1.791 -0.0057 -1.1072  0.8100
 4717TIP3   OH235709   0.578   3.289   0.082  0.3018 -0.2601 -0.4625
 4717TIP3    H135710   0.635   3.306   0.007  0.1992  1.4259 -0.2084
 4717TIP3    H235711   0.530   3.209   0.059  1.6404 -0.8336 -1.3400
 4718TIP3   OH235712   5.979   6.462   2.623  0.0111  0.0107 -0.3761
 4718TIP3    H135713   5.947   6.550   2.645 -0.3860 -0.4522  0.9968
 4718TIP3    H235714   6.069   6.476   2.593 -0.4810  1.0181 -1.4456
 4719TIP3   OH235715   0.700   4.740   3.256  0.7960  0.0605 -0.2042
 4719TIP3    H135716   0.699   4.811   3.320 -0.8839 -1.0626  1.1074
 4719TIP3    H235717   0.766   4.679   3.290  1.1223  0.2515 -0.4865
 4720TIP3   OH235718   4.708   1.118   2.425  0.8971 -0.0133  0.5166
 4720TIP3    H135719   4.751   1.127   2.510 -1.1085  1.6294  1.4396
 4720TIP3    H235720   4.718   1.204   2.384 -3.1850  1.2460  1.7195
 4721TIP3   OH235721   3.795   3.180   4.036 -0.2961  0.1256  0.4400
 4721TIP3    H135722   3.873   3.234   4.039 -0.7265  0.7395  2.6247
 4721TIP3    H235723   3.822   3.100   3.992  0.7945  1.4209 -1.3228
 4722TIP3   OH235724   5.164   6.702   4.797 -0.0802 -0.1583 -0.3869
 4722TIP3    H135725   5.176   6.795   4.820 -0.7749 -0.5551  1.7707
 4722TIP3    H235726   5.071   6.686   4.808 -0.1894 -0.8333 -2.0285
 4723TIP3   OH235727   6.497   6.143   4.008  0.0975 -0.1478 -0.4041
 4723TIP3    H135728   6.476   6.233   3.983  0.1699  0.2837  1.0255
 4723TIP3    H235729   6.563   6.151   4.077  1.1493 -1.3458 -1.2143
 4724TIP3   OH235730   1.397   3.081   0.160  0.4301  0.5573 -0.0079
 4724TIP3    H135731   1.458   3.038   0.100  0.7527 -0.9558  1.3075
 4724TIP3    H235732   1.312   3.072   0.118  0.2472 -2.7121  0.7172
 4725TIP3   OH235733   0.789   2.965   3.281 -0.5522 -0.0131 -0.3194
 4725TIP3    H135734   0.767   2.885   3.233  0.0585  0.0986 -0.8083
 4725TIP3    H235735   0.747   3.035   3.230 -2.2716 -0.1203  0.8804
 4726TIP3   OH235736   0.073   2.527   3.581  0.9107  0.0244 -0.2572
 4726TIP3    H135737   0.082   2.528   3.676  1.6707 -1.7718 -0.2727
 4726TIP3    H235738   0.027   2.608   3.560 -1.1699 -0.5109  1.8441
 4727TIP3   OH235739   5.205   5.844   1.032  0.2122  0.0192  0.0116
 4727TIP3    H135740   5.199   5.823   1.125  0.9894 -1.6135 -0.2762
 4727TIP3    H235741   5.155   5.775   0.989 -1.2878  1.5030 -0.7538
 4728TIP3   OH235742   6.727   4.985   1.872  0.6085  0.3894 -0.6406
 4728TIP3    H135743   6.787   5.057   1.852 -0.4480  1.7940  0.9331
 4728TIP3    H235744   6.784   4.914   1.902  1.5548  1.3314 -0.1458
 4729TIP3   OH235745   1.640   3.382   2.123 -0.6378  0.0505 -0.0118
 4729TIP3    H135746   1.678   3.315   2.065  0.3101  0.1913  0.4324
 4729TIP3    H235747   1.611   3.451   2.063 -0.9428 -0.4169 -0.4171
 4730TIP3   OH235748   6.586   0.295   3.403 -0.4149  0.1831  0.4222
 4730TIP3    H135749   6.629   0.218   3.439 -1.3119 -0.4862  0.1048
 4730TIP3    H235750   6.608   0.366   3.464 -0.9484 -0.6807  1.6535
 4731TIP3   OH235751   0.200   1.541   4.392 -0.1813  0.4013  0.1802
 4731TIP3    H135752   0.265   1.611   4.391 -1.6218  1.7864  0.2640
 4731TIP3    H235753   0.171   1.536   4.483  1.0225 -1.4325  0.5207
 4732TIP3   OH235754   6.493   1.763   1.595 -0.4028 -0.3485  0.1821
 4732TIP3    H135755   6.400   1.751   1.579 -0.4273  2.6787 -3.4105
 4732TIP3    H235756   6.536   1.711   1.527  0.3994  0.3576  0.1393
 4733TIP3   OH235757   4.215   6.479   0.482 -0.4932 -0.1083  0.2065
 4733TIP3    H135758   4.150   6.412   0.459 -0.2652 -0.1082 -0.4834
 4733TIP3    H235759   4.213   6.540   0.407  0.6165 -0.3496 -0.0310
 4734TIP3   OH235760   4.913   5.508   2.421 -0.0254  0.1527  0.0858
 4734TIP3    H135761   4.994   5.463   2.445  0.6445  0.2067 -1.8855
 4734TIP3    H235762   4.923   5.595   2.458 -1.0438 -0.9918  3.3677
 4735TIP3   OH235763   0.174   4.228   1.937  0.4920 -0.4169 -0.4687
 4735TIP3    H135764   0.221   4.229   2.020 -1.7988  1.7062  0.9420
 4735TIP3    H235765   0.082   4.236   1.961 -0.2377  0.8351 -3.2111
 4736TIP3   OH235766   1.227   3.322   2.683 -0.1373  0.2456  0.2001
 4736TIP3    H135767   1.279   3.290   2.758 -1.5089 -3.3592 -0.1728
 4736TIP3    H235768   1.290   3.330   2.612  0.5651 -0.0552  0.7758
 4737TIP3   OH235769   2.307   5.679   4.117  0.3486 -0.7219  0.2885
 4737TIP3    H135770   2.329   5.743   4.185  0.0154 -0.1778 -0.1139
 4737TIP3    H235771   2.344   5.597   4.149  0.5258 -0.3899  0.9484
 4738TIP3   OH235772   2.760   1.398   4.540 -0.1459 -0.1550  0.2087
 4738TIP3    H135773   2.717   1.466   4.489 -0.9088  0.0980  1.1462
 4738TIP3    H235774   2.797   1.444   4.616  0.2756 -0.6257  0.2943
 4739TIP3   OH235775   0.325   3.772   0.260 -0.2032  0.6452  0.6235
 4739TIP3    H135776   0.392   3.744   0.322 -1.1258 -0.3271  1.2400
 4739TIP3    H235777   0.353   3.858   0.231  0.8957  0.5971  1.4590
 4740TIP3   OH235778   4.926   1.395   4.196 -0.5742 -0.6381 -0.1531
 4740TIP3    H135779   4.993   1.425   4.257 -2.5685  0.0510  1.8320
 4740TIP3    H235780   4.902   1.308   4.228  0.0260 -1.3197 -1.4705
 4741TIP3   OH235781   6.546   2.107   3.262  0.1608 -0.2306  0.0532
 4741TIP3    H135782   6.625   2.055   3.274 -0.5191 -0.9763  1.5452
 4741TIP3    H235783   6.479   2.044   3.234 -0.5444 -0.0951  1.3720
 4742TIP3   OH235784   5.520   3.083   8.747 -0.3227 -0.2574 -0.5693
 4742TIP3    H135785   5.565   3.139   8.810 -1.6806  1.1806 -0.8111
 4742TIP3    H235786   5.584   3.069   8.677  0.5316 -0.2178  0.1901
 4743TIP3   OH235787   1.488   0.264   3.743 -0.0964 -0.1485  0.1506
 4743TIP3    H135788   1.547   0.297   3.810 -0.2820  0.5674 -0.0358
 4743TIP3    H235789   1.546   0.230   3.675  0.1013  0.2895  0.0990
 4744TIP3   OH235790   4.072   3.198   1.410  0.7712  0.4401  0.2634
 4744TIP3    H135791   4.066   3.102   1.415 -0.2114  0.5307  1.2375
 4744TIP3    H235792   4.029   3.220   1.328 -0.9462  0.1672  1.0563
 4745TIP3   OH235793   1.510   4.960   4.446 -0.0830 -0.3735  0.5919
 4745TIP3    H135794   1.448   4.943   4.517 -0.7763 -4.0662 -0.7102
 4745TIP3    H235795   1.455   4.974   4.369  0.7087  1.7018  0.3310
 4746TIP3   OH235796   6.585   4.759   2.645  0.5294  0.1776 -0.2699
 4746TIP3    H135797   6.568   4.755   2.551 -1.0345  2.6916 -0.1930
 4746TIP3    H235798   6.514   4.709   2.685 -1.4274  2.6590 -0.3615
 4747TIP3   OH235799   2.290   2.349   8.510 -0.2441  0.0501 -0.4306
 4747TIP3    H135800   2.368   2.402   8.524 -0.3597  0.1676 -0.2322
 4747TIP3    H235801   2.315   2.261   8.541  0.4774 -0.4166 -2.2242
 4748TIP3   OH235802   6.607   4.092   0.896 -0.7844 -0.6364 -0.5215
 4748TIP3    H135803   6.679   4.040   0.932  0.5887  0.0590 -2.1367
 4748TIP3    H235804   6.530   4.035   0.905  0.1340 -1.8069  0.3059
 4749TIP3   OH235805   0.856   3.042   8.554 -0.5366 -0.1328 -0.4632
 4749TIP3    H135806   0.897   3.050   8.640 -1.9990  1.6747  0.1116
 4749TIP3    H235807   0.926   3.065   8.492  0.3306 -0.7683  0.2556
 4750TIP3   OH235808   0.946   5.549   3.562 -0.1339 -0.1962 -0.2162
 4750TIP3    H135809   0.900   5.620   3.606 -0.8582 -0.0197 -1.2218
 4750TIP3    H235810   0.894   5.471   3.582 -0.6324 -0.0699 -0.9691
 4751TIP3   OH235811   3.574   5.761   1.550 -0.2604  0.4609  0.0632
 4751TIP3    H135812   3.542   5.674   1.572 -1.2869  0.8412  0.1519
 4751TIP3    H235813   3.520   5.820   1.603  0.8291  1.1277  0.4691
 4752TIP3   OH235814   1.579   6.356   1.248 -0.3068 -0.3446  0.1005
 4752TIP3    H135815   1.537   6.430   1.291 -2.2255 -1.1977 -0.1759
 4752TIP3    H235816   1.575   6.377   1.155 -1.3347 -0.9738 -0.0202
 4753TIP3   OH235817   1.068   6.268   1.893 -0.1004  0.1290  0.6300
 4753TIP3    H135818   1.076   6.363   1.898  0.2059  0.1759 -0.3853
 4753TIP3    H235819   1.135   6.242   1.829 -1.1230 -0.6174 -0.1747
 4754TIP3   OH235820   5.773   3.647   1.019  0.4997 -0.2274 -0.8600
 4754TIP3    H135821   5.844   3.662   1.080  0.2812 -0.9926 -0.4027
 4754TIP3    H235822   5.697   3.689   1.059  0.1188 -1.6169 -0.0760
 4755TIP3   OH235823   3.194   1.521   2.925 -0.3085  0.2604  0.4674
 4755TIP3    H135824   3.123   1.582   2.903 -0.7782  0.2216  1.8208
 4755TIP3    H235825   3.155   1.434   2.916 -0.6418  0.2487  1.7836
 4756TIP3   OH235826   0.338   2.365   3.377 -0.6168 -0.2575  0.7137
 4756TIP3    H135827   0.397   2.290   3.372  0.4892  0.5960  0.3388
 4756TIP3    H235828   0.391   2.438   3.345 -2.4441  0.2274 -1.4399
 4757TIP3   OH235829   6.267   2.218   0.446  0.0959 -0.0739  0.0296
 4757TIP3    H135830   6.357   2.231   0.416 -0.2635  1.0641 -0.5910
 4757TIP3    H235831   6.213   2.263   0.381 -0.7349  2.6123  2.3744
 4758TIP3   OH235832   3.675   2.163   0.856 -0.2325  0.6863  0.1438
 4758TIP3    H135833   3.611   2.095   0.879 -1.0229  1.1077 -0.7502
 4758TIP3    H235834   3.749   2.146   0.915 -2.1952  1.8053  3.1703
 4759TIP3   OH235835   3.606   2.293   1.983 -0.3101  0.2589 -0.4408
 4759TIP3    H135836   3.586   2.200   1.984 -0.6598  0.3304 -0.5384
 4759TIP3    H235837   3.524   2.335   1.954 -0.5147  0.6849  0.6943
 4760TIP3   OH235838   2.480   1.578   1.473 -0.7985  0.3430 -0.2037
 4760TIP3    H135839   2.396   1.564   1.431 -0.9528 -0.5049  0.3686
 4760TIP3    H235840   2.532   1.501   1.451 -0.0706  0.9792 -0.7709
 4761TIP3   OH235841   6.425   2.561   1.501  0.4460 -0.8858 -0.0287
 4761TIP3    H135842   6.486   2.616   1.549 -0.6492  0.1819  0.2031
 4761TIP3    H235843   6.470   2.541   1.419  1.1607 -0.2629  0.2016
 4762TIP3   OH235844   3.948   2.968   3.014 -0.4551  0.0962 -0.0213
 4762TIP3    H135845   4.018   2.939   3.072 -0.6368  0.5272  0.4219
 4762TIP3    H235846   3.879   2.902   3.025 -0.2849 -0.1018 -0.1412
 4763TIP3   OH235847   1.915   1.147   3.427  0.1631  0.1405 -0.2257
 4763TIP3    H135848   1.829   1.123   3.462  0.0699  0.9416  0.1050
 4763TIP3    H235849   1.975   1.086   3.469  0.0070  0.8585  1.0836
 4764TIP3   OH235850   1.756   2.115   2.413  0.6324  0.2154 -0.3798
 4764TIP3    H135851   1.775   2.134   2.505 -1.6663 -3.8707  1.2318
 4764TIP3    H235852   1.778   2.023   2.402 -0.1870  0.2766 -3.6578
 4765TIP3   OH235853   1.542   5.270   3.111  0.1643  0.1478  0.4891
 4765TIP3    H135854   1.534   5.185   3.155  0.9064 -0.2874 -0.1913
 4765TIP3    H235855   1.451   5.299   3.099 -0.0704  0.3433  2.3846
 4766TIP3   OH235856   2.691   1.106   4.275 -0.0655  0.1897 -0.7070
 4766TIP3    H135857   2.671   1.158   4.353 -2.1491  0.9272 -1.6725
 4766TIP3    H235858   2.632   1.030   4.282 -0.7766  0.6132 -1.8758
 4767TIP3   OH235859   1.630   0.029   3.693 -0.0777 -0.1481 -0.7600
 4767TIP3    H135860   1.560  -0.035   3.675 -0.1196 -0.4996  0.5323
 4767TIP3    H235861   1.710  -0.024   3.696  0.0492  0.0407 -0.8349
 4768TIP3   OH235862   4.523   2.920   1.513 -0.5354 -0.1706 -0.2474
 4768TIP3    H135863   4.536   2.832   1.548  2.6678  0.7381  1.2476
 4768TIP3    H235864   4.553   2.914   1.422 -0.6174 -0.6917 -0.2404
 4769TIP3   OH235865   0.792   4.531   2.682 -0.5192 -0.4645 -0.1027
 4769TIP3    H135866   0.736   4.537   2.759  1.2983  2.4924  1.1114
 4769TIP3    H235867   0.798   4.437   2.665 -2.1894 -1.1323  2.4058
 4770TIP3   OH235868   0.616   3.365   4.034 -0.0578  0.1509  0.1033
 4770TIP3    H135869   0.663   3.283   4.020 -0.8856 -0.3939  0.4762
 4770TIP3    H235870   0.590   3.363   4.126 -2.3404 -0.3937 -0.5039
 4771TIP3   OH235871   2.235   4.995   3.289  0.1921 -1.0653  0.6150
 4771TIP3    H135872   2.171   5.016   3.357 -0.4240 -0.8550 -0.0151
 4771TIP3    H235873   2.220   4.903   3.270 -0.1993 -0.9236  0.2007
 4772TIP3   OH235874   1.361   2.747   3.556  0.0835 -0.5596 -0.3322
 4772TIP3    H135875   1.305   2.786   3.488  0.3096 -2.7650 -1.8848
 4772TIP3    H235876   1.383   2.661   3.522 -0.7160 -2.2880  3.0830
 4773TIP3   OH235877   0.572   5.617   3.854 -0.2409 -0.6579  0.1099
 4773TIP3    H135878   0.536   5.537   3.815 -1.5252 -0.0166 -0.0931
 4773TIP3    H235879   0.585   5.676   3.780  0.1156 -0.4668  0.3227
 4774TIP3   OH235880   4.337   0.041   3.820 -0.1036 -0.3780  0.6849
 4774TIP3    H135881   4.266  -0.019   3.844 -0.1098 -0.7389 -0.1867
 4774TIP3    H235882   4.312   0.073   3.733 -0.3932  1.3619  1.3808
 4775TIP3   OH235883   5.147   4.161   4.048  0.2815  0.2453  0.3773
 4775TIP3    H135884   5.178   4.071   4.061  1.5889  0.7614  0.9742
 4775TIP3    H235885   5.100   4.158   3.965  2.8940 -0.3871 -1.1842
 4776TIP3   OH235886   3.368   0.765   2.272  0.0356  0.3436  0.6271
 4776TIP3    H135887   3.287   0.812   2.294  0.2726  0.0697  2.1271
 4776TIP3    H235888   3.409   0.819   2.204 -2.0489 -0.2019 -1.1908
 4777TIP3   OH235889   2.965   2.948   1.050  0.5964  0.1267 -0.2220
 4777TIP3    H135890   2.879   2.915   1.027 -0.6133  0.3264  3.5106
 4777TIP3    H235891   3.026   2.893   1.000 -1.5605 -2.1794 -0.4744
 4778TIP3   OH235892   5.787   5.682   4.957  0.0853  0.4929  0.6718
 4778TIP3    H135893   5.786   5.677   5.053  0.0071  0.9817  0.6966
 4778TIP3    H235894   5.800   5.774   4.938  2.9406  0.0645  0.2034
 4779TIP3   OH235895   4.086   1.287   0.624  0.5423  0.0311 -0.4563
 4779TIP3    H135896   4.089   1.217   0.558  0.0738  0.0171 -0.4651
 4779TIP3    H235897   4.004   1.271   0.672 -1.1706  2.3095 -2.3664
 4780TIP3   OH235898   0.248   1.262   1.967 -0.4272  0.3913  0.1643
 4780TIP3    H135899   0.303   1.331   1.929  2.0959 -1.2854  0.4711
 4780TIP3    H235900   0.301   1.226   2.038 -1.7437 -1.6615  0.1896
 4781TIP3   OH235901   3.220   4.129   2.558 -0.5642  0.0737  0.6964
 4781TIP3    H135902   3.287   4.127   2.489 -1.3176  0.7888 -0.0761
 4781TIP3    H235903   3.255   4.072   2.627  0.3942 -0.3310 -0.0994
 4782TIP3   OH235904   1.992   5.099   1.929 -0.2604  0.0263  0.6921
 4782TIP3    H135905   1.931   5.112   1.856  1.0188  0.7514 -0.2878
 4782TIP3    H235906   1.955   5.025   1.978 -1.8226  0.3402  0.0414
 4783TIP3   OH235907   6.682   6.658   0.505 -0.1694  0.4034  0.3132
 4783TIP3    H135908   6.683   6.601   0.582  0.4762  0.6524  0.5004
 4783TIP3    H235909   6.630   6.734   0.531  2.6554  2.0408  1.6968
 4784TIP3   OH235910   5.790   0.462   3.905  0.1761  0.2202 -0.2349
 4784TIP3    H135911   5.857   0.476   3.838  1.1010  0.5392  0.7249
 4784TIP3    H235912   5.707   0.468   3.858  0.8085  0.2876 -1.3702
 4785TIP3   OH235913   5.570   4.401   4.680  0.5076  0.2428  0.2762
 4785TIP3    H135914   5.490   4.453   4.685  1.1793  1.2875  0.2652
 4785TIP3    H235915   5.604   4.416   4.592 -0.3326 -1.8255 -0.4814
 4786TIP3   OH235916   2.805   0.800   0.373 -0.2180 -0.3597 -0.3327
 4786TIP3    H135917   2.803   0.705   0.365 -1.6904 -0.4599  0.7060
 4786TIP3    H235918   2.724   0.822   0.419  0.6239  1.2975  0.4764
 4787TIP3   OH235919   5.384   3.424   3.765  0.0520  0.4511 -0.2157
 4787TIP3    H135920   5.351   3.511   3.745  2.0717  0.8837 -2.0020
 4787TIP3    H235921   5.368   3.374   3.685  0.8697 -0.1963  0.0145
 4788TIP3   OH235922   5.490   5.870   5.299  0.0658  0.0641 -0.3382
 4788TIP3    H135923   5.397   5.854   5.313 -0.4598  1.3665 -2.1276
 4788TIP3    H235924   5.527   5.782   5.284 -1.3695 -0.2612 -2.2835
 4789TIP3   OH235925   2.532   5.147   4.769  0.5846  0.1413 -0.3728
 4789TIP3    H135926   2.599   5.213   4.753  0.6002  0.1715 -0.1923
 4789TIP3    H235927   2.578   5.064   4.769  1.2780  0.3730  3.1822
 4790TIP3   OH235928   3.748   2.782   1.036 -0.2783  0.2425  0.4177
 4790TIP3    H135929   3.805   2.807   0.964 -0.1795 -0.0343  0.3984
 4790TIP3    H235930   3.678   2.730   0.995  0.3401 -0.8084  0.6427
 4791TIP3   OH235931   4.097   2.155   3.380  0.2070  0.1306 -0.2568
 4791TIP3    H135932   4.104   2.095   3.453  0.4142  0.4878  0.0223
 4791TIP3    H235933   4.003   2.174   3.373  0.1718 -0.0183 -0.1780
 4792TIP3   OH235934   2.740   5.697   1.018  0.2803 -0.1431 -0.3737
 4792TIP3    H135935   2.781   5.677   0.934  0.5529  0.7212 -0.4634
 4792TIP3    H235936   2.671   5.760   0.995 -0.5143 -0.9078 -0.1115
 4793TIP3   OH235937   2.449   6.293   0.091  0.5460 -0.0668 -0.2413
 4793TIP3    H135938   2.385   6.247   0.036  2.3368 -2.7080 -0.2820
 4793TIP3    H235939   2.533   6.251   0.071  1.7193  0.7646  2.4652
 4794TIP3   OH235940   6.474   3.446   3.573  0.8991  0.0679 -0.2940
 4794TIP3    H135941   6.497   3.529   3.615  0.4409 -0.4650  1.0813
 4794TIP3    H235942   6.484   3.381   3.642 -0.3458 -0.7894 -0.8849
 4795TIP3   OH235943   5.644   5.365   3.441  0.1685 -0.2440  0.0898
 4795TIP3    H135944   5.599   5.403   3.517 -0.8385 -0.4413 -0.4066
 4795TIP3    H235945   5.597   5.399   3.365  3.0866  2.5660 -0.6703
 4796TIP3   OH235946   6.004   5.074   0.522 -0.3731  0.5107  0.0765
 4796TIP3    H135947   5.949   5.152   0.514 -1.4043  0.1469  2.7323
 4796TIP3    H235948   6.072   5.099   0.584 -0.8966 -0.7569  1.2068
 4797TIP3   OH235949   2.565   2.737   1.217  0.1777 -0.1908 -0.2374
 4797TIP3    H135950   2.557   2.804   1.285 -1.2682 -0.3136 -0.2579
 4797TIP3    H235951   2.481   2.738   1.172  0.5620 -1.1912 -1.0261
 4798TIP3   OH235952   6.190   0.474   3.079  0.0164  0.4760  0.4317
 4798TIP3    H135953   6.153   0.488   3.167 -0.9033  1.8205 -0.1357
 4798TIP3    H235954   6.226   0.559   3.055  0.5063  0.0454 -0.3912
 4799TIP3   OH235955   0.583   3.514   0.853  0.2799  0.1324  0.0775
 4799TIP3    H135956   0.593   3.420   0.842 -1.5883 -0.0579 -0.3264
 4799TIP3    H235957   0.577   3.527   0.948 -1.9928 -0.5234  0.0901
 4800TIP3   OH235958   3.941   4.271   3.823 -0.0034  0.6548 -0.0802
 4800TIP3    H135959   3.942   4.254   3.917 -1.3673  1.0145  0.0327
 4800TIP3    H235960   3.986   4.355   3.813  0.9423  0.1859  0.1281
 4801TIP3   OH235961   0.189   6.619   4.402 -0.0818  0.0953 -0.5059
 4801TIP3    H135962   0.221   6.701   4.366  1.6944 -1.5572 -3.0499
 4801TIP3    H235963   0.104   6.605   4.361 -0.7401  0.9772  0.5207
 4802TIP3   OH235964   1.485   3.370   8.785  0.1363  0.0469  0.0384
 4802TIP3    H135965   1.544   3.411   8.848  0.1200 -0.1683  0.1936
 4802TIP3    H235966   1.444   3.444   8.739  1.2223  0.1894 -0.7322
 4803TIP3   OH235967   4.017   3.296   1.163  0.2423  0.2568 -0.3970
 4803TIP3    H135968   3.923   3.279   1.153 -0.2297  1.2628  1.7643
 4803TIP3    H235969   4.033   3.375   1.111 -0.1189  0.1559 -0.6688
 4804TIP3   OH235970   2.712   3.006   0.725 -0.5335  0.0746 -0.3162
 4804TIP3    H135971   2.700   3.101   0.730 -0.5986  0.0074  1.1051
 4804TIP3    H235972   2.719   2.977   0.816  0.0280 -1.2242 -0.7455
 4805TIP3   OH235973   2.369   1.663   2.555 -0.4925 -0.3077 -0.1679
 4805TIP3    H135974   2.320   1.720   2.495 -0.6758 -1.6641 -1.3720
 4805TIP3    H235975   2.362   1.706   2.640  1.5340  2.8059 -1.4038
 4806TIP3   OH235976   3.941   2.977   0.599 -0.6310  0.2636 -0.0337
 4806TIP3    H135977   3.947   3.062   0.554 -1.1137  0.1434 -0.3312
 4806TIP3    H235978   3.935   3.000   0.692 -1.5231  0.5879 -0.1642
 4807TIP3   OH235979   0.882   4.447   1.590 -0.8051  0.2138  0.3360
 4807TIP3    H135980   0.964   4.413   1.555 -0.6521  1.2312 -0.3522
 4807TIP3    H235981   0.815   4.410   1.533 -0.7861 -0.2927  0.6447
 4808TIP3   OH235982   3.033   1.842   1.275 -0.4796  0.3962 -0.1962
 4808TIP3    H135983   2.942   1.836   1.248  0.0272  0.3049 -1.9803
 4808TIP3    H235984   3.031   1.894   1.355 -2.5550 -3.4091  2.5578
 4809TIP3   OH235985   2.498   3.980   3.294  0.0641 -0.0264 -0.4462
 4809TIP3    H135986   2.565   3.982   3.226  0.3584 -0.3654 -0.1733
 4809TIP3    H235987   2.416   3.964   3.247 -0.2922  3.0794 -1.1145
 4810TIP3   OH235988   5.855   1.499   2.685  0.0673 -0.7637 -0.2386
 4810TIP3    H135989   5.909   1.439   2.737 -0.3961 -0.9071  0.0897
 4810TIP3    H235990   5.778   1.448   2.662 -0.9170  0.0484  1.0776
 4811TIP3   OH235991   4.884   2.934   3.220  0.0746  0.0274 -0.9549
 4811TIP3    H135992   4.850   2.845   3.217 -0.1500  0.0876 -0.2294
 4811TIP3    H235993   4.968   2.927   3.267 -0.7894  0.4485  0.7180
 4812TIP3   OH235994   5.761   3.519   2.291 -0.0309 -0.0465 -0.1345
 4812TIP3    H135995   5.731   3.609   2.306 -0.9602 -0.2692 -0.5822
 4812TIP3    H235996   5.851   3.518   2.324 -0.0405  1.0200 -0.0409
 4813TIP3   OH235997   5.812   5.485   2.541  0.0317  0.3988  0.8520
 4813TIP3    H135998   5.744   5.428   2.577  0.0800  0.5502  1.1830
 4813TIP3    H235999   5.894   5.441   2.562  0.0618  0.5007  0.9478
 4814TIP3   OH236000   3.260   4.410   1.741 -0.1126  0.9952  0.1790
 4814TIP3    H136001   3.306   4.487   1.708  0.8163  0.5062  0.2721
 4814TIP3    H236002   3.230   4.435   1.828  2.6213  0.4076  1.3987
 4815TIP3   OH236003   0.713   0.321   2.244 -0.0608  0.3676  0.0358
 4815TIP3    H136004   0.709   0.227   2.226 -0.5509  0.3940  0.0181
 4815TIP3    H236005   0.742   0.326   2.335  0.5998  0.2123 -0.1535
 4816TIP3   OH236006   4.665   1.383   3.936  0.1309 -0.2266 -0.1704
 4816TIP3    H136007   4.750   1.342   3.950 -0.1779 -0.5631  0.8472
 4816TIP3    H236008   4.611   1.351   4.009 -1.0312 -0.4721 -1.1107
 4817TIP3   OH236009   6.329   2.202   1.318 -0.4577  0.0351  0.4178
 4817TIP3    H136010   6.402   2.248   1.276  0.1937 -1.7836 -0.5536
 4817TIP3    H236011   6.352   2.201   1.411 -0.1816  1.0904  0.3738
 4818TIP3   OH236012   4.135   2.842   0.859 -0.4936 -0.3792  0.2232
 4818TIP3    H136013   4.194   2.892   0.804  1.4304 -1.6984  0.9737
 4818TIP3    H236014   4.115   2.763   0.808  0.3076 -1.0256  0.8803
 4819TIP3   OH236015   6.787   5.418   5.081 -0.3475 -0.3337 -0.1094
 4819TIP3    H136016   6.831   5.336   5.105  0.9703  0.1044 -0.9214
 4819TIP3    H236017   6.822   5.482   5.143 -0.1968 -0.0770 -0.4576
 4820TIP3   OH236018   2.225   1.651   1.995  0.2599  0.3271  0.2601
 4820TIP3    H136019   2.291   1.684   2.055 -0.5832  0.9248  0.8831
 4820TIP3    H236020   2.266   1.576   1.952  1.9463  1.6634 -0.6012
 4821TIP3   OH236021   3.706   0.911   3.158 -0.1595  0.0939 -0.1211
 4821TIP3    H136022   3.764   0.852   3.110 -0.3596  1.2311 -1.8483
 4821TIP3    H236023   3.760   0.942   3.231  1.2926  0.7256 -1.3949
 4822TIP3   OH236024   5.858   6.163   3.457 -0.0496 -0.2652 -0.0084
 4822TIP3    H136025   5.834   6.252   3.432 -0.8281 -0.2133  0.8595
 4822TIP3    H236026   5.915   6.175   3.534 -1.1236 -0.5383  0.8496
 4823TIP3   OH236027   6.385   4.062   1.629  0.0945  0.0448  0.1315
 4823TIP3    H136028   6.414   4.112   1.705  0.4962  0.4723 -0.2938
 4823TIP3    H236029   6.333   3.991   1.665 -0.0758  0.4911  0.7786
 4824TIP3   OH236030   5.342   2.430   3.057 -0.2384 -0.0683 -0.2280
 4824TIP3    H136031   5.315   2.484   3.131  0.9042  2.0220 -1.2513
 4824TIP3    H236032   5.433   2.457   3.040  0.0552 -1.6508 -1.4038
 4825TIP3   OH236033   4.330   4.998   4.520  0.1164  0.4904 -0.0425
 4825TIP3    H136034   4.253   5.033   4.475 -1.0020  0.3651  1.6639
 4825TIP3    H236035   4.309   4.906   4.537  1.9691 -0.4300 -2.2246
 4826TIP3   OH236036   0.540   0.448   0.510  0.2671 -0.0965  0.2308
 4826TIP3    H136037   0.559   0.361   0.477 -0.1692  0.2707 -1.0253
 4826TIP3    H236038   0.601   0.506   0.464  0.3351  0.3164  0.8151
 4827TIP3   OH236039   2.244   1.529   1.328  0.1219 -0.3787  0.2403
 4827TIP3    H136040   2.264   1.440   1.357 -1.2237  0.1537  3.2240
 4827TIP3    H236041   2.152   1.525   1.300  0.3861 -0.1214 -0.7037
 4828TIP3   OH236042   1.756   5.234   4.860  0.1243  0.0861  0.3629
 4828TIP3    H136043   1.699   5.310   4.871 -1.6638 -0.4751 -3.4166
 4828TIP3    H236044   1.705   5.161   4.894 -0.0306 -0.0008 -0.0585
 4829TIP3   OH236045   0.510   3.770   4.058  0.2507  0.5314  0.6188
 4829TIP3    H136046   0.482   3.773   3.967 -1.2729  4.0568  1.0542
 4829TIP3    H236047   0.450   3.708   4.100 -0.2025  0.2458 -0.4226
 4830TIP3   OH236048   4.645   6.177   3.748 -0.0223  0.5408  0.0286
 4830TIP3    H136049   4.567   6.233   3.746 -0.0849  0.4462 -0.3357
 4830TIP3    H236050   4.611   6.088   3.740  0.1423  0.5227 -0.5412
 4831TIP3   OH236051   3.152   0.707   1.372  0.1028 -0.2985  0.0144
 4831TIP3    H136052   3.202   0.740   1.297  0.8745 -0.9783  0.2138
 4831TIP3    H236053   3.178   0.765   1.444 -0.6430  0.3584 -0.2327
 4832TIP3   OH236054   6.349   2.655   3.333  0.0536  0.0007  0.2573
 4832TIP3    H136055   6.256   2.647   3.311  0.4452 -0.7496 -1.2797
 4832TIP3    H236056   6.384   2.566   3.323  0.7518  0.0792  1.7826
 4833TIP3   OH236057   4.369   4.786   1.992  0.4304  0.4307  0.3301
 4833TIP3    H136058   4.283   4.749   1.969  0.1665  1.0293  0.3290
 4833TIP3    H236059   4.396   4.737   2.070 -0.2468  0.7178  0.7542
 4834TIP3   OH236060   0.852   5.346   3.923  1.1947 -0.2751  0.1375
 4834TIP3    H136061   0.915   5.318   3.857  1.2167 -2.1597  0.8780
 4834TIP3    H236062   0.877   5.435   3.945  1.7658  0.0453 -1.6928
 4835TIP3   OH236063   0.711   4.968   1.740  0.1203  0.9255 -0.2910
 4835TIP3    H136064   0.702   4.983   1.646 -0.6052 -0.2033 -0.4281
 4835TIP3    H236065   0.803   4.986   1.758  0.8420 -0.9684 -1.6808
 4836TIP3   OH236066   2.864   2.811   2.809  0.2323 -0.8041 -0.4093
 4836TIP3    H136067   2.773   2.783   2.803 -0.4963  1.5479 -1.8042
 4836TIP3    H236068   2.898   2.767   2.887 -2.8764  0.3014  1.7816
 4837TIP3   OH236069   5.881   3.777   4.400 -0.4846  0.4157  0.2037
 4837TIP3    H136070   5.787   3.796   4.402 -0.1816  2.0679  1.3523
 4837TIP3    H236071   5.909   3.788   4.491  1.0408  1.3054 -0.3261
 4838TIP3   OH236072   5.124   2.024   2.156 -0.5140  0.5713  1.0306
 4838TIP3    H136073   5.043   2.019   2.105  0.4512 -0.9945 -0.4636
 4838TIP3    H236074   5.144   2.118   2.159 -1.8588  0.8990  0.5805
 4839TIP3   OH236075   2.548   5.874   0.922  0.7157  0.6125  0.1931
 4839TIP3    H136076   2.571   5.920   0.841  0.1152 -0.7572 -0.7855
 4839TIP3    H236077   2.478   5.815   0.897 -0.1908  0.8767  1.9661
 4840TIP3   OH236078   6.558   4.634   3.807  0.4134 -0.6353 -0.8263
 4840TIP3    H136079   6.516   4.713   3.841 -0.3807 -0.6723 -1.6787
 4840TIP3    H236080   6.652   4.651   3.815  0.2617 -0.3839  0.7421
 4841TIP3   OH236081   3.715   4.195   3.462 -0.3474  0.8012  0.1884
 4841TIP3    H136082   3.665   4.277   3.460 -0.6367  0.6449  0.9973
 4841TIP3    H236083   3.649   4.126   3.468 -0.0372  0.6004  1.3638
 4842TIP3   OH236084   3.067   0.882   1.639  0.2387  0.4304 -0.0965
 4842TIP3    H136085   3.032   0.816   1.698 -0.4608  1.1679  0.3290
 4842TIP3    H236086   3.078   0.960   1.693 -0.2481  1.0708 -0.8919
 4843TIP3   OH236087   1.125   4.379   0.947  0.0814 -0.0996 -0.2564
 4843TIP3    H136088   1.181   4.306   0.973  1.2237  1.1200  0.8563
 4843TIP3    H236089   1.037   4.342   0.943  0.2822 -1.0878  2.4955
 4844TIP3   OH236090   2.411   3.783   4.186 -0.1928  0.4313  0.3369
 4844TIP3    H136091   2.423   3.751   4.276  0.8174 -0.9648 -0.2609
 4844TIP3    H236092   2.436   3.876   4.190 -2.2051  0.9805  1.9039
 4845TIP3   OH236093   4.159   6.652   4.291 -0.2893 -0.2651  0.6624
 4845TIP3    H136094   4.153   6.601   4.211  0.3986 -0.1668  0.5389
 4845TIP3    H236095   4.071   6.650   4.328 -0.4788 -0.7757  0.1930
 4846TIP3   OH236096   1.505   4.920   0.497 -0.3024 -0.0219 -0.2180
 4846TIP3    H136097   1.458   4.964   0.426 -1.1509  0.1986  0.4614
 4846TIP3    H236098   1.436   4.895   0.559  0.4935  0.5002  0.9089
 4847TIP3   OH236099   0.277   1.158   3.692  0.1109  0.4097  0.0316
 4847TIP3    H136100   0.232   1.110   3.624  1.7368 -1.0519 -0.0860
 4847TIP3    H236101   0.329   1.092   3.738  2.7229  2.0290 -0.3585
 4848TIP3   OH236102   0.563   3.167   3.268 -0.0782 -1.0645  0.0733
 4848TIP3    H136103   0.528   3.160   3.357  0.2945 -1.2374  0.2111
 4848TIP3    H236104   0.551   3.259   3.245 -2.4056 -1.4870 -0.6524
 4849TIP3   OH236105   2.555   3.983   4.317 -0.0306  0.0301  0.7435
 4849TIP3    H136106   2.616   3.916   4.348 -0.3239  0.1836  1.6875
 4849TIP3    H236107   2.588   4.064   4.355  0.6142  0.5228 -0.8065
 4850TIP3   OH236108   4.104   6.727   3.329  0.5191 -0.0443 -0.8049
 4850TIP3    H136109   4.052   6.807   3.325  0.3565 -0.0798  0.4504
 4850TIP3    H236110   4.045   6.658   3.299  1.0715  0.4534 -3.2968
 4851TIP3   OH236111   3.273   5.426   0.790  0.4225  0.2277  0.3374
 4851TIP3    H136112   3.244   5.476   0.866  0.4347  0.3553  0.2581
 4851TIP3    H236113   3.298   5.492   0.726  0.8997  0.1196  0.4067
 4852TIP3   OH236114   3.797   2.561   2.724 -0.1459 -0.3968 -0.0360
 4852TIP3    H136115   3.838   2.548   2.638  1.7147  1.8155  0.4239
 4852TIP3    H236116   3.753   2.478   2.742  0.4497 -1.3622 -2.5661
 4853TIP3   OH236117   6.627   0.459   3.613 -0.1294 -0.2952  0.0067
 4853TIP3    H136118   6.683   0.455   3.691  0.2264 -0.2278 -0.2465
 4853TIP3    H236119   6.555   0.399   3.633 -0.6454  0.5763  0.8605
 4854TIP3   OH236120   4.249   4.618   3.726  0.4238  0.5739  0.0525
 4854TIP3    H136121   4.203   4.569   3.658 -0.1721  0.9311  0.1882
 4854TIP3    H236122   4.218   4.579   3.808  0.3746  0.8041  0.1440
 4855TIP3   OH236123   6.277   0.406   0.958 -0.6271 -0.1032 -0.1922
 4855TIP3    H136124   6.289   0.317   0.925  0.2004 -0.6120  1.3410
 4855TIP3    H236125   6.201   0.400   1.017 -0.2381  0.0684  0.3353
 4856TIP3   OH236126   5.916   4.588   4.626  0.2070  0.2829  0.4444
 4856TIP3    H136127   5.901   4.561   4.717  2.2197  0.2761  0.8331
 4856TIP3    H236128   5.989   4.533   4.597  0.5229  1.2675 -0.6854
 4857TIP3   OH236129   5.236   3.770   1.813  0.0692 -0.1272  0.0497
 4857TIP3    H136130   5.325   3.756   1.844  0.2626  0.8860 -0.0150
 4857TIP3    H236131   5.233   3.862   1.788 -0.9650 -0.1712 -0.0523
 4858TIP3   OH236132   3.480   1.596   1.469  0.1805  0.1243 -0.5504
 4858TIP3    H136133   3.388   1.618   1.485  0.6545  0.8680  1.5522
 4858TIP3    H236134   3.482   1.559   1.381 -1.9478  1.1531 -1.0784
 4859TIP3   OH236135   2.514   2.360   1.959 -0.2947  0.2379  0.5901
 4859TIP3    H136136   2.492   2.437   1.907 -0.1029  0.0695  0.2589
 4859TIP3    H236137   2.466   2.372   2.041 -0.2528  0.7201  0.5484
 4860TIP3   OH236138   6.528   0.145   1.941 -0.3100 -0.2700 -1.2492
 4860TIP3    H136139   6.614   0.182   1.958  0.1151 -0.5120 -2.6858
 4860TIP3    H236140   6.494   0.197   1.868 -2.0513  0.8073  0.2451
 4861TIP3   OH236141   0.733   3.686   2.445 -0.6437 -0.1546 -0.2605
 4861TIP3    H136142   0.703   3.608   2.491  0.4232 -0.4054  0.0370
 4861TIP3    H236143   0.779   3.737   2.512 -1.3798  0.7681 -0.4329
 4862TIP3   OH236144   3.489   2.463   2.787  0.3340 -0.1401  0.2634
 4862TIP3    H136145   3.491   2.439   2.694  1.1423 -0.4865  0.3651
 4862TIP3    H236146   3.531   2.389   2.832  2.7036  1.3094  0.6057
 4863TIP3   OH236147   3.284   1.174   0.933 -0.0705 -0.2563  0.0958
 4863TIP3    H136148   3.199   1.148   0.898 -0.4693  0.7300  0.3201
 4863TIP3    H236149   3.275   1.165   1.028 -0.7319  2.0896  0.3155
 4864TIP3   OH236150   6.253   0.480   5.225  0.1747  0.1079 -0.3542
 4864TIP3    H136151   6.334   0.519   5.192  0.1611  0.7673  0.3592
 4864TIP3    H236152   6.183   0.533   5.186  0.0980 -0.1868 -0.6219
 4865TIP3   OH236153   0.289   4.077   0.753  0.5059 -0.2012 -0.3331
 4865TIP3    H136154   0.284   4.168   0.724 -0.7394  1.3477  3.9506
 4865TIP3    H236155   0.198   4.049   0.758  0.8477 -1.4932 -0.9169
 4866TIP3   OH236156   5.137   3.504   0.442 -0.4070  0.0156 -0.0672
 4866TIP3    H136157   5.176   3.427   0.483  1.8081  0.2462 -1.5858
 4866TIP3    H236158   5.152   3.492   0.348 -2.3148  1.1068 -0.5635
 4867TIP3   OH236159   5.025   3.995   1.168 -0.1293 -0.2320  0.0753
 4867TIP3    H136160   5.098   3.963   1.221 -0.9551 -1.0548  0.7551
 4867TIP3    H236161   5.007   4.083   1.202  0.7237  0.0944 -0.2975
 4868TIP3   OH236162   0.171   0.378   3.758 -0.0938 -0.0351 -0.2245
 4868TIP3    H136163   0.089   0.411   3.794  0.3092  0.3185  0.3865
 4868TIP3    H236164   0.212   0.331   3.831  0.3770  0.0343 -0.4386
 4869TIP3   OH236165   0.985   1.067   2.176 -0.6672  0.0555  0.7665
 4869TIP3    H136166   1.068   1.026   2.200  0.4494  1.5203 -0.3408
 4869TIP3    H236167   0.967   1.128   2.248  0.2791  1.1340  0.1351
 4870TIP3   OH236168   5.706   4.758   4.571 -0.2186 -0.6803 -0.1864
 4870TIP3    H136169   5.671   4.699   4.504 -0.1375 -1.3398  0.3408
 4870TIP3    H236170   5.763   4.703   4.625 -0.4188 -0.1992  0.5337
 4871TIP3   OH236171   4.657   5.805   2.239 -0.1036 -0.6931 -0.0200
 4871TIP3    H136172   4.629   5.753   2.314  0.5247 -2.8305 -1.1596
 4871TIP3    H236173   4.729   5.858   2.271 -1.3129  0.1452  1.3988
 4872TIP3   OH236174   0.029   5.818   4.941 -0.5257 -0.1466 -0.5312
 4872TIP3    H136175   0.023   5.863   5.025 -0.1170  3.3662 -2.1632
 4872TIP3    H236176  -0.060   5.818   4.907 -0.5942 -1.0136 -0.3670
 4873TIP3   OH236177   0.317   0.972   2.709  0.1634  0.3147  0.1901
 4873TIP3    H136178   0.264   0.981   2.788 -0.8340  0.2911 -0.4605
 4873TIP3    H236179   0.381   0.905   2.731 -0.6084 -0.2726  0.7243
 4874TIP3   OH236180   3.899   0.331   2.504 -0.2766 -0.1051  0.0480
 4874TIP3    H136181   3.927   0.316   2.414  1.2682 -0.0128  0.4777
 4874TIP3    H236182   3.910   0.246   2.547  2.4984  0.6079  0.9781
 4875TIP3   OH236183   1.674   0.094   1.805  0.0117 -0.0635 -0.1580
 4875TIP3    H136184   1.618   0.067   1.732  2.3511  1.8447 -2.8798
 4875TIP3    H236185   1.636   0.177   1.835 -0.5122 -0.4688  0.3240
 4876TIP3   OH236186   2.945   2.912   1.982  0.1072 -0.0363  0.1194
 4876TIP3    H136187   2.890   2.930   1.906 -0.8249 -0.3664  0.7066
 4876TIP3    H236188   2.941   2.992   2.035 -0.1117 -0.2013  0.3506
 4877TIP3   OH236189   2.361   4.411   1.237  0.1531  0.2069 -0.4801
 4877TIP3    H136190   2.429   4.425   1.303  0.5112  1.2256 -1.0436
 4877TIP3    H236191   2.326   4.325   1.257  2.0338 -0.6320 -0.5394
 4878TIP3   OH236192   6.477   3.770   3.055  0.6643 -0.6882  0.1047
 4878TIP3    H136193   6.396   3.720   3.049  0.8814 -0.9342 -1.0974
 4878TIP3    H236194   6.485   3.813   2.970  1.6737 -0.4677  0.2918
 4879TIP3   OH236195   5.874   5.301   0.476  0.2252  0.3121 -0.7795
 4879TIP3    H136196   5.859   5.395   0.481  0.5049  0.4291 -1.9336
 4879TIP3    H236197   5.786   5.263   0.476  0.0660  0.6638 -1.7258
 4880TIP3   OH236198   4.635   6.731   3.858  0.0283  0.3766  0.0063
 4880TIP3    H136199   4.557   6.786   3.854  0.2901  0.7774  0.3722
 4880TIP3    H236200   4.601   6.641   3.854 -0.4282  0.5540 -0.1202
 4881TIP3   OH236201   0.892   4.874   2.421  0.2869 -0.1972 -0.0464
 4881TIP3    H136202   0.856   4.823   2.348  0.0915 -0.4287  0.2087
 4881TIP3    H236203   0.955   4.933   2.380 -0.9703  0.8051 -0.6255
 4882TIP3   OH236204   3.596   0.329   2.402  0.1806 -0.0833 -0.0857
 4882TIP3    H136205   3.598   0.414   2.358 -0.1933 -0.5564 -1.0373
 4882TIP3    H236206   3.625   0.348   2.492  2.9051  0.6155 -1.0041
 4883TIP3   OH236207   2.784   6.161   0.941  0.4532  0.3201  0.1766
 4883TIP3    H136208   2.877   6.161   0.919 -0.1485 -1.5716 -3.0988
 4883TIP3    H236209   2.741   6.129   0.862 -3.0340  1.1676  1.5323
 4884TIP3   OH236210   5.434   6.189   2.730 -0.2493 -0.6681 -0.4213
 4884TIP3    H136211   5.342   6.176   2.707 -0.2818 -2.0371  0.3661
 4884TIP3    H236212   5.447   6.137   2.809  0.7208  1.0836  0.6397
 4885TIP3   OH236213   4.018   4.221   1.582 -0.3541 -0.2457  0.1430
 4885TIP3    H136214   4.098   4.176   1.553 -1.1101 -0.6250 -1.5028
 4885TIP3    H236215   3.996   4.279   1.509 -1.4729 -0.0027  0.6523
 4886TIP3   OH236216   0.820   0.373   1.617  0.1862 -0.1504 -0.2039
 4886TIP3    H136217   0.892   0.419   1.659 -0.6287  0.6522  0.3662
 4886TIP3    H236218   0.771   0.442   1.572 -1.5959 -0.2509  1.4375
 4887TIP3   OH236219   4.200   0.247   4.609 -0.0747 -0.4090  0.1615
 4887TIP3    H136220   4.238   0.252   4.521  2.8640  1.1353  1.3896
 4887TIP3    H236221   4.209   0.155   4.634  0.9742 -0.4685 -0.3822
 4888TIP3   OH236222   3.676   2.523   0.093  0.7018 -0.1816 -0.1013
 4888TIP3    H136223   3.720   2.458   0.038 -0.8566 -0.8659 -0.6121
 4888TIP3    H236224   3.726   2.604   0.081  0.5144 -0.3588 -2.4059
 4889TIP3   OH236225   2.785   4.139   4.168 -0.6596 -0.7031 -0.0531
 4889TIP3    H136226   2.855   4.142   4.103  0.4580  2.7491  1.1030
 4889TIP3    H236227   2.812   4.070   4.229  1.2391 -0.1757 -0.2187
 4890TIP3   OH236228   6.298   3.928   1.195 -0.2548  0.0746 -0.0964
 4890TIP3    H136229   6.308   3.966   1.108 -0.6905  0.9218  0.2126
 4890TIP3    H236230   6.386   3.897   1.218 -0.4539 -1.6822 -1.5012
 4891TIP3   OH236231   0.318   2.097   2.780 -0.0085  0.4974  0.5818
 4891TIP3    H136232   0.244   2.138   2.735 -0.2961 -0.3376  0.2780
 4891TIP3    H236233   0.326   2.145   2.862  0.3447  1.8698 -0.2248
 4892TIP3   OH236234   2.066   3.555   3.802 -0.1231  0.0582  0.2280
 4892TIP3    H136235   2.131   3.599   3.857 -1.5355  0.8727  1.3167
 4892TIP3    H236236   2.009   3.626   3.772 -0.7511 -0.6823 -0.3664
 4893TIP3   OH236237   6.331   6.293   3.824 -0.1191 -0.0275 -0.2946
 4893TIP3    H136238   6.242   6.329   3.825 -0.0138  0.2453 -0.5376
 4893TIP3    H236239   6.318   6.199   3.836 -0.3122  0.2267  1.7698
 4894TIP3   OH236240   3.271   4.887   3.968 -0.3410 -0.2365 -0.2323
 4894TIP3    H136241   3.320   4.969   3.961  0.7472 -0.8949 -0.5652
 4894TIP3    H236242   3.203   4.905   4.033 -1.5264  1.5815 -1.8596
 4895TIP3   OH236243   4.409   5.051   1.907 -0.3851 -0.1216  0.3663
 4895TIP3    H136244   4.400   4.957   1.924 -2.0280 -0.0776 -0.0904
 4895TIP3    H236245   4.381   5.092   1.989  1.9492 -0.0010  1.1771
 4896TIP3   OH236246   6.199   5.622   3.141  0.0437  0.1790  0.0630
 4896TIP3    H136247   6.275   5.578   3.102  0.4258  0.1794  0.7909
 4896TIP3    H236248   6.202   5.711   3.106  0.3985  0.1862  0.1099
 4897TIP3   OH236249   2.002   4.910   3.857 -0.3643  0.2598 -0.2463
 4897TIP3    H136250   1.924   4.894   3.910 -0.4282  1.8196  0.1531
 4897TIP3    H236251   2.061   4.958   3.914  0.4459  0.0906 -0.9168
 4898TIP3   OH236252   3.463   3.776   4.221 -0.4441  0.2701 -0.1523
 4898TIP3    H136253   3.421   3.693   4.244 -1.1638  0.4093 -0.9400
 4898TIP3    H236254   3.553   3.767   4.252 -1.0772  0.0320  1.7303
 4899TIP3   OH236255   4.098   3.204   3.870  0.5716 -0.0785  0.5187
 4899TIP3    H136256   4.066   3.117   3.895  2.6708 -0.3797  2.4394
 4899TIP3    H236257   4.064   3.262   3.939  0.4588  0.3677  0.0898
 4900TIP3   OH236258   4.820   0.968   3.570 -0.0931 -0.1761 -0.1172
 4900TIP3    H136259   4.771   0.994   3.648  0.9168 -0.2828  0.5749
 4900TIP3    H236260   4.783   1.021   3.499 -2.3614 -1.4923  0.0191
 4901TIP3   OH236261   0.072   4.654   2.412 -0.5571  0.2566  0.7917
 4901TIP3    H136262   0.027   4.738   2.414 -2.0724 -0.5119  1.5478
 4901TIP3    H236263   0.136   4.659   2.482 -0.4835  0.8584  0.6862
 4902TIP3   OH236264   2.060   2.893   3.997  0.2349  0.2260  0.2312
 4902TIP3    H136265   2.111   2.815   4.015  4.9019  3.0624  0.8960
 4902TIP3    H236266   2.086   2.918   3.908 -2.5603  0.2491 -0.6913
 4903TIP3   OH236267   4.336   1.087   0.423 -0.5396  0.3653  0.2112
 4903TIP3    H136268   4.302   1.088   0.333 -1.1246  1.5805  0.4262
 4903TIP3    H236269   4.318   0.998   0.454  0.4287 -0.3372 -1.1448
 4904TIP3   OH236270   3.006   5.918   1.407 -0.3467 -0.1416  0.4440
 4904TIP3    H136271   3.032   5.972   1.332 -0.1738 -1.6070 -0.6075
 4904TIP3    H236272   2.911   5.909   1.399 -0.9839  2.9802  2.7495
 4905TIP3   OH236273   5.974   0.616   1.694 -0.1334  0.5272  0.5272
 4905TIP3    H136274   6.054   0.624   1.643  0.6703 -1.0632  1.4846
 4905TIP3    H236275   5.976   0.527   1.729 -2.5937  0.2534  0.1340
 4906TIP3   OH236276   0.709   3.505   3.536  0.0906 -0.4489  0.3780
 4906TIP3    H136277   0.666   3.515   3.452 -1.5989  1.0133  1.3491
 4906TIP3    H236278   0.735   3.594   3.561 -0.1822 -0.7274  1.7551
 4907TIP3   OH236279   5.042   1.301   2.298 -0.1068 -0.3873  0.3675
 4907TIP3    H136280   4.957   1.341   2.315  0.8349  1.8870  0.0423
 4907TIP3    H236281   5.078   1.284   2.385 -0.9223 -1.5224  0.5083
 4908TIP3   OH236282   0.015   6.634   1.687  0.1814  0.1148  0.2925
 4908TIP3    H136283   0.042   6.643   1.778 -0.9588  0.0400  0.6519
 4908TIP3    H236284  -0.066   6.685   1.681  1.9572  3.0129 -1.5161
 4909TIP3   OH236285   2.598   4.212   0.661  0.1127 -0.4812  0.8975
 4909TIP3    H136286   2.615   4.228   0.568 -0.3726 -1.2278  0.6666
 4909TIP3    H236287   2.536   4.279   0.686 -0.9153 -1.1666  0.2809
 4910TIP3   OH236288   2.002   5.708   2.805  0.4314 -0.1150  0.3446
 4910TIP3    H136289   2.039   5.763   2.736 -1.1030 -0.1941 -0.6077
 4910TIP3    H236290   1.967   5.770   2.869 -0.1620  0.0300 -0.1008
 4911TIP3   OH236291   0.285   4.490   4.419  0.4790 -0.6455 -0.0116
 4911TIP3    H136292   0.332   4.408   4.430  1.0356 -0.7092 -2.4370
 4911TIP3    H236293   0.199   4.475   4.459  1.4716 -1.4629  1.9406
 4912TIP3   OH236294   3.901   4.416   1.416 -0.2199  0.1628 -0.3971
 4912TIP3    H136295   3.929   4.478   1.484 -0.6052  0.0878 -0.1672
 4912TIP3    H236296   3.806   4.414   1.423 -0.2720  0.2395 -1.0192
 4913TIP3   OH236297   6.110   2.435   4.766 -0.5001  0.6030 -0.2295
 4913TIP3    H136298   6.075   2.431   4.855  1.2141 -2.5631  0.4436
 4913TIP3    H236299   6.070   2.361   4.721  2.0519 -0.6651 -0.6256
 4914TIP3   OH236300   6.528   6.315   4.501  0.4264  0.3161 -0.1638
 4914TIP3    H136301   6.513   6.398   4.546 -0.5404 -0.0025  0.1392
 4914TIP3    H236302   6.592   6.269   4.557  0.6019  0.6590 -0.0808
 4915TIP3   OH236303   1.954   4.253   1.929 -0.3640 -0.3118  0.2961
 4915TIP3    H136304   1.935   4.187   1.996  0.7416 -1.0467 -0.0895
 4915TIP3    H236305   1.988   4.328   1.978  0.3169 -0.7985  0.5815
 4916TIP3   OH236306   4.886   4.114   2.939 -0.2957  0.0689 -0.0770
 4916TIP3    H136307   4.923   4.161   2.864 -2.8066  0.3138 -1.2545
 4916TIP3    H236308   4.945   4.040   2.952  0.3079  0.0952 -2.2178
 4917TIP3   OH236309   5.069   6.779   1.519 -0.3046  0.7103 -0.0766
 4917TIP3    H136310   5.040   6.865   1.487  0.5835  0.6980 -0.9484
 4917TIP3    H236311   5.116   6.741   1.445  0.7524  0.1606  0.8608
 4918TIP3   OH236312   0.562   0.513   3.974 -0.3373 -0.7531  0.1711
 4918TIP3    H136313   0.614   0.592   3.980 -0.6623 -0.5986  5.0535
 4918TIP3    H236314   0.621   0.442   4.001 -0.8768 -1.6989 -1.0222
 4919TIP3   OH236315   4.884   2.954   2.447 -0.6558 -0.0133 -0.2244
 4919TIP3    H136316   4.975   2.982   2.456 -0.6273  0.0489 -0.6902
 4919TIP3    H236317   4.844   2.977   2.531 -0.4668  0.8308 -0.3521
 4920TIP3   OH236318   1.955   5.463   0.933 -0.3819  0.1749  0.2785
 4920TIP3    H136319   1.978   5.541   0.882  1.8783 -0.0321  0.8588
 4920TIP3    H236320   1.987   5.390   0.880 -0.5288 -0.2102  0.7156
 4921TIP3   OH236321   2.381   0.794   1.609 -0.3825 -0.0924  0.3042
 4921TIP3    H136322   2.444   0.724   1.590  2.3976  1.8119  1.7791
 4921TIP3    H236323   2.356   0.779   1.700 -0.2669  0.4325  0.4259
 4922TIP3   OH236324   3.471   4.785   1.631  0.0101  0.7377  0.2961
 4922TIP3    H136325   3.497   4.724   1.562  0.0761  0.2301  0.7552
 4922TIP3    H236326   3.529   4.860   1.620  0.3061  0.4783  0.0554
 4923TIP3   OH236327   2.972   6.766   1.484 -0.1557 -0.4546 -0.5163
 4923TIP3    H136328   3.037   6.830   1.456 -0.7642  1.0281  1.2992
 4923TIP3    H236329   3.023   6.698   1.529  0.2959 -0.1781 -0.6089
 4924TIP3   OH236330   3.925   0.726   3.052  0.1327  0.0607 -0.3335
 4924TIP3    H136331   3.998   0.665   3.045 -0.5045 -0.6146 -1.3533
 4924TIP3    H236332   3.916   0.744   3.145  0.6515 -1.0122 -0.0728
 4925TIP3   OH236333   6.677   1.841   2.292 -0.6350  0.0769 -0.1586
 4925TIP3    H136334   6.729   1.761   2.302  0.0169  0.7011  2.2674
 4925TIP3    H236335   6.734   1.901   2.245 -0.1808 -0.1180  0.1349
 4926TIP3   OH236336   2.849   4.743   3.375 -0.1133 -0.3117  0.1878
 4926TIP3    H136337   2.785   4.751   3.446 -1.4905  0.5760 -1.0924
 4926TIP3    H236338   2.933   4.761   3.416 -0.6481 -1.5162  1.9310
 4927TIP3   OH236339   6.276   5.326   3.312 -0.3173  0.1325  0.1482
 4927TIP3    H136340   6.291   5.339   3.218  1.7443 -0.4278  0.3587
 4927TIP3    H236341   6.331   5.392   3.354 -2.6879  1.7071  1.0080
 4928TIP3   OH236342   5.449   5.652   3.717  0.3763 -0.1151 -0.0875
 4928TIP3    H136343   5.383   5.687   3.777 -0.0970  1.7704 -1.6177
 4928TIP3    H236344   5.400   5.591   3.661  0.1631  0.4216 -0.4909
 4929TIP3   OH236345   1.362   0.664   1.112  0.0632  0.0642  0.0666
 4929TIP3    H136346   1.306   0.602   1.066  0.8778  0.2207 -1.1772
 4929TIP3    H236347   1.361   0.742   1.057 -0.2776  0.8835  1.1866
 4930TIP3   OH236348   6.508   3.584   0.749  0.6563 -0.1692 -0.1482
 4930TIP3    H136349   6.440   3.578   0.816  1.1455 -1.1398  0.2868
 4930TIP3    H236350   6.461   3.609   0.669  0.1362  1.4436  0.6371
 4931TIP3   OH236351   0.196   4.556   1.590  0.3311 -0.1533 -1.0394
 4931TIP3    H136352   0.193   4.650   1.603  1.2408 -0.0643 -1.3515
 4931TIP3    H236353   0.146   4.519   1.662 -1.0841  0.6080 -1.5876
 4932TIP3   OH236354   4.952   4.574   2.311 -0.1381  0.1259 -0.3913
 4932TIP3    H136355   4.882   4.586   2.248 -2.0348  0.9921  1.7360
 4932TIP3    H236356   4.979   4.663   2.334  0.9772 -0.1833 -0.4356
 4933TIP3   OH236357   3.579   2.241   2.913 -0.3230  0.9926  0.2297
 4933TIP3    H136358   3.638   2.241   2.989  0.9485  2.9595 -0.6773
 4933TIP3    H236359   3.492   2.233   2.951  0.3932 -4.5258  1.5144
 4934TIP3   OH236360   4.967   1.391   1.068  0.3198  0.3560 -0.1154
 4934TIP3    H136361   4.972   1.429   1.156 -1.2812  0.9955 -0.2736
 4934TIP3    H236362   4.877   1.407   1.040  0.2384 -1.5614 -1.1026
 4935TIP3   OH236363   2.963   4.260   0.527 -0.5604  0.1001 -0.0673
 4935TIP3    H136364   3.027   4.330   0.539 -1.2970  0.9388 -0.8630
 4935TIP3    H236365   2.905   4.292   0.459 -0.3096 -1.7317 -1.2155
 4936TIP3   OH236366   2.634   3.256   0.758 -0.0444  0.2141 -0.0588
 4936TIP3    H136367   2.559   3.211   0.798 -0.6184  0.1170 -1.2005
 4936TIP3    H236368   2.599   3.340   0.730  0.7657  0.9763  1.1034
 4937TIP3   OH236369   1.935   6.092   3.961  0.2938 -0.6332 -0.1011
 4937TIP3    H136370   1.932   6.184   3.989  1.3706 -0.2039 -1.2863
 4937TIP3    H236371   1.845   6.061   3.973  0.2718  0.0422  1.9450
 4938TIP3   OH236372   5.983   4.660   3.620 -0.2213  0.3769  0.6607
 4938TIP3    H136373   6.036   4.614   3.555 -1.9805 -0.1997 -0.4483
 4938TIP3    H236374   6.044   4.721   3.661  1.8367 -1.7815  1.0758
 4939TIP3   OH236375   4.807   6.322   1.190  0.9179 -0.2857  0.3032
 4939TIP3    H136376   4.736   6.336   1.127  0.4797 -2.9753  0.0823
 4939TIP3    H236377   4.762   6.311   1.274  1.2730  0.2080  0.5650
 4940TIP3   OH236378   4.187   2.973   2.116  0.8397  0.9687 -0.2194
 4940TIP3    H136379   4.260   2.993   2.175 -0.0485  0.1782  1.2009
 4940TIP3    H236380   4.220   2.902   2.060  1.2597  0.8263  0.2031
 4941TIP3   OH236381   1.312   2.370   0.453  0.4637 -0.2758 -0.3106
 4941TIP3    H136382   1.384   2.345   0.395  1.1377  1.1094 -0.1099
 4941TIP3    H236383   1.243   2.306   0.434  1.9538 -2.0443 -0.0364
 4942TIP3   OH236384   4.010   2.864   1.563 -0.1142  0.1671  0.1362
 4942TIP3    H136385   3.924   2.862   1.604  0.3310  1.2056  1.1891
 4942TIP3    H236386   3.993   2.893   1.473 -1.0218 -1.3498 -0.2117
 4943TIP3   OH236387   6.434   5.334   3.053 -0.0741 -0.5319  0.6870
 4943TIP3    H136388   6.508   5.395   3.059 -0.1008 -0.2468 -1.2923
 4943TIP3    H236389   6.474   5.248   3.066  0.4334 -0.3125  0.6256
 4944TIP3   OH236390   0.237   4.930   0.909  0.5148 -0.7368 -0.1413
 4944TIP3    H136391   0.188   4.877   0.973  1.5596 -0.8572  0.5940
 4944TIP3    H236392   0.257   5.010   0.956  0.7580 -0.5625 -0.5450
 4945TIP3   OH236393   4.542   1.284   4.210  0.0586  0.4399  0.6625
 4945TIP3    H136394   4.466   1.300   4.266 -0.9257  0.8279 -0.7364
 4945TIP3    H236395   4.603   1.355   4.232  0.4263 -0.3568  2.4017
 4946TIP3   OH236396   4.774   2.099   2.996  0.1096  0.3238  0.1491
 4946TIP3    H136397   4.754   2.008   2.975 -0.1093  0.4602 -0.2371
 4946TIP3    H236398   4.848   2.093   3.057 -0.1022 -0.1199  0.3679
 4947TIP3   OH236399   2.963   4.290   1.958  0.5111 -0.8867 -0.1643
 4947TIP3    H136400   3.056   4.307   1.973  0.4610 -0.1692 -0.6631
 4947TIP3    H236401   2.957   4.195   1.956  1.0895 -0.9621  0.7793
 4948TIP3   OH236402   4.488   4.012   3.787  0.2066 -0.2389 -0.0986
 4948TIP3    H136403   4.568   4.053   3.820  0.6921 -0.6182 -0.7860
 4948TIP3    H236404   4.426   4.084   3.779  1.1841  0.4876 -1.7263
 4949TIP3   OH236405   4.175   3.741   3.711  0.1036 -0.2964  0.1474
 4949TIP3    H136406   4.240   3.749   3.780  0.9227 -2.7706 -0.2290
 4949TIP3    H236407   4.110   3.680   3.747 -0.8572  0.4323 -0.3086
 4950TIP3   OH236408   6.128   1.110   1.598  0.0527  0.1054 -0.1082
 4950TIP3    H136409   6.199   1.161   1.558 -0.9494  0.1816 -1.8764
 4950TIP3    H236410   6.087   1.065   1.524 -0.9191 -0.9851  1.0608
 4951TIP3   OH236411   3.769   5.574   0.639 -0.0909 -0.8128 -0.1656
 4951TIP3    H136412   3.858   5.539   0.640 -0.1073 -0.8647  0.9239
 4951TIP3    H236413   3.773   5.650   0.582  0.9635 -0.0352  0.9027
 4952TIP3   OH236414   1.079   0.997   0.442  0.2027 -0.1545  0.6582
 4952TIP3    H136415   1.090   0.922   0.500  1.0328 -0.1893  0.4768
 4952TIP3    H236416   1.115   0.968   0.358  1.7742  0.8526  0.9347
 4953TIP3   OH236417   1.703   3.506   0.071  0.1471 -0.0734  0.2236
 4953TIP3    H136418   1.675   3.549  -0.010  0.4631  0.1275  0.2195
 4953TIP3    H236419   1.745   3.575   0.122 -1.5080  0.1946  1.2866
 4954TIP3   OH236420   6.234   5.955   1.041  0.3232 -0.0857  0.0878
 4954TIP3    H136421   6.239   6.023   1.107 -1.5132 -0.2019  0.3951
 4954TIP3    H236422   6.183   5.885   1.082  0.3949 -0.7665 -0.9437
 4955TIP3   OH236423   1.101   5.883   1.516  0.0964  0.1379  0.9463
 4955TIP3    H136424   1.149   5.957   1.478 -0.0852 -0.7753 -1.1669
 4955TIP3    H236425   1.147   5.805   1.485 -1.0900 -0.6952  1.1940
 4956TIP3   OH236426   2.442   4.000   3.548  0.4934 -0.7318 -0.4782
 4956TIP3    H136427   2.398   3.928   3.594  0.8365 -1.0562 -0.6513
 4956TIP3    H236428   2.466   3.962   3.463 -0.0102 -0.1815 -0.8701
 4957TIP3   OH236429   0.815   0.001   1.988 -0.2829 -0.2969 -0.2817
 4957TIP3    H136430   0.856  -0.063   2.045 -1.3623 -1.9349 -1.2660
 4957TIP3    H236431   0.734   0.025   2.033 -0.5077 -0.6055 -0.5225
 4958TIP3   OH236432   2.884   3.457   3.764  0.3235  0.1266  0.0107
 4958TIP3    H136433   2.843   3.402   3.831 -1.0527 -0.3898 -1.1808
 4958TIP3    H236434   2.822   3.529   3.751  0.4160  0.0655 -0.8862
 4959TIP3   OH236435   3.883   1.935   2.928  0.1251  0.0226 -0.2639
 4959TIP3    H136436   3.856   1.988   3.003  0.8927  1.1852 -0.7712
 4959TIP3    H236437   3.978   1.931   2.935  0.0839 -1.4788 -0.1456
 4960TIP3   OH236438   0.680   5.134   3.412 -0.2931 -0.0389 -0.0167
 4960TIP3    H136439   0.767   5.107   3.379 -0.2939  0.1697 -0.1884
 4960TIP3    H236440   0.646   5.055   3.455  1.1968  0.6473  2.6487
 4961TIP3   OH236441   3.800   5.892   1.481 -0.1153 -0.2030  0.0040
 4961TIP3    H136442   3.855   5.833   1.429 -0.4805  1.1739 -2.0083
 4961TIP3    H236443   3.726   5.837   1.508 -0.9332 -0.4928 -2.6234
 4962TIP3   OH236444   2.482   5.318   1.082  0.0100 -0.1549 -0.5751
 4962TIP3    H136445   2.512   5.298   0.993  0.0994  1.5197 -0.9558
 4962TIP3    H236446   2.401   5.367   1.069 -1.2059 -1.7758  0.3629
 4963TIP3   OH236447   5.931   4.307   0.137 -0.2883 -0.3458  0.1284
 4963TIP3    H136448   5.996   4.377   0.135  0.7988 -1.3113  0.5722
 4963TIP3    H236449   5.866   4.336   0.200  2.7689 -1.8713  4.4614
 4964TIP3   OH236450   5.023   0.632   3.285 -0.6359 -0.1414 -0.1198
 4964TIP3    H136451   4.947   0.574   3.298  0.4837 -2.0125 -1.4383
 4964TIP3    H236452   5.089   0.597   3.344 -0.0306 -0.0201 -0.7204
 4965TIP3   OH236453   4.125   0.861   2.617  0.5803  0.4468 -0.1083
 4965TIP3    H136454   4.156   0.770   2.625 -0.1305  0.1572 -0.5684
 4965TIP3    H236455   4.088   0.880   2.703 -0.4478 -0.1579 -0.4002
 4966TIP3   OH236456   4.657   3.377   1.183 -0.2928  0.0034  0.0313
 4966TIP3    H136457   4.611   3.384   1.267  0.0034 -1.4075  0.3391
 4966TIP3    H236458   4.732   3.436   1.192  0.6720 -1.3512  1.4256
 4967TIP3   OH236459   0.360   2.766   1.839  0.4407  0.1399 -0.1523
 4967TIP3    H136460   0.362   2.677   1.804 -2.3631 -0.4307  0.9080
 4967TIP3    H236461   0.400   2.820   1.770 -0.8831 -1.5031 -2.3402
 4968TIP3   OH236462   2.967   1.766   4.323  0.3386 -0.3250  0.8936
 4968TIP3    H136463   2.991   1.732   4.238  1.7255 -1.4193  1.6860
 4968TIP3    H236464   2.963   1.861   4.311  1.4503 -0.4020 -0.1565
 4969TIP3   OH236465   1.648   6.299   0.762  0.0819  0.2419  0.2804
 4969TIP3    H136466   1.693   6.333   0.684  0.9165 -0.3069  0.5032
 4969TIP3    H236467   1.654   6.204   0.753  0.4366  0.1735  1.1534
 4970TIP3   OH236468   5.404   0.183   0.640 -0.1333 -0.0609 -0.6706
 4970TIP3    H136469   5.455   0.224   0.570  0.4225 -0.8621 -0.7469
 4970TIP3    H236470   5.328   0.145   0.595  0.5042 -1.0489 -0.9279
 4971TIP3   OH236471   4.594   2.545   3.018  0.3285  0.0429 -0.5276
 4971TIP3    H136472   4.505   2.547   2.982 -0.1057  0.1141  0.5224
 4971TIP3    H236473   4.601   2.458   3.058 -0.5695  1.2393  2.5018
 4972TIP3   OH236474   6.512   0.325   2.705 -0.2757  0.0525  0.4275
 4972TIP3    H136475   6.555   0.341   2.621  1.1830 -3.4858  0.3704
 4972TIP3    H236476   6.425   0.291   2.682  0.5639 -2.0772  0.2366
 4973TIP3   OH236477   0.074   4.306   1.526 -0.5509 -0.5586  0.2389
 4973TIP3    H136478   0.087   4.380   1.584 -0.1787 -1.1207  0.8948
 4973TIP3    H236479  -0.016   4.313   1.496 -0.2259  0.7288 -0.5376
 4974TIP3   OH236480   6.735   2.385   2.873 -0.1388  0.3468  0.3437
 4974TIP3    H136481   6.716   2.318   2.808 -1.2405  1.3661 -0.4501
 4974TIP3    H236482   6.649   2.419   2.898  0.3095  0.4860  1.8074
 4975TIP3   OH236483   6.260   2.720   8.725  0.6886  0.2185 -0.2542
 4975TIP3    H136484   6.239   2.727   8.632  3.4075 -0.0575 -0.9592
 4975TIP3    H236485   6.233   2.804   8.762  3.8438  2.3295 -2.2891
 4976TIP3   OH236486   3.835   6.154   2.979  0.2153 -0.1546 -0.4676
 4976TIP3    H136487   3.922   6.195   2.978  0.5589 -0.6117  2.0444
 4976TIP3    H236488   3.799   6.177   3.065 -0.1378 -3.8084  0.5628
 4977TIP3   OH236489   1.969   0.915   2.303  0.8885 -0.2210 -0.3715
 4977TIP3    H136490   1.911   0.852   2.346  0.7937  0.2931  0.2757
 4977TIP3    H236491   2.056   0.876   2.309  0.6933 -0.7621 -0.8954
 4978TIP3   OH236492   6.711   6.780   0.083 -0.1945 -0.1770  0.1931
 4978TIP3    H136493   6.631   6.830   0.098 -0.6832 -0.9969  0.3541
 4978TIP3    H236494   6.703   6.703   0.139 -0.3047 -1.3656 -1.4003
 4979TIP3   OH236495   4.820   3.838   1.433 -0.2353  0.0687  0.0167
 4979TIP3    H136496   4.914   3.821   1.425 -0.1111  1.0232 -0.6868
 4979TIP3    H236497   4.788   3.768   1.491  0.3960 -2.0312 -1.9870
 4980TIP3   OH236498   1.562   4.013   1.899 -0.1588 -0.7450 -0.4921
 4980TIP3    H136499   1.514   4.090   1.869  1.6801  0.6078 -0.0909
 4980TIP3    H236500   1.502   3.968   1.958 -1.9849 -0.7365 -2.2277
 4981TIP3   OH236501   6.725   3.658   3.112  0.2070  0.0813 -0.0365
 4981TIP3    H136502   6.633   3.681   3.099  0.0391 -0.7734 -0.4177
 4981TIP3    H236503   6.729   3.623   3.200  0.2675  0.5698  0.1606
 4982TIP3   OH236504   4.686   2.875   1.777 -0.5244  0.0072  0.2471
 4982TIP3    H136505   4.628   2.912   1.710 -0.9935 -1.4201 -0.1750
 4982TIP3    H236506   4.640   2.891   1.860 -0.4012  0.9154  0.1561
 4983TIP3   OH236507   5.968   5.436   3.475 -0.2847  0.2750  0.3594
 4983TIP3    H136508   5.986   5.445   3.382  0.7760  1.7189  0.6695
 4983TIP3    H236509   5.883   5.393   3.479 -0.4369  0.3649 -1.2727
 4984TIP3   OH236510   2.465   3.796   1.140  0.2259 -0.1702  0.0546
 4984TIP3    H136511   2.502   3.719   1.096  1.7716  0.7759 -0.3710
 4984TIP3    H236512   2.535   3.827   1.198 -0.0827  1.3524 -0.3436
 4985TIP3   OH236513   4.493   5.353   4.771 -0.0811 -0.2635  0.3082
 4985TIP3    H136514   4.419   5.402   4.808 -0.3376 -1.3874  1.3336
 4985TIP3    H236515   4.475   5.262   4.794  1.3896 -0.6077  0.1473
 4986TIP3   OH236516   5.510   4.194   0.146  0.3704  0.1100 -0.1735
 4986TIP3    H136517   5.555   4.120   0.185 -1.4521 -2.1169 -2.0021
 4986TIP3    H236518   5.508   4.174   0.052 -1.9001  1.4657 -0.4982
 4987TIP3   OH236519   4.503   1.818   3.693 -0.9095 -0.3772 -0.5292
 4987TIP3    H136520   4.493   1.901   3.740 -3.9764 -0.4623 -0.8900
 4987TIP3    H236521   4.573   1.836   3.630 -0.6676  1.5417  0.1995
 4988TIP3   OH236522   1.453   6.756   3.007 -0.4522  0.3499 -0.0097
 4988TIP3    H136523   1.523   6.821   3.019 -0.4038  0.5246 -1.1664
 4988TIP3    H236524   1.421   6.740   3.096 -0.1255  1.5906  0.3634
 4989TIP3   OH236525   0.350   0.542   1.988 -0.5343  0.3297  0.3742
 4989TIP3    H136526   0.378   0.514   2.075 -0.5372 -1.2179 -0.0904
 4989TIP3    H236527   0.417   0.507   1.929 -0.8892  0.7773 -0.3034
 4990TIP3   OH236528   6.482   1.719   3.850  0.2121  0.2606  0.4258
 4990TIP3    H136529   6.469   1.641   3.904  1.1916 -2.1217 -2.5648
 4990TIP3    H236530   6.573   1.744   3.865  0.3736 -0.1721  0.1850
 4991TIP3   OH236531   6.507   1.278   1.045  0.0509  0.0208 -0.6873
 4991TIP3    H136532   6.462   1.202   1.082 -0.5697  0.5741 -0.2875
 4991TIP3    H236533   6.441   1.321   0.991  0.6513 -0.1975 -1.6014
 4992TIP3   OH236534   6.078   0.756   3.669 -0.1989  0.2697  0.0677
 4992TIP3    H136535   6.040   0.776   3.754  1.3024  0.2440  0.7732
 4992TIP3    H236536   6.171   0.743   3.686  0.1982  0.5803 -1.6247
 4993TIP3   OH236537   3.725   2.014   4.604 -0.0397 -0.0772 -0.0390
 4993TIP3    H136538   3.666   2.035   4.677  0.1259  0.8830 -0.1670
 4993TIP3    H236539   3.690   1.932   4.568 -1.4288  0.5780 -0.2412
 4994TIP3   OH236540   2.213   5.176   2.577 -0.3603 -0.2134  0.0235
 4994TIP3    H136541   2.285   5.119   2.548 -0.9291 -0.5991 -0.6621
 4994TIP3    H236542   2.143   5.161   2.513 -1.3351 -0.4162  1.0934
 4995TIP3   OH236543   5.293   6.317   4.118  0.5245 -0.0063  0.4547
 4995TIP3    H136544   5.310   6.354   4.032 -0.9520 -0.8133 -0.2197
 4995TIP3    H236545   5.221   6.369   4.153 -0.6373 -1.3083  0.0792
 4996TIP3   OH236546   3.133   2.265   3.947  0.3154  0.2212  0.2098
 4996TIP3    H136547   3.066   2.319   3.904  0.9738  0.9584  0.0861
 4996TIP3    H236548   3.186   2.230   3.875  0.7675  0.5877  0.3588
 4997TIP3   OH236549   3.029   2.713   3.911  0.4744  0.2594  0.4408
 4997TIP3    H136550   3.049   2.628   3.873 -0.5167  1.5833 -3.4650
 4997TIP3    H236551   3.100   2.770   3.881 -0.7340  1.5357 -0.1054
 4998TIP3   OH236552   5.835   1.664   3.822  0.7770 -0.1852 -0.1138
 4998TIP3    H136553   5.786   1.585   3.844  1.9218 -0.7558  0.4557
 4998TIP3    H236554   5.847   1.660   3.727 -1.1706  0.5116 -0.4298
 4999TIP3   OH236555   3.201   2.297   0.468  0.0970 -0.5261 -0.0289
 4999TIP3    H136556   3.125   2.252   0.431 -1.8254 -0.0380  2.9969
 4999TIP3    H236557   3.184   2.390   0.454  0.7376 -0.4485 -0.3488
 5000TIP3   OH236558   1.720   1.810   2.353  0.3794  0.2978 -0.0317
 5000TIP3    H136559   1.780   1.738   2.372 -0.7173 -1.2218 -1.9492
 5000TIP3    H236560   1.633   1.774   2.371 -0.4866 -0.1786 -4.1005
 5001TIP3   OH236561   4.952   5.297   3.351  0.0758  0.0330  0.0639
 5001TIP3    H136562   4.892   5.338   3.414  0.2158  2.7459 -1.4376
 5001TIP3    H236563   4.895   5.267   3.280  0.3467  1.6597 -0.8728
 5002TIP3   OH236564   6.616   1.556   1.104 -0.3773  0.4126 -0.2040
 5002TIP3    H136565   6.611   1.464   1.077 -0.1078  0.5261 -0.6484
 5002TIP3    H236566   6.609   1.553   1.200 -0.0116 -0.1025 -0.1872
 5003TIP3   OH236567   3.122   5.072   3.266 -0.0285  0.2199 -0.0819
 5003TIP3    H136568   3.054   5.076   3.334  0.5013  0.6857  0.4322
 5003TIP3    H236569   3.077   5.036   3.190 -0.5469 -0.6744  0.6197
 5004TIP3   OH236570   3.686   3.258   0.580  0.7820  0.5376  0.0191
 5004TIP3    H136571   3.684   3.169   0.544 -1.7654  0.2876  0.6352
 5004TIP3    H236572   3.638   3.311   0.516 -1.1160  0.6676  1.4619
 5005TIP3   OH236573   1.617   6.351   3.808  0.0257 -0.8515  0.3573
 5005TIP3    H136574   1.697   6.404   3.806 -0.5917  0.1640  1.4842
 5005TIP3    H236575   1.634   6.280   3.746  1.1541  0.2682 -0.6663
 5006TIP3   OH236576   2.914   0.809   1.177  0.4977 -0.4518 -0.2407
 5006TIP3    H136577   2.972   0.853   1.239  1.8091 -2.5734  0.1294
 5006TIP3    H236578   2.861   0.880   1.140  2.6993  1.4592  0.0464
 5007TIP3   OH236579   3.060   2.660   2.944  0.4239 -0.0213 -0.1484
 5007TIP3    H136580   3.075   2.565   2.952  4.1665  0.5139  1.3389
 5007TIP3    H236581   3.066   2.692   3.034 -1.1998  1.6300 -0.5913
 5008TIP3   OH236582   0.145   3.155   0.802  0.3947  0.9234  0.0912
 5008TIP3    H136583   0.065   3.176   0.755  0.4261  2.0068  0.4982
 5008TIP3    H236584   0.128   3.070   0.843 -0.1580  0.6599 -0.6516
 5009TIP3   OH236585   1.936   3.181   3.112 -1.0744 -0.0911 -0.1291
 5009TIP3    H136586   1.980   3.217   3.189 -1.6359  2.3921 -0.8784
 5009TIP3    H236587   1.944   3.086   3.122  0.0946  0.1824  2.2466
 5010TIP3   OH236588   1.006   4.529   2.903 -0.5753  0.4368 -0.4220
 5010TIP3    H136589   1.040   4.499   2.819 -0.6879  2.1162 -1.1041
 5010TIP3    H236590   1.013   4.625   2.899 -1.2570  0.5871  1.1916
 5011TIP3   OH236591   4.393   6.055   3.083  0.1331  0.0611  0.4235
 5011TIP3    H136592   4.444   5.983   3.122 -2.4326 -2.7175 -0.9289
 5011TIP3    H236593   4.325   6.074   3.147  0.7318  1.2716  0.7215
 5012TIP3   OH236594   1.241   5.310   2.611 -0.0681 -0.3337 -0.2040
 5012TIP3    H136595   1.200   5.372   2.550 -1.1632 -1.0496 -0.2041
 5012TIP3    H236596   1.333   5.336   2.612 -0.3257  0.6691 -0.9697
 5013TIP3   OH236597   5.440   4.387   8.525  0.3919  0.7781  0.2696
 5013TIP3    H136598   5.403   4.473   8.505 -0.3890  1.0378  2.5153
 5013TIP3    H236599   5.528   4.406   8.560  0.1967  0.6972  0.8200
 5014TIP3   OH236600   0.325   3.004   1.079 -0.0117 -0.0458  0.5041
 5014TIP3    H136601   0.284   2.968   1.001 -0.9211  1.2555  0.3447
 5014TIP3    H236602   0.262   3.069   1.111  0.6492 -0.0692  1.9315
 5015TIP3   OH236603   2.659   0.140   2.059  0.2369  0.0756 -0.3061
 5015TIP3    H136604   2.751   0.163   2.069  0.4030 -0.5530 -0.3234
 5015TIP3    H236605   2.632   0.180   1.977 -0.0468  1.9137  0.6364
 5016TIP3   OH236606   1.260   6.672   1.472 -0.2793 -0.1172 -0.2564
 5016TIP3    H136607   1.298   6.628   1.396  0.6140  1.3724 -0.7226
 5016TIP3    H236608   1.228   6.601   1.528 -1.0435 -1.2448 -2.0569
 5017TIP3   OH236609   1.678   3.572   3.742 -0.6500 -0.0968 -0.0840
 5017TIP3    H136610   1.643   3.648   3.697 -0.1941 -0.2138 -0.6515
 5017TIP3    H236611   1.716   3.518   3.672 -1.3024 -1.0292  0.2587
 5018TIP3   OH236612   3.722   5.092   4.262  0.0730  0.3746  0.3461
 5018TIP3    H136613   3.696   5.116   4.173  1.5475  1.4595  0.1720
 5018TIP3    H236614   3.639   5.074   4.307 -0.8073  1.3727 -0.8148
 5019TIP3   OH236615   1.397   6.500   3.823  0.4870  0.1006 -0.3325
 5019TIP3    H136616   1.462   6.432   3.809 -0.6710 -1.0122 -0.4791
 5019TIP3    H236617   1.384   6.540   3.737  0.4935 -0.1174 -0.4344
 5020TIP3   OH236618   5.498   0.457   1.101 -0.4241  0.7955  0.2238
 5020TIP3    H136619   5.476   0.446   1.008 -1.5680 -0.6899  0.6139
 5020TIP3    H236620   5.587   0.490   1.102 -0.7941  1.9505 -1.4170
 5021TIP3   OH236621   1.664   4.543   2.469 -0.4806  0.9932 -0.5359
 5021TIP3    H136622   1.678   4.617   2.528  0.1558  2.3097 -2.2521
 5021TIP3    H236623   1.708   4.469   2.511 -1.8253  1.3459  1.6095
 5022TIP3   OH236624   4.658   6.402   4.640 -0.6854  0.4406  0.2050
 5022TIP3    H136625   4.585   6.363   4.688 -0.4592 -0.0070  0.1907
 5022TIP3    H236626   4.626   6.412   4.550  0.5526 -3.5290 -0.8558
 5023TIP3   OH236627   6.774   5.658   2.680 -0.2159  0.1475  0.2433
 5023TIP3    H136628   6.859   5.617   2.696 -0.2864 -1.1400 -2.1186
 5023TIP3    H236629   6.710   5.597   2.719 -0.1697 -0.6110 -0.8059
 5024TIP3   OH236630   5.525   4.767   4.175 -0.0054  0.1643 -0.0450
 5024TIP3    H136631   5.497   4.691   4.225 -0.4561 -0.3876 -1.0923
 5024TIP3    H236632   5.529   4.735   4.084  0.8567  1.1031 -0.3557
 5025TIP3   OH236633   0.556   4.679   2.799  0.2107  0.2086 -0.1105
 5025TIP3    H136634   0.515   4.684   2.885 -0.2791  0.9258 -0.3703
 5025TIP3    H236635   0.619   4.751   2.798  1.2433 -0.6753  0.1571
 5026TIP3   OH236636   0.065   1.093   2.580 -0.0633  0.8200  0.3662
 5026TIP3    H136637  -0.030   1.089   2.589 -0.2564  0.0206 -1.5928
 5026TIP3    H236638   0.094   1.146   2.654 -1.7601 -1.1970  2.6510
 5027TIP3   OH236639   3.632   3.056   0.403 -0.4791 -0.6709  0.2427
 5027TIP3    H136640   3.546   3.028   0.436 -0.6664 -0.6266 -0.1982
 5027TIP3    H236641   3.659   2.986   0.343 -0.0671 -0.8295  0.6130
 5028TIP3   OH236642   4.956   6.262   3.821  0.1096 -0.4325 -0.0275
 5028TIP3    H136643   4.964   6.184   3.766 -1.1265 -2.5927  2.6048
 5028TIP3    H236644   5.040   6.307   3.811  1.1209 -2.4197 -1.2041
 5029TIP3   OH236645   2.447   4.637   3.963  0.1634  0.6236 -0.3473
 5029TIP3    H136646   2.413   4.613   3.877 -1.0808  0.8039  0.0808
 5029TIP3    H236647   2.379   4.693   4.001  0.7271  0.5937  0.7298
 5030TIP3   OH236648   5.461   6.347   3.404 -0.3694  0.2998 -0.2017
 5030TIP3    H136649   5.492   6.425   3.451  2.4628 -0.3087 -0.8613
 5030TIP3    H236650   5.479   6.274   3.464 -2.1907  0.0247  0.0572
 5031TIP3   OH236651   0.424   3.394   1.137 -0.8558  0.0583 -0.6016
 5031TIP3    H136652   0.357   3.463   1.134 -0.8745  0.0443 -0.4963
 5031TIP3    H236653   0.495   3.432   1.188 -1.7829 -0.8084  1.4413
 5032TIP3   OH236654   5.001   2.356   0.705  0.3884 -0.2690 -0.2504
 5032TIP3    H136655   4.916   2.313   0.710  1.0662 -2.0013 -2.2883
 5032TIP3    H236656   4.980   2.448   0.689 -1.0769 -0.0402  2.3678
 5033TIP3   OH236657   3.354   5.315   2.251 -0.5671 -0.8002  0.7012
 5033TIP3    H136658   3.287   5.376   2.218  0.6816 -0.6946 -1.9558
 5033TIP3    H236659   3.401   5.365   2.317  0.1160  1.0653 -1.0715
 5034TIP3   OH236660   0.232   6.302   3.245 -0.2559 -0.3645  0.3176
 5034TIP3    H136661   0.187   6.331   3.324  0.5254 -0.0888  0.6662
 5034TIP3    H236662   0.262   6.382   3.202  2.0867 -0.5626  1.3938
 5035TIP3   OH236663   0.956   3.522   1.004  0.1656 -0.4491  0.0816
 5035TIP3    H136664   0.904   3.475   0.939 -0.2360  0.2693 -0.1218
 5035TIP3    H236665   0.918   3.497   1.088 -1.3219  1.0157 -0.1207
 5036TIP3   OH236666   6.631   1.803   1.353 -0.0785  0.1956 -0.2986
 5036TIP3    H136667   6.724   1.828   1.357  0.1461  0.4630 -3.8453
 5036TIP3    H236668   6.587   1.883   1.324 -0.9596 -0.6981 -1.4870
 5037TIP3   OH236669   0.455   2.660   0.374  0.3595 -0.2641  0.4102
 5037TIP3    H136670   0.502   2.731   0.418 -0.6903 -0.0673  1.2401
 5037TIP3    H236671   0.502   2.649   0.291  0.5378  1.4234  0.2501
 5038TIP3   OH236672   3.875   6.117   5.018 -0.1505  0.1173  0.0542
 5038TIP3    H136673   3.913   6.064   5.088  0.8665 -0.6350 -1.0266
 5038TIP3    H236674   3.801   6.162   5.059 -1.2880 -2.4067  0.9640
 5039TIP3   OH236675   0.088   6.225   1.541 -0.0893  0.4924  0.1676
 5039TIP3    H136676   0.044   6.310   1.538 -0.4270  0.4290  2.1555
 5039TIP3    H236677   0.181   6.247   1.552 -0.3163  0.6539  2.1078
 5040TIP3   OH236678   4.904   4.914   1.508 -0.2202  0.4701  0.1138
 5040TIP3    H136679   4.900   4.980   1.440 -2.4648 -0.2720 -0.5710
 5040TIP3    H236680   4.840   4.848   1.482  0.1157 -0.7311  2.0510
 5041TIP3   OH236681   6.453   4.826   3.554 -0.2129  0.0541  0.3095
 5041TIP3    H136682   6.529   4.822   3.612 -0.3538 -0.6509  0.4519
 5041TIP3    H236683   6.447   4.919   3.528  0.9967  0.0275 -0.1090
 5042TIP3   OH236684   1.654   1.062   0.169  0.2111  0.3904 -0.1610
 5042TIP3    H136685   1.704   0.990   0.133  1.6122  1.8858 -1.3687
 5042TIP3    H236686   1.567   1.053   0.130  0.2908 -0.7375 -0.1079
 5043TIP3   OH236687   3.107   0.335   1.046  0.1548  0.2209 -0.6211
 5043TIP3    H136688   3.164   0.338   0.969  1.4990 -0.8848  0.2698
 5043TIP3    H236689   3.044   0.405   1.032  3.1654  3.2320 -0.5752
 5044TIP3   OH236690   5.556   6.657   1.061  0.4312 -0.1004 -0.6116
 5044TIP3    H136691   5.589   6.744   1.081  2.8866 -0.6451 -1.8532
 5044TIP3    H236692   5.525   6.663   0.971  2.4445 -0.8883 -1.4197
 5045TIP3   OH236693   0.914   0.138   4.435 -0.0730 -0.7025  0.0176
 5045TIP3    H136694   0.877   0.067   4.488  0.1699  0.0083  1.1590
 5045TIP3    H236695   0.841   0.199   4.423  0.0273 -0.5811  0.0256
 5046TIP3   OH236696   4.765   4.406   8.806  0.4454  0.2475  0.0413
 5046TIP3    H136697   4.837   4.350   8.775  1.0148  0.6878  0.5411
 5046TIP3    H236698   4.809   4.484   8.840 -0.3341  0.9259 -0.4978
 5047TIP3   OH236699   1.927   3.285   2.630 -0.1169  0.4734 -0.3673
 5047TIP3    H136700   1.857   3.329   2.582 -1.3658  0.4793  1.3671
 5047TIP3    H236701   1.893   3.197   2.648  0.6868  0.1715 -0.2398
 5048TIP3   OH236702   6.408   6.578   3.800 -0.2202  0.2658  0.0145
 5048TIP3    H136703   6.384   6.614   3.885 -0.9753  0.2526 -0.1813
 5048TIP3    H236704   6.351   6.501   3.789  1.4122 -1.0534  0.4568
 5049TIP3   OH236705   4.168   4.907   2.256 -0.1603 -0.0181  0.0871
 5049TIP3    H136706   4.106   4.969   2.294 -0.5174  0.5106 -1.3150
 5049TIP3    H236707   4.229   4.961   2.206  1.4081 -0.5446  1.3731
 5050TIP3   OH236708   0.645   4.992   2.447 -0.0212  1.1560 -0.0155
 5050TIP3    H136709   0.732   4.952   2.447  0.0136  1.2081 -0.6769
 5050TIP3    H236710   0.656   5.076   2.491  0.1520  0.9335  0.3645
 5051TIP3   OH236711   3.313   3.307   2.287 -0.3106  0.1589 -0.2763
 5051TIP3    H136712   3.267   3.277   2.209 -1.7669  0.0923  0.5758
 5051TIP3    H236713   3.374   3.236   2.308  0.1829  0.2284 -1.3905
 5052TIP3   OH236714   5.078   0.710   0.621  0.4393 -0.0024 -0.3810
 5052TIP3    H136715   5.007   0.766   0.590  0.4690 -0.2935 -0.9847
 5052TIP3    H236716   5.078   0.722   0.716  0.9437  1.6097 -0.5618
 5053TIP3   OH236717   2.813   4.239   1.325 -0.2689  0.9183  0.6394
 5053TIP3    H136718   2.733   4.211   1.280 -0.9412 -0.2258  2.4126
 5053TIP3    H236719   2.812   4.335   1.319  0.1461  0.8070 -2.4414
 5054TIP3   OH236720   2.531   5.756   1.827  0.1480  0.2158 -0.5766
 5054TIP3    H136721   2.437   5.765   1.845 -0.0946 -0.5144 -1.4133
 5054TIP3    H236722   2.536   5.685   1.763  1.1194  1.3416 -1.8120
 5055TIP3   OH236723   6.721   6.478   4.908 -0.1507 -0.4059  0.1380
 5055TIP3    H136724   6.751   6.393   4.877 -1.0180  0.3311 -3.0271
 5055TIP3    H236725   6.642   6.458   4.959 -1.5521 -1.4781 -2.2551
 5056TIP3   OH236726   3.054   4.140   4.029 -0.1697  0.2713  0.3198
 5056TIP3    H136727   3.105   4.197   3.972 -1.4705  0.4789 -0.7034
 5056TIP3    H236728   3.076   4.051   3.999 -0.5056  0.3647 -0.2182
 5057TIP3   OH236729   5.548   3.140   3.991 -0.2403 -0.3551 -0.5387
 5057TIP3    H136730   5.461   3.111   3.962 -0.3063 -0.2471 -0.4463
 5057TIP3    H236731   5.581   3.191   3.918  1.0686 -3.0130 -1.9600
 5058TIP3   OH236732   2.283   3.535   0.979  0.2604 -0.3176  0.5296
 5058TIP3    H136733   2.377   3.549   0.965  0.1111  1.1969  0.8433
 5058TIP3    H236734   2.241   3.599   0.921 -0.4915  1.3066  2.7619
 5059TIP3   OH236735   5.148   3.274   8.543 -0.0592  0.0142  0.0829
 5059TIP3    H136736   5.221   3.320   8.501  0.8222 -0.8386  0.6151
 5059TIP3    H236737   5.076   3.337   8.542  0.3212  0.4712 -1.5146
 5060TIP3   OH236738   5.961   3.981   1.982  0.0951  0.0863  0.8802
 5060TIP3    H136739   5.977   3.886   1.982  1.6434  0.2810 -1.5935
 5060TIP3    H236740   5.924   3.998   2.069  0.9968 -2.5734  1.9010
 5061TIP3   OH236741   5.830   5.734   5.244 -0.0195 -0.3239 -0.4500
 5061TIP3    H136742   5.896   5.700   5.304  0.0493 -1.3165 -1.0553
 5061TIP3    H236743   5.879   5.778   5.175 -0.0795  0.4538 -0.0040
 5062TIP3   OH236744   1.963   0.396   2.517  0.2736 -0.4292 -0.3186
 5062TIP3    H136745   1.942   0.440   2.435  0.4240 -0.5991 -0.4512
 5062TIP3    H236746   1.991   0.308   2.490  0.5238 -0.4180 -0.1012
 5063TIP3   OH236747   3.964   1.669   1.644 -0.4446  0.1310 -0.2653
 5063TIP3    H136748   3.995   1.748   1.690  0.4803 -0.8362  0.8371
 5063TIP3    H236749   4.044   1.632   1.606 -0.6409 -1.0196  0.4139
 5064TIP3   OH236750   0.947   1.557   0.029  0.4710 -0.4440 -0.3561
 5064TIP3    H136751   1.030   1.523  -0.004  1.3944  1.7382 -0.4871
 5064TIP3    H236752   0.959   1.652   0.030 -1.2717 -0.1646  1.6648
 5065TIP3   OH236753   4.672   6.527   3.422 -0.3045 -0.0425  0.1493
 5065TIP3    H136754   4.591   6.509   3.469 -1.1484  0.3226 -1.1282
 5065TIP3    H236755   4.664   6.618   3.393  1.0850  0.3826  0.9989
 5066TIP3   OH236756   6.198   1.468   1.184  0.1477  0.2895 -0.2011
 5066TIP3    H136757   6.137   1.504   1.249  2.3130  1.4786  1.2903
 5066TIP3    H236758   6.170   1.506   1.101  0.4115  2.9860  0.8522
 5067TIP3   OH236759   6.148   2.699   4.795  0.2632 -0.1751  0.4164
 5067TIP3    H136760   6.055   2.711   4.773  0.4724 -0.3636 -0.6166
 5067TIP3    H236761   6.161   2.604   4.790  0.7890 -0.0562 -0.6430
 5068TIP3   OH236762   3.772   0.564   1.173  0.2282  0.0795  0.0119
 5068TIP3    H136763   3.853   0.531   1.133 -0.3976  0.0996 -1.2910
 5068TIP3    H236764   3.716   0.487   1.181 -0.2918  0.3783 -0.7285
 5069TIP3   OH236765   0.017   4.068   4.153 -0.0517 -0.0795  0.0354
 5069TIP3    H136766  -0.012   4.021   4.074  0.6031 -0.4361  0.0019
 5069TIP3    H236767  -0.062   4.111   4.185 -0.5199 -0.6525 -0.3209
 5070TIP3   OH236768   4.142   4.403   1.889  0.2189  0.4005 -0.3950
 5070TIP3    H136769   4.153   4.310   1.870  1.8283  0.6520 -0.8893
 5070TIP3    H236770   4.098   4.439   1.812  1.8488  0.4597 -1.3386
 5071TIP3   OH236771   2.629   0.854   3.502  0.3026 -0.3478 -0.3153
 5071TIP3    H136772   2.573   0.837   3.578  0.5371 -0.1474 -0.0938
 5071TIP3    H236773   2.573   0.837   3.426  0.2011 -0.9857 -0.1015
 5072TIP3   OH236774   3.544   2.938   3.781 -0.1773  0.0402  0.2034
 5072TIP3    H136775   3.612   2.987   3.735 -0.1086  0.8225  1.0978
 5072TIP3    H236776   3.539   2.980   3.867 -1.7860 -0.0072  0.1561
 5073TIP3   OH236777   6.470   6.100   3.606 -0.5700  0.5697 -0.5912
 5073TIP3    H136778   6.538   6.091   3.672 -0.9196 -2.3157 -0.5169
 5073TIP3    H236779   6.479   6.190   3.575  2.6507  0.5943  0.0587
 5074TIP3   OH236780   3.746   6.243   3.222 -0.2460  0.3233 -0.3541
 5074TIP3    H136781   3.754   6.184   3.297 -1.1079 -0.8714 -1.1674
 5074TIP3    H236782   3.792   6.322   3.250 -0.4910 -0.0983  1.4160
 5075TIP3   OH236783   4.834   1.908   0.939 -0.7429  0.0045 -0.2183
 5075TIP3    H136784   4.925   1.934   0.950 -1.0234  0.6044  0.8225
 5075TIP3    H236785   4.834   1.815   0.961 -0.3132 -0.0921 -0.6151
 5076TIP3   OH236786   1.446   1.373   3.880  0.3641  0.2537  0.3029
 5076TIP3    H136787   1.527   1.421   3.867  0.6740 -0.7696 -2.0789
 5076TIP3    H236788   1.391   1.399   3.806 -1.3295  0.5400  1.5879
 5077TIP3   OH236789   1.099   3.888   4.447 -0.1738  0.4754 -0.6697
 5077TIP3    H136790   1.130   3.799   4.432 -0.4939  0.5901 -2.2093
 5077TIP3    H236791   1.170   3.931   4.496 -0.2624 -0.7576  0.5877
 5078TIP3   OH236792   4.280   1.254   2.684 -0.0983  0.1161  0.3069
 5078TIP3    H136793   4.327   1.335   2.707  1.5657 -0.1502 -1.8868
 5078TIP3    H236794   4.312   1.189   2.746  1.3883  0.3009 -0.2302
 5079TIP3   OH236795   6.114   3.699   0.882 -0.3076  0.4007  0.2200
 5079TIP3    H136796   6.143   3.617   0.842  1.4652  0.1254  1.9090
 5079TIP3    H236797   6.099   3.677   0.973 -0.4022  1.8318  0.5688
 5080TIP3   OH236798   0.057   2.733   1.761 -1.2500 -0.2719  0.1633
 5080TIP3    H136799   0.097   2.645   1.761  0.0214  0.2649  1.3856
 5080TIP3    H236800   0.113   2.784   1.703  0.3154  0.6276  2.3090
 5081TIP3   OH236801   6.248   4.959   2.763 -0.4729  0.2320  0.7017
 5081TIP3    H136802   6.270   4.976   2.671 -1.4644 -0.1929  0.3730
 5081TIP3    H236803   6.165   4.913   2.760 -1.5945  2.0448  1.8991
 5082TIP3   OH236804   6.259   2.687   0.348 -0.3473 -0.1586 -0.2133
 5082TIP3    H136805   6.235   2.638   0.426  0.7970  0.0089  0.2627
 5082TIP3    H236806   6.180   2.687   0.294 -1.0195 -0.6327  0.7538
 5083TIP3   OH236807   2.264   2.669   0.392  0.3824  0.3746 -0.0248
 5083TIP3    H136808   2.228   2.582   0.373 -0.8938  1.0381 -0.8280
 5083TIP3    H236809   2.214   2.728   0.335  1.1807  1.6417  0.5481
 5084TIP3   OH236810   5.663   2.999   3.347 -0.0003  0.5305 -0.2545
 5084TIP3    H136811   5.588   2.971   3.296 -0.6391  2.3379 -0.3693
 5084TIP3    H236812   5.731   2.934   3.327 -1.6242 -1.4271  0.2326
 5085TIP3   OH236813   1.238   3.206   1.479 -0.1751  0.3317 -0.3955
 5085TIP3    H136814   1.278   3.292   1.468 -2.4158  1.6297  0.9214
 5085TIP3    H236815   1.296   3.160   1.540 -0.8281  2.3174  1.8461
 5086TIP3   OH236816   1.455   5.445   0.709 -0.7905  0.0346  0.4990
 5086TIP3    H136817   1.434   5.395   0.631 -0.0393  0.6726 -0.1420
 5086TIP3    H236818   1.546   5.423   0.728 -0.7122  0.5153  0.7012
 5087TIP3   OH236819   0.098   0.261   5.533  0.3476 -0.2576  0.5659
 5087TIP3    H136820   0.192   0.250   5.523  0.1879 -0.1306 -1.5616
 5087TIP3    H236821   0.078   0.341   5.486 -0.6078  0.7968  2.6320
 5088TIP3   OH236822   5.074   0.859   3.471 -0.6360 -0.5194 -0.3451
 5088TIP3    H136823   4.997   0.871   3.526 -0.0347  1.1803  0.2051
 5088TIP3    H236824   5.041   0.817   3.392 -1.7318 -1.8416  0.7644
 5089TIP3   OH236825   0.517   2.069   1.087  0.4127 -0.1549  0.3186
 5089TIP3    H136826   0.509   1.975   1.074  3.1152 -0.4256  0.1887
 5089TIP3    H236827   0.503   2.106   0.999  0.0271 -0.4680  0.2444
 5090TIP3   OH236828   5.389   6.607   2.549 -0.1575  0.1269  0.0486
 5090TIP3    H136829   5.364   6.683   2.496 -1.9039 -1.2228 -1.1910
 5090TIP3    H236830   5.336   6.613   2.628  1.6486  1.5517  1.2322
 5091TIP3   OH236831   6.158   6.357   3.476  0.2644 -0.1867 -0.7661
 5091TIP3    H136832   6.206   6.375   3.396  4.1535 -2.2018  0.8789
 5091TIP3    H236833   6.185   6.269   3.503 -1.2319  0.1629  2.5105
 5092TIP3   OH236834   5.708   3.893   1.834 -0.4139  0.2198  0.0169
 5092TIP3    H136835   5.707   3.867   1.742  0.1250  0.1494  0.0283
 5092TIP3    H236836   5.796   3.927   1.848  0.5103 -2.3600  1.2168
 5093TIP3   OH236837   1.396   3.873   2.055  0.7274  0.0340  0.2232
 5093TIP3    H136838   1.318   3.907   2.097  1.1322  1.5643 -0.2007
 5093TIP3    H236839   1.400   3.781   2.082  0.3826  0.6649  2.6034
 5094TIP3   OH236840   3.224   1.042   2.228 -0.0112 -0.0499  0.3989
 5094TIP3    H136841   3.169   1.108   2.185  1.6917 -0.0470 -1.9994
 5094TIP3    H236842   3.297   1.092   2.265  0.3679 -0.3860  0.1210
 5095TIP3   OH236843   1.552   0.926   2.491  0.1571 -0.1874 -0.2542
 5095TIP3    H136844   1.470   0.883   2.467 -0.1338  1.0650 -1.6157
 5095TIP3    H236845   1.526   1.014   2.519  0.9351 -0.1640  0.4436
 5096TIP3   OH236846   4.663   0.680   2.846 -0.0962 -0.1816 -0.6478
 5096TIP3    H136847   4.755   0.703   2.829  0.2647 -0.5949  0.6275
 5096TIP3    H236848   4.613   0.733   2.784  1.0155 -0.2050 -1.6030
 5097TIP3   OH236849   6.371   2.881   4.733  0.0452 -0.5722 -0.0863
 5097TIP3    H136850   6.310   2.831   4.787 -0.3552  0.1429  0.1293
 5097TIP3    H236851   6.457   2.847   4.758  0.0506  1.0581  2.4911
 5098TIP3   OH236852   1.825   2.658   3.046 -0.0904 -0.2980 -0.4987
 5098TIP3    H136853   1.741   2.628   3.011  0.0152 -0.0771 -0.9395
 5098TIP3    H236854   1.887   2.590   3.021 -0.1472 -0.5072 -0.0932
 5099TIP3   OH236855   0.257   5.999   1.742 -0.4830  0.6952  0.2517
 5099TIP3    H136856   0.162   6.010   1.739 -0.5110  0.4700  0.3496
 5099TIP3    H236857   0.291   6.074   1.692 -0.6651  1.5692  1.3796
 5100TIP3   OH236858   0.687   2.169   0.351  0.0358 -0.8162 -0.1696
 5100TIP3    H136859   0.735   2.119   0.285  1.1075  1.8551 -1.5624
 5100TIP3    H236860   0.740   2.160   0.431  0.1065 -2.0246 -0.3462
 5101TIP3   OH236861   0.872   1.603   1.810  0.4409  0.2291  0.1453
 5101TIP3    H136862   0.838   1.519   1.839 -0.0018 -0.3673 -1.9083
 5101TIP3    H236863   0.823   1.622   1.729  2.9262  0.7517 -1.3592
 5102TIP3   OH236864   6.169   2.390   0.212 -0.3453 -0.3630 -0.8549
 5102TIP3    H136865   6.202   2.413   0.125 -0.2916 -3.8315 -1.8899
 5102TIP3    H236866   6.095   2.449   0.225  1.8131  2.7754 -1.5263
 5103TIP3   OH236867   6.151   3.664   8.732 -0.2568 -0.0040  0.0592
 5103TIP3    H136868   6.230   3.689   8.684  0.6280 -0.1751  1.3806
 5103TIP3    H236869   6.109   3.747   8.755  0.5295  0.1647  0.9390
 5104TIP3   OH236870   2.705   3.757   2.796  0.0028  0.1465 -0.3334
 5104TIP3    H136871   2.708   3.673   2.750  0.5774  0.8419 -1.6229
 5104TIP3    H236872   2.784   3.757   2.851 -0.3636 -0.4326  0.2054
 5105TIP3   OH236873   4.016   0.605   1.435 -0.5661  1.1014  0.2333
 5105TIP3    H136874   4.041   0.675   1.374 -0.5066  1.6765  0.9039
 5105TIP3    H236875   3.921   0.599   1.426 -0.5044  0.8379 -0.2772
 5106TIP3   OH236876   3.228   4.580   3.818  0.0052 -0.5000  0.2791
 5106TIP3    H136877   3.231   4.674   3.802 -1.6158  0.0193  2.5195
 5106TIP3    H236878   3.136   4.556   3.803  0.2947 -1.6181  0.2302
 5107TIP3   OH236879   4.231   5.045   3.161  0.0967  0.7186 -0.5691
 5107TIP3    H136880   4.261   5.082   3.243 -0.4261 -0.0917  0.0080
 5107TIP3    H236881   4.203   4.956   3.184  0.8496  0.1318 -1.8007
 5108TIP3   OH236882   5.483   1.459   1.282 -0.7121 -0.2121  0.1166
 5108TIP3    H136883   5.532   1.419   1.353 -1.5153 -0.9659  0.2621
 5108TIP3    H236884   5.549   1.490   1.220 -0.0277 -0.0038  0.9424
 5109TIP3   OH236885   6.185   5.925   1.636 -0.0690  0.1888 -0.4180
 5109TIP3    H136886   6.245   5.959   1.703 -0.4094  1.3083 -0.6528
 5109TIP3    H236887   6.225   5.843   1.606  0.7058  0.2964  0.2941
 5110TIP3   OH236888   3.981   0.648   0.887 -0.3834  0.3763  0.0722
 5110TIP3    H136889   4.054   0.710   0.898  0.9575 -1.2351  0.6866
 5110TIP3    H236890   3.931   0.656   0.967  0.1607  0.2004  0.4350
 5111TIP3   OH236891   0.405   4.036   4.904 -0.2390 -0.0268  0.0813
 5111TIP3    H136892   0.357   4.104   4.951  0.7021 -1.0727  2.8006
 5111TIP3    H236893   0.496   4.066   4.905 -0.0816 -0.4768 -0.3523
 5112TIP3   OH236894   4.073   3.246   1.785  0.0097 -0.1668 -0.5101
 5112TIP3    H136895   4.121   3.303   1.724 -1.1885  1.2584 -0.1573
 5112TIP3    H236896   3.988   3.288   1.797 -0.5464 -1.4994  0.5794
 5113TIP3   OH236897   2.716   4.371   8.777  0.1891  0.6268  0.6535
 5113TIP3    H136898   2.736   4.464   8.777  2.9415  0.1277 -0.5894
 5113TIP3    H236899   2.790   4.330   8.821 -1.2247 -0.9720  1.6551
 5114TIP3   OH236900   4.356   2.471   8.453  0.0323  0.4333 -0.1456
 5114TIP3    H136901   4.294   2.401   8.472  0.4209  0.4019  1.0977
 5114TIP3    H236902   4.433   2.451   8.507  0.2141  1.7246  0.1132
 5115TIP3   OH236903   5.079   3.495   4.267 -0.4472 -0.6652  0.3205
 5115TIP3    H136904   5.144   3.469   4.332  0.8566  0.0758 -0.6443
 5115TIP3    H236905   5.032   3.568   4.308  0.3023 -0.2620  0.4665
 5116TIP3   OH236906   3.048   4.328   1.181  0.1769  0.1539  0.2625
 5116TIP3    H136907   3.029   4.368   1.265  1.2267 -0.8885  1.0334
 5116TIP3    H236908   3.021   4.236   1.192  0.9988 -0.1637 -0.2724
 5117TIP3   OH236909   1.523   1.653   2.550  0.5895 -0.3574 -0.0423
 5117TIP3    H136910   1.536   1.559   2.543 -1.0412 -0.5249 -1.3145
 5117TIP3    H236911   1.606   1.686   2.587  0.8658 -2.3469  1.2634
 5118TIP3   OH236912   2.279   6.781   2.499 -0.2957 -0.1783  0.5996
 5118TIP3    H136913   2.290   6.688   2.483  0.9528 -0.1609  1.1854
 5118TIP3    H236914   2.357   6.822   2.460 -0.3071  0.4923  1.2504
 5119TIP3   OH236915   1.868   1.146   3.143 -0.1691  0.2879 -0.1275
 5119TIP3    H136916   1.903   1.120   3.228 -0.7211  0.9067  0.3042
 5119TIP3    H236917   1.773   1.144   3.155 -0.2429  1.0826 -0.4984
 5120TIP3   OH236918   5.752   3.065   1.275 -0.3104 -0.0481  0.5061
 5120TIP3    H136919   5.793   3.056   1.189  0.1330  0.8915  0.5997
 5120TIP3    H236920   5.819   3.107   1.329 -1.4309  1.7219  0.6096
 5121TIP3   OH236921   3.945   2.141   1.032  0.1262  0.0578  0.3471
 5121TIP3    H136922   3.920   2.102   1.116  2.3085 -0.0912  0.9840
 5121TIP3    H236923   3.992   2.071   0.986  0.9697  0.8386 -0.0138
 5122TIP3   OH236924   2.714   3.903   0.537 -0.4797  0.0255  0.0914
 5122TIP3    H136925   2.729   3.943   0.452 -1.1544 -0.0471 -0.0647
 5122TIP3    H236926   2.619   3.898   0.545 -0.5525  2.3153  1.8900
 5123TIP3   OH236927   2.067   2.918   2.547 -0.2630 -0.2065 -0.0003
 5123TIP3    H136928   1.982   2.937   2.509 -0.6494  0.1739  1.0232
 5123TIP3    H236929   2.112   2.866   2.481 -0.9098  0.4286 -0.9619
 5124TIP3   OH236930   5.861   2.134   1.437 -0.6654  0.3099  0.4474
 5124TIP3    H136931   5.843   2.093   1.521  0.5139  1.0650  1.0907
 5124TIP3    H236932   5.904   2.217   1.459  2.3769 -0.7896 -0.9074
 5125TIP3   OH236933   3.351   5.039   2.059 -0.0643  0.0472  0.0381
 5125TIP3    H136934   3.342   4.946   2.077  0.0689 -0.0946 -0.5955
 5125TIP3    H236935   3.361   5.080   2.145 -2.8965 -0.1866  0.5671
 5126TIP3   OH236936   6.548   5.423   1.753  0.1045 -0.3700  0.1287
 5126TIP3    H136937   6.486   5.496   1.746 -1.2741 -1.4804  0.1425
 5126TIP3    H236938   6.529   5.369   1.675  1.8941 -0.1435 -0.4986
 5127TIP3   OH236939   2.777   6.352   2.022  0.6534  0.7440  0.3569
 5127TIP3    H136940   2.725   6.387   2.094  1.2636 -0.3656  1.3565
 5127TIP3    H236941   2.867   6.355   2.054  0.8071 -0.9400  0.1572
 5128TIP3   OH236942   0.250   3.605   1.129 -0.5488  0.2833 -0.3010
 5128TIP3    H136943   0.205   3.625   1.046 -0.1157  0.2275 -0.5519
 5128TIP3    H236944   0.337   3.643   1.118 -0.7446  0.9716  0.4475
 5129TIP3   OH236945   2.030   3.884   0.958  0.5958 -0.3814  0.0368
 5129TIP3    H136946   2.116   3.881   0.916  1.7552 -0.4603  2.2744
 5129TIP3    H236947   2.030   3.966   1.007  0.2302 -1.3149  1.6644
 5130TIP3   OH236948   3.140   0.498   4.340  0.3657  0.6412 -0.1810
 5130TIP3    H136949   3.175   0.587   4.339  1.1678  0.3291 -0.6113
 5130TIP3    H236950   3.054   0.506   4.382 -1.4644  2.3268 -3.8494
 5131TIP3   OH236951   0.837   2.862   0.528 -0.4478 -0.1235  0.2045
 5131TIP3    H136952   0.815   2.833   0.439 -1.0369 -1.7314  0.8515
 5131TIP3    H236953   0.912   2.809   0.553  1.2732  1.9996 -0.1776
 5132TIP3   OH236954   6.560   2.127   3.553 -1.0400  0.0491  0.1819
 5132TIP3    H136955   6.567   2.083   3.468 -0.4094  0.1515  0.1722
 5132TIP3    H236956   6.640   2.102   3.599 -0.4452  1.5154  0.0154
 5133TIP3   OH236957   5.964   4.639   0.755  0.1110  0.6655  1.0759
 5133TIP3    H136958   5.899   4.667   0.690  2.2213  2.0826 -0.5581
 5133TIP3    H236959   6.013   4.718   0.776  1.5352 -0.4149  1.9815
 5134TIP3   OH236960   3.149   4.476   0.590  0.2821  0.0259 -0.2559
 5134TIP3    H136961   3.213   4.408   0.609  0.6461  0.4266 -0.0388
 5134TIP3    H236962   3.195   4.559   0.605 -0.5579  0.3228  0.8256
 5135TIP3   OH236963   6.289   2.018   2.431 -0.1134 -0.5332  0.3231
 5135TIP3    H136964   6.198   1.985   2.427  0.1000 -1.0881 -0.1178
 5135TIP3    H236965   6.286   2.087   2.497 -0.6027 -1.4071  1.2506
 5136TIP3   OH236966   5.390   5.009   4.692  0.4954  0.2161  0.2757
 5136TIP3    H136967   5.298   5.004   4.717 -0.2338 -0.2655 -2.1901
 5136TIP3    H236968   5.406   5.102   4.678  0.5763  0.3637  1.3244
 5137TIP3   OH236969   4.698   6.449   2.706 -0.3578  0.6430 -0.2045
 5137TIP3    H136970   4.632   6.485   2.648  0.3941  0.6278 -1.0975
 5137TIP3    H236971   4.649   6.419   2.783 -1.3897  0.5641 -0.8741
 5138TIP3   OH236972   4.930   4.841   0.605 -1.0795  0.4692  0.5442
 5138TIP3    H136973   4.883   4.920   0.579  0.2318  1.1523  0.1725
 5138TIP3    H236974   4.944   4.793   0.523 -1.0261  0.3342  0.6311
 5139TIP3   OH236975   2.496   5.182   1.645 -0.7024  0.1224 -0.1457
 5139TIP3    H136976   2.438   5.230   1.704 -3.0217 -0.4755 -1.8280
 5139TIP3    H236977   2.475   5.214   1.558  0.4627 -1.1727 -0.9438
 5140TIP3   OH236978   1.611   5.540   4.027 -1.2756 -0.4585  0.2258
 5140TIP3    H136979   1.623   5.456   4.071  0.8046 -0.5586 -0.4457
 5140TIP3    H236980   1.613   5.605   4.097 -0.7143 -0.8142  0.5422
 5141TIP3   OH236981   6.126   3.868   4.300 -0.0464 -0.3587 -0.8177
 5141TIP3    H136982   6.040   3.834   4.324  0.3369 -0.4228  0.5229
 5141TIP3    H236983   6.111   3.914   4.217 -1.4654  0.0342 -0.3673
 5142TIP3   OH236984   1.714   0.315   3.286 -0.2775  0.6135  0.4525
 5142TIP3    H136985   1.735   0.257   3.359 -2.9110 -1.6278 -0.3885
 5142TIP3    H236986   1.643   0.370   3.319 -0.6443  0.4366 -0.0367
 5143TIP3   OH236987   0.151   2.869   8.330 -0.5971  0.4317 -0.0543
 5143TIP3    H136988   0.223   2.871   8.393 -0.2008  0.2239 -0.4896
 5143TIP3    H236989   0.072   2.866   8.383 -0.4010  2.7039  0.4627
 5144TIP3   OH236990   0.172   3.640   2.146 -0.4406 -0.3009  0.0482
 5144TIP3    H136991   0.109   3.705   2.113 -0.2790 -0.8074 -1.3438
 5144TIP3    H236992   0.118   3.564   2.168 -0.4505 -0.3124 -0.0138
 5145TIP3   OH236993   5.215   1.118   3.401 -0.3021 -0.5812 -0.0084
 5145TIP3    H136994   5.178   1.065   3.471 -4.1951 -0.1170 -1.4960
 5145TIP3    H236995   5.213   1.207   3.434  2.5912 -0.7832  1.0138
 5146TIP3   OH236996   1.469   5.948   2.004 -0.1542  0.7427  0.3417
 5146TIP3    H136997   1.411   5.939   1.929 -1.2636 -1.2867  1.3778
 5146TIP3    H236998   1.489   6.042   2.008 -2.6338  1.3741 -0.5792
 5147TIP3   OH236999   2.652   3.305   2.779 -0.4328 -0.0903 -0.3017
 5147TIP3    H137000   2.596   3.360   2.725 -0.4002  0.2009 -0.0398
 5147TIP3    H237001   2.724   3.279   2.722 -1.0084 -0.7447 -0.7432
 5148TIP3   OH237002   6.209   1.123   2.722  0.0839 -0.1365  0.2832
 5148TIP3    H137003   6.288   1.072   2.706 -0.3694 -0.4256 -1.2180
 5148TIP3    H237004   6.212   1.192   2.656 -1.2944 -0.6360 -0.3444
 5149TIP3   OH237005   5.525   6.771   0.796 -0.1402  0.0355  0.1829
 5149TIP3    H137006   5.500   6.846   0.743  1.9614  0.4675 -0.3023
 5149TIP3    H237007   5.455   6.708   0.784 -0.3264  0.6082 -2.1576
 5150TIP3   OH237008   4.750   1.549   2.535  0.0300 -0.1165 -0.4151
 5150TIP3    H137009   4.843   1.567   2.544 -0.1510  0.0247  1.7155
 5150TIP3    H237010   4.718   1.539   2.625 -2.2043  0.8139 -1.0219
 5151TIP3   OH237011   5.291   4.173   4.692  0.5739 -0.7022  0.1775
 5151TIP3    H137012   5.379   4.140   4.675  0.7461 -1.0291  1.5388
 5151TIP3    H237013   5.297   4.215   4.778 -0.9164 -2.1562  1.0730
 5152TIP3   OH237014   4.821   4.522   2.006 -0.7082 -0.0951 -0.3793
 5152TIP3    H137015   4.767   4.579   2.060 -0.6680 -0.4083 -0.0060
 5152TIP3    H237016   4.872   4.582   1.951 -1.2822  0.2026 -0.5889
 5153TIP3   OH237017   0.190   5.936   2.785 -0.1871  0.6383  0.1377
 5153TIP3    H137018   0.224   5.855   2.822  0.5955  1.8166  2.1736
 5153TIP3    H237019   0.121   5.962   2.846 -2.6030 -0.0282 -2.1731
 5154TIP3   OH237020   5.809   4.377   3.476 -0.1490 -0.1659 -0.1661
 5154TIP3    H137021   5.743   4.334   3.422  1.5928 -1.2565 -1.5346
 5154TIP3    H237022   5.810   4.468   3.445  1.1509 -0.8794 -2.3986
 5155TIP3   OH237023   0.733   2.827   2.864  0.1356 -0.1797  0.1715
 5155TIP3    H137024   0.732   2.756   2.927 -1.4831 -0.0250  0.3576
 5155TIP3    H237025   0.783   2.897   2.907  1.2215 -0.9559  0.2205
 5156TIP3   OH237026   4.027   6.246   4.860 -0.1210  0.2030 -0.1642
 5156TIP3    H137027   4.099   6.266   4.920  1.1415 -1.0000 -1.2020
 5156TIP3    H237028   3.957   6.212   4.917  0.6409  0.0815  0.7287
 5157TIP3   OH237029   1.267   2.887   3.341 -0.1640  0.6469  0.6276
 5157TIP3    H137030   1.205   2.944   3.388  0.1358  0.8899  0.7353
 5157TIP3    H237031   1.307   2.945   3.276 -0.4163  0.3650  0.2221
 5158TIP3   OH237032   2.010   6.471   0.526  0.4521  0.0795  0.1205
 5158TIP3    H137033   2.020   6.545   0.586 -0.3914  0.4068 -0.1351
 5158TIP3    H237034   1.917   6.448   0.531  0.7129 -1.0090  0.2447
 5159TIP3   OH237035   5.797   4.013   4.050  0.1265 -0.4643 -0.0209
 5159TIP3    H137036   5.787   3.925   4.014  0.7895 -0.0380 -1.2995
 5159TIP3    H237037   5.791   4.001   4.145 -2.0216 -1.5649 -0.2481
 5160TIP3   OH237038   0.736   0.021   1.327 -0.4896 -0.2277  0.5369
 5160TIP3    H137039   0.737  -0.043   1.256  0.7531  0.3052  0.0385
 5160TIP3    H237040   0.700   0.100   1.286  3.8021  1.3418 -0.7810
 5161TIP3   OH237041   4.407   5.103   4.746 -0.1548 -0.3447 -0.3717
 5161TIP3    H137042   4.413   5.070   4.656  1.3798  0.2825 -0.5408
 5161TIP3    H237043   4.395   5.025   4.800 -2.5842 -0.6202 -1.1960
 5162TIP3   OH237044   0.833   1.710   2.372  0.3441 -0.1985  0.0520
 5162TIP3    H137045   0.791   1.703   2.286 -1.9213  1.5341  0.9274
 5162TIP3    H237046   0.919   1.748   2.353 -1.3221  3.3556 -1.3240
 5163TIP3   OH237047   1.998   6.497   2.661 -0.5092  0.5065 -0.3723
 5163TIP3    H137048   1.923   6.502   2.602 -0.0677  2.4163 -0.8262
 5163TIP3    H237049   2.056   6.432   2.622 -1.5258 -0.3687 -0.4604
 5164TIP3   OH237050   4.253   4.151   1.477  0.4896 -0.3900  0.3017
 5164TIP3    H137051   4.308   4.075   1.496  0.3059 -0.0525  2.4141
 5164TIP3    H237052   4.305   4.226   1.507  0.7962  0.4284 -2.0200
 5165TIP3   OH237053   0.822   1.987   1.543 -0.0098  0.7776  0.5483
 5165TIP3    H137054   0.742   1.965   1.496  0.6675  0.5489 -0.5326
 5165TIP3    H237055   0.821   1.930   1.621 -0.2803 -0.1488 -0.1117
 5166TIP3   OH237056   2.755   1.206   2.477 -0.0567  0.5589  0.0070
 5166TIP3    H137057   2.706   1.124   2.487  0.8709 -0.1721 -1.0648
 5166TIP3    H237058   2.706   1.270   2.528 -1.2322 -0.4925  0.2571
 5167TIP3   OH237059   5.042   2.556   1.319 -0.0876 -0.6061  0.0321
 5167TIP3    H137060   5.097   2.628   1.349  2.4170 -1.3866 -2.2632
 5167TIP3    H237061   5.043   2.492   1.390 -0.2396  0.5070  1.0608
 5168TIP3   OH237062   1.895   4.937   3.215 -0.5108 -0.5479 -0.0915
 5168TIP3    H137063   1.819   4.969   3.264 -1.2562 -0.4588 -1.2723
 5168TIP3    H237064   1.920   4.856   3.260 -2.1791 -1.3266 -0.4908
 5169TIP3   OH237065   1.193   2.089   1.054 -0.0736  0.8500 -0.0055
 5169TIP3    H137066   1.244   2.167   1.032  1.3041 -0.3047 -1.0593
 5169TIP3    H237067   1.259   2.022   1.073 -1.2096  0.2892  2.3746
 5170TIP3   OH237068   3.150   1.594   1.251 -0.1252 -0.6342 -0.4197
 5170TIP3    H137069   3.080   1.545   1.208  1.0976 -0.7360 -2.4747
 5170TIP3    H237070   3.117   1.684   1.254 -1.1903 -1.0351  0.6513
 5171TIP3   OH237071   5.149   2.158   1.365  0.0028  0.3411  0.1566
 5171TIP3    H137072   5.056   2.139   1.355  0.1865  0.4657 -2.5081
 5171TIP3    H237073   5.161   2.243   1.323  1.1831  0.7180  1.2116
 5172TIP3   OH237074   6.041   5.769   4.243  0.8225 -0.5505 -0.1518
 5172TIP3    H137075   6.011   5.854   4.276  1.0102  0.1327 -1.6279
 5172TIP3    H237076   6.136   5.770   4.255  0.8075 -0.6212 -0.0251
 5173TIP3   OH237077   5.359   2.694   2.074  0.3167  0.1099  0.2463
 5173TIP3    H137078   5.309   2.768   2.109 -1.2816 -0.7237 -0.1549
 5173TIP3    H237079   5.305   2.661   2.002  1.5816 -0.7121 -0.3602
 5174TIP3   OH237080   1.780   4.414   2.720  0.1043  0.3771  0.4275
 5174TIP3    H137081   1.873   4.403   2.740 -0.2362 -0.9926  1.4699
 5174TIP3    H237082   1.745   4.459   2.797  0.0501  1.7318 -0.3683
 5175TIP3   OH237083   4.577   2.058   2.603 -0.4538 -0.2950  0.2509
 5175TIP3    H137084   4.508   2.048   2.537 -1.0995 -1.0908  1.0314
 5175TIP3    H237085   4.641   1.991   2.580  0.1765  0.5636 -0.5836
 5176TIP3   OH237086   4.222   5.885   1.628  0.5732 -0.1532  0.9301
 5176TIP3    H137087   4.202   5.791   1.629  2.6383 -0.6359  0.7120
 5176TIP3    H237088   4.136   5.927   1.615 -0.1527 -2.0977 -1.4972
 5177TIP3   OH237089   2.169   5.549   4.548 -0.2816  0.2003 -0.1711
 5177TIP3    H137090   2.168   5.515   4.458  1.2197 -3.5173  1.0341
 5177TIP3    H237091   2.086   5.521   4.586  0.7492 -1.8986  0.6806
 5178TIP3   OH237092   6.026   0.937   1.353 -0.3206  0.1269  0.3173
 5178TIP3    H137093   5.996   0.847   1.339  1.3383 -0.7150  1.7431
 5178TIP3    H237094   6.054   0.966   1.266 -0.8855 -0.7124 -0.1690
 5179TIP3   OH237095   5.038   4.378   2.476  0.2976  0.1121  0.0887
 5179TIP3    H137096   4.955   4.383   2.522  0.0743 -0.9075 -0.1824
 5179TIP3    H237097   5.029   4.440   2.403 -0.1766  0.0929  0.1319
 5180TIP3   OH237098   5.101   6.496   5.424  0.3878  0.4214 -0.4675
 5180TIP3    H137099   5.018   6.478   5.380  0.4206 -1.8495  0.2779
 5180TIP3    H237100   5.094   6.450   5.508  1.7758  1.5476  0.3089
 5181TIP3   OH237101   4.188   3.824   1.667  0.2165 -0.3288 -0.0061
 5181TIP3    H137102   4.106   3.868   1.645  0.5716  0.9150  1.0767
 5181TIP3    H237103   4.195   3.832   1.762  1.3335 -0.9057 -0.0272
 5182TIP3   OH237104   2.360   5.873   1.586 -0.2396  0.2724  0.1212
 5182TIP3    H137105   2.293   5.889   1.652  1.2684 -0.6138  1.9760
 5182TIP3    H237106   2.400   5.790   1.611  1.4063  0.6461 -1.0337
 5183TIP3   OH237107   2.766   5.347   1.918 -0.2777 -0.4223  0.3596
 5183TIP3    H137108   2.747   5.368   2.009 -0.0621  0.0899  0.2874
 5183TIP3    H237109   2.736   5.423   1.868  0.8556 -0.1054  0.1377
 5184TIP3   OH237110   3.460   5.707   2.285 -0.4496 -0.3383  0.0168
 5184TIP3    H137111   3.428   5.790   2.250  1.4501  0.0677 -0.8475
 5184TIP3    H237112   3.385   5.672   2.334 -2.6139  0.0233 -2.7631
 5185TIP3   OH237113   4.266   5.135   2.136  0.0446 -0.2987  0.0364
 5185TIP3    H137114   4.182   5.146   2.091 -0.4308  0.1713  1.0155
 5185TIP3    H237115   4.296   5.224   2.153  0.8206 -0.4629 -0.4345
 5186TIP3   OH237116   5.132   3.323   1.641  0.6381  0.0168 -0.5257
 5186TIP3    H137117   5.165   3.265   1.710 -0.1294  1.1711  0.8719
 5186TIP3    H237118   5.106   3.402   1.688  0.7288  1.1123 -2.2524
 5187TIP3   OH237119   0.167   5.787   3.378 -0.2441 -0.3947  0.2562
 5187TIP3    H137120   0.216   5.711   3.409  0.7250 -0.0166 -0.2947
 5187TIP3    H237121   0.168   5.848   3.452  0.5037 -0.2155  0.1025
 5188TIP3   OH237122   0.561   2.552   3.347  0.4290  0.1522  0.1334
 5188TIP3    H137123   0.524   2.638   3.366  1.6398  0.4530  1.2699
 5188TIP3    H237124   0.531   2.533   3.258  1.6681  2.6128 -0.9230
 5189TIP3   OH237125   4.543   5.417   4.131  0.5182 -0.3749 -0.1802
 5189TIP3    H137126   4.587   5.346   4.177 -1.2120 -0.1687  2.0006
 5189TIP3    H237127   4.552   5.493   4.190 -0.7226  0.2354 -0.7336
 5190TIP3   OH237128   3.002   1.005   1.378  0.9935  0.3096 -0.2078
 5190TIP3    H137129   3.020   0.944   1.449 -1.6608 -1.2188 -0.7182
 5190TIP3    H237130   3.034   1.089   1.409  1.1529 -0.5833  2.2064
 5191TIP3   OH237131   1.034   3.249   1.816  0.4966 -0.4065  0.2970
 5191TIP3    H137132   0.972   3.186   1.852 -0.6020 -0.7884 -2.1307
 5191TIP3    H237133   1.096   3.197   1.766  0.0136  0.3284 -1.1181
 5192TIP3   OH237134   4.866   3.218   1.492 -0.6980 -0.1658  0.2522
 5192TIP3    H137135   4.941   3.266   1.527  0.0102 -0.8290 -0.3181
 5192TIP3    H237136   4.865   3.136   1.541 -2.5031  0.7792  1.9280
 5193TIP3   OH237137   5.790   5.695   1.605  0.3012  0.4895 -0.4026
 5193TIP3    H137138   5.727   5.626   1.627  0.7600 -0.2304 -1.2918
 5193TIP3    H237139   5.738   5.776   1.605  0.1660  0.5538  2.8746
 5194TIP3   OH237140   3.161   6.081   0.314 -0.6320 -0.2707 -0.6963
 5194TIP3    H137141   3.147   5.989   0.295  0.0917 -1.1507  2.4154
 5194TIP3    H237142   3.115   6.096   0.397  2.8172  0.9467  1.2079
 5195TIP3   OH237143   4.383   5.319   3.872  0.0629 -0.0831  0.1748
 5195TIP3    H137144   4.437   5.243   3.850  0.0982 -0.2711  0.8839
 5195TIP3    H237145   4.444   5.379   3.916  0.0191  0.3287 -0.3171
 5196TIP3   OH237146   5.603   3.017   2.429  0.5286  0.2926  0.1407
 5196TIP3    H137147   5.546   3.060   2.493 -1.5754  1.2097 -2.1887
 5196TIP3    H237148   5.636   3.089   2.375  2.8174 -0.3904  0.5212
 5197TIP3   OH237149   2.924   2.435   2.088  0.2891 -0.2919  0.5678
 5197TIP3    H137150   2.954   2.521   2.117 -0.6878  0.1421  0.3147
 5197TIP3    H237151   2.991   2.407   2.024 -1.0951  1.8635 -2.0452
 5198TIP3   OH237152   5.599   2.333   0.494  0.3873  0.6763 -0.1153
 5198TIP3    H137153   5.594   2.320   0.399 -1.0982 -0.4022  0.0721
 5198TIP3    H237154   5.639   2.419   0.504  2.6131 -0.0705 -1.6534
 5199TIP3   OH237155   6.560   5.370   2.545  0.0403  0.2363 -0.6071
 5199TIP3    H137156   6.471   5.374   2.578  0.3682 -0.1709  0.3875
 5199TIP3    H237157   6.615   5.368   2.624  0.9059  0.1138 -1.1917
 5200TIP3   OH237158   3.306   3.340   0.857  0.5461 -0.5924 -0.4364
 5200TIP3    H137159   3.301   3.257   0.809 -0.9842 -1.0661  0.4793
 5200TIP3    H237160   3.381   3.385   0.818 -0.3014 -1.1761 -2.9162
 5201TIP3   OH237161   3.275   5.320   3.719  0.4445  0.9909  0.3805
 5201TIP3    H137162   3.249   5.345   3.630 -0.6016 -1.0503  0.0617
 5201TIP3    H237163   3.319   5.398   3.753  0.7458  1.8899 -1.8565
 5202TIP3   OH237164   0.584   5.919   1.087  0.1221  0.2915 -0.4290
 5202TIP3    H137165   0.647   5.989   1.104  0.3914  0.1319 -0.7497
 5202TIP3    H237166   0.526   5.955   1.019  0.1938  0.2448 -0.5154
 5203TIP3   OH237167   4.732   5.645   5.135 -0.0209  0.4878  0.0912
 5203TIP3    H137168   4.677   5.723   5.131  1.0851  1.2588 -0.7602
 5203TIP3    H237169   4.799   5.659   5.068  1.8418  0.0760  1.7641
 5204TIP3   OH237170   1.667   3.453   0.900 -0.1203  0.4359  0.0075
 5204TIP3    H137171   1.660   3.515   0.827 -3.4264 -0.5205 -0.6552
 5204TIP3    H237172   1.659   3.367   0.860 -2.4227 -0.1135  1.4035
 5205TIP3   OH237173   1.449   0.449   3.079 -0.1687  0.3526  0.6706
 5205TIP3    H137174   1.407   0.425   3.161  0.1870  1.0308  1.0610
 5205TIP3    H237175   1.396   0.521   3.045  1.0458  1.7217  1.5365
 5206TIP3   OH237176   4.528   0.877   2.398 -0.0853 -0.5222  0.9743
 5206TIP3    H137177   4.558   0.966   2.417 -1.3491  1.1278 -3.5267
 5206TIP3    H237178   4.433   0.884   2.391 -0.3294 -2.5215  1.4795
 5207TIP3   OH237179   4.921   2.309   2.296  0.2411  0.0628  0.1763
 5207TIP3    H137180   4.891   2.344   2.212 -0.3825 -2.4668 -0.7373
 5207TIP3    H237181   4.850   2.331   2.357 -0.4262 -0.1304 -0.5068
 5208TIP3   OH237182   0.737   1.824   0.559 -0.1757 -0.0532 -0.6732
 5208TIP3    H137183   0.739   1.777   0.476 -2.4289  2.3779 -2.2772
 5208TIP3    H237184   0.673   1.777   0.612  1.3035 -1.6446 -0.2351
 5209TIP3   OH237185   2.064   6.234   1.624  0.1159  0.0553 -0.0058
 5209TIP3    H137186   2.055   6.276   1.538 -0.2628 -0.7909 -0.3922
 5209TIP3    H237187   2.158   6.216   1.631  0.5535  2.3327  0.8522
 5210TIP3   OH237188   2.427   1.241   0.652 -0.5558  0.3719 -0.1314
 5210TIP3    H137189   2.344   1.287   0.665 -0.7454  0.1540 -0.5283
 5210TIP3    H237190   2.482   1.269   0.724 -1.3602 -0.3727  0.8070
 5211TIP3   OH237191   1.536   4.802   2.533 -0.3245 -0.1122 -0.2534
 5211TIP3    H137192   1.576   4.883   2.562 -0.1727 -0.6688  1.1690
 5211TIP3    H237193   1.549   4.801   2.438 -0.2805  1.4743 -0.2820
 5212TIP3   OH237194   3.551   6.206   4.716 -0.1038  0.1052 -0.2263
 5212TIP3    H137195   3.468   6.248   4.737 -0.7175 -1.3438  0.4064
 5212TIP3    H237196   3.579   6.165   4.798 -2.0599 -4.8975 -1.6729
 5213TIP3   OH237197   6.306   0.753   1.174  0.4275  0.3353  0.6754
 5213TIP3    H137198   6.235   0.766   1.111  0.5038  0.1462  0.5496
 5213TIP3    H237199   6.270   0.692   1.238  1.8864 -3.4184 -1.7646
 5214TIP3   OH237200   4.383   3.358   1.971 -0.9709  0.2468  0.2364
 5214TIP3    H137201   4.394   3.263   1.974  0.0289  0.2919 -1.1763
 5214TIP3    H237202   4.317   3.377   2.038 -1.9409 -1.5371 -0.1750
 5215TIP3   OH237203   5.224   1.393   5.280 -0.0219 -0.2519  0.3322
 5215TIP3    H137204   5.290   1.401   5.349  1.5249  0.4971 -1.1491
 5215TIP3    H237205   5.235   1.472   5.228 -1.1209 -0.8143 -0.8023
 5216TIP3   OH237206   0.636   5.092   3.011 -0.3325  0.6835 -0.3437
 5216TIP3    H137207   0.698   5.048   2.953 -1.8832 -1.3506 -0.6025
 5216TIP3    H237208   0.618   5.176   2.969 -1.6483 -0.8319 -3.1043
 5217TIP3   OH237209   6.582   1.082   8.750  0.9817 -0.0530 -0.2541
 5217TIP3    H137210   6.492   1.071   8.781  1.4591  0.2070  1.3024
 5217TIP3    H237211   6.574   1.139   8.673 -0.3168 -1.3766 -1.1521
 5218TIP3   OH237212   4.586   5.237   0.954 -0.7440 -0.0661 -0.9604
 5218TIP3    H137213   4.610   5.327   0.934  0.3079  0.1341  0.8768
 5218TIP3    H237214   4.612   5.187   0.877  0.5652  0.9346 -1.2012
 5219TIP3   OH237215   1.277   5.634   0.547 -0.1958  0.4721  0.0357
 5219TIP3    H137216   1.279   5.658   0.455  0.9286  1.7805  0.3758
 5219TIP3    H237217   1.368   5.614   0.570 -0.1386  1.8955  1.2596
 5220TIP3   OH237218   6.421   2.125   2.230 -0.2262  0.3469  0.6538
 5220TIP3    H137219   6.385   2.078   2.306 -1.8062  0.3342 -0.0766
 5220TIP3    H237220   6.366   2.202   2.221 -1.1100 -0.4615 -1.4317
 5221TIP3   OH237221   1.432   4.109   3.463  0.0738  0.0939  0.0162
 5221TIP3    H137222   1.486   4.184   3.487  0.4042 -0.4803  1.1343
 5221TIP3    H237223   1.488   4.054   3.408 -0.1538  0.6284 -0.7640
 5222TIP3   OH237224   0.703   4.667   4.596 -0.3980  0.8669 -0.3091
 5222TIP3    H137225   0.688   4.729   4.525 -1.1659  2.0039  0.8134
 5222TIP3    H237226   0.690   4.718   4.676 -1.3425 -0.7970  0.6565
 5223TIP3   OH237227   0.533   6.592   4.966 -0.0911 -0.2176 -0.4771
 5223TIP3    H137228   0.465   6.538   4.927  0.2303 -1.6659  0.8843
 5223TIP3    H237229   0.511   6.596   5.059  1.7151 -0.8064  0.0171
 5224TIP3   OH237230   5.651   5.016   0.292  0.3763  0.1263 -0.6589
 5224TIP3    H137231   5.589   5.017   0.220 -1.7792 -0.1403  1.0813
 5224TIP3    H237232   5.622   5.087   0.350  0.5508 -1.1544  1.0708
 5225TIP3   OH237233   2.049   2.192   3.283 -0.4394 -0.1188  0.5022
 5225TIP3    H137234   2.041   2.281   3.317 -1.8401 -0.4031  0.9885
 5225TIP3    H237235   2.000   2.194   3.201 -1.1071 -0.6207  0.8853
 5226TIP3   OH237236   2.141   1.720   4.552 -0.2147 -0.6496 -0.1189
 5226TIP3    H137237   2.099   1.739   4.636 -1.3235 -0.5639 -0.6790
 5226TIP3    H237238   2.072   1.680   4.499  0.5283 -0.8828 -0.9306
 5227TIP3   OH237239   4.429   4.297   0.560  0.3512 -0.5412 -0.2950
 5227TIP3    H137240   4.363   4.228   0.555  0.4193 -0.6239 -0.1042
 5227TIP3    H237241   4.511   4.252   0.539  0.4680 -0.6341  0.3399
 5228TIP3   OH237242   0.893   5.422   2.790 -0.2523 -0.2047 -0.4034
 5228TIP3    H137243   0.877   5.474   2.868 -0.2747  0.9342 -1.1402
 5228TIP3    H237244   0.958   5.357   2.817 -2.8931 -2.2705  1.5457
 5229TIP3   OH237245   2.660   4.195   1.644 -0.1165 -0.1372 -0.1650
 5229TIP3    H137246   2.654   4.264   1.577  2.2002 -0.5838 -0.9344
 5229TIP3    H237247   2.675   4.115   1.595  0.0491 -0.7459  0.8453
 5230TIP3   OH237248   3.986   3.345   3.441 -0.1950 -0.5907  0.0599
 5230TIP3    H137249   4.025   3.275   3.493 -0.1827 -0.5203  0.1445
 5230TIP3    H237250   3.970   3.305   3.355  1.3696 -0.2276 -0.4221
 5231TIP3   OH237251   3.181   2.570   2.521  0.4885 -0.1922 -0.1121
 5231TIP3    H137252   3.212   2.497   2.468  1.8388  1.3351 -1.5607
 5231TIP3    H237253   3.218   2.554   2.608 -0.5266 -1.9717  0.0420
 5232TIP3   OH237254   1.239   1.980   3.285  0.4042  0.1385 -0.3798
 5232TIP3    H137255   1.288   1.898   3.277  0.5097  0.0060  1.3762
 5232TIP3    H237256   1.156   1.962   3.240  0.9937 -0.4185 -1.3034
 5233TIP3   OH237257   5.763   0.653   0.178 -0.3264 -0.1775  0.1442
 5233TIP3    H137258   5.698   0.617   0.239  0.6502  0.3940  1.5624
 5233TIP3    H237259   5.743   0.746   0.175  0.3285 -0.0204  0.4889
 5234TIP3   OH237260   0.352   6.513   1.550 -0.6941 -0.3768 -0.3414
 5234TIP3    H137261   0.300   6.583   1.511  0.2501  0.7744  0.4044
 5234TIP3    H237262   0.417   6.491   1.483 -0.7752 -0.3047 -0.4448
 5235TIP3   OH237263   2.305   6.464   4.568 -0.4244 -0.0669 -0.3328
 5235TIP3    H137264   2.349   6.546   4.590 -1.1021 -0.1435  1.5025
 5235TIP3    H237265   2.375   6.399   4.567 -0.1121  0.2629 -0.1025
 5236TIP3   OH237266   3.210   2.844   1.193  0.0852  0.2947 -0.2337
 5236TIP3    H137267   3.230   2.765   1.143  1.4095  0.3125  0.2392
 5236TIP3    H237268   3.254   2.831   1.277 -3.4772 -0.5451  1.7386
 5237TIP3   OH237269   4.426   3.943   4.554  0.3441 -0.0579 -0.2559
 5237TIP3    H137270   4.520   3.926   4.563  0.5432  0.1084 -1.7480
 5237TIP3    H237271   4.387   3.857   4.538  0.5144  0.0606 -1.4589
 5238TIP3   OH237272   3.464   6.777   1.292 -0.5694  0.2668  0.2479
 5238TIP3    H137273   3.478   6.713   1.362  2.8570  0.2895 -0.2591
 5238TIP3    H237274   3.504   6.737   1.214 -0.8480  1.8689 -0.7631
 5239TIP3   OH237275   5.686   6.438   2.005 -0.5052 -0.5049  0.0888
 5239TIP3    H137276   5.744   6.383   1.951 -0.6501  0.3899 -1.0163
 5239TIP3    H237277   5.744   6.501   2.046 -0.4248 -1.0391  0.8066
 5240TIP3   OH237278   0.499   3.745   0.471  0.2324  0.2944  0.1401
 5240TIP3    H137279   0.573   3.688   0.494 -0.8022 -0.5799  1.4538
 5240TIP3    H237280   0.431   3.724   0.535 -0.5859  2.2667  0.0016
 5241TIP3   OH237281   3.366   6.227   3.509 -0.0761  0.1747  0.3677
 5241TIP3    H137282   3.280   6.186   3.496  0.7481 -1.2061 -1.0974
 5241TIP3    H237283   3.423   6.155   3.536  1.4800  0.1695 -2.5241
 5242TIP3   OH237284   1.387   2.803   2.352  0.5848 -0.4208 -0.7521
 5242TIP3    H137285   1.422   2.748   2.282 -3.0203 -2.3035 -1.3293
 5242TIP3    H237286   1.297   2.821   2.326  0.2452  2.0663  1.6565
 5243TIP3   OH237287   0.496   2.119   3.357  0.3306  0.1592  0.0036
 5243TIP3    H137288   0.529   2.157   3.275  0.2844  0.8115  0.2824
 5243TIP3    H237289   0.495   2.025   3.341  2.2221  0.1122 -0.0551
 5244TIP3   OH237290   6.231   0.298   4.182  0.0257  0.1065  0.1539
 5244TIP3    H137291   6.191   0.240   4.246 -1.5281 -1.3546 -1.9767
 5244TIP3    H237292   6.323   0.302   4.207  0.0036 -2.5275  0.9973
 5245TIP3   OH237293   1.112   2.606   0.987  0.7340  0.3579  0.5928
 5245TIP3    H137294   1.071   2.578   1.069  1.4729  1.0643  1.2159
 5245TIP3    H237295   1.095   2.534   0.926  1.3638 -0.8119  1.7503
 5246TIP3   OH237296   2.327   6.167   0.831  0.0450 -0.3295 -0.1546
 5246TIP3    H137297   2.372   6.230   0.776 -1.6947  0.0516 -1.2334
 5246TIP3    H237298   2.255   6.217   0.870  1.2369 -0.5566  2.6036
 5247TIP3   OH237299   5.594   1.731   1.800  0.2211 -0.0119  0.3508
 5247TIP3    H137300   5.590   1.688   1.714  1.3609  0.7532 -0.1047
 5247TIP3    H237301   5.681   1.771   1.803 -0.2396  0.9576  1.3938
 5248TIP3   OH237302   2.228   4.150   3.128  0.1869  0.0289  0.3084
 5248TIP3    H137303   2.217   4.153   3.223 -1.2083  0.6396  0.1567
 5248TIP3    H237304   2.143   4.177   3.093  1.6807  3.5462 -1.1076
 5249TIP3   OH237305   5.124   6.588   3.220  0.4294  0.0157 -0.1701
 5249TIP3    H137306   5.115   6.639   3.140 -0.6518  1.1697  0.6516
 5249TIP3    H237307   5.209   6.614   3.256  1.4719 -1.3773 -1.4779
 5250TIP3   OH237308   0.734   5.707   1.399 -0.3397 -0.0118  0.1265
 5250TIP3    H137309   0.663   5.717   1.335  0.0715  0.9388 -0.2118
 5250TIP3    H237310   0.791   5.783   1.383  0.7105 -0.7030  0.4410
 5251TIP3   OH237311   2.798   6.663   0.728  0.0825 -0.2097  0.5078
 5251TIP3    H137312   2.873   6.722   0.713 -0.6599  0.5231 -0.5247
 5251TIP3    H237313   2.826   6.606   0.799  2.4452 -1.3435 -1.2018
 5252TIP3   OH237314   6.770   1.555   3.818  0.6592 -1.0175 -0.2941
 5252TIP3    H137315   6.766   1.645   3.849  1.0203 -1.0581 -0.1283
 5252TIP3    H237316   6.788   1.503   3.896 -1.1119 -1.4156 -0.0925
 5253TIP3   OH237317   0.706   0.660   2.264 -0.4503 -0.1384  0.3447
 5253TIP3    H137318   0.643   0.731   2.272  1.1384  1.4083 -0.2289
 5253TIP3    H237319   0.690   0.605   2.341 -1.5698  0.9475  0.9303
 5254TIP3   OH237320   5.287   6.340   4.474 -0.5033 -0.0959 -0.2762
 5254TIP3    H137321   5.204   6.301   4.446  0.5227 -2.8000  0.1076
 5254TIP3    H237322   5.332   6.269   4.519  0.6574  2.2455  2.5488
 5255TIP3   OH237323   2.018   6.267   4.836  0.1156  0.2394  0.1176
 5255TIP3    H137324   1.998   6.178   4.863  1.0254 -0.7934 -2.3662
 5255TIP3    H237325   2.104   6.262   4.796  0.4454  2.3789  0.3955
 5256TIP3   OH237326   2.120   0.692   0.542 -0.1254  0.1502  0.0636
 5256TIP3    H137327   2.215   0.697   0.553  0.1987  0.5371 -2.3781
 5256TIP3    H237328   2.086   0.762   0.597  1.2104  1.5139 -0.7641
 5257TIP3   OH237329   2.420   5.883   4.286 -0.0273  0.2352  0.4613
 5257TIP3    H137330   2.404   5.954   4.348  2.1526 -0.0945  1.4788
 5257TIP3    H237331   2.486   5.917   4.226 -1.5950  0.2981 -1.3172
 5258TIP3   OH237332   1.085   4.281   3.659  0.2281 -0.2471  0.0919
 5258TIP3    H137333   1.145   4.288   3.733 -0.9233 -0.4426  1.0719
 5258TIP3    H237334   1.072   4.372   3.630 -1.2525  0.1297  1.7649
 5259TIP3   OH237335   3.714   2.705   0.460  0.0755  0.0741  0.4181
 5259TIP3    H137336   3.648   2.636   0.449  2.3922 -1.9923 -1.8608
 5259TIP3    H237337   3.695   2.768   0.390 -0.7709  0.7338  1.2027
 5260TIP3   OH237338   5.224   1.386   1.429 -0.0119 -0.4576  0.3362
 5260TIP3    H137339   5.281   1.313   1.452 -0.3331 -1.1650 -1.0180
 5260TIP3    H237340   5.283   1.453   1.393  0.2274 -0.2055  1.1676
 5261TIP3   OH237341   3.293   4.228   3.260 -0.2046  0.1830  0.1683
 5261TIP3    H137342   3.239   4.202   3.186  1.2458 -0.5658 -0.6727
 5261TIP3    H237343   3.311   4.321   3.246 -1.5450  0.5346  0.6585
 5262TIP3   OH237344   1.592   6.152   3.318  0.3217 -0.3701  0.6165
 5262TIP3    H137345   1.573   6.245   3.333  1.3746 -0.0180 -0.1099
 5262TIP3    H237346   1.625   6.121   3.402 -3.4396 -1.0905  2.0491
 5263TIP3   OH237347   4.692   2.624   3.740 -0.3700  1.0574 -0.7902
 5263TIP3    H137348   4.665   2.556   3.801 -0.0989 -0.2996 -2.1131
 5263TIP3    H237349   4.788   2.620   3.740 -0.3155  2.0387 -0.2552
 5264TIP3   OH237350   5.512   6.165   2.333  0.6340  0.5334  0.3490
 5264TIP3    H137351   5.508   6.241   2.390  2.0171  0.6762  0.2805
 5264TIP3    H237352   5.590   6.117   2.361  1.6597  0.8840 -1.7220
 5265TIP3   OH237353   6.485   1.486   3.979 -0.0103 -0.0951 -0.1930
 5265TIP3    H137354   6.425   1.425   3.938 -1.3973  0.7572  0.4952
 5265TIP3    H237355   6.568   1.438   3.984  0.1277 -0.3997 -3.4624
 5266TIP3   OH237356   5.710   6.549   4.236 -0.2094  0.1739 -0.1145
 5266TIP3    H137357   5.732   6.572   4.146  0.5663 -2.3729 -0.6564
 5266TIP3    H237358   5.630   6.497   4.229 -0.2755  0.1424  0.7026
 5267TIP3   OH237359   4.854   4.169   0.555 -0.2153  0.0239  0.2255
 5267TIP3    H137360   4.863   4.085   0.511  1.2392  1.0363 -1.5609
 5267TIP3    H237361   4.937   4.181   0.601  0.1161  1.0353 -0.6043
 5268TIP3   OH237362   5.333   6.709   1.869  0.2212  0.6662 -0.2234
 5268TIP3    H137363   5.275   6.772   1.827  2.2956  1.7883 -1.5983
 5268TIP3    H237364   5.354   6.747   1.954  0.6734  1.3499 -0.6367
 5269TIP3   OH237365   4.368   5.465   1.212  0.5382  0.0228  0.3366
 5269TIP3    H137366   4.375   5.526   1.285  0.1239 -1.1819  1.4136
 5269TIP3    H237367   4.341   5.520   1.138 -0.0586  1.1139  1.3253
 5270TIP3   OH237368   2.178   4.982   1.777 -0.1500 -0.0010 -0.5305
 5270TIP3    H137369   2.130   5.035   1.841  0.7657  1.7573 -1.2312
 5270TIP3    H237370   2.263   4.967   1.818 -0.6963 -1.7864  0.0491
 5271TIP3   OH237371   5.179   0.218   4.275 -0.8695 -0.0799  0.0009
 5271TIP3    H137372   5.211   0.308   4.273  3.7189 -1.4626 -1.3355
 5271TIP3    H237373   5.121   0.212   4.199  0.2532  1.3659 -1.0427
 5272TIP3   OH237374   5.688   2.477   4.227  0.3293 -0.0784  0.4965
 5272TIP3    H137375   5.599   2.509   4.245  0.4363 -0.2622  1.3861
 5272TIP3    H237376   5.690   2.389   4.266  0.4098 -0.7233 -0.8892
 5273TIP3   OH237377   2.729   5.106   1.744 -0.3727  0.1484  1.0610
 5273TIP3    H137378   2.755   5.170   1.810  0.6165  1.2133 -0.2934
 5273TIP3    H237379   2.643   5.135   1.715  0.5566  1.6454 -0.3834
 5274TIP3   OH237380   2.090   5.279   0.777 -0.4709  0.1186  0.4109
 5274TIP3    H137381   2.174   5.267   0.734  0.2559  1.5318  1.3363
 5274TIP3    H237382   2.099   5.234   0.861 -0.3367  0.9161  0.8355
 5275TIP3   OH237383   0.389   6.169   1.535  0.5248  0.2625 -0.4815
 5275TIP3    H137384   0.443   6.243   1.565 -0.0950  0.7366 -0.5036
 5275TIP3    H237385   0.385   6.180   1.440  0.1135  0.4375 -0.4497
 5276TIP3   OH237386   1.323   4.412   1.267  0.2817 -0.6952  0.2247
 5276TIP3    H137387   1.380   4.393   1.342  0.0646 -2.4679 -0.0019
 5276TIP3    H237388   1.250   4.461   1.305  1.6483  1.1214  0.6114
 5277TIP3   OH237389   1.031   4.962   4.488 -0.4658 -0.1674  0.0750
 5277TIP3    H137390   1.000   5.007   4.567  1.0290 -0.6559  0.9922
 5277TIP3    H237391   0.998   4.873   4.496  0.4964 -0.4820  0.6653
 5278TIP3   OH237392   6.716   0.906   2.977 -0.2743  0.2567 -0.0985
 5278TIP3    H137393   6.690   0.904   3.069  1.7206 -0.4819  0.5028
 5278TIP3    H237394   6.679   0.826   2.940  0.1719 -0.2042  0.4411
 5279TIP3   OH237395   4.873   2.017   2.055  0.1405  0.3928  0.5098
 5279TIP3    H137396   4.804   2.040   2.118  0.0383 -0.1850  0.6096
 5279TIP3    H237397   4.835   2.039   1.970  0.6332  2.0729  0.6965
 5280TIP3   OH237398   3.845   5.057   1.445  0.0701 -0.4471 -0.3512
 5280TIP3    H137399   3.921   5.000   1.440  0.0505 -0.3895 -2.1653
 5280TIP3    H237400   3.851   5.112   1.367 -0.8458  0.8436  0.4347
 5281TIP3   OH237401   6.634   6.342   3.516 -0.1099 -0.2820  0.7680
 5281TIP3    H137402   6.706   6.282   3.498  2.4261  2.1429  1.9421
 5281TIP3    H237403   6.582   6.344   3.436  2.1768 -0.8338 -0.8094
 5282TIP3   OH237404   2.322   4.166   1.389  0.4116 -0.2094 -0.0960
 5282TIP3    H137405   2.412   4.144   1.366  0.2778 -2.3680  1.1581
 5282TIP3    H237406   2.291   4.091   1.439 -2.4158  0.0429 -1.2705
 5283TIP3   OH237407   1.905   3.868   4.653  0.4859 -0.3013  0.1285
 5283TIP3    H137408   1.907   3.936   4.585 -2.8497 -0.9344 -0.7806
 5283TIP3    H237409   1.984   3.884   4.704  1.4453  2.2978 -1.8992
 5284TIP3   OH237410   5.175   6.747   1.245 -0.1809 -0.0889  0.0456
 5284TIP3    H137411   5.197   6.814   1.180 -1.8827  0.4491 -0.0247
 5284TIP3    H237412   5.120   6.685   1.198 -1.3841  0.2750  0.9155
 5285TIP3   OH237413   4.167   5.206   2.666  0.0245  0.1562 -0.7052
 5285TIP3    H137414   4.163   5.154   2.747  0.3943  0.8613 -0.2181
 5285TIP3    H237415   4.251   5.252   2.671 -0.6804  1.4930 -0.6655
 5286TIP3   OH237416   1.373   4.167   1.558 -0.6540  0.3355  0.4316
 5286TIP3    H137417   1.361   4.165   1.653  2.3968 -2.3805  0.9621
 5286TIP3    H237418   1.449   4.224   1.544 -0.1149 -0.5021 -0.1676
 5287TIP3   OH237419   5.001   4.763   1.864  0.0900  0.5974  0.7898
 5287TIP3    H137420   5.056   4.686   1.880  1.3866  1.5810  1.2457
 5287TIP3    H237421   4.929   4.731   1.810  0.5964 -0.9330  0.9914
 5288TIP3   OH237422   6.095   2.342   1.251 -0.1975 -0.2762 -0.6410
 5288TIP3    H137423   6.162   2.298   1.303  0.4363  0.7988 -0.5239
 5288TIP3    H237424   6.094   2.295   1.167 -0.3065 -1.1873 -0.1469
 5289TIP3   OH237425   4.035   5.365   2.290  0.2596  0.0365  0.0298
 5289TIP3    H137426   4.128   5.382   2.275  0.4056 -1.5266 -1.1851
 5289TIP3    H237427   3.990   5.416   2.223  0.3175  0.0087 -0.0307
 5290TIP3   OH237428   2.352   3.709   3.400  0.6403 -0.5700 -0.1333
 5290TIP3    H137429   2.408   3.750   3.466  1.1800 -0.7373 -0.4871
 5290TIP3    H237430   2.293   3.653   3.451 -0.1080  0.6230  0.3619
 5291TIP3   OH237431   1.857   0.064   2.731 -0.3280  0.4343 -0.6151
 5291TIP3    H137432   1.867   0.094   2.640  0.7303 -1.2034 -1.0951
 5291TIP3    H237433   1.940   0.020   2.750  0.3993  2.6951  1.9868
 5292TIP3   OH237434   4.460   3.489   3.822 -0.3139  0.0627 -0.0668
 5292TIP3    H137435   4.432   3.527   3.905 -2.4044 -0.9252 -0.2379
 5292TIP3    H237436   4.384   3.438   3.793  1.0857 -1.2540 -1.5939
 5293TIP3   OH237437   2.078   5.456   0.184  0.1005 -0.1171  0.1992
 5293TIP3    H137438   2.054   5.386   0.123 -0.9076  0.5941 -0.2468
 5293TIP3    H237439   2.004   5.462   0.245 -0.4056  1.3680 -0.5158
 5294TIP3   OH237440   0.383   0.706   4.277 -0.4533  0.4998 -0.1839
 5294TIP3    H137441   0.450   0.737   4.338  0.5102 -0.5281 -0.6751
 5294TIP3    H237442   0.308   0.763   4.292  0.9306  2.4768 -0.4714
 5295TIP3   OH237443   1.645   6.589   1.535  0.4708 -0.0720  0.4192
 5295TIP3    H137444   1.571   6.625   1.584 -0.8914 -0.4105 -1.2811
 5295TIP3    H237445   1.688   6.665   1.497  0.0113  0.0251  0.0879
 5296TIP3   OH237446   1.021   6.637   0.669 -0.5917 -0.1553 -0.3522
 5296TIP3    H137447   1.054   6.706   0.611  1.4073 -1.5066 -0.9116
 5296TIP3    H237448   1.034   6.671   0.757 -0.3059  0.4643 -0.6264
 5297TIP3   OH237449   0.027   0.071   1.945 -0.7037  0.3794  0.1523
 5297TIP3    H137450  -0.007  -0.014   1.972  0.8409 -0.5464 -0.6215
 5297TIP3    H237451   0.037   0.120   2.026 -1.1629 -0.3672  0.6739
 5298TIP3   OH237452   4.485   4.378   3.879 -0.1096 -0.0305  0.3642
 5298TIP3    H137453   4.542   4.434   3.931  1.1768 -0.8583 -0.1045
 5298TIP3    H237454   4.462   4.305   3.938  0.9961 -0.7440 -0.0580
 5299TIP3   OH237455   0.293   5.190   1.029 -0.2548 -0.1778  0.2516
 5299TIP3    H137456   0.249   5.200   1.114  1.6666  0.4707  1.2243
 5299TIP3    H237457   0.298   5.279   0.995 -1.2797 -0.4677 -0.7301
 5300TIP3   OH237458   6.543   3.400   2.878  0.0380 -0.1351 -0.6703
 5300TIP3    H137459   6.482   3.470   2.901  0.6847 -0.2518  1.5862
 5300TIP3    H237460   6.569   3.421   2.788 -2.0976  0.7774 -1.1455
 5301TIP3   OH237461   1.419   3.520   1.811 -0.3537  0.3722  0.4960
 5301TIP3    H137462   1.490   3.557   1.863  0.5892  0.2628 -0.6549
 5301TIP3    H237463   1.407   3.582   1.739 -0.5523 -0.2323 -0.0057
 5302TIP3   OH237464   4.943   4.403   3.999 -0.2794 -0.4624 -0.1084
 5302TIP3    H137465   4.994   4.352   3.936 -1.2828 -1.4355 -0.1730
 5302TIP3    H237466   5.003   4.419   4.071  0.5501 -0.3074 -0.8190
 5303TIP3   OH237467   6.060   5.176   3.249  0.1319 -0.3062 -0.2959
 5303TIP3    H137468   5.967   5.191   3.234 -0.5339 -2.3436  1.1845
 5303TIP3    H237469   6.096   5.261   3.273 -1.5097  0.3823 -0.2047
 5304TIP3   OH237470   3.250   0.042   3.827 -0.2402  0.2924  0.3290
 5304TIP3    H137471   3.275   0.044   3.735  0.6454 -1.6288  0.4827
 5304TIP3    H237472   3.325   0.004   3.872 -0.9209  0.5521  1.7723
 5305TIP3   OH237473   6.252   1.589   1.548 -0.3038  0.6046  0.2951
 5305TIP3    H137474   6.293   1.597   1.462 -0.1914  1.2735  0.4081
 5305TIP3    H237475   6.283   1.504   1.581 -1.3237 -0.2427 -0.8231
 5306TIP3   OH237476   5.572   1.516   0.842  0.4497  0.1912  0.5823
 5306TIP3    H137477   5.495   1.536   0.895 -0.2978 -2.5181  0.7029
 5306TIP3    H237478   5.568   1.578   0.769 -2.2361 -0.2460  0.2546
 5307TIP3   OH237479   0.230   0.723   0.684 -0.2753  0.0148 -0.3821
 5307TIP3    H137480   0.260   0.744   0.596 -1.7551 -0.3040 -0.9996
 5307TIP3    H237481   0.166   0.792   0.704 -1.3188 -0.9351 -0.3353
 5308TIP3   OH237482   4.426   5.161   3.315 -1.0442 -0.7073 -0.5327
 5308TIP3    H137483   4.480   5.235   3.286 -1.3326 -0.1577  0.3030
 5308TIP3    H237484   4.453   5.145   3.405 -2.8730  0.1716  0.2262
 5309TIP3   OH237485   0.567   6.605   0.071 -0.5583  0.2082  0.2132
 5309TIP3    H137486   0.600   6.679   0.122  0.4050  0.6510 -0.9899
 5309TIP3    H237487   0.497   6.568   0.125 -0.9949  1.9272  0.8946
 5310TIP3   OH237488   4.516   6.741   0.523  0.1860  0.1239  0.0305
 5310TIP3    H137489   4.431   6.754   0.564  0.3805  1.9700 -0.0657
 5310TIP3    H237490   4.576   6.795   0.574  1.4276 -1.4887  0.3671
 5311TIP3   OH237491   0.129   5.179   5.067  0.3987  0.4316  0.0019
 5311TIP3    H137492   0.207   5.182   5.011  0.3658  1.3578 -0.0219
 5311TIP3    H237493   0.114   5.086   5.084  1.2933  0.2252 -0.2984
 5312TIP3   OH237494   5.220   0.381   1.462  0.5089 -0.1078  0.4043
 5312TIP3    H137495   5.178   0.454   1.418 -1.3546 -1.1749  0.3030
 5312TIP3    H237496   5.286   0.350   1.400  1.9552  1.9855  0.8123
 5313TIP3   OH237497   3.252   0.563   3.564 -0.0274  0.3786  0.4756
 5313TIP3    H137498   3.239   0.604   3.478 -0.8251  0.2479  0.5293
 5313TIP3    H237499   3.164   0.549   3.598  0.2861  0.6950  1.4519
 5314TIP3   OH237500   1.178   6.550   0.300  0.9650  0.3440  0.6378
 5314TIP3    H137501   1.257   6.602   0.284  1.3373 -0.6274 -0.8901
 5314TIP3    H237502   1.106   6.611   0.285  1.3854  0.3988 -1.5122
 5315TIP3   OH237503   5.814   2.045   4.159  0.2304 -0.3092  0.1332
 5315TIP3    H137504   5.757   2.095   4.217  0.7434 -0.3852  0.7102
 5315TIP3    H237505   5.783   1.955   4.165  0.9301 -0.5092  1.1242
 5316TIP3   OH237506   0.718   0.862   2.529  0.6540 -0.0561  0.2762
 5316TIP3    H137507   0.804   0.897   2.505  0.1103  0.5287 -0.9024
 5316TIP3    H237508   0.718   0.864   2.625  1.8201  0.2512  0.2923
 5317TIP3   OH237509   1.267   3.810   1.765  0.1626 -0.1163  0.2989
 5317TIP3    H137510   1.178   3.843   1.766 -0.1148 -0.6208 -1.7498
 5317TIP3    H237511   1.315   3.864   1.828 -1.6004  0.0412  1.5573
 5318TIP3   OH237512   4.403   1.140   4.463 -0.3602  0.7078 -0.2214
 5318TIP3    H137513   4.457   1.064   4.443  0.9713  0.8825  2.3659
 5318TIP3    H237514   4.460   1.198   4.512 -2.0040  2.3709 -0.1715
 5319TIP3   OH237515   5.601   4.204   1.886  0.5540 -0.1616  0.3554
 5319TIP3    H137516   5.516   4.228   1.923  0.9079  1.1466  0.3985
 5319TIP3    H237517   5.664   4.234   1.951  1.1064  0.4973 -0.4547
 5320TIP3   OH237518   3.249   4.708   0.684  0.4488 -0.3087  0.1458
 5320TIP3    H137519   3.272   4.801   0.680 -0.9109  0.1690  2.1914
 5320TIP3    H237520   3.221   4.693   0.774 -0.4034 -2.4574 -0.4035
 5321TIP3   OH237521   6.377   3.261   0.495 -0.8479 -0.6014  0.0432
 5321TIP3    H137522   6.321   3.233   0.423 -0.9066 -0.3296 -0.0182
 5321TIP3    H237523   6.466   3.240   0.465 -0.8855 -0.6438 -0.0380
 5322TIP3   OH237524   1.289   1.588   0.789  0.3750  0.1966  0.1148
 5322TIP3    H137525   1.228   1.640   0.737 -1.5407 -1.1261  0.9371
 5322TIP3    H237526   1.244   1.574   0.873  1.6069 -1.2084  0.5921
 5323TIP3   OH237527   1.981   5.795   4.072  0.0112 -0.1660  0.5246
 5323TIP3    H137528   1.889   5.775   4.087  0.3727 -0.6708  2.2311
 5323TIP3    H237529   2.028   5.715   4.096  1.0389  0.7680  1.7732
 5324TIP3   OH237530   2.574   3.411   1.326 -0.5713  0.3844  0.4442
 5324TIP3    H137531   2.636   3.463   1.275 -0.6296  1.3237  1.3048
 5324TIP3    H237532   2.571   3.327   1.280  1.4716  0.2427  0.4402
 5325TIP3   OH237533   5.911   1.317   4.628  0.1636  0.0228  0.3054
 5325TIP3    H137534   5.882   1.319   4.537  0.1468 -1.2055  0.2716
 5325TIP3    H237535   5.970   1.242   4.633  0.0170 -0.0394  1.3459
 5326TIP3   OH237536   0.983   3.553   1.648 -0.2261 -0.0721  0.1495
 5326TIP3    H137537   1.018   3.528   1.733  1.3884 -0.3328 -0.5597
 5326TIP3    H237538   0.958   3.470   1.607  0.0205 -0.0408 -0.0631
 5327TIP3   OH237539   2.195   2.447   3.464 -0.2478 -0.2105  0.0861
 5327TIP3    H137540   2.222   2.537   3.445 -0.5416 -0.2424 -0.5019
 5327TIP3    H237541   2.119   2.432   3.408  0.7301 -1.3461 -1.0061
 5328TIP3   OH237542   5.795   5.641   4.259  0.9460 -0.0286 -0.2219
 5328TIP3    H137543   5.887   5.665   4.250  1.0181 -0.6568 -1.3666
 5328TIP3    H237544   5.775   5.655   4.351  1.8900  1.1585 -0.1707
 5329TIP3   OH237545   1.278   2.834   1.104  0.6283 -0.3004  0.0157
 5329TIP3    H137546   1.222   2.759   1.088  1.2275 -0.4193 -1.6961
 5329TIP3    H237547   1.240   2.905   1.052  0.0137  0.6569  1.6794
 5330TIP3   OH237548   4.303   1.379   3.874  0.3661 -0.1941 -0.1353
 5330TIP3    H137549   4.364   1.444   3.907  1.0139 -0.8599 -0.0042
 5330TIP3    H237550   4.231   1.379   3.937 -0.3071  1.3425 -0.8485
 5331TIP3   OH237551   2.197   4.007   2.277  0.5623  0.3073  0.1937
 5331TIP3    H137552   2.251   3.928   2.281 -0.6708 -0.6307 -0.6916
 5331TIP3    H237553   2.259   4.079   2.268  1.7012 -0.6040  0.5447
 5332TIP3   OH237554   2.887   4.776   1.008 -0.7184 -0.4675 -0.1729
 5332TIP3    H137555   2.829   4.769   0.932  1.0345 -1.0126 -1.5335
 5332TIP3    H237556   2.905   4.869   1.016  2.5079 -0.6281 -3.2737
 5333TIP3   OH237557   2.659   3.562   4.280 -0.3179  0.7117  0.3404
 5333TIP3    H137558   2.677   3.613   4.201 -0.9880 -0.2877 -0.4876
 5333TIP3    H237559   2.597   3.494   4.251  2.2430 -2.0355  0.8079
 5334TIP3   OH237560   3.573   0.741   1.162 -0.0377 -0.2537  0.3286
 5334TIP3    H137561   3.642   0.675   1.161 -0.7203 -0.9905 -0.7811
 5334TIP3    H237562   3.519   0.717   1.238  0.2228 -0.4195  0.4639
 5335TIP3   OH237563   0.538   3.455   1.452  0.0090  0.2445  0.2564
 5335TIP3    H137564   0.519   3.513   1.526  0.5866 -1.4356  1.7727
 5335TIP3    H237565   0.455   3.450   1.405 -1.4652 -1.4436  2.8249
 5336TIP3   OH237566   6.030   1.739   4.523 -0.7779  0.3402 -0.7233
 5336TIP3    H137567   6.037   1.781   4.437 -3.0753  3.0357  0.2366
 5336TIP3    H237568   5.944   1.697   4.522 -0.7946  0.3222  0.1726
 5337TIP3   OH237569   3.025   4.938   0.565  0.2369  0.2050  0.1600
 5337TIP3    H137570   3.071   4.992   0.629  0.1323 -0.1010  0.4997
 5337TIP3    H237571   3.009   4.855   0.611  2.5668 -1.0609 -1.1186
 5338TIP3   OH237572   5.116   4.970   4.028 -0.5382  0.0867 -0.0908
 5338TIP3    H137573   5.196   4.996   4.074  0.6635 -1.7968 -0.9739
 5338TIP3    H237574   5.138   4.981   3.935 -1.5382  0.1204 -0.3302
 5339TIP3   OH237575   0.598   6.542   3.253  0.2964  0.0654 -0.4617
 5339TIP3    H137576   0.542   6.587   3.316  1.3615  0.2374  0.3763
 5339TIP3    H237577   0.682   6.531   3.298  0.1293 -2.6557 -0.6721
 5340TIP3   OH237578   2.074   2.882   3.442 -0.1253  0.3465 -0.2476
 5340TIP3    H137579   2.077   2.811   3.507 -0.0407  0.2919 -0.3118
 5340TIP3    H237580   1.983   2.911   3.443 -0.0808  0.4894  0.0513
 5341TIP3   OH237581   5.278   4.928   2.561  0.6319 -0.0926  0.3563
 5341TIP3    H137582   5.288   4.865   2.489 -0.9946  0.0889 -0.0748
 5341TIP3    H237583   5.250   4.875   2.635  2.6365 -0.3294  1.0067
 5342TIP3   OH237584   0.676   3.291   2.936  0.6668 -0.9724  0.1556
 5342TIP3    H137585   0.591   3.282   2.891  0.2542 -0.3030  0.7779
 5342TIP3    H237586   0.734   3.231   2.889 -0.4203 -2.2729  0.4124
 5343TIP3   OH237587   2.803   1.972   2.146 -0.0287 -0.2437  0.4270
 5343TIP3    H137588   2.882   1.939   2.104 -0.2586  1.0470 -1.1526
 5343TIP3    H237589   2.774   2.043   2.089 -1.2590  0.5885  1.9974
 5344TIP3   OH237590   0.009   5.363   0.985  0.2936 -0.0412 -0.4474
 5344TIP3    H137591   0.076   5.415   1.031  1.7276 -2.3581  0.3029
 5344TIP3    H237592   0.022   5.384   0.893  0.9097  0.8271 -0.1848
 5345TIP3   OH237593   0.141   4.229   4.409  0.6445  0.0396 -0.2843
 5345TIP3    H137594   0.208   4.198   4.348  0.3532 -1.5866  0.1898
 5345TIP3    H237595   0.175   4.209   4.496  0.0615  0.2980  0.0130
 5346TIP3   OH237596   4.910   3.175   0.924  0.2811 -0.2474  0.2174
 5346TIP3    H137597   4.907   3.257   0.972 -1.0264 -0.0543 -0.1595
 5346TIP3    H237598   4.907   3.107   0.991  0.4618  0.0164  0.4904
 5347TIP3   OH237599   2.905   2.037   3.156  0.1018  0.2512 -0.1137
 5347TIP3    H137600   2.854   2.034   3.075  0.8430 -1.4497 -0.5586
 5347TIP3    H237601   2.845   2.008   3.224 -0.2242  0.6967 -0.2027
 5348TIP3   OH237602   0.979   0.129   1.818 -0.3422 -0.3734  0.7316
 5348TIP3    H137603   0.941   0.103   1.734  0.0555 -0.2156  0.5010
 5348TIP3    H237604   0.929   0.080   1.884 -0.2957 -0.9132  0.3700
 5349TIP3   OH237605   5.330   0.873   2.017  0.3298 -0.0330  0.0708
 5349TIP3    H137606   5.258   0.823   2.056 -0.2168  0.7658  0.1297
 5349TIP3    H237607   5.361   0.929   2.088  0.0892  0.6061 -0.3182
 5350TIP3   OH237608   0.091   1.694   1.127 -0.1465  0.4347 -0.0588
 5350TIP3    H137609   0.042   1.612   1.137 -1.7363  1.3290 -0.1901
 5350TIP3    H237610   0.043   1.758   1.179  0.9731  1.3475 -0.0975
 5351TIP3   OH237611   6.057   3.257   4.282  0.3130  0.3159 -0.3130
 5351TIP3    H137612   6.044   3.168   4.251  2.4579  0.4084 -1.7792
 5351TIP3    H237613   6.102   3.248   4.366 -0.3766  0.0215  0.0237
 5352TIP3   OH237614   0.135   4.535   3.008 -0.1536 -0.1564 -0.0430
 5352TIP3    H137615   0.186   4.462   3.044 -2.3044 -1.6060  0.2345
 5352TIP3    H237616   0.161   4.611   3.060 -0.0268 -1.3353  1.6867
 5353TIP3   OH237617   3.786   2.038   1.293  0.5677 -0.3309  0.5315
 5353TIP3    H137618   3.808   1.959   1.341 -0.4054 -0.2841  1.0857
 5353TIP3    H237619   3.824   2.109   1.345  2.4917 -0.4697 -0.5916
 5354TIP3   OH237620   3.174   6.622   2.139  0.0350 -0.5041  0.4691
 5354TIP3    H137621   3.144   6.689   2.201 -3.4819 -0.6868 -0.7767
 5354TIP3    H237622   3.201   6.671   2.062 -0.2322 -0.4293  0.4219
 5355TIP3   OH237623   6.259   1.578   2.658 -0.0486  0.5791 -0.1393
 5355TIP3    H137624   6.316   1.567   2.734  0.5886 -0.1496 -0.7051
 5355TIP3    H237625   6.302   1.644   2.604 -0.3025  0.8196 -0.0472
 5356TIP3   OH237626   5.356   0.850   5.101 -0.0215 -0.0187  0.1997
 5356TIP3    H137627   5.364   0.938   5.138 -0.4017 -0.0881  0.4516
 5356TIP3    H237628   5.443   0.811   5.113 -0.2145 -0.1438  1.2945
 5357TIP3   OH237629   0.098   5.445   1.554  0.1842  0.7916 -0.5839
 5357TIP3    H137630   0.079   5.501   1.629 -1.4156 -1.3469  0.7444
 5357TIP3    H237631   0.014   5.437   1.509  0.0294 -1.4139 -0.0226
 5358TIP3   OH237632   3.684   3.615   1.809  0.3757 -0.5348  0.3714
 5358TIP3    H137633   3.696   3.700   1.766  0.4051 -0.0238  1.3728
 5358TIP3    H237634   3.767   3.570   1.794  0.4552 -0.2936  0.0599
 5359TIP3   OH237635   1.917   0.455   3.183 -0.2196 -0.3141 -0.0894
 5359TIP3    H137636   1.843   0.406   3.218 -0.5761  0.3178  0.0526
 5359TIP3    H237637   1.882   0.542   3.164  0.2387 -0.3068 -0.9719
 5360TIP3   OH237638   0.946   3.401   0.538  0.8040  0.0860  0.3851
 5360TIP3    H137639   0.872   3.448   0.576 -1.4389 -1.8257 -1.2580
 5360TIP3    H237640   0.935   3.414   0.443  1.8976 -1.1842  0.0663
 5361TIP3   OH237641   5.579   5.028   4.454 -0.0451  0.4808 -0.0274
 5361TIP3    H137642   5.543   4.999   4.537 -1.0546  1.4976 -0.0831
 5361TIP3    H237643   5.639   4.958   4.427  0.7813  0.4174  1.8433
 5362TIP3   OH237644   2.561   4.460   1.424  0.7408 -0.3654  0.5383
 5362TIP3    H137645   2.643   4.497   1.391  1.2058 -0.1430  1.8764
 5362TIP3    H237646   2.549   4.501   1.510 -1.7895  1.1052 -0.3783
 5363TIP3   OH237647   2.835   5.611   0.517  0.2766  0.1970 -0.0777
 5363TIP3    H137648   2.802   5.698   0.499  1.6438  0.7945  0.1269
 5363TIP3    H237649   2.889   5.589   0.441 -0.6198 -0.7730 -0.4495
 5364TIP3   OH237650   5.113   0.800   4.143  0.0569 -0.0058  0.2611
 5364TIP3    H137651   5.125   0.756   4.227 -1.8474 -0.9370  0.1047
 5364TIP3    H237652   5.077   0.886   4.165  2.7967  1.1606  0.5144
 5365TIP3   OH237653   4.655   1.433   1.174 -0.1239  0.0986 -0.5123
 5365TIP3    H137654   4.678   1.484   1.096  1.2110 -0.6757 -0.6472
 5365TIP3    H237655   4.649   1.497   1.244  1.8053  0.4519 -0.6176
 5366TIP3   OH237656   2.918   0.017   2.723  0.8584 -0.5529  0.4315
 5366TIP3    H137657   2.860  -0.055   2.747  0.7535 -0.5464  0.2020
 5366TIP3    H237658   2.986  -0.025   2.670 -1.8545  0.1257 -4.1691
 5367TIP3   OH237659   6.459   1.768   3.544 -0.3503 -0.2675 -0.5071
 5367TIP3    H137660   6.503   1.690   3.510 -0.5677 -0.2498 -0.8466
 5367TIP3    H237661   6.503   1.788   3.626 -2.2122 -2.5358  1.1809
 5368TIP3   OH237662   0.461   0.215   0.988  0.0646  0.7603 -0.5000
 5368TIP3    H137663   0.382   0.199   0.935  0.6959  0.8756 -1.4939
 5368TIP3    H237664   0.507   0.284   0.941  0.9038  0.4899 -0.0848
 5369TIP3   OH237665   5.901   4.038   2.232  0.3378  0.0974  0.0653
 5369TIP3    H137666   5.977   4.096   2.230  2.6166 -2.6889  0.2326
 5369TIP3    H237667   5.890   4.015   2.324 -0.3793  0.0362 -0.0292
 5370TIP3   OH237668   6.648   5.290   3.324 -0.0027 -0.1320  0.1642
 5370TIP3    H137669   6.570   5.345   3.317 -0.8558 -1.3263  0.0128
 5370TIP3    H237670   6.690   5.319   3.406 -0.4689  0.6775  0.1279
 5371TIP3   OH237671   0.411   3.888   1.332  0.4600  0.7215  0.2984
 5371TIP3    H137672   0.472   3.960   1.344  1.2128  0.0708  0.4631
 5371TIP3    H237673   0.454   3.813   1.373 -0.2641  0.1558  0.0496
 5372TIP3   OH237674   2.460   3.245   3.039  0.0311 -0.3663 -0.0750
 5372TIP3    H137675   2.555   3.250   3.049  0.2794 -2.0420 -1.1220
 5372TIP3    H237676   2.445   3.272   2.948 -0.4572 -0.3176  0.0226
 5373TIP3   OH237677   1.682   2.786   2.220 -0.0927 -0.0675 -0.0684
 5373TIP3    H137678   1.618   2.724   2.185 -0.6923  1.2276 -1.3571
 5373TIP3    H237679   1.692   2.852   2.151  1.6170  0.4923  0.6673
 5374TIP3   OH237680   4.422   3.636   1.688  0.6736  0.3137 -0.5932
 5374TIP3    H137681   4.483   3.578   1.733 -0.0177 -0.1353 -0.2247
 5374TIP3    H237682   4.440   3.723   1.724  0.3606  0.0128  0.3031
 5375TIP3   OH237683   3.666   6.265   2.697 -0.3331  0.1842  0.5356
 5375TIP3    H137684   3.695   6.354   2.720  0.1383 -0.1405  1.2334
 5375TIP3    H237685   3.673   6.216   2.779  1.1695 -0.9681 -0.2307
 5376TIP3   OH237686   4.791   4.387   2.634 -0.2856 -0.1411  0.0560
 5376TIP3    H137687   4.721   4.408   2.572 -0.1091  0.9451  0.2099
 5376TIP3    H237688   4.790   4.459   2.697  0.8251 -0.2202  0.1842
 5377TIP3   OH237689   0.065   2.176   3.334  0.2216 -0.4355  0.0408
 5377TIP3    H137690   0.132   2.180   3.402  0.9396  1.7724 -0.7157
 5377TIP3    H237691   0.021   2.261   3.338 -0.7158 -0.8177 -1.2674
 5378TIP3   OH237692   4.894   6.504   3.610 -0.2129 -0.1673  0.9443
 5378TIP3    H137693   4.825   6.464   3.558 -1.5521 -0.8333  3.1237
 5378TIP3    H237694   4.896   6.453   3.691  2.0950  0.5446  1.4133
 5379TIP3   OH237695   5.775   3.201   0.449  0.3516  0.0206  0.6334
 5379TIP3    H137696   5.815   3.122   0.412  2.7401  1.8495 -1.0086
 5379TIP3    H237697   5.728   3.240   0.375  0.6264  1.0013  0.9761
 5380TIP3   OH237698   3.077   5.851   0.935 -0.1539 -0.1357  0.3909
 5380TIP3    H137699   2.999   5.802   0.907  0.3249 -0.9547  0.4623
 5380TIP3    H237700   3.141   5.784   0.955  0.1325  0.4945  1.6669
 5381TIP3   OH237701   6.599   1.176   0.759 -0.2363  0.1616 -0.3570
 5381TIP3    H137702   6.557   1.093   0.736  2.4836 -1.0606 -1.4069
 5381TIP3    H237703   6.639   1.160   0.844 -0.7885  0.8749  0.0495
 5382TIP3   OH237704   3.756   0.395   4.064 -0.4081 -0.5123  0.1725
 5382TIP3    H137705   3.843   0.400   4.103 -0.7195  1.0059  0.7472
 5382TIP3    H237706   3.697   0.386   4.139 -0.7363 -2.1401 -0.2431
 5383TIP3   OH237707   3.440   1.514   1.195  0.2163 -0.0920  0.0305
 5383TIP3    H137708   3.346   1.521   1.214  0.0121 -1.4144 -0.3919
 5383TIP3    H237709   3.459   1.421   1.203  1.3323  0.0629 -0.6525
 5384TIP3   OH237710   0.272   6.366   4.262 -0.0665  0.5973  0.0481
 5384TIP3    H137711   0.178   6.355   4.246 -0.2141  0.9871  0.6407
 5384TIP3    H237712   0.278   6.403   4.350  0.5771  1.7792 -0.4633
 5385TIP3   OH237713   0.434   2.504   3.119  0.6478 -0.6734 -0.2226
 5385TIP3    H137714   0.428   2.592   3.082  1.4179 -0.4286  0.2020
 5385TIP3    H237715   0.350   2.462   3.097 -0.1130  0.4823  0.3698
 5386TIP3   OH237716   5.450   5.179   3.956 -0.1062 -0.0946 -0.0961
 5386TIP3    H137717   5.400   5.145   4.030 -0.1525  2.4446  1.1434
 5386TIP3    H237718   5.533   5.131   3.959  1.3885  2.2908  3.9166
 5387TIP3   OH237719   4.589   4.165   2.339  0.0420  0.2882  0.2586
 5387TIP3    H137720   4.624   4.254   2.333 -0.6399  0.5096 -0.6484
 5387TIP3    H237721   4.662   4.109   2.313 -0.1022  0.7120 -1.0999
 5388TIP3   OH237722   4.895   3.872   0.204 -0.9441 -0.7950  0.4990
 5388TIP3    H137723   4.937   3.956   0.224  0.3234 -1.4019  0.5300
 5388TIP3    H237724   4.873   3.878   0.111 -0.7953 -0.4490  0.4845
 5389TIP3   OH237725   5.733   3.748   1.337 -0.0820  0.1859 -0.0550
 5389TIP3    H137726   5.664   3.755   1.271 -1.2433  1.4556  1.2244
 5389TIP3    H237727   5.791   3.822   1.320 -0.5565  0.7012  0.4949
 5390TIP3   OH237728   0.182   2.450   2.780  0.4148 -0.0308  0.7088
 5390TIP3    H137729   0.217   2.413   2.699  1.3427 -0.0553  1.1002
 5390TIP3    H237730   0.095   2.411   2.789  0.6298 -0.6690  0.1516
 5391TIP3   OH237731   4.296   4.303   4.853 -0.1802 -0.2190  0.2687
 5391TIP3    H137732   4.388   4.327   4.858 -0.1118 -0.1285 -1.1265
 5391TIP3    H237733   4.290   4.247   4.776 -1.1473 -0.9502  0.8519
 5392TIP3   OH237734   0.228   0.672   1.413  0.4528  0.3481 -0.0503
 5392TIP3    H137735   0.207   0.748   1.467  1.7508  0.9392 -0.3447
 5392TIP3    H237736   0.179   0.600   1.453 -0.9508  1.3597  0.1230
 5393TIP3   OH237737   2.253   4.174   3.396  0.1958  0.1758  0.2545
 5393TIP3    H137738   2.269   4.235   3.467  0.2265 -0.3519  0.7109
 5393TIP3    H237739   2.323   4.110   3.402 -1.1158 -1.2481  1.2856
 5394TIP3   OH237740   6.468   5.702   1.698  0.1560  0.5540  0.0001
 5394TIP3    H137741   6.393   5.682   1.754  0.3296 -0.4899 -0.1150
 5394TIP3    H237742   6.542   5.710   1.759  0.1072  0.7217  0.0374
 5395TIP3   OH237743   4.893   1.572   3.635  0.0101  0.2658 -0.0380
 5395TIP3    H137744   4.937   1.651   3.666  1.1935 -1.4414  2.9991
 5395TIP3    H237745   4.815   1.564   3.691  0.9475 -1.6783  1.0789
 5396TIP3   OH237746   4.052   1.840   1.975  0.0164 -0.0800  0.0843
 5396TIP3    H137747   4.061   1.870   1.885  3.4327  0.5501  0.4959
 5396TIP3    H237748   4.051   1.921   2.027 -2.1218 -0.4201  0.6695
 5397TIP3   OH237749   5.298   2.543   1.826  0.1235  0.6191  0.0893
 5397TIP3    H137750   5.351   2.467   1.851  1.2434  1.9536  1.9948
 5397TIP3    H237751   5.214   2.529   1.870  1.3061  1.8031  3.0295
 5398TIP3   OH237752   1.466   3.256   3.793 -0.1781  0.3043 -0.6579
 5398TIP3    H137753   1.371   3.265   3.798 -0.3832  0.1086 -3.0811
 5398TIP3    H237754   1.483   3.231   3.702  2.2002  0.3241 -0.2809
 5399TIP3   OH237755   0.319   1.762   2.864  0.3957  0.4707 -0.5358
 5399TIP3    H137756   0.349   1.725   2.781 -0.9474  1.7089 -1.6252
 5399TIP3    H237757   0.382   1.832   2.883  0.4484  0.4914 -0.7777
 5400TIP3   OH237758   1.230   3.856   2.358  0.1789  0.2296 -0.9942
 5400TIP3    H137759   1.322   3.880   2.370  0.2109  1.0887 -2.7105
 5400TIP3    H237760   1.230   3.760   2.364  1.0019  0.2746  0.0340
 5401TIP3   OH237761   6.556   4.897   3.889 -0.1914 -0.0218  0.5585
 5401TIP3    H137762   6.531   4.980   3.848  1.2676  0.1099 -0.1225
 5401TIP3    H237763   6.603   4.923   3.969  1.9726 -0.0645 -0.6140
 5402TIP3   OH237764   3.352   0.205   2.381 -0.2744  0.0605  0.0576
 5402TIP3    H137765   3.444   0.229   2.386 -0.2333 -0.2115  0.7277
 5402TIP3    H237766   3.309   0.281   2.342  0.0752  0.6364  0.7598
 5403TIP3   OH237767   6.214   5.195   1.231 -0.5864 -0.1864  0.4209
 5403TIP3    H137768   6.213   5.273   1.176 -1.9096  0.0630  0.7481
 5403TIP3    H237769   6.170   5.128   1.178  0.3513 -0.6587  0.2256
 5404TIP3   OH237770   3.390   3.767   3.013  0.0132 -0.3695 -0.5129
 5404TIP3    H137771   3.364   3.751   2.922  1.5843  0.5285 -1.1538
 5404TIP3    H237772   3.485   3.775   3.010  0.1899 -1.2776  1.3842
 5405TIP3   OH237773   4.659   5.229   3.812 -0.5779 -0.4357  0.2344
 5405TIP3    H137774   4.726   5.205   3.747 -1.4722 -3.1606  0.2196
 5405TIP3    H237775   4.704   5.221   3.896 -0.5783 -1.1956  0.1685
 5406TIP3   OH237776   0.118   6.499   2.448 -0.2206 -0.5277 -0.1788
 5406TIP3    H137777   0.157   6.474   2.531  1.2287 -1.9731 -1.2211
 5406TIP3    H237778   0.109   6.417   2.400 -1.1658  0.2449 -1.3978
 5407TIP3   OH237779   2.634   4.133   1.001  0.0676  1.0792 -0.4266
 5407TIP3    H137780   2.662   4.225   0.997  0.2029  1.0138 -1.2792
 5407TIP3    H237781   2.663   4.096   0.917  0.0899  0.2334 -0.0568
 5408TIP3   OH237782   1.557   0.133   0.574  0.1969  0.0933  0.0137
 5408TIP3    H137783   1.566   0.043   0.543  0.1075  0.5656 -1.4677
 5408TIP3    H237784   1.475   0.135   0.622 -0.3215 -0.3856 -0.8369
 5409TIP3   OH237785   6.186   2.363   4.037 -0.1627  0.7113 -0.1181
 5409TIP3    H137786   6.166   2.390   4.126 -0.1307  1.3442 -0.2997
 5409TIP3    H237787   6.181   2.444   3.985  2.9197  0.9623 -0.1993
 5410TIP3   OH237788   0.472   1.124   1.057  0.4700  0.0432  0.3339
 5410TIP3    H137789   0.484   1.047   1.112  0.6902 -0.5279 -0.5107
 5410TIP3    H237790   0.459   1.090   0.969  0.5995  0.9746 -0.0581
 5411TIP3   OH237791   3.015   1.880   2.376  0.2628 -0.2101  0.1526
 5411TIP3    H137792   3.034   1.871   2.283  0.2038  0.9809  0.0101
 5411TIP3    H237793   3.094   1.920   2.413 -0.3256  0.8426  0.3068
 5412TIP3   OH237794   1.039   5.125   2.934  0.4968  0.2026 -0.0146
 5412TIP3    H137795   1.036   5.110   2.840  1.6090 -0.0419 -0.0293
 5412TIP3    H237796   1.130   5.106   2.958  1.0168  2.9925  0.6419
 5413TIP3   OH237797   1.863   3.540   1.377 -0.2204  0.5024 -0.0719
 5413TIP3    H137798   1.928   3.577   1.317  0.2671 -1.1206 -0.5987
 5413TIP3    H237799   1.780   3.546   1.330  0.1207 -0.5477 -0.8388
 5414TIP3   OH237800   4.510   3.402   3.386 -0.4214  0.2175 -0.1152
 5414TIP3    H137801   4.436   3.456   3.415 -0.9360 -1.4487  1.8788
 5414TIP3    H237802   4.486   3.313   3.411  1.9740 -0.4623 -0.0685
 5415TIP3   OH237803   3.940   0.721   4.475  0.5930 -0.1283  0.0488
 5415TIP3    H137804   3.895   0.641   4.449 -0.0976 -0.1053  1.1450
 5415TIP3    H237805   4.007   0.733   4.408 -0.6252 -0.4917 -1.2816
 5416TIP3   OH237806   4.403   1.311   1.254  0.3983  0.7195  0.2799
 5416TIP3    H137807   4.392   1.291   1.347 -0.4562  2.7752  0.6707
 5416TIP3    H237808   4.476   1.373   1.251  1.2750 -0.3295 -0.5874
 5417TIP3   OH237809   1.303   1.593   2.800  0.1392 -0.5564  0.6773
 5417TIP3    H137810   1.255   1.635   2.871  0.0963 -2.1290  1.6237
 5417TIP3    H237811   1.395   1.608   2.820  0.1210  1.1078 -0.2962
 5418TIP3   OH237812   5.332   5.085   2.860  0.0556  0.8347 -0.7680
 5418TIP3    H137813   5.342   4.990   2.855  1.0521  0.9656 -1.6926
 5418TIP3    H237814   5.350   5.116   2.771 -0.0638  1.9045 -0.4361
 5419TIP3   OH237815   2.861   6.236   1.515 -0.3963  0.4062 -0.2321
 5419TIP3    H137816   2.948   6.268   1.490 -0.8484  1.5685 -0.3976
 5419TIP3    H237817   2.853   6.261   1.607 -0.4106 -0.0429 -0.1090
 5420TIP3   OH237818   2.828   3.518   1.906 -0.5102 -0.1419 -0.1109
 5420TIP3    H137819   2.915   3.555   1.923  0.6102 -2.2744 -0.9044
 5420TIP3    H237820   2.774   3.548   1.980  1.0363  0.7228  0.7154
 5421TIP3   OH237821   1.818   6.637   3.678  0.0888  0.0763 -0.1116
 5421TIP3    H137822   1.884   6.647   3.610  1.0158 -1.0021  0.5986
 5421TIP3    H237823   1.862   6.589   3.748 -1.0559  0.5083  0.9510
 5422TIP3   OH237824   2.299   0.174   2.079 -0.0263 -0.0679 -0.3027
 5422TIP3    H137825   2.363   0.239   2.050  0.2029  0.4408  1.2775
 5422TIP3    H237826   2.232   0.225   2.125 -0.4688 -0.8351 -0.0754
 5423TIP3   OH237827   4.331   4.014   8.315 -0.3627 -0.0293 -0.2449
 5423TIP3    H137828   4.420   4.009   8.280  0.0052 -1.1869  0.7624
 5423TIP3    H237829   4.299   3.923   8.311 -1.2805  0.2754 -0.0556
 5424TIP3   OH237830   3.694   4.017   3.823  0.0571  0.4103  0.5269
 5424TIP3    H137831   3.788   4.023   3.806 -0.2620  3.3870 -1.0948
 5424TIP3    H237832   3.670   3.928   3.799  2.2214  0.0944 -0.6837
 5425TIP3   OH237833   5.708   1.445   3.698 -0.2883  0.2716  0.3540
 5425TIP3    H137834   5.707   1.517   3.635  0.6785 -0.6990 -0.8286
 5425TIP3    H237835   5.619   1.442   3.733 -0.8259  0.8968 -0.9038
 5426TIP3   OH237836   4.100   6.240   5.266  0.5029  0.1193  0.2694
 5426TIP3    H137837   4.157   6.271   5.336  0.5866 -0.3693  0.4219
 5426TIP3    H237838   4.122   6.295   5.191  0.3570  0.6977  0.6474
 5427TIP3   OH237839   4.107   5.363   1.071  0.0831  0.3290 -0.0307
 5427TIP3    H137840   4.059   5.438   1.035 -0.1731 -0.9627 -2.6276
 5427TIP3    H237841   4.164   5.334   1.000  0.8936 -1.3596  1.2238
 5428TIP3   OH237842   1.240   3.454   0.867 -0.2376  0.5895 -0.6748
 5428TIP3    H137843   1.171   3.473   0.930  2.0297  1.9577  1.5707
 5428TIP3    H237844   1.246   3.534   0.814  0.0595  0.7576 -0.3943
 5429TIP3   OH237845   5.886   4.825   0.083  0.0938 -0.1063 -0.2808
 5429TIP3    H137846   5.895   4.919   0.096 -0.3166 -0.0584 -0.3541
 5429TIP3    H237847   5.911   4.787   0.167  1.4805 -0.0031 -0.6136
 5430TIP3   OH237848   3.248   0.162   1.357 -0.0599  0.0632  0.5856
 5430TIP3    H137849   3.289   0.085   1.318  0.0342 -0.8897  2.4403
 5430TIP3    H237850   3.310   0.233   1.339  0.3332 -0.4816 -0.3052
 5431TIP3   OH237851   3.661   4.193   2.667 -0.3663 -0.1618  0.1342
 5431TIP3    H137852   3.712   4.194   2.749  0.7151 -1.6431 -0.4655
 5431TIP3    H237853   3.623   4.280   2.661  1.1570  0.6311  1.2291
 5432TIP3   OH237854   3.563   5.658   0.817 -0.1242  0.0438 -0.0977
 5432TIP3    H137855   3.615   5.737   0.828 -1.1085  0.8965 -1.3366
 5432TIP3    H237856   3.615   5.602   0.759 -0.8718  1.2249 -1.9915
 5433TIP3   OH237857   4.364   5.044   0.660  0.5017 -0.7909  0.1486
 5433TIP3    H137858   4.352   4.969   0.602 -2.2680 -0.0816 -0.3087
 5433TIP3    H237859   4.459   5.056   0.664  0.9293 -3.1695 -1.2098
 5434TIP3   OH237860   3.323   1.491   2.255 -0.8982 -0.0763 -0.3508
 5434TIP3    H137861   3.242   1.485   2.204 -1.2252 -0.3671  0.1931
 5434TIP3    H237862   3.377   1.554   2.207 -1.4535  0.1365 -0.7058
 5435TIP3   OH237863   6.299   3.275   1.628 -0.3373 -0.9038 -0.3221
 5435TIP3    H137864   6.379   3.301   1.674 -1.3710  0.3736  0.8630
 5435TIP3    H237865   6.322   3.195   1.582  2.0792  0.2838 -1.3509
 5436TIP3   OH237866   2.187   1.892   2.872 -0.0546  0.3580 -0.1255
 5436TIP3    H137867   2.261   1.895   2.932 -0.8094  1.1740  0.7971
 5436TIP3    H237868   2.116   1.937   2.919 -0.2430  2.3981 -2.1904
 5437TIP3   OH237869   0.153   2.251   8.824  0.0743  0.0175  0.1006
 5437TIP3    H137870   0.135   2.242   8.917 -0.3160  0.2172  0.0470
 5437TIP3    H237871   0.245   2.228   8.815  0.3136  0.7199  0.6528
 5438TIP3   OH237872   0.809   2.682   2.655 -0.3531 -0.4462  0.1548
 5438TIP3    H137873   0.767   2.706   2.572  0.0954  0.7666  0.2689
 5438TIP3    H237874   0.772   2.742   2.720  1.0140  0.1889  0.3902
 5439TIP3   OH237875   5.958   1.908   3.782  0.0207 -0.2676 -0.5384
 5439TIP3    H137876   5.885   1.846   3.789  0.3597 -0.6300 -0.1204
 5439TIP3    H237877   6.036   1.854   3.794  0.2895  0.3608  0.6261
 5440TIP3   OH237878   5.406   0.957   4.157  0.3663 -0.0084  0.2310
 5440TIP3    H137879   5.364   1.026   4.106 -1.2363 -1.1858 -0.1341
 5440TIP3    H237880   5.341   0.932   4.222  1.5085 -0.1330  1.3729
 5441TIP3   OH237881   0.641   0.861   3.967 -0.2597 -0.4898 -0.0601
 5441TIP3    H137882   0.644   0.884   4.060  0.2964  1.6437 -0.5438
 5441TIP3    H237883   0.714   0.801   3.954 -0.6477 -1.2003  0.9541
 5442TIP3   OH237884   6.297   3.565   2.993  0.1651  0.4529  0.1024
 5442TIP3    H137885   6.264   3.536   3.079 -0.9375  1.9486  0.2138
 5442TIP3    H237886   6.246   3.514   2.930  0.1609  0.1760  0.3260
 5443TIP3   OH237887   3.145   4.640   0.296  0.7398 -1.0385 -0.2468
 5443TIP3    H137888   3.083   4.642   0.224 -0.7459  0.3085  0.9958
 5443TIP3    H237889   3.127   4.557   0.341 -0.5239 -0.4773  0.3492
 5444TIP3   OH237890   1.355   2.366   2.123 -0.0405  0.2133 -0.0012
 5444TIP3    H137891   1.430   2.327   2.078  0.6335 -0.0221  1.2768
 5444TIP3    H237892   1.278   2.331   2.078  0.5646 -1.7255  0.4004
 5445TIP3   OH237893   4.821   0.123   0.864 -0.0247 -0.3538  0.1792
 5445TIP3    H137894   4.768   0.077   0.929 -2.1376  0.8040 -0.6479
 5445TIP3    H237895   4.763   0.135   0.789  0.9009  2.2396 -0.2274
 5446TIP3   OH237896   4.694   0.476   0.158  0.2498 -0.7772  0.1089
 5446TIP3    H137897   4.762   0.508   0.099  0.3673 -0.0082  0.6426
 5446TIP3    H237898   4.652   0.555   0.192  1.2163 -1.1047  2.2389
 5447TIP3   OH237899   3.559   0.926   2.800 -0.2966 -0.0799 -0.3249
 5447TIP3    H137900   3.601   0.843   2.821 -1.3171 -0.5804 -0.1923
 5447TIP3    H237901   3.626   0.992   2.817 -0.5041 -0.5546  3.0321
 5448TIP3   OH237902   4.638   0.941   1.657  0.2430 -0.6845  0.0807
 5448TIP3    H137903   4.731   0.955   1.674  0.2790  0.8460 -1.1909
 5448TIP3    H237904   4.634   0.904   1.569 -0.3604 -0.4401 -0.0058
 5449TIP3   OH237905   3.862   1.479   0.063  0.0233 -0.1136  0.4323
 5449TIP3    H137906   3.847   1.384   0.068 -3.2258  0.2850  0.4951
 5449TIP3    H237907   3.798   1.510  -0.001  2.0274  1.9092 -0.7220
 5450TIP3   OH237908   1.817   5.099   1.411  0.3144 -0.1767 -0.1718
 5450TIP3    H137909   1.810   5.103   1.316  1.1907 -1.0569 -0.2961
 5450TIP3    H237910   1.885   5.163   1.433  1.8367 -1.6253 -0.4117
 5451TIP3   OH237911   3.040   3.987   0.505  0.3306  0.0697  0.3467
 5451TIP3    H137912   3.031   4.079   0.531  0.4535  0.4795 -0.9533
 5451TIP3    H237913   2.971   3.974   0.440 -0.1873 -0.9960  1.0903
 5452TIP3   OH237914   4.611   1.315   0.837  0.1155  0.5554  0.3801
 5452TIP3    H137915   4.626   1.220   0.840 -0.5625  0.4767  2.3107
 5452TIP3    H237916   4.545   1.327   0.769 -0.9558 -0.5593  1.1789
 5453TIP3   OH237917   0.146   5.172   1.566  0.0130  0.7944  0.5307
 5453TIP3    H137918   0.120   5.122   1.644 -1.5940 -1.4970 -1.3469
 5453TIP3    H237919   0.132   5.263   1.591 -0.3176  0.1576  2.9517
 5454TIP3   OH237920   4.102   4.561   2.630 -0.0888 -0.3387 -0.1420
 5454TIP3    H137921   4.170   4.548   2.697  0.1963 -1.0361 -0.5545
 5454TIP3    H237922   4.084   4.655   2.632  1.0804 -0.0973 -0.2064
 5455TIP3   OH237923   1.615   3.946   4.531 -0.2049  0.5281  0.3839
 5455TIP3    H137924   1.692   3.901   4.567  0.4255  0.1029 -1.3831
 5455TIP3    H237925   1.625   4.036   4.560  0.0536  0.1469  1.5666
 5456TIP3   OH237926   2.346   3.980   0.997 -0.0927 -0.2794  0.0585
 5456TIP3    H137927   2.387   3.922   1.062 -0.1031 -1.2104 -0.7486
 5456TIP3    H237928   2.277   4.025   1.046  1.2388  0.6106  1.2177
 5457TIP3   OH237929   6.088   1.293   3.373  0.5084  0.9777  0.3133
 5457TIP3    H137930   6.159   1.264   3.315  0.1445  1.0530 -0.1800
 5457TIP3    H237931   6.049   1.369   3.328 -0.4074  0.4407  0.1641
 5458TIP3   OH237932   1.922   2.658   3.844 -0.3479 -0.0352 -0.3129
 5458TIP3    H137933   2.010   2.643   3.877 -0.5997 -1.5145 -0.2199
 5458TIP3    H237934   1.868   2.667   3.923 -0.4912 -0.5715 -0.3454
 5459TIP3   OH237935   5.292   5.004   4.420 -0.6495 -0.2252 -0.3861
 5459TIP3    H137936   5.268   4.933   4.480 -0.5674 -1.5792 -1.8577
 5459TIP3    H237937   5.361   5.052   4.465 -1.0721 -0.7569  0.8720
 5460TIP3   OH237938   5.362   2.987   1.081  0.3438 -0.3227  0.3309
 5460TIP3    H137939   5.443   3.005   1.034 -0.0685  0.1259 -0.2442
 5460TIP3    H237940   5.293   3.003   1.016 -0.1279 -3.8279 -0.1877
 5461TIP3   OH237941   4.963   4.355   3.481  0.5574  0.0193  0.0976
 5461TIP3    H137942   5.013   4.418   3.532  1.3900 -0.9016  0.4533
 5461TIP3    H237943   4.980   4.271   3.523 -1.7438 -0.2710  0.5670
 5462TIP3   OH237944   5.695   0.568   2.637 -0.1248 -0.4018  0.2988
 5462TIP3    H137945   5.654   0.539   2.719  2.2579  1.1121  2.1726
 5462TIP3    H237946   5.780   0.524   2.637  0.8549  1.4255 -0.1261
 5463TIP3   OH237947   4.542   3.759   3.413 -0.0506 -0.5132 -0.3071
 5463TIP3    H137948   4.487   3.682   3.425  0.9657 -1.3578 -0.8944
 5463TIP3    H237949   4.496   3.812   3.348 -0.8150 -0.5486  0.1925
 5464TIP3   OH237950   4.141   2.641   3.610 -0.1068  0.2106  0.3949
 5464TIP3    H137951   4.231   2.640   3.644  0.3194 -0.0514 -0.7182
 5464TIP3    H237952   4.126   2.552   3.580 -0.0992  0.6722 -1.0408
 5465TIP3   OH237953   2.659   2.028   0.722 -0.5937  0.2505  0.1260
 5465TIP3    H137954   2.595   2.088   0.760  0.8396  1.0170  1.4654
 5465TIP3    H237955   2.706   2.080   0.657 -1.1820 -0.2531 -0.7182
 5466TIP3   OH237956   2.964   0.851   2.224  0.0587 -0.3832 -0.1451
 5466TIP3    H137957   3.012   0.905   2.288  0.8567 -0.8904 -0.2925
 5466TIP3    H237958   2.927   0.914   2.162  0.0823  0.0583  0.2810
 5467TIP3   OH237959   5.617   3.366   0.244  0.5295  0.1097 -0.3472
 5467TIP3    H137960   5.521   3.361   0.239  0.3793  0.3158  1.5284
 5467TIP3    H237961   5.648   3.326   0.163 -1.1448  0.4794 -1.2181
 5468TIP3   OH237962   3.578   1.829   3.737 -0.0730 -0.1986  0.6243
 5468TIP3    H137963   3.581   1.920   3.767 -0.1304 -0.2489  0.7858
 5468TIP3    H237964   3.507   1.827   3.673 -0.3397 -0.2154  0.9170
 5469TIP3   OH237965   5.982   6.398   4.284 -0.4247  0.4678 -0.0670
 5469TIP3    H137966   5.957   6.342   4.358  0.2801 -0.4441 -0.4917
 5469TIP3    H237967   5.900   6.439   4.257 -0.7210  0.6614  1.0912
 5470TIP3   OH237968   4.896   3.599   2.947 -0.1618  0.1233 -1.2934
 5470TIP3    H137969   4.854   3.642   3.022  1.1505  1.7190 -1.4044
 5470TIP3    H237970   4.824   3.573   2.891 -1.2006 -1.2358  0.5504
 5471TIP3   OH237971   2.454   0.208   8.799  0.1380  0.1437  0.1903
 5471TIP3    H137972   2.459   0.137   8.863 -1.4836 -0.5609 -0.4107
 5471TIP3    H237973   2.434   0.164   8.716  1.0228  1.1507 -0.5933
 5472TIP3   OH237974   2.064   3.101   1.206 -0.0605 -0.5517  0.3187
 5472TIP3    H137975   2.125   3.030   1.227  0.4117 -0.7856 -1.6410
 5472TIP3    H237976   2.014   3.068   1.131 -0.6305  0.7491  0.0929
 5473TIP3   OH237977   6.790   2.036   2.152 -0.2179  0.3911  0.2349
 5473TIP3    H137978   6.775   2.114   2.204 -0.2873 -0.3453  1.3603
 5473TIP3    H237979   6.882   2.041   2.126  0.1037  0.2925  1.2862
 5474TIP3   OH237980   0.025   3.903   3.528 -0.2509  0.0284 -0.0514
 5474TIP3    H137981  -0.006   3.855   3.451  1.7920  0.1192 -1.0123
 5474TIP3    H237982   0.039   3.992   3.496 -0.5567  0.3791  0.7650
 5475TIP3   OH237983   5.382   2.636   3.258  0.4628  0.2489 -0.2048
 5475TIP3    H137984   5.301   2.618   3.306  0.1811 -1.4873 -1.2653
 5475TIP3    H237985   5.369   2.724   3.222  0.9074  1.8949  3.2217
 5476TIP3   OH237986   5.083   3.095   3.600 -0.1894  0.4494  0.5090
 5476TIP3    H137987   5.100   3.000   3.601 -3.3953 -0.2511  0.5682
 5476TIP3    H237988   5.031   3.108   3.521 -1.3977  1.7994  1.4850
 5477TIP3   OH237989   4.248   6.199   1.533 -0.1341 -0.2521 -0.2648
 5477TIP3    H137990   4.266   6.244   1.616 -2.3136  1.2042 -0.4789
 5477TIP3    H237991   4.164   6.156   1.547 -0.3126 -0.3638 -1.5605
 5478TIP3   OH237992   3.134   6.667   2.590  0.1348 -0.5648 -0.0147
 5478TIP3    H137993   3.127   6.591   2.648  0.8218 -0.4399  0.2348
 5478TIP3    H237994   3.134   6.630   2.502  0.8693 -0.8938  0.1138
 5479TIP3   OH237995   1.771   4.418   0.032  0.3369 -0.0500  0.0800
 5479TIP3    H137996   1.838   4.353   0.053  1.3491  0.5397 -1.2068
 5479TIP3    H237997   1.697   4.395   0.089  1.1171 -1.5552  0.5444
 5480TIP3   OH237998   1.058   0.425   0.189  0.1558  0.2693  0.0875
 5480TIP3    H137999   1.005   0.376   0.251  2.1118 -1.8264  0.2325
 5480TIP3    H238000   1.044   0.382   0.105 -0.4754  1.4606 -0.4410
 5481TIP3   OH238001   3.675   1.638   1.703 -0.1933  0.2955  0.3239
 5481TIP3    H138002   3.760   1.656   1.664  0.4393 -1.1846  0.9755
 5481TIP3    H238003   3.612   1.661   1.634  0.8255 -0.7584 -1.0112
 5482TIP3   OH238004   0.026   5.551   3.751  0.7090 -0.0309  0.0661
 5482TIP3    H138005   0.052   5.468   3.791  2.6765  0.5765  0.1379
 5482TIP3    H238006  -0.044   5.584   3.808  0.1276 -1.4385  0.2261
 5483TIP3   OH238007   1.901   3.398   1.069 -0.1975  0.5176 -0.0125
 5483TIP3    H138008   1.849   3.353   1.135  0.8397  0.1016  0.5466
 5483TIP3    H238009   1.843   3.406   0.994 -0.5039 -1.5756 -0.0678
 5484TIP3   OH238010   3.803   6.748   4.018 -0.1454  0.3309  0.0594
 5484TIP3    H138011   3.732   6.732   4.080 -0.7049 -0.7422 -0.8148
 5484TIP3    H238012   3.758   6.771   3.936  0.5425  0.6838 -0.2310
 5485TIP3   OH238013   2.573   2.238   1.046 -0.4522 -0.4184  0.1354
 5485TIP3    H138014   2.594   2.330   1.061 -1.6928 -0.1415  0.2986
 5485TIP3    H238015   2.481   2.239   1.018 -1.0217 -1.7375  1.8073
 5486TIP3   OH238016   6.424   0.283   3.740  0.4910  0.2638  0.4486
 5486TIP3    H138017   6.418   0.197   3.698  0.2881  0.1103  0.7873
 5486TIP3    H238018   6.452   0.264   3.830  3.8820  0.7628 -0.3531
 5487TIP3   OH238019   6.674   3.203   0.686  0.2990 -0.4821 -0.2263
 5487TIP3    H138020   6.688   3.229   0.595  0.4346  1.9463  0.4045
 5487TIP3    H238021   6.585   3.166   0.687 -0.4833  1.2619 -1.0360
 5488TIP3   OH238022   4.183   4.652   2.346  0.2968  0.4462 -0.4837
 5488TIP3    H138023   4.173   4.746   2.327  1.1548  0.2412 -2.1565
 5488TIP3    H238024   4.196   4.648   2.441 -0.8866  1.9011 -0.2249
 5489TIP3   OH238025   0.576   3.560   2.928  0.0493 -0.2259 -0.6330
 5489TIP3    H138026   0.621   3.476   2.917  0.3418  0.0378 -1.5948
 5489TIP3    H238027   0.597   3.587   3.017 -2.4570 -2.5364  0.7903
 5490TIP3   OH238028   6.076   3.903   8.805  0.4126  0.0754  0.1049
 5490TIP3    H138029   6.052   3.990   8.772 -1.4697 -0.2901  0.4315
 5490TIP3    H238030   6.048   3.903   8.896 -2.5450 -1.8703 -0.6669
 5491TIP3   OH238031   4.409   4.657   0.006  0.7433  0.0834 -0.2095
 5491TIP3    H138032   4.472   4.696   0.067 -0.1903 -0.9202  1.4603
 5491TIP3    H238033   4.331   4.712   0.013  0.5567 -0.1609 -0.3440
 5492TIP3   OH238034   3.067   0.235   3.213 -0.0174  0.6348 -0.8701
 5492TIP3    H138035   3.145   0.288   3.199 -0.1595  0.7609 -1.1952
 5492TIP3    H238036   3.096   0.145   3.196 -0.0598  0.7324 -1.4877
 5493TIP3   OH238037   1.327   5.343   3.671 -0.4538 -0.3301  0.5207
 5493TIP3    H138038   1.328   5.377   3.582  1.3503 -1.7274 -0.0570
 5493TIP3    H238039   1.360   5.416   3.725  2.8029 -0.7957 -0.6069
 5494TIP3   OH238040   2.316   6.726   1.515  0.8092  0.6858  0.4381
 5494TIP3    H138041   2.355   6.642   1.492  2.0965  1.2219  0.5693
 5494TIP3    H238042   2.304   6.771   1.431 -0.5979  0.0896  0.2990
 5495TIP3   OH238043   3.018   6.261   1.189 -0.4971  0.1477  0.7425
 5495TIP3    H138044   2.944   6.207   1.215 -0.0067 -0.2856  1.2435
 5495TIP3    H238045   3.067   6.208   1.126 -0.7257  0.5211  0.2374
 5496TIP3   OH238046   0.174   2.449   3.058  0.1460 -0.1907 -0.0871
 5496TIP3    H138047   0.211   2.361   3.052 -2.1195 -1.2355  0.4375
 5496TIP3    H238048   0.160   2.475   2.967  0.3461 -0.5823 -0.2337
 5497TIP3   OH238049   5.698   4.782   2.736 -0.3669  0.2699 -0.1534
 5497TIP3    H138050   5.708   4.694   2.700  2.4193  0.0875  0.8055
 5497TIP3    H238051   5.692   4.839   2.659  0.3389 -0.5563 -0.8520
 5498TIP3   OH238052   2.203   4.693   3.174 -0.2267  0.8496 -0.2969
 5498TIP3    H138053   2.185   4.688   3.080 -1.6047 -0.3000 -0.0161
 5498TIP3    H238054   2.255   4.615   3.193 -1.4191  0.1328  0.1530
 5499TIP3   OH238055   1.430   0.921   1.284 -0.2255  0.3547 -0.0017
 5499TIP3    H138056   1.443   0.887   1.195  0.0980  0.4757 -0.0040
 5499TIP3    H238057   1.340   0.952   1.286 -0.6343 -0.7772  0.0889
 5500TIP3   OH238058   4.790   5.154   4.039 -0.2690  0.2029 -0.2744
 5500TIP3    H138059   4.765   5.066   4.011  0.5608 -0.2785  0.4251
 5500TIP3    H238060   4.754   5.163   4.127  1.0224 -0.0781  0.3025
 5501TIP3   OH238061   5.327   1.806   0.845 -0.1315  0.3918 -0.2985
 5501TIP3    H138062   5.259   1.810   0.777  1.4446  1.4785 -1.9246
 5501TIP3    H238063   5.332   1.714   0.869 -0.7405 -0.0394 -1.7022
 5502TIP3   OH238064   0.707   6.166   2.840  1.0828 -0.2777  0.3167
 5502TIP3    H138065   0.612   6.173   2.834  1.1016  1.7113  1.3343
 5502TIP3    H238066   0.724   6.072   2.845 -0.8390 -0.6663  0.3283
 5503TIP3   OH238067   2.487   5.742   3.118  0.9543 -0.4420 -0.3748
 5503TIP3    H138068   2.577   5.770   3.135  0.4187 -0.0875  2.3683
 5503TIP3    H238069   2.465   5.686   3.193 -1.0564 -0.6553 -1.0687
 5504TIP3   OH238070   5.236   0.804   4.603 -0.7464  0.3016 -0.4844
 5504TIP3    H138071   5.301   0.827   4.670 -1.6230  1.5968 -0.0385
 5504TIP3    H238072   5.204   0.718   4.631 -0.0335  0.1532 -0.0837
 5505TIP3   OH238073   1.127   5.597   2.213  0.6609 -0.0478  0.6497
 5505TIP3    H138074   1.075   5.665   2.171  0.3877  0.2103  1.3989
 5505TIP3    H238075   1.218   5.618   2.190  0.6366  0.9740  1.4538
 5506TIP3   OH238076   2.232   6.419   8.628  0.4407  0.0591  0.3000
 5506TIP3    H138077   2.207   6.497   8.679  0.1568 -1.1186  2.0233
 5506TIP3    H238078   2.162   6.411   8.563 -1.0264 -0.2458  1.8261
 5507TIP3   OH238079   5.984   2.052   0.582  0.4547 -0.2690 -0.3247
 5507TIP3    H138080   5.964   2.059   0.489  0.9389  0.3827 -0.3842
 5507TIP3    H238081   6.025   2.135   0.605  0.2491 -0.3804  0.4976
 5508TIP3   OH238082   4.274   3.834   3.020 -0.0133  0.3464  0.3372
 5508TIP3    H138083   4.289   3.889   2.943 -1.9658  0.0197 -0.3257
 5508TIP3    H238084   4.186   3.800   3.009  0.3765 -1.2953  1.7662
 5509TIP3   OH238085   5.622   4.818   3.222  0.5401 -0.1112  0.4801
 5509TIP3    H138086   5.656   4.869   3.296 -2.9348  0.1762  2.0947
 5509TIP3    H238087   5.676   4.845   3.148  2.7028  1.3617  2.4237
 5510TIP3   OH238088   4.898   0.795   2.781  0.5308  0.2698 -0.5356
 5510TIP3    H138089   4.959   0.734   2.741  0.7133  0.9000 -1.2458
 5510TIP3    H238090   4.954   0.859   2.825  0.3411 -1.0059  1.7386
 5511TIP3   OH238091   3.649   0.892   4.411 -0.3565 -0.0324  0.4404
 5511TIP3    H138092   3.577   0.954   4.418  1.0538  1.8141 -0.5914
 5511TIP3    H238093   3.607   0.807   4.396 -2.2996  0.8783  0.5241
 5512TIP3   OH238094   5.432   6.245   0.556  0.9068  0.1313 -0.9397
 5512TIP3    H138095   5.462   6.182   0.491  0.3209 -0.5829 -0.5415
 5512TIP3    H238096   5.460   6.208   0.640  2.0354  1.2564 -0.7996
 5513TIP3   OH238097   1.192   1.466   1.392  0.0954  0.0263 -0.8926
 5513TIP3    H138098   1.229   1.396   1.446 -1.5231 -0.1103  0.1181
 5513TIP3    H238099   1.135   1.514   1.452 -0.9685  0.5004 -2.2418
 5514TIP3   OH238100   4.804   0.921   1.219 -0.2228  0.2452 -0.4434
 5514TIP3    H138101   4.850   0.897   1.139  0.3276 -0.5338  0.0877
 5514TIP3    H238102   4.759   1.003   1.198  0.2645  0.2739 -1.4081
 5515TIP3   OH238103   5.841   5.056   4.908  0.5812 -0.1954 -0.2886
 5515TIP3    H138104   5.904   4.985   4.917 -0.3256 -1.0164 -0.2789
 5515TIP3    H238105   5.760   5.013   4.882  0.2859  0.9519 -1.3434
 5516TIP3   OH238106   6.003   1.599   1.368 -0.0351 -0.2938 -0.2442
 5516TIP3    H138107   6.042   1.685   1.383  1.7547 -0.8692 -1.3075
 5516TIP3    H238108   6.009   1.555   1.453 -1.3571  0.7260  0.4248
 5517TIP3   OH238109   0.320   3.546   8.715 -0.6774 -0.4343  0.0285
 5517TIP3    H138110   0.358   3.595   8.642  0.5179  1.2987  1.7018
 5517TIP3    H238111   0.351   3.456   8.703  2.0931  0.4385  0.0353
 5518TIP3   OH238112   5.047   3.679   2.668  0.2510 -0.2790 -0.3809
 5518TIP3    H138113   5.116   3.646   2.725 -0.0538 -0.8647 -0.3432
 5518TIP3    H238114   4.970   3.627   2.690 -0.5618  1.2281  0.4917
 5519TIP3   OH238115   0.281   2.694   0.618 -0.4708 -0.2758  0.2293
 5519TIP3    H138116   0.348   2.763   0.619  0.2395 -0.8790 -1.5081
 5519TIP3    H238117   0.249   2.694   0.528  0.3334 -2.9026 -0.1357
 5520TIP3   OH238118   5.007   3.708   0.598  0.4009  0.0529 -0.4319
 5520TIP3    H138119   5.024   3.621   0.563  0.5192 -0.0404 -0.1471
 5520TIP3    H238120   5.070   3.719   0.669 -0.0237  0.1209 -0.0557
 5521TIP3   OH238121   4.909   2.837   0.904  0.1436 -0.0045  0.0954
 5521TIP3    H138122   4.825   2.867   0.868 -0.3706 -1.9139 -0.4130
 5521TIP3    H238123   4.897   2.844   0.999 -0.1927  0.7017  0.0147
 5522TIP3   OH238124   1.711   0.284   4.023  0.0575  0.4737 -0.1565
 5522TIP3    H138125   1.726   0.363   3.970 -3.7284 -0.0129 -2.2602
 5522TIP3    H238126   1.618   0.287   4.044 -0.3103 -3.5366 -0.5372
 5523TIP3   OH238127   5.922   5.064   0.203 -0.8135  0.4453 -0.0343
 5523TIP3    H138128   5.979   5.103   0.268 -0.5472  0.1279 -0.0751
 5523TIP3    H238129   5.836   5.061   0.245 -0.7620  0.7528  0.0939
 5524TIP3   OH238130   0.629   2.036   1.350 -0.0174  0.0782 -0.2441
 5524TIP3    H138131   0.696   2.104   1.342 -1.7065  1.8350 -0.1269
 5524TIP3    H238132   0.569   2.052   1.277 -0.5822 -1.1638 -0.0821
 5525TIP3   OH238133   2.977   6.095   3.760  0.3931  0.0140 -0.8328
 5525TIP3    H138134   3.008   6.012   3.796  0.3004  0.2751 -0.1360
 5525TIP3    H238135   2.946   6.144   3.836 -2.1300 -0.3914 -1.5147
 5526TIP3   OH238136   5.245   4.598   3.134  0.2796 -0.4611 -0.2624
 5526TIP3    H138137   5.272   4.525   3.189  1.0275  0.7213  0.9888
 5526TIP3    H238138   5.284   4.675   3.175 -0.2700  0.6231 -1.6919
 5527TIP3   OH238139   5.169   5.599   4.563 -0.4214 -0.1011  0.5808
 5527TIP3    H138140   5.198   5.641   4.644 -2.0060  0.2198  1.0152
 5527TIP3    H238141   5.074   5.593   4.572 -0.3850 -2.5702 -0.0624
 5528TIP3   OH238142   3.614   1.444   2.427  0.3450  0.1727 -0.2020
 5528TIP3    H138143   3.672   1.481   2.361  1.2015 -0.3823  0.2208
 5528TIP3    H238144   3.665   1.373   2.467 -0.8955 -0.8329 -0.3367
 5529TIP3   OH238145   5.992   2.968   3.184 -0.1461 -0.2574 -0.6621
 5529TIP3    H138146   5.929   2.900   3.211 -0.4407 -0.0775 -0.8942
 5529TIP3    H238147   6.074   2.921   3.173  0.7285  0.0134  3.1731
 5530TIP3   OH238148   5.990   4.546   4.903  0.2505 -0.7803 -0.6578
 5530TIP3    H138149   5.921   4.483   4.920 -0.8158  0.5432  0.1695
 5530TIP3    H238150   6.070   4.494   4.898 -0.4963 -2.1150  0.6405
 5531TIP3   OH238151   4.220   0.539   2.365 -0.1244  0.1659 -1.2206
 5531TIP3    H138152   4.211   0.585   2.449 -0.3335 -0.1073 -1.0913
 5531TIP3    H238153   4.138   0.491   2.355  0.1221 -0.2403 -1.3133
 5532TIP3   OH238154   4.370   5.949   2.532  0.1457  0.2038 -0.5885
 5532TIP3    H138155   4.312   5.958   2.607 -0.4483  0.6864 -1.0993
 5532TIP3    H238156   4.374   5.855   2.515  0.7465  0.0290  0.3896
 5533TIP3   OH238157   4.573   3.721   1.067 -0.0822 -0.1878  0.0879
 5533TIP3    H138158   4.616   3.805   1.057 -0.3030 -0.1014 -0.1444
 5533TIP3    H238159   4.607   3.668   0.995 -1.2326  0.2494 -0.8056
 5534TIP3   OH238160   5.480   2.037   2.887 -0.0733  0.2312  0.0015
 5534TIP3    H138161   5.490   2.060   2.794  1.5701  1.2765  0.4084
 5534TIP3    H238162   5.568   2.041   2.923 -0.9589  2.4569  2.2109
 5535TIP3   OH238163   6.028   3.438   3.285 -0.2211 -0.2236  0.2705
 5535TIP3    H138164   6.115   3.436   3.247 -0.5140 -0.1277 -0.4160
 5535TIP3    H238165   6.023   3.358   3.337 -0.1784 -0.8958 -0.7260
 5536TIP3   OH238166   1.212   2.396   0.190 -0.2457  0.4348 -0.2200
 5536TIP3    H138167   1.240   2.320   0.240  0.1196  0.7238  0.0221
 5536TIP3    H238168   1.293   2.444   0.172 -0.6892  2.0937  1.8173
 5537TIP3   OH238169   0.839   4.328   0.897 -0.2053 -0.7354 -0.3437
 5537TIP3    H138170   0.772   4.280   0.847 -4.5787  0.8085  3.3201
 5537TIP3    H238171   0.789   4.392   0.948  4.2293  0.8599  2.5480
 5538TIP3   OH238172   2.452   3.339   4.258  0.6389  0.2361 -0.2376
 5538TIP3    H138173   2.368   3.380   4.281 -0.0117 -0.0168 -1.9441
 5538TIP3    H238174   2.427   3.266   4.201  1.9974 -0.1934 -0.2986
 5539TIP3   OH238175   1.763   6.342   1.454 -0.3869 -0.0269  0.2591
 5539TIP3    H138176   1.712   6.329   1.374  0.1188  0.8275 -0.2149
 5539TIP3    H238177   1.710   6.402   1.506 -0.5044 -0.2255  0.3691
 5540TIP3   OH238178   0.893   0.700   2.691  0.0844 -0.3577  0.2102
 5540TIP3    H138179   0.818   0.707   2.633  1.6996 -0.9399 -2.1254
 5540TIP3    H238180   0.916   0.607   2.688  1.5176 -0.0187 -0.0116
 5541TIP3   OH238181   6.543   3.469   1.548  0.1293  0.3449 -0.1465
 5541TIP3    H138182   6.532   3.564   1.545 -1.0377  0.2019 -0.9418
 5541TIP3    H238183   6.635   3.456   1.573  0.0628  1.6651  0.8651
 5542TIP3   OH238184   2.444   5.272   3.654  0.3734 -0.3688  0.0920
 5542TIP3    H138185   2.418   5.196   3.706  0.4725 -0.1662  0.4452
 5542TIP3    H238186   2.469   5.338   3.719 -0.2362  0.1555 -0.1937
 5543TIP3   OH238187   2.385   2.596   1.619  0.2541 -0.1469 -0.3667
 5543TIP3    H138188   2.354   2.617   1.531  2.1803  1.9727 -0.6177
 5543TIP3    H238189   2.317   2.631   1.677  0.0195  0.4100 -0.9657
 5544TIP3   OH238190   6.731   2.734   3.266 -0.3388  0.4526 -0.3456
 5544TIP3    H138191   6.827   2.732   3.262 -0.2731  2.0849 -0.4267
 5544TIP3    H238192   6.703   2.652   3.226  1.0596 -1.1864  1.8224
 5545TIP3   OH238193   3.801   4.715   2.410  0.4014 -0.1308 -0.1382
 5545TIP3    H138194   3.788   4.692   2.502  1.8142  0.5156  0.2549
 5545TIP3    H238195   3.713   4.728   2.375 -0.1860 -1.0645  0.9376
 5546TIP3   OH238196   6.162   3.189   2.153 -0.4130 -0.3288  0.2656
 5546TIP3    H138197   6.150   3.098   2.182 -1.1073  0.0322  1.1731
 5546TIP3    H238198   6.235   3.186   2.091 -0.1937 -1.4454  0.5667
 5547TIP3   OH238199   1.711   5.937   4.015 -0.2624  0.4557  0.6397
 5547TIP3    H138200   1.617   5.952   4.024 -0.2774  0.9822 -0.2747
 5547TIP3    H238201   1.718   5.861   3.956 -0.1200  1.5268 -0.7807
 5548TIP3   OH238202   2.653   2.100   1.392  0.3124  0.0512  0.2358
 5548TIP3    H138203   2.598   2.025   1.413  2.4622 -1.4782  0.8197
 5548TIP3    H238204   2.680   2.086   1.301 -0.4056  0.9225 -0.1323
 5549TIP3   OH238205   3.588   2.012   2.028 -0.5941 -0.6036  0.6212
 5549TIP3    H138206   3.663   1.995   2.085 -0.6642 -1.3378  0.5100
 5549TIP3    H238207   3.595   1.945   1.960  0.1981  1.0034 -0.9585
 5550TIP3   OH238208   4.651   1.150   1.115 -0.4552 -1.3272  0.7278
 5550TIP3    H138209   4.693   1.110   1.039  0.9638 -1.0714  1.3429
 5550TIP3    H238210   4.642   1.242   1.092 -1.3272 -1.5080  0.3272
 5551TIP3   OH238211   5.548   3.447   2.915  0.1670  0.1384 -0.0441
 5551TIP3    H138212   5.620   3.405   2.962  0.3686  0.6013  0.0750
 5551TIP3    H238213   5.554   3.539   2.942 -0.5145  0.1661  0.0252
 5552TIP3   OH238214   1.372   6.631   3.568 -0.2630 -0.1460  0.3349
 5552TIP3    H138215   1.381   6.630   3.472 -1.0678 -0.5766  0.2565
 5552TIP3    H238216   1.294   6.685   3.584 -0.0873 -0.0141  0.7552
 5553TIP3   OH238217   3.755   6.272   3.624  0.1878 -0.3636  0.0906
 5553TIP3    H138218   3.693   6.200   3.613 -1.3115  0.8365  0.3267
 5553TIP3    H238219   3.743   6.300   3.715 -0.6167  1.3225 -0.4834
 5554TIP3   OH238220   2.351   5.367   1.769  0.5087 -0.0475 -0.0270
 5554TIP3    H138221   2.258   5.389   1.766  0.3265 -0.6472  0.9733
 5554TIP3    H238222   2.384   5.414   1.846  1.5675  2.0940 -1.6960
 5555TIP3   OH238223   1.622   5.218   0.875 -0.5455  0.4126 -0.4316
 5555TIP3    H138224   1.650   5.237   0.785  0.0509 -1.2321 -0.6351
 5555TIP3    H238225   1.581   5.132   0.869 -0.5797  0.3214  0.8681
 5556TIP3   OH238226   5.197   2.410   1.596 -0.0509  0.5138 -0.4176
 5556TIP3    H138227   5.237   2.323   1.604 -1.3551 -0.0441  0.2397
 5556TIP3    H238228   5.223   2.456   1.676  0.2798  0.5814 -0.5626
 5557TIP3   OH238229   5.540   5.991   3.355 -0.0221 -0.3125  0.0806
 5557TIP3    H138230   5.627   6.028   3.368  0.4632 -1.2022 -0.5120
 5557TIP3    H238231   5.491   6.016   3.433  1.1758 -0.9516  1.0775
 5558TIP3   OH238232   0.146   2.502   4.001  0.8422  0.4400  0.0861
 5558TIP3    H138233   0.102   2.580   3.969  0.4046 -0.2571 -1.0771
 5558TIP3    H238234   0.084   2.431   3.983  1.4658 -0.2545  0.6006
 5559TIP3   OH238235   3.155   2.901   4.947  0.5966  0.4832  0.1714
 5559TIP3    H138236   3.067   2.863   4.957  0.0892  1.2604 -1.1403
 5559TIP3    H238237   3.139   2.991   4.918  1.8299  0.5084 -0.4945
 5560TIP3   OH238238   4.808   1.657   1.656 -0.7850 -0.2616 -0.2006
 5560TIP3    H138239   4.840   1.627   1.742 -0.2142 -0.6658 -0.5453
 5560TIP3    H238240   4.833   1.586   1.596 -1.1793  0.0218 -0.7016
 5561TIP3   OH238241   0.655   5.429   2.320 -0.7385 -0.2095  0.4897
 5561TIP3    H138242   0.722   5.414   2.386  0.4948  1.5691 -0.2822
 5561TIP3    H238243   0.591   5.487   2.363  1.6955  3.7169 -0.6212
 5562TIP3   OH238244   4.669   4.411   0.770  0.2158  0.7990 -0.3772
 5562TIP3    H138245   4.611   4.335   0.778  2.3790 -1.1555 -2.1545
 5562TIP3    H238246   4.665   4.453   0.856 -0.0069 -2.1327  1.1622
 5563TIP3   OH238247   3.744   0.068   1.499 -0.0996 -0.6892  0.2849
 5563TIP3    H138248   3.823   0.017   1.483  1.0443  0.6676  1.2533
 5563TIP3    H238249   3.695   0.064   1.417  0.5033 -2.3427 -0.0222
 5564TIP3   OH238250   0.610   5.330   2.877 -0.2179 -0.3027  0.1507
 5564TIP3    H138251   0.687   5.329   2.820  0.8931  0.0743  1.5684
 5564TIP3    H238252   0.537   5.353   2.819  0.7191 -0.6829 -1.2376
 5565TIP3   OH238253   5.177   6.428   3.716  0.0353  0.7525 -0.1612
 5565TIP3    H138254   5.161   6.408   3.624  0.0992  1.1887 -0.2716
 5565TIP3    H238255   5.271   6.446   3.720  0.5801 -1.9158  0.5048
 5566TIP3   OH238256   1.800   0.812   2.533  0.2417  0.0981  0.2447
 5566TIP3    H138257   1.778   0.720   2.517  0.7968 -0.2081  1.1831
 5566TIP3    H238258   1.718   0.859   2.518  0.4463 -0.2657 -2.3429
 5567TIP3   OH238259   2.373   5.783   5.196  0.1247 -0.1207  0.0886
 5567TIP3    H138260   2.309   5.744   5.136 -0.2591 -0.9664  1.0282
 5567TIP3    H238261   2.440   5.715   5.207  0.6748  0.3846 -0.1061
 5568TIP3   OH238262   3.587   6.640   1.101 -1.0877 -0.5556  0.5862
 5568TIP3    H138263   3.673   6.676   1.079 -0.6467 -1.1131  1.3380
 5568TIP3    H238264   3.581   6.559   1.051 -2.5669  1.0068 -2.0331
 5569TIP3   OH238265   0.024   5.724   3.120 -0.3382  0.1262 -0.2317
 5569TIP3    H138266   0.053   5.765   3.201 -0.7705 -0.0669  0.0249
 5569TIP3    H238267   0.016   5.795   3.057 -1.2516  0.4672  0.2551
 5570TIP3   OH238268   3.699   6.103   2.450  0.2733  0.1704  0.5993
 5570TIP3    H138269   3.682   6.194   2.474  0.6776  0.7912 -1.3078
 5570TIP3    H238270   3.790   6.088   2.477 -0.0257  0.0697  1.5909
 5571TIP3   OH238271   2.552   3.271   3.432  0.0602 -0.1557  0.3962
 5571TIP3    H138272   2.596   3.195   3.395  0.4346  0.4799 -0.4871
 5571TIP3    H238273   2.519   3.241   3.517  1.0878 -1.0051  0.5074
 5572TIP3   OH238274   0.815   6.718   4.564 -0.4454  0.0317  0.3169
 5572TIP3    H138275   0.796   6.720   4.657 -0.5385  2.9420  0.3251
 5572TIP3    H238276   0.730   6.712   4.522 -0.3615 -2.2842  0.3411
 5573TIP3   OH238277   4.601   2.454   3.955  0.2369  0.5977 -0.0205
 5573TIP3    H138278   4.530   2.518   3.952 -1.4358 -0.9055  2.7960
 5573TIP3    H238279   4.648   2.475   4.036  1.0664 -0.3534 -0.2435
 5574TIP3   OH238280   4.962   4.246   1.308  0.0604  0.6216 -0.2327
 5574TIP3    H138281   4.926   4.215   1.391  1.6048 -0.3326  0.1026
 5574TIP3    H238282   4.907   4.322   1.286 -0.7729  0.5157  1.3224
 5575TIP3   OH238283   2.731   6.719   0.463  0.1708 -0.3228 -0.6106
 5575TIP3    H138284   2.740   6.624   0.462 -0.4499 -0.4052  0.6259
 5575TIP3    H238285   2.794   6.749   0.398  1.2731 -1.4951 -0.1266
 5576TIP3   OH238286   6.255   5.220   2.863  0.3756 -1.2925 -0.3681
 5576TIP3    H138287   6.329   5.225   2.923  0.9330 -1.1127 -1.0654
 5576TIP3    H238288   6.248   5.127   2.841  0.3655 -1.3144 -0.2746
 5577TIP3   OH238289   6.196   1.749   3.467  0.2105  0.2098 -0.0750
 5577TIP3    H138290   6.154   1.718   3.547  0.2869  1.9672  0.6941
 5577TIP3    H238291   6.287   1.769   3.493  0.3355  0.4602 -0.6708
 5578TIP3   OH238292   6.089   2.648   3.282 -0.3903 -0.0955  0.5114
 5578TIP3    H138293   6.078   2.554   3.301  0.0905 -0.0418  1.0584
 5578TIP3    H238294   6.052   2.658   3.194 -1.1843 -0.6486  0.7609
 5579TIP3   OH238295   1.703   5.718   2.774 -0.1408  0.4245  0.3608
 5579TIP3    H138296   1.791   5.703   2.741  0.1675  0.1286  1.2857
 5579TIP3    H238297   1.692   5.654   2.844 -0.2982  1.7958  1.6601
 5580TIP3   OH238298   5.857   1.320   0.087  0.2213 -0.1754  0.6550
 5580TIP3    H138299   5.932   1.357   0.041 -1.1688  0.3873 -1.2742
 5580TIP3    H238300   5.874   1.225   0.087  0.2103 -0.2152 -1.2078
 5581TIP3   OH238301   1.619   6.130   0.425  0.4458  0.2176  0.0866
 5581TIP3    H138302   1.625   6.062   0.492 -0.9344  0.2594  0.2774
 5581TIP3    H238303   1.554   6.096   0.363  0.7042  0.7839 -0.5023
 5582TIP3   OH238304   1.661   0.974   2.254 -0.3021 -0.1344  0.4385
 5582TIP3    H138305   1.668   0.995   2.347 -0.0699  2.2119 -0.0260
 5582TIP3    H238306   1.580   1.016   2.226 -1.1808 -2.1141 -0.1623
 5583TIP3   OH238307   4.815   0.445   2.443  0.2117 -0.6062  0.6427
 5583TIP3    H138308   4.884   0.398   2.395 -0.3727 -0.8309  0.0046
 5583TIP3    H238309   4.745   0.457   2.379  0.8534  2.3947  0.3636
 5584TIP3   OH238310   5.993   1.563   3.272  0.8140 -0.0107  0.2049
 5584TIP3    H138311   6.035   1.552   3.187  1.0020 -2.0270  0.5170
 5584TIP3    H238312   5.912   1.611   3.253  1.4106  0.5936 -0.9220
 5585TIP3   OH238313   2.143   2.769   2.309 -0.3401  0.3380 -0.1464
 5585TIP3    H138314   2.060   2.723   2.298 -0.0062  0.3087 -3.5025
 5585TIP3    H238315   2.128   2.856   2.272  1.0954  0.3536 -0.7499
 5586TIP3   OH238316   1.966   3.568   4.072  0.2317  0.2508 -0.2388
 5586TIP3    H138317   1.975   3.601   4.161  2.0572 -0.1796 -0.2310
 5586TIP3    H238318   1.949   3.646   4.019  2.8704  1.0777  0.0001
 5587TIP3   OH238319   3.531   1.918   1.533  0.3724 -0.4353 -0.0334
 5587TIP3    H138320   3.584   1.874   1.467 -0.5136 -0.6530 -0.6237
 5587TIP3    H238321   3.594   1.964   1.588  1.1996 -1.1395 -0.3740
 5588TIP3   OH238322   6.528   3.275   1.330  0.4312 -0.0068  0.2694
 5588TIP3    H138323   6.610   3.227   1.341  1.1652  1.4082  1.1811
 5588TIP3    H238324   6.534   3.349   1.390 -0.9400  0.8926 -0.6215
 5589TIP3   OH238325   0.774   2.477   3.958 -0.1442 -0.3398  0.1694
 5589TIP3    H138326   0.745   2.432   4.037 -1.3480 -0.5942 -0.3971
 5589TIP3    H238327   0.765   2.570   3.979  2.3711 -0.2670  1.3496
 5590TIP3   OH238328   1.680   2.357   3.179 -0.5558  0.3441 -0.4039
 5590TIP3    H138329   1.734   2.362   3.258 -2.6217  0.4958  1.0974
 5590TIP3    H238330   1.601   2.406   3.202 -2.8190 -2.6849 -1.1602
 5591TIP3   OH238331   5.482   2.915   3.148  0.0252  0.6563 -0.3258
 5591TIP3    H138332   5.391   2.920   3.116 -0.0564 -0.9594 -0.4750
 5591TIP3    H238333   5.526   2.858   3.084  0.6445 -0.1171  0.7505
 5592TIP3   OH238334   0.102   1.234   2.806 -0.0911 -0.4748  0.3827
 5592TIP3    H138335   0.197   1.244   2.801 -0.2994  2.0284  0.1437
 5592TIP3    H238336   0.069   1.323   2.819 -2.4280 -1.2510  0.2553
 5593TIP3   OH238337   2.766   0.896   0.844 -0.2172 -0.0233 -0.1931
 5593TIP3    H138338   2.683   0.854   0.868 -0.8384  0.9974 -0.4772
 5593TIP3    H238339   2.773   0.971   0.904  0.2858  0.1436 -0.4529
 5594TIP3   OH238340   4.492   0.877   1.120 -0.0575 -0.3758 -0.4912
 5594TIP3    H138341   4.501   0.794   1.167  1.3807  0.5026  0.8430
 5594TIP3    H238342   4.544   0.864   1.040  1.1298 -0.3719  0.2648
 5595TIP3   OH238343   3.217   1.563   3.837  0.0193 -0.7516 -0.1034
 5595TIP3    H138344   3.260   1.557   3.922 -2.9042 -2.1755  1.3978
 5595TIP3    H238345   3.182   1.652   3.833 -0.5511 -0.9388  0.5799
 5596TIP3   OH238346   2.434   0.238   2.701  0.4921 -0.2416  0.1436
 5596TIP3    H138347   2.521   0.277   2.706  0.1702  0.7445 -1.4040
 5596TIP3    H238348   2.426   0.188   2.783  2.5075 -0.4031  0.2937
 5597TIP3   OH238349   0.752   0.934   1.239  0.1143  0.2029 -0.4794
 5597TIP3    H138350   0.794   1.005   1.288  0.3740  0.0428 -0.4701
 5597TIP3    H238351   0.810   0.918   1.165  0.2055 -0.1989 -0.3236
 5598TIP3   OH238352   2.124   5.216   3.733 -0.5023  0.2816  0.1569
 5598TIP3    H138353   2.091   5.202   3.821 -2.0052 -0.8633 -0.5421
 5598TIP3    H238354   2.191   5.284   3.743 -0.5269  0.0725  2.1759
 5599TIP3   OH238355   0.574   1.989   0.801  0.1197 -0.2354 -0.2393
 5599TIP3    H138356   0.591   2.078   0.770  0.3752 -0.2930 -0.2711
 5599TIP3    H238357   0.485   1.970   0.773 -0.1971  0.2719  0.3898
 5600TIP3   OH238358   6.205   3.797   3.278  0.2497  0.1768  0.3734
 5600TIP3    H138359   6.299   3.782   3.269 -0.0323 -1.1433 -0.6057
 5600TIP3    H238360   6.184   3.760   3.364  0.9669  2.4949  1.6307
 5601TIP3   OH238361   5.706   3.027   8.548  0.6900  0.3487  0.0870
 5601TIP3    H138362   5.796   3.018   8.577  0.7102 -0.3438 -0.1717
 5601TIP3    H238363   5.701   2.977   8.467  0.1018  0.4789  0.0330
 5602TIP3   OH238364   0.147   6.759   0.811 -0.1400  0.4787 -0.5092
 5602TIP3    H138365   0.171   6.667   0.811 -0.2804  0.3998  1.2964
 5602TIP3    H238366   0.161   6.787   0.902 -0.4699  2.1321 -0.9384
 5603TIP3   OH238367   6.355   2.366   3.341 -0.1756  0.4834 -0.5806
 5603TIP3    H138368   6.379   2.275   3.323 -0.1888  0.6414 -1.3939
 5603TIP3    H238369   6.412   2.392   3.413  0.6504  0.2032 -1.1255
 5604TIP3   OH238370   0.962   4.656   4.422 -0.1054  0.2790  0.2970
 5604TIP3    H138371   1.016   4.577   4.428  0.5953  0.6449 -0.8006
 5604TIP3    H238372   0.873   4.625   4.438  0.0948 -0.8364 -0.5856
 5605TIP3   OH238373   2.563   1.171   1.107  0.4108 -0.0658 -0.0621
 5605TIP3    H138374   2.632   1.118   1.069  0.4790  0.1722 -0.2709
 5605TIP3    H238375   2.530   1.119   1.180  0.0826 -0.6513 -0.6248
 5606TIP3   OH238376   1.052   3.074   0.377 -0.2349  0.2958  0.0106
 5606TIP3    H138377   1.095   3.053   0.294  0.2159  0.8265  0.1007
 5606TIP3    H238378   1.008   2.993   0.403 -0.3557  0.1223 -0.7293
 5607TIP3   OH238379   1.646   1.934   3.124  0.5865 -0.4165 -0.4033
 5607TIP3    H138380   1.581   1.868   3.102  0.1610 -0.4412  0.8785
 5607TIP3    H238381   1.679   1.964   3.039 -0.3923 -1.0922 -1.0383
 5608TIP3   OH238382   1.084   1.198   0.752  0.5168  0.6572  0.1040
 5608TIP3    H138383   1.049   1.261   0.689 -2.0184  1.0176  1.7198
 5608TIP3    H238384   1.020   1.127   0.753  0.0102  1.0374  2.7654
 5609TIP3   OH238385   6.570   4.619   1.787  0.4883 -0.2298  0.1355
 5609TIP3    H138386   6.641   4.675   1.756 -1.0140  1.5142 -0.3169
 5609TIP3    H238387   6.490   4.667   1.767 -0.9678 -2.8436 -0.8747
 5610TIP3   OH238388   4.328   5.634   4.200  0.2163  0.1077  0.1833
 5610TIP3    H138389   4.242   5.595   4.183  0.6837 -0.3486 -1.2678
 5610TIP3    H238390   4.315   5.728   4.189  0.3183 -0.0972 -2.1779
 5611TIP3   OH238391   2.333   3.784   2.340 -0.5952  0.7445  0.3827
 5611TIP3    H138392   2.378   3.699   2.332 -1.1915  0.4613 -0.0338
 5611TIP3    H238393   2.297   3.783   2.429 -1.5961  0.0394  0.0012
 5612TIP3   OH238394   2.224   3.458   4.089 -0.1091  0.0460  0.0393
 5612TIP3    H138395   2.210   3.454   4.184  0.9176 -2.6587  0.1504
 5612TIP3    H238396   2.142   3.493   4.054 -0.7363  0.5131  1.8556
 5613TIP3   OH238397   3.839   5.422   3.336  0.3369  0.2034 -0.7230
 5613TIP3    H138398   3.762   5.478   3.323 -0.7130 -0.9710  0.1974
 5613TIP3    H238399   3.900   5.450   3.268 -0.4435  1.9423 -0.7670
 5614TIP3   OH238400   4.350   6.344   1.824  0.7884 -0.1280  1.0263
 5614TIP3    H138401   4.417   6.281   1.797 -0.6282 -1.2262 -0.1448
 5614TIP3    H238402   4.371   6.424   1.776 -0.4407 -1.3986 -1.9396
 5615TIP3   OH238403   5.394   2.425   2.548 -0.2025  0.2889 -0.0294
 5615TIP3    H138404   5.301   2.442   2.560  0.2758  1.7570  2.0042
 5615TIP3    H238405   5.410   2.446   2.456 -1.5182  1.9230  0.0781
 5616TIP3   OH238406   4.114   1.965   3.590  0.2361 -0.0542  0.2778
 5616TIP3    H138407   4.117   1.870   3.593 -1.6818 -0.1281  1.8468
 5616TIP3    H238408   4.136   1.993   3.679  1.4387  1.0459 -0.3173
 5617TIP3   OH238409   5.474   6.783   1.332 -0.5986  0.1576 -0.0075
 5617TIP3    H138410   5.388   6.765   1.293 -0.5879  0.1763 -0.0389
 5617TIP3    H238411   5.478   6.878   1.338 -0.1182  0.2136 -1.0400
 5618TIP3   OH238412   3.562   1.245   0.679 -0.4566 -0.2222  0.0996
 5618TIP3    H138413   3.548   1.271   0.588  1.1233 -0.3664 -0.2151
 5618TIP3    H238414   3.525   1.157   0.685 -1.3666  0.1309 -0.1493
 5619TIP3   OH238415   5.986   1.413   0.869 -0.4513  0.2865 -0.1034
 5619TIP3    H138416   6.011   1.498   0.906  0.3675 -0.3790  0.8860
 5619TIP3    H238417   5.954   1.435   0.781  0.6763  1.5044 -0.2372
 5620TIP3   OH238418   4.586   0.134   1.879 -0.6810 -0.5609 -0.3410
 5620TIP3    H138419   4.576   0.049   1.838 -1.6775 -1.0016  0.7772
 5620TIP3    H238420   4.507   0.183   1.856  0.4190  0.5546 -2.0065
 5621TIP3   OH238421   6.035   4.800   0.389  1.1663 -0.2502  0.2263
 5621TIP3    H138422   5.993   4.874   0.434  1.6456  0.3220 -0.2407
 5621TIP3    H238423   6.096   4.842   0.328 -0.6590 -0.9218 -2.2017
 5622TIP3   OH238424   1.315   3.674   3.573  0.2540 -0.6225 -0.3038
 5622TIP3    H138425   1.317   3.621   3.653 -0.5900 -1.0928 -0.5894
 5622TIP3    H238426   1.285   3.614   3.505  1.6070 -0.4103 -1.1310
 5623TIP3   OH238427   0.035   0.891   2.379  1.2398 -0.1359 -0.0449
 5623TIP3    H138428  -0.051   0.923   2.352 -0.6443 -3.0488  1.8934
 5623TIP3    H238429   0.067   0.956   2.441 -0.7189 -0.0763  0.9831
 5624TIP3   OH238430   3.417   1.973   3.052  0.1918  0.0432  0.0231
 5624TIP3    H138431   3.412   1.945   3.143  1.2533  1.6911  0.6346
 5624TIP3    H238432   3.502   1.941   3.022  0.5929  0.9142  0.1684
 5625TIP3   OH238433   2.866   5.361   3.538 -0.1844 -0.1278 -0.3920
 5625TIP3    H138434   2.886   5.275   3.502 -1.0003 -0.3513 -0.3256
 5625TIP3    H238435   2.775   5.376   3.516 -0.1023  0.6446 -0.2381
 5626TIP3   OH238436   4.047   4.004   2.123  0.1073 -0.0055  0.0997
 5626TIP3    H138437   4.085   3.955   2.050 -2.5553 -0.4814 -1.0660
 5626TIP3    H238438   3.991   4.069   2.082 -2.3494 -1.0202  1.6601
 5627TIP3   OH238439   1.729   4.720   4.839  0.1164  0.4839  0.3984
 5627TIP3    H138440   1.795   4.670   4.886  1.0192  0.3250 -0.9872
 5627TIP3    H238441   1.671   4.654   4.800  0.6285  0.5289 -0.4650
 5628TIP3   OH238442   5.307   4.317   3.842  0.2184 -0.3250  0.0377
 5628TIP3    H138443   5.242   4.276   3.900 -0.3618 -1.7299 -1.5215
 5628TIP3    H238444   5.344   4.388   3.894 -2.9772  0.9213  0.8218
 5629TIP3   OH238445   1.669   0.938   0.807  0.1790  0.2358  0.2543
 5629TIP3    H138446   1.642   1.029   0.791 -2.1898 -0.7565 -2.0563
 5629TIP3    H238447   1.590   0.896   0.840  0.8985 -1.2774  0.1097
 5630TIP3   OH238448   6.434   4.854   0.396 -0.8135  0.1960 -0.2325
 5630TIP3    H138449   6.505   4.837   0.335  0.2030  1.3964  0.5797
 5630TIP3    H238450   6.369   4.902   0.344 -0.8000 -0.4041 -0.8242
 5631TIP3   OH238451   3.976   6.662   2.304  0.2531  0.2562 -0.4366
 5631TIP3    H138452   3.921   6.657   2.383  1.2665 -0.0257  0.2717
 5631TIP3    H238453   3.975   6.574   2.268  2.9063 -0.6793  1.4781
 5632TIP3   OH238454   4.656   1.024   3.794  0.0205  0.6828 -0.0595
 5632TIP3    H138455   4.567   0.991   3.807  0.6526 -0.1553  3.0120
 5632TIP3    H238456   4.646   1.118   3.781 -1.3924  0.3446 -1.6029
 5633TIP3   OH238457   4.691   5.899   3.794 -0.1447  0.0437 -0.1337
 5633TIP3    H138458   4.763   5.945   3.836  1.0826 -0.5064 -1.5601
 5633TIP3    H238459   4.664   5.833   3.859  1.2051 -0.3040  0.1093
 5634TIP3   OH238460   1.728   5.829   2.029  0.2041  0.1918  0.1027
 5634TIP3    H138461   1.634   5.844   2.020  0.2593  0.4698 -0.0169
 5634TIP3    H238462   1.737   5.734   2.039 -0.0135  0.0615 -0.8632
 5635TIP3   OH238463   5.436   2.328   1.911 -0.3571  0.1714 -0.1553
 5635TIP3    H138464   5.465   2.344   2.000  0.7382  0.2720 -0.5173
 5635TIP3    H238465   5.371   2.258   1.918 -0.3564  0.2543  0.7197
 5636TIP3   OH238466   5.997   3.727   2.110 -0.0179 -0.0964  0.1843
 5636TIP3    H138467   6.034   3.725   2.199 -0.6311  0.2104  0.4498
 5636TIP3    H238468   6.060   3.677   2.057  0.5919  0.1140  0.6948
 5637TIP3   OH238469   1.959   4.558   2.496  0.6669  0.3091  0.2630
 5637TIP3    H138470   1.928   4.638   2.539 -1.0538  0.5091 -1.2662
 5637TIP3    H238471   1.938   4.488   2.557  0.6313  0.8366  0.8664
 5638TIP3   OH238472   1.940   3.428   2.158 -0.7219  0.1222 -0.8043
 5638TIP3    H138473   1.982   3.447   2.074 -1.0489 -1.1594 -1.2816
 5638TIP3    H238474   1.847   3.445   2.142 -0.9183 -1.0723 -1.0180
 5639TIP3   OH238475   6.275   6.560   2.518 -0.7699  0.6028 -0.6066
 5639TIP3    H138476   6.261   6.641   2.470  0.7231  2.1003  1.2887
 5639TIP3    H238477   6.354   6.576   2.569 -0.8592 -1.7865  0.4243
 5640TIP3   OH238478   6.100   4.609   1.066 -0.1012  0.1736 -0.7638
 5640TIP3    H138479   6.157   4.557   1.123 -0.2715 -0.4620 -1.1687
 5640TIP3    H238480   6.140   4.696   1.067 -1.1015  0.7147  1.7898
 5641TIP3   OH238481   2.273   5.013   3.636  0.0783  0.2442 -0.1433
 5641TIP3    H138482   2.246   4.945   3.574 -0.5956  0.1147  0.2843
 5641TIP3    H238483   2.192   5.057   3.660  0.2124 -0.2332  1.2722
 5642TIP3   OH238484   2.485   2.950   4.650  0.9869 -0.4722  0.7926
 5642TIP3    H138485   2.412   2.960   4.589  0.9339 -1.1419  0.7338
 5642TIP3    H238486   2.444   2.945   4.736  1.0183 -0.0947  0.8286
 5643TIP3   OH238487   5.199   6.515   1.749  0.3061 -0.1290 -0.5271
 5643TIP3    H138488   5.111   6.509   1.786  0.4757 -0.4158 -0.1495
 5643TIP3    H238489   5.246   6.573   1.809  1.2374 -2.4083  1.1051
 5644TIP3   OH238490   4.001   6.390   3.863  0.1980 -0.4096 -0.4814
 5644TIP3    H138491   4.085   6.350   3.839  0.0778 -1.9456  1.4374
 5644TIP3    H238492   3.949   6.318   3.898 -1.1649  0.8832  0.2662
 5645TIP3   OH238493   5.497   3.775   0.796 -0.2337  0.0747 -0.0124
 5645TIP3    H138494   5.554   3.837   0.841  0.8181 -2.2655  2.0787
 5645TIP3    H238495   5.424   3.829   0.765  0.8204  2.4082  1.2811
 5646TIP3   OH238496   1.286   5.014   4.304  0.0842 -0.0005  0.2003
 5646TIP3    H138497   1.208   4.997   4.355 -1.3680  1.2591 -1.4728
 5646TIP3    H238498   1.282   5.107   4.282  0.8178 -0.3778 -1.8202
 5647TIP3   OH238499   5.075   3.507   2.348  0.4854 -0.2121 -0.1695
 5647TIP3    H138500   4.998   3.465   2.388  2.5231 -3.0465  1.1256
 5647TIP3    H238501   5.131   3.530   2.421  2.0476 -0.7332 -1.1584
 5648TIP3   OH238502   1.811   2.887   3.767  0.1165  0.2766 -0.2101
 5648TIP3    H138503   1.749   2.906   3.837 -0.8389 -0.4521 -0.8222
 5648TIP3    H238504   1.873   2.826   3.806 -1.1610 -1.1562 -0.3111
 5649TIP3   OH238505   4.992   0.677   1.911  0.2706 -0.2718  0.6204
 5649TIP3    H138506   5.055   0.608   1.890 -0.3676 -0.3136 -1.3789
 5649TIP3    H238507   5.028   0.719   1.989  2.4723 -0.6372 -0.1152
 5650TIP3   OH238508   5.863   0.740   1.924  0.7731  0.0188 -0.0469
 5650TIP3    H138509   5.955   0.724   1.903  0.8727  0.3342  0.1481
 5650TIP3    H238510   5.818   0.729   1.840  1.0782  0.5395 -0.2867
 5651TIP3   OH238511   4.486   4.193   1.750  0.2695 -0.3959 -0.1361
 5651TIP3    H138512   4.557   4.219   1.809  0.8690 -0.5203 -0.7885
 5651TIP3    H238513   4.437   4.127   1.799 -0.4179  0.9115  0.9853
 5652TIP3   OH238514   1.036   3.742   1.911 -0.2148 -0.5361  0.0092
 5652TIP3    H138515   1.071   3.653   1.918  2.5294  0.5284  1.4870
 5652TIP3    H238516   0.962   3.743   1.972  0.7163 -1.4152  1.2144
 5653TIP3   OH238517   4.206   0.117   2.952 -0.3539  0.4576  0.0982
 5653TIP3    H138518   4.295   0.089   2.972 -1.1157 -1.8612  0.5510
 5653TIP3    H238519   4.174   0.051   2.890 -1.2665  2.1234 -1.2751
 5654TIP3   OH238520   0.440   1.805   3.578  0.0320  0.1895  0.2129
 5654TIP3    H138521   0.522   1.757   3.563 -1.3151 -2.7624  1.4239
 5654TIP3    H238522   0.441   1.825   3.672 -0.3006  0.8009  0.0893
 5655TIP3   OH238523   2.041   2.461   1.951  0.4454  0.8385  0.3637
 5655TIP3    H138524   1.992   2.436   2.029  2.6226  3.5320  2.8723
 5655TIP3    H238525   2.098   2.386   1.933 -0.8945 -0.2729  0.5854
 5656TIP3   OH238526   5.130   2.450   2.852 -0.6477  0.0020  0.0143
 5656TIP3    H138527   5.150   2.366   2.811 -0.4716  0.0422  0.0164
 5656TIP3    H238528   5.212   2.477   2.894 -1.0750 -0.4942  1.2116
 5657TIP3   OH238529   3.055   5.337   3.264  0.2560 -0.4603 -0.2964
 5657TIP3    H138530   3.065   5.243   3.254 -2.2937 -0.6688 -1.3717
 5657TIP3    H238531   3.092   5.374   3.184  1.2425 -0.5025  0.1194
 5658TIP3   OH238532   3.260   4.798   2.264 -0.0269  0.5292 -0.1139
 5658TIP3    H138533   3.295   4.887   2.258 -1.1082  1.0214  0.6583
 5658TIP3    H238534   3.235   4.789   2.356  0.1929 -0.6337 -0.1567
 5659TIP3   OH238535   4.444   2.938   4.150  0.4241  0.0458  0.4617
 5659TIP3    H138536   4.489   2.900   4.226  0.5500  0.0359  0.3825
 5659TIP3    H238537   4.376   2.994   4.188 -0.1895 -0.7579  0.5843
 5660TIP3   OH238538   1.693   1.602   1.156 -0.1892  0.1903  0.9492
 5660TIP3    H138539   1.613   1.595   1.208  0.5474 -1.0991  1.9706
 5660TIP3    H238540   1.688   1.688   1.115 -1.0887  0.9977  2.6699
 5661TIP3   OH238541   5.210   5.434   2.527  0.0640 -0.3919  0.1251
 5661TIP3    H138542   5.207   5.476   2.613 -1.0767  1.4611 -0.7580
 5661TIP3    H238543   5.295   5.461   2.490 -0.4853  0.8472 -0.2702
 5662TIP3   OH238544   4.198   0.609   3.001 -0.3234  0.4322 -0.2228
 5662TIP3    H138545   4.261   0.570   3.061 -1.1244  1.1051  1.1129
 5662TIP3    H238546   4.178   0.540   2.938  1.4983  0.1157 -0.4903
 5663TIP3   OH238547   2.136   3.201   0.697  0.2634  0.3256  0.0394
 5663TIP3    H138548   2.222   3.163   0.680 -0.4210 -1.3310  0.1250
 5663TIP3    H238549   2.135   3.218   0.791  1.2561  2.3856 -0.2723
 5664TIP3   OH238550   3.551   0.192   4.546  0.1028  0.2452  0.1763
 5664TIP3    H138551   3.545   0.168   4.639  0.1723  2.4686  0.8085
 5664TIP3    H238552   3.498   0.271   4.538  1.8174  1.3488 -1.1921
 5665TIP3   OH238553   2.429   1.251   2.005  0.7255  0.1086 -0.1872
 5665TIP3    H138554   2.386   1.223   1.925  1.8328  0.0393 -0.7735
 5665TIP3    H238555   2.397   1.189   2.072  0.7887 -0.6463 -0.8416
 5666TIP3   OH238556   2.171   0.409   1.575  0.3539  0.7122 -0.5860
 5666TIP3    H138557   2.199   0.320   1.598  0.7199  0.8548 -0.4716
 5666TIP3    H238558   2.083   0.416   1.611 -1.3520 -0.9620 -3.9524
 5667TIP3   OH238559   3.570   3.278   3.557  0.1212 -0.1073 -0.0192
 5667TIP3    H138560   3.607   3.205   3.507  0.2285  0.3130 -0.5557
 5667TIP3    H238561   3.637   3.345   3.555  0.4993 -0.4018  1.4570
 5668TIP3   OH238562   0.108   3.200   1.701  0.0012  0.9439  0.3315
 5668TIP3    H138563   0.100   3.110   1.670 -1.2289  1.0586  0.2645
 5668TIP3    H238564   0.202   3.212   1.717  0.0165 -0.8285  1.8374
 5669TIP3   OH238565   2.943   3.642   0.951 -0.1891 -0.0537 -0.2361
 5669TIP3    H138566   2.892   3.708   0.903 -0.9745 -0.7375 -0.3764
 5669TIP3    H238567   2.992   3.596   0.883  1.2081  1.0801 -0.0249
 5670TIP3   OH238568   3.938   0.305   1.528  0.0850 -0.4873  0.1966
 5670TIP3    H138569   4.008   0.255   1.485  0.5111  0.5431 -0.3234
 5670TIP3    H238570   3.916   0.252   1.605  1.7128 -0.6395  0.5955
 5671TIP3   OH238571   0.819   2.753   4.032  0.3310 -0.2569 -0.0081
 5671TIP3    H138572   0.727   2.762   4.058  0.3880  3.2143 -0.5851
 5671TIP3    H238573   0.868   2.768   4.113  0.3829  1.3736 -0.3131
 5672TIP3   OH238574   6.073   6.432   1.047  0.2482  0.1471 -0.1665
 5672TIP3    H138575   6.134   6.457   0.978  0.8386 -1.6592 -0.3381
 5672TIP3    H238576   6.122   6.442   1.128 -0.6118  2.8022  0.1386
 5673TIP3   OH238577   3.272   6.210   3.079 -0.1465 -0.4477  0.4205
 5673TIP3    H138578   3.312   6.157   3.010  1.6186  0.6232  0.5461
 5673TIP3    H238579   3.337   6.209   3.149 -0.3243  1.3693  0.6494
 5674TIP3   OH238580   4.688   6.208   2.416 -0.5743 -0.1806 -0.8596
 5674TIP3    H138581   4.751   6.170   2.355 -0.0193  0.2347 -0.5467
 5674TIP3    H238582   4.656   6.287   2.373  2.0852  1.8485  0.6000
 5675TIP3   OH238583   3.287   4.274   0.408  0.0997  0.0744 -0.0003
 5675TIP3    H138584   3.282   4.184   0.377  3.0528 -0.4417  0.7509
 5675TIP3    H238585   3.245   4.326   0.339 -1.1263 -1.7817 -0.7139
 5676TIP3   OH238586   6.535   6.356   2.628  0.1950 -0.0715  0.0052
 5676TIP3    H138587   6.623   6.362   2.591 -0.4178 -0.2349 -1.5610
 5676TIP3    H238588   6.528   6.431   2.687  0.7983  0.9636 -1.1926
 5677TIP3   OH238589   0.314   2.012   3.872  0.2754  0.1784 -0.1784
 5677TIP3    H138590   0.371   2.002   3.796 -0.2066  0.0977 -0.5349
 5677TIP3    H238591   0.291   1.922   3.897  0.8154  0.1838  0.3625
 5678TIP3   OH238592   5.909   6.481   3.574  0.0954  0.2100  0.4702
 5678TIP3    H138593   5.991   6.434   3.581 -0.8836 -1.3486  2.4389
 5678TIP3    H238594   5.882   6.471   3.483  0.5086 -2.0789  0.5581
 5679TIP3   OH238595   2.822   0.396   1.661  0.6802 -0.1421  0.1368
 5679TIP3    H138596   2.859   0.418   1.746  1.0102  0.8287 -0.2498
 5679TIP3    H238597   2.840   0.472   1.606 -2.1766  0.5546  0.0041
 5680TIP3   OH238598   6.546   4.397   1.611  0.0975  0.3628 -0.8553
 5680TIP3    H138599   6.576   4.466   1.670  2.1186 -0.8330 -0.4057
 5680TIP3    H238600   6.499   4.336   1.668 -0.1364  0.4486 -0.9518
 5681TIP3   OH238601   1.918   3.537   1.910 -0.3245 -0.5920 -0.0660
 5681TIP3    H138602   1.946   3.531   1.818 -0.0947 -0.5774  0.0020
 5681TIP3    H238603   1.983   3.594   1.951 -2.1820  2.0966 -0.5790
 5682TIP3   OH238604   0.937   6.314   2.890  0.1808  0.4970  0.4460
 5682TIP3    H138605   0.845   6.288   2.900  0.1622 -0.0963 -1.0301
 5682TIP3    H238606   0.944   6.394   2.941 -1.3790  1.0062 -0.0615
 5683TIP3   OH238607   4.652   0.197   0.639  0.5083  0.1065  0.2839
 5683TIP3    H138608   4.560   0.213   0.661 -0.2011 -1.6673 -1.1195
 5683TIP3    H238609   4.667   0.250   0.561 -0.0928 -1.4079 -0.9099
 5684TIP3   OH238610   0.973   3.824   0.601 -0.0497 -0.3239  0.1453
 5684TIP3    H138611   0.943   3.803   0.512  1.2795  1.5526 -0.8013
 5684TIP3    H238612   0.892   3.835   0.651 -0.8312 -1.0514 -0.8945
 5685TIP3   OH238613   5.770   0.003   2.492  0.2860  0.1072 -0.0821
 5685TIP3    H138614   5.777   0.097   2.471  2.0486  0.0978  0.2658
 5685TIP3    H238615   5.768   0.001   2.588  0.1152 -0.2001 -0.0943
 5686TIP3   OH238616   5.411   4.726   3.632 -0.5616  0.4761 -0.2238
 5686TIP3    H138617   5.362   4.654   3.593 -1.6631  1.3554 -0.5160
 5686TIP3    H238618   5.466   4.759   3.561  2.4844 -2.1140  0.7319
 5687TIP3   OH238619   0.998   1.673   3.288 -0.5590 -0.3903 -0.1771
 5687TIP3    H138620   0.989   1.580   3.310 -2.3772 -0.4283 -0.8634
 5687TIP3    H238621   0.996   1.718   3.373 -1.8472 -0.8792  0.0880
 5688TIP3   OH238622   1.687   1.049   1.866 -0.1328 -0.0259 -0.1033
 5688TIP3    H138623   1.599   1.060   1.901 -1.1270 -0.6853 -2.2287
 5688TIP3    H238624   1.679   0.977   1.803  1.9539 -0.1607 -0.2848
 5689TIP3   OH238625   4.581   1.797   0.831  0.1915 -0.4476 -0.3068
 5689TIP3    H138626   4.554   1.797   0.739  0.0859  0.1825 -0.2781
 5689TIP3    H238627   4.665   1.842   0.832 -1.1759  2.3528  0.2645
 5690TIP3   OH238628   1.630   4.524   2.183 -0.3969 -0.2311 -0.1098
 5690TIP3    H138629   1.618   4.552   2.274  0.3841  2.2916 -0.7009
 5690TIP3    H238630   1.708   4.571   2.154  0.3008 -2.1972 -1.6635
 5691TIP3   OH238631   5.416   0.747   0.239  0.0130  0.3148 -0.1264
 5691TIP3    H138632   5.424   0.806   0.164  1.3887  1.7339  1.0662
 5691TIP3    H238633   5.504   0.709   0.249 -0.5538 -1.0692 -0.1376
 5692TIP3   OH238634   4.365   0.335   1.870  0.0715  0.1704  0.2345
 5692TIP3    H138635   4.300   0.283   1.918  1.6561 -1.8550  0.3086
 5692TIP3    H238636   4.415   0.379   1.939 -0.6281  1.0520  0.2047
 5693TIP3   OH238637   0.755   3.355   2.104  0.1423 -0.0166  0.5185
 5693TIP3    H138638   0.822   3.413   2.138  0.2979 -0.2233  0.5674
 5693TIP3    H238639   0.803   3.284   2.061 -0.0467  0.0454  0.1946
 5694TIP3   OH238640   0.407   1.945   3.124 -0.3651 -0.2943  0.3644
 5694TIP3    H138641   0.498   1.933   3.152 -0.5146  0.0217  1.0078
 5694TIP3    H238642   0.355   1.911   3.197 -0.7693  0.6021  0.5084
 5695TIP3   OH238643   0.426   0.763   1.723  0.2783  0.2549 -0.5302
 5695TIP3    H138644   0.478   0.796   1.649  0.2026 -2.0674 -1.6788
 5695TIP3    H238645   0.492   0.733   1.786  0.3277 -0.0625 -0.7349
 5696TIP3   OH238646   1.874   6.218   2.183 -0.5270  0.1665  0.2918
 5696TIP3    H138647   1.881   6.314   2.185 -0.2141  0.1380  0.6659
 5696TIP3    H238648   1.958   6.189   2.149 -1.1193  0.0721 -1.1571
 5697TIP3   OH238649   2.836   0.382   2.273 -0.5614 -0.4475 -0.1507
 5697TIP3    H138650   2.886   0.362   2.352 -2.0140 -0.1757  0.8845
 5697TIP3    H238651   2.864   0.470   2.249 -2.4428  0.8602  2.0420
 5698TIP3   OH238652   4.135   4.138   1.855 -0.1950 -0.4873  0.3665
 5698TIP3    H138653   4.059   4.102   1.810  0.0130 -0.9754  0.3951
 5698TIP3    H238654   4.203   4.071   1.844  0.2411 -0.0406  0.3068
 5699TIP3   OH238655   6.623   6.565   2.778 -0.2935 -0.4042  0.2670
 5699TIP3    H138656   6.707   6.525   2.798  1.6824  2.5887 -1.2824
 5699TIP3    H238657   6.607   6.626   2.849 -1.4752 -1.2823  0.7979
 5700TIP3   OH238658   6.368   1.283   3.871  0.5188 -0.5730  0.0548
 5700TIP3    H138659   6.337   1.193   3.862  0.8045 -0.5962 -0.7757
 5700TIP3    H238660   6.416   1.300   3.790  0.5530  0.2962  0.2485
 5701TIP3   OH238661   6.789   2.060   3.707 -0.0746 -0.0553  0.2904
 5701TIP3    H138662   6.823   1.980   3.667  0.0992 -0.7202  1.7033
 5701TIP3    H238663   6.860   2.124   3.696 -0.1034 -0.1665 -0.6014
 5702TIP3   OH238664   3.213   5.661   2.687  0.0250  0.2550  0.2854
 5702TIP3    H138665   3.140   5.720   2.665 -1.6518 -1.6396  0.4787
 5702TIP3    H238666   3.236   5.684   2.777  0.8724  2.0300 -0.3492
 5703TIP3   OH238667   0.945   2.894   0.795  0.4423  0.4285  0.3630
 5703TIP3    H138668   0.980   2.851   0.717  1.9457  1.6707  0.2933
 5703TIP3    H238669   0.876   2.952   0.761  1.9736  1.9662 -0.2965
 5704TIP3   OH238670   0.415   5.512   4.116  0.7858 -0.2278  0.4655
 5704TIP3    H138671   0.415   5.581   4.050 -2.2179  0.0878  0.6480
 5704TIP3    H238672   0.473   5.545   4.185 -0.0735  1.8397  0.2634
 5705TIP3   OH238673   2.171   6.177   0.164 -0.6698 -0.4024  0.0044
 5705TIP3    H138674   2.101   6.238   0.139  0.1382  0.9397  0.8712
 5705TIP3    H238675   2.215   6.156   0.081  0.9461  2.6812 -0.0857
 5706TIP3   OH238676   6.766   3.192   1.432 -0.1959  0.1970 -0.3973
 5706TIP3    H138677   6.746   3.102   1.457 -0.5211  0.2095 -0.6035
 5706TIP3    H238678   6.848   3.212   1.477 -1.9460  1.0737  2.6425
 5707TIP3   OH238679   6.639   4.044   2.983 -0.4588  0.2264 -0.1493
 5707TIP3    H138680   6.713   4.011   3.034  0.4645  1.2882 -0.7670
 5707TIP3    H238681   6.572   4.064   3.049  0.6599  1.4518  0.6694
 5708TIP3   OH238682   3.309   3.490   4.758 -0.6580 -0.8085 -0.3030
 5708TIP3    H138683   3.234   3.495   4.699 -1.9438  0.5595  1.3519
 5708TIP3    H238684   3.318   3.578   4.794  2.4123 -0.6649 -1.1631
 5709TIP3   OH238685   2.291   2.521   2.109 -0.8779 -0.1906  0.2426
 5709TIP3    H138686   2.220   2.477   2.062 -1.4117  0.8355  0.0600
 5709TIP3    H238687   2.292   2.610   2.073  0.8310 -0.3128 -0.1180
 5710TIP3   OH238688   1.865   0.493   3.518  0.3215  0.0954 -0.0476
 5710TIP3    H138689   1.783   0.534   3.491  1.1510  1.1274 -1.1075
 5710TIP3    H238690   1.840   0.404   3.542 -0.8459 -0.2096 -2.1385
 5711TIP3   OH238691   6.310   2.474   8.848  0.4356  0.0234 -0.0242
 5711TIP3    H138692   6.285   2.561   8.815 -1.8761 -0.5170  0.0940
 5711TIP3    H238693   6.322   2.421   8.769 -1.2116 -0.2761 -0.1185
 5712TIP3   OH238694   2.883   4.350   2.873 -0.2933 -0.0569  0.7045
 5712TIP3    H138695   2.835   4.318   2.796  0.2532 -0.3119  0.4655
 5712TIP3    H238696   2.906   4.270   2.921  1.8036 -0.1331 -0.3192
 5713TIP3   OH238697   3.913   4.399   2.529  0.0909  0.3341 -0.0617
 5713TIP3    H138698   3.993   4.349   2.514 -0.0419 -0.6547  2.2109
 5713TIP3    H238699   3.940   4.474   2.581 -0.5072 -0.3305  1.2535
 5714TIP3   OH238700   4.205   4.722   1.665 -0.0752 -0.0426  0.2973
 5714TIP3    H138701   4.155   4.787   1.714 -0.9462 -0.4394 -0.0355
 5714TIP3    H238702   4.145   4.692   1.597 -0.1189 -2.0596  1.1591
 5715TIP3   OH238703   0.001   4.311   3.264 -0.3014 -0.5393 -0.9058
 5715TIP3    H138704   0.071   4.330   3.202 -0.8456 -1.8396 -1.9780
 5715TIP3    H238705  -0.077   4.352   3.227 -0.3334 -0.0185 -0.2777
 5716TIP3   OH238706   4.215   5.929   4.287  0.7286  0.0734  0.0711
 5716TIP3    H138707   4.124   5.912   4.262  1.0218 -0.1352 -0.8787
 5716TIP3    H238708   4.217   5.914   4.382 -0.5400  1.4465  0.3541
 5717TIP3   OH238709   0.006   1.912   0.923  0.2168 -0.2854 -0.0873
 5717TIP3    H138710   0.097   1.893   0.945  0.2587 -1.3483 -1.0889
 5717TIP3    H238711  -0.033   1.827   0.905 -1.1050  0.1157  0.7511
 5718TIP3   OH238712   5.759   2.926   0.978 -0.6539 -0.1491  0.3374
 5718TIP3    H138713   5.721   2.844   0.944  0.0926 -0.0252 -0.8594
 5718TIP3    H238714   5.689   2.991   0.967 -0.0765  0.1441 -2.1344
 5719TIP3   OH238715   2.151   4.269   0.297  0.2224 -0.1500 -0.5606
 5719TIP3    H138716   2.137   4.257   0.203 -0.1206 -0.4308 -0.4781
 5719TIP3    H238717   2.201   4.350   0.304  1.5579 -0.8951 -1.0725
 5720TIP3   OH238718   5.016   1.230   2.880  0.0481 -0.5382 -0.3390
 5720TIP3    H138719   5.107   1.236   2.854 -0.1689 -0.0163 -1.0059
 5720TIP3    H238720   5.018   1.188   2.966  0.8826 -0.8621 -0.5129
 5721TIP3   OH238721   2.078   1.698   2.741  0.1030 -0.2997 -0.4862
 5721TIP3    H138722   2.064   1.728   2.651  1.2700 -1.2433 -1.0131
 5721TIP3    H238723   2.128   1.768   2.783 -2.9529  1.5433  0.4022
 5722TIP3   OH238724   1.275   2.341   1.287 -0.4633 -0.1705 -0.2814
 5722TIP3    H138725   1.317   2.257   1.305 -0.9782 -0.0503  1.7423
 5722TIP3    H238726   1.239   2.332   1.198  1.4149 -1.2420 -0.9926
 5723TIP3   OH238727   1.089   6.382   3.347 -0.2584  0.0478  0.7384
 5723TIP3    H138728   1.166   6.339   3.311 -1.9479  0.1719 -3.7578
 5723TIP3    H238729   1.015   6.344   3.298 -2.4798  3.4830  1.0659
 5724TIP3   OH238730   0.823   2.545   0.756  0.0753 -0.4815 -0.3605
 5724TIP3    H138731   0.727   2.553   0.756  0.0838 -0.2736  0.4653
 5724TIP3    H238732   0.854   2.635   0.766  0.3662 -0.5433 -0.6818
 5725TIP3   OH238733   0.837   4.203   4.095 -0.6487 -0.1537 -0.2918
 5725TIP3    H138734   0.766   4.240   4.148 -0.0077 -1.4629  1.5955
 5725TIP3    H238735   0.883   4.144   4.155  3.6689  2.5116 -0.5701
 5726TIP3   OH238736   2.294   3.347   3.501 -0.1032 -0.2178  0.6155
 5726TIP3    H138737   2.307   3.254   3.479  1.7861  0.2359 -0.4418
 5726TIP3    H238738   2.382   3.385   3.493 -1.0604  1.9216 -0.2866
 5727TIP3   OH238739   3.074   5.594   3.695 -0.4081  0.2711 -0.2927
 5727TIP3    H138740   2.982   5.569   3.703 -0.9690  1.9313 -1.2620
 5727TIP3    H238741   3.109   5.585   3.784 -0.7883 -2.8678 -0.3512
 5728TIP3   OH238742   3.027   5.042   1.020 -0.6996  0.2760 -0.0692
 5728TIP3    H138743   3.116   5.069   0.997 -1.1636  1.5423 -0.4266
 5728TIP3    H238744   3.023   5.052   1.115 -0.0157 -1.2012  0.1411
 5729TIP3   OH238745   3.173   4.236   1.513  0.4452 -0.6803  0.2313
 5729TIP3    H138746   3.129   4.319   1.492 -1.7862 -1.4482  1.4815
 5729TIP3    H238747   3.214   4.253   1.598  2.9845  0.1294 -1.0729
 5730TIP3   OH238748   4.829   6.777   1.670  0.0081  0.4648 -0.6259
 5730TIP3    H138749   4.905   6.787   1.613  0.1937  1.7688 -0.1887
 5730TIP3    H238750   4.759   6.825   1.627 -0.1588  0.5220 -0.2980
 5731TIP3   OH238751   1.877   0.241   2.240  0.6170 -0.6121  0.3124
 5731TIP3    H138752   1.807   0.281   2.187  0.8528  1.0111  1.1496
 5731TIP3    H238753   1.952   0.299   2.227  0.5639  0.1002  2.7024
 5732TIP3   OH238754   2.266   1.231   8.518  0.4896  0.5625  0.1404
 5732TIP3    H138755   2.309   1.223   8.603 -1.6250 -0.9600  1.1460
 5732TIP3    H238756   2.194   1.169   8.521 -1.8554  2.9743 -1.4160
 5733TIP3   OH238757   6.499   2.878   3.190 -0.1257  0.5009 -0.0361
 5733TIP3    H138758   6.575   2.827   3.218  0.6410  1.5909 -0.0686
 5733TIP3    H238759   6.428   2.850   3.247 -0.4297 -2.4464 -1.6732
 5734TIP3   OH238760   5.917   0.568   2.873 -0.2919 -0.1379  0.0187
 5734TIP3    H138761   5.885   0.532   2.957  0.0689 -0.8172 -0.1248
 5734TIP3    H238762   5.859   0.641   2.855 -0.3295  0.0657  0.9068
 5735TIP3   OH238763   2.389   0.481   2.539 -0.4410 -0.7773 -0.3732
 5735TIP3    H138764   2.357   0.408   2.592 -1.2251 -0.3653 -0.2751
 5735TIP3    H238765   2.484   0.467   2.534 -0.2942 -0.5857  1.4866
 5736TIP3   OH238766   5.554   6.731   1.658 -0.4325 -0.6928 -0.4387
 5736TIP3    H138767   5.493   6.718   1.730 -0.1645 -0.2998 -0.1381
 5736TIP3    H238768   5.621   6.789   1.693  0.0153 -0.9718 -0.8220
 5737TIP3   OH238769   6.120   6.047   1.399 -0.0569 -0.4957 -0.0619
 5737TIP3    H138770   6.053   5.980   1.386  0.4266 -1.2100  0.9935
 5737TIP3    H238771   6.140   6.044   1.492  0.1511  0.9759 -0.0328
 5738TIP3   OH238772   6.535   5.209   3.932 -0.0684  0.1997 -0.1653
 5738TIP3    H138773   6.524   5.246   3.845 -0.3985 -0.6482 -0.4920
 5738TIP3    H238774   6.446   5.200   3.967 -0.2177 -2.2354 -0.9466
 5739TIP3   OH238775   3.458   3.734   1.460 -0.1392  0.0907 -0.6117
 5739TIP3    H138776   3.413   3.815   1.440  1.7411  1.8643  1.6593
 5739TIP3    H238777   3.408   3.695   1.532  0.2594  0.5134 -0.0958
 5740TIP3   OH238778   6.163   1.488   3.010 -0.6621 -0.3762  0.0252
 5740TIP3    H138779   6.245   1.528   2.982 -1.2143  0.1726 -0.8322
 5740TIP3    H238780   6.124   1.453   2.930 -0.1479 -2.7987  0.7403
 5741TIP3   OH238781   3.283   5.686   3.449  0.6139  0.0095 -0.4002
 5741TIP3    H138782   3.340   5.649   3.382  0.9933 -0.0184 -0.0699
 5741TIP3    H238783   3.245   5.610   3.493  2.1591 -0.0528  0.9327
 5742TIP3   OH238784   2.162   2.080   2.657  0.1249 -0.5864 -0.0678
 5742TIP3    H138785   2.236   2.137   2.633  0.1800 -0.9542 -0.7784
 5742TIP3    H238786   2.201   2.015   2.715  0.4412 -0.9986 -0.7327
 5743TIP3   OH238787   4.105   4.737   1.972 -0.5555  0.0842 -0.4206
 5743TIP3    H138788   4.109   4.652   2.018  0.2566  0.7195  0.7350
 5743TIP3    H238789   4.104   4.802   2.042 -1.3685  1.0352 -1.2944
 5744TIP3   OH238790   0.446   0.053   1.538 -0.1455  0.6073  0.4276
 5744TIP3    H138791   0.503  -0.017   1.569 -1.0312 -0.6752 -0.6886
 5744TIP3    H238792   0.397   0.081   1.615  0.2130 -0.0371  0.8967
 5745TIP3   OH238793   6.319   2.095   3.757  0.0748 -0.9952 -0.4481
 5745TIP3    H138794   6.404   2.104   3.714  0.5377 -1.2744  0.3983
 5745TIP3    H238795   6.313   2.002   3.780  0.3155 -0.6614  1.0456
 5746TIP3   OH238796   4.571   5.485   1.748  0.2442 -0.6388 -0.0422
 5746TIP3    H138797   4.567   5.580   1.755  0.1976 -0.6810  0.6742
 5746TIP3    H238798   4.600   5.467   1.659  0.6967  0.0532 -0.0369
 5747TIP3   OH238799   3.933   2.417   0.936  0.5392  0.4729 -0.1589
 5747TIP3    H138800   3.955   2.469   1.012  0.3896  0.6179 -0.2140
 5747TIP3    H238801   3.929   2.327   0.968  1.1027  0.4544 -0.1281
 5748TIP3   OH238802   2.578   2.790   2.824 -0.1983 -0.2055  0.4772
 5748TIP3    H138803   2.549   2.801   2.734 -0.2947 -2.9949  0.0855
 5748TIP3    H238804   2.500   2.761   2.871  0.2888 -0.6286  1.0390
 5749TIP3   OH238805   3.564   2.607   1.722  0.5656  0.5863  0.0345
 5749TIP3    H138806   3.637   2.664   1.748  1.4198 -0.1048 -0.7670
 5749TIP3    H238807   3.496   2.667   1.692  0.7584  1.2469  0.8888
 5750TIP3   OH238808   1.982   0.467   0.588  0.4735 -0.0099  0.2188
 5750TIP3    H138809   2.024   0.540   0.543 -2.8092  0.7921 -1.8812
 5750TIP3    H238810   1.958   0.502   0.674 -1.4078  1.6424 -0.8954
 5751TIP3   OH238811   3.590   1.990   2.766  0.3394 -0.1472  0.1161
 5751TIP3    H138812   3.548   2.070   2.798  0.3241  0.3741 -1.1680
 5751TIP3    H238813   3.662   1.975   2.828 -0.1978  0.3619  0.8778
 5752TIP3   OH238814   0.341   3.539   3.222  0.6666  0.5670  0.3079
 5752TIP3    H138815   0.322   3.450   3.195  0.3470  0.6910  0.1129
 5752TIP3    H238816   0.297   3.594   3.156  1.3454  0.8636  0.0954
 5753TIP3   OH238817   3.538   5.866   1.951  0.6396  0.2971 -0.1486
 5753TIP3    H138818   3.588   5.785   1.950 -1.8089 -1.3727  1.5596
 5753TIP3    H238819   3.582   5.920   2.017  0.5168 -0.9214  0.9633
 5754TIP3   OH238820   6.361   5.548   3.844 -0.7282  0.0119 -0.3046
 5754TIP3    H138821   6.294   5.548   3.776 -1.0071  1.0778 -0.0427
 5754TIP3    H238822   6.433   5.497   3.806 -1.3302 -0.3878 -0.9316
 5755TIP3   OH238823   1.575   1.329   1.324  0.0600 -0.3829  0.0336
 5755TIP3    H138824   1.610   1.342   1.235 -1.4780 -0.5245 -0.6293
 5755TIP3    H238825   1.652   1.309   1.377  1.1026  0.3486 -1.1335
 5756TIP3   OH238826   1.403   4.705   0.124 -0.4294 -0.4772 -0.1412
 5756TIP3    H138827   1.374   4.755   0.200 -0.8515  0.2289 -0.7541
 5756TIP3    H238828   1.327   4.654   0.097 -0.7060  0.3101 -0.9008
 5757TIP3   OH238829   6.684   0.006   3.846 -0.2807  0.4861 -0.8558
 5757TIP3    H138830   6.630  -0.041   3.782  0.2811 -1.0985 -0.2116
 5757TIP3    H238831   6.690  -0.054   3.921  0.5625  1.5478 -0.0487
 5758TIP3   OH238832   1.279   5.019   2.978 -0.6670 -0.1460  0.2237
 5758TIP3    H138833   1.333   4.986   3.049  0.7921  0.1964 -0.6691
 5758TIP3    H238834   1.305   4.966   2.902 -1.9626 -0.3030 -0.1255
 5759TIP3   OH238835   5.416   5.715   1.461  0.6716 -0.0485  0.4175
 5759TIP3    H138836   5.361   5.637   1.454 -1.2159  1.2539  0.2215
 5759TIP3    H238837   5.432   5.725   1.555 -0.6787  0.3764  0.6175
 5760TIP3   OH238838   4.394   2.027   2.381 -0.9782  0.1343  0.2553
 5760TIP3    H138839   4.312   2.006   2.427 -0.9521 -0.2846  0.1141
 5760TIP3    H238840   4.387   1.980   2.298 -0.3958 -0.2575  0.4282
 5761TIP3   OH238841   2.250   4.488   4.181  0.2469 -0.1895 -0.0418
 5761TIP3    H138842   2.331   4.529   4.152  1.4129 -1.0249  1.8170
 5761TIP3    H238843   2.181   4.551   4.159  1.6800  1.6823  0.5664
 5762TIP3   OH238844   1.201   0.476   2.721 -0.6290 -0.1093  0.0221
 5762TIP3    H138845   1.113   0.466   2.685 -1.1750 -0.2970  1.3407
 5762TIP3    H238846   1.225   0.387   2.749  0.5079 -0.3047 -1.4282
 5763TIP3   OH238847   4.950   2.776   1.820  0.5453 -0.4285  0.0892
 5763TIP3    H138848   4.892   2.770   1.744 -1.9773 -2.0066  1.9811
 5763TIP3    H238849   4.985   2.688   1.831 -1.1165 -0.9137  2.1183
 5764TIP3   OH238850   2.940   5.042   3.484 -0.4663 -0.3749  0.1501
 5764TIP3    H138851   2.983   4.999   3.558 -1.8224  0.4483  1.5027
 5764TIP3    H238852   2.847   5.043   3.509 -1.1934 -1.3443 -2.2484
 5765TIP3   OH238853   6.536   3.328   1.061  0.4275 -0.2524 -0.2617
 5765TIP3    H138854   6.496   3.278   1.132  0.6145  0.0986  0.0937
 5765TIP3    H238855   6.627   3.341   1.089  0.4390  0.0939 -0.4532
 5766TIP3   OH238856   1.000   3.189   2.588  0.3494 -0.4422  0.1880
 5766TIP3    H138857   0.929   3.190   2.653 -2.5092  0.6911 -2.6781
 5766TIP3    H238858   1.070   3.240   2.628 -2.0470  1.9415  1.6517
 5767TIP3   OH238859   6.429   3.947   0.303 -0.2999 -0.2938  0.3444
 5767TIP3    H138860   6.421   4.040   0.282  1.6457 -0.3385 -0.8460
 5767TIP3    H238861   6.380   3.902   0.234  1.4734 -0.2182 -1.0445
 5768TIP3   OH238862   3.261   3.851   3.818 -0.1667  0.3816  0.0056
 5768TIP3    H138863   3.302   3.907   3.884  2.5297  0.4625 -1.5750
 5768TIP3    H238864   3.212   3.911   3.762 -0.8728  0.5575  0.7984
 5769TIP3   OH238865   4.390   5.784   2.877 -0.2432  0.0148  0.2178
 5769TIP3    H138866   4.384   5.872   2.841 -0.0440 -0.5214 -1.1620
 5769TIP3    H238867   4.391   5.798   2.972  1.0783  1.5860  0.0263
 5770TIP3   OH238868   5.731   1.605   1.419  0.5718 -0.1502 -0.1708
 5770TIP3    H138869   5.805   1.646   1.375  1.1478 -0.8106  0.1605
 5770TIP3    H238870   5.759   1.514   1.433  0.3932  0.0211  1.5014
 5771TIP3   OH238871   5.703   3.491   0.613  0.0192  0.3850 -0.2285
 5771TIP3    H138872   5.794   3.472   0.590  0.1454  1.2727 -0.5060
 5771TIP3    H238873   5.707   3.573   0.661 -0.5556 -0.0074  0.5118
 5772TIP3   OH238874   2.791   0.735   1.635 -0.4096 -0.2048  0.1889
 5772TIP3    H138875   2.804   0.715   1.727 -1.1188  0.4890  0.4556
 5772TIP3    H238876   2.833   0.821   1.623 -1.0216  0.0828  0.0658
 5773TIP3   OH238877   2.231   0.833   2.387  0.0856  0.2767  0.3035
 5773TIP3    H138878   2.198   0.917   2.419  0.1269  0.6405 -0.5902
 5773TIP3    H238879   2.299   0.856   2.324  2.5673 -0.4243  2.5080
 5774TIP3   OH238880   1.888   5.949   1.829 -0.0536 -0.6745 -0.5554
 5774TIP3    H138881   1.879   6.044   1.816  0.2373  0.0455  3.2925
 5774TIP3    H238882   1.798   5.917   1.827 -0.5665  0.3988  1.7114
 5775TIP3   OH238883   1.685   1.017   3.498 -0.1345 -0.1662  0.2251
 5775TIP3    H138884   1.674   0.978   3.412  1.5505 -0.0541 -0.0768
 5775TIP3    H238885   1.598   1.050   3.521 -0.8035 -0.9862 -1.0291
 5776TIP3   OH238886   4.055   1.862   1.207 -0.1679  0.3717 -0.2017
 5776TIP3    H138887   4.090   1.854   1.295 -2.1959  0.3726  0.6587
 5776TIP3    H238888   4.120   1.913   1.159  0.6020  1.0321  1.4886
 5777TIP3   OH238889   3.803   2.300   2.540  0.9692 -0.1997  0.6553
 5777TIP3    H138890   3.835   2.250   2.615  1.0808 -1.2626 -0.0877
 5777TIP3    H238891   3.771   2.234   2.479 -1.6559  0.7558  0.8872
 5778TIP3   OH238892   2.986   5.520   0.986  0.4313  0.2233  0.5833
 5778TIP3    H138893   3.021   5.499   1.073  1.8857 -0.9714 -0.2614
 5778TIP3    H238894   2.901   5.562   1.005 -0.0047 -1.3550  2.5279
 5779TIP3   OH238895   0.552   5.031   3.885 -0.4550  0.1324 -0.6855
 5779TIP3    H138896   0.641   5.014   3.914 -0.0148  2.1071 -0.7454
 5779TIP3    H238897   0.519   4.945   3.858  1.1139 -0.7786  0.1368
 5780TIP3   OH238898   4.140   6.307   2.346 -0.5900  0.0185  0.6561
 5780TIP3    H138899   4.196   6.271   2.277 -2.4917 -1.6720 -0.1329
 5780TIP3    H238900   4.071   6.353   2.298 -0.8145  0.6209  1.5347
 5781TIP3   OH238901   1.317   1.821   4.631  0.0874 -0.5448  0.1712
 5781TIP3    H138902   1.337   1.844   4.540 -1.6571 -0.6498 -0.2799
 5781TIP3    H238903   1.399   1.834   4.678  1.1069 -0.7800 -1.4710
 5782TIP3   OH238904   4.238   6.196   4.157  0.5504 -0.0754  0.1862
 5782TIP3    H138905   4.175   6.184   4.085 -1.6954  0.2081  1.9774
 5782TIP3    H238906   4.252   6.108   4.191 -0.1631  0.0287  0.7757
 5783TIP3   OH238907   5.692   3.801   2.416  0.4685 -0.1904 -0.2942
 5783TIP3    H138908   5.614   3.851   2.439  0.1274 -1.2851  1.1152
 5783TIP3    H238909   5.699   3.810   2.321 -2.4321 -1.4821 -0.7727
 5784TIP3   OH238910   1.939   2.303   8.685  0.2561 -0.0416  0.9919
 5784TIP3    H138911   1.878   2.376   8.688 -0.4926 -0.6637  3.7459
 5784TIP3    H238912   1.896   2.237   8.631 -0.4911  0.3942  1.0423
 5785TIP3   OH238913   2.901   6.562   3.379  0.3722 -0.0625  0.1246
 5785TIP3    H138914   2.949   6.583   3.459  0.0551 -0.5347  0.4473
 5785TIP3    H238915   2.839   6.494   3.405 -0.2844  0.3387 -0.3472
 5786TIP3   OH238916   2.716   5.357   4.735  0.0590  0.1138  0.8067
 5786TIP3    H138917   2.688   5.440   4.772 -3.3023 -1.0779  1.2490
 5786TIP3    H238918   2.757   5.380   4.651 -0.6579  2.2018  0.9971
 5787TIP3   OH238919   1.973   3.768   3.671 -0.0630  0.2984 -0.5917
 5787TIP3    H138920   1.894   3.815   3.647  0.4546  1.0119 -0.9492
 5787TIP3    H238921   2.015   3.746   3.588 -0.4201 -1.0272 -0.4340
 5788TIP3   OH238922   3.466   5.506   3.808 -0.0671  0.2153 -0.0738
 5788TIP3    H138923   3.522   5.582   3.819 -0.2833  0.1345  1.8626
 5788TIP3    H238924   3.420   5.497   3.891 -0.8772 -1.3677 -0.6433
 5789TIP3   OH238925   6.285   3.373   3.190  0.0616  0.2954 -0.3940
 5789TIP3    H138926   6.355   3.349   3.251  0.5485 -0.1909 -1.1351
 5789TIP3    H238927   6.280   3.299   3.129 -1.6774 -0.0984  0.1500
 5790TIP3   OH238928   2.433   4.553   1.956 -0.3305  0.5739 -0.6778
 5790TIP3    H138929   2.428   4.460   1.977 -1.5474  0.8048  0.2016
 5790TIP3    H238930   2.343   4.577   1.934  0.1171  1.3744 -1.7337
 5791TIP3   OH238931   0.143   6.440   3.479 -0.4659  0.7963 -0.7532
 5791TIP3    H138932   0.108   6.379   3.544 -2.0978  0.7271 -1.6395
 5791TIP3    H238933   0.082   6.514   3.480  0.7925  1.8674 -0.5735
 5792TIP3   OH238934   3.271   1.980   2.465  0.2116  0.1250 -0.1030
 5792TIP3    H138935   3.304   1.905   2.416 -3.0206 -0.8843 -0.9505
 5792TIP3    H238936   3.239   1.942   2.547 -0.8631  0.6391 -0.2664
 5793TIP3   OH238937   5.750   2.043   2.881 -0.0880  0.0313  0.2149
 5793TIP3    H138938   5.745   2.093   2.799  1.2733  0.3029  0.2826
 5793TIP3    H238939   5.842   2.019   2.888 -0.7262 -2.7602  0.0344
 5794TIP3   OH238940   5.093   1.849   3.971 -0.1996 -0.4062 -0.2539
 5794TIP3    H138941   5.048   1.878   4.050  0.8322  0.1436  0.1531
 5794TIP3    H238942   5.175   1.811   4.003  1.8376  2.8053 -1.1660
 5795TIP3   OH238943   2.391   3.675   4.437  0.0378  0.6278 -0.4350
 5795TIP3    H138944   2.481   3.641   4.438 -0.2773 -0.2077  0.4251
 5795TIP3    H238945   2.338   3.601   4.409 -0.4295  1.0366 -0.6464
 5796TIP3   OH238946   5.550   3.384   2.612 -0.0293  0.1483 -0.4157
 5796TIP3    H138947   5.563   3.407   2.704 -0.3709  0.1774 -0.3757
 5796TIP3    H238948   5.540   3.289   2.612  1.7231 -0.0756 -0.6175
 5797TIP3   OH238949   1.814   5.629   1.070  0.0684 -0.9241  0.0675
 5797TIP3    H138950   1.877   5.688   1.029 -0.9160 -1.0966 -1.7598
 5797TIP3    H238951   1.824   5.546   1.022 -0.3233 -1.4903  0.9359
 5798TIP3   OH238952   6.769   1.532   3.273  0.4284 -0.3465 -0.6666
 5798TIP3    H138953   6.851   1.553   3.228 -0.4444  0.2481 -2.0113
 5798TIP3    H238954   6.745   1.446   3.240  0.2290 -0.2871 -0.6742
 5799TIP3   OH238955   1.236   2.783   1.430 -0.0171 -0.5210  0.5993
 5799TIP3    H138956   1.314   2.754   1.383 -0.0230 -0.9532  0.8538
 5799TIP3    H238957   1.173   2.712   1.417 -0.4812 -0.0235  0.1108
 5800TIP3   OH238958   1.895   5.578   1.350  0.2514 -0.0760  0.3673
 5800TIP3    H138959   1.838   5.504   1.375 -1.1175  1.0676  0.7583
 5800TIP3    H238960   1.855   5.613   1.271 -1.1092  2.2409  1.9514
 5801TIP3   OH238961   1.145   0.071   0.560  0.0779  0.3074 -0.0663
 5801TIP3    H138962   1.207   0.102   0.494  0.3491 -0.3191 -0.1172
 5801TIP3    H238963   1.108   0.151   0.598  0.1408  0.6759 -0.7667
 5802TIP3   OH238964   1.148   4.322   2.331  0.2957  0.2244  0.9222
 5802TIP3    H138965   1.074   4.320   2.392 -1.3659 -1.2687 -0.9949
 5802TIP3    H238966   1.215   4.267   2.372 -0.5436 -0.2603  1.6888
 5803TIP3   OH238967   0.580   3.191   1.473 -0.6327 -0.3064 -0.1226
 5803TIP3    H138968   0.585   3.287   1.469  1.8201 -0.2834  1.2078
 5803TIP3    H238969   0.486   3.172   1.481 -1.4879  1.7319 -3.4628
 5804TIP3   OH238970   1.764   4.009   1.699  0.2333  0.5651  0.4660
 5804TIP3    H138971   1.720   4.088   1.669 -1.9214 -1.2574 -1.5100
 5804TIP3    H238972   1.716   3.982   1.778  1.2927  1.4265  1.4444
 5805TIP3   OH238973   3.664   4.784   4.327  0.0956  0.5210  0.4224
 5805TIP3    H138974   3.577   4.807   4.293  0.0940  2.1721  1.4028
 5805TIP3    H238975   3.647   4.757   4.418  0.6297  1.2078  0.7317
 5806TIP3   OH238976   2.413   4.544   3.703 -0.3784 -0.1633  0.4038
 5806TIP3    H138977   2.499   4.565   3.667 -0.6731 -0.1580 -0.3294
 5806TIP3    H238978   2.386   4.465   3.657 -0.5797 -0.4092  0.9431
 5807TIP3   OH238979   3.787   5.155   3.502  0.4464 -0.1394  0.1391
 5807TIP3    H138980   3.700   5.193   3.492  0.1391 -0.7074  0.6069
 5807TIP3    H238981   3.841   5.225   3.537  0.3154  0.3757 -0.6609
 5808TIP3   OH238982   1.435   3.266   0.957  0.5633 -0.4774 -1.1364
 5808TIP3    H138983   1.366   3.332   0.950  0.3042 -0.6633 -0.3931
 5808TIP3    H238984   1.499   3.302   1.018 -1.3328 -2.3264  2.2755
 5809TIP3   OH238985   6.116   3.708   3.514 -0.1655 -1.2137  0.8522
 5809TIP3    H138986   6.021   3.707   3.502 -0.3295 -2.3875  2.0699
 5809TIP3    H238987   6.138   3.618   3.538  1.3913 -1.1639 -0.2483
 5810TIP3   OH238988   6.636   5.952   2.759 -0.0753  0.1202 -0.0427
 5810TIP3    H138989   6.666   5.923   2.673  0.8434  0.7334  0.0536
 5810TIP3    H238990   6.552   5.908   2.771 -0.0533 -0.2466 -1.0995
 5811TIP3   OH238991   5.072   2.233   0.475 -0.1070  0.6497 -0.1673
 5811TIP3    H138992   5.038   2.291   0.543 -0.0189  1.1102 -0.5079
 5811TIP3    H238993   5.029   2.263   0.395 -0.5942 -0.2119 -0.2380
 5812TIP3   OH238994   6.508   4.225   1.849 -0.1987  0.5684  0.1063
 5812TIP3    H138995   6.583   4.246   1.905  0.4611 -1.9590  0.2763
 5812TIP3    H238996   6.435   4.215   1.910  0.2467 -0.9413  0.4287
 5813TIP3   OH238997   5.437   1.109   3.610  0.0680 -0.0112  0.2332
 5813TIP3    H138998   5.445   1.099   3.516  2.5695 -0.7270  0.4490
 5813TIP3    H238999   5.425   1.203   3.624  0.5898  0.2151 -0.7615
 5814TIP3   OH239000   6.720   0.780   3.404 -0.3364 -0.3440 -0.9038
 5814TIP3    H139001   6.810   0.797   3.375  0.0837 -0.8794  0.0175
 5814TIP3    H239002   6.665   0.813   3.334  0.4953  2.0067 -0.5175
 5815TIP3   OH239003   6.439   3.210   3.397 -0.1743  0.3499  0.1021
 5815TIP3    H139004   6.450   3.277   3.465 -0.7057  0.0588  0.4786
 5815TIP3    H239005   6.510   3.148   3.413 -0.6993 -0.0725  0.8104
 5816TIP3   OH239006   0.766   2.342   4.210 -0.4192 -0.1224 -0.1134
 5816TIP3    H139007   0.820   2.409   4.251  0.0836 -0.3301 -0.4292
 5816TIP3    H239008   0.770   2.267   4.270 -1.8197  0.4580  0.7651
 5817TIP3   OH239009   3.632   3.469   0.432 -0.1708 -0.5908  0.6596
 5817TIP3    H139010   3.566   3.451   0.365 -0.6372 -3.3760  1.7352
 5817TIP3    H239011   3.612   3.557   0.463  0.2411  0.9227 -2.9666
 5818TIP3   OH239012   4.834   6.504   5.332  0.0972  0.6243  0.3705
 5818TIP3    H139013   4.837   6.575   5.267 -1.7307  1.8694  1.5571
 5818TIP3    H239014   4.833   6.424   5.280  0.3227  1.5302 -1.0776
 5819TIP3   OH239015   5.096   0.033   2.481  0.4722 -0.0984 -0.1287
 5819TIP3    H139016   5.028  -0.034   2.488  0.6945 -0.3463 -0.3146
 5819TIP3    H239017   5.113   0.060   2.571  0.7935 -0.7124  0.0029
 5820TIP3   OH239018   4.414   2.648   3.705  0.6789  0.1224 -0.1110
 5820TIP3    H139019   4.507   2.635   3.686  0.1223 -4.1552 -0.7284
 5820TIP3    H239020   4.403   2.619   3.795 -0.4473 -2.3279 -0.9707
 5821TIP3   OH239021   5.196   6.375   0.872  0.5913 -0.1755 -0.3274
 5821TIP3    H139022   5.105   6.402   0.883  0.9997  0.5368  1.9962
 5821TIP3    H239023   5.196   6.281   0.891  0.5845  0.2152  1.9010
 5822TIP3   OH239024   2.054   0.463   4.358 -0.2600  0.5058  0.1024
 5822TIP3    H139025   2.114   0.495   4.290 -0.3915  0.6784  0.0686
 5822TIP3    H239026   1.967   0.479   4.324 -0.3379 -0.4697 -0.1907
 5823TIP3   OH239027   2.437   0.418   1.072 -0.0979  0.0264 -0.0873
 5823TIP3    H139028   2.487   0.435   0.992 -1.3834  2.1788 -0.5032
 5823TIP3    H239029   2.492   0.452   1.143  0.2344 -0.2104 -0.2268
 5824TIP3   OH239030   2.760   1.995   2.446  0.1739 -0.0509 -0.3117
 5824TIP3    H139031   2.848   1.988   2.411 -0.0285 -1.8393 -0.5515
 5824TIP3    H239032   2.705   2.017   2.371  0.1738 -0.8177 -0.5480
 5825TIP3   OH239033   6.143   4.199   2.214 -0.3386  0.5273  0.3561
 5825TIP3    H139034   6.187   4.282   2.193 -0.2577 -0.0904 -2.2294
 5825TIP3    H239035   6.178   4.175   2.300  2.5248  1.3372 -0.4642
 5826TIP3   OH239036   0.711   6.687   1.753  0.2702 -0.7512 -0.2366
 5826TIP3    H139037   0.766   6.729   1.819  0.6585 -0.4406 -0.7461
 5826TIP3    H239038   0.766   6.684   1.675 -0.4244 -0.4835 -0.7449
 5827TIP3   OH239039   1.193   5.898   3.766  0.7042 -0.0742 -0.1299
 5827TIP3    H139040   1.288   5.899   3.780  0.7306  1.4112 -0.2604
 5827TIP3    H239041   1.183   5.901   3.671  0.5094 -1.5146 -0.1730
 5828TIP3   OH239042   3.590   4.892   2.980  0.5131 -0.0522  0.1861
 5828TIP3    H139043   3.503   4.903   2.942  0.2294  0.2246  0.8871
 5828TIP3    H239044   3.584   4.935   3.066  1.4628  0.3377  0.0730
 5829TIP3   OH239045   2.419   3.264   1.492  0.3984 -0.2553 -0.3746
 5829TIP3    H139046   2.460   3.341   1.452  1.0750 -0.2219  0.3621
 5829TIP3    H239047   2.454   3.190   1.443  0.9214 -0.1899 -0.1032
 5830TIP3   OH239048   2.879   1.110   2.163  0.1975 -0.5040  0.5483
 5830TIP3    H139049   2.792   1.074   2.142  0.8082 -1.2521 -0.8314
 5830TIP3    H239050   2.885   1.104   2.258 -1.3949 -0.1156  0.7107
 5831TIP3   OH239051   4.101   5.638   1.604  0.0663 -0.2953 -0.2770
 5831TIP3    H139052   4.014   5.628   1.641  0.2542 -1.6886 -0.1650
 5831TIP3    H239053   4.088   5.629   1.509  0.1545 -1.1115 -0.2185
 5832TIP3   OH239054   1.201   5.205   4.100 -0.2267  0.2077 -0.3764
 5832TIP3    H139055   1.278   5.226   4.046 -0.9007  0.5703 -1.2126
 5832TIP3    H239056   1.141   5.160   4.041 -0.0977 -1.3652  0.6318
 5833TIP3   OH239057   6.309   3.668   0.581  0.5731  0.3331 -0.2725
 5833TIP3    H139058   6.340   3.634   0.497 -0.2564 -0.9836 -0.0788
 5833TIP3    H239059   6.223   3.705   0.562  0.2938 -0.1537  0.0218
 5834TIP3   OH239060   3.760   2.155   3.114  0.2656 -0.4393 -0.1311
 5834TIP3    H139061   3.801   2.218   3.173 -2.9798  0.6683  1.1952
 5834TIP3    H239062   3.752   2.075   3.167 -2.2606  0.4267  0.9795
 5835TIP3   OH239063   3.748   4.977   2.670 -0.2622 -0.1801 -0.4026
 5835TIP3    H139064   3.766   5.019   2.754 -0.2213 -0.0577 -0.4718
 5835TIP3    H239065   3.831   4.936   2.645 -0.2292 -0.0814 -0.4584
 5836TIP3   OH239066   3.340   2.273   3.485  0.5693  0.2597  0.1442
 5836TIP3    H139067   3.283   2.292   3.410  2.0550  1.5540 -0.7313
 5836TIP3    H239068   3.409   2.218   3.449  0.5788 -0.2372  0.9002
 5837TIP3   OH239069   5.778   5.109   2.461  0.1847  0.2889  0.6230
 5837TIP3    H139070   5.761   5.171   2.531  0.3565 -0.8427  1.6990
 5837TIP3    H239071   5.692   5.087   2.427 -0.0930 -0.7317  1.9061
 5838TIP3   OH239072   2.664   3.333   3.967  0.6572  0.3156 -0.1904
 5838TIP3    H139073   2.739   3.374   4.010 -1.4148  3.2799  0.9735
 5838TIP3    H239074   2.637   3.262   4.025  0.6402  1.3692  1.1432
 5839TIP3   OH239075   6.432   1.887   3.104 -0.1578 -0.0377 -0.3332
 5839TIP3    H139076   6.374   1.830   3.156 -0.0726  0.8104  0.7342
 5839TIP3    H239077   6.498   1.828   3.069 -1.9255 -1.1252 -2.0212
 5840TIP3   OH239078   3.494   6.633   3.888 -0.7069  0.2271 -0.8940
 5840TIP3    H139079   3.557   6.702   3.869  0.4188 -0.5995 -0.2767
 5840TIP3    H239080   3.491   6.580   3.809 -0.8142  0.3976 -1.0057
 5841TIP3   OH239081   0.505   3.697   1.096  0.8836 -0.3966  0.4634
 5841TIP3    H139082   0.584   3.661   1.137  1.8461  1.1692  0.0441
 5841TIP3    H239083   0.531   3.783   1.065 -0.8904 -0.0185 -0.0739
 5842TIP3   OH239084   3.118   1.551   2.067  0.3169  0.0849  0.2434
 5842TIP3    H139085   3.085   1.612   2.001  1.3049 -0.5956 -0.9138
 5842TIP3    H239086   3.083   1.585   2.150 -1.0906  0.8653 -0.6222
 5843TIP3   OH239087   1.790   3.238   0.093 -0.2262  0.3829 -0.2793
 5843TIP3    H139088   1.770   3.331   0.087 -0.1012  0.5842  1.6818
 5843TIP3    H239089   1.885   3.233   0.084 -0.4595 -0.1169 -5.0076
 5844TIP3   OH239090   6.496   4.133   3.183 -0.2481  0.4771 -0.4243
 5844TIP3    H139091   6.523   4.208   3.235 -0.1040 -0.4317  0.8618
 5844TIP3    H239092   6.400   4.139   3.180 -0.3277  0.1067  0.6839
 5845TIP3   OH239093   0.869   0.500   2.995  0.2230  0.0189 -0.4286
 5845TIP3    H139094   0.837   0.527   2.909  0.8569  0.9259 -0.3991
 5845TIP3    H239095   0.798   0.448   3.032  0.1217 -0.7800 -1.6887
 5846TIP3   OH239096   2.936   3.070   8.780  0.0204  0.3485  0.3400
 5846TIP3    H139097   3.002   3.135   8.759 -0.6781  0.5175 -1.5275
 5846TIP3    H239098   2.853   3.117   8.773 -0.3622  0.0362  2.2031
 5847TIP3   OH239099   3.465   5.767   3.704 -0.5899 -0.0227  0.1637
 5847TIP3    H139100   3.371   5.768   3.725 -0.4264  0.4952  0.9235
 5847TIP3    H239101   3.506   5.807   3.780  0.1120  1.1866 -0.8261
 5848TIP3   OH239102   5.652   0.870   3.845  0.0870  0.5039 -0.9065
 5848TIP3    H139103   5.733   0.861   3.896 -1.5811  1.2127  2.0930
 5848TIP3    H239104   5.615   0.781   3.843 -0.0168  0.5397 -0.5751
 5849TIP3   OH239105   2.352   4.858   1.302  0.3127 -0.2408 -0.1273
 5849TIP3    H139106   2.426   4.916   1.319  0.0857 -0.1010  0.3775
 5849TIP3    H239107   2.324   4.828   1.388  0.9569 -1.7740 -0.4214
 5850TIP3   OH239108   4.422   5.251   2.978 -1.0074  0.0052 -0.2288
 5850TIP3    H139109   4.440   5.178   3.038 -0.0468 -0.8283 -1.4589
 5850TIP3    H239110   4.484   5.319   3.004 -0.9141 -0.1704  0.0157
 5851TIP3   OH239111   3.943   3.311   8.330  0.1004 -0.4023  0.6824
 5851TIP3    H139112   3.990   3.387   8.296  0.9441 -1.0368  0.4035
 5851TIP3    H239113   3.851   3.338   8.331  0.3667  0.5479  0.4080
 5852TIP3   OH239114   0.654   4.883   4.130 -0.3651  0.1953  0.5170
 5852TIP3    H139115   0.584   4.820   4.148 -1.6086  1.5755  0.6788
 5852TIP3    H239116   0.707   4.882   4.210  0.9849 -2.2325 -0.2899
 5853TIP3   OH239117   4.253   6.414   2.871 -0.2493 -0.0124  0.1055
 5853TIP3    H139118   4.340   6.437   2.901  0.3276 -1.1972 -0.5813
 5853TIP3    H239119   4.264   6.393   2.778 -0.4577 -3.8764  0.7754
 5854TIP3   OH239120   5.156   2.061   3.426  0.4163  0.2205 -0.1322
 5854TIP3    H139121   5.076   2.079   3.474 -0.2873  0.5886 -1.4181
 5854TIP3    H239122   5.215   2.024   3.492 -2.0615 -3.8057  0.1650
 5855TIP3   OH239123   3.216   5.764   1.852 -0.3013  0.3782 -0.4607
 5855TIP3    H139124   3.239   5.692   1.910  0.6089  1.0994  0.0951
 5855TIP3    H239125   3.121   5.757   1.841 -0.3181 -0.4689  0.1549
 5856TIP3   OH239126   4.689   6.636   1.270  0.7252  0.2420  0.3917
 5856TIP3    H139127   4.605   6.641   1.316  0.3655 -0.0592 -0.2137
 5856TIP3    H239128   4.670   6.583   1.192  1.0802  1.5998 -0.6446
 5857TIP3   OH239129   5.676   0.104   0.999  0.3374  0.1242  0.3358
 5857TIP3    H139130   5.686   0.195   0.972 -1.6724  0.9274  2.0090
 5857TIP3    H239131   5.627   0.063   0.928  0.4895  0.5833 -0.0411
 5858TIP3   OH239132   6.166   0.581   1.359 -0.0356  0.4089 -0.1470
 5858TIP3    H139133   6.193   0.496   1.394 -1.2162 -0.0044 -0.1744
 5858TIP3    H239134   6.161   0.639   1.435 -0.0693  0.2106  0.0014
 5859TIP3   OH239135   2.477   6.725   1.780  0.5101 -0.2577  1.0992
 5859TIP3    H139136   2.405   6.663   1.764  1.6291 -1.0122 -1.5235
 5859TIP3    H239137   2.528   6.685   1.850  0.6765 -1.8604  0.1072
 5860TIP3   OH239138   2.857   3.238   2.612  0.4509  0.2306  0.6284
 5860TIP3    H139139   2.828   3.154   2.578 -0.6606  0.6235  0.5467
 5860TIP3    H239140   2.950   3.227   2.628 -0.0469 -1.7024  2.6559
 5861TIP3   OH239141   3.301   2.471   0.739  0.3719 -0.0577  0.1955
 5861TIP3    H139142   3.336   2.448   0.825  1.2292 -1.6366 -0.5255
 5861TIP3    H239143   3.373   2.452   0.678  0.2053  2.1266 -0.7855
 5862TIP3   OH239144   4.937   3.660   3.302 -0.3374  0.9655  0.1745
 5862TIP3    H139145   5.018   3.710   3.310 -0.4289  0.9348  1.6123
 5862TIP3    H239146   4.932   3.609   3.383 -1.2055  0.0654 -0.4174
 5863TIP3   OH239147   6.389   2.548   1.871  0.0041 -0.2376  0.0842
 5863TIP3    H139148   6.329   2.506   1.933  0.2216 -0.2820  0.2649
 5863TIP3    H239149   6.331   2.593   1.809 -0.2208 -0.4404  0.1446
 5864TIP3   OH239150   5.963   2.028   1.220  0.8176  0.3271  0.0928
 5864TIP3    H139151   6.029   1.968   1.255 -0.0852 -1.5048 -1.1955
 5864TIP3    H239152   5.909   2.052   1.295  2.2028  0.9077  0.9376
 5865TIP3   OH239153   5.239   3.774   2.215 -0.1184  0.2902 -0.7816
 5865TIP3    H139154   5.180   3.785   2.289 -1.7862  0.7553 -2.1131
 5865TIP3    H239155   5.274   3.685   2.225  0.2734  0.5931  0.9096
 5866TIP3   OH239156   3.321   5.610   3.030 -0.3132  0.3147  0.8017
 5866TIP3    H139157   3.377   5.597   3.107  0.6434 -0.9461 -0.0766
 5866TIP3    H239158   3.324   5.705   3.014  0.5728  0.4227  1.5148
 5867TIP3   OH239159   4.847   1.147   2.639  0.4468 -0.1680  0.6619
 5867TIP3    H139160   4.924   1.106   2.598 -0.0144 -0.7190  0.3308
 5867TIP3    H239161   4.883   1.200   2.710  0.9372 -2.8193  2.5494
 5868TIP3   OH239162   1.766   5.156   2.328  0.1369 -0.4884 -0.7027
 5868TIP3    H139163   1.808   5.082   2.283  1.5232  0.2882 -0.7604
 5868TIP3    H239164   1.706   5.116   2.391 -0.1732 -1.6277 -1.6987
 5869TIP3   OH239165   3.471   2.984   2.621 -0.2422  0.1014 -0.4846
 5869TIP3    H139166   3.406   2.970   2.553  0.0735 -2.0417 -0.4384
 5869TIP3    H239167   3.504   2.896   2.640  1.4532  0.9341  0.6789
 5870TIP3   OH239168   4.801   5.750   0.968 -0.1950 -0.0671 -0.0860
 5870TIP3    H139169   4.800   5.838   1.005 -1.7593 -1.5053  3.8241
 5870TIP3    H239170   4.732   5.703   1.014  1.8391 -3.8933 -0.4839
 5871TIP3   OH239171   0.964   4.418   0.092 -0.3981 -0.0256  0.2235
 5871TIP3    H139172   0.886   4.471   0.108 -0.5246  0.3693 -1.5351
 5871TIP3    H239173   0.935   4.352   0.029  0.6039 -0.0764 -0.1949
 5872TIP3   OH239174   2.956   0.229   0.364  0.5863  0.3933  0.7955
 5872TIP3    H139175   3.000   0.215   0.448  0.4528  1.1416  0.9938
 5872TIP3    H239176   2.925   0.320   0.368  0.7184  0.4813 -0.1246
 5873TIP3   OH239177   4.308   1.089   3.978  0.2682 -0.4595 -0.4908
 5873TIP3    H139178   4.218   1.079   3.948  0.0625  0.1721 -0.0945
 5873TIP3    H239179   4.323   1.183   3.981  0.3701 -0.5032  1.1197
 5874TIP3   OH239180   4.103   2.081   2.097  0.4275 -0.0549  0.0877
 5874TIP3    H139181   4.083   2.149   2.161  0.1783  0.6492 -0.7207
 5874TIP3    H239182   4.139   2.128   2.022 -0.3065 -0.7420 -0.7232
 5875TIP3   OH239183   1.220   4.419   3.858 -0.4127 -0.4058 -0.6640
 5875TIP3    H139184   1.131   4.437   3.888  0.1629 -1.0306  1.6285
 5875TIP3    H239185   1.263   4.505   3.854 -0.8712 -0.1902 -0.9512
 5876TIP3   OH239186   0.494   4.531   1.835  0.0748  0.7680  0.6641
 5876TIP3    H139187   0.462   4.468   1.770  1.8016  0.2917  0.2255
 5876TIP3    H239188   0.416   4.557   1.884 -0.9887 -0.1801 -0.4687
 5877TIP3   OH239189   1.600   1.377   2.467 -0.1139 -0.0876  0.2243
 5877TIP3    H139190   1.545   1.305   2.436  0.2450 -1.0625  1.7382
 5877TIP3    H239191   1.690   1.347   2.455  0.0612  0.5651 -0.1536
 5878TIP3   OH239192   0.518   1.889   1.634 -0.5906  0.2711 -0.0957
 5878TIP3    H139193   0.576   1.813   1.626  2.4858  2.2563  1.3293
 5878TIP3    H239194   0.461   1.867   1.708  0.1717 -0.7195  0.2251
 5879TIP3   OH239195   1.305   1.698   3.486  0.4107 -0.3230 -0.1176
 5879TIP3    H139196   1.306   1.793   3.503 -1.6974  0.0443 -1.6273
 5879TIP3    H239197   1.357   1.687   3.407 -0.8103 -0.1253 -0.9807
 5880TIP3   OH239198   2.880   6.151   3.312 -0.3082  0.6708  0.1975
 5880TIP3    H139199   2.855   6.236   3.346 -0.8621  0.8723 -0.6718
 5880TIP3    H239200   2.901   6.167   3.220  1.3185  0.1799  0.4494
 5881TIP3   OH239201   4.614   0.987   4.826 -0.8357  0.1469  0.4041
 5881TIP3    H139202   4.675   1.017   4.893  0.3060  1.5979 -1.2096
 5881TIP3    H239203   4.644   0.899   4.804  2.7344  1.8466 -2.4691
 5882TIP3   OH239204   3.204   3.251   0.412 -0.2446 -1.0853 -0.0044
 5882TIP3    H139205   3.208   3.207   0.328  0.3716 -0.2614 -0.4251
 5882TIP3    H239206   3.255   3.195   0.471  0.6525 -0.8808 -0.5610
 5883TIP3   OH239207   1.085   2.531   3.929 -0.4759 -0.4975  0.0693
 5883TIP3    H139208   1.119   2.548   4.017 -0.4158 -0.9979  0.1457
 5883TIP3    H239209   1.061   2.617   3.895  3.2993  0.3377 -1.0298
 5884TIP3   OH239210   5.194   0.171   2.885 -0.1607 -0.0987 -0.4161
 5884TIP3    H139211   5.169   0.189   2.976 -1.3824  0.6624 -0.8799
 5884TIP3    H239212   5.285   0.200   2.879 -0.2625  0.4328  0.4045
 5885TIP3   OH239213   3.415   1.215   2.304  0.1341 -0.6786  0.1307
 5885TIP3    H139214   3.491   1.264   2.335  0.7904 -0.0616 -2.2726
 5885TIP3    H239215   3.358   1.280   2.264  0.2968 -1.6417 -1.7568
 5886TIP3   OH239216   4.464   0.268   1.291  0.5360 -0.0387  0.1944
 5886TIP3    H139217   4.438   0.242   1.202  1.4999  2.5305 -0.9298
 5886TIP3    H239218   4.388   0.315   1.325  1.0264  1.0977 -0.2466
 5887TIP3   OH239219   1.774   4.044   2.384  0.2449  0.3468  0.1099
 5887TIP3    H139220   1.863   4.076   2.399 -0.6062  2.1264  1.7862
 5887TIP3    H239221   1.749   4.082   2.300  0.6799  0.7351  0.1476
 5888TIP3   OH239222   5.101   1.997   1.015  0.3892  0.0985 -0.0703
 5888TIP3    H139223   5.193   1.987   1.039  0.5607  1.0537 -0.2808
 5888TIP3    H239224   5.086   2.092   1.016  0.3385  0.2480 -3.3361
 5889TIP3   OH239225   6.539   4.545   2.045 -0.2461  0.4991  0.1650
 5889TIP3    H139226   6.474   4.599   2.091  0.6469  1.4292  0.3653
 5889TIP3    H239227   6.569   4.600   1.973  0.5080  0.1729  0.2291
 5890TIP3   OH239228   1.054   1.400   3.293  0.5007  0.1658  0.4708
 5890TIP3    H139229   1.112   1.333   3.330 -1.3727 -1.9872 -0.1933
 5890TIP3    H239230   1.064   1.391   3.199 -0.2252  0.4005  0.3666
 5891TIP3   OH239231   2.050   5.157   1.018  0.3144 -0.1494 -0.8584
 5891TIP3    H139232   2.080   5.095   1.085  1.0358  0.2765 -0.7746
 5891TIP3    H239233   2.006   5.226   1.068  0.4970 -0.0352 -0.8540
 5892TIP3   OH239234   4.012   4.550   0.171  0.3748  0.4309 -0.1046
 5892TIP3    H139235   3.998   4.610   0.244  1.6158  0.2284  0.3131
 5892TIP3    H239236   3.940   4.487   0.179  1.4674 -0.6617  2.0695
 5893TIP3   OH239237   2.886   6.469   1.030  0.4515 -0.0538  0.2664
 5893TIP3    H139238   2.917   6.388   1.070  1.0508 -0.3480 -0.7604
 5893TIP3    H239239   2.944   6.537   1.066  0.3820 -0.1787  0.6149
 5894TIP3   OH239240   5.363   2.756   0.792  0.1552 -0.2193 -0.0353
 5894TIP3    H139241   5.390   2.843   0.760 -0.9485  0.7607  1.5689
 5894TIP3    H239242   5.268   2.755   0.779  0.1825 -1.2894 -0.2198
 5895TIP3   OH239243   5.806   2.555   3.207  0.0116 -0.0017 -0.1951
 5895TIP3    H139244   5.745   2.533   3.277  0.4524 -0.2707  0.1078
 5895TIP3    H239245   5.752   2.556   3.128 -0.4851  0.2763  0.1399
 5896TIP3   OH239246   5.822   5.240   1.593  0.2594 -0.0050 -0.0159
 5896TIP3    H139247   5.802   5.333   1.598  0.4370 -0.0180  1.1414
 5896TIP3    H239248   5.917   5.235   1.589  0.2387 -0.1250 -0.3919
 5897TIP3   OH239249   3.388   4.971   1.003  0.1462 -0.1381  0.6621
 5897TIP3    H139250   3.348   5.055   1.025 -0.6299 -0.9276  2.5439
 5897TIP3    H239251   3.480   4.982   1.025  0.2840  0.5669 -0.2179
 5898TIP3   OH239252   6.271   2.759   4.183 -0.0559  0.0344  0.4179
 5898TIP3    H139253   6.186   2.723   4.206  0.4819 -1.9309 -0.4566
 5898TIP3    H239254   6.251   2.831   4.124 -1.1179 -1.7390 -1.5230
 5899TIP3   OH239255   1.739   2.851   1.239 -0.0094 -0.4686  0.0871
 5899TIP3    H139256   1.673   2.807   1.185  0.2611 -0.7352 -0.0254
 5899TIP3    H239257   1.691   2.923   1.280 -0.5228 -1.0246  0.4837
 5900TIP3   OH239258   4.726   0.179   2.110 -0.3522  0.3006  0.6828
 5900TIP3    H139259   4.798   0.120   2.128 -0.0870  0.5131  0.3159
 5900TIP3    H239260   4.678   0.138   2.038 -0.3329  0.3890  0.6195
 5901TIP3   OH239261   6.127   2.723   2.578  0.0105  0.3154  0.4566
 5901TIP3    H139262   6.216   2.689   2.569 -0.0984  0.5186 -1.7570
 5901TIP3    H239263   6.124   2.758   2.667  2.3884  1.0007  0.3319
 5902TIP3   OH239264   1.763   3.368   2.911 -0.1806 -0.2335 -0.5885
 5902TIP3    H139265   1.719   3.396   2.831 -0.5906 -2.2966 -1.1490
 5902TIP3    H239266   1.710   3.295   2.943 -0.1390  0.6536  1.7096
 5903TIP3   OH239267   1.420   5.682   2.591 -0.5355  0.5901 -0.1857
 5903TIP3    H139268   1.428   5.718   2.502 -1.0157  0.5482 -0.2484
 5903TIP3    H239269   1.485   5.612   2.594  1.4056  2.2978  0.3903
 5904TIP3   OH239270   2.416   3.053   3.253  0.4978  0.1097 -0.0041
 5904TIP3    H139271   2.434   3.134   3.206  1.5700  1.1692  2.0881
 5904TIP3    H239272   2.421   2.984   3.186 -1.6309  1.8056 -2.0694
 5905TIP3   OH239273   3.852   5.593   1.717 -0.1665  0.2980  0.0221
 5905TIP3    H139274   3.818   5.517   1.669 -2.2597  1.0651  0.1946
 5905TIP3    H239275   3.863   5.561   1.807 -0.1119 -0.0523 -0.1063
 5906TIP3   OH239276   4.066   4.259   0.441 -0.6950  0.4709  0.2194
 5906TIP3    H139277   4.133   4.207   0.485 -0.8088  0.4985  0.4253
 5906TIP3    H239278   4.091   4.350   0.459 -0.2224  0.5073 -0.5413
 5907TIP3   OH239279   4.923   5.542   4.630 -0.5157  0.1510 -0.3866
 5907TIP3    H139280   4.835   5.572   4.607 -0.7687 -0.8962 -0.8027
 5907TIP3    H239281   4.924   5.542   4.726 -1.1102 -0.2338 -0.3772
 5908TIP3   OH239282   4.594   2.642   2.657 -0.2973 -0.3740 -0.0766
 5908TIP3    H139283   4.680   2.616   2.690 -0.4712 -1.0227 -0.1185
 5908TIP3    H239284   4.532   2.597   2.714 -0.6053 -0.9787 -0.8742
 5909TIP3   OH239285   2.226   0.295   3.141 -0.4895  0.2002  0.0848
 5909TIP3    H139286   2.320   0.287   3.123 -0.5015  1.6249 -0.7417
 5909TIP3    H239287   2.184   0.251   3.067 -0.4765  2.9033 -1.6784
 5910TIP3   OH239288   6.414   3.231   1.966  0.1723 -0.1254  0.0328
 5910TIP3    H139289   6.496   3.234   2.017  0.1534 -0.5264  0.0889
 5910TIP3    H239290   6.393   3.138   1.960 -0.5065  0.0004  0.3752
 5911TIP3   OH239291   1.979   6.607   3.465 -0.0418 -0.4013 -0.2785
 5911TIP3    H139292   1.980   6.596   3.370  1.3848  0.0110 -0.3361
 5911TIP3    H239293   2.071   6.614   3.489 -0.3981 -0.1371  1.1013
 5912TIP3   OH239294   4.627   4.866   4.132  0.0181  0.4208 -0.7995
 5912TIP3    H139295   4.592   4.895   4.216  0.3924  0.8681 -0.7969
 5912TIP3    H239296   4.564   4.898   4.067 -0.9659 -1.0324 -0.6130
 5913TIP3   OH239297   2.313   5.447   2.355  0.3894 -0.0473 -0.6794
 5913TIP3    H139298   2.314   5.530   2.308 -0.1480 -0.5878 -1.6860
 5913TIP3    H239299   2.385   5.397   2.316  1.3193  0.2770  0.5733
 5914TIP3   OH239300   5.723   1.467   5.047 -0.0130 -0.5924  0.3559
 5914TIP3    H139301   5.770   1.470   4.964  0.3496 -0.9302  0.5437
 5914TIP3    H239302   5.692   1.377   5.054 -1.1524 -0.2425 -0.0136
 5915TIP3   OH239303   6.300   0.626   3.766 -0.0284 -0.1446  0.5307
 5915TIP3    H139304   6.326   0.610   3.857 -0.0739  1.8614  0.9367
 5915TIP3    H239305   6.378   0.661   3.724 -0.5683  0.9129  0.3679
 5916TIP3   OH239306   3.633   5.667   3.530  0.0243  0.4189 -0.1878
 5916TIP3    H139307   3.560   5.691   3.586  0.3541 -0.7916  0.7930
 5916TIP3    H239308   3.592   5.641   3.447 -0.4397  2.5439 -0.6759
 5917TIP3   OH239309   4.960   0.391   0.612 -0.3055 -0.0154  0.0211
 5917TIP3    H139310   4.919   0.312   0.575 -1.1144  0.6382 -0.5235
 5917TIP3    H239311   4.923   0.463   0.560  1.1647  0.6471 -0.1523
 5918TIP3   OH239312   3.552   3.652   4.531  0.9063 -0.0098  0.6525
 5918TIP3    H139313   3.489   3.599   4.482 -1.6522  2.3353  1.1350
 5918TIP3    H239314   3.507   3.672   4.613  2.3775  1.5738  1.1213
 5919TIP3   OH239315   5.095   0.852   0.067 -0.7186 -0.1865 -0.1861
 5919TIP3    H139316   5.085   0.901   0.149 -0.2199  2.7531 -1.7642
 5919TIP3    H239317   5.160   0.901   0.018 -2.1034 -0.9616 -2.9756
 5920TIP3   OH239318   0.439   6.606   2.302  0.1171 -0.1195 -0.7548
 5920TIP3    H139319   0.394   6.646   2.227  0.6667  0.8228 -0.5971
 5920TIP3    H239320   0.422   6.512   2.293 -0.5769  0.0727 -1.5559
 5921TIP3   OH239321   2.780   2.414   1.732  0.1170 -0.2808  0.1304
 5921TIP3    H139322   2.729   2.486   1.769 -1.0984 -1.1352  0.1764
 5921TIP3    H239323   2.719   2.368   1.674  1.1529 -0.7020 -0.6720
 5922TIP3   OH239324   1.046   2.836   3.911  0.7037  0.0305  0.4416
 5922TIP3    H139325   0.960   2.807   3.941 -0.3439  1.2245 -1.2667
 5922TIP3    H239326   1.058   2.921   3.952  0.3215  0.5945 -0.5826
 5923TIP3   OH239327   6.778   4.131   3.781  0.3988  0.2370  0.1188
 5923TIP3    H139328   6.804   4.142   3.690  1.0344  0.3713  0.3097
 5923TIP3    H239329   6.788   4.219   3.819 -0.9350  0.4391  0.0591
 5924TIP3   OH239330   2.603   2.216   1.650  0.0069  0.2692  0.4829
 5924TIP3    H139331   2.508   2.232   1.654  0.1783  1.3363  0.4223
 5924TIP3    H239332   2.616   2.172   1.566 -0.3769  0.5475  0.2710
 5925TIP3   OH239333   5.836   2.479   4.480  0.1649  0.6744  0.4169
 5925TIP3    H139334   5.807   2.518   4.398  2.7077  0.3882 -0.7400
 5925TIP3    H239335   5.884   2.400   4.453  1.8626  1.0712  2.0583
 5926TIP3   OH239336   3.601   1.039   4.068  0.7659  0.2328  0.2770
 5926TIP3    H139337   3.668   0.989   4.115  2.1864  0.8115 -1.0548
 5926TIP3    H239338   3.518   1.009   4.106  1.7824  0.0785  2.5469
 5927TIP3   OH239339   6.138   3.626   3.847  0.1287 -0.2152 -0.0947
 5927TIP3    H139340   6.179   3.708   3.873 -0.1647 -0.2887  0.6301
 5927TIP3    H239341   6.196   3.590   3.779  0.2996  0.5443 -0.3570
 5928TIP3   OH239342   3.943   2.538   0.574  0.0364 -0.2390 -0.2585
 5928TIP3    H139343   3.871   2.478   0.556  0.9809 -1.3329 -0.4929
 5928TIP3    H239344   3.917   2.620   0.533 -1.6962 -0.1843  0.8304
 5929TIP3   OH239345   0.468   6.016   2.884  0.4690  0.2873  0.3449
 5929TIP3    H139346   0.388   6.050   2.925  0.0664  0.0481 -0.2339
 5929TIP3    H239347   0.437   5.956   2.816  1.1738 -1.8244  1.8030
 5930TIP3   OH239348   0.881   6.593   3.337  0.3297  0.1167 -0.2323
 5930TIP3    H139349   0.897   6.650   3.412 -1.2038 -2.0025  1.8709
 5930TIP3    H239350   0.956   6.533   3.337 -0.6084 -1.1291  0.9498
 5931TIP3   OH239351   4.276   0.886   1.560 -0.3151 -1.2968  0.0136
 5931TIP3    H139352   4.189   0.914   1.533 -1.0242 -1.4556  2.0187
 5931TIP3    H239353   4.267   0.863   1.652  1.9801 -0.7154  0.4586
 5932TIP3   OH239354   5.841   0.668   1.393  0.1206  0.0823 -0.3629
 5932TIP3    H139355   5.905   0.606   1.429  0.3869  0.7066  0.2822
 5932TIP3    H239356   5.779   0.614   1.345  0.4541 -0.6659  0.0291
 5933TIP3   OH239357   3.804   3.667   2.242  0.3542 -0.3816 -0.0978
 5933TIP3    H139358   3.718   3.696   2.212  0.0653 -0.9947  0.1270
 5933TIP3    H239359   3.842   3.623   2.166  0.6529  0.2638 -0.3315
 5934TIP3   OH239360   4.568   4.515   1.427  0.0240  0.6938 -0.0886
 5934TIP3    H139361   4.605   4.441   1.476  0.8807  2.1534  1.6111
 5934TIP3    H239362   4.550   4.480   1.340 -0.6843 -1.7936  0.9808
 5935TIP3   OH239363   3.565   4.401   1.428 -0.0797  0.2173 -0.1820
 5935TIP3    H139364   3.537   4.492   1.418  0.7577  0.4697 -0.3783
 5935TIP3    H239365   3.518   4.354   1.360  0.8427  0.8318 -1.2717
 5936TIP3   OH239366   1.693   2.053   2.164 -0.0315 -0.1549  0.0577
 5936TIP3    H139367   1.690   1.962   2.192  1.6629 -0.9644 -2.0798
 5936TIP3    H239368   1.715   2.102   2.243 -0.9913 -1.5723  1.2544
 5937TIP3   OH239369   2.967   1.689   2.886 -0.0728 -0.3496 -0.1615
 5937TIP3    H139370   2.997   1.779   2.901  1.6946 -0.9396  0.0926
 5937TIP3    H239371   2.902   1.697   2.816 -0.4425  1.1840  0.3066
 5938TIP3   OH239372   2.443   4.568   2.928  0.4106 -0.0239  0.1799
 5938TIP3    H139373   2.486   4.485   2.908  0.8817 -0.6075  3.1983
 5938TIP3    H239374   2.378   4.546   2.995 -1.1440  1.6951 -0.6676
 5939TIP3   OH239375   3.330   0.804   3.872 -0.1694  0.5200 -0.4860
 5939TIP3    H139376   3.320   0.764   3.959 -0.5064  2.0061  0.1904
 5939TIP3    H239377   3.423   0.794   3.853 -0.2389 -0.5494 -0.3323
 5940TIP3   OH239378   2.276   1.598   3.403 -0.2273  0.1694  0.0898
 5940TIP3    H139379   2.317   1.569   3.321 -3.9429  0.4093 -2.1281
 5940TIP3    H239380   2.252   1.517   3.448  0.6532  0.0171  0.2993
 5941TIP3   OH239381   5.217   4.634   1.195  0.2383  0.8396  0.2126
 5941TIP3    H139382   5.124   4.657   1.204  0.1111  0.5212 -0.2688
 5941TIP3    H239383   5.221   4.543   1.225  0.3532  0.7715 -0.0136
 5942TIP3   OH239384   0.623   0.431   3.348  0.1826 -0.1162  0.2024
 5942TIP3    H139385   0.665   0.376   3.281  2.2469  0.3427  1.0442
 5942TIP3    H239386   0.608   0.514   3.303  1.9905  0.3484  0.3643
 5943TIP3   OH239387   6.249   5.013   3.139 -0.3121  0.2744 -0.3918
 5943TIP3    H139388   6.244   4.934   3.192 -0.1649  0.3850 -0.2122
 5943TIP3    H239389   6.185   5.073   3.178  0.4867  0.7145  0.2716
 5944TIP3   OH239390   4.347   5.542   2.772  0.0822 -0.2291  0.0383
 5944TIP3    H139391   4.303   5.573   2.693 -1.9131 -0.1683  1.1259
 5944TIP3    H239392   4.383   5.621   2.812  2.7102 -0.4454 -1.6521
 5945TIP3   OH239393   4.449   4.438   4.457  0.2477  0.2269 -0.3276
 5945TIP3    H139394   4.368   4.457   4.505 -0.4286  1.7449 -1.9529
 5945TIP3    H239395   4.518   4.439   4.524 -0.7965  1.0175  0.7786
 5946TIP3   OH239396   3.497   3.295   2.078 -0.2007 -0.2128  0.3529
 5946TIP3    H139397   3.503   3.206   2.112  2.1007 -0.2611 -0.0391
 5946TIP3    H239398   3.416   3.329   2.115  0.4481 -1.3987  3.1306
 5947TIP3   OH239399   1.811   3.768   0.081  0.1308  0.4123  0.4239
 5947TIP3    H139400   1.881   3.807   0.027 -0.8997  0.5299 -0.8766
 5947TIP3    H239401   1.745   3.837   0.086  0.1582  0.3547  1.7797
 5948TIP3   OH239402   0.954   4.827   1.040 -0.1998  0.4878 -0.3078
 5948TIP3    H139403   0.983   4.737   1.050 -0.0434  0.7179  1.6420
 5948TIP3    H239404   0.969   4.847   0.948  0.2790 -1.2873 -0.6482
 5949TIP3   OH239405   1.602   4.551   1.688  0.4700 -0.0917  0.3487
 5949TIP3    H139406   1.582   4.641   1.713 -1.2295 -0.6878  1.3531
 5949TIP3    H239407   1.637   4.512   1.768  1.1082 -0.3461 -0.0529
 5950TIP3   OH239408   4.106   0.999   4.692 -0.0386 -0.1253 -0.5079
 5950TIP3    H139409   4.107   0.992   4.788  0.3593  0.9923 -0.4082
 5950TIP3    H239410   4.197   0.988   4.666 -0.0505  0.1901 -0.6953
 5951TIP3   OH239411   2.861   1.068   1.043  0.0502  0.0877 -0.0972
 5951TIP3    H139412   2.915   1.100   1.115  2.1119 -0.9724 -1.0813
 5951TIP3    H239413   2.900   1.106   0.964 -1.7838  0.7461 -0.7543
 5952TIP3   OH239414   6.150   4.260   1.491  0.0769 -0.4316 -0.8859
 5952TIP3    H139415   6.193   4.344   1.504  0.7584 -0.9085  0.0601
 5952TIP3    H239416   6.185   4.204   1.560 -1.1387 -1.1979 -0.8612
 5953TIP3   OH239417   4.368   4.818   1.463  0.2729  0.0887  0.0225
 5953TIP3    H139418   4.343   4.790   1.550  0.2629 -0.1191 -0.0473
 5953TIP3    H239419   4.432   4.888   1.478  0.5576 -0.2066  0.1956
 5954TIP3   OH239420   3.807   2.071   3.619 -0.5265  0.1950  0.1260
 5954TIP3    H139421   3.866   2.146   3.608 -1.5848  1.6517  3.1044
 5954TIP3    H239422   3.866   1.995   3.623  0.7736  1.1083 -0.7409
 5955TIP3   OH239423   4.899   1.838   1.302 -0.4917  0.2778  0.4868
 5955TIP3    H139424   4.890   1.865   1.394 -1.2751 -2.0832  1.1837
 5955TIP3    H239425   4.818   1.866   1.261 -0.0479  1.5426  0.4100
 5956TIP3   OH239426   0.996   4.045   1.596  0.5628  0.5297 -0.4881
 5956TIP3    H139427   1.002   4.129   1.550 -1.3809  1.4046  0.7269
 5956TIP3    H239428   1.038   4.061   1.680  2.0557 -0.3946 -1.0058
 5957TIP3   OH239429   0.431   1.877   0.506 -0.0854  0.1124 -0.2891
 5957TIP3    H139430   0.409   1.797   0.555  0.1805  0.1618 -0.0804
 5957TIP3    H239431   0.349   1.905   0.467 -0.2885  0.0239  0.0662
 5958TIP3   OH239432   1.898   5.069   4.630 -0.1916 -0.2796 -0.2956
 5958TIP3    H139433   1.857   5.108   4.707  0.2419 -0.9453  0.2854
 5958TIP3    H239434   1.962   5.007   4.665  1.0055  0.4010 -1.1812
 5959TIP3   OH239435   0.071   1.939   1.309 -0.7372 -0.0477 -0.1119
 5959TIP3    H139436   0.115   1.972   1.231  0.2198 -0.7124  0.1326
 5959TIP3    H239437   0.140   1.932   1.374 -1.4918  0.3169  0.7501
 5960TIP3   OH239438   2.860   2.955   4.596  0.0208 -0.9302  1.2109
 5960TIP3    H139439   2.907   3.039   4.592 -1.4418 -0.1242 -1.2471
 5960TIP3    H239440   2.925   2.890   4.570  0.8630 -0.4399  2.0058
 5961TIP3   OH239441   2.848   3.183   1.245  0.0413  0.5569  0.2169
 5961TIP3    H139442   2.912   3.203   1.177 -0.4723  0.6407 -0.2474
 5961TIP3    H239443   2.880   3.229   1.322  0.7749  0.2396  0.1094
 5962TIP3   OH239444   3.067   1.324   3.929 -0.0581  0.2474 -0.8061
 5962TIP3    H139445   3.116   1.406   3.921  0.6063 -0.0496  0.0628
 5962TIP3    H239446   2.978   1.346   3.902  0.1343  1.2403 -0.6547
 5963TIP3   OH239447   5.852   0.368   1.410  0.0550 -0.0592 -0.4208
 5963TIP3    H139448   5.859   0.292   1.352  1.7574  0.1063 -0.4685
 5963TIP3    H239449   5.843   0.330   1.497 -2.7091 -0.3113 -0.7308
 5964TIP3   OH239450   5.010   0.307   2.291 -0.0479  0.1223 -0.5063
 5964TIP3    H139451   5.016   0.361   2.213  1.1401  0.8376  0.0490
 5964TIP3    H239452   5.101   0.292   2.318 -0.4015 -0.8416  0.2439
 5965TIP3   OH239453   2.640   6.463   3.847  0.1268  0.1499  0.1680
 5965TIP3    H139454   2.669   6.536   3.903 -0.1203 -1.3107  2.3390
 5965TIP3    H239455   2.721   6.425   3.814  0.3371  0.3733  0.4173
 5966TIP3   OH239456   4.895   5.640   2.086  0.0454  0.1070 -0.3223
 5966TIP3    H139457   4.820   5.693   2.114  0.9717  1.1504  0.2817
 5966TIP3    H239458   4.878   5.619   1.995 -1.5292 -0.6624  0.1082
 5967TIP3   OH239459   4.582   4.883   0.835 -0.1314 -0.5696 -0.4386
 5967TIP3    H139460   4.668   4.876   0.877 -0.7629  2.5605  1.7733
 5967TIP3    H239461   4.588   4.964   0.784 -1.1252 -1.5049 -2.1059
 5968TIP3   OH239462   4.548   2.228   0.915 -0.4810  0.2853  0.3057
 5968TIP3    H139463   4.565   2.292   0.985  1.4388 -0.0428  0.1889
 5968TIP3    H239464   4.459   2.198   0.932 -0.5975  1.3102  1.7290
 5969TIP3   OH239465   0.376   0.997   0.768 -0.3441  0.0343 -1.1353
 5969TIP3    H139466   0.294   1.033   0.803 -1.3509 -0.8871 -2.4168
 5969TIP3    H239467   0.351   0.910   0.736  0.6620  0.4761 -3.3190
 5970TIP3   OH239468   3.744   1.990   1.684 -0.3183 -0.2892 -0.6436
 5970TIP3    H139469   3.823   1.959   1.640  1.8443  1.9093  1.3861
 5970TIP3    H239470   3.775   2.058   1.744 -3.9326  1.6819 -0.7217
 5971TIP3   OH239471   6.406   0.620   2.713  0.4350  0.2363  0.3874
 5971TIP3    H139472   6.438   0.530   2.722  1.4283  0.5566  0.2259
 5971TIP3    H239473   6.312   0.611   2.700  0.6851 -0.8464 -0.8658
 5972TIP3   OH239474   2.530   1.430   2.201  0.5978 -0.0660  0.6973
 5972TIP3    H139475   2.608   1.485   2.193 -0.3397  1.1317 -0.7952
 5972TIP3    H239476   2.514   1.399   2.112  0.8979 -2.5296  1.4475
 5973TIP3   OH239477   2.033   2.451   0.379 -0.2345 -0.3663 -0.2162
 5973TIP3    H139478   2.045   2.394   0.455 -1.2479 -1.1796 -0.6406
 5973TIP3    H239479   1.992   2.530   0.415 -1.1204 -0.9258  0.0412
 5974TIP3   OH239480   6.655   1.144   2.845  0.3087  0.1548 -0.2008
 5974TIP3    H139481   6.739   1.171   2.809  1.7234 -2.1611  1.0357
 5974TIP3    H239482   6.671   1.055   2.877 -2.5197 -0.2058  0.4785
 5975TIP3   OH239483   4.857   1.928   3.807  0.7291 -0.3607 -0.3250
 5975TIP3    H139484   4.815   1.925   3.721  0.4791  1.4633 -0.3211
 5975TIP3    H239485   4.947   1.903   3.791  0.6848 -0.0516 -1.1401
 5976TIP3   OH239486   4.517   5.157   5.087  0.3575  0.2525 -0.5742
 5976TIP3    H139487   4.446   5.146   5.024 -0.3191  4.2880 -0.8181
 5976TIP3    H239488   4.532   5.070   5.123 -4.2841 -0.9365 -0.9601
 5977TIP3   OH239489   6.364   1.688   1.314  0.2497 -0.0305 -0.3826
 5977TIP3    H139490   6.432   1.754   1.300  1.1980 -0.9877 -0.3904
 5977TIP3    H239491   6.356   1.644   1.229  0.2717 -0.5146 -0.1357
 5978TIP3   OH239492   1.764   5.129   1.788  0.0237 -0.2998  0.0554
 5978TIP3    H139493   1.703   5.113   1.860 -0.7277 -0.4032 -0.6048
 5978TIP3    H239494   1.770   5.046   1.742 -0.4408  0.0942 -0.7251
 5979TIP3   OH239495   2.148   1.333   2.531 -0.1624  0.2968 -0.7813
 5979TIP3    H139496   2.196   1.399   2.581  4.5985 -1.5496 -2.2980
 5979TIP3    H239497   2.116   1.271   2.598  1.6372  0.4785  0.3240
 5980TIP3   OH239498   3.036   3.842   2.123  0.0223 -0.8026  0.0519
 5980TIP3    H139499   3.082   3.761   2.144 -2.1251 -1.8113  1.2767
 5980TIP3    H239500   3.048   3.897   2.201 -2.3575 -1.8828  1.3103
 5981TIP3   OH239501   4.507   5.569   3.743  0.4557 -0.0262 -0.2742
 5981TIP3    H139502   4.469   5.532   3.663  0.9175 -1.0157 -0.0534
 5981TIP3    H239503   4.432   5.603   3.791 -0.0640 -1.1465 -0.2555
 5982TIP3   OH239504   2.506   0.006   3.519 -0.8101  0.4440  0.1382
 5982TIP3    H139505   2.480   0.069   3.587  0.8424  3.2161 -1.5960
 5982TIP3    H239506   2.450   0.027   3.444  0.2372  0.3559 -0.6919
 5983TIP3   OH239507   0.660   6.601   0.599 -0.0725 -0.3846  0.3295
 5983TIP3    H139508   0.696   6.601   0.511  0.9243  0.1329  0.7066
 5983TIP3    H239509   0.577   6.555   0.592 -1.6274  2.3997 -1.5375
 5984TIP3   OH239510   1.590   5.939   1.514  0.5602 -0.3535  0.0677
 5984TIP3    H139511   1.596   5.931   1.419  0.6412  1.6155 -0.1251
 5984TIP3    H239512   1.662   5.997   1.538  1.0726 -1.4978  1.4564
 5985TIP3   OH239513   5.287   3.268   0.436  0.2057 -0.1405  0.5455
 5985TIP3    H139514   5.301   3.174   0.435  1.7774 -0.0285  3.1511
 5985TIP3    H239515   5.323   3.300   0.353  0.0560 -1.7296 -0.1616
 5986TIP3   OH239516   4.579   5.311   1.973  0.1266  0.3358 -0.1914
 5986TIP3    H139517   4.615   5.238   1.924 -0.8633 -0.2543 -0.0670
 5986TIP3    H239518   4.592   5.387   1.916  2.7111  0.4174  0.3852
 5987TIP3   OH239519   6.526   5.653   1.140  0.1443  0.2191  0.0681
 5987TIP3    H139520   6.476   5.723   1.182 -0.1450 -0.1772  0.3894
 5987TIP3    H239521   6.519   5.671   1.046  0.2738  0.7560  0.1546
 5988TIP3   OH239522   3.884   1.451   3.662  0.2555 -0.6808 -0.6527
 5988TIP3    H139523   3.885   1.399   3.582  0.6781  0.6181 -1.5227
 5988TIP3    H239524   3.975   1.451   3.692  0.4120  0.1429 -1.0789
 5989TIP3   OH239525   0.705   0.903   4.236 -0.0393 -0.5016 -0.1536
 5989TIP3    H139526   0.736   0.813   4.242  0.4459 -0.3267  0.0033
 5989TIP3    H239527   0.628   0.906   4.293 -0.3553 -0.9384 -0.5476
 5990TIP3   OH239528   5.101   6.510   3.977 -0.4214 -0.0136  0.1056
 5990TIP3    H139529   5.096   6.503   3.881  2.0455  0.3666 -0.1258
 5990TIP3    H239530   5.115   6.603   3.994  0.1209 -0.2049  0.7533
 5991TIP3   OH239531   0.423   2.549   3.914  0.3187  0.0334  0.2168
 5991TIP3    H139532   0.341   2.535   3.961  1.3180 -0.6260  1.8431
 5991TIP3    H239533   0.472   2.610   3.968  0.3328  1.6341 -1.4943
 5992TIP3   OH239534   5.851   3.556   3.115 -0.6012  0.7015  0.0621
 5992TIP3    H139535   5.893   3.544   3.201 -0.7250  0.4880  0.0932
 5992TIP3    H239536   5.835   3.467   3.084 -1.2465  0.7807  0.1532
 5993TIP3   OH239537   2.687   4.949   3.573 -0.1777  0.1852  0.1077
 5993TIP3    H139538   2.648   5.006   3.640  0.5001  2.5795 -1.3843
 5993TIP3    H239539   2.649   4.979   3.490  0.8963 -0.9550 -0.8413
 5994TIP3   OH239540   5.428   4.551   2.027 -0.0564  0.5127 -0.2446
 5994TIP3    H139541   5.409   4.644   2.016  2.4284  0.9686 -1.6302
 5994TIP3    H239542   5.497   4.549   2.094 -0.1547 -0.3387 -0.1649
 5995TIP3   OH239543   0.516   1.054   1.761  0.3998  0.2592  0.2231
 5995TIP3    H139544   0.520   1.035   1.855 -0.3984  0.7369  0.3655
 5995TIP3    H239545   0.596   1.102   1.742  0.6126  0.0734  0.6363
 5996TIP3   OH239546   5.884   1.676   1.964  0.3940 -0.0293  1.1810
 5996TIP3    H139547   5.877   1.751   1.906  0.4996  0.1569  1.4069
 5996TIP3    H239548   5.972   1.641   1.948 -0.1217 -0.9037  0.1164
 5997TIP3   OH239549   6.337   1.303   1.985  0.0264 -0.4208 -0.2057
 5997TIP3    H139550   6.320   1.335   2.073  2.0764 -0.2249  0.1796
 5997TIP3    H239551   6.430   1.282   1.985  0.1448 -0.1475 -2.4036
 5998TIP3   OH239552   0.910   0.846   3.140  0.2481 -0.0552 -0.2652
 5998TIP3    H139553   0.954   0.910   3.197  0.4303 -0.2170 -0.2246
 5998TIP3    H239554   0.908   0.766   3.192 -0.9329  0.1965  0.1020
 5999TIP3   OH239555   3.807   0.842   4.190 -0.2401  0.0039  0.1877
 5999TIP3    H139556   3.830   0.750   4.177  1.1039  0.5207 -1.4285
 5999TIP3    H239557   3.758   0.843   4.273  1.5093 -1.8720  1.3451
 6000TIP3   OH239558   2.884   4.453   2.426  0.0996 -0.2729  0.1433
 6000TIP3    H139559   2.969   4.442   2.470 -0.8120 -0.8814  1.8406
 6000TIP3    H239560   2.870   4.370   2.381  1.0234  0.3423 -1.3656
 6001TIP3   OH239561   1.621   5.337   3.425  0.2117 -0.4518  0.0536
 6001TIP3    H139562   1.644   5.245   3.418  2.4704  0.1304 -1.6034
 6001TIP3    H239563   1.533   5.343   3.389 -0.2093 -2.0150  0.7517
 6002TIP3   OH239564   3.746   3.286   1.632 -0.1362 -0.2412 -0.0463
 6002TIP3    H139565   3.774   3.210   1.581  0.9173 -0.0356  0.1967
 6002TIP3    H239566   3.670   3.256   1.682  0.6138 -1.3105  0.4734
 6003TIP3   OH239567   1.149   6.049   2.051 -0.0932  0.1348  0.0650
 6003TIP3    H139568   1.097   5.974   2.022 -0.3250 -0.1781  1.2536
 6003TIP3    H239569   1.113   6.123   2.003 -0.7500 -0.2995 -0.1209
 6004TIP3   OH239570   4.423   0.892   3.810  0.0170  0.1973  0.4515
 6004TIP3    H139571   4.379   0.931   3.885  1.7447 -1.0962  2.2350
 6004TIP3    H239572   4.415   0.798   3.823  0.7880 -0.0606 -0.7074
 6005TIP3   OH239573   3.698   4.979   0.810  0.0368 -0.0289  0.3536
 6005TIP3    H139574   3.756   5.030   0.753 -0.6413  0.0980 -0.2382
 6005TIP3    H239575   3.645   5.044   0.855  0.4573 -0.1373  1.0209
 6006TIP3   OH239576   6.079   1.931   0.941  0.4557  0.3139  0.5356
 6006TIP3    H139577   6.039   1.887   0.866 -0.0684  0.6862  0.5957
 6006TIP3    H239578   6.017   1.999   0.966  0.1705 -0.4040  1.9071
 6007TIP3   OH239579   3.171   6.482   3.784  0.0395  0.8446 -0.3852
 6007TIP3    H139580   3.141   6.505   3.696  0.0988  1.2427 -0.3043
 6007TIP3    H239581   3.245   6.423   3.769  0.6606  1.6700 -0.6226
 6008TIP3   OH239582   3.383   6.214   0.085  0.7016 -0.0838  0.4102
 6008TIP3    H139583   3.371   6.119   0.074  2.1499 -0.3055  0.5020
 6008TIP3    H239584   3.296   6.247   0.105  0.1721 -1.4026  0.3969
 6009TIP3   OH239585   2.497   4.466   3.409 -0.3138  0.5823 -0.1982
 6009TIP3    H139586   2.498   4.562   3.404  0.2987  0.6039  0.2505
 6009TIP3    H239587   2.528   4.438   3.323 -1.4567  0.7639 -0.6866
 6010TIP3   OH239588   6.533   0.954   3.786  0.0737  0.0306 -0.2660
 6010TIP3    H139589   6.579   0.993   3.711 -1.1329  0.5471 -0.7520
 6010TIP3    H239590   6.592   0.884   3.815  0.9620  0.3776 -1.1549
 6011TIP3   OH239591   0.626   4.277   1.616 -0.4993  0.3884  0.6034
 6011TIP3    H139592   0.614   4.226   1.536  0.3001  0.4582  0.4274
 6011TIP3    H239593   0.544   4.266   1.665 -0.5093 -0.6675  0.3576
 6012TIP3   OH239594   1.478   4.358   3.596 -0.5669 -0.2507 -0.0404
 6012TIP3    H139595   1.467   4.451   3.613 -1.5996 -0.8161  3.1079
 6012TIP3    H239596   1.390   4.322   3.597 -0.0685 -1.5458  1.1551
 6013TIP3   OH239597   3.773   1.222   2.442  0.3431 -0.2419  0.2255
 6013TIP3    H139598   3.849   1.250   2.492  1.0976 -1.7026 -0.0663
 6013TIP3    H239599   3.761   1.130   2.464 -1.3850 -0.0315  0.3056
 6014TIP3   OH239600   2.534   5.980   3.995 -0.5706 -0.2641  0.4621
 6014TIP3    H139601   2.511   6.072   4.010 -0.2259  0.1929 -1.4985
 6014TIP3    H239602   2.456   5.942   3.954  0.3723  0.0586 -1.7775
 6015TIP3   OH239603   5.457   5.844   3.131  0.2092 -0.3219  0.5083
 6015TIP3    H139604   5.550   5.827   3.118 -0.0873 -0.2646 -2.0380
 6015TIP3    H239605   5.453   5.893   3.214  2.6392  1.3904 -0.2924
 6016TIP3   OH239606   4.636   4.283   1.994  0.6094  0.5730 -0.1491
 6016TIP3    H139607   4.699   4.350   1.966 -0.5223  0.9324 -2.0064
 6016TIP3    H239608   4.568   4.331   2.041  1.4920  0.2276  1.5615
 6017TIP3   OH239609   0.558   5.435   1.157 -0.4016 -0.0344  0.1210
 6017TIP3    H139610   0.559   5.353   1.207 -0.1483  0.0685  0.2884
 6017TIP3    H239611   0.548   5.503   1.223 -1.3699  0.0317 -0.0817
 6018TIP3   OH239612   5.488   6.346   2.522  0.5058  0.4826  0.0089
 6018TIP3    H139613   5.478   6.292   2.601 -0.6335  0.4282 -0.1519
 6018TIP3    H239614   5.434   6.423   2.539 -0.6001 -0.0069 -1.1134
 6019TIP3   OH239615   2.390   5.318   0.051  0.1041  0.5019 -0.5277
 6019TIP3    H139616   2.354   5.230   0.064 -1.3572  1.0468 -0.6608
 6019TIP3    H239617   2.399   5.353   0.140  1.9976 -0.2497 -0.3895
 6020TIP3   OH239618   1.102   2.286   8.812 -0.8414 -0.0696 -0.7639
 6020TIP3    H139619   1.096   2.324   8.900  0.7814 -2.1564  0.3511
 6020TIP3    H239620   1.183   2.321   8.776 -0.9510 -0.0471 -0.9891
 6021TIP3   OH239621   3.880   5.872   1.750  0.3419 -0.3313 -0.1417
 6021TIP3    H139622   3.868   5.918   1.667 -1.6566 -0.6855 -0.0752
 6021TIP3    H239623   3.819   5.798   1.746 -2.5812  1.6462  3.0419
 6022TIP3   OH239624   2.871   1.035   4.088  0.1601 -0.3356 -0.5316
 6022TIP3    H139625   2.792   1.050   4.140  0.6936  3.0219 -0.4965
 6022TIP3    H239626   2.916   0.964   4.134 -1.0205  0.2282  1.6512
 6023TIP3   OH239627   2.045   0.943   2.981 -0.1569  0.6421 -0.1862
 6023TIP3    H139628   2.020   0.909   2.895 -2.5163  1.9413 -0.0840
 6023TIP3    H239629   2.024   1.036   2.977  1.1424  1.0435  1.3241
 6024TIP3   OH239630   6.669   4.183   1.295 -0.5665  0.4975 -1.0921
 6024TIP3    H139631   6.659   4.088   1.286 -0.3287  0.3410  0.0518
 6024TIP3    H239632   6.583   4.212   1.325  0.3543  0.0411  2.4757
 6025TIP3   OH239633   5.479   1.542   3.886 -0.0342 -0.3263  0.5896
 6025TIP3    H139634   5.477   1.637   3.896 -1.1216 -0.3808  1.0174
 6025TIP3    H239635   5.389   1.518   3.864  0.6720 -1.0395 -1.8345
 6026TIP3   OH239636   5.949   4.351   1.191  0.2323 -0.2800  0.0175
 6026TIP3    H139637   5.992   4.266   1.184 -2.2097 -1.5643 -0.5187
 6026TIP3    H239638   5.910   4.351   1.279  2.7737  1.6669  1.2566
 6027TIP3   OH239639   4.995   0.752   2.425 -0.1178 -0.3336  0.7179
 6027TIP3    H139640   4.917   0.789   2.384  0.1659 -0.5410 -0.0269
 6027TIP3    H239641   4.970   0.662   2.447  0.1301 -0.6479 -0.2092
 6028TIP3   OH239642   0.003   5.017   0.157  0.0624  0.4311  0.1124
 6028TIP3    H139643   0.066   5.087   0.173  0.1335  0.4772 -0.3585
 6028TIP3    H239644   0.021   4.989   0.067  0.9035 -1.0853  0.7317
 6029TIP3   OH239645   0.352   0.586   3.688  0.2283  0.0587 -0.4456
 6029TIP3    H139646   0.292   0.528   3.734  1.5512 -0.8639  0.1641
 6029TIP3    H239647   0.364   0.661   3.747  0.2976 -0.1331 -0.2174
 6030TIP3   OH239648   3.553   4.068   1.917  0.1092  0.5904 -0.3327
 6030TIP3    H139649   3.502   3.998   1.958 -0.0278  0.3898 -0.8370
 6030TIP3    H239650   3.520   4.148   1.957 -0.7010  0.4712 -0.7497
 6031TIP3   OH239651   4.073   5.197   1.914 -0.4233 -0.2108 -0.2423
 6031TIP3    H139652   4.018   5.246   1.852 -1.0060 -0.4008  0.1176
 6031TIP3    H239653   4.156   5.244   1.914 -0.0604 -0.8004 -1.9496
 6032TIP3   OH239654   0.086   4.626   0.108  0.2908  0.6022 -0.6912
 6032TIP3    H139655   0.083   4.601   0.200 -1.4753  2.1198 -0.2857
 6032TIP3    H239656   0.131   4.553   0.065 -1.0184 -1.2893  0.9791
 6033TIP3   OH239657   4.923   6.039   0.882 -0.0607 -0.3838  0.0089
 6033TIP3    H139658   4.887   6.122   0.850 -0.2965 -0.1755  0.7758
 6033TIP3    H239659   5.006   6.064   0.924  2.0940 -1.0979 -3.4524
 6034TIP3   OH239660   3.742   3.972   4.101  1.0031  0.1669  0.9416
 6034TIP3    H139661   3.805   3.905   4.074  0.8498  1.0932 -2.0709
 6034TIP3    H239662   3.711   4.010   4.019 -1.1830  1.8770  2.4445
 6035TIP3   OH239663   3.010   1.727   1.857  0.1936 -0.4534  0.1003
 6035TIP3    H139664   2.955   1.652   1.835 -0.9576  0.3506  0.1844
 6035TIP3    H239665   2.973   1.800   1.808  2.0806 -0.1720 -0.9937
 6036TIP3   OH239666   4.379   6.581   1.679 -0.2463 -0.5408 -0.2561
 6036TIP3    H139667   4.419   6.567   1.593  0.0831  1.1071 -0.4044
 6036TIP3    H239668   4.451   6.610   1.735 -0.9248  1.1033 -0.1661
 6037TIP3   OH239669   6.431   3.295   4.050  0.0722 -0.3209 -0.1389
 6037TIP3    H139670   6.492   3.367   4.064 -0.9853  0.4788  0.5452
 6037TIP3    H239671   6.453   3.231   4.117 -1.3328  1.0239  1.7218
 6038TIP3   OH239672   1.788   6.325   0.489 -0.5635 -0.2358  0.4218
 6038TIP3    H139673   1.735   6.246   0.477  0.5745 -0.8867 -0.5683
 6038TIP3    H239674   1.793   6.364   0.402  0.9698 -0.4524  0.3970
 6039TIP3   OH239675   2.596   6.393   1.543  0.3347 -0.6636  0.3697
 6039TIP3    H139676   2.585   6.370   1.635  0.4189  1.4253  0.9541
 6039TIP3    H239677   2.652   6.470   1.544 -2.2705  1.4300 -1.1487
 6040TIP3   OH239678   6.295   1.041   0.660  0.1955  0.5808 -0.6140
 6040TIP3    H139679   6.238   1.104   0.705 -0.1684 -0.3661  0.2924
 6040TIP3    H239680   6.274   0.957   0.701  1.9848  0.1464 -0.5440
 6041TIP3   OH239681   4.535   5.664   3.381 -0.3148 -0.1627 -0.2844
 6041TIP3    H139682   4.610   5.679   3.440 -1.5636  0.5309  1.2113
 6041TIP3    H239683   4.497   5.582   3.412 -1.2622  0.4509  0.2319
 6042TIP3   OH239684   0.473   4.808   1.152  0.0570 -0.0987  0.2610
 6042TIP3    H139685   0.458   4.801   1.246  0.3639 -1.0854  0.2450
 6042TIP3    H239686   0.525   4.888   1.143 -0.1337  0.1074  0.9121
 6043TIP3   OH239687   5.288   5.399   4.027 -0.0643 -0.1427  0.4584
 6043TIP3    H139688   5.321   5.381   4.115  1.5805  0.6543  0.0531
 6043TIP3    H239689   5.329   5.332   3.973 -0.6348 -0.2934  0.2115
 6044TIP3   OH239690   1.981   1.410   3.446 -0.0532 -0.4271  0.3051
 6044TIP3    H139691   2.072   1.399   3.474 -0.2858 -0.3453  1.1038
 6044TIP3    H239692   1.941   1.324   3.460 -0.2050 -0.3499  0.3392
 6045TIP3   OH239693   2.273   0.167   1.727 -1.0438  0.0132 -0.2962
 6045TIP3    H139694   2.281   0.243   1.784  0.5122 -0.6291  0.4117
 6045TIP3    H239695   2.228   0.101   1.779 -1.3815  0.0789 -0.5055
 6046TIP3   OH239696   0.086   2.708   2.547 -0.2569 -0.4568 -0.2787
 6046TIP3    H139697   0.094   2.619   2.512 -2.8269 -0.1777 -1.8413
 6046TIP3    H239698   0.146   2.760   2.494  1.3230 -1.2313  0.6954
 6047TIP3   OH239699   1.481   5.674   3.193  0.0373  0.0580  0.1878
 6047TIP3    H139700   1.524   5.732   3.131 -1.0604 -0.3061 -0.9509
 6047TIP3    H239701   1.388   5.695   3.186 -0.2458 -0.9227  0.7184
 6048TIP3   OH239702   1.441   3.376   0.607 -0.0203  0.0062  0.1170
 6048TIP3    H139703   1.510   3.311   0.616 -0.6837 -0.5660  1.3239
 6048TIP3    H239704   1.487   3.460   0.607  0.7795 -0.4266 -0.5892
 6049TIP3   OH239705   3.486   4.173   3.911 -0.3047  0.3490 -0.3203
 6049TIP3    H139706   3.566   4.129   3.885 -0.0841 -0.0540  0.9537
 6049TIP3    H239707   3.443   4.112   3.970 -1.1990  0.8548 -0.4302
 6050TIP3   OH239708   3.489   1.898   3.315  0.4385  0.4115  0.4885
 6050TIP3    H139709   3.405   1.874   3.354 -0.0229 -1.0850 -1.2841
 6050TIP3    H239710   3.550   1.833   3.349 -0.1108 -1.3566 -1.6635
 6051TIP3   OH239711   2.490   5.527   3.810  0.2596 -0.3029  0.4627
 6051TIP3    H139712   2.539   5.597   3.767  1.2731 -1.5487 -0.4669
 6051TIP3    H239713   2.547   5.495   3.879  0.6528 -1.4932 -0.3710
 6052TIP3   OH239714   6.171   2.588   4.490 -1.0052 -0.4797  0.0086
 6052TIP3    H139715   6.132   2.666   4.450 -0.5873 -0.1609  0.2259
 6052TIP3    H239716   6.122   2.575   4.571  0.1060  0.6202  0.8873
 6053TIP3   OH239717   4.467   4.532   4.209 -0.6363 -0.1478 -0.3785
 6053TIP3    H139718   4.454   4.488   4.293 -1.0578  0.5265 -0.0744
 6053TIP3    H239719   4.428   4.473   4.144 -2.1630  0.2410  0.1456
 6054TIP3   OH239720   0.375   4.935   2.616 -0.5082 -0.1845 -0.0165
 6054TIP3    H139721   0.460   4.946   2.574  0.0224 -2.8918  0.1587
 6054TIP3    H239722   0.396   4.920   2.709 -1.1712 -0.5653  0.0825
 6055TIP3   OH239723   2.047   6.265   0.877 -0.6081  0.4599 -0.3006
 6055TIP3    H139724   1.953   6.257   0.890 -0.7622 -1.4698 -2.0923
 6055TIP3    H239725   2.060   6.250   0.783  1.4689  1.0300 -0.1660
 6056TIP3   OH239726   0.930   1.471   1.161  0.0521  0.0722  0.7089
 6056TIP3    H139727   1.025   1.474   1.156 -0.0113  0.9639 -0.9827
 6056TIP3    H239728   0.904   1.421   1.083 -0.8924  2.0267 -0.3240
 6057TIP3   OH239729   4.389   5.417   3.545  0.1762  0.5575 -0.1451
 6057TIP3    H139730   4.302   5.411   3.505 -1.6134 -0.0434  3.4577
 6057TIP3    H239731   4.416   5.326   3.557 -1.1871  0.4571  3.3530
 6058TIP3   OH239732   0.048   3.515   3.355 -0.1818  0.0586 -0.0126
 6058TIP3    H139733   0.107   3.589   3.364  0.9773 -0.4176 -2.7853
 6058TIP3    H239734   0.098   3.440   3.388  0.3106 -0.1296 -1.1389
 6059TIP3   OH239735   5.507   6.175   5.114  0.1065  0.1562  1.1568
 6059TIP3    H139736   5.552   6.117   5.176  0.9048  0.6321  1.0310
 6059TIP3    H239737   5.525   6.263   5.146 -2.5655  0.3688  2.3780
 6060TIP3   OH239738   4.055   5.433   0.632 -0.2052 -0.0858 -0.3873
 6060TIP3    H139739   4.079   5.353   0.584  1.0375 -0.6468  1.1103
 6060TIP3    H239740   4.134   5.486   0.632 -0.0968 -0.1996  1.2226
 6061TIP3   OH239741   2.068   2.639   0.805  0.0413  0.3400 -0.6844
 6061TIP3    H139742   2.133   2.611   0.869 -1.9097 -0.1078  1.1884
 6061TIP3    H239743   2.095   2.728   0.780  0.8071  0.5487  0.8083
 6062TIP3   OH239744   5.182   3.593   8.610 -0.0103 -0.1187 -0.3964
 6062TIP3    H139745   5.246   3.656   8.644  0.3558 -1.3234  1.2586
 6062TIP3    H239746   5.229   3.548   8.540 -0.4326  1.7115 -1.9371
 6063TIP3   OH239747   3.713   4.707   4.040 -0.6483 -0.3322 -0.5842
 6063TIP3    H139748   3.629   4.722   3.996 -3.0709 -0.0222  3.6604
 6063TIP3    H239749   3.692   4.703   4.133  4.1109 -0.2844  0.7785
 6064TIP3   OH239750   5.507   4.085   1.297  0.4487  0.0155 -0.4903
 6064TIP3    H139751   5.455   4.139   1.357 -0.0975  1.1954 -1.9553
 6064TIP3    H239752   5.592   4.076   1.340  0.2999  1.4298  0.1416
 6065TIP3   OH239753   3.752   4.208   1.816 -0.1162 -0.0552  0.3520
 6065TIP3    H139754   3.703   4.279   1.773  1.0561  1.1859  1.0002
 6065TIP3    H239755   3.684   4.157   1.861 -0.8978  1.2999  0.7762
 6066TIP3   OH239756   4.373   0.968   5.144  0.1455  0.2804  0.9295
 6066TIP3    H139757   4.397   0.908   5.215  1.9963 -2.2663 -1.6324
 6066TIP3    H239758   4.432   1.042   5.154  0.7506 -0.2877  1.7163
 6067TIP3   OH239759   1.653   4.966   4.715  0.1494 -0.0218  0.2600
 6067TIP3    H139760   1.695   4.887   4.749 -0.6373 -0.6570 -0.2216
 6067TIP3    H239761   1.586   4.987   4.781 -0.9468 -0.8873 -0.5431
 6068TIP3   OH239762   4.233   2.197   8.802 -0.4590  0.1618  0.1384
 6068TIP3    H139763   4.138   2.191   8.805 -0.4396 -1.0385 -0.8318
 6068TIP3    H239764   4.261   2.192   8.893 -1.1380 -4.5714  0.3522
 6069TIP3   OH239765   5.969   0.047   0.913  0.0010  0.5188  0.1233
 6069TIP3    H139766   5.964  -0.020   0.845  2.0303 -0.1498  0.5561
 6069TIP3    H239767   5.878   0.072   0.929 -0.6145 -0.1559 -1.9760
 6070TIP3   OH239768   1.434   0.768   1.514 -0.1275 -0.4936 -0.2864
 6070TIP3    H139769   1.445   0.823   1.436  2.0677 -0.6537 -0.1689
 6070TIP3    H239770   1.404   0.684   1.480  0.1036 -0.3389 -0.8868
 6071TIP3   OH239771   0.998   0.648   0.340  0.2489  0.1800  0.0560
 6071TIP3    H139772   1.027   0.574   0.288  3.3054  0.0466  1.7324
 6071TIP3    H239773   1.021   0.725   0.288 -0.2352  0.0055 -0.4188
 6072TIP3   OH239774   0.465   4.950   3.171  0.5287 -0.4732 -0.0322
 6072TIP3    H139775   0.501   4.863   3.155 -0.0309 -0.5454 -0.9955
 6072TIP3    H239776   0.530   5.010   3.136 -1.1924 -0.6454 -4.0926
 6073TIP3   OH239777   1.329   2.432   3.929 -0.3440 -0.4477 -0.0574
 6073TIP3    H139778   1.234   2.439   3.919 -0.2083  0.6086 -0.8021
 6073TIP3    H239779   1.343   2.425   4.024 -1.0585  1.9047  0.3010
 6074TIP3   OH239780   2.923   0.452   1.896 -0.0857 -0.2657 -0.2874
 6074TIP3    H139781   2.992   0.391   1.869  1.1823  1.8825 -2.1575
 6074TIP3    H239782   2.939   0.467   1.989  0.3248 -1.7837 -0.0857
 6075TIP3   OH239783   4.737   2.346   2.078 -0.0442 -0.4648  0.1845
 6075TIP3    H139784   4.680   2.271   2.093 -2.0237  0.3157 -2.4517
 6075TIP3    H239785   4.773   2.331   1.990 -0.5906  1.6245 -0.4587
 6076TIP3   OH239786   3.833   6.243   1.194 -0.0011 -0.1144 -0.4571
 6076TIP3    H139787   3.896   6.285   1.135 -0.7670  0.0634 -1.1627
 6076TIP3    H239788   3.756   6.228   1.140 -0.1419 -1.4399  0.0775
 6077TIP3   OH239789   6.132   0.730   0.139 -0.1431  0.4321  0.2682
 6077TIP3    H139790   6.068   0.782   0.186 -0.3760  1.2736 -0.9205
 6077TIP3    H239791   6.129   0.764   0.049  1.3870 -0.0471  0.0026
 6078TIP3   OH239792   3.056   3.191   0.985  0.2978  0.2543  0.0238
 6078TIP3    H139793   3.037   3.102   1.013 -0.0727  0.3224 -0.0025
 6078TIP3    H239794   2.983   3.214   0.928  1.3341 -0.1116 -1.5193
 6079TIP3   OH239795   5.918   4.512   8.750  0.5356  0.2491  0.0646
 6079TIP3    H139796   5.980   4.525   8.822 -0.4342  1.0411  0.7883
 6079TIP3    H239797   5.949   4.571   8.682  0.3174  1.0070  0.6062
 6080TIP3   OH239798   4.132   3.057   2.707 -0.5297  0.1940 -0.5461
 6080TIP3    H139799   4.163   2.974   2.743 -2.6397 -0.8343 -0.9570
 6080TIP3    H239800   4.211   3.101   2.675  0.8028 -0.9898  0.9699
 6081TIP3   OH239801   1.958   6.620   3.206  0.4631 -0.1123 -0.1921
 6081TIP3    H139802   1.965   6.708   3.169 -0.7873 -0.0560 -0.3218
 6081TIP3    H239803   1.875   6.587   3.174 -0.0190 -0.5963  1.4741
 6082TIP3   OH239804   4.189   5.136   1.250  0.2428  0.2803 -0.2938
 6082TIP3    H139805   4.158   5.154   1.161 -0.1169 -3.1492 -0.9959
 6082TIP3    H239806   4.272   5.090   1.237  1.4328  1.8505  1.3041
 6083TIP3   OH239807   0.570   6.497   1.358 -0.5307 -0.3043  0.4196
 6083TIP3    H139808   0.501   6.530   1.300  0.1204 -1.3193 -0.9988
 6083TIP3    H239809   0.651   6.533   1.323 -0.2065 -0.0807  1.3631
 6084TIP3   OH239810   1.911   2.531   1.616  0.5377 -0.1217  0.2394
 6084TIP3    H139811   1.846   2.511   1.684 -0.2423 -0.1862 -0.5161
 6084TIP3    H239812   1.984   2.571   1.664 -0.4677  0.8665  0.9921
 6085TIP3   OH239813   4.530   3.806   2.606 -0.3832 -0.4351  0.0806
 6085TIP3    H139814   4.458   3.835   2.550 -0.4275  0.8887  0.7941
 6085TIP3    H239815   4.490   3.790   2.691  0.1272  0.1453  0.4358
 6086TIP3   OH239816   4.412   1.315   1.546 -0.0688 -0.4475 -0.0853
 6086TIP3    H139817   4.458   1.274   1.620  1.7954 -1.4736 -1.7353
 6086TIP3    H239818   4.347   1.372   1.588  2.4761  0.8776  2.4298
 6087TIP3   OH239819   4.749   4.076   3.866  0.3629 -0.1140 -0.4042
 6087TIP3    H139820   4.750   4.144   3.799 -2.1568  0.6029  0.1545
 6087TIP3    H239821   4.766   3.995   3.818 -0.9616  0.4265 -1.8925
 6088TIP3   OH239822   4.736   4.727   2.142 -0.1360  0.7328 -0.4360
 6088TIP3    H139823   4.657   4.777   2.121  0.4048  0.5489 -3.3303
 6088TIP3    H239824   4.807   4.791   2.136  0.0404  0.7760  1.5802
 6089TIP3   OH239825   3.877   1.179   0.003 -0.2978  0.5423  0.1660
 6089TIP3    H139826   3.817   1.106  -0.014  0.2222  0.3232 -0.8318
 6089TIP3    H239827   3.959   1.138   0.029 -0.7475  0.8611  2.1949
 6090TIP3   OH239828   2.990   2.283   1.847 -0.4443  0.4443  0.7296
 6090TIP3    H139829   2.933   2.226   1.897 -1.4265  2.3259  1.8808
 6090TIP3    H239830   2.933   2.352   1.814  0.6021  0.5500 -1.0453
 6091TIP3   OH239831   1.894   3.103   0.656  0.1192 -0.6179  0.8701
 6091TIP3    H139832   1.986   3.125   0.673  0.8799 -0.9492 -2.2077
 6091TIP3    H239833   1.864   3.171   0.595 -1.3858 -1.0922  1.0340
 6092TIP3   OH239834   2.644   0.580   8.713 -0.1969  0.2855  0.4006
 6092TIP3    H139835   2.669   0.609   8.800 -0.4207  1.1292  0.1961
 6092TIP3    H239836   2.699   0.631   8.654 -1.2617  1.0195  0.0045
 6093TIP3   OH239837   2.243   0.168   4.046  0.6427  0.1755  0.0038
 6093TIP3    H139838   2.334   0.153   4.023  0.6319 -0.9579  0.6524
 6093TIP3    H239839   2.233   0.130   4.133 -0.7968 -1.0106 -0.6426
 6094TIP3   OH239840   5.570   6.676   2.350 -0.3724 -0.0649  0.4521
 6094TIP3    H139841   5.637   6.716   2.406  0.2510  1.1986 -1.1067
 6094TIP3    H239842   5.511   6.631   2.411 -1.1355  3.2340  2.4447
 6095TIP3   OH239843   5.098   0.609   2.760  0.6916  0.0513  0.4268
 6095TIP3    H139844   5.141   0.643   2.839  1.2566 -0.9102  0.5526
 6095TIP3    H239845   5.164   0.552   2.720  0.3984  0.5114 -0.7326
 6096TIP3   OH239846   1.363   6.325   0.777 -0.2575 -0.3716 -0.4519
 6096TIP3    H139847   1.351   6.361   0.689  1.8956  0.6823 -0.4007
 6096TIP3    H239848   1.457   6.308   0.782 -0.7471 -3.3115  0.6215
 6097TIP3   OH239849   6.615   0.756   3.986 -0.0072  0.0791  0.4577
 6097TIP3    H139850   6.587   0.785   4.073  1.4091 -1.1613  1.3764
 6097TIP3    H239851   6.567   0.674   3.971 -0.8934  0.7226 -0.3292
 6098TIP3   OH239852   0.538   2.082   2.115 -0.3903 -0.4597 -0.0831
 6098TIP3    H139853   0.622   2.127   2.109  0.5250 -2.0737  0.0622
 6098TIP3    H239854   0.558   1.990   2.097 -1.8528 -1.1695  1.5978
 6099TIP3   OH239855   6.134   2.915   3.537  0.2727  0.7028 -0.3380
 6099TIP3    H139856   6.213   2.902   3.590  0.3446 -0.0901 -0.6210
 6099TIP3    H239857   6.164   2.967   3.462 -0.2686  3.7666  1.4286
 6100TIP3   OH239858   2.138   2.869   2.830 -0.0577 -0.3763  0.2820
 6100TIP3    H139859   2.130   2.964   2.836 -1.3023 -0.5372  1.9051
 6100TIP3    H239860   2.116   2.848   2.739  0.7012  0.8987 -0.2146
 6101TIP3   OH239861   5.027   4.614   1.508 -0.5330  0.9499  0.0266
 6101TIP3    H139862   5.005   4.706   1.495 -1.3229  0.7676  0.0269
 6101TIP3    H239863   5.054   4.583   1.422  1.1578  1.5432  0.3167
 6102TIP3   OH239864   2.542   1.245   2.728 -0.3361  0.6552 -0.7469
 6102TIP3    H139865   2.595   1.303   2.783 -1.2431  1.2452 -0.4583
 6102TIP3    H239866   2.525   1.296   2.649 -1.3586  0.8998 -0.3813
 6103TIP3   OH239867   6.169   2.183   1.824 -0.2018 -0.1248  0.2380
 6103TIP3    H139868   6.214   2.189   1.740 -0.8110 -1.8748 -0.2689
 6103TIP3    H239869   6.146   2.273   1.847 -1.1295  0.2910 -2.1088
 6104TIP3   OH239870   6.032   5.909   3.356 -0.4869 -0.2471 -0.1957
 6104TIP3    H139871   6.113   5.866   3.329 -0.9185 -0.5765 -0.9878
 6104TIP3    H239872   5.969   5.888   3.287 -1.1982  0.1628  0.3150
 6105TIP3   OH239873   4.720   6.441   1.948 -0.0943 -0.1048 -0.2880
 6105TIP3    H139874   4.688   6.351   1.954 -1.3936  0.3635  0.0782
 6105TIP3    H239875   4.721   6.473   2.038 -0.2871  0.4721 -0.4858
 6106TIP3   OH239876   5.083   6.238   2.071  0.0005 -0.6707  0.5524
 6106TIP3    H139877   5.050   6.328   2.063  0.2769 -0.5969  0.2162
 6106TIP3    H239878   5.154   6.244   2.135  0.1686 -0.6081  0.3608
 6107TIP3   OH239879   5.470   3.730   2.945  0.2367 -0.5344  0.5420
 6107TIP3    H139880   5.416   3.796   2.902  1.0762  0.6208  1.2069
 6107TIP3    H239881   5.464   3.751   3.038  1.4818 -0.6381  0.6594
 6108TIP3   OH239882   4.543   4.974   2.891  0.3405  0.7887  0.2366
 6108TIP3    H139883   4.600   4.900   2.907 -0.4380 -0.0693 -0.7650
 6108TIP3    H239884   4.595   5.051   2.913  0.6600 -0.0868  2.7522
 6109TIP3   OH239885   2.475   1.329   0.916  0.0404 -0.0524 -0.1163
 6109TIP3    H139886   2.386   1.339   0.951  0.2726 -0.7502  0.7073
 6109TIP3    H239887   2.514   1.260   0.970 -0.1446 -2.4740 -2.7822
 6110TIP3   OH239888   3.908   4.874   4.238  0.0016  0.2500 -0.1268
 6110TIP3    H139889   3.814   4.867   4.256  0.3304  1.0203  2.2383
 6110TIP3    H239890   3.926   4.968   4.238  1.0184  0.0887  1.1647
 6111TIP3   OH239891   2.523   6.701   0.631 -0.3870 -0.8214 -0.3286
 6111TIP3    H139892   2.538   6.742   0.716  0.4950 -0.8005 -0.4871
 6111TIP3    H239893   2.605   6.711   0.585 -0.7977 -1.0147 -1.1166
 6112TIP3   OH239894   1.905   1.050   0.910  0.3701 -0.0703  0.1520
 6112TIP3    H139895   1.828   0.998   0.888  1.4184 -1.0618 -1.4069
 6112TIP3    H239896   1.901   1.126   0.852  0.5455 -0.1092  0.0876
 6113TIP3   OH239897   3.021   2.242   3.384  0.5426  0.5438  0.5236
 6113TIP3    H139898   2.933   2.258   3.351  0.2485 -3.1687 -0.9522
 6113TIP3    H239899   3.007   2.205   3.471  0.6089 -0.0745  0.2765
 6114TIP3   OH239900   6.724   1.072   0.994  0.3738  0.0082 -0.2653
 6114TIP3    H139901   6.663   1.129   1.042 -1.1012 -0.3443 -1.6492
 6114TIP3    H239902   6.702   0.984   1.023  2.8991  0.0199  2.1471
 6115TIP3   OH239903   3.661   6.795   3.118 -0.1069  0.3840  0.1154
 6115TIP3    H139904   3.692   6.862   3.057 -2.3769  2.3539  0.9664
 6115TIP3    H239905   3.679   6.712   3.074 -1.0304  1.6722 -2.9320
 6116TIP3   OH239906   1.797   1.727   2.673 -0.2823 -0.0386  0.0968
 6116TIP3    H139907   1.857   1.670   2.720  0.5687 -0.0234 -0.9359
 6116TIP3    H239908   1.852   1.798   2.640 -1.2076  1.0349  0.7786
 6117TIP3   OH239909   4.766   6.140   3.971 -0.3359 -0.0146 -0.1357
 6117TIP3    H139910   4.697   6.166   3.910 -0.7664 -2.1244 -0.6353
 6117TIP3    H239911   4.846   6.176   3.933 -1.0070  1.5926 -0.0932
 6118TIP3   OH239912   5.620   5.910   1.618  0.4852 -0.0458 -0.1933
 6118TIP3    H139913   5.594   5.966   1.690  1.1437  1.2709 -0.9352
 6118TIP3    H239914   5.591   5.957   1.539  1.3247 -0.5918 -0.8467
 6119TIP3   OH239915   5.993   2.582   2.160  0.0763 -0.2399  0.1945
 6119TIP3    H139916   5.949   2.498   2.173 -1.1841  0.6099  1.9203
 6119TIP3    H239917   5.997   2.621   2.248  0.0412  1.7900 -0.6407
 6120TIP3   OH239918   5.720   3.081   3.632 -0.0079 -0.8062  0.6024
 6120TIP3    H139919   5.660   3.069   3.559 -0.5267 -1.1507  1.0803
 6120TIP3    H239920   5.739   2.992   3.662  1.1748 -0.7387  0.1141
 6121TIP3   OH239921   4.570   6.412   2.277 -0.1628  0.4879  0.1591
 6121TIP3    H139922   4.494   6.436   2.224  0.2167  0.7225 -0.2861
 6121TIP3    H239923   4.640   6.471   2.247  0.2483  0.1446  0.4277
 6122TIP3   OH239924   1.794   0.652   0.475  0.5925 -0.0859  0.2774
 6122TIP3    H139925   1.715   0.706   0.475  0.6340 -0.0227 -0.2769
 6122TIP3    H239926   1.835   0.670   0.560  0.4330  0.5046  0.2359
 6123TIP3   OH239927   6.531   6.091   3.037 -0.0738  0.1455 -0.3313
 6123TIP3    H139928   6.443   6.121   3.059 -0.8887 -0.4225 -2.6196
 6123TIP3    H239929   6.530   6.079   2.942  2.1308 -0.9927 -0.2756
 6124TIP3   OH239930   4.068   5.081   2.429  0.0986  0.0985 -0.1647
 6124TIP3    H139931   4.127   5.110   2.499 -1.0296 -0.0173  0.8551
 6124TIP3    H239932   4.021   5.160   2.404 -0.1104 -0.0358 -0.1922
 6125TIP3   OH239933   1.409   3.161   3.540 -0.0206 -0.2067  0.0459
 6125TIP3    H139934   1.321   3.135   3.513 -0.3082  2.2897 -1.8000
 6125TIP3    H239935   1.439   3.218   3.469  1.7281  1.7886  2.2436
 6126TIP3   OH239936   1.087   4.015   1.844 -0.4467  0.3493 -0.0343
 6126TIP3    H139937   1.015   3.953   1.838 -1.2746  1.3498 -0.8460
 6126TIP3    H239938   1.095   4.034   1.937  0.8899 -2.1523  0.4241
 6127TIP3   OH239939   1.544   4.898   3.111  0.3925  0.0258  0.4635
 6127TIP3    H139940   1.524   4.913   3.204  2.6831 -1.2228  1.2538
 6127TIP3    H239941   1.640   4.903   3.107  0.6083 -3.1545 -1.1778
 6128TIP3   OH239942   3.181   1.002   3.964  0.5815  0.5811 -0.1346
 6128TIP3    H139943   3.246   1.069   3.987  0.6103  1.1747 -1.7994
 6128TIP3    H239944   3.230   0.939   3.911  0.3260 -0.2636  0.6122
 6129TIP3   OH239945   3.585   4.389   4.055 -0.6203 -0.1042 -0.2228
 6129TIP3    H139946   3.617   4.444   3.984  0.0417 -0.0641  0.1069
 6129TIP3    H239947   3.539   4.317   4.011  0.3274 -0.4181 -0.7177
 6130TIP3   OH239948   0.890   0.574   8.593  0.6645 -0.0698  0.4355
 6130TIP3    H139949   0.927   0.515   8.659  2.6954  0.6948  0.0299
 6130TIP3    H239950   0.877   0.656   8.640  0.9902  0.1326  0.1678
 6131TIP3   OH239951   2.340   2.260   0.906 -0.4091 -0.4903 -0.1307
 6131TIP3    H139952   2.278   2.227   0.971  0.7622 -0.6211  0.9519
 6131TIP3    H239953   2.333   2.197   0.834 -2.4922  0.2450 -0.6378
 6132TIP3   OH239954   0.605   0.479   0.837  0.0783 -0.4485 -0.4953
 6132TIP3    H139955   0.635   0.568   0.818  0.3769 -0.8039 -1.7971
 6132TIP3    H239956   0.511   0.481   0.821  0.0275 -0.2839 -0.1809
 6133TIP3   OH239957   5.882   2.687   3.604 -0.5144 -0.2517 -0.3991
 6133TIP3    H139958   5.919   2.600   3.617  0.0063  0.1374  0.9213
 6133TIP3    H239959   5.936   2.744   3.658 -2.0504  0.6014  0.2935
 6134TIP3   OH239960   2.298   2.563   0.932 -0.5415  0.6334 -0.1730
 6134TIP3    H139961   2.343   2.602   0.857  0.3230  0.0293  0.0145
 6134TIP3    H239962   2.308   2.468   0.919 -0.3701  0.5254  0.7120
 6135TIP3   OH239963   3.323   2.135   1.070 -0.1098  0.4392 -0.2867
 6135TIP3    H139964   3.408   2.091   1.078 -0.5803 -0.4173  0.0569
 6135TIP3    H239965   3.260   2.064   1.063 -0.7012  1.0703 -1.7234
 6136TIP3   OH239966   2.548   0.132   2.475  0.0420 -0.4445 -0.2683
 6136TIP3    H139967   2.490   0.166   2.543  1.5055  0.2652  0.6607
 6136TIP3    H239968   2.548   0.201   2.408 -0.7601 -0.7877 -0.6399
 6137TIP3   OH239969   5.344   2.091   1.111  0.2421 -0.0418 -0.0669
 6137TIP3    H139970   5.335   2.109   1.205  1.7596 -0.9165  0.2935
 6137TIP3    H239971   5.368   2.175   1.073  2.3439 -0.1680  0.8034
 6138TIP3   OH239972   4.801   5.517   3.101  0.4859  0.7179 -0.0721
 6138TIP3    H139973   4.861   5.494   3.030  1.4075  0.5349  0.7512
 6138TIP3    H239974   4.790   5.612   3.092  2.8524  1.2046  1.1929
 6139TIP3   OH239975   4.390   2.875   0.476 -0.4228 -0.0292  0.8535
 6139TIP3    H139976   4.469   2.830   0.448 -1.4580 -0.2284 -2.0455
 6139TIP3    H239977   4.415   2.918   0.558  2.4235 -0.7282  0.4561
 6140TIP3   OH239978   0.948   2.486   1.167  0.2317 -0.1927  0.2423
 6140TIP3    H139979   0.855   2.475   1.148  0.5346  0.3459 -1.7691
 6140TIP3    H239980   0.977   2.400   1.197 -0.5931 -0.7979 -0.6382
 6141TIP3   OH239981   4.275   2.716   3.357  0.0806 -0.0506  0.5863
 6141TIP3    H139982   4.267   2.659   3.280  2.1375 -0.7627  0.8193
 6141TIP3    H239983   4.311   2.659   3.425  1.1124  1.2427  1.1751
 6142TIP3   OH239984   1.437   3.999   1.140 -0.6362 -0.3468  0.1116
 6142TIP3    H139985   1.492   4.002   1.218 -0.6147  1.2548  0.0651
 6142TIP3    H239986   1.373   3.930   1.158 -0.2009 -0.4644  1.2504
 6143TIP3   OH239987   0.333   0.477   4.143 -0.2375 -0.5057  1.0028
 6143TIP3    H139988   0.408   0.471   4.084 -1.1641  0.1310 -0.3145
 6143TIP3    H239989   0.359   0.542   4.208 -0.5251  1.7708 -0.9626
 6144TIP3   OH239990   3.583   1.974   0.404 -0.3338  0.1227 -0.1957
 6144TIP3    H139991   3.662   1.922   0.385 -0.3161  0.2181 -0.3796
 6144TIP3    H239992   3.511   1.913   0.390 -0.3001  0.0687 -0.1408
 6145TIP3   OH239993   6.589   0.788   4.265  0.2165  0.1883  0.1361
 6145TIP3    H139994   6.650   0.862   4.257 -0.1794  0.7691  1.9617
 6145TIP3    H239995   6.624   0.738   4.339 -1.5020  0.5549  1.2512
 6146TIP3   OH239996   0.805   4.617   4.943  0.4416 -0.4161  0.0805
 6146TIP3    H139997   0.889   4.624   4.898  1.6307 -1.9425  1.8847
 6146TIP3    H239998   0.752   4.688   4.906  1.7526 -0.7033 -2.6447
 6147TIP3   OH239999   2.715   0.643   3.775  0.2868 -0.3801 -0.0962
 6147TIP3    H140000   2.634   0.654   3.825  0.9216 -1.8332  1.3774
 6147TIP3    H240001   2.768   0.584   3.829  1.9414 -0.2380 -1.4761
 6148TIP3   OH240002   4.390   3.981   2.238  0.1983 -0.0239  0.4818
 6148TIP3    H140003   4.447   4.043   2.193 -1.0489 -1.2519 -3.1248
 6148TIP3    H240004   4.313   4.032   2.263  0.5231  0.5161  0.3833
 6149TIP3   OH240005   3.755   0.489   3.454  0.0934  0.0456  0.2584
 6149TIP3    H140006   3.679   0.466   3.401 -0.1983  1.7773 -0.1455
 6149TIP3    H240007   3.722   0.556   3.514  0.9049 -0.4282  1.2610
 6150TIP3   OH240008   2.143   1.717   3.179  0.2819 -0.0064  0.0650
 6150TIP3    H140009   2.175   1.693   3.266  1.6304 -0.2012 -0.4597
 6150TIP3    H240010   2.185   1.800   3.160 -0.0422  0.0577 -0.3810
 6151TIP3   OH240011   6.760   5.687   4.595 -0.3260 -0.4291  0.2320
 6151TIP3    H140012   6.730   5.726   4.677 -0.6513 -0.4525  0.1235
 6151TIP3    H240013   6.717   5.602   4.591  0.9250 -1.1200  0.8103
 6152TIP3   OH240014   2.419   0.634   8.440 -0.1669  0.3014  0.3898
 6152TIP3    H140015   2.458   0.652   8.526  0.4595 -0.7477  0.3353
 6152TIP3    H240016   2.347   0.697   8.434 -0.5749  0.0429  1.9296
 6153TIP3   OH240017   4.413   2.516   0.822  0.4041  0.5268  0.0107
 6153TIP3    H140018   4.371   2.436   0.854  0.0886  0.5645 -0.2921
 6153TIP3    H240019   4.341   2.567   0.784  0.8707  0.0451 -1.6375
 6154TIP3   OH240020   2.638   6.108   0.702 -0.0870  0.0050  0.5169
 6154TIP3    H140021   2.688   6.165   0.644 -0.3467  1.3854  1.6164
 6154TIP3    H240022   2.548   6.116   0.673 -0.0992  0.0079  0.5554
 6155TIP3   OH240023   5.230   4.119   0.036  0.4974 -0.0226 -0.1972
 6155TIP3    H140024   5.249   4.150   0.124  0.4023  0.0135 -0.1899
 6155TIP3    H240025   5.271   4.183  -0.022 -0.6079  0.6994 -0.1969
 6156TIP3   OH240026   3.936   3.497   1.752  0.4354  0.2221  0.2643
 6156TIP3    H140027   3.917   3.479   1.660 -0.1506  3.8055 -0.4689
 6156TIP3    H240028   4.030   3.481   1.762  0.6349  0.4157 -1.1548
 6157TIP3   OH240029   3.572   5.242   2.853  0.0142  0.6855  0.1176
 6157TIP3    H140030   3.509   5.172   2.835  1.0905 -0.6049  1.1163
 6157TIP3    H240031   3.541   5.316   2.802 -2.2361  0.0721  0.4998
 6158TIP3   OH240032   2.728   0.241   2.735 -0.4549  0.8493  0.6888
 6158TIP3    H140033   2.768   0.180   2.672  1.1399  1.8870  0.6314
 6158TIP3    H240034   2.736   0.197   2.819  2.1123  1.5193  0.8927
 6159TIP3   OH240035   4.353   3.958   0.908 -0.0041  0.0450  0.3980
 6159TIP3    H140036   4.283   4.016   0.881 -1.0454  0.0121  2.8104
 6159TIP3    H240037   4.375   3.908   0.829 -0.6794  2.0461 -1.1141
 6160TIP3   OH240038   3.007   6.001   1.696  0.1257  0.4490  0.5190
 6160TIP3    H140039   2.949   5.985   1.622 -0.8200  1.0027  1.1231
 6160TIP3    H240040   2.986   5.933   1.759  1.1302 -0.1957  0.1837
 6161TIP3   OH240041   3.043   2.600   1.476  0.2158  0.0462 -0.2233
 6161TIP3    H140042   3.020   2.564   1.391  1.3043 -0.3086 -0.3748
 6161TIP3    H240043   3.130   2.637   1.465  0.8543 -0.9967  1.0095
 6162TIP3   OH240044   5.466   4.388   1.447 -0.0823  0.4298  0.0252
 6162TIP3    H140045   5.500   4.330   1.514 -1.7249 -1.6679 -0.8464
 6162TIP3    H240046   5.500   4.475   1.470  1.3231 -0.6259  2.1574
 6163TIP3   OH240047   0.351   5.199   3.194  0.2501  0.1454 -0.9499
 6163TIP3    H140048   0.381   5.108   3.194  2.6584  0.8221  1.1165
 6163TIP3    H240049   0.285   5.203   3.263  0.6486  0.0917 -0.5621
 6164TIP3   OH240050   1.358   4.027   4.482  0.2865 -0.5908 -0.4503
 6164TIP3    H140051   1.446   4.005   4.514  0.9510  1.5584 -0.6373
 6164TIP3    H240052   1.371   4.055   4.392 -0.6020 -0.3150 -0.5026
 6165TIP3   OH240053   4.572   1.826   0.554 -1.0366  0.0744  0.1290
 6165TIP3    H140054   4.642   1.875   0.513 -0.3750  0.4628  1.6485
 6165TIP3    H240055   4.522   1.788   0.481  1.5100 -1.3470 -0.9926
 6166TIP3   OH240056   4.746   5.385   2.247 -0.3720 -0.1585 -0.2794
 6166TIP3    H140057   4.709   5.425   2.168 -0.3622  1.0854  0.3212
 6166TIP3    H240058   4.783   5.458   2.296 -1.2733 -0.7498  1.3772
 6167TIP3   OH240059   5.171   6.049   3.168 -0.0457 -0.1956 -0.1696
 6167TIP3    H140060   5.114   6.120   3.139  0.6855  0.3135 -0.3868
 6167TIP3    H240061   5.163   6.050   3.264 -1.0382 -0.6768 -0.2346
 6168TIP3   OH240062   6.495   6.775   2.611 -0.6679  1.3936  0.6394
 6168TIP3    H140063   6.567   6.767   2.549 -0.3064  0.9065  1.1077
 6168TIP3    H240064   6.533   6.747   2.695 -1.5826  0.4843  0.7636
 6169TIP3   OH240065   1.344   3.909   1.473 -0.0671 -0.5316  0.2024
 6169TIP3    H140066   1.338   3.994   1.517  1.0972 -0.4032  0.1574
 6169TIP3    H240067   1.253   3.881   1.462 -0.4884  0.8743 -0.1104
 6170TIP3   OH240068   3.852   3.867   0.543  1.1454  0.5585  0.2676
 6170TIP3    H140069   3.900   3.929   0.487  1.9868 -0.0952  0.2464
 6170TIP3    H240070   3.799   3.816   0.482  2.4042 -0.4585 -0.0099
 6171TIP3   OH240071   1.025   6.344   1.504  0.2111 -0.3688  0.3552
 6171TIP3    H140072   1.021   6.251   1.526  1.9696 -0.7951 -0.8863
 6171TIP3    H240073   1.095   6.378   1.561  1.1016 -0.3151 -0.7480
 6172TIP3   OH240074   4.565   6.103   4.639 -0.0113 -0.0231  0.4938
 6172TIP3    H140075   4.628   6.072   4.703  0.3980 -0.8193 -0.2747
 6172TIP3    H240076   4.517   6.172   4.684  1.6200  0.8305  0.9829
 6173TIP3   OH240077   1.069   5.099   2.654 -0.2924  0.3217  0.0835
 6173TIP3    H140078   1.118   5.179   2.631 -1.4773  0.5458 -1.8868
 6173TIP3    H240079   1.117   5.029   2.610 -0.2108  0.1593  0.4267
 6174TIP3   OH240080   1.214   1.742   2.079 -0.3520 -0.3596  0.3846
 6174TIP3    H140081   1.165   1.753   2.160 -2.9225 -2.7960 -0.6690
 6174TIP3    H240082   1.195   1.822   2.028  0.7163  0.8589  1.8190
 6175TIP3   OH240083   1.434   3.431   1.439 -0.3210 -0.6127  0.8786
 6175TIP3    H140084   1.508   3.448   1.497  0.1684  1.2929 -0.1999
 6175TIP3    H240085   1.367   3.493   1.467 -0.3159 -0.1235 -0.1518
 6176TIP3   OH240086   1.420   4.064   2.709 -0.1154  0.7216 -0.7035
 6176TIP3    H140087   1.506   4.085   2.672 -0.2780 -0.7196 -1.9948
 6176TIP3    H240088   1.438   3.995   2.772 -0.2699  0.7847 -0.5901
 6177TIP3   OH240089   5.595   2.650   3.585 -0.1471  0.0981  0.0346
 6177TIP3    H140090   5.673   2.700   3.610 -0.5805  0.0940  1.4471
 6177TIP3    H240091   5.524   2.688   3.637 -0.6101 -1.5432  0.6589
 6178TIP3   OH240092   6.176   3.047   2.555 -0.1545  0.3194 -0.2453
 6178TIP3    H140093   6.125   2.976   2.592 -0.1261 -0.8171 -2.2264
 6178TIP3    H240094   6.261   3.042   2.599 -0.3324 -0.5575  0.0069
 6179TIP3   OH240095   2.008   3.290   1.757  0.0905 -0.4310  0.3941
 6179TIP3    H140096   2.078   3.297   1.823 -0.5401  0.7790  0.9809
 6179TIP3    H240097   2.021   3.365   1.700 -1.1254  0.2520  0.9502
 6180TIP3   OH240098   3.521   1.688   3.074  0.4626  0.4067 -0.4647
 6180TIP3    H140099   3.588   1.635   3.032  2.1733  2.8115 -0.9550
 6180TIP3    H240100   3.561   1.720   3.154 -1.0898 -0.2370  0.6269
 6181TIP3   OH240101   1.748   1.269   1.517 -0.6716  0.4176 -0.6751
 6181TIP3    H140102   1.792   1.201   1.467 -1.2316 -2.3996  2.3683
 6181TIP3    H240103   1.813   1.340   1.523  0.6394 -0.5661 -2.3782
 6182TIP3   OH240104   0.044   3.912   8.746 -0.1601  0.0541 -0.1898
 6182TIP3    H140105   0.095   3.944   8.820  0.0885  0.8217 -0.6834
 6182TIP3    H240106   0.105   3.913   8.672  0.3236 -2.9499  0.0192
 6183TIP3   OH240107   2.471   5.237   2.754  0.8197  0.0201 -0.3613
 6183TIP3    H140108   2.512   5.324   2.760 -0.0004  0.3444  0.6885
 6183TIP3    H240109   2.379   5.255   2.739  0.5357 -0.6527  0.5057
 6184TIP3   OH240110   0.840   6.119   1.852 -0.2956 -0.5825 -0.4637
 6184TIP3    H140111   0.866   6.091   1.764  0.9701 -2.5462  0.4605
 6184TIP3    H240112   0.882   6.204   1.864 -1.6142  0.3763 -2.2193
 6185TIP3   OH240113   5.339   5.264   3.660  0.1660  0.3014  0.0286
 6185TIP3    H140114   5.357   5.191   3.600  0.7356  0.4712 -0.0108
 6185TIP3    H240115   5.364   5.231   3.746  1.6549  0.8575 -0.1470
 6186TIP3   OH240116   3.055   6.623   0.282 -0.6268  0.3258  0.1955
 6186TIP3    H140117   3.127   6.686   0.284 -0.9263  0.6575  0.5820
 6186TIP3    H240118   3.076   6.565   0.209 -1.0228  1.6778 -1.0518
 6187TIP3   OH240119   2.361   3.846   1.849 -0.1832 -0.0400  0.1808
 6187TIP3    H140120   2.445   3.850   1.896  0.6091 -1.2962 -1.0299
 6187TIP3    H240121   2.381   3.799   1.768 -2.4780 -2.4003  0.8305
 6188TIP3   OH240122   5.410   1.800   2.334 -0.0421  0.1360 -0.1107
 6188TIP3    H140123   5.315   1.791   2.338  0.1219 -2.3879  0.0308
 6188TIP3    H240124   5.439   1.719   2.293  2.0672  0.8414 -0.1062
 6189TIP3   OH240125   4.999   3.868   2.886  0.1253 -0.2381  0.1012
 6189TIP3    H140126   4.913   3.845   2.922  0.7591 -0.0822  1.8064
 6189TIP3    H240127   5.018   3.797   2.824 -1.3567 -0.1035 -0.5469
 6190TIP3   OH240128   3.252   2.674   2.001  0.0169  0.8196 -0.0464
 6190TIP3    H140129   3.247   2.641   1.912  1.3525  0.0116  0.1530
 6190TIP3    H240130   3.326   2.627   2.040 -1.7830 -0.3952  2.1289
 6191TIP3   OH240131   2.130   0.004   4.601 -0.0723 -0.1831 -0.0923
 6191TIP3    H140132   2.161   0.092   4.580 -0.3793  0.0113  0.2591
 6191TIP3    H240133   2.206  -0.040   4.636 -0.1209  0.2070  0.5136
 6192TIP3   OH240134   1.537   2.049   1.824 -0.1648 -0.4600 -0.1479
 6192TIP3    H140135   1.507   1.978   1.881 -0.4485 -0.8110 -0.7315
 6192TIP3    H240136   1.534   2.126   1.880  1.0422 -1.0483  0.7726
 6193TIP3   OH240137   5.988   0.517   0.235  0.1310  0.6944  0.0152
 6193TIP3    H140138   5.919   0.569   0.193 -0.8022 -0.5231 -0.0019
 6193TIP3    H240139   6.069   0.558   0.207 -0.5376  1.2744 -1.1526
 6194TIP3   OH240140   4.974   3.226   3.260  0.1776 -0.3332  0.5552
 6194TIP3    H140141   4.929   3.287   3.318  2.4457 -0.5543  2.6675
 6194TIP3    H240142   4.909   3.158   3.243 -0.6906 -0.0680  2.5323
 6195TIP3   OH240143   2.777   0.512   2.893 -0.5172 -0.0073 -0.2137
 6195TIP3    H140144   2.681   0.518   2.895 -0.5813 -0.3819 -1.2279
 6195TIP3    H240145   2.797   0.429   2.935 -0.5726  0.4358  0.7181
 6196TIP3   OH240146   2.047   3.535   2.688 -0.5331 -0.8407 -0.0094
 6196TIP3    H140147   2.047   3.444   2.658  0.9403 -1.6290  2.1228
 6196TIP3    H240148   1.954   3.557   2.698 -0.9015 -2.3066  0.0046
 6197TIP3   OH240149   3.795   1.264   3.990  0.5776 -0.0986 -0.4975
 6197TIP3    H140150   3.784   1.169   3.987 -2.0926  0.1033  0.2511
 6197TIP3    H240151   3.773   1.287   4.081  4.3380  1.0023  0.2927
 6198TIP3   OH240152   0.000   3.773   1.654 -0.1893 -0.4677 -0.1977
 6198TIP3    H140153  -0.071   3.833   1.631  1.2428  0.3311 -3.0823
 6198TIP3    H240154   0.072   3.831   1.680 -0.2467 -1.2107  1.7241
 6199TIP3   OH240155   6.734   6.222   1.116 -0.3618 -0.1301 -0.0313
 6199TIP3    H140156   6.643   6.217   1.087 -0.2116 -1.3040 -0.3596
 6199TIP3    H240157   6.734   6.176   1.200  0.0648 -0.8570 -0.4163
 6200TIP3   OH240158   0.271   2.546   2.439  0.1479  0.4576 -0.0318
 6200TIP3    H140159   0.366   2.538   2.442  0.0593 -0.5535  0.5069
 6200TIP3    H240160   0.239   2.456   2.439 -0.8814  0.7347  2.7638
 6201TIP3   OH240161   1.084   2.190   0.445  0.3759  0.1652 -0.2082
 6201TIP3    H140162   1.039   2.133   0.383 -1.7471  1.8189 -0.2884
 6201TIP3    H240163   1.024   2.198   0.518  1.0433  1.5420  0.2260
 6202TIP3   OH240164   4.396   1.276   3.071  0.1220  0.4875 -0.6779
 6202TIP3    H140165   4.487   1.297   3.051  0.7321 -1.4436 -0.1563
 6202TIP3    H240166   4.378   1.197   3.020 -0.6180 -0.2537  0.6614
 6203TIP3   OH240167   4.229   6.036   2.757 -0.2230 -0.5472  0.1374
 6203TIP3    H140168   4.240   6.117   2.706  1.8188 -1.0745 -0.3549
 6203TIP3    H240169   4.199   6.066   2.843 -0.9934  0.5941 -0.4998
 6204TIP3   OH240170   1.632   3.560   4.389  0.2453 -0.2503 -0.3363
 6204TIP3    H140171   1.680   3.596   4.464  0.4789 -1.7432  0.2571
 6204TIP3    H240172   1.669   3.473   4.376 -1.2039 -0.8152 -0.8931
 6205TIP3   OH240173   4.443   1.037   1.409 -0.5009 -0.2232 -0.0813
 6205TIP3    H140174   4.384   0.987   1.464 -0.1575  0.0821  0.5754
 6205TIP3    H240175   4.525   0.987   1.410 -0.2250  0.2291  0.4007
 6206TIP3   OH240176   6.131   3.947   0.778  0.0711 -0.0579  0.5183
 6206TIP3    H140177   6.120   3.867   0.829  0.3397 -1.3277 -1.3204
 6206TIP3    H240178   6.056   3.947   0.717  0.6288  0.5426 -0.1890
 6207TIP3   OH240179   4.245   2.298   1.187  0.0948  0.2922 -0.4099
 6207TIP3    H140180   4.163   2.345   1.171 -1.0562 -1.3423  0.3356
 6207TIP3    H240181   4.308   2.365   1.212 -1.7268  1.3417  1.6071
 6208TIP3   OH240182   4.340   6.783   2.183  0.4567  0.1784  0.2042
 6208TIP3    H140183   4.408   6.754   2.121  0.9370  1.0485  0.3155
 6208TIP3    H240184   4.389   6.820   2.256 -0.1207  2.3731 -0.4589
 6209TIP3   OH240185   0.229   1.982   4.215  0.1500  0.1888  0.5217
 6209TIP3    H140186   0.166   2.009   4.281 -2.2584 -0.1581 -1.4800
 6209TIP3    H240187   0.240   2.060   4.160  1.0449  0.0606  0.5063
 6210TIP3   OH240188   3.847   6.513   1.336  0.3969 -0.3304 -0.0006
 6210TIP3    H140189   3.840   6.432   1.387  1.1316 -0.6337 -0.3681
 6210TIP3    H240190   3.901   6.489   1.261 -1.0913 -0.0308 -1.2242
 6211TIP3   OH240191   1.006   2.554   0.274  0.0141  0.2599  0.4311
 6211TIP3    H140192   0.969   2.530   0.359  0.0319  0.2609  0.4392
 6211TIP3    H240193   1.050   2.474   0.244 -3.2089 -1.0193 -1.3605
 6212TIP3   OH240194   2.483   2.143   2.739  0.1295 -0.1255  0.0035
 6212TIP3    H140195   2.510   2.209   2.674  1.2618 -0.8416 -0.2841
 6212TIP3    H240196   2.438   2.194   2.807 -2.6815  0.4720 -2.1044
 6213TIP3   OH240197   1.328   4.546   2.927 -0.0840 -0.0246 -0.2324
 6213TIP3    H140198   1.244   4.522   2.888  0.2690 -1.9784  0.1055
 6213TIP3    H240199   1.350   4.631   2.888 -0.9276 -0.7263 -2.3438
 6214TIP3   OH240200   3.924   4.587   2.888  0.5862  0.3229 -0.0356
 6214TIP3    H140201   3.913   4.534   2.967  0.0104 -0.3697 -0.5760
 6214TIP3    H240202   3.980   4.659   2.916  1.2409 -0.4687  0.7608
 6215TIP3   OH240203   0.746   2.393   8.862 -0.1165  0.2368 -0.3496
 6215TIP3    H140204   0.700   2.399   8.946  1.5686  0.3224  0.6335
 6215TIP3    H240205   0.808   2.467   8.864 -1.6940  1.7542 -2.7818
 6216TIP3   OH240206   1.299   2.471   0.716  0.1471  0.0491 -0.1073
 6216TIP3    H140207   1.332   2.439   0.632  1.8063  1.6009 -0.0988
 6216TIP3    H240208   1.218   2.421   0.730 -0.4769  0.1171 -2.8628
 6217TIP3   OH240209   3.184   3.553   2.882 -0.2574  0.3236 -0.7389
 6217TIP3    H140210   3.272   3.528   2.854  0.7403 -1.0634  2.9559
 6217TIP3    H240211   3.141   3.470   2.904 -1.1250  1.1488  0.9014
 6218TIP3   OH240212   4.655   5.393   4.544  0.1765 -0.2496 -0.6303
 6218TIP3    H140213   4.663   5.470   4.601 -0.9481 -0.6527  0.1141
 6218TIP3    H240214   4.639   5.321   4.605  0.6972 -0.9915 -1.3575
 6219TIP3   OH240215   0.525   5.349   3.361 -0.1523  0.0150  0.3299
 6219TIP3    H140216   0.461   5.321   3.296 -1.1853  0.0102  1.3113
 6219TIP3    H240217   0.584   5.274   3.369 -0.7876 -0.5004  0.3328
 6220TIP3   OH240218   0.959   3.950   2.303 -0.1834 -0.3219 -0.4179
 6220TIP3    H140219   0.982   4.030   2.257 -0.6805 -0.8607 -1.6385
 6220TIP3    H240220   1.035   3.930   2.357 -0.3487  1.3852  0.5198
 6221TIP3   OH240221   4.860   0.481   2.690  0.4530 -0.0191 -0.0831
 6221TIP3    H140222   4.946   0.524   2.698 -0.2864  1.8652 -1.5741
 6221TIP3    H240223   4.842   0.481   2.596 -0.1755 -2.5335 -0.0177
 6222TIP3   OH240224   3.621   0.313   3.807 -0.2975 -0.0148 -0.2520
 6222TIP3    H140225   3.540   0.318   3.857 -0.1451  2.1139 -0.1221
 6222TIP3    H240226   3.690   0.326   3.872 -0.0886  2.4946 -0.8801
 6223TIP3   OH240227   5.717   4.572   3.265  0.3791 -0.1623 -0.0103
 6223TIP3    H140228   5.808   4.590   3.239 -0.1239 -1.6685 -3.2912
 6223TIP3    H240229   5.676   4.658   3.269  1.0426  0.3634 -2.5620
 6224TIP3   OH240230   2.327   4.936   2.272  0.1137  0.1821 -0.0437
 6224TIP3    H140231   2.329   4.841   2.279 -3.4359  0.0600  1.8142
 6224TIP3    H240232   2.351   4.967   2.360 -0.9122  0.8696  0.0112
 6225TIP3   OH240233   1.145   3.588   2.649 -0.1548 -0.2126  0.0117
 6225TIP3    H140234   1.188   3.504   2.666  0.3996 -0.0632 -0.6303
 6225TIP3    H240235   1.202   3.653   2.690 -0.1259 -0.0736 -0.2488
 6226TIP3   OH240236   4.939   6.317   2.968 -0.3831  0.0099 -0.2606
 6226TIP3    H140237   4.899   6.311   2.881 -1.5605  1.8866  0.1219
 6226TIP3    H240238   4.877   6.274   3.026 -0.0150 -0.4455 -0.1939
 6227TIP3   OH240239   1.817   5.443   4.314 -0.0307  0.1504 -0.1876
 6227TIP3    H140240   1.894   5.388   4.322  0.7156  1.0426 -1.0535
 6227TIP3    H240241   1.757   5.393   4.258  0.8553  0.4328 -1.4207
 6228TIP3   OH240242   0.572   6.748   1.034  0.3040  0.5879 -0.1228
 6228TIP3    H140243   0.486   6.705   1.036  0.7347 -0.3398 -0.8753
 6228TIP3    H240244   0.552   6.839   1.009 -0.3849  0.1508 -1.2692
 6229TIP3   OH240245   4.604   2.102   2.157  0.1605 -0.0013  0.0783
 6229TIP3    H140246   4.597   2.109   2.252  2.0666 -1.5282  0.3933
 6229TIP3    H240247   4.530   2.048   2.132  0.0310 -0.1793  0.8062
 6230TIP3   OH240248   4.095   6.241   3.002 -0.0669  0.9450  0.0060
 6230TIP3    H140249   4.155   6.227   3.075  1.2496 -2.0940 -1.4739
 6230TIP3    H240250   4.140   6.303   2.945  1.7264 -1.1741 -1.0075
 6231TIP3   OH240251   2.297   5.789   2.646  0.0379 -0.1203  0.2046
 6231TIP3    H140252   2.386   5.773   2.616 -0.1249  0.2452 -0.5010
 6231TIP3    H240253   2.247   5.713   2.617  0.5718 -1.5739  2.7783
 6232TIP3   OH240254   5.736   2.049   0.081 -0.3338  0.3803 -0.5018
 6232TIP3    H140255   5.674   2.117   0.055  0.3672  1.6577  1.0192
 6232TIP3    H240256   5.822   2.086   0.059  0.0162 -0.4544 -0.5891
 6233TIP3   OH240257   0.073   5.922   3.911  0.1672 -0.5960 -0.2067
 6233TIP3    H140258   0.020   5.846   3.937  0.2801 -0.7064 -0.2945
 6233TIP3    H240259   0.129   5.940   3.986  1.1948 -1.5324 -0.7202
 6234TIP3   OH240260   1.412   1.172   2.425 -0.6343 -0.3336  0.0017
 6234TIP3    H140261   1.331   1.216   2.452 -1.3734 -2.1143  0.9355
 6234TIP3    H240262   1.382   1.092   2.383  0.6097 -1.5194  1.2536
 6235TIP3   OH240263   1.130   6.095   0.937 -0.8097 -0.2053 -0.8855
 6235TIP3    H140264   1.211   6.143   0.919 -0.5659  0.8832  2.4123
 6235TIP3    H240265   1.067   6.163   0.960 -1.8258 -1.2147 -0.5971
 6236TIP3   OH240266   2.024   2.219   0.152 -0.3429 -0.5218 -0.2684
 6236TIP3    H140267   2.097   2.281   0.149  1.6196 -2.6743  0.2651
 6236TIP3    H240268   1.991   2.226   0.242  1.9451 -2.3935  0.8077
 6237TIP3   OH240269   6.202   3.318   2.791 -0.1957 -0.7894  0.0599
 6237TIP3    H140270   6.251   3.341   2.712 -0.5734  0.6047  0.2054
 6237TIP3    H240271   6.110   3.319   2.764 -0.4098  0.8402  0.7529
 6238TIP3   OH240272   3.123   4.062   3.714 -0.4843  0.3739  0.2265
 6238TIP3    H140273   3.155   4.141   3.757 -1.0631 -0.8351  3.1873
 6238TIP3    H240274   3.162   4.064   3.627  0.8958  3.0155  0.7908
 6239TIP3   OH240275   4.070   3.581   3.894  0.1270  0.0914  0.1150
 6239TIP3    H140276   3.991   3.555   3.847  0.0406  0.7615 -0.1174
 6239TIP3    H240277   4.094   3.503   3.944  0.1753 -0.6101 -0.9591
 6240TIP3   OH240278   2.109   5.405   1.459 -0.7027  0.1245  0.0403
 6240TIP3    H140279   2.177   5.371   1.400  2.2334  2.2944  1.9228
 6240TIP3    H240280   2.076   5.483   1.415 -1.2452 -0.3208 -0.3666
 6241TIP3   OH240281   3.367   2.818   1.701 -0.1742  0.7894  0.0334
 6241TIP3    H140282   3.367   2.910   1.673  1.0132  0.1928 -2.1946
 6241TIP3    H240283   3.299   2.814   1.768 -0.2764  3.2862  0.1893
 6242TIP3   OH240284   4.298   3.329   1.380 -0.2294  0.8671 -0.1253
 6242TIP3    H140285   4.221   3.273   1.384 -0.0843  0.7387  1.9799
 6242TIP3    H240286   4.355   3.296   1.450  1.8797  0.7761 -1.7805
 6243TIP3   OH240287   0.801   2.322   2.783 -0.4417  0.3508  0.1675
 6243TIP3    H140288   0.759   2.401   2.816 -0.9582  1.3750 -2.6442
 6243TIP3    H240289   0.870   2.354   2.725  0.3149 -1.2952  0.1053
 6244TIP3   OH240290   2.149   2.919   1.797  0.0624 -0.6266  0.0405
 6244TIP3    H140291   2.070   2.952   1.839 -0.1397 -1.0861  0.0254
 6244TIP3    H240292   2.143   2.952   1.707  0.2045 -0.1369  0.2062
 6245TIP3   OH240293   2.597   0.256   1.683  0.7688  0.0312  0.6577
 6245TIP3    H140294   2.582   0.344   1.648  1.4068 -0.6986 -1.6665
 6245TIP3    H240295   2.688   0.257   1.711  1.4968 -0.4605 -1.4885
 6246TIP3   OH240296   6.783   3.472   3.796  0.5089 -0.1193 -0.2166
 6246TIP3    H140297   6.724   3.474   3.721 -0.0062  1.0490  0.1971
 6246TIP3    H240298   6.796   3.564   3.819  0.5497 -0.4618  1.2211
 6247TIP3   OH240299   5.583   1.664   3.575  0.4257  0.3843 -0.1630
 6247TIP3    H140300   5.659   1.717   3.550  1.5150 -0.6401  0.8326
 6247TIP3    H240301   5.533   1.721   3.634  1.1980  0.5879  0.3190
 6248TIP3   OH240302   4.016   5.527   3.184 -0.2705  0.1206 -0.2154
 6248TIP3    H140303   4.082   5.505   3.118 -0.5299 -1.9480  0.1569
 6248TIP3    H240304   4.044   5.612   3.217  2.5738 -0.9185  0.3481
 6249TIP3   OH240305   3.306   0.835   1.183 -0.3191 -0.1674  0.0505
 6249TIP3    H140306   3.379   0.829   1.121  0.8024  0.8178  1.1959
 6249TIP3    H240307   3.343   0.883   1.257 -2.5440  1.6355  0.0926
 6250TIP3   OH240308   2.346   0.424   0.114  0.4557  0.0045 -0.3627
 6250TIP3    H140309   2.318   0.509   0.147  1.1021  0.4191 -0.8642
 6250TIP3    H240310   2.275   0.364   0.139  1.0009  0.2243  1.9660
 6251TIP3   OH240311   1.146   3.773   3.930  0.3411  0.4936 -0.1324
 6251TIP3    H140312   1.200   3.731   3.998  0.5364 -1.3529 -1.3631
 6251TIP3    H240313   1.062   3.790   3.974 -0.0679 -2.0575  0.2383
 6252TIP3   OH240314   4.563   4.923   1.230 -0.0412 -0.3690  0.0069
 6252TIP3    H140315   4.517   4.979   1.166  1.0989 -0.6647 -1.1043
 6252TIP3    H240316   4.540   4.961   1.314  1.3042  2.3381 -0.7212
 6253TIP3   OH240317   2.733   0.385   4.186  0.3075 -0.4969 -0.0154
 6253TIP3    H140318   2.638   0.381   4.187  0.1845  0.2994 -2.3028
 6253TIP3    H240319   2.753   0.478   4.197  0.9030 -0.8072  1.7446
 6254TIP3   OH240320   4.495   5.037   1.478  0.2682 -0.1701 -1.1286
 6254TIP3    H140321   4.558   5.015   1.546  1.0434  0.7625 -1.5196
 6254TIP3    H240322   4.441   5.106   1.518 -0.6392 -1.0729 -0.7384
 6255TIP3   OH240323   0.126   4.638   1.318 -0.5242 -0.3564 -0.0613
 6255TIP3    H140324   0.184   4.596   1.382  0.7065  1.2232 -0.0956
 6255TIP3    H240325   0.161   4.726   1.307 -2.8090  0.6052 -0.2578
 6256TIP3   OH240326   3.194   4.344   3.516  0.2751  0.2562  0.1575
 6256TIP3    H140327   3.229   4.269   3.467  0.7568 -0.6345  1.8087
 6256TIP3    H240328   3.248   4.349   3.594 -2.2082 -0.1654  2.0282
 6257TIP3   OH240329   1.761   2.771   1.786 -0.0235  0.0837 -0.2236
 6257TIP3    H140330   1.804   2.857   1.786  0.3737 -0.0791 -1.6406
 6257TIP3    H240331   1.697   2.777   1.714 -0.1117 -0.7413 -0.2206
 6258TIP3   OH240332   3.517   6.321   1.520 -0.4877  0.9532  0.6398
 6258TIP3    H140333   3.459   6.250   1.492 -1.1261  1.3259  1.0003
 6258TIP3    H240334   3.563   6.286   1.596  2.5049 -0.7010 -1.6872
 6259TIP3   OH240335   1.496   5.333   1.563 -0.4192 -0.2890 -0.2404
 6259TIP3    H140336   1.415   5.282   1.568  0.8881 -2.6018 -1.2328
 6259TIP3    H240337   1.475   5.404   1.503 -2.8532  1.6724  2.5805
 6260TIP3   OH240338   4.958   6.794   2.083 -0.3942 -0.8292 -0.4602
 6260TIP3    H140339   4.958   6.871   2.026 -0.0581 -0.7559 -0.3664
 6260TIP3    H240340   5.038   6.804   2.136 -0.8630 -0.7320  0.2442
 6261TIP3   OH240341   3.930   0.376   3.176  0.2085 -0.0419 -0.0383
 6261TIP3    H140342   3.977   0.433   3.237 -1.2655 -0.0885  1.1938
 6261TIP3    H240343   3.843   0.414   3.169 -0.6024 -1.7400  0.2987
 6262TIP3   OH240344   6.145   2.557   0.564  0.8430 -0.0409  0.4048
 6262TIP3    H140345   6.181   2.535   0.649  0.0709  0.1403  0.7913
 6262TIP3    H240346   6.091   2.482   0.540  1.6527 -0.4140 -0.2750
 6263TIP3   OH240347   2.582   6.065   1.480  0.0359  0.3816 -0.3019
 6263TIP3    H140348   2.530   5.985   1.468  0.6505 -0.3756  1.7087
 6263TIP3    H240349   2.620   6.056   1.567 -0.6186  3.3221  0.3915
 6264TIP3   OH240350   2.463   0.905   3.026  0.2748  0.4508 -0.1051
 6264TIP3    H140351   2.389   0.859   2.987 -0.1768  1.6427 -0.6709
 6264TIP3    H240352   2.504   0.952   2.954  1.2451  0.2855  0.3143
 6265TIP3   OH240353   3.753   3.083   3.639  0.0575  0.0631 -0.0466
 6265TIP3    H140354   3.810   3.159   3.636 -0.8223  0.8560  1.7067
 6265TIP3    H240355   3.800   3.015   3.590  1.0760  1.5564 -1.2219
 6266TIP3   OH240356   2.202   5.544   1.138 -0.1014 -0.0502 -0.0585
 6266TIP3    H140357   2.107   5.551   1.130 -0.0975 -0.5556 -0.5871
 6266TIP3    H240358   2.234   5.531   1.049  0.3748 -0.8575  0.2171
 6267TIP3   OH240359   2.850   0.481   3.959  0.0816  0.4518  0.2910
 6267TIP3    H140360   2.817   0.423   4.027  1.1647 -0.4354  0.1042
 6267TIP3    H240361   2.908   0.542   4.005  1.7767 -0.9072  0.0721
 6268TIP3   OH240362   5.982   6.203   3.192 -0.0902  0.0635 -0.0123
 6268TIP3    H140363   5.909   6.188   3.132 -0.4637 -0.9948  0.6866
 6268TIP3    H240364   5.954   6.164   3.274  2.0257 -2.1453 -0.2238
 6269TIP3   OH240365   0.683   6.682   2.370  0.1414  0.1254 -0.1523
 6269TIP3    H140366   0.739   6.606   2.356 -1.0508 -1.1418  1.5195
 6269TIP3    H240367   0.595   6.651   2.345 -0.7180  0.1933  2.4245
 6270TIP3   OH240368   5.228   4.365   1.283 -0.6620 -0.0357 -0.1785
 6270TIP3    H140369   5.139   4.335   1.303  0.1049 -1.6869  1.0041
 6270TIP3    H240370   5.279   4.342   1.360  1.0375 -0.1360 -1.2760
 6271TIP3   OH240371   0.107   0.579   4.084  0.3073 -0.1571 -0.6297
 6271TIP3    H140372   0.193   0.537   4.093  0.2927 -1.0877 -3.7216
 6271TIP3    H240373   0.065   0.564   4.168  2.3463 -1.6101  0.2290
 6272TIP3   OH240374   1.632   2.472   2.913 -0.9667 -0.0393 -0.0913
 6272TIP3    H140375   1.718   2.445   2.881  0.1482  1.1638  1.7077
 6272TIP3    H240376   1.598   2.394   2.958  1.0185  0.5377  2.6787
 6273TIP3   OH240377   6.554   5.439   2.811 -0.6589 -0.0188 -0.0350
 6273TIP3    H140378   6.612   5.479   2.877 -0.7688  1.5953 -0.8698
 6273TIP3    H240379   6.513   5.366   2.857 -1.6930  1.8049  2.1313
 6274TIP3   OH240380   1.889   0.678   2.957  0.0145  0.1913  0.4142
 6274TIP3    H140381   1.973   0.646   2.990  0.2109 -0.0294 -0.2869
 6274TIP3    H240382   1.912   0.751   2.899 -0.4216  1.6217  1.9735
 6275TIP3   OH240383   0.199   3.997   1.581 -0.1796 -0.1268 -0.0776
 6275TIP3    H140384   0.264   3.931   1.559  1.2736  0.5136  1.9617
 6275TIP3    H240385   0.228   4.075   1.534 -1.2558 -0.5882 -1.5820
 6276TIP3   OH240386   5.079   6.163   4.295  0.1989  0.3402 -0.0121
 6276TIP3    H140387   5.103   6.152   4.202  2.0440  0.2336  0.4279
 6276TIP3    H240388   5.061   6.074   4.325 -1.1442  0.4537 -0.4263
 6277TIP3   OH240389   1.130   3.606   0.632  0.3388 -0.0819 -0.1804
 6277TIP3    H140390   1.092   3.520   0.614  1.1841 -0.4216 -0.3982
 6277TIP3    H240391   1.055   3.666   0.634 -0.1245 -0.6028 -1.3419
 6278TIP3   OH240392   2.749   3.128   3.631  0.2824  0.4885 -0.5988
 6278TIP3    H140393   2.683   3.182   3.675 -0.3336 -0.2470 -0.6058
 6278TIP3    H240394   2.809   3.103   3.701  0.4850  1.0486 -0.5672
 6279TIP3   OH240395   3.844   3.707   4.126 -0.3479  0.6691  0.4405
 6279TIP3    H140396   3.787   3.738   4.197  0.2120  0.0563  1.1671
 6279TIP3    H240397   3.864   3.617   4.149 -1.5229 -0.1108 -1.3740
 6280TIP3   OH240398   0.381   1.854   4.605 -0.4112 -0.1137  0.2478
 6280TIP3    H140399   0.441   1.904   4.661 -1.4411  1.3833  0.0937
 6280TIP3    H240400   0.307   1.834   4.663 -0.1933 -1.1417  0.1893
 6281TIP3   OH240401   3.421   0.116   3.358  0.0172 -0.2690 -0.0701
 6281TIP3    H140402   3.445   0.025   3.344  0.5515 -0.3497  1.2278
 6281TIP3    H240403   3.394   0.147   3.272 -1.3057 -1.9731 -0.3347
 6282TIP3   OH240404   2.183   5.585   0.569  0.0665 -0.0597  0.0223
 6282TIP3    H140405   2.275   5.603   0.552  0.2113 -0.0231  0.8190
 6282TIP3    H240406   2.176   5.489   0.563  0.1040 -0.0466 -0.2629
 6283TIP3   OH240407   0.102   5.640   1.772  0.9502  0.2922  0.3104
 6283TIP3    H140408   0.190   5.662   1.803  3.1148 -2.8296 -2.8820
 6283TIP3    H240409   0.084   5.703   1.703  2.0126 -0.7266 -0.9436
 6284TIP3   OH240410   2.662   5.652   3.533 -0.2908 -0.4188  0.2719
 6284TIP3    H140411   2.755   5.648   3.554 -0.1972 -0.4733 -0.1557
 6284TIP3    H240412   2.642   5.568   3.493 -0.2442  0.0510 -0.7632
 6285TIP3   OH240413   3.387   2.289   2.254  0.0104  0.3654  0.4601
 6285TIP3    H140414   3.299   2.315   2.227  0.1894 -0.1134 -0.6626
 6285TIP3    H240415   3.407   2.212   2.200 -0.0261 -1.3813  2.7759
 6286TIP3   OH240416   6.142   2.621   1.711  0.1223 -0.1606 -0.3099
 6286TIP3    H140417   6.152   2.714   1.731  0.2016 -0.2066 -0.1328
 6286TIP3    H240418   6.105   2.619   1.623 -0.6011  0.0461 -0.0116
 6287TIP3   OH240419   1.969   4.342   3.400 -0.5000  0.0296  0.4858
 6287TIP3    H140420   1.945   4.270   3.459  0.2853 -0.1250  0.6325
 6287TIP3    H240421   2.063   4.355   3.415 -0.0230 -0.7304 -1.4828
 6288TIP3   OH240422   2.031   3.431   0.572 -0.0729 -0.1617  0.5397
 6288TIP3    H140423   2.076   3.363   0.621 -1.4819 -0.5701  1.3182
 6288TIP3    H240424   1.989   3.385   0.500 -1.5903 -0.2724  1.4507
 6289TIP3   OH240425   4.132   0.790   0.367 -0.2734  0.4935 -0.1013
 6289TIP3    H140426   4.120   0.696   0.379  0.3972  0.3605 -0.4316
 6289TIP3    H240427   4.192   0.798   0.293  0.0593  1.1620  0.2258
 6290TIP3   OH240428   4.760   4.534   3.371 -0.2317  0.2585  0.3069
 6290TIP3    H140429   4.834   4.484   3.404 -0.3223 -0.3607 -0.4177
 6290TIP3    H240430   4.746   4.602   3.437  1.7395  1.1441 -0.1307
 6291TIP3   OH240431   0.673   2.736   1.869 -0.1277 -0.1312  0.4852
 6291TIP3    H140432   0.584   2.727   1.903 -0.7075 -1.5287 -1.2860
 6291TIP3    H240433   0.674   2.822   1.827 -1.2294 -0.8289 -1.0364
 6292TIP3   OH240434   4.827   3.368   3.420 -0.2403  0.2838 -0.0650
 6292TIP3    H140435   4.733   3.381   3.426 -0.6873 -2.6303  1.1718
 6292TIP3    H240436   4.864   3.415   3.495 -0.7844  0.7327 -0.0770
 6293TIP3   OH240437   3.501   3.585   2.257  0.2111 -0.1779 -0.2627
 6293TIP3    H140438   3.409   3.603   2.235  0.3337 -0.0423 -0.6754
 6293TIP3    H240439   3.538   3.547   2.178  1.3063  2.6213 -1.2193
 6294TIP3   OH240440   0.100   4.777   1.943  0.2128  0.9025  1.0712
 6294TIP3    H140441   0.140   4.694   1.920  0.4262  1.3838 -0.3847
 6294TIP3    H240442   0.130   4.794   2.033 -0.1838 -0.7644  1.5614
 6295TIP3   OH240443   3.225   2.340   4.540  0.1916 -0.1033 -0.5097
 6295TIP3    H140444   3.310   2.357   4.581 -0.4490  1.3303  0.2806
 6295TIP3    H240445   3.227   2.392   4.460 -0.9314  2.1776  0.8425
 6296TIP3   OH240446   0.120   1.503   1.725  0.3355 -0.2503 -0.0264
 6296TIP3    H140447   0.069   1.499   1.806  1.3731  0.4235  0.6928
 6296TIP3    H240448   0.133   1.412   1.700  1.2625 -0.5417  1.3981
 6297TIP3   OH240449   0.557   4.586   2.495 -0.8022  0.1343  0.3863
 6297TIP3    H140450   0.646   4.586   2.530  0.6914 -0.0741 -3.0415
 6297TIP3    H240451   0.536   4.493   2.482 -0.0946  0.2271 -1.8585
 6298TIP3   OH240452   4.228   2.323   4.142  0.6996  0.6140 -0.2723
 6298TIP3    H140453   4.244   2.411   4.108 -1.5851  1.3076  0.3134
 6298TIP3    H240454   4.164   2.335   4.212  0.3203 -1.5272 -0.1820
 6299TIP3   OH240455   5.386   0.243   1.254  0.3805  0.4796 -0.8876
 6299TIP3    H140456   5.300   0.220   1.217  0.5600 -0.1807 -0.8999
 6299TIP3    H240457   5.418   0.314   1.197  0.2382  0.1151 -1.4297
 6300TIP3   OH240458   2.115   4.312   1.517 -0.5640  0.3796  0.1225
 6300TIP3    H140459   2.078   4.255   1.584 -0.8536 -0.8998 -1.0765
 6300TIP3    H240460   2.186   4.261   1.478 -1.8725  0.1020 -2.0963
 6301TIP3   OH240461   5.569   0.471   1.370 -0.0273  0.1860  0.3808
 6301TIP3    H140462   5.519   0.464   1.289 -1.9986  0.3694  1.5214
 6301TIP3    H240463   5.656   0.436   1.348 -0.3161  0.7592 -1.9312
 6302TIP3   OH240464   0.961   4.168   0.701 -0.0747 -0.7594 -0.3032
 6302TIP3    H140465   0.919   4.216   0.773 -1.8558 -0.6219 -1.3907
 6302TIP3    H240466   1.017   4.104   0.745 -2.3183 -1.7445  1.2831
 6303TIP3   OH240467   4.916   2.869   0.180 -0.1644  0.1622 -0.9539
 6303TIP3    H140468   5.002   2.891   0.218 -0.3914 -0.4454 -0.0605
 6303TIP3    H240469   4.937   2.830   0.095  0.5118 -0.8383 -0.3491
 6304TIP3   OH240470   5.628   4.958   3.899  0.2924 -0.7186 -0.2450
 6304TIP3    H140471   5.668   4.987   3.981 -1.5532  0.1644  0.4244
 6304TIP3    H240472   5.594   4.870   3.918  1.2810 -1.1849 -0.5957
 6305TIP3   OH240473   5.403   4.348   1.077 -0.2975  0.9099  0.0257
 6305TIP3    H140474   5.339   4.350   1.149 -0.8799  0.8477 -0.4861
 6305TIP3    H240475   5.462   4.421   1.096  0.4488 -0.0097  1.3780
 6306TIP3   OH240476   6.394   5.191   1.669 -0.2429  0.3116  0.0413
 6306TIP3    H140477   6.329   5.235   1.723  0.5952 -0.0409  1.4151
 6306TIP3    H240478   6.343   5.137   1.608 -1.2319  1.5875 -0.2829
 6307TIP3   OH240479   3.221   0.101   0.510 -0.1596  0.2682 -0.1783
 6307TIP3    H140480   3.294   0.079   0.568 -0.9701 -0.5641  0.5498
 6307TIP3    H240481   3.211   0.196   0.519  1.0995  0.4681 -0.6294
 6308TIP3   OH240482   5.435   2.573   2.314 -0.8324  0.5119  0.2680
 6308TIP3    H140483   5.380   2.640   2.354 -0.5287  0.7397  0.3081
 6308TIP3    H240484   5.400   2.563   2.225 -0.9672  0.6188  0.3088
 6309TIP3   OH240485   0.669   1.630   0.077 -0.2713 -0.1505  0.5689
 6309TIP3    H140486   0.763   1.622   0.060 -0.3203 -0.4933  0.4585
 6309TIP3    H240487   0.630   1.555   0.032 -0.7742  0.8903 -0.8188
 6310TIP3   OH240488   0.110   0.633   0.449  0.0025  0.2332  0.5444
 6310TIP3    H140489   0.030   0.593   0.414  0.0575  0.8346 -0.2938
 6310TIP3    H240490   0.080   0.682   0.526 -0.4014  0.2935  0.3541
 6311TIP3   OH240491   6.000   4.240   3.861  0.4068 -0.1300  0.1005
 6311TIP3    H140492   6.086   4.210   3.890  0.3158  0.7567  1.3566
 6311TIP3    H240493   5.942   4.221   3.935 -0.7311 -1.6993 -1.1252
 6312TIP3   OH240494   3.340   3.126   0.678 -0.3964 -0.0450 -0.2120
 6312TIP3    H140495   3.295   3.067   0.618  0.2206 -0.9091  0.1484
 6312TIP3    H240496   3.390   3.068   0.735  0.2703  0.8313  0.1196
 6313TIP3   OH240497   2.773   4.590   3.170  0.9094 -0.0951 -0.1970
 6313TIP3    H140498   2.802   4.660   3.112  0.7803 -0.8004 -1.1498
 6313TIP3    H240499   2.792   4.621   3.258  0.5788  1.2523 -0.5810
 6314TIP3   OH240500   5.544   5.133   3.043  0.4861 -0.5324  0.0295
 6314TIP3    H140501   5.476   5.113   2.979  0.6158  1.1748 -0.7029
 6314TIP3    H240502   5.619   5.081   3.015  0.1782 -0.6804 -0.5454
 6315TIP3   OH240503   2.663   6.128   1.928 -0.9298 -0.2728 -0.4581
 6315TIP3    H140504   2.600   6.104   1.996  1.1547 -0.2737  1.6294
 6315TIP3    H240505   2.710   6.204   1.965  0.5743 -0.5355 -1.6973
 6316TIP3   OH240506   0.225   4.758   3.164 -0.3905 -0.4981 -0.3431
 6316TIP3    H140507   0.233   4.750   3.258 -1.2434  0.6187 -0.1426
 6316TIP3    H240508   0.267   4.842   3.143 -0.4943 -0.5781 -0.8965
 6317TIP3   OH240509   4.048   5.103   3.372  0.6520 -0.1413 -0.3237
 6317TIP3    H140510   4.009   5.062   3.295 -0.4676 -1.0174  0.6617
 6317TIP3    H240511   3.973   5.123   3.429  1.5286 -0.7220  1.0820
 6318TIP3   OH240512   3.590   2.993   0.894  0.4209 -0.1770 -0.4483
 6318TIP3    H140513   3.652   2.924   0.917 -0.0814 -0.6718 -0.5281
 6318TIP3    H240514   3.638   3.074   0.904  1.4695 -0.6031 -1.7738
 6319TIP3   OH240515   4.573   0.466   1.691 -0.8285  0.3231  0.1498
 6319TIP3    H140516   4.592   0.545   1.741  1.3559  0.0097 -0.1180
 6319TIP3    H240517   4.510   0.418   1.745  0.8290  0.3826  2.2673
 6320TIP3   OH240518   3.493   2.568   1.335 -0.3378  0.3590  0.9511
 6320TIP3    H140519   3.583   2.600   1.330  0.2085 -1.1509  0.1333
 6320TIP3    H240520   3.497   2.494   1.396 -0.2163 -1.8743 -1.5255
 6321TIP3   OH240521   5.079   5.040   3.305 -0.1578 -0.0281  0.2223
 6321TIP3    H140522   5.046   5.122   3.342  0.0817  0.1729  0.0017
 6321TIP3    H240523   5.145   5.068   3.241  0.0246 -0.4010  0.2458
 6322TIP3   OH240524   0.482   2.107   3.658  0.2793  0.0508  0.0296
 6322TIP3    H140525   0.516   2.190   3.689  1.2003  0.1650 -1.2283
 6322TIP3    H240526   0.507   2.103   3.566 -1.3327 -0.8022 -0.4205
 6323TIP3   OH240527   0.575   6.323   4.737 -0.1026 -0.0842  0.1764
 6323TIP3    H140528   0.598   6.264   4.810  1.2398 -1.4307 -1.2633
 6323TIP3    H240529   0.480   6.317   4.732 -0.1118 -1.0429  0.9625
 6324TIP3   OH240530   1.994   2.171   0.803 -0.3009 -0.9455 -0.1831
 6324TIP3    H140531   2.028   2.255   0.774  1.3708 -1.2741  0.7478
 6324TIP3    H240532   1.933   2.192   0.873 -1.1836 -0.4383 -1.0650
 6325TIP3   OH240533   3.422   6.629   3.312 -0.0467 -0.3504  0.1637
 6325TIP3    H140534   3.404   6.627   3.218  0.3818 -3.1889  0.0497
 6325TIP3    H240535   3.338   6.608   3.353 -0.1281  0.4234  0.4096
 6326TIP3   OH240536   4.575   0.065   2.331  0.7119  0.3129  0.3182
 6326TIP3    H140537   4.523   0.096   2.405 -0.9810  3.0497 -1.7789
 6326TIP3    H240538   4.606   0.145   2.289  1.6654 -1.1143 -1.8575
 6327TIP3   OH240539   6.736   0.658   1.903  0.1722  0.0061 -0.1143
 6327TIP3    H140540   6.697   0.718   1.967 -0.1566  0.5614 -0.8238
 6327TIP3    H240541   6.830   0.671   1.911  0.2819 -1.5737  1.8410
 6328TIP3   OH240542   0.770   6.060   4.023 -0.3607  0.1072 -0.2497
 6328TIP3    H140543   0.861   6.084   4.004 -0.4131  0.0478 -0.5800
 6328TIP3    H240544   0.746   6.115   4.098 -0.0779  0.1821 -0.2134
 6329TIP3   OH240545   4.459   6.014   1.495  0.2821  0.0315  0.1683
 6329TIP3    H140546   4.458   6.080   1.426  1.6269  1.8909  1.8081
 6329TIP3    H240547   4.370   6.018   1.532  0.2167  0.6151 -0.0366
 6330TIP3   OH240548   4.387   6.688   4.438  0.1355  0.0939 -0.0160
 6330TIP3    H140549   4.320   6.656   4.377  0.1511 -1.0778  0.5623
 6330TIP3    H240550   4.424   6.609   4.476  1.5004  0.7502  0.0595
 6331TIP3   OH240551   2.945   5.175   1.565  0.0336 -0.5381 -0.1096
 6331TIP3    H140552   2.887   5.230   1.513  0.4631 -0.5680 -0.6327
 6331TIP3    H240553   2.886   5.117   1.613 -0.3853 -0.2518 -0.2696
 6332TIP3   OH240554   0.090   5.412   2.767  0.4386  0.4820  0.7759
 6332TIP3    H140555   0.068   5.429   2.676  0.0300  0.2885  0.8344
 6332TIP3    H240556   0.114   5.319   2.769  0.5257  0.5058  0.8497
 6333TIP3   OH240557   1.031   4.685   4.160 -0.0410 -0.2073 -0.4828
 6333TIP3    H140558   0.995   4.617   4.102 -2.1818  1.2209 -0.9405
 6333TIP3    H240559   0.979   4.678   4.240 -0.1444  0.7346 -0.4588
 6334TIP3   OH240560   3.099   3.138   3.712 -0.3548  0.5149  0.3519
 6334TIP3    H140561   3.095   3.231   3.691  0.6785  0.2402 -1.3157
 6334TIP3    H240562   3.190   3.123   3.737 -0.4987 -0.0554  0.5561
 6335TIP3   OH240563   0.821   1.947   3.482  0.0073 -0.3710  0.2805
 6335TIP3    H140564   0.853   1.862   3.512  0.4658 -0.5429 -0.6559
 6335TIP3    H240565   0.730   1.931   3.457 -0.3312 -0.2630  1.3634
 6336TIP3   OH240566   2.263   6.195   8.782  0.2644  0.1853 -0.1039
 6336TIP3    H140567   2.175   6.158   8.772 -0.3435  1.4547  0.3411
 6336TIP3    H240568   2.268   6.262   8.715  1.5869 -1.0396 -1.3067
 6337TIP3   OH240569   3.553   5.728   3.994  0.0326  0.3013 -0.0292
 6337TIP3    H140570   3.476   5.754   4.043 -0.5393 -1.0484 -0.1563
 6337TIP3    H240571   3.593   5.659   4.047  1.0776  0.8639 -0.0446
 6338TIP3   OH240572   6.289   3.405   0.116 -0.0157  0.5617  0.1281
 6338TIP3    H140573   6.325   3.459   0.187  0.5324  0.1601  0.1560
 6338TIP3    H240574   6.364   3.385   0.060 -0.2389 -0.0624  0.0456
 6339TIP3   OH240575   3.223   0.501   3.843 -0.1031 -0.1993 -0.1277
 6339TIP3    H140576   3.273   0.571   3.803  0.6618 -0.2276  0.7434
 6339TIP3    H240577   3.146   0.490   3.787  0.2442  0.6907 -0.7831
 6340TIP3   OH240578   5.665   5.276   2.684  0.2233 -0.1458  0.0611
 6340TIP3    H140579   5.696   5.260   2.773 -0.7900  0.8911  0.6232
 6340TIP3    H240580   5.580   5.232   2.680  0.9980 -1.6318 -0.9633
 6341TIP3   OH240581   4.472   3.647   3.144 -0.0376 -0.0382  0.3678
 6341TIP3    H140582   4.530   3.709   3.187  1.6952 -1.2113 -0.1358
 6341TIP3    H240583   4.391   3.695   3.129  1.7084  2.6202 -1.3723
 6342TIP3   OH240584   5.348   1.749   4.127 -0.0808 -0.4440 -0.5579
 6342TIP3    H140585   5.411   1.793   4.070 -1.4406  2.8206  0.2260
 6342TIP3    H240586   5.384   1.761   4.216 -1.5655  1.2284 -0.1293
 6343TIP3   OH240587   3.103   2.599   1.764 -0.0448  0.2656  0.3381
 6343TIP3    H140588   3.012   2.605   1.794  0.0139  0.5814  0.4571
 6343TIP3    H240589   3.100   2.538   1.690 -0.7655  2.1199 -1.2651
 6344TIP3   OH240590   2.471   3.519   2.336  0.0487  0.3443 -0.0077
 6344TIP3    H140591   2.408   3.461   2.379 -0.9624  1.1781 -0.3269
 6344TIP3    H240592   2.520   3.462   2.277 -1.1765 -0.1265 -0.5889
 6345TIP3   OH240593   5.092   3.937   3.165  0.5948  0.3588 -0.3470
 6345TIP3    H140594   5.140   3.896   3.237  1.1292 -0.6773 -1.2579
 6345TIP3    H240595   5.125   3.893   3.086 -2.6220 -1.2660 -0.9652
 6346TIP3   OH240596   5.398   3.973   3.964 -0.0298  0.4370 -0.0102
 6346TIP3    H140597   5.346   3.957   3.885  0.5156  1.6518 -0.6337
 6346TIP3    H240598   5.353   3.922   4.032 -0.9778  0.0180 -0.9152
 6347TIP3   OH240599   6.177   5.723   0.496 -0.0173  0.0558  0.0392
 6347TIP3    H140600   6.183   5.637   0.455  0.3326 -0.4040  1.0179
 6347TIP3    H240601   6.091   5.756   0.470  0.7998  0.4918 -2.3459
 6348TIP3   OH240602   0.714   1.608   0.362  0.1115  0.8803  0.5805
 6348TIP3    H140603   0.699   1.556   0.283  0.9151  0.0193  0.9793
 6348TIP3    H240604   0.780   1.672   0.336  0.2460  0.7140  0.5109
 6349TIP3   OH240605   4.560   2.975   2.213 -0.3343  0.2540 -0.0130
 6349TIP3    H140606   4.547   2.985   2.119 -1.8931  1.0396  0.2462
 6349TIP3    H240607   4.488   3.025   2.252 -0.8112 -1.5591  1.5734
 6350TIP3   OH240608   6.712   2.402   3.399  0.3470 -0.3717 -0.4398
 6350TIP3    H140609   6.787   2.430   3.450 -0.2497 -0.2747  0.4012
 6350TIP3    H240610   6.645   2.380   3.463 -0.7174  0.5852 -1.1665
 6351TIP3   OH240611   0.459   2.328   8.347 -0.1262 -0.1593 -0.0509
 6351TIP3    H140612   0.486   2.289   8.430 -3.0776 -1.0886  0.5794
 6351TIP3    H240613   0.469   2.423   8.361  0.4701 -0.3471  0.9234
 6352TIP3   OH240614   5.374   4.242   2.870 -0.2702 -0.2375 -0.5506
 6352TIP3    H140615   5.351   4.258   2.961  0.2761  0.0183 -0.4525
 6352TIP3    H240616   5.308   4.180   2.839 -0.2080 -0.6576  0.1377
 6353TIP3   OH240617   4.209   3.848   1.304 -0.4524 -0.1906  0.3920
 6353TIP3    H140618   4.230   3.789   1.232 -2.6357 -0.6310  0.0163
 6353TIP3    H240619   4.253   3.930   1.284 -1.6707 -0.0228 -1.9389
 6354TIP3   OH240620   3.143   0.966   0.193 -0.3161  0.3859 -0.5854
 6354TIP3    H140621   3.118   0.912   0.268  0.5343 -1.5647 -1.6400
 6354TIP3    H240622   3.206   1.029   0.229 -2.0764  1.3930  0.8696
 6355TIP3   OH240623   4.595   1.133   0.524  0.2068 -0.0249  0.5452
 6355TIP3    H140624   4.508   1.093   0.512 -0.2490  0.7412  1.1550
 6355TIP3    H240625   4.582   1.224   0.498  0.8499  0.0729  0.5730
 6356TIP3   OH240626   5.710   1.521   2.394 -0.2013  0.1102 -0.4771
 6356TIP3    H140627   5.662   1.547   2.472  1.0418  2.9109 -0.5014
 6356TIP3    H240628   5.709   1.425   2.395 -3.4217  0.0324  0.8896
 6357TIP3   OH240629   3.707   5.510   1.001 -0.1184 -0.0326 -0.3221
 6357TIP3    H140630   3.787   5.518   0.948  1.8249 -0.8852  2.2739
 6357TIP3    H240631   3.636   5.511   0.937  1.8954  1.2461 -2.7447
 6358TIP3   OH240632   6.473   5.687   2.717  0.0191  0.2606  0.1812
 6358TIP3    H140633   6.524   5.705   2.638  0.0828  1.4050  0.4693
 6358TIP3    H240634   6.504   5.602   2.748  0.0991 -0.1267 -0.9351
 6359TIP3   OH240635   6.761   4.254   0.217  0.4335  0.4014  0.3778
 6359TIP3    H140636   6.765   4.159   0.224 -0.3505  0.3680  0.4486
 6359TIP3    H240637   6.675   4.273   0.180  0.9530  1.0458 -0.5481
 6360TIP3   OH240638   2.515   6.250   4.159 -0.1164 -0.5298  0.2900
 6360TIP3    H140639   2.504   6.343   4.140 -2.0141 -1.0882 -1.7535
 6360TIP3    H240640   2.428   6.222   4.189  0.1000 -1.8835 -0.2898
 6361TIP3   OH240641   2.195   3.677   1.426 -0.4881  0.7493 -0.0280
 6361TIP3    H140642   2.169   3.662   1.335 -0.1594  4.5985 -0.9516
 6361TIP3    H240643   2.210   3.590   1.461  1.3781 -0.9045 -4.2437
 6362TIP3   OH240644   6.201   5.498   3.605 -0.2303 -0.2551 -0.2917
 6362TIP3    H140645   6.124   5.454   3.567 -0.6127 -0.9928  1.2538
 6362TIP3    H240646   6.266   5.497   3.535 -1.7257  0.6867 -1.7538
 6363TIP3   OH240647   4.044   3.200   0.832  0.4030 -0.0594  0.5813
 6363TIP3    H140648   4.083   3.275   0.877 -3.1975  2.7177 -0.4136
 6363TIP3    H240649   4.087   3.199   0.746 -0.0332  1.4419  0.3179
 6364TIP3   OH240650   5.845   1.097   1.476  0.3344  0.0592  0.3179
 6364TIP3    H140651   5.859   1.056   1.561 -0.1295  0.2773  0.5008
 6364TIP3    H240652   5.909   1.054   1.418 -0.7501 -1.5963  0.2730
 6365TIP3   OH240653   5.699   1.465   1.083 -0.3288 -0.2870 -0.6326
 6365TIP3    H140654   5.751   1.545   1.094 -2.7002  1.0732  2.2833
 6365TIP3    H240655   5.653   1.479   0.999  0.6243  0.5567 -1.0413
 6366TIP3   OH240656   2.880   3.519   1.630  0.0773  0.0876 -0.2130
 6366TIP3    H140657   2.934   3.598   1.627 -0.7871  0.6770 -0.5738
 6366TIP3    H240658   2.843   3.518   1.718 -0.2942  0.3441 -0.3668
 6367TIP3   OH240659   6.131   1.129   1.877  0.0466 -0.0232  0.0748
 6367TIP3    H140660   6.156   1.119   1.785  0.0124  1.5616 -0.1330
 6367TIP3    H240661   6.203   1.180   1.916  0.3866 -1.2378  1.0991
 6368TIP3   OH240662   1.205   6.000   2.692 -0.2889  0.0005 -0.0291
 6368TIP3    H140663   1.179   5.910   2.712  0.1244 -0.1684 -0.2277
 6368TIP3    H240664   1.130   6.039   2.648 -0.5301 -0.1970  0.2074
 6369TIP3   OH240665   5.149   2.927   0.601 -0.3898  0.3164  0.0479
 6369TIP3    H140666   5.200   2.943   0.521 -0.6129 -2.1301 -0.6544
 6369TIP3    H240667   5.195   2.978   0.668  1.0924  0.7251 -1.1998
 6370TIP3   OH240668   3.378   3.893   0.270 -0.5410  0.1988  0.0891
 6370TIP3    H140669   3.407   3.942   0.347  1.6259 -0.4841 -0.2168
 6370TIP3    H240670   3.417   3.940   0.196 -0.3069 -0.7141 -0.3746
 6371TIP3   OH240671   2.208   3.930   1.484 -0.3420 -0.2844  0.1179
 6371TIP3    H140672   2.203   3.836   1.468 -1.0050 -0.3206  0.5022
 6371TIP3    H240673   2.163   3.942   1.568 -0.4857  0.4058 -0.0568
 6372TIP3   OH240674   6.383   4.098   8.752  0.4580  0.5650 -0.3405
 6372TIP3    H140675   6.444   4.140   8.691 -1.1368  2.9590 -0.4021
 6372TIP3    H240676   6.344   4.170   8.800 -0.4563 -1.0898  1.5192
 6373TIP3   OH240677   0.133   2.895   0.866  0.0812 -0.3145 -0.2199
 6373TIP3    H140678   0.205   2.835   0.852  1.9346  1.6729  0.2327
 6373TIP3    H240679   0.083   2.892   0.785  3.5891  1.9024 -2.7654
 6374TIP3   OH240680   1.319   4.933   4.660 -0.0023  0.8409  1.0181
 6374TIP3    H140681   1.342   4.846   4.694  1.2739 -0.1130 -1.8884
 6374TIP3    H240682   1.272   4.975   4.731 -0.0680 -1.9731  2.8111
 6375TIP3   OH240683   2.809   0.047   3.462  0.1312 -0.2889  0.0824
 6375TIP3    H140684   2.723   0.051   3.420  1.1916  0.9942 -2.1263
 6375TIP3    H240685   2.849  -0.033   3.428  0.4363 -0.0051 -0.2417
 6376TIP3   OH240686   4.054   4.367   4.421  0.0003 -0.1191 -0.5514
 6376TIP3    H140687   3.970   4.413   4.417 -0.0683 -0.1935 -0.0012
 6376TIP3    H240688   4.031   4.275   4.415  0.0971 -0.1107 -1.0886
 6377TIP3   OH240689   3.011   0.497   3.658  0.3384 -0.5174 -0.1738
 6377TIP3    H140690   2.968   0.569   3.613  0.4650 -1.0038 -1.0781
 6377TIP3    H240691   2.955   0.421   3.645  0.8618 -0.8842 -0.3458
 6378TIP3   OH240692   4.129   0.383   2.858 -0.4774 -0.2329  0.2089
 6378TIP3    H140693   4.137   0.291   2.884 -0.3330 -0.7395 -1.4856
 6378TIP3    H240694   4.034   0.398   2.852 -0.5843  0.4015  2.5648
 6379TIP3   OH240695   1.018   0.594   1.710  0.1155 -0.7516 -0.5640
 6379TIP3    H140696   1.050   0.594   1.620 -1.4905  1.2948 -1.2048
 6379TIP3    H240697   1.046   0.679   1.745  0.5910 -1.4593  0.8464
 6380TIP3   OH240698   1.476   6.428   3.048  0.0416  0.0227 -0.0434
 6380TIP3    H140699   1.413   6.441   2.976  1.6720 -1.3409 -1.8139
 6380TIP3    H240700   1.437   6.360   3.102 -0.3204 -0.3266 -0.7380
 6381TIP3   OH240701   1.738   4.902   0.618 -0.2980 -0.8146  0.2934
 6381TIP3    H140702   1.658   4.898   0.565 -1.1746 -1.9225  1.6329
 6381TIP3    H240703   1.707   4.905   0.708  1.1636 -2.4366  0.9082
 6382TIP3   OH240704   6.510   0.693   3.574  0.2850 -0.6575  0.4658
 6382TIP3    H140705   6.575   0.743   3.524 -0.4638  0.6452  0.7558
 6382TIP3    H240706   6.557   0.614   3.600  1.8704  0.3620  0.8972
 6383TIP3   OH240707   1.005   3.150   3.680 -0.5662 -0.1890 -0.2648
 6383TIP3    H140708   0.928   3.101   3.709 -1.8510  1.7766 -0.1308
 6383TIP3    H240709   1.071   3.134   3.747 -1.2730 -0.9430  0.2705
 6384TIP3   OH240710   1.672   1.633   1.485 -0.2013 -0.0459 -0.2038
 6384TIP3    H140711   1.593   1.600   1.443 -0.0103  1.9628 -2.4033
 6384TIP3    H240712   1.694   1.568   1.551 -2.6726 -1.5438 -0.7371
 6385TIP3   OH240713   6.344   1.965   4.101 -0.2596  0.0381 -0.1243
 6385TIP3    H140714   6.429   1.992   4.137  0.4528 -1.9714 -0.2107
 6385TIP3    H240715   6.345   1.870   4.103 -2.3660 -0.0557 -0.5330
 6386TIP3   OH240716   1.484   2.495   3.518 -0.2253 -0.2163 -0.2010
 6386TIP3    H140717   1.510   2.456   3.602  0.2009  0.9926  0.2389
 6386TIP3    H240718   1.561   2.543   3.488 -1.0238  1.0443 -0.2805
 6387TIP3   OH240719   2.199   6.706   3.622  0.5737  0.1942  0.0947
 6387TIP3    H140720   2.275   6.663   3.661  0.8317  0.7049  0.1614
 6387TIP3    H240721   2.139   6.718   3.696  1.0531  1.1410  0.3580
 6388TIP3   OH240722   6.742   3.649   0.947 -0.3643  0.5866  0.2857
 6388TIP3    H140723   6.661   3.680   0.908 -3.8133 -5.5904  1.3305
 6388TIP3    H240724   6.781   3.592   0.881  0.2143 -0.6199  1.6103
 6389TIP3   OH240725   3.931   1.065   4.464  0.0680 -0.1305 -0.0726
 6389TIP3    H140726   3.982   1.029   4.537 -0.2169 -2.5629 -0.9722
 6389TIP3    H240727   3.873   0.993   4.439 -0.4060  0.9301 -2.1769
 6390TIP3   OH240728   5.488   2.587   1.597  0.4818  0.4229 -0.4889
 6390TIP3    H140729   5.435   2.574   1.676 -0.1332 -0.2168 -0.9890
 6390TIP3    H240730   5.574   2.615   1.629  0.5636 -0.8581  0.4672
 6391TIP3   OH240731   5.691   5.006   1.642  0.3534 -0.9565  0.1825
 6391TIP3    H140732   5.741   5.002   1.724 -0.3011 -0.2398  0.6358
 6391TIP3    H240733   5.732   5.076   1.592  1.1006 -1.7618 -0.3542
 6392TIP3   OH240734   2.228   6.006   1.041 -0.8438 -0.3762  0.3128
 6392TIP3    H140735   2.275   6.029   0.961  0.0224 -2.3396  0.1987
 6392TIP3    H240736   2.274   6.055   1.110 -0.5170  0.0076 -0.1701
 6393TIP3   OH240737   3.172   4.733   0.960 -0.8388  0.4964 -0.4163
 6393TIP3    H140738   3.210   4.801   1.015 -0.1349 -0.4578  0.3192
 6393TIP3    H240739   3.078   4.737   0.977 -0.7720  1.0823 -0.1655
 6394TIP3   OH240740   0.496   2.611   2.223 -0.2047  0.6299  0.5682
 6394TIP3    H140741   0.497   2.696   2.179 -0.7633  0.7013  0.6821
 6394TIP3    H240742   0.408   2.576   2.205  0.0409  0.0515  0.4758
 6395TIP3   OH240743   0.950   5.615   3.279 -0.5878  0.3233 -0.3373
 6395TIP3    H140744   0.933   5.586   3.369 -0.3863 -0.7916 -0.6411
 6395TIP3    H240745   1.045   5.616   3.272 -0.5277 -2.6598 -1.4242
 6396TIP3   OH240746   1.176   1.313   2.280  0.1837 -0.0043  0.5845
 6396TIP3    H140747   1.192   1.363   2.201  1.0578 -0.7525  0.2738
 6396TIP3    H240748   1.089   1.341   2.309  0.3517  1.1382  0.0244
 6397TIP3   OH240749   2.271   3.769   0.823 -0.2441  0.1813 -0.0957
 6397TIP3    H140750   2.293   3.817   0.903 -0.1868 -0.1035  0.0589
 6397TIP3    H240751   2.319   3.815   0.754 -0.6419  0.7018 -0.0399
 6398TIP3   OH240752   0.314   4.519   2.085  0.0857  0.3591 -0.5583
 6398TIP3    H140753   0.318   4.573   2.164 -1.2524 -0.4088  0.0570
 6398TIP3    H240754   0.340   4.431   2.114  0.0012  0.1644 -1.0563
 6399TIP3   OH240755   2.335   1.740   0.518 -0.5525  0.6271 -0.4306
 6399TIP3    H140756   2.320   1.674   0.450 -0.9841  0.2869 -0.0122
 6399TIP3    H240757   2.255   1.793   0.518 -0.8688  0.1601  0.3205
 6400TIP3   OH240758   2.066   0.026   3.858  0.4921  0.0189 -0.0260
 6400TIP3    H140759   2.104   0.095   3.912 -0.4682  0.4285  0.1553
 6400TIP3    H240760   1.974   0.023   3.884  0.1820 -0.3115 -1.0892
 6401TIP3   OH240761   4.979   5.440   4.267  0.4512 -0.0778  0.0859
 6401TIP3    H140762   5.068   5.461   4.294 -0.4880 -0.1328  3.6651
 6401TIP3    H240763   4.950   5.373   4.328 -1.9443 -0.3395 -1.2163
 6402TIP3   OH240764   0.365   6.350   3.682  0.0782  0.0407 -0.0501
 6402TIP3    H140765   0.358   6.445   3.679 -0.4847  0.0352  0.7562
 6402TIP3    H240766   0.379   6.330   3.774 -4.2376 -0.8867  0.6236
 6403TIP3   OH240767   5.403   2.314   0.986  0.2284  0.1112 -0.1141
 6403TIP3    H140768   5.325   2.361   0.955  0.3382 -0.5106 -1.3988
 6403TIP3    H240769   5.464   2.316   0.912  2.0399  1.7913  1.3058
 6404TIP3   OH240770   1.128   6.786   3.949 -0.2439 -0.3751 -0.5379
 6404TIP3    H140771   1.152   6.823   4.034 -0.6866 -0.6826 -0.2747
 6404TIP3    H240772   1.201   6.809   3.891 -0.1586  0.2371 -0.1925
 6405TIP3   OH240773   4.131   3.462   0.176  0.5312  0.2988 -0.0708
 6405TIP3    H140774   4.049   3.443   0.222  1.6882 -0.9559  1.5837
 6405TIP3    H240775   4.158   3.547   0.210  1.7092 -0.8931  2.2718
 6406TIP3   OH240776   2.898   4.505   2.107  0.0644  0.4207  0.0285
 6406TIP3    H140777   2.966   4.509   2.174  0.5448  2.0851 -0.5198
 6406TIP3    H240778   2.932   4.442   2.043 -0.0493 -0.5874  0.9221
 6407TIP3   OH240779   5.726   3.921   0.396  0.1357 -0.2696 -1.1255
 6407TIP3    H140780   5.800   3.913   0.456 -1.0836 -0.5073  0.4283
 6407TIP3    H240781   5.732   4.009   0.361  0.7917 -0.0682 -0.5281
 6408TIP3   OH240782   5.526   2.717   2.669 -0.7456 -0.5262  0.2540
 6408TIP3    H140783   5.596   2.710   2.603 -0.5145  1.6180  0.2110
 6408TIP3    H240784   5.499   2.627   2.684 -0.2440 -1.1638 -2.1813
 6409TIP3   OH240785   2.058   5.330   1.726 -0.7955  0.1401 -0.1702
 6409TIP3    H140786   1.968   5.361   1.736 -0.8089  0.2894 -0.7208
 6409TIP3    H240787   2.077   5.339   1.633  0.1589  1.1600  0.0909
 6410TIP3   OH240788   0.375   1.237   2.209 -0.2571 -0.3242 -0.2156
 6410TIP3    H140789   0.430   1.313   2.231 -0.5151 -0.3725  0.6350
 6410TIP3    H240790   0.385   1.179   2.284  0.2870 -1.3424 -1.0484
 6411TIP3   OH240791   6.067   4.236   8.736  0.2825 -0.0069 -0.2024
 6411TIP3    H140792   6.129   4.300   8.773 -0.8870  0.3435  1.2446
 6411TIP3    H240793   5.982   4.264   8.767 -0.3826 -1.7055 -0.3638
 6412TIP3   OH240794   1.314   0.919   2.320  0.3628 -0.0935 -0.4010
 6412TIP3    H140795   1.227   0.883   2.305  1.1378 -1.2757 -2.5254
 6412TIP3    H240796   1.333   0.971   2.242 -0.0288  3.7794  1.8293
 6413TIP3   OH240797   1.176   1.117   1.417 -0.1915  0.0841 -0.4317
 6413TIP3    H140798   1.143   1.179   1.351 -1.1988  2.2863  1.9758
 6413TIP3    H240799   1.247   1.165   1.460 -0.4300 -0.7626  0.9403
 6414TIP3   OH240800   2.802   1.676   2.667  0.0600  0.4538 -0.2589
 6414TIP3    H140801   2.758   1.759   2.652 -0.4415  0.0200 -1.2876
 6414TIP3    H240802   2.848   1.658   2.585  2.7538  1.2045  0.9638
 6415TIP3   OH240803   1.385   6.572   1.200 -0.1052  0.3855  0.0549
 6415TIP3    H140804   1.313   6.522   1.162 -0.3643  1.2218 -0.5846
 6415TIP3    H240805   1.416   6.629   1.129  0.6072  0.6635  0.5717
 6416TIP3   OH240806   5.891   2.683   1.928 -0.9619 -0.0375  0.0213
 6416TIP3    H140807   5.832   2.741   1.975 -2.3584 -0.8293 -0.7056
 6416TIP3    H240808   5.962   2.666   1.990 -1.7917  0.4545  1.1414
 6417TIP3   OH240809   4.544   5.923   0.263  0.0399  0.0145 -0.0857
 6417TIP3    H140810   4.511   6.012   0.273  0.0028  0.0799 -0.7582
 6417TIP3    H240811   4.495   5.887   0.190  0.1398 -0.5215  0.1049
 6418TIP3   OH240812   0.739   3.082   0.710 -0.1311 -0.0275  0.9145
 6418TIP3    H140813   0.760   3.175   0.719 -1.4937  0.4597 -0.5243
 6418TIP3    H240814   0.738   3.067   0.616  3.0706 -2.2740  1.0962
 6419TIP3   OH240815   5.003   3.296   3.853 -0.1398  0.1905 -0.7664
 6419TIP3    H140816   4.928   3.335   3.809 -1.8213 -2.1678 -0.2085
 6419TIP3    H240817   5.072   3.293   3.787 -0.3692  2.6837 -1.2031
 6420TIP3   OH240818   4.584   4.877   3.255 -0.1830 -0.1366 -0.7899
 6420TIP3    H140819   4.508   4.899   3.309  1.9350  1.0180  1.9294
 6420TIP3    H240820   4.643   4.830   3.314  2.8161  2.2697 -1.6047
 6421TIP3   OH240821   0.366   6.656   3.744  0.1898  0.0370  0.1546
 6421TIP3    H140822   0.453   6.657   3.784  0.1553 -2.9041  0.5187
 6421TIP3    H240823   0.309   6.622   3.812 -1.2507  1.6833 -0.1698
 6422TIP3   OH240824   0.420   2.583   1.504 -0.0827 -0.0326 -0.3898
 6422TIP3    H140825   0.384   2.671   1.512  0.9665  0.3792  0.0414
 6422TIP3    H240826   0.505   2.587   1.549  0.2311 -1.1172 -0.8310
 6423TIP3   OH240827   2.337   4.687   8.503  0.0321 -0.1476 -0.4916
 6423TIP3    H140828   2.367   4.777   8.489  0.5629 -0.3851 -0.9293
 6423TIP3    H240829   2.255   4.682   8.454  0.7647 -0.3254 -1.7556
 6424TIP3   OH240830   6.382   2.292   0.993  0.0112  0.3246 -0.6243
 6424TIP3    H140831   6.307   2.286   0.934  1.7882 -0.1531 -3.0367
 6424TIP3    H240832   6.405   2.201   1.011  3.1411  0.0912 -4.4617
 6425TIP3   OH240833   1.766   5.998   1.002  0.4184 -0.2029  0.2830
 6425TIP3    H140834   1.718   5.982   0.920 -0.9459 -1.0672  1.2127
 6425TIP3    H240835   1.765   6.093   1.012 -2.1488 -0.2126  0.8270
 6426TIP3   OH240836   2.439   5.596   1.615 -0.1112  0.5622  0.2600
 6426TIP3    H140837   2.420   5.583   1.522 -0.6040  0.9171  0.3101
 6426TIP3    H240838   2.425   5.511   1.655 -0.6006  0.5813  0.1276
 6427TIP3   OH240839   6.494   1.453   4.833 -0.2812  0.2650 -0.0511
 6427TIP3    H140840   6.450   1.524   4.785 -1.0893  0.9534  1.6060
 6427TIP3    H240841   6.434   1.379   4.826  0.4903 -0.2480 -1.6516
 6428TIP3   OH240842   4.217   1.914   1.469 -0.2487 -0.4727  0.1163
 6428TIP3    H140843   4.290   1.974   1.455  0.4341 -1.3660 -0.2321
 6428TIP3    H240844   4.258   1.829   1.487 -1.2002 -1.0010 -0.1313
 6429TIP3   OH240845   0.502   1.132   0.456 -0.0543 -0.5350 -0.0436
 6429TIP3    H140846   0.498   1.201   0.390  0.6089  1.2244  1.6707
 6429TIP3    H240847   0.414   1.128   0.492 -0.3771 -1.3905 -0.8844
 6430TIP3   OH240848   2.298   2.473   0.157  0.8056 -0.3861  0.4007
 6430TIP3    H140849   2.364   2.453   0.091  0.7575  1.5018 -0.2763
 6430TIP3    H240850   2.219   2.494   0.106  0.5944  0.4854  1.0547
 6431TIP3   OH240851   5.618   2.151   8.631 -0.1623 -0.0172 -0.1248
 6431TIP3    H140852   5.670   2.231   8.642 -0.3239 -0.0369  0.8721
 6431TIP3    H240853   5.545   2.161   8.692 -1.3154 -0.0253 -1.4619
 6432TIP3   OH240854   4.407   0.094   2.549  0.2182  0.7300 -0.2721
 6432TIP3    H140855   4.452   0.083   2.632  0.6583  0.3136 -0.5550
 6432TIP3    H240856   4.381   0.005   2.524  0.0048  0.8637 -0.5340
 6433TIP3   OH240857   4.224   4.458   4.606  0.1111  0.1994  0.4081
 6433TIP3    H140858   4.197   4.416   4.688 -0.4548 -1.6637 -0.6553
 6433TIP3    H240859   4.169   4.416   4.539  0.9023  1.3077 -0.9910
 6434TIP3   OH240860   0.075   0.935   0.797 -0.4151 -0.6164  0.5882
 6434TIP3    H140861   0.062   1.009   0.855  1.4724 -0.8541  1.3871
 6434TIP3    H240862   0.029   0.959   0.716 -0.8511  0.8741  1.2576
 6435TIP3   OH240863   4.266   1.233   4.987  0.3127  0.5532 -0.5730
 6435TIP3    H140864   4.263   1.143   4.955 -0.1348  0.3577  0.0085
 6435TIP3    H240865   4.332   1.232   5.056  1.2542  0.9681 -1.4386
 6436TIP3   OH240866   3.434   0.238   4.185  0.4925 -0.4622 -0.2642
 6436TIP3    H140867   3.426   0.272   4.097  0.8303  0.0118 -0.1151
 6436TIP3    H240868   3.498   0.295   4.228 -0.7476  0.2185  0.7433
 6437TIP3   OH240869   2.034   4.042   1.295  0.5154  0.8289 -0.2497
 6437TIP3    H140870   2.101   4.022   1.361  0.9953  0.2687 -0.8913
 6437TIP3    H240871   2.083   4.050   1.213 -0.1695  0.6545 -0.6856
 6438TIP3   OH240872   5.037   4.374   0.185 -0.0616  0.1534  0.0116
 6438TIP3    H140873   5.042   4.469   0.177 -0.3161  0.1621 -0.0622
 6438TIP3    H240874   5.005   4.345   0.099  0.6169 -0.0517 -0.1816
 6439TIP3   OH240875   2.956   5.823   8.812  0.2547 -0.2534 -0.0638
 6439TIP3    H140876   2.918   5.911   8.808 -2.4398 -1.2745  0.5479
 6439TIP3    H240877   2.951   5.790   8.723 -1.6871 -0.8207  0.1882
 6440TIP3   OH240878   0.231   6.011   2.507  0.0098  0.1668 -0.5800
 6440TIP3    H140879   0.186   5.930   2.483 -0.6640  0.7718 -1.4214
 6440TIP3    H240880   0.223   6.015   2.602 -1.6267  0.1761 -0.6900
 6441TIP3   OH240881   6.009   4.809   2.735 -0.0537  0.0232  1.1334
 6441TIP3    H140882   5.978   4.880   2.791  1.5702  2.3505 -0.7048
 6441TIP3    H240883   5.959   4.819   2.654  0.1399 -1.0116  0.8689
 6442TIP3   OH240884   3.239   6.353   1.282  0.0635  0.4163  0.4222
 6442TIP3    H140885   3.212   6.333   1.372 -2.0278 -2.7743 -0.7196
 6442TIP3    H240886   3.159   6.342   1.230  1.9580 -2.2947 -2.3112
 6443TIP3   OH240887   0.155   4.900   1.198 -0.0076  0.2781 -0.2999
 6443TIP3    H140888   0.214   4.972   1.218  0.3858  0.2013 -1.1126
 6443TIP3    H240889   0.074   4.921   1.242  1.2834 -0.7500  2.8787
 6444TIP3   OH240890   0.797   4.428   4.322 -0.6362 -0.6044  0.2623
 6444TIP3    H140891   0.719   4.375   4.306 -0.0150 -1.5296  0.1989
 6444TIP3    H240892   0.824   4.405   4.411  0.4713 -1.5263 -0.2861
 6445TIP3   OH240893   1.967   2.147   0.521  0.0925  0.3877 -0.1052
 6445TIP3    H140894   1.998   2.175   0.608 -2.5800 -0.6161  1.2805
 6445TIP3    H240895   1.888   2.199   0.506 -1.5817 -2.0145 -0.1791
 6446TIP3   OH240896   3.347   5.146   3.926 -0.1337  0.4907 -0.1155
 6446TIP3    H140897   3.322   5.205   3.855 -1.2967  0.7293  0.4682
 6446TIP3    H240898   3.298   5.178   4.002 -0.0216 -0.6428  0.4513
 6447TIP3   OH240899   0.509   5.892   1.678 -0.6018  0.5620 -0.3000
 6447TIP3    H140900   0.429   5.915   1.630 -0.8937 -1.2169 -0.7413
 6447TIP3    H240901   0.486   5.812   1.726  0.7518  0.3242 -0.0021
 6448TIP3   OH240902   6.091   2.493   2.769 -0.3990  0.2055  0.0041
 6448TIP3    H140903   6.184   2.505   2.750 -0.7109  0.0700 -1.8295
 6448TIP3    H240904   6.086   2.407   2.811  0.3116  0.2858  0.2674
 6449TIP3   OH240905   3.841   0.997   3.707  0.2511 -0.1595  0.1941
 6449TIP3    H140906   3.766   1.055   3.695  0.9016  0.4312 -1.2360
 6449TIP3    H240907   3.821   0.921   3.652  1.0352  0.3601 -0.8484
 6450TIP3   OH240908   4.223   0.465   1.519  0.0753  0.0196 -0.1238
 6450TIP3    H140909   4.152   0.519   1.486 -2.0144 -1.9372  0.8269
 6450TIP3    H240910   4.209   0.463   1.614  1.0135 -0.9099  0.0146
 6451TIP3   OH240911   1.825   6.741   0.714 -0.3322  0.3740 -0.2287
 6451TIP3    H140912   1.817   6.824   0.666 -1.8653  1.3615  1.6038
 6451TIP3    H240913   1.781   6.677   0.658  0.7969  0.7631 -1.6316
 6452TIP3   OH240914   5.582   2.108   2.622  0.1000  0.4711 -0.1681
 6452TIP3    H140915   5.532   2.145   2.549  0.0311  0.7816  0.0374
 6452TIP3    H240916   5.652   2.170   2.638  2.3255 -1.2976 -2.3175
 6453TIP3   OH240917   2.123   3.540   3.523  0.4572 -0.2299  0.3380
 6453TIP3    H140918   2.170   3.460   3.498 -0.7669 -0.5053 -1.2946
 6453TIP3    H240919   2.087   3.521   3.609 -0.2787 -1.6932 -0.2541
 6454TIP3   OH240920   0.880   4.029   4.296  0.3606  0.1012 -0.1536
 6454TIP3    H140921   0.825   3.965   4.251 -0.9991  0.9134  0.3185
 6454TIP3    H240922   0.923   3.979   4.365  1.7818 -0.9704 -1.7202
 6455TIP3   OH240923   0.263   6.437   4.590 -1.1056 -0.1440  0.7300
 6455TIP3    H140924   0.232   6.514   4.541  0.5196  0.0236 -0.0991
 6455TIP3    H240925   0.319   6.473   4.658  0.4869 -0.6156 -0.2930
 6456TIP3   OH240926   2.299   0.820   2.821 -0.7443 -0.2122 -0.3749
 6456TIP3    H140927   2.288   0.906   2.782 -0.4149 -0.2103 -0.4698
 6456TIP3    H240928   2.342   0.768   2.752  1.8850  0.3928  0.6880
 6457TIP3   OH240929   3.454   5.950   0.067  0.7769  0.6555  0.3550
 6457TIP3    H140930   3.382   5.924   0.124 -0.0432  2.1512  0.0471
 6457TIP3    H240931   3.510   5.872   0.062 -2.3050 -1.6564 -1.8179
 6458TIP3   OH240932   2.705   1.605   4.357 -0.3126  0.0635  0.2409
 6458TIP3    H140933   2.658   1.610   4.273 -0.7043 -1.9363  0.2891
 6458TIP3    H240934   2.785   1.655   4.343 -0.3845 -0.2152 -1.3135
 6459TIP3   OH240935   2.255   4.296   4.835 -0.0505 -0.4599  0.1688
 6459TIP3    H140936   2.216   4.383   4.821 -0.1832 -0.7180 -1.2479
 6459TIP3    H240937   2.327   4.292   4.772 -0.2067 -1.4738  0.0378
 6460TIP3   OH240938   5.221   6.768   2.254 -0.1738 -0.2497  0.0892
 6460TIP3    H140939   5.171   6.806   2.326 -0.5759 -0.5657 -0.0170
 6460TIP3    H240940   5.242   6.679   2.283 -0.1311 -0.2971 -0.0875
 6461TIP3   OH240941   3.886   2.794   2.486  0.3704  0.0324 -0.1446
 6461TIP3    H140942   3.941   2.741   2.428  1.6580  0.3409  0.7507
 6461TIP3    H240943   3.909   2.764   2.574 -1.7039 -0.5836  0.2459
 6462TIP3   OH240944   3.843   2.238   1.472  0.0658  0.1614  0.1330
 6462TIP3    H140945   3.788   2.243   1.550 -0.4947 -1.3105 -0.1454
 6462TIP3    H240946   3.922   2.288   1.496 -0.2213  0.0004  1.5269
 6463TIP3   OH240947   0.505   3.200   0.963 -0.1028 -0.2635 -0.0611
 6463TIP3    H140948   0.447   3.134   1.001  0.8807 -1.2678 -0.2765
 6463TIP3    H240949   0.483   3.281   1.009 -1.7494 -0.5904 -0.2113
 6464TIP3   OH240950   2.840   2.827   3.544  0.1529 -0.6842 -0.1403
 6464TIP3    H140951   2.896   2.897   3.510  0.3083 -0.8947 -0.3216
 6464TIP3    H240952   2.812   2.858   3.631  1.3137 -0.9899  0.3572
 6465TIP3   OH240953   2.925   3.938   4.307  0.4217 -0.4256  0.4430
 6465TIP3    H140954   2.866   3.873   4.344 -0.6942 -0.0729 -0.6427
 6465TIP3    H240955   2.940   4.000   4.378  1.3598 -1.7522  1.4354
 6466TIP3   OH240956   3.807   6.015   4.737  0.1186 -0.3034  0.7478
 6466TIP3    H140957   3.738   5.960   4.775 -0.3122 -0.0299  0.3681
 6466TIP3    H240958   3.861   6.040   4.812  1.4916 -2.8454  0.7078
 6467TIP3   OH240959   1.310   0.920   0.984 -0.4934 -0.1599  0.2849
 6467TIP3    H140960   1.233   0.882   0.940 -1.1458 -1.1143  2.1424
 6467TIP3    H240961   1.296   1.014   0.977 -0.5444 -0.2599 -1.5362
 6468TIP3   OH240962   5.835   2.723   2.805 -0.3378 -0.3506  0.1078
 6468TIP3    H140963   5.745   2.708   2.775  0.6213 -4.0485 -1.5137
 6468TIP3    H240964   5.870   2.786   2.742 -1.6920  1.1092  0.7341
 6469TIP3   OH240965   5.855   3.811   0.766  0.0434  0.4035  0.2779
 6469TIP3    H140966   5.855   3.749   0.839 -2.4672  0.3019  0.2525
 6469TIP3    H240967   5.791   3.878   0.792 -0.0867  0.9461 -1.3724
 6470TIP3   OH240968   1.499   0.779   2.025 -0.6557 -0.7389  0.2895
 6470TIP3    H140969   1.409   0.747   2.016 -0.4275 -1.6790  1.1459
 6470TIP3    H240970   1.511   0.840   1.952 -1.3761 -2.0206 -0.9358
 6471TIP3   OH240971   4.089   1.903   0.634  0.3115  0.2909  0.5952
 6471TIP3    H140972   4.062   1.883   0.545 -1.5495  2.3586  0.6133
 6471TIP3    H240973   4.137   1.825   0.662  0.4649 -0.6498 -1.9827
 6472TIP3   OH240974   6.255   4.409   2.085 -0.6191  0.1482  0.1721
 6472TIP3    H140975   6.237   4.356   2.007 -0.5333 -0.5026  0.5886
 6472TIP3    H240976   6.346   4.438   2.073 -0.2308 -0.8704  0.5510
 6473TIP3   OH240977   6.074   6.364   1.449 -0.1931 -0.0880 -0.7990
 6473TIP3    H140978   6.147   6.402   1.399  0.1164  0.1143 -0.2010
 6473TIP3    H240979   6.087   6.270   1.441  1.3304 -0.0869  0.9719
 6474TIP3   OH240980   0.940   5.403   1.586  0.3339 -0.1798 -0.0799
 6474TIP3    H140981   0.911   5.325   1.634 -1.7263  0.8768  0.5136
 6474TIP3    H240982   0.875   5.414   1.516 -0.4717  1.9243  0.9017
 6475TIP3   OH240983   2.039   3.228   3.361  0.0597  0.3230 -0.3941
 6475TIP3    H140984   2.027   3.167   3.434 -1.0865  0.8138 -0.1485
 6475TIP3    H240985   2.113   3.282   3.387  1.3059 -1.1266 -0.7566
 6476TIP3   OH240986   4.576   4.994   4.383 -0.5931  0.1069 -0.0290
 6476TIP3    H140987   4.615   5.020   4.466  0.3080 -3.5802  0.9070
 6476TIP3    H240988   4.482   4.992   4.400 -0.3494 -1.7413  1.3695
 6477TIP3   OH240989   2.179   4.203   0.753  0.2169  0.4563 -0.2410
 6477TIP3    H140990   2.159   4.139   0.685 -0.1909 -0.8738  1.0827
 6477TIP3    H240991   2.207   4.281   0.705 -0.6818 -0.2191 -1.9385
 6478TIP3   OH240992   3.149   6.590   1.600 -0.2317 -0.1453  0.0831
 6478TIP3    H140993   3.139   6.497   1.580  1.0117 -0.1341 -0.6899
 6478TIP3    H240994   3.219   6.620   1.541 -0.9785  1.4029 -0.0731
 6479TIP3   OH240995   4.456   6.109   1.009  0.1059 -0.7030 -0.2874
 6479TIP3    H140996   4.363   6.129   0.999  0.6333  1.7969 -0.9074
 6479TIP3    H240997   4.498   6.151   0.934  1.9955  0.5582  1.3620
 6480TIP3   OH240998   3.074   6.379   4.950  0.5301  0.2394 -0.1666
 6480TIP3    H140999   3.047   6.321   4.880  4.1704 -0.9719 -0.7782
 6480TIP3    H241000   3.089   6.321   5.025  0.4915  0.9506  0.4037
 6481TIP3   OH241001   6.083   5.206   2.041  0.5620 -0.4108  0.4023
 6481TIP3    H141002   6.056   5.171   2.126 -0.0516  2.8413  1.6708
 6481TIP3    H241003   6.009   5.259   2.012  1.6146  0.3254 -1.0808
 6482TIP3   OH241004   1.868   5.043   0.149  0.0395 -0.3153 -0.3604
 6482TIP3    H141005   1.791   5.006   0.106 -0.2004 -0.8477  0.5178
 6482TIP3    H241006   1.841   5.057   0.240  0.1078  2.0610 -0.6511
 6483TIP3   OH241007   2.721   1.112   2.996  0.2923  0.8434 -0.1296
 6483TIP3    H141008   2.712   1.055   2.919  0.5974 -1.2698  1.3149
 6483TIP3    H241009   2.809   1.148   2.989  0.4393  0.4042 -0.6028
 6484TIP3   OH241010   0.182   6.304   2.838  0.2622 -0.6899 -0.0877
 6484TIP3    H141011   0.183   6.233   2.903 -1.5654 -0.5757  0.1267
 6484TIP3    H241012   0.202   6.383   2.888 -0.2857 -0.7163  0.1747
 6485TIP3   OH241013   4.236   0.876   2.079 -0.8015 -0.1164 -0.2855
 6485TIP3    H141014   4.278   0.799   2.118  1.1285  0.1710 -1.6540
 6485TIP3    H241015   4.281   0.951   2.118 -1.1196  0.2505 -0.6121
 6486TIP3   OH241016   3.279   4.596   2.476  0.0749 -0.3274  0.2718
 6486TIP3    H141017   3.325   4.598   2.560  0.8050 -0.6884 -0.1071
 6486TIP3    H241018   3.219   4.522   2.483  1.1187 -1.2226 -0.0109
 6487TIP3   OH241019   6.033   0.291   5.188 -0.3320  0.2187 -0.4118
 6487TIP3    H141020   6.051   0.264   5.278  1.2838  1.2550 -0.3898
 6487TIP3    H241021   6.107   0.346   5.164 -1.0697  0.5154 -2.1587
 6488TIP3   OH241022   3.333   0.478   2.250  0.2864 -0.4964 -0.9500
 6488TIP3    H141023   3.376   0.448   2.169  0.5602 -1.5674 -0.4234
 6488TIP3    H241024   3.354   0.571   2.255  0.6667 -0.5180 -1.8654
 6489TIP3   OH241025   5.148   0.028   0.921  1.1390  0.2268 -0.0660
 6489TIP3    H141026   5.216  -0.034   0.891 -0.4376 -0.8808 -1.5508
 6489TIP3    H241027   5.066  -0.009   0.888 -0.1365  1.8858  1.0942
 6490TIP3   OH241028   5.533   4.689   3.904 -0.6694  0.5906  0.4465
 6490TIP3    H141029   5.527   4.681   3.809  1.5346  1.3121  0.1949
 6490TIP3    H241030   5.535   4.599   3.936 -1.8111  0.3417 -0.1347
 6491TIP3   OH241031   6.342   3.454   0.917  0.4445 -0.2797 -0.4980
 6491TIP3    H141032   6.308   3.398   0.847  0.0759 -1.0622  0.2956
 6491TIP3    H241033   6.407   3.400   0.962  0.0562 -0.0865  0.3039
 6492TIP3   OH241034   0.957   4.754   2.659  0.1418 -0.2747 -0.1000
 6492TIP3    H141035   0.939   4.794   2.574 -0.7776 -0.8048 -0.1678
 6492TIP3    H241036   0.888   4.689   2.671  0.2792 -0.2435  1.0374
 6493TIP3   OH241037   5.477   5.213   1.658 -0.5415 -0.2554 -0.1124
 6493TIP3    H141038   5.487   5.118   1.654 -0.7332 -0.2298 -1.8425
 6493TIP3    H241039   5.386   5.226   1.685 -0.8524 -0.5849 -0.9671
 6494TIP3   OH241040   2.553   5.729   0.268  0.4913  0.1951 -0.2350
 6494TIP3    H141041   2.496   5.805   0.253  0.6931  0.0376 -1.9541
 6494TIP3    H241042   2.641   5.762   0.248  0.5794 -0.4772 -0.9773
 6495TIP3   OH241043   0.769   3.118   3.988  0.0623 -0.1990 -0.8768
 6495TIP3    H141044   0.863   3.106   3.996 -0.0892 -2.0118 -1.3379
 6495TIP3    H241045   0.746   3.079   3.904 -1.5284 -2.9996  0.7156
 6496TIP3   OH241046   0.766   0.248   0.860  0.0764  0.1577  0.2306
 6496TIP3    H141047   0.729   0.329   0.825 -0.0337 -0.1330 -0.3391
 6496TIP3    H241048   0.763   0.186   0.787 -0.2914 -0.5059  0.7848
 6497TIP3   OH241049   3.013   0.878   0.700 -0.4405  0.2567  0.4055
 6497TIP3    H141050   2.922   0.872   0.729 -0.2118 -0.5691  1.0111
 6497TIP3    H241051   3.051   0.794   0.726  0.3641  0.3956 -0.3029
 6498TIP3   OH241052   1.768   3.011   8.782  0.3300 -0.2880  0.3254
 6498TIP3    H141053   1.802   3.089   8.827  1.4600 -1.6114  1.8652
 6498TIP3    H241054   1.796   3.022   8.692 -1.0510  1.9157  0.0765
 6499TIP3   OH241055   3.243   6.030   1.991 -0.2439 -0.2504 -0.7421
 6499TIP3    H141056   3.291   6.070   1.919  1.0728  0.0619  0.2733
 6499TIP3    H241057   3.261   5.936   1.983 -0.6489 -0.2944 -1.1944
 6500TIP3   OH241058   0.237   6.120   2.028 -0.1524  0.0620 -0.2896
 6500TIP3    H141059   0.221   6.026   2.030 -2.1020  0.3424  1.7483
 6500TIP3    H241060   0.327   6.129   1.998  0.3337 -2.4921  0.2069
 6501TIP3   OH241061   2.707   3.056   3.336 -0.8825  0.2244 -0.1683
 6501TIP3    H141062   2.784   3.078   3.283 -0.9882  0.5687 -0.1812
 6501TIP3    H241063   2.743   3.039   3.423 -0.7691  0.1898 -0.2215
 6502TIP3   OH241064   6.307   2.968   4.469  0.4722 -0.3475  0.4466
 6502TIP3    H141065   6.314   2.933   4.558 -0.8617 -0.2031  0.6180
 6502TIP3    H241066   6.229   2.927   4.433  0.8707 -0.2239 -0.5835
 6503TIP3   OH241067   0.742   4.479   3.433  0.3923  0.2116  0.0070
 6503TIP3    H141068   0.831   4.504   3.457  0.7126  0.2953 -1.1839
 6503TIP3    H241069   0.687   4.523   3.497  1.2273 -0.1914  1.0224
 6504TIP3   OH241070   4.499   4.598   0.631  0.2656  0.1384  0.3904
 6504TIP3    H141071   4.485   4.690   0.655 -0.2567 -0.0041  0.6475
 6504TIP3    H241072   4.555   4.563   0.700  0.0492  0.1363  0.5671
 6505TIP3   OH241073   5.650   4.488   8.672  0.3954 -0.2886 -0.3314
 6505TIP3    H141074   5.725   4.471   8.730 -0.7925 -1.1690  1.0509
 6505TIP3    H241075   5.598   4.554   8.719 -0.8382 -1.3746 -0.1009
 6506TIP3   OH241076   3.797   4.968   1.894  0.1941  0.5309  0.1285
 6506TIP3    H141077   3.773   4.907   1.963  0.5172  0.3246  0.0589
 6506TIP3    H241078   3.887   4.993   1.914 -0.4014  2.1458  1.0170
 6507TIP3   OH241079   0.930   0.455   4.082  0.6366  0.4187 -0.2145
 6507TIP3    H141080   1.011   0.405   4.094  0.1952 -0.3197 -0.2292
 6507TIP3    H241081   0.861   0.390   4.092  0.0471  1.0264 -0.3025
 6508TIP3   OH241082   5.186   3.163   1.899  0.0081  0.0416  0.1090
 6508TIP3    H141083   5.152   3.216   1.971 -0.3491 -0.8772  0.6230
 6508TIP3    H241084   5.161   3.074   1.920  1.2835 -0.4521 -0.3513
 6509TIP3   OH241085   5.206   0.430   2.569  0.1472 -0.4546  0.1971
 6509TIP3    H141086   5.135   0.374   2.598 -1.8959  1.0091 -1.5932
 6509TIP3    H241087   5.228   0.399   2.481  1.1750 -0.3575  0.3965
 6510TIP3   OH241088   2.651   3.844   1.935  0.3212 -0.4206 -0.0800
 6510TIP3    H141089   2.712   3.868   1.866  1.3778 -0.2313  0.8894
 6510TIP3    H241090   2.691   3.768   1.977 -0.8927 -1.2607 -0.4166
 6511TIP3   OH241091   2.728   4.933   2.265 -0.7110 -0.1832 -0.2352
 6511TIP3    H141092   2.758   4.873   2.198 -1.4903 -0.4555 -0.3574
 6511TIP3    H241093   2.745   4.887   2.348  0.3677  0.2076 -0.2287
 6512TIP3   OH241094   2.368   2.805   4.115  0.3564 -0.1209  0.2340
 6512TIP3    H141095   2.299   2.768   4.059 -0.5370  0.3384  0.9843
 6512TIP3    H241096   2.429   2.846   4.055 -0.2949 -0.1107 -0.4338
 6513TIP3   OH241097   5.863   4.234   1.453 -0.7221  0.0790 -0.4372
 6513TIP3    H141098   5.957   4.215   1.459 -0.8343 -0.6831 -0.9806
 6513TIP3    H241099   5.846   4.291   1.528  0.6607  2.2953 -1.6703
 6514TIP3   OH241100   6.756   2.078   0.683 -0.6623 -0.0495  0.4322
 6514TIP3    H141101   6.782   2.170   0.675  1.0973 -0.5967 -0.5570
 6514TIP3    H241102   6.793   2.051   0.767 -0.9312  0.0577  0.5872
 6515TIP3   OH241103   4.158   0.265   3.947 -0.7503  0.1821 -0.4287
 6515TIP3    H141104   4.232   0.215   3.982 -0.5855  0.4710 -0.3624
 6515TIP3    H241105   4.169   0.261   3.852 -0.3065  0.7360 -0.4048
 6516TIP3   OH241106   4.335   3.078   2.338  0.6188  0.1935 -0.0760
 6516TIP3    H141107   4.249   3.061   2.376  0.9839 -0.4685  0.4765
 6516TIP3    H241108   4.376   3.140   2.399  1.1087 -0.6750  0.4954
 6517TIP3   OH241109   3.205   3.500   1.125  0.8594  0.5679 -0.0627
 6517TIP3    H141110   3.188   3.486   1.031  0.0274 -0.1967  0.1778
 6517TIP3    H241111   3.213   3.411   1.160  1.3359  0.8585  0.5624
 6518TIP3   OH241112   6.396   2.262   1.575 -0.6453 -0.1348  1.0429
 6518TIP3    H141113   6.361   2.351   1.569  0.3584  0.4873  3.2735
 6518TIP3    H241114   6.491   2.273   1.580 -0.2370 -1.5865 -1.5368
 6519TIP3   OH241115   1.158   0.491   1.021  0.0882 -0.4299 -0.8798
 6519TIP3    H141116   1.121   0.556   1.080  2.7202  0.3869 -0.0019
 6519TIP3    H241117   1.091   0.479   0.954 -1.4796  1.3526  0.2671
 6520TIP3   OH241118   3.805   3.436   2.644  0.1065 -0.1986 -0.4739
 6520TIP3    H141119   3.749   3.409   2.572  0.6620  1.2330 -1.5063
 6520TIP3    H241120   3.774   3.524   2.667  0.6682 -0.1790  0.2481
 6521TIP3   OH241121   0.575   1.249   0.217 -0.2070  0.3236  0.4884
 6521TIP3    H141122   0.570   1.177   0.155  1.0260  0.4666  0.2112
 6521TIP3    H241123   0.665   1.280   0.213 -0.9913  2.7762 -0.4024
 6522TIP3   OH241124   2.753   3.092   0.211 -0.5495 -0.3043 -0.1300
 6522TIP3    H141125   2.831   3.063   0.164 -0.1629  0.8747 -0.2633
 6522TIP3    H241126   2.763   3.056   0.299 -0.0497 -0.4925 -0.2628
 6523TIP3   OH241127   3.845   0.905   2.309 -0.1660 -1.0254  0.0440
 6523TIP3    H141128   3.823   0.814   2.327 -1.1606 -0.7649  0.2423
 6523TIP3    H241129   3.761   0.951   2.314  0.1216 -0.3047 -1.3500
 6524TIP3   OH241130   0.628   0.348   2.914  0.5213 -0.0269  0.2603
 6524TIP3    H141131   0.656   0.423   2.861  2.3409  0.7791  2.1963
 6524TIP3    H241132   0.663   0.272   2.867  1.1875  0.5704 -0.2515
 6525TIP3   OH241133   2.113   0.614   8.842  0.2681  0.1865  0.3201
 6525TIP3    H141134   2.124   0.524   8.811 -1.5321  0.1771 -0.3958
 6525TIP3    H241135   2.018   0.628   8.841 -0.0842  0.3005  5.5836
 6526TIP3   OH241136   4.064   0.369   1.259  0.1440  0.1803  0.3432
 6526TIP3    H141137   4.143   0.389   1.209  2.1174 -0.0127  3.1532
 6526TIP3    H241138   4.061   0.437   1.327 -1.2432 -0.7013  1.2217
 6527TIP3   OH241139   0.737   3.095   2.730  0.0568 -0.2768 -0.0440
 6527TIP3    H141140   0.711   3.006   2.754 -1.7593  0.5676  1.3325
 6527TIP3    H241141   0.688   3.113   2.649  0.5647 -0.5679 -0.4237
 6528TIP3   OH241142   3.106   5.436   3.005 -0.1414 -0.3980 -0.6568
 6528TIP3    H141143   3.073   5.520   2.972  0.4064 -0.0831 -0.4138
 6528TIP3    H241144   3.196   5.455   3.033 -0.6839 -0.5692  1.3312
 6529TIP3   OH241145   3.208   0.471   3.205 -0.3765 -0.3525 -0.2744
 6529TIP3    H141146   3.198   0.539   3.272 -1.1341 -0.6698 -0.0598
 6529TIP3    H241147   3.158   0.504   3.130 -1.5490 -1.1059  0.1636
 6530TIP3   OH241148   4.988   5.722   3.898  0.1023 -0.4284  0.1080
 6530TIP3    H141149   4.939   5.665   3.838 -0.8063  0.6853 -0.2333
 6530TIP3    H241150   4.956   5.699   3.985  0.1395 -0.8150  0.0210
 6531TIP3   OH241151   1.712   1.333   2.908 -0.0728 -0.4377  0.9143
 6531TIP3    H141152   1.691   1.299   2.995  0.0792 -1.9003  0.4018
 6531TIP3    H241153   1.734   1.256   2.856  0.3943  0.4587 -0.2804
 6532TIP3   OH241154   0.267   1.841   3.343 -0.0551  0.2063 -0.3363
 6532TIP3    H141155   0.327   1.810   3.411 -1.5434 -1.4705  0.2916
 6532TIP3    H241156   0.199   1.889   3.390  0.4860  1.6700 -0.9922
 6533TIP3   OH241157   5.125   5.193   3.038  0.4473 -0.3849  0.0149
 6533TIP3    H141158   5.207   5.197   2.988 -0.2270 -2.9936 -1.5147
 6533TIP3    H241159   5.084   5.111   3.009 -2.3762  0.4784  1.2753
 6534TIP3   OH241160   5.804   5.365   4.254  0.3276 -0.0200  0.0505
 6534TIP3    H141161   5.767   5.453   4.249  0.4805 -0.0155 -1.6682
 6534TIP3    H241162   5.865   5.368   4.327  0.7733  1.4860 -0.3484
 6535TIP3   OH241163   6.471   2.641   3.988 -0.1673 -0.4546 -0.2194
 6535TIP3    H141164   6.454   2.639   3.894  1.8381  2.1333 -0.7299
 6535TIP3    H241165   6.387   2.664   4.027 -1.4397 -3.1030 -1.1314
 6536TIP3   OH241166   1.050   0.849   1.817  0.0546 -0.7846 -0.6194
 6536TIP3    H141167   1.016   0.931   1.852 -2.4443 -1.3014 -1.5906
 6536TIP3    H241168   1.111   0.876   1.748 -0.2652  0.2545 -0.5104
 6537TIP3   OH241169   4.270   6.005   1.938  0.1724 -0.6348  0.3777
 6537TIP3    H141170   4.347   5.955   1.966 -0.4259 -2.0261 -0.3911
 6537TIP3    H241171   4.282   6.015   1.844 -0.3111 -0.3681  0.3454
 6538TIP3   OH241172   4.206   5.141   5.095 -0.1682  0.0837 -0.5206
 6538TIP3    H141173   4.215   5.236   5.091  0.5799  0.2240  2.1491
 6538TIP3    H241174   4.130   5.128   5.152  0.3356 -0.8975 -0.0576
 6539TIP3   OH241175   2.532   4.986   0.970 -0.0147  0.4257  0.1532
 6539TIP3    H141176   2.467   4.950   0.909 -1.9189  0.6178  1.9567
 6539TIP3    H241177   2.550   5.074   0.937  0.6630 -0.2139 -1.3026
 6540TIP3   OH241178   0.830   1.236   1.001  0.3561 -0.0610  0.1468
 6540TIP3    H141179   0.748   1.231   1.051  0.0388  2.2601  0.0013
 6540TIP3    H241180   0.802   1.246   0.910  0.8097 -0.1661 -0.0060
 6541TIP3   OH241181   0.724   3.967   1.919 -0.3183 -0.0242  0.4605
 6541TIP3    H141182   0.737   3.900   1.986  2.7932  0.8753  0.8867
 6541TIP3    H241183   0.762   3.929   1.840 -1.5740 -0.0150 -0.1740
 6542TIP3   OH241184   6.667   0.322   0.360 -0.2332  0.6064 -0.4055
 6542TIP3    H141185   6.669   0.417   0.349 -0.0895  0.3660 -3.2214
 6542TIP3    H241186   6.738   0.290   0.305 -0.6008 -1.1862  0.0925
 6543TIP3   OH241187   4.441   5.012   3.888 -0.1133 -0.7872 -0.6410
 6543TIP3    H141188   4.418   4.921   3.865 -1.9142 -0.4006 -0.5139
 6543TIP3    H241189   4.359   5.051   3.917  0.2235  1.3885 -2.3189
 6544TIP3   OH241190   0.742   1.225   2.113 -0.6486  0.0425  0.0172
 6544TIP3    H141191   0.832   1.207   2.140 -0.5849 -1.1544 -0.9026
 6544TIP3    H241192   0.692   1.228   2.194  0.3579  1.7129  0.6177
 6545TIP3   OH241193   3.065   2.048   0.862 -0.9796 -0.2300  0.5432
 6545TIP3    H141194   3.077   2.027   0.769  0.5539  1.5922  0.2767
 6545TIP3    H241195   3.088   1.967   0.907 -2.0258 -1.2429 -0.6431
 6546TIP3   OH241196   3.750   6.024   2.158 -0.4699  0.7921  0.1755
 6546TIP3    H141197   3.830   6.020   2.210 -0.1953 -3.4221 -0.2123
 6546TIP3    H241198   3.680   6.033   2.222  0.0591 -1.0409  1.0763
 6547TIP3   OH241199   2.077   6.184   2.785 -0.4214 -0.2754  0.1554
 6547TIP3    H141200   2.086   6.211   2.877 -0.2370  1.0952 -0.2415
 6547TIP3    H241201   1.987   6.153   2.778 -0.2211 -1.0971  0.9625
 6548TIP3   OH241202   3.392   0.125   1.784  0.0095  0.3501 -0.2626
 6548TIP3    H141203   3.392   0.178   1.863 -1.7285  0.7691 -0.5000
 6548TIP3    H241204   3.300   0.099   1.772  0.5834 -1.5389 -0.9352
 6549TIP3   OH241205   5.388   2.873   3.467  0.2277  0.6444 -0.2020
 6549TIP3    H141206   5.448   2.803   3.440  0.8908  1.0200  0.2558
 6549TIP3    H241207   5.406   2.883   3.561  0.3417  1.6222 -0.3265
 6550TIP3   OH241208   2.237   5.504   2.632 -0.1365  0.4815  0.0925
 6550TIP3    H141209   2.239   5.471   2.542 -0.4938 -1.5572  0.7967
 6550TIP3    H241210   2.323   5.482   2.668 -0.3687  0.3334  0.5650
 6551TIP3   OH241211   4.135   3.541   2.961 -0.0750 -0.3374  0.3873
 6551TIP3    H141212   4.103   3.474   2.901  1.0950  0.1536 -0.8421
 6551TIP3    H241213   4.200   3.496   3.015  1.6387  0.0163 -1.2743
 6552TIP3   OH241214   0.920   4.417   0.472  0.0975 -0.5589  0.1020
 6552TIP3    H141215   0.926   4.383   0.562  2.4940  1.0691  0.6682
 6552TIP3    H241216   1.002   4.390   0.431 -0.4858 -0.3338 -1.2611
 6553TIP3   OH241217   3.388   1.124   1.691 -0.2102 -0.2440  0.0153
 6553TIP3    H141218   3.471   1.147   1.649  0.5138 -3.7991 -0.8051
 6553TIP3    H241219   3.401   1.146   1.784  0.5233  1.8220 -0.5164
 6554TIP3   OH241220   3.810   3.045   4.489  0.2005 -0.2397 -0.3078
 6554TIP3    H141221   3.867   3.085   4.555 -0.1882  0.2116 -0.2403
 6554TIP3    H241222   3.739   3.005   4.539 -0.1797  0.2386 -0.4497
 6555TIP3   OH241223   4.189   0.168   0.939  0.4269 -0.1770 -0.0665
 6555TIP3    H141224   4.120   0.118   0.984  1.2049 -2.4708 -1.2510
 6555TIP3    H241225   4.155   0.182   0.851  0.5432  0.7354  0.0296
 6556TIP3   OH241226   6.713   1.392   0.064 -0.1721  0.5206 -0.5388
 6556TIP3    H141227   6.713   1.401  -0.031  1.0841 -0.9073 -0.7096
 6556TIP3    H241228   6.805   1.383   0.088 -0.4599  0.9710  0.8374
 6557TIP3   OH241229   5.610   5.468   1.615  0.1518 -0.2815  0.8575
 6557TIP3    H141230   5.559   5.388   1.599 -1.3001  0.9310 -1.0410
 6557TIP3    H241231   5.558   5.518   1.677 -0.4767  0.4515 -0.2142
 6558TIP3   OH241232   5.996   0.209   4.630  0.0983  0.2959  0.0194
 6558TIP3    H141233   6.037   0.269   4.692  0.1349  1.0021 -0.6767
 6558TIP3    H241234   5.903   0.230   4.634  0.0629  0.1346  0.0540
 6559TIP3   OH241235   4.085   3.535   1.036 -0.0523  0.0535 -0.6068
 6559TIP3    H141236   4.144   3.610   1.039  1.5317 -1.1572  0.7499
 6559TIP3    H241237   4.000   3.570   1.060  0.6919  1.3937  0.1968
 6560TIP3   OH241238   6.401   0.864   5.039  0.2631 -0.0762 -0.3052
 6560TIP3    H141239   6.411   0.957   5.062 -1.3496  0.3853 -1.2833
 6560TIP3    H241240   6.307   0.853   5.026  0.2373 -2.2094  1.1562
 6561TIP3   OH241241   6.015   1.309   2.860 -0.1278  0.3140  0.4504
 6561TIP3    H141242   6.022   1.276   2.950 -0.9653  0.3374  0.5297
 6561TIP3    H241243   6.059   1.242   2.807 -0.0755  0.0486  0.8222
 6562TIP3   OH241244   2.902   5.551   1.722  0.3710 -0.2046  0.1324
 6562TIP3    H141245   2.969   5.483   1.715  0.2093 -0.5535  1.6416
 6562TIP3    H241246   2.873   5.566   1.632  3.7851  1.2957 -0.8809
 6563TIP3   OH241247   5.460   0.009   2.139  0.2398  0.0685  0.2674
 6563TIP3    H141248   5.511  -0.048   2.197  1.2048  0.7006  0.0695
 6563TIP3    H241249   5.375   0.018   2.181 -0.0973 -1.8844  0.0737
 6564TIP3   OH241250   3.408   3.813   1.996  0.0098 -0.1120 -0.3487
 6564TIP3    H141251   3.438   3.736   1.949  1.4316  0.4013 -0.3544
 6564TIP3    H241252   3.374   3.779   2.079 -0.2134 -0.8140 -0.7236
 6565TIP3   OH241253   5.393   0.129   4.961 -0.7734 -0.0102 -0.4325
 6565TIP3    H141254   5.402   0.218   4.996  0.6914  0.1822 -1.2105
 6565TIP3    H241255   5.300   0.121   4.942 -1.2183  0.7412  1.1849
 6566TIP3   OH241256   1.578   5.112   2.854 -0.6219 -0.3289  0.0396
 6566TIP3    H141257   1.659   5.084   2.896 -0.3343 -0.0971 -0.3533
 6566TIP3    H241258   1.509   5.080   2.912 -0.3080 -1.6867 -0.2889
 6567TIP3   OH241259   4.905   1.590   4.013  0.2339 -0.1220  0.4520
 6567TIP3    H141260   4.930   1.532   4.085 -1.1201 -0.7273  0.4663
 6567TIP3    H241261   4.975   1.655   4.009  1.4151 -1.3106  0.9310
 6568TIP3   OH241262   1.031   5.595   0.224  0.4050  0.0209 -0.0785
 6568TIP3    H141263   0.954   5.539   0.223 -0.4014  1.0916 -1.5553
 6568TIP3    H241264   1.019   5.651   0.301 -0.5882  0.5551 -0.6104
 6569TIP3   OH241265   1.025   0.370   8.763  0.4899 -0.4852  0.8552
 6569TIP3    H141266   1.107   0.383   8.714  0.6328 -0.4138  1.1100
 6569TIP3    H241267   1.012   0.275   8.763  0.6584 -0.5087  0.9490
 6570TIP3   OH241268   4.308   4.748   4.295  0.2910  0.1646  0.4435
 6570TIP3    H141269   4.281   4.783   4.211  1.3134  1.0255  0.4577
 6570TIP3    H241270   4.366   4.674   4.273 -1.8965 -1.6424  0.4131
 6571TIP3   OH241271   5.602   0.463   2.863 -0.1532 -0.4462  0.2499
 6571TIP3    H141272   5.540   0.393   2.882 -0.4667 -0.9963 -2.3217
 6571TIP3    H241273   5.670   0.455   2.930 -1.2198 -1.9104  1.2102
 6572TIP3   OH241274   6.371   3.391   2.576 -0.5066  0.7089 -0.2865
 6572TIP3    H141275   6.463   3.415   2.579 -0.5579  1.2205 -1.7154
 6572TIP3    H241276   6.359   3.355   2.487 -1.4108 -0.5185  0.3007
 6573TIP3   OH241277   1.898   4.470   0.329 -0.7547  0.8623 -0.1839
 6573TIP3    H141278   1.934   4.426   0.406 -0.7806 -0.8977 -1.1299
 6573TIP3    H241279   1.811   4.431   0.318 -2.4152  3.8647  1.1059
 6574TIP3   OH241280   2.931   5.792   1.889 -0.3620  0.3706 -0.2414
 6574TIP3    H141281   2.843   5.800   1.853 -1.4276 -1.1977  1.7498
 6574TIP3    H241282   2.939   5.699   1.911  1.7556  0.5100 -0.2451
 6575TIP3   OH241283   0.625   5.875   3.739 -0.4549  0.3435  0.2180
 6575TIP3    H141284   0.610   5.869   3.645 -0.2673 -0.2676  0.2199
 6575TIP3    H241285   0.562   5.939   3.770 -1.2769 -0.2621 -0.1671
 6576TIP3   OH241286   5.247   5.291   4.580 -0.3547  0.0928  0.3568
 6576TIP3    H141287   5.236   5.297   4.675 -1.5583 -2.2126  0.4366
 6576TIP3    H241288   5.158   5.296   4.545  0.1480  2.2599 -0.8314
 6577TIP3   OH241289   0.795   2.252   2.057 -1.3433  0.0930 -0.3190
 6577TIP3    H141290   0.755   2.339   2.058 -0.6546  0.4463 -1.8359
 6577TIP3    H241291   0.808   2.232   1.965  0.1416 -0.8650  0.0616
 6578TIP3   OH241292   6.699   6.438   1.531  0.5280  0.2735  0.0844
 6578TIP3    H141293   6.710   6.493   1.454 -1.9144  1.8967  0.7823
 6578TIP3    H241294   6.736   6.489   1.603 -0.4257  0.3947  0.5061
 6579TIP3   OH241295   4.728   4.827   3.041 -0.1802 -0.2590 -0.7371
 6579TIP3    H141296   4.807   4.781   3.072  0.6791  0.6725 -1.4925
 6579TIP3    H241297   4.667   4.821   3.114  0.3826 -1.4632 -0.3292
 6580TIP3   OH241298   3.188   4.716   1.601 -0.2195  0.2587 -0.2409
 6580TIP3    H141299   3.253   4.780   1.571 -1.1931  0.6320 -1.6948
 6580TIP3    H241300   3.107   4.767   1.611 -0.8114 -0.5830 -0.6072
 6581TIP3   OH241301   5.113   1.707   0.676 -0.3217  0.3944 -0.0299
 6581TIP3    H141302   5.017   1.705   0.671 -0.2726 -1.1292 -0.9800
 6581TIP3    H241303   5.136   1.623   0.716  0.5983  1.0748  0.9075
 6582TIP3   OH241304   2.863   1.584   0.814  0.4527 -0.2583  0.2676
 6582TIP3    H141305   2.860   1.678   0.795  1.3053 -0.4336 -0.8536
 6582TIP3    H241306   2.787   1.568   0.869 -0.0481  0.9829 -0.0351
 6583TIP3   OH241307   0.163   6.676   1.447  0.8367  0.3179 -0.4056
 6583TIP3    H141308   0.186   6.767   1.430 -1.1087  0.7717 -0.9658
 6583TIP3    H241309   0.105   6.680   1.523  0.1273 -0.3341 -0.8878
 6584TIP3   OH241310   1.809   6.312   4.657  0.2448 -0.4187  0.4806
 6584TIP3    H141311   1.742   6.247   4.680 -1.0371  1.0540  1.0607
 6584TIP3    H241312   1.874   6.305   4.726  0.4578 -1.5077  0.1936
 6585TIP3   OH241313   0.216   1.763   0.285 -0.3918  0.0748 -0.1486
 6585TIP3    H141314   0.146   1.793   0.228  0.8498  0.1590 -1.6803
 6585TIP3    H241315   0.180   1.686   0.330 -2.3987  1.7205  1.2145
 6586TIP3   OH241316   5.764   6.074   1.347  0.0987  0.3961 -0.2206
 6586TIP3    H141317   5.684   6.103   1.391  0.2034  0.1291  0.1549
 6586TIP3    H241318   5.762   5.979   1.356 -0.3683  0.2494 -1.6562
 6587TIP3   OH241319   5.190   5.705   1.267 -0.0282 -0.7530 -0.0740
 6587TIP3    H141320   5.199   5.746   1.353 -3.4119 -2.3234  1.2079
 6587TIP3    H241321   5.250   5.630   1.271 -0.3258 -0.9620  1.0663
 6588TIP3   OH241322   3.213   3.202   2.042  0.2961  0.2440 -0.6365
 6588TIP3    H141323   3.129   3.184   2.084  2.0122 -0.8033  2.6739
 6588TIP3    H241324   3.235   3.120   1.996  0.1552  0.0355 -0.3323
 6589TIP3   OH241325   5.049   4.849   3.495 -0.2865 -0.3519  0.2062
 6589TIP3    H141326   5.067   4.910   3.423 -1.7105 -1.1574 -0.8816
 6589TIP3    H241327   4.965   4.877   3.530  0.9597  0.8255  2.4821
 6590TIP3   OH241328   0.207   4.429   8.823 -0.2460  0.1621 -0.1561
 6590TIP3    H141329   0.155   4.356   8.790 -0.2353  0.6634 -1.3522
 6590TIP3    H241330   0.288   4.389   8.853 -0.4825 -0.3887 -0.2375
 6591TIP3   OH241331   3.524   0.277   2.719  0.2973  0.6739 -0.3732
 6591TIP3    H141332   3.456   0.210   2.731 -0.9131  1.8636 -0.3865
 6591TIP3    H241333   3.606   0.227   2.716 -0.4865 -0.7322  0.4317
 6592TIP3   OH241334   4.234   4.386   4.151  0.7308 -0.9214  0.2868
 6592TIP3    H141335   4.159   4.328   4.140  1.0560 -1.4064  0.5952
 6592TIP3    H241336   4.220   4.427   4.237 -1.3280  2.1642 -1.3187
 6593TIP3   OH241337   4.921   1.154   0.942  0.1959  0.0660 -0.3664
 6593TIP3    H141338   4.938   1.212   1.016 -1.0772  0.7859 -0.6001
 6593TIP3    H241339   5.008   1.126   0.912  0.8082  1.3121  0.1839
 6594TIP3   OH241340   1.610   3.743   3.953  0.1930  0.3761 -0.1584
 6594TIP3    H141341   1.651   3.709   4.033 -0.3904  0.6889  0.2796
 6594TIP3    H241342   1.646   3.687   3.884  0.5619 -0.0271  0.3389
 6595TIP3   OH241343   2.179   6.122   3.325  0.4605  0.2136  0.0939
 6595TIP3    H141344   2.111   6.177   3.365  0.7047  1.3030 -0.9235
 6595TIP3    H241345   2.140   6.035   3.320 -0.1118  0.3704  1.3321
 6596TIP3   OH241346   0.790   5.732   1.044  0.0333 -0.1064  0.1449
 6596TIP3    H141347   0.822   5.795   0.979  0.3070 -1.3834 -1.0058
 6596TIP3    H241348   0.702   5.764   1.066 -0.0613  0.3787 -0.8405
 6597TIP3   OH241349   2.308   6.109   1.313  0.4261  0.4456 -0.5226
 6597TIP3    H141350   2.321   6.025   1.357 -0.9586  0.8398  0.7239
 6597TIP3    H241351   2.213   6.120   1.309  0.5798  1.9784 -0.6259
 6598TIP3   OH241352   2.308   5.123   0.352  0.4931  0.4428 -0.4266
 6598TIP3    H141353   2.384   5.082   0.395 -0.0482  0.4697  0.5763
 6598TIP3    H241354   2.312   5.089   0.262  1.7167  0.4801 -0.4138
 6599TIP3   OH241355   0.272   2.453   0.788  0.1668 -0.1510 -0.0551
 6599TIP3    H141356   0.204   2.387   0.771 -0.5434  0.7710 -0.8998
 6599TIP3    H241357   0.261   2.518   0.718  0.5736  1.0850  0.9931
 6600TIP3   OH241358   0.566   3.251   2.264 -0.0595  0.3921 -0.9834
 6600TIP3    H141359   0.486   3.301   2.278  0.1756  0.4973  0.0986
 6600TIP3    H241360   0.622   3.309   2.213  0.2594  1.3121  0.3566
 6601TIP3   OH241361   5.588   1.768   0.293 -0.0148  0.0241  0.6267
 6601TIP3    H141362   5.514   1.761   0.232  1.7261 -0.3828 -1.6016
 6601TIP3    H241363   5.548   1.786   0.378 -2.6877 -0.7519 -0.3566
 6602TIP3   OH241364   3.374   4.507   4.489  0.4472  0.2335 -0.2506
 6602TIP3    H141365   3.460   4.538   4.517  0.7485 -0.4264 -0.4478
 6602TIP3    H241366   3.373   4.521   4.395  0.3710  0.1486 -0.2624
 6603TIP3   OH241367   5.772   2.368   0.903  0.4480 -0.4119 -0.1150
 6603TIP3    H141368   5.689   2.337   0.867  0.4306 -1.4259  0.7459
 6603TIP3    H241369   5.771   2.463   0.888 -1.9156 -0.0149  1.9026
 6604TIP3   OH241370   6.159   4.074   2.476 -0.1766  0.1836 -0.1639
 6604TIP3    H141371   6.063   4.077   2.471 -0.1752 -0.3468 -0.5407
 6604TIP3    H241372   6.178   4.068   2.570 -0.4885  0.8799 -0.0468
 6605TIP3   OH241373   1.908   3.092   3.585 -0.2064 -0.1544 -0.0485
 6605TIP3    H141374   1.882   3.034   3.656 -0.8703 -0.6344 -0.6625
 6605TIP3    H241375   1.918   3.178   3.626 -1.4754 -0.2340  0.4717
 6606TIP3   OH241376   6.486   6.163   1.032  0.4474 -0.8217 -0.2069
 6606TIP3    H141377   6.411   6.192   1.083  0.6006 -0.8542  0.0416
 6606TIP3    H241378   6.455   6.086   0.986  0.2205 -0.6191 -0.3917
 6607TIP3   OH241379   1.724   1.434   3.273 -0.0312 -0.8295 -0.5590
 6607TIP3    H141380   1.812   1.425   3.307 -0.4706  0.7255  1.1478
 6607TIP3    H241381   1.730   1.505   3.210 -0.5263  1.3043  1.6697
 6608TIP3   OH241382   1.031   1.823   1.032 -0.5652  0.3503  0.5531
 6608TIP3    H141383   0.953   1.780   1.069 -1.2374  1.6450  0.7132
 6608TIP3    H241384   1.025   1.806   0.939 -1.1745  0.5998  0.5359
 6609TIP3   OH241385   4.699   3.029   0.795  0.4879  0.0792 -0.2015
 6609TIP3    H141386   4.619   3.077   0.817 -0.9974 -1.6741 -1.4102
 6609TIP3    H241387   4.768   3.072   0.845 -1.1201  1.9888  0.4953
 6610TIP3   OH241388   2.871   5.785   0.774  0.0983 -0.0852  0.5028
 6610TIP3    H141389   2.902   5.714   0.719 -1.0683 -0.4005  0.2097
 6610TIP3    H241390   2.846   5.854   0.713 -0.8668 -0.3014  0.6345
 6611TIP3   OH241391   5.935   3.999   0.151  0.5269  0.6093  0.5266
 6611TIP3    H141392   5.839   4.000   0.143  0.6788  1.2268 -1.7301
 6611TIP3    H241393   5.960   4.091   0.148  1.4415  0.4406 -4.1154
 6612TIP3   OH241394   6.242   0.081   4.602 -0.5878  0.0962  0.0641
 6612TIP3    H141395   6.250   0.024   4.525  2.0814  0.8668 -0.3208
 6612TIP3    H241396   6.149   0.105   4.604 -1.0574 -1.2864 -1.9175
 6613TIP3   OH241397   2.380   5.759   0.747 -0.6934  0.6014  0.2622
 6613TIP3    H141398   2.425   5.708   0.680 -0.4065  0.9915  0.1511
 6613TIP3    H241399   2.319   5.814   0.698 -0.3909  0.9810  0.3053
 6614TIP3   OH241400   4.373   3.447   2.312  0.5466 -0.3632  0.4598
 6614TIP3    H141401   4.389   3.541   2.303 -0.1730 -0.3612 -1.1225
 6614TIP3    H241402   4.457   3.406   2.292  0.8285 -0.0763  1.0288
 6615TIP3   OH241403   0.777   5.006   0.844 -0.0229  0.5702  0.2318
 6615TIP3    H141404   0.750   5.054   0.765 -1.2126 -0.0867  0.2173
 6615TIP3    H241405   0.846   4.947   0.813  0.3615  1.1583 -0.0617
 6616TIP3   OH241406   1.921   3.170   3.939  0.2575  0.2350  0.3480
 6616TIP3    H141407   1.859   3.100   3.919  1.3350 -0.0916 -2.3374
 6616TIP3    H241408   1.904   3.236   3.871  1.6942  0.9001  0.6022
 6617TIP3   OH241409   0.467   0.902   1.225  0.1290  0.2913  0.1043
 6617TIP3    H141410   0.440   0.842   1.155 -0.2845  0.4758  0.1045
 6617TIP3    H241411   0.563   0.898   1.223  0.2072  1.6024 -1.6217
 6618TIP3   OH241412   1.966   0.152   0.931  0.3978 -0.4109  0.4570
 6618TIP3    H141413   1.985   0.139   0.838 -0.9129  0.3583  0.0520
 6618TIP3    H241414   1.995   0.071   0.973 -1.7829 -2.0926 -1.0696
 6619TIP3   OH241415   4.121   1.971   0.896 -0.7372 -0.5316  0.4657
 6619TIP3    H141416   4.123   1.971   0.801 -1.5546  0.4271  0.4311
 6619TIP3    H241417   4.110   1.879   0.920  2.8105 -1.2977 -0.2159
 6620TIP3   OH241418   1.313   6.654   2.386  0.5229 -0.4981  0.5116
 6620TIP3    H141419   1.350   6.612   2.308 -0.3139  1.1717 -0.8576
 6620TIP3    H241420   1.235   6.602   2.407 -0.0833 -0.1166 -0.7053
 6621TIP3   OH241421   2.799   4.506   1.269  0.9407  0.1667 -0.1075
 6621TIP3    H141422   2.775   4.492   1.177  1.3727 -0.0150 -0.1945
 6621TIP3    H241423   2.868   4.572   1.267 -0.4589  1.7128  0.2460
 6622TIP3   OH241424   2.785   6.351   2.466  0.2558  0.3470  0.7347
 6622TIP3    H141425   2.859   6.307   2.508  0.1399 -0.6346 -0.0709
 6622TIP3    H241426   2.822   6.433   2.433  1.6500 -1.1570 -1.7774
 6623TIP3   OH241427   4.665   2.905   3.635  0.0456  0.6953 -0.3976
 6623TIP3    H141428   4.747   2.859   3.654 -0.0341  1.0098  0.7591
 6623TIP3    H241429   4.596   2.841   3.652  0.0206  0.5616 -0.9667
 6624TIP3   OH241430   4.718   1.219   3.497 -0.3001  0.2126  0.0924
 6624TIP3    H141431   4.661   1.271   3.441 -1.7157 -0.0971  1.1890
 6624TIP3    H241432   4.763   1.284   3.552 -1.0671  0.3709  0.5461
 6625TIP3   OH241433   4.493   3.174   0.395 -1.0099 -0.0960 -0.3295
 6625TIP3    H141434   4.494   3.202   0.304 -0.8727 -0.4812 -0.4516
 6625TIP3    H241435   4.414   3.121   0.403 -0.4081 -1.0468 -0.5396
 6626TIP3   OH241436   1.703   5.421   2.499  0.7622  0.0418  0.0868
 6626TIP3    H141437   1.701   5.335   2.457 -0.7361 -0.0367  0.2408
 6626TIP3    H241438   1.635   5.471   2.453  4.7731  2.9019 -3.4744
 6627TIP3   OH241439   0.280   1.268   1.238  0.5622  0.4324 -0.0317
 6627TIP3    H141440   0.261   1.189   1.289 -0.4231  0.8405  0.2615
 6627TIP3    H241441   0.375   1.268   1.228  0.5654 -0.9412 -0.2845
 6628TIP3   OH241442   3.895   5.740   2.691  0.6080  0.0520  0.3639
 6628TIP3    H141443   3.932   5.655   2.668  0.4309  0.2883 -0.8168
 6628TIP3    H241444   3.940   5.763   2.773 -0.0452 -1.6047  1.2352
 6629TIP3   OH241445   2.715   0.048   3.736 -0.1973  0.1870  0.0104
 6629TIP3    H141446   2.762   0.054   3.653 -3.0690 -1.9538 -1.9585
 6629TIP3    H241447   2.623   0.056   3.712 -1.1311  0.0026  3.0938
 6630TIP3   OH241448   4.828   3.428   4.089 -0.2629 -0.0210 -0.2459
 6630TIP3    H141449   4.831   3.522   4.104 -0.7582 -0.2452  1.5189
 6630TIP3    H241450   4.762   3.396   4.150  1.5618 -1.8036  0.9375
 6631TIP3   OH241451   4.276   2.916   0.090  0.3095 -0.4472 -0.1590
 6631TIP3    H141452   4.198   2.872   0.057  0.2524 -0.2563 -0.2816
 6631TIP3    H241453   4.248   3.007   0.102  0.8250 -0.1174 -1.2996
 6632TIP3   OH241454   1.472   2.786   1.898  0.0780 -0.3237 -0.4916
 6632TIP3    H141455   1.565   2.781   1.917 -0.0595 -1.6952 -0.0695
 6632TIP3    H241456   1.463   2.747   1.811 -0.3078 -1.9510  0.2499
 6633TIP3   OH241457   4.075   1.008   0.517 -0.3165  0.1352 -0.6104
 6633TIP3    H141458   3.980   1.010   0.527 -0.5865  3.7236 -2.0774
 6633TIP3    H241459   4.093   0.936   0.457 -2.0639 -0.7798 -0.0684
 6634TIP3   OH241460   2.445   5.039   2.541 -0.4665 -0.8185  0.5657
 6634TIP3    H141461   2.450   5.100   2.615 -1.4677 -0.5261  0.4132
 6634TIP3    H241462   2.534   5.005   2.532  0.1669  0.7045  0.5932
 6635TIP3   OH241463   2.337   1.884   1.148  0.3789  0.0069 -0.1350
 6635TIP3    H141464   2.260   1.886   1.090 -0.9383 -0.6923  1.4931
 6635TIP3    H241465   2.368   1.794   1.143  1.8355  0.5500 -1.6433
 6636TIP3   OH241466   3.115   2.957   2.974  0.4268  0.4941 -0.0512
 6636TIP3    H141467   3.032   2.919   3.000  2.0892 -2.1931  1.8560
 6636TIP3    H241468   3.109   2.965   2.879 -1.5754 -0.7011 -0.0813
 6637TIP3   OH241469   1.360   0.449   1.951  0.9528  0.1597 -0.1119
 6637TIP3    H141470   1.279   0.405   1.926  0.9871 -0.1146  0.2550
 6637TIP3    H241471   1.332   0.537   1.976  0.1778 -1.0099  3.7392
 6638TIP3   OH241472   2.911   1.478   3.573  0.5138  0.0548  0.0227
 6638TIP3    H141473   2.997   1.513   3.596  0.7992 -0.1089 -0.7817
 6638TIP3    H241474   2.864   1.476   3.656  1.6677 -0.9107  0.6973
 6639TIP3   OH241475   3.033   3.350   3.549  0.0360  0.0316  0.2794
 6639TIP3    H141476   2.979   3.359   3.471 -0.2779  0.4158  0.5441
 6639TIP3    H241477   2.981   3.388   3.620  1.2547  1.8102  0.2804
 6640TIP3   OH241478   1.378   5.028   3.308 -0.2523  0.0410 -0.2561
 6640TIP3    H141479   1.301   5.084   3.324  0.1460  0.5811 -0.2130
 6640TIP3    H241480   1.451   5.077   3.344 -0.0821 -1.1778  1.1680
 6641TIP3   OH241481   3.017   6.114   0.557  0.1340  0.0172 -0.6035
 6641TIP3    H141482   2.946   6.175   0.578 -1.8532 -2.0672 -0.8855
 6641TIP3    H241483   3.094   6.151   0.601 -0.9912  2.5788 -0.6030
 6642TIP3   OH241484   1.294   3.702   1.089 -0.7934  0.1361  0.2228
 6642TIP3    H141485   1.339   3.728   1.008 -1.7978  0.9572 -0.0877
 6642TIP3    H241486   1.365   3.686   1.151 -0.0502  1.9721 -0.0811
 6643TIP3   OH241487   6.423   1.703   4.160 -0.4635  0.0681 -0.5949
 6643TIP3    H141488   6.476   1.696   4.239  0.1157  2.3773 -0.7108
 6643TIP3    H241489   6.463   1.642   4.099 -0.7918 -1.6009  0.7668
 6644TIP3   OH241490   0.812   0.539   0.628 -0.4472  0.0329 -0.2322
 6644TIP3    H141491   0.726   0.500   0.643 -0.2099 -0.4891 -0.2070
 6644TIP3    H241492   0.816   0.555   0.533 -0.4532 -0.2269 -0.2763
 6645TIP3   OH241493   4.206   0.322   3.649 -0.6523 -0.1802  0.3807
 6645TIP3    H141494   4.114   0.308   3.624 -0.2438 -0.1030 -1.3225
 6645TIP3    H241495   4.239   0.381   3.582  0.9321 -1.0833  0.3262
 6646TIP3   OH241496   4.933   4.155   2.654  0.6071 -0.3161  0.2397
 6646TIP3    H141497   4.870   4.086   2.635  1.3237 -1.3351  1.3566
 6646TIP3    H241498   4.883   4.237   2.647 -0.3076 -0.9422 -0.9133
 6647TIP3   OH241499   5.442   6.420   3.764  0.2783 -0.1537 -0.5234
 6647TIP3    H141500   5.520   6.422   3.821  1.2402 -0.0190 -1.7954
 6647TIP3    H241501   5.428   6.328   3.745  2.0645 -0.0373 -2.7841
 6648TIP3   OH241502   0.729   0.952   1.973  0.0553  0.2524  0.6877
 6648TIP3    H141503   0.809   1.004   1.980  0.7069 -0.4752 -0.7589
 6648TIP3    H241504   0.662   1.005   2.016  1.1366  1.2682  1.1932
 6649TIP3   OH241505   3.292   1.524   3.225 -0.7148 -0.4291 -0.2607
 6649TIP3    H141506   3.325   1.568   3.146  0.1359 -2.6736 -1.2403
 6649TIP3    H241507   3.370   1.502   3.275 -1.1149 -0.9210  0.1586
 6650TIP3   OH241508   6.191   6.101   3.503 -0.1368  0.9777  0.5339
 6650TIP3    H141509   6.118   6.045   3.474  0.7267  0.1125 -0.0225
 6650TIP3    H241510   6.264   6.040   3.516  0.1311  1.6344  2.4206
 6651TIP3   OH241511   3.939   0.986   0.808  1.0742  0.2700 -0.5252
 6651TIP3    H141512   3.918   0.989   0.715 -0.1276 -0.7046 -0.3110
 6651TIP3    H241513   3.870   0.932   0.847  0.4164  2.2449  1.2442
 6652TIP3   OH241514   1.410   1.651   2.306 -0.4162 -0.0485  0.1870
 6652TIP3    H141515   1.454   1.636   2.390  1.3242  2.8264 -0.0547
 6652TIP3    H241516   1.340   1.713   2.326  0.1057  0.7785 -0.4504
 6653TIP3   OH241517   4.376   4.161   3.018 -0.9866 -0.5067 -0.4804
 6653TIP3    H141518   4.415   4.162   2.930 -1.5786  0.6896 -0.7584
 6653TIP3    H241519   4.444   4.195   3.075 -0.4248 -1.7568 -0.3786
 6654TIP3   OH241520   2.487   1.400   2.497  0.5683  0.3313 -0.1837
 6654TIP3    H141521   2.554   1.417   2.431 -1.5619  0.4800 -2.4778
 6654TIP3    H241522   2.439   1.483   2.503 -0.6211 -0.3346 -0.1275
 6655TIP3   OH241523   2.963   0.505   1.389 -0.7892 -0.3248 -0.6632
 6655TIP3    H141524   2.928   0.511   1.301 -2.4955 -1.4116 -0.1023
 6655TIP3    H241525   3.019   0.583   1.398 -1.8138  0.6402 -2.1588
 6656TIP3   OH241526   0.062   5.316   3.162  0.1789 -0.5075 -0.2606
 6656TIP3    H141527   0.053   5.243   3.101 -3.7181 -0.4452 -0.0211
 6656TIP3    H241528   0.001   5.296   3.233  1.2289  1.5737  1.3460
 6657TIP3   OH241529   4.956   6.374   4.819  0.0787 -0.4696  0.0545
 6657TIP3    H141530   4.942   6.324   4.900 -0.3955 -0.1269  0.1886
 6657TIP3    H241531   4.935   6.464   4.844 -0.4789 -0.4270 -0.5624
 6658TIP3   OH241532   6.553   4.572   4.346 -0.3573  0.6841 -0.7182
 6658TIP3    H141533   6.583   4.558   4.436  1.2278 -0.9543 -1.4262
 6658TIP3    H241534   6.614   4.636   4.310  0.0980  0.0466 -1.1061
 6659TIP3   OH241535   3.550   5.304   3.446  0.0314 -0.2544  0.0567
 6659TIP3    H141536   3.497   5.330   3.521 -0.8285  0.5512 -0.8046
 6659TIP3    H241537   3.535   5.372   3.381  2.4955  0.2334 -0.0785
 6660TIP3   OH241538   1.149   6.778   3.391 -0.3307 -0.1644  0.0870
 6660TIP3    H141539   1.078   6.841   3.400  0.2751  0.3138  1.9651
 6660TIP3    H241540   1.132   6.734   3.308 -1.7456  1.2517 -0.4173
 6661TIP3   OH241541   1.684   6.686   0.201 -0.2956  0.2353 -0.1711
 6661TIP3    H141542   1.738   6.609   0.183  2.4565  1.8066  0.9067
 6661TIP3    H241543   1.717   6.753   0.142 -1.9264  0.9546 -0.3209
 6662TIP3   OH241544   4.963   3.021   2.863  0.2372  0.2835 -0.2818
 6662TIP3    H141545   4.957   2.969   2.943 -0.7703  0.4691 -0.2205
 6662TIP3    H241546   4.928   3.107   2.887  0.5728  0.5513 -0.7397
 6663TIP3   OH241547   5.913   4.093   4.305 -0.3803 -0.7329 -0.0484
 6663TIP3    H141548   5.950   4.025   4.360  1.6376  1.2334  1.1786
 6663TIP3    H241549   5.913   4.172   4.360 -0.7982  0.7107 -1.9966
 6664TIP3   OH241550   4.154   2.912   3.677 -0.1860  0.4205  0.0547
 6664TIP3    H141551   4.158   2.817   3.670 -0.5887  0.3802  0.2860
 6664TIP3    H241552   4.242   2.938   3.704 -0.4376 -0.0257  1.4041
 6665TIP3   OH241553   0.140   0.930   1.504  0.0884 -0.5001 -0.3599
 6665TIP3    H141554   0.233   0.951   1.503  0.1108 -0.4613  0.9636
 6665TIP3    H241555   0.109   0.960   1.589 -1.1327 -0.5648 -0.7524
 6666TIP3   OH241556   3.672   6.525   3.370  0.2928  0.3038 -0.3575
 6666TIP3    H141557   3.583   6.533   3.337  0.1478  1.4660  0.2803
 6666TIP3    H241558   3.685   6.602   3.424  1.0024 -0.8647  1.2069
 6667TIP3   OH241559   2.589   1.253   4.067  0.7122 -0.0735  0.6458
 6667TIP3    H141560   2.612   1.182   4.006 -0.1382  0.2899 -0.1289
 6667TIP3    H241561   2.618   1.222   4.152  2.4826 -0.3546 -0.0137
 6668TIP3   OH241562   4.024   0.341   2.246  0.3520  0.0155  0.6727
 6668TIP3    H141563   4.075   0.271   2.207  1.0018  0.7087  0.2486
 6668TIP3    H241564   3.994   0.394   2.172  2.1333  1.7145  1.0666
 6669TIP3   OH241565   6.236   3.136   2.983  0.3495 -0.5206  0.2827
 6669TIP3    H141566   6.224   3.214   2.929  1.2331 -0.4100  0.2275
 6669TIP3    H241567   6.323   3.104   2.959  0.7997 -0.4141  1.6885
 6670TIP3   OH241568   0.953   0.577   3.249 -0.1847  0.2717 -0.2913
 6670TIP3    H141569   0.930   0.495   3.294  0.1920  0.0979 -0.4117
 6670TIP3    H241570   0.924   0.564   3.159  2.4667 -0.9212 -1.0954
 6671TIP3   OH241571   3.214   6.219   2.247 -0.3263 -0.1423 -0.1377
 6671TIP3    H141572   3.303   6.253   2.231 -0.6090  1.4527  1.3298
 6671TIP3    H241573   3.226   6.150   2.312 -0.1613  0.2842  0.2958
 6672TIP3   OH241574   4.935   4.596   0.024  0.1123  0.5043 -0.6238
 6672TIP3    H141575   4.965   4.671  -0.027 -1.3322  1.1642 -0.5390
 6672TIP3    H241576   4.923   4.630   0.113 -1.1905  0.3702 -0.7278
 6673TIP3   OH241577   2.246   6.175   4.721  0.4810 -0.5118  0.3253
 6673TIP3    H141578   2.245   6.081   4.707 -0.8543 -0.3392 -0.9928
 6673TIP3    H241579   2.285   6.211   4.641 -1.3366  0.1606 -0.3133
 6674TIP3   OH241580   5.257   5.643   4.187  0.0828 -0.0927  0.5067
 6674TIP3    H141581   5.200   5.715   4.159  1.1257  0.4157 -0.3777
 6674TIP3    H241582   5.252   5.580   4.115 -0.0047 -0.4368  0.8106
 6675TIP3   OH241583   6.539   2.562   2.898 -0.0351  0.4619  0.6111
 6675TIP3    H141584   6.534   2.658   2.901 -0.4631  0.4217  1.3642
 6675TIP3    H241585   6.535   2.535   2.990  1.8309 -0.2043  0.5376
 6676TIP3   OH241586   0.927   0.360   3.438 -0.0800 -0.6808 -0.6917
 6676TIP3    H141587   0.981   0.290   3.474  0.2017 -1.6155 -2.7683
 6676TIP3    H241588   0.846   0.356   3.488  0.9444 -0.6382  1.0587
 6677TIP3   OH241589   0.607   2.278   3.132  0.2838 -0.7938  0.1444
 6677TIP3    H141590   0.686   2.328   3.111 -0.0187  0.4468  1.7875
 6677TIP3    H241591   0.535   2.331   3.097  0.1063 -1.4788 -0.5610
 6678TIP3   OH241592   1.531   2.926   8.860 -0.2405  0.1615  0.3633
 6678TIP3    H141593   1.612   2.956   8.819  0.5055 -0.4232  1.3573
 6678TIP3    H241594   1.548   2.833   8.880 -1.3927 -0.1381  0.0145
 6679TIP3   OH241595   0.473   2.409   4.224  0.0479  0.2248  0.3823
 6679TIP3    H141596   0.552   2.364   4.254  0.4525  0.4401 -0.3424
 6679TIP3    H241597   0.501   2.499   4.209 -0.5096  0.4794  0.8004
 6680TIP3   OH241598   5.663   3.955   0.033  0.4260 -0.0734 -0.0349
 6680TIP3    H141599   5.612   3.974  -0.045  0.2319  0.5031  0.2239
 6680TIP3    H241600   5.671   3.860   0.035  0.0993 -0.1125 -0.5389
 6681TIP3   OH241601   2.918   6.658   1.211  0.0534 -0.3830 -0.4315
 6681TIP3    H141602   2.830   6.694   1.211  0.6431  1.2556 -1.7056
 6681TIP3    H241603   2.949   6.669   1.301 -1.2679 -1.6676  0.2040
 6682TIP3   OH241604   2.085   4.566   1.324 -0.8394  0.3224 -0.2861
 6682TIP3    H141605   2.046   4.532   1.405 -0.8449  0.0689 -0.3945
 6682TIP3    H241606   2.164   4.513   1.312 -1.3981 -0.3494 -1.0179
 6683TIP3   OH241607   6.409   2.893   1.453  0.3117 -0.5474 -0.1865
 6683TIP3    H141608   6.391   2.799   1.455  0.5469 -0.5883  0.0174
 6683TIP3    H241609   6.336   2.930   1.404  0.4401 -0.8867 -0.6380
 6684TIP3   OH241610   1.953   1.716   0.916  0.3337  0.2062  0.0419
 6684TIP3    H141611   2.002   1.750   0.842  0.1692 -0.2526 -0.2847
 6684TIP3    H241612   1.984   1.626   0.926 -0.3863 -0.0662 -0.1241
 6685TIP3   OH241613   0.751   6.044   2.095  0.3073 -0.0068 -0.2243
 6685TIP3    H141614   0.769   6.070   2.005 -2.5083 -1.1128 -1.2222
 6685TIP3    H241615   0.734   5.950   2.090 -0.6284  0.0473  1.2960
 6686TIP3   OH241616   0.210   3.027   8.648  0.6470  0.1431  0.2751
 6686TIP3    H141617   0.260   2.962   8.599  1.6613  0.4532  0.8674
 6686TIP3    H241618   0.216   3.107   8.596  0.1509  0.0004 -0.0089
 6687TIP3   OH241619   6.723   0.488   3.892  0.0741 -0.4239  0.4383
 6687TIP3    H141620   6.648   0.448   3.937  1.1685 -1.7543  1.1749
 6687TIP3    H241621   6.773   0.531   3.962 -0.2119  0.8092 -0.1074
 6688TIP3   OH241622   1.046   0.310   0.682  0.1496  0.2598  0.1889
 6688TIP3    H141623   1.129   0.355   0.668  0.3603 -0.0894  0.3066
 6688TIP3    H241624   0.998   0.366   0.743  0.5006  0.2119  0.5096
 6689TIP3   OH241625   1.573   1.635   2.868 -0.0571 -0.1972 -0.2244
 6689TIP3    H141626   1.602   1.598   2.951  0.1257 -0.6634 -0.4958
 6689TIP3    H241627   1.653   1.666   2.827  0.1526 -1.9159 -1.1911
 6690TIP3   OH241628   6.455   0.454   0.720 -0.0159  0.3595 -0.6837
 6690TIP3    H141629   6.397   0.418   0.786  0.7944  1.3886  0.6288
 6690TIP3    H241630   6.444   0.396   0.644 -0.8854 -0.9051  0.3695
 6691TIP3   OH241631   3.420   4.183   0.076  0.1961 -0.1252  0.3661
 6691TIP3    H141632   3.475   4.164  -0.000  1.6249 -0.0989  1.3595
 6691TIP3    H241633   3.333   4.150   0.052  1.1565 -2.2363 -0.3615
 6692TIP3   OH241634   5.704   4.856   3.499 -0.5136 -0.1917  0.5652
 6692TIP3    H141635   5.692   4.935   3.552 -0.4741  0.7296 -0.7549
 6692TIP3    H241636   5.760   4.800   3.552 -1.9978 -0.1304  2.3229
 6693TIP3   OH241637   2.628   0.532   0.495 -0.5518  0.2650 -0.9056
 6693TIP3    H141638   2.681   0.543   0.417  0.7715  1.7622  0.1412
 6693TIP3    H241639   2.691   0.534   0.568 -1.8352  0.0239  0.2602
 6694TIP3   OH241640   6.000   0.393   1.862  0.3535 -0.2583  0.0662
 6694TIP3    H141641   6.054   0.323   1.898  1.4438  0.3129 -0.3880
 6694TIP3    H241642   5.989   0.454   1.935 -0.3044 -0.7241  0.3638
 6695TIP3   OH241643   6.514   5.306   4.887 -0.4374  0.0513 -0.6315
 6695TIP3    H141644   6.434   5.308   4.940 -1.1157  1.4987 -1.6286
 6695TIP3    H241645   6.559   5.387   4.910  2.3158 -2.0274  2.0902
 6696TIP3   OH241646   0.815   3.801   1.699  0.4888  0.1101 -0.0796
 6696TIP3    H141647   0.847   3.873   1.645 -1.5167  0.8123 -0.4107
 6696TIP3    H241648   0.878   3.730   1.684  2.2154  1.5769 -0.1599
 6697TIP3   OH241649   3.923   4.942   3.158  0.3820 -0.1781 -0.1610
 6697TIP3    H141650   3.986   4.882   3.119  0.4298 -1.3250  1.5539
 6697TIP3    H241651   3.876   4.889   3.223  1.8190  2.0045  2.9544
 6698TIP3   OH241652   4.204   0.879   3.607  0.3744 -0.2425 -0.6292
 6698TIP3    H141653   4.285   0.928   3.619  0.2298 -0.3547  1.0240
 6698TIP3    H241654   4.143   0.918   3.669 -0.5815 -0.7269 -1.2366
 6699TIP3   OH241655   4.626   3.837   1.710 -0.3987 -0.5903 -0.1501
 6699TIP3    H141656   4.665   3.772   1.651  0.4171 -1.9221  1.7760
 6699TIP3    H241657   4.694   3.854   1.776 -1.8956 -0.4917  1.4239
 6700TIP3   OH241658   3.702   4.412   0.832 -0.0062 -0.6496  0.5356
 6700TIP3    H141659   3.648   4.480   0.871  0.2398 -0.7152  0.9956
 6700TIP3    H241660   3.736   4.362   0.907 -0.0604 -1.1776  0.2106
 6701TIP3   OH241661   1.944   5.613   3.184  0.3641 -0.0419 -0.1752
 6701TIP3    H141662   1.866   5.634   3.132  0.1003 -0.5403  0.0158
 6701TIP3    H241663   1.990   5.547   3.133 -0.2650 -1.0631  0.5493
 6702TIP3   OH241664   3.816   1.296   1.000  0.8427 -0.7716  0.0111
 6702TIP3    H141665   3.755   1.369   1.017  1.3783 -0.5078  0.8706
 6702TIP3    H241666   3.812   1.283   0.905 -0.1330 -0.3896 -0.0108
 6703TIP3   OH241667   3.594   4.462   3.429 -0.5814  0.2570 -0.3205
 6703TIP3    H141668   3.663   4.520   3.463 -0.6651  0.0084  0.2976
 6703TIP3    H241669   3.611   4.457   3.335  0.3700  0.0362 -0.1504
 6704TIP3   OH241670   6.114   4.523   0.121 -0.0757  0.2541  0.1139
 6704TIP3    H141671   6.136   4.530   0.214 -0.0267  1.5251  0.0203
 6704TIP3    H241672   6.187   4.473   0.083  0.0575 -0.0073  0.6918
 6705TIP3   OH241673   0.091   3.199   2.347  0.4136 -0.5215  0.5001
 6705TIP3    H141674   0.135   3.276   2.385  0.7065 -0.3006 -0.2735
 6705TIP3    H241675   0.151   3.127   2.362 -0.4900 -0.9249  2.5418
 6706TIP3   OH241676   6.247   0.818   2.362  0.5675 -0.0580 -0.3718
 6706TIP3    H141677   6.164   0.864   2.353  0.1549 -0.6295  0.4364
 6706TIP3    H241678   6.285   0.852   2.444  0.3503 -0.9917  0.1307
 6707TIP3   OH241679   5.153   3.013   0.903 -0.7009  0.6409 -0.1166
 6707TIP3    H141680   5.091   3.085   0.902 -1.9903 -0.4065 -1.2998
 6707TIP3    H241681   5.101   2.937   0.875  1.1793 -0.2193 -1.5065
 6708TIP3   OH241682   1.520   1.471   0.034 -0.2181  0.4441  0.2089
 6708TIP3    H141683   1.452   1.404   0.026  0.9888 -0.8505  0.3466
 6708TIP3    H241684   1.490   1.543  -0.021 -2.0660  0.2352  0.8969
 6709TIP3   OH241685   5.868   2.496   2.599  0.0620 -0.0805  0.2424
 6709TIP3    H141686   5.850   2.584   2.566  1.7269  0.2738  0.2085
 6709TIP3    H241687   5.951   2.505   2.646  0.7183 -1.8165 -0.5338
 6710TIP3   OH241688   1.894   4.040   0.356  0.1753 -0.6756 -0.2615
 6710TIP3    H141689   1.938   4.055   0.272 -0.1745  2.1445 -0.0454
 6710TIP3    H241690   1.963   4.048   0.421  0.4062 -2.6425 -0.2217
 6711TIP3   OH241691   6.405   3.499   4.420  0.0048  0.3385  0.0749
 6711TIP3    H141692   6.351   3.430   4.458 -1.8330  0.5721 -1.9345
 6711TIP3    H241693   6.489   3.458   4.402  0.1491 -0.3825  2.0817
 6712TIP3   OH241694   2.470   3.979   0.763  0.0343 -0.2640  0.1347
 6712TIP3    H141695   2.421   4.022   0.833  0.4853 -0.9296  0.8802
 6712TIP3    H241696   2.530   4.045   0.731  1.3036 -0.5239  1.8309
 6713TIP3   OH241697   0.164   3.226   1.168  0.1030  0.7610  0.1874
 6713TIP3    H141698   0.074   3.254   1.184  0.3049  1.6221 -0.1640
 6713TIP3    H241699   0.191   3.275   1.091  1.0972  0.9782  0.6650
 6714TIP3   OH241700   2.331   0.372   8.585  0.3792  0.3942  0.2883
 6714TIP3    H141701   2.243   0.342   8.609  1.2944 -0.9173  2.3045
 6714TIP3    H241702   2.317   0.453   8.537 -1.9858 -0.4234 -0.5342
 6715TIP3   OH241703   0.453   1.449   1.933 -0.1473  0.5706 -0.2027
 6715TIP3    H141704   0.438   1.476   1.842  0.0885 -0.8093 -0.6801
 6715TIP3    H241705   0.543   1.414   1.933 -0.9112 -1.5559 -0.0079
 6716TIP3   OH241706   0.800   5.457   0.265 -0.5517  0.2164  0.3346
 6716TIP3    H141707   0.777   5.376   0.312  1.9734 -0.2346  0.9695
 6716TIP3    H241708   0.719   5.507   0.262 -1.8122 -1.6365  1.3898
 6717TIP3   OH241709   3.056   4.083   2.312  0.6274  0.4182 -0.1125
 6717TIP3    H141710   2.975   4.125   2.281 -1.4304 -2.2393  1.2377
 6717TIP3    H241711   3.080   4.134   2.389 -1.2296 -0.1453  0.9116
 6718TIP3   OH241712   4.001   1.311   2.549  0.1584  0.1140  0.1096
 6718TIP3    H141713   4.043   1.376   2.492 -1.9041 -0.2182 -1.9682
 6718TIP3    H241714   4.073   1.258   2.582  1.7471  2.3489  0.4991
 6719TIP3   OH241715   0.143   1.053   8.705 -0.0190 -0.4217 -0.5671
 6719TIP3    H141716   0.051   1.045   8.731  0.0020  0.8691 -0.0212
 6719TIP3    H241717   0.178   0.965   8.715 -0.3477 -0.3373  2.6096
 6720TIP3   OH241718   2.666   6.775   2.291 -0.4053  0.4152  0.5475
 6720TIP3    H141719   2.604   6.828   2.341 -1.3891  0.0659 -0.2773
 6720TIP3    H241720   2.663   6.811   2.203  0.6438  0.4483  0.5094
 6721TIP3   OH241721   2.238   4.743   1.614 -0.2636 -0.1289  0.0216
 6721TIP3    H141722   2.152   4.701   1.607 -0.5611  0.7598 -3.0430
 6721TIP3    H241723   2.221   4.826   1.658 -0.5192 -0.9630  1.5590
 6722TIP3   OH241724   6.439   2.992   2.710  0.6030  0.7902 -0.1912
 6722TIP3    H141725   6.519   2.939   2.706 -0.1683 -0.4010 -0.4873
 6722TIP3    H241726   6.460   3.062   2.771  1.4997 -0.1684  0.6518
 6723TIP3   OH241727   3.835   4.059   0.761 -0.2373  0.2026 -0.0031
 6723TIP3    H141728   3.819   4.005   0.684  0.8860 -0.3688  0.1480
 6723TIP3    H241729   3.823   4.149   0.730  0.8142  0.0220 -1.0266
 6724TIP3   OH241730   6.088   3.549   4.302  0.0046  0.2976 -0.8333
 6724TIP3    H141731   6.103   3.460   4.271  0.8807 -0.2488  1.0488
 6724TIP3    H241732   6.053   3.595   4.225 -0.1463 -1.5548 -1.9404
 6725TIP3   OH241733   0.509   4.693   0.283 -0.4043 -0.3384  0.1993
 6725TIP3    H141734   0.439   4.743   0.242  0.3037 -0.0263 -0.6580
 6725TIP3    H241735   0.527   4.740   0.364 -1.3562 -0.5727  0.5598
 6726TIP3   OH241736   4.718   4.154   3.154 -0.0319  0.4330 -0.0034
 6726TIP3    H141737   4.758   4.113   3.231 -0.0680  0.0095 -0.2124
 6726TIP3    H241738   4.776   4.130   3.082  0.9719  2.2327  0.1365
 6727TIP3   OH241739   1.985   1.585   1.233 -0.4256 -0.3772  0.5132
 6727TIP3    H141740   1.890   1.576   1.230 -0.4556  0.1185 -0.9309
 6727TIP3    H241741   2.012   1.586   1.141  0.7590  1.5424  0.8137
 6728TIP3   OH241742   0.124   2.238   0.489 -0.0981 -0.1072  0.7108
 6728TIP3    H141743   0.078   2.291   0.554  0.1467  0.9736  0.0318
 6728TIP3    H241744   0.062   2.169   0.466 -1.1233  0.9196  0.3220
 6729TIP3   OH241745   6.641   0.707   4.514 -0.3227  0.3897 -0.4319
 6729TIP3    H141746   6.610   0.742   4.597  1.1810 -0.1936  0.4087
 6729TIP3    H241747   6.642   0.612   4.527  0.4999  0.3283 -0.9125
 6730TIP3   OH241748   6.408   0.145   1.408 -0.5862 -0.2675  0.3302
 6730TIP3    H141749   6.408   0.225   1.355  0.6519 -0.2689  0.2895
 6730TIP3    H241750   6.332   0.096   1.377 -0.0908 -0.1114 -1.2182
 6731TIP3   OH241751   4.825   2.199   0.832  0.1858 -0.1532  0.2778
 6731TIP3    H141752   4.890   2.213   0.900  1.4368  1.3824 -1.1636
 6731TIP3    H241753   4.741   2.217   0.875  0.7935 -0.6736  1.7564
 6732TIP3   OH241754   2.259   2.301   3.729 -0.0415 -0.0043  0.3850
 6732TIP3    H141755   2.221   2.346   3.653 -0.8570 -0.7821  0.3111
 6732TIP3    H241756   2.274   2.371   3.792 -0.9739  0.4383  0.1499
 6733TIP3   OH241757   4.938   5.756   4.959  0.5302  0.1747 -0.4579
 6733TIP3    H141758   4.987   5.677   4.939  1.3864  0.7931 -0.8455
 6733TIP3    H241759   4.932   5.803   4.876  0.7006  0.8855 -0.0767
 6734TIP3   OH241760   3.665   1.749   0.602 -0.3778 -0.4475 -0.4927
 6734TIP3    H141761   3.718   1.790   0.534  0.7714 -0.0590  0.6051
 6734TIP3    H241762   3.635   1.821   0.657 -1.5619 -0.7231 -0.7366
 6735TIP3   OH241763   1.352   4.479   2.470  0.1296 -0.3060  0.1114
 6735TIP3    H141764   1.446   4.485   2.456  0.0162 -0.6312 -0.8579
 6735TIP3    H241765   1.320   4.569   2.458  0.4031 -0.0225  1.3029
 6736TIP3   OH241766   1.615   0.547   1.178  0.6948  0.0764  0.3564
 6736TIP3    H141767   1.668   0.591   1.244 -0.3462  0.7099  0.7831
 6736TIP3    H241768   1.547   0.610   1.155 -1.0313 -1.4010  1.2159
 6737TIP3   OH241769   0.509   2.605   8.555 -1.0783 -0.4984 -0.0716
 6737TIP3    H141770   0.495   2.586   8.648 -1.2542 -1.2437 -0.2476
 6737TIP3    H241771   0.604   2.608   8.545 -1.0583 -0.4431  0.1268
 6738TIP3   OH241772   4.806   6.106   1.440  0.2144  0.1665 -0.4427
 6738TIP3    H141773   4.721   6.146   1.456 -0.3155 -0.3225 -1.9281
 6738TIP3    H241774   4.867   6.180   1.435 -0.0829  0.5119  0.6789
 6739TIP3   OH241775   1.788   6.104   1.582 -0.3412 -0.3989  0.1446
 6739TIP3    H141776   1.772   6.191   1.545 -3.0489 -0.9953 -0.2986
 6739TIP3    H241777   1.864   6.116   1.639  0.4037  1.8510 -1.1903
 6740TIP3   OH241778   4.247   6.633   5.080  0.3108  0.7667  0.4813
 6740TIP3    H141779   4.162   6.644   5.037  0.4411 -0.4898 -0.1539
 6740TIP3    H241780   4.226   6.612   5.171 -0.1537 -1.1140 -0.0127
 6741TIP3   OH241781   1.820   3.712   0.981 -0.0714  0.1749  0.1824
 6741TIP3    H141782   1.881   3.784   0.999 -0.2529 -0.0750  1.9441
 6741TIP3    H241783   1.873   3.647   0.935  0.6670  0.5013  0.5549
 6742TIP3   OH241784   1.327   0.117   1.882  0.0506  0.1616 -0.7882
 6742TIP3    H141785   1.266   0.189   1.898 -0.9071 -0.7147 -0.3739
 6742TIP3    H241786   1.376   0.108   1.963 -1.5094 -1.1821  0.0841
 6743TIP3   OH241787   2.728   2.642   4.723 -0.5834  0.4192  0.0334
 6743TIP3    H141788   2.649   2.609   4.682  1.4133 -1.4161 -2.7228
 6743TIP3    H241789   2.762   2.706   4.661  0.6740  0.2894  0.5529
 6744TIP3   OH241790   0.468   4.806   0.819  0.0984  0.8066  0.2272
 6744TIP3    H141791   0.394   4.853   0.858 -1.3037 -1.2441  0.1714
 6744TIP3    H241792   0.492   4.859   0.743 -2.2542  0.8263 -0.5722
 6745TIP3   OH241793   3.891   6.530   3.659  0.2917 -0.0821  0.0952
 6745TIP3    H141794   3.908   6.494   3.746  0.2712 -1.5543 -0.4808
 6745TIP3    H241795   3.838   6.463   3.615 -2.1440  1.8363 -0.1328
 6746TIP3   OH241796   0.054   3.961   4.508 -0.5431 -0.4738 -0.1334
 6746TIP3    H141797   0.135   3.910   4.511  0.2920  0.7753 -0.7769
 6746TIP3    H241798   0.079   4.048   4.536 -1.1033  0.5745 -2.6006
 6747TIP3   OH241799   1.829   0.526   2.288 -0.0453  0.3096 -0.2095
 6747TIP3    H141800   1.818   0.612   2.247  0.6326  0.7738  0.5591
 6747TIP3    H241801   1.759   0.521   2.353  1.4620  1.4333  1.6156
 6748TIP3   OH241802   3.663   0.012   2.546  0.1987 -0.7378  0.3389
 6748TIP3    H141803   3.644   0.073   2.475 -0.6815  1.5931  2.4330
 6748TIP3    H241804   3.586  -0.044   2.552 -2.1157  2.3428  2.5271
 6749TIP3   OH241805   0.658   2.749   0.179  0.5729 -0.3420  0.5673
 6749TIP3    H141806   0.743   2.786   0.203  1.7488 -2.4490 -0.0621
 6749TIP3    H241807   0.620   2.813   0.119  1.7651  0.5916  0.7561
 6750TIP3   OH241808   5.105   0.603   4.332  0.5391 -0.6361  0.0822
 6750TIP3    H141809   5.011   0.589   4.321  0.0104  2.5350 -0.4157
 6750TIP3    H241810   5.121   0.591   4.426 -0.4941 -0.6622  0.2587
 6751TIP3   OH241811   3.008   2.691   2.101  0.2454  0.3167  0.5119
 6751TIP3    H141812   3.099   2.692   2.071 -0.3046  0.8106 -1.3008
 6751TIP3    H241813   2.967   2.763   2.053 -0.9566  0.5594  1.8478
 6752TIP3   OH241814   6.388   1.755   2.494  0.5439  0.3102  0.8242
 6752TIP3    H141815   6.386   1.830   2.435 -2.1365 -0.5513 -0.3737
 6752TIP3    H241816   6.423   1.683   2.442 -2.3506 -0.5913 -0.0701
 6753TIP3   OH241817   6.784   1.346   4.020  0.1829 -0.0925 -0.1112
 6753TIP3    H141818   6.869   1.342   3.975 -0.1773 -0.1741 -0.7983
 6753TIP3    H241819   6.795   1.415   4.086  1.3805 -1.3456  1.0780
 6754TIP3   OH241820   2.020   5.544   3.841 -0.3640 -0.4691  0.3270
 6754TIP3    H141821   2.068   5.541   3.924  0.2380  1.2032  0.0722
 6754TIP3    H241822   2.089   5.550   3.774 -0.8781 -0.1940 -0.1836
 6755TIP3   OH241823   6.447   1.161   1.485 -0.3447  0.4759  0.0960
 6755TIP3    H141824   6.424   1.227   1.550  0.6421  1.2236 -0.2825
 6755TIP3    H241825   6.389   1.180   1.411 -0.3706  0.6442  0.1580
 6756TIP3   OH241826   3.513   0.887   2.067 -0.0526  0.6569 -0.4261
 6756TIP3    H141827   3.435   0.940   2.053 -0.3316  0.5249  0.5470
 6756TIP3    H241828   3.556   0.884   1.982 -1.9127 -0.5583 -1.4057
 6757TIP3   OH241829   2.782   2.226   0.093 -0.4426 -0.0874 -0.0692
 6757TIP3    H141830   2.848   2.178   0.044  0.9519  1.1618  0.5070
 6757TIP3    H241831   2.740   2.283   0.028  1.3945  1.5618  0.0980
 6758TIP3   OH241832   6.016   6.023   2.908 -0.1366 -0.1111  0.3650
 6758TIP3    H141833   5.925   6.049   2.923 -0.2696 -0.0510 -0.5088
 6758TIP3    H241834   6.056   6.098   2.864 -0.0676 -0.6901 -0.5882
 6759TIP3   OH241835   4.469   5.900   4.091  0.1371  0.3267 -0.6130
 6759TIP3    H141836   4.510   5.821   4.054 -1.0446 -1.1662  1.0506
 6759TIP3    H241837   4.400   5.922   4.028  0.1323 -0.2987 -0.8414
 6760TIP3   OH241838   4.024   6.689   4.886 -0.1529 -0.4664  0.2888
 6760TIP3    H141839   4.024   6.713   4.793 -0.5476  0.2223  0.4622
 6760TIP3    H241840   3.932   6.677   4.908 -0.0043 -1.4712  0.3827
 6761TIP3   OH241841   5.254   4.593   3.434 -0.0921  0.0899 -0.0128
 6761TIP3    H141842   5.183   4.575   3.497  0.5573 -0.0781  0.6861
 6761TIP3    H241843   5.228   4.675   3.393 -0.1850  0.5931  1.0004
 6762TIP3   OH241844   3.641   1.694   3.391 -0.4620 -0.2511 -0.5938
 6762TIP3    H141845   3.718   1.686   3.447 -0.1694  0.3565 -0.8981
 6762TIP3    H241846   3.593   1.612   3.404  0.2910 -0.6857 -0.4969
 6763TIP3   OH241847   2.864   1.605   1.645  0.3669 -0.3144  0.2215
 6763TIP3    H141848   2.776   1.615   1.679  0.8334  1.4533  1.0274
 6763TIP3    H241849   2.864   1.654   1.562  0.5774 -0.3250  0.2130
 6764TIP3   OH241850   4.597   2.371   1.202 -0.0568 -0.6193  0.0596
 6764TIP3    H141851   4.552   2.389   1.284 -2.7430  2.6418 -1.8786
 6764TIP3    H241852   4.679   2.421   1.208 -0.3815 -0.1480  0.6517
 6765TIP3   OH241853   3.096   4.920   0.302  0.5995 -0.6152  0.3620
 6765TIP3    H141854   3.070   4.917   0.394 -0.4712 -0.3942  0.0800
 6765TIP3    H241855   3.095   4.829   0.274 -0.2068 -0.5844  0.2730
 6766TIP3   OH241856   0.426   3.890   2.824  0.3282 -0.0100  0.4718
 6766TIP3    H141857   0.502   3.868   2.770  0.7983  1.8177  0.3043
 6766TIP3    H241858   0.352   3.847   2.781  1.1004 -0.9297  0.0261
 6767TIP3   OH241859   0.799   5.147   2.659  0.0569 -0.5561  0.3290
 6767TIP3    H141860   0.894   5.139   2.664  0.3823  1.3695 -1.5109
 6767TIP3    H241861   0.784   5.217   2.596 -2.5942 -0.3284  1.0979
 6768TIP3   OH241862   6.170   1.881   1.363  0.4017  0.7210  0.4313
 6768TIP3    H141863   6.245   1.822   1.377 -0.0756  0.2880  1.2931
 6768TIP3    H241864   6.176   1.943   1.436 -1.3325 -0.6932  1.8739
 6769TIP3   OH241865   2.008   6.713   1.614  0.1389 -0.3102  0.2703
 6769TIP3    H141866   2.049   6.687   1.532 -1.4098 -4.3802  0.5749
 6769TIP3    H241867   2.080   6.712   1.678  0.4711 -3.0269 -0.0165
 6770TIP3   OH241868   5.823   6.745   0.612  0.5239 -0.6320 -0.4758
 6770TIP3    H141869   5.891   6.706   0.666 -0.6430 -1.1194  0.6987
 6770TIP3    H241870   5.741   6.706   0.643 -0.2593 -0.5298 -2.2480
 6771TIP3   OH241871   0.572   4.473   5.059  0.4827  0.0902  0.6132
 6771TIP3    H141872   0.587   4.472   5.154 -0.3072 -1.0372  0.7392
 6771TIP3    H241873   0.654   4.505   5.022  0.9791  0.0460  1.6443
 6772TIP3   OH241874   4.805   3.807   3.092  0.1898  0.0379  0.0089
 6772TIP3    H141875   4.719   3.841   3.119  0.4920 -0.2138  1.3660
 6772TIP3    H241876   4.845   3.776   3.173  1.3982 -0.2472 -0.6714
 6773TIP3   OH241877   2.793   6.595   1.586  0.4113  0.6266  0.0936
 6773TIP3    H141878   2.839   6.549   1.656  1.8136  0.6316 -0.7827
 6773TIP3    H241879   2.860   6.650   1.546 -1.1552  3.3716  0.9804
 6774TIP3   OH241880   2.522   0.592   2.885 -0.0935  0.4878 -0.1404
 6774TIP3    H141881   2.530   0.687   2.873 -3.2227  0.8481 -0.0593
 6774TIP3    H241882   2.430   0.573   2.870  0.4827 -2.6437 -0.4652
 6775TIP3   OH241883   3.899   2.802   3.685  0.0069 -0.6698  0.2002
 6775TIP3    H141884   3.971   2.811   3.747 -0.7954 -0.7406  1.1750
 6775TIP3    H241885   3.937   2.757   3.610  2.0983  3.0044 -1.2348
 6776TIP3   OH241886   6.293   1.897   4.897 -0.2605 -0.4887 -0.8286
 6776TIP3    H141887   6.375   1.850   4.882 -0.8602 -2.7661  2.0263
 6776TIP3    H241888   6.320   1.980   4.936  0.8339 -1.8584  1.6409
 6777TIP3   OH241889   6.532   2.408   2.515 -0.1969 -0.0584 -0.6369
 6777TIP3    H141890   6.492   2.331   2.475  0.6040 -1.5495  1.2357
 6777TIP3    H241891   6.590   2.372   2.583  0.1420  2.2012  0.3672
 6778TIP3   OH241892   6.050   5.647   3.917 -0.3609 -0.2567  0.2130
 6778TIP3    H141893   6.083   5.588   3.984  0.4291 -0.4008 -0.2918
 6778TIP3    H241894   6.111   5.722   3.920 -0.7524  0.0652  0.1552
 6779TIP3   OH241895   2.627   4.599   4.588  0.3677 -0.0355 -0.0596
 6779TIP3    H141896   2.569   4.673   4.573 -0.4499 -0.2993  1.6255
 6779TIP3    H241897   2.568   4.526   4.607  1.1763 -1.0117 -1.1011
 6780TIP3   OH241898   5.571   5.625   2.674 -0.4589  0.0381 -0.6325
 6780TIP3    H141899   5.609   5.609   2.760 -0.2962  0.9975 -0.5171
 6780TIP3    H241900   5.643   5.612   2.612 -0.2976  0.4672 -0.5323
 6781TIP3   OH241901   4.866   3.663   1.893  0.0878 -0.0874 -0.1775
 6781TIP3    H141902   4.907   3.675   1.978  2.0119 -2.9841 -0.5473
 6781TIP3    H241903   4.773   3.649   1.912  0.9075 -4.0181  1.9751
 6782TIP3   OH241904   5.548   3.451   0.983 -0.8131 -0.0335 -0.2078
 6782TIP3    H141905   5.535   3.545   0.968  0.3643  0.5741  1.9905
 6782TIP3    H241906   5.632   3.432   0.941 -0.3022  0.2973  0.6320
 6783TIP3   OH241907   0.940   4.657   3.518 -0.0025  0.2385 -0.5180
 6783TIP3    H141908   1.027   4.629   3.489  0.7200  1.1099  0.7228
 6783TIP3    H241909   0.955   4.739   3.565 -1.4167  0.0884  0.2581
 6784TIP3   OH241910   1.094   5.320   2.120  0.2730  0.3552 -0.1223
 6784TIP3    H141911   1.080   5.397   2.176 -0.2394  0.7900 -0.8332
 6784TIP3    H241912   1.155   5.350   2.053 -0.6922  0.4610 -0.9891
 6785TIP3   OH241913   4.619   3.375   3.090 -0.2034  0.2897 -0.1679
 6785TIP3    H141914   4.597   3.441   3.156 -0.0542 -0.1802  0.3575
 6785TIP3    H241915   4.647   3.299   3.141 -1.3592 -0.5365 -0.7231
 6786TIP3   OH241916   6.079   2.099   2.077  0.1071  0.1101  0.0703
 6786TIP3    H141917   6.110   2.115   1.987 -0.2048 -2.7064 -0.6532
 6786TIP3    H241918   5.984   2.104   2.071 -0.0408 -2.1353 -0.3214
 6787TIP3   OH241919   3.874   2.985   4.244 -0.5669 -0.4737 -0.5458
 6787TIP3    H141920   3.929   3.057   4.214 -1.0169 -0.0675 -0.4044
 6787TIP3    H241921   3.877   2.992   4.340 -0.7195 -0.5680 -0.5350
 6788TIP3   OH241922   6.382   6.726   4.018  0.6616 -0.3974 -0.3245
 6788TIP3    H141923   6.371   6.817   3.993 -1.3926  0.0621  1.8618
 6788TIP3    H241924   6.418   6.730   4.107 -1.0239 -1.6163  0.4648
 6789TIP3   OH241925   0.509   1.117   3.235  0.2780  0.3347  0.5646
 6789TIP3    H141926   0.462   1.194   3.202  0.1668 -0.2005 -0.5580
 6789TIP3    H241927   0.550   1.148   3.316 -0.8564  1.2011  0.8478
 6790TIP3   OH241928   6.499   2.413   3.584 -0.9758 -0.2833  0.1097
 6790TIP3    H141929   6.516   2.337   3.640  0.4391 -0.2756 -0.2614
 6790TIP3    H241930   6.461   2.478   3.642 -0.7421 -0.7321  0.7790
 6791TIP3   OH241931   3.845   1.010   1.347 -0.0571  0.5039 -0.1895
 6791TIP3    H141932   3.789   0.996   1.423  1.5182 -0.9766  0.7480
 6791TIP3    H241933   3.785   1.008   1.273 -1.2967 -0.8221  0.7929
 6792TIP3   OH241934   2.551   2.103   1.877 -0.2991 -0.2152  0.3032
 6792TIP3    H141935   2.553   2.189   1.919 -0.2350 -0.5583  1.0265
 6792TIP3    H241936   2.556   2.121   1.783 -1.1477  0.5984  0.4079
 6793TIP3   OH241937   1.230   6.446   1.670  1.0250  0.2787 -0.3083
 6793TIP3    H141938   1.255   6.524   1.720  0.9613 -0.4770  0.9464
 6793TIP3    H241939   1.295   6.381   1.695  1.1506 -0.0460 -1.4419
 6794TIP3   OH241940   5.941   2.272   2.402 -1.0521 -0.2752  0.6579
 6794TIP3    H141941   5.904   2.353   2.438  1.1626  0.9683  0.2769
 6794TIP3    H241942   5.951   2.215   2.477 -0.6085  0.6365  1.3110
 6795TIP3   OH241943   5.061   1.532   2.798  0.3458 -0.2085  1.0562
 6795TIP3    H141944   5.122   1.463   2.773  2.4091  1.6354  0.7506
 6795TIP3    H241945   5.094   1.564   2.882  0.5278  1.5665  0.3521
 6796TIP3   OH241946   5.130   4.568   2.813  0.2570  0.0299 -0.4868
 6796TIP3    H141947   5.061   4.521   2.860 -0.2199  1.0551 -0.1144
 6796TIP3    H241948   5.092   4.588   2.728  0.0196  0.7379 -0.2221
 6797TIP3   OH241949   1.628   5.074   2.572 -0.6246  0.0165  0.1503
 6797TIP3    H141950   1.580   5.098   2.651  0.2096  0.2054  0.6085
 6797TIP3    H241951   1.718   5.102   2.589 -0.5968  0.8330 -1.1996
 6798TIP3   OH241952   0.419   1.924   8.684 -0.0608  0.0039  0.5150
 6798TIP3    H141953   0.471   1.899   8.608  0.1036  0.9799  0.2848
 6798TIP3    H241954   0.370   1.845   8.707 -0.3333 -0.2355 -0.7842
 6799TIP3   OH241955   5.760   1.469   1.805  0.4898 -0.4070  0.6037
 6799TIP3    H141956   5.800   1.530   1.867 -0.4799  1.1844 -0.2765
 6799TIP3    H241957   5.814   1.475   1.726 -0.5823  0.6369 -0.0775
 6800TIP3   OH241958   5.833   2.793   3.322 -0.2359  0.4220  0.3346
 6800TIP3    H141959   5.858   2.793   3.414 -0.6184 -1.1006  0.4591
 6800TIP3    H241960   5.873   2.714   3.286  1.9977  2.2172 -1.4352
 6801TIP3   OH241961   6.780   2.281   8.606  0.2514  0.4917  0.6424
 6801TIP3    H141962   6.843   2.318   8.545  0.1847  1.1166  0.9397
 6801TIP3    H241963   6.826   2.277   8.690  1.6205 -3.7543 -0.0653
 6802TIP3   OH241964   2.841   4.232   0.119  0.5937  0.1307 -0.7064
 6802TIP3    H141965   2.907   4.301   0.112  0.1798  0.4788 -1.3279
 6802TIP3    H241966   2.888   4.152   0.094  1.2192  0.0723  0.5583
 6803TIP3   OH241967   5.633   5.324   1.884  0.3433  0.4303  0.7377
 6803TIP3    H141968   5.557   5.375   1.910  0.8475  0.1469  2.9546
 6803TIP3    H241969   5.638   5.335   1.789 -1.5074  1.7367  0.7441
 6804TIP3   OH241970   1.098   2.783   3.639 -0.3657 -0.2678 -0.0222
 6804TIP3    H141971   1.187   2.752   3.653 -0.3079 -0.3548 -0.5366
 6804TIP3    H241972   1.060   2.790   3.727  0.1261 -0.2885  0.1928
 6805TIP3   OH241973   5.356   1.365   3.502  0.0973  0.1317 -0.3833
 6805TIP3    H141974   5.412   1.434   3.465  0.7142  1.3927  2.5726
 6805TIP3    H241975   5.267   1.399   3.492  0.4160  1.6442  1.3501
 6806TIP3   OH241976   3.792   1.262   3.157 -0.2730  0.4728 -0.1899
 6806TIP3    H141977   3.736   1.311   3.097 -0.8827  0.8068  0.6314
 6806TIP3    H241978   3.737   1.247   3.234  0.0417 -1.1239 -0.2430
 6807TIP3   OH241979   4.683   3.328   3.871  0.0527 -0.0813 -0.3903
 6807TIP3    H141980   4.732   3.371   3.940 -0.5825  0.7228 -0.4208
 6807TIP3    H241981   4.608   3.385   3.856 -0.5897 -0.9944 -0.7326
 6808TIP3   OH241982   3.119   4.965   1.846 -0.2855 -0.1552 -0.1655
 6808TIP3    H141983   3.113   5.044   1.899 -0.0733  0.4243 -0.9815
 6808TIP3    H241984   3.029   4.935   1.838 -0.6941  1.3356 -1.7778
 6809TIP3   OH241985   2.870   5.753   3.230  0.1823 -0.0845 -0.2767
 6809TIP3    H141986   2.959   5.788   3.220  0.2494 -0.0239  0.4578
 6809TIP3    H241987   2.814   5.819   3.190  0.5243 -0.5822 -1.6427
 6810TIP3   OH241988   0.859   1.140   3.702  0.3926 -0.1501  0.0858
 6810TIP3    H141989   0.867   1.126   3.796  1.8905 -0.7025 -0.0938
 6810TIP3    H241990   0.765   1.149   3.687  0.2247  2.5926  1.9799
 6811TIP3   OH241991   3.390   1.009   4.248  0.1287  0.6499 -0.1605
 6811TIP3    H141992   3.321   1.024   4.313 -0.0246  2.8248 -0.7563
 6811TIP3    H241993   3.406   0.914   4.251 -2.9149  0.0530 -0.0431
 6812TIP3   OH241994   6.628   5.329   4.192  0.3035 -0.0104 -0.4480
 6812TIP3    H141995   6.589   5.286   4.115  1.7513 -0.1822 -1.1119
 6812TIP3    H241996   6.580   5.412   4.200  1.1283  0.7208 -2.4847
 6813TIP3   OH241997   1.625   5.850   3.017  0.2635  0.6584 -0.2139
 6813TIP3    H141998   1.641   5.942   2.995  1.6415  1.0130  1.9823
 6813TIP3    H241999   1.659   5.801   2.942  4.0998  1.7881  0.5481
 6814TIP3   OH242000   6.342   1.445   3.512  0.1408 -0.0400 -0.3240
 6814TIP3    H142001   6.308   1.360   3.542 -0.1706  0.4299  0.6849
 6814TIP3    H242002   6.379   1.426   3.426 -1.4249 -0.8570 -0.8606
 6815TIP3   OH242003   4.931   4.700   3.186 -0.4504 -0.0304 -0.1962
 6815TIP3    H142004   4.973   4.621   3.151 -1.5913 -1.6388  1.8235
 6815TIP3    H242005   4.882   4.669   3.262 -0.9887  2.6519  0.6550
 6816TIP3   OH242006   2.008   2.528   2.516 -0.0306  0.5300  0.2198
 6816TIP3    H142007   1.965   2.562   2.437 -0.1391  0.7982  0.3963
 6816TIP3    H242008   2.037   2.440   2.490 -1.2677  0.0727  0.3027
 6817TIP3   OH242009   2.957   3.993   1.490 -0.3785 -0.0522 -0.2752
 6817TIP3    H142010   3.022   4.049   1.533 -1.7725  0.2695  1.5236
 6817TIP3    H242011   2.918   4.049   1.423  0.2501  0.1852 -0.4502
 6818TIP3   OH242012   2.658   2.247   2.517  0.0779 -0.1220  0.2705
 6818TIP3    H142013   2.621   2.217   2.435 -0.0549 -1.6852  0.8554
 6818TIP3    H242014   2.752   2.256   2.499 -0.1712  1.1818 -0.4756
 6819TIP3   OH242015   6.518   3.685   0.051 -0.2000 -0.3820  0.1449
 6819TIP3    H142016   6.437   3.736   0.046 -0.4365 -0.4321  2.4350
 6819TIP3    H242017   6.500   3.605   0.002 -0.7925  0.4797 -1.0971
 6820TIP3   OH242018   0.157   0.206   1.494 -0.0754  0.1366  0.1615
 6820TIP3    H142019   0.071   0.180   1.527 -0.3603 -0.1317 -0.7575
 6820TIP3    H242020   0.219   0.177   1.562 -0.8525  2.3207  1.8881
 6821TIP3   OH242021   3.237   6.061   2.504 -0.4637  0.4541  0.1544
 6821TIP3    H142022   3.243   5.967   2.487 -0.6379  0.6033 -0.7379
 6821TIP3    H242023   3.318   6.081   2.551 -0.0267  0.0100 -0.3858
 6822TIP3   OH242024   6.113   4.917   1.853  0.4550 -0.0956  0.2019
 6822TIP3    H142025   6.084   4.831   1.881  0.0857 -0.5575 -1.5130
 6822TIP3    H242026   6.043   4.976   1.882  0.7248 -0.3347  1.4104
 6823TIP3   OH242027   1.841   2.977   1.623  0.3617 -0.1915  0.1478
 6823TIP3    H142028   1.908   3.044   1.608 -0.0512  0.6102  1.7056
 6823TIP3    H242029   1.843   2.924   1.543  3.8193 -1.0963  0.6774
 6824TIP3   OH242030   3.009   6.328   3.581 -0.6337  0.4994 -0.4511
 6824TIP3    H142031   2.971   6.368   3.659  1.4513  1.8591 -0.0559
 6824TIP3    H242032   3.042   6.243   3.611 -0.6204  0.6421 -0.0536
 6825TIP3   OH242033   1.329   0.831   0.218  0.2611  0.7682 -0.2554
 6825TIP3    H142034   1.375   0.910   0.191  1.0998 -0.1973 -1.7625
 6825TIP3    H242035   1.237   0.856   0.220  0.5309  1.8185 -0.5442
 6826TIP3   OH242036   2.127   6.201   2.367  0.3570 -0.1294  0.2897
 6826TIP3    H142037   2.059   6.217   2.432 -0.3234 -0.4825 -0.3287
 6826TIP3    H242038   2.149   6.108   2.378  1.3483  0.1720  1.0519
 6827TIP3   OH242039   1.595   3.085   1.730 -0.2371  0.0813  0.0406
 6827TIP3    H142040   1.638   3.069   1.646 -0.2332 -0.0411  0.0653
 6827TIP3    H242041   1.614   3.176   1.750  0.1618 -0.0238  0.1368
 6828TIP3   OH242042   1.860   1.991   8.719 -0.0227  0.0510  0.2646
 6828TIP3    H142043   1.827   1.901   8.728 -1.7634  0.6049 -0.1296
 6828TIP3    H242044   1.794   2.035   8.666  1.7196  1.1134 -1.1095
 6829TIP3   OH242045   6.057   5.355   4.121  0.4516 -0.0584 -0.5327
 6829TIP3    H142046   5.961   5.363   4.113  0.4643  2.5942  0.7264
 6829TIP3    H242047   6.082   5.297   4.049 -2.2166 -2.0406 -0.0531
 6830TIP3   OH242048   1.401   6.525   2.154 -1.3488 -0.1959  0.4259
 6830TIP3    H142049   1.355   6.440   2.155 -1.9023  0.0659 -0.7827
 6830TIP3    H242050   1.390   6.557   2.064  1.7640 -0.4041 -0.1454
 6831TIP3   OH242051   2.859   5.089   3.159 -0.3765 -0.2504 -0.0024
 6831TIP3    H142052   2.788   5.096   3.096  0.0166 -1.0147 -0.5394
 6831TIP3    H242053   2.839   5.011   3.210 -1.4246  1.1036  1.7798
 6832TIP3   OH242054   3.275   6.547   4.577  0.6254 -0.3943  0.0540
 6832TIP3    H142055   3.186   6.577   4.596  0.4159 -0.6956 -0.4230
 6832TIP3    H242056   3.323   6.627   4.555  0.1710 -0.3548 -0.8312
 6833TIP3   OH242057   4.835   2.598   0.316 -0.2050  0.3766 -0.3767
 6833TIP3    H142058   4.895   2.650   0.263 -0.7159  0.2586 -1.0816
 6833TIP3    H242059   4.817   2.521   0.263 -0.2062 -0.0606  0.2539
 6834TIP3   OH242060   1.159   2.854   2.209 -0.0058 -0.0121 -0.2042
 6834TIP3    H142061   1.213   2.897   2.142  0.0480  0.0883 -0.0956
 6834TIP3    H242062   1.110   2.787   2.160 -0.9185  0.9100 -0.5663
 6835TIP3   OH242063   3.448   6.317   2.547 -0.0870  0.0585  1.1814
 6835TIP3    H142064   3.500   6.270   2.612 -0.7866 -1.6949  0.5249
 6835TIP3    H242065   3.358   6.312   2.581 -0.5347 -1.2814 -0.0816
 6836TIP3   OH242066   4.129   5.732   1.944 -0.7186 -0.3522 -0.1030
 6836TIP3    H142067   4.060   5.773   1.892 -1.4278 -1.3142  0.0553
 6836TIP3    H242068   4.178   5.680   1.881  0.3518  0.9069 -0.3552
 6837TIP3   OH242069   1.017   6.304   4.394 -0.3225 -0.7796  0.6385
 6837TIP3    H142070   1.075   6.229   4.407  0.4374  0.0671  2.6020
 6837TIP3    H242071   0.997   6.334   4.483 -3.2680 -0.6112  0.0010
 6838TIP3   OH242072   2.254   2.151   4.237 -0.5851  0.4560  0.2994
 6838TIP3    H142073   2.289   2.143   4.325  0.9620  4.2411  0.2213
 6838TIP3    H242074   2.314   2.103   4.181 -0.8764 -0.9098  1.1372
 6839TIP3   OH242075   1.730   1.301   2.179  0.1348 -0.1938 -0.0946
 6839TIP3    H142076   1.772   1.382   2.151  0.3003 -0.5938 -1.0483
 6839TIP3    H242077   1.802   1.238   2.186 -0.2534 -0.9046 -1.8205
 6840TIP3   OH242078   3.008   3.103   2.208 -0.0120 -0.1123  0.2348
 6840TIP3    H142079   2.984   3.032   2.268 -1.4903 -0.2990 -0.5137
 6840TIP3    H242080   2.987   3.183   2.257 -0.0118 -0.2350  0.4383
 6841TIP3   OH242081   3.681   5.304   0.657  1.3036  0.5562  0.0893
 6841TIP3    H142082   3.720   5.389   0.638 -0.0590  1.0229 -0.7360
 6841TIP3    H242083   3.749   5.241   0.633  2.3596  1.3929  0.7948
 6842TIP3   OH242084   5.263   1.765   4.875  0.1138  0.3744 -0.1761
 6842TIP3    H142085   5.209   1.820   4.932  1.5967  3.6419 -1.6699
 6842TIP3    H242086   5.206   1.746   4.800  0.2285  1.7498 -0.6343
 6843TIP3   OH242087   0.187   2.744   2.263  0.5817  0.2060  0.2329
 6843TIP3    H142088   0.229   2.681   2.322  0.8884  0.1008 -0.0968
 6843TIP3    H242089   0.122   2.693   2.215  0.5614  0.2244  0.2403
 6844TIP3   OH242090   4.585   6.665   1.821 -0.6984 -0.1134  0.3373
 6844TIP3    H142091   4.605   6.611   1.897  1.7937  0.1969 -0.0183
 6844TIP3    H242092   4.667   6.672   1.773 -1.3809  2.3870 -0.6714
 6845TIP3   OH242093   4.618   1.575   4.273 -0.5223  0.1853  0.1905
 6845TIP3    H142094   4.679   1.609   4.338  0.5011  0.9763 -1.1311
 6845TIP3    H242095   4.634   1.628   4.195  0.5382 -2.7163 -1.7107
 6846TIP3   OH242096   3.602   5.539   4.174  0.0928 -0.1092 -0.1590
 6846TIP3    H142097   3.531   5.476   4.186 -1.8578  2.3039  2.2913
 6846TIP3    H242098   3.646   5.542   4.259  0.2616  1.6705 -0.2828
 6847TIP3   OH242099   3.105   6.316   0.168 -0.3097  0.3610 -0.1785
 6847TIP3    H142100   3.126   6.237   0.217 -0.6551  2.0799  2.9948
 6847TIP3    H242101   3.009   6.319   0.168 -0.2894  1.1744  0.4398
 6848TIP3   OH242102   6.317   2.900   3.786 -0.3578  0.1410  0.0723
 6848TIP3    H142103   6.385   2.950   3.832  0.9079 -1.9619  0.6023
 6848TIP3    H242104   6.243   2.899   3.847 -0.7790  2.0979 -0.3378
 6849TIP3   OH242105   4.823   2.002   0.639  0.1201 -0.4169 -0.7794
 6849TIP3    H142106   4.782   2.050   0.567  1.9630  0.0671 -1.5782
 6849TIP3    H242107   4.832   2.067   0.709  0.7642 -0.1327 -1.1170
 6850TIP3   OH242108   0.583   3.485   3.278 -0.6060 -0.0799 -0.1691
 6850TIP3    H142109   0.633   3.559   3.244 -0.7750  0.1167  0.0095
 6850TIP3    H242110   0.491   3.511   3.266 -0.6664  0.1348  0.7446
 6851TIP3   OH242111   6.167   6.380   2.326  0.0686  0.3604  0.1282
 6851TIP3    H142112   6.224   6.311   2.359 -1.1788 -0.4929  0.5922
 6851TIP3    H242113   6.180   6.453   2.386  1.0654  0.3890 -0.1010
 6852TIP3   OH242114   2.475   6.038   2.083  0.5683 -0.6964  0.3836
 6852TIP3    H142115   2.408   6.037   2.014  0.9341 -1.7710  0.0218
 6852TIP3    H242116   2.453   6.115   2.137  1.2891  1.2657 -1.9167
 6853TIP3   OH242117   1.959   5.607   1.759  0.3043  0.4251 -0.3902
 6853TIP3    H142118   1.984   5.680   1.703  0.7687  1.8183  1.5335
 6853TIP3    H242119   1.864   5.616   1.770  0.0045 -0.5897 -1.8905
 6854TIP3   OH242120   4.385   4.683   1.217 -0.2240  0.3880 -0.2530
 6854TIP3    H142121   4.447   4.753   1.198  0.5020 -0.1460  0.0969
 6854TIP3    H242122   4.338   4.712   1.295  0.8486 -0.0060  0.5474
 6855TIP3   OH242123   5.360   1.303   1.095  0.5767  0.1742 -0.2224
 6855TIP3    H142124   5.332   1.222   1.137 -0.2516 -0.1187 -1.3111
 6855TIP3    H242125   5.366   1.366   1.167 -0.2360 -0.4655  0.4243
 6856TIP3   OH242126   6.369   2.418   4.629 -0.0149 -0.0641 -0.1266
 6856TIP3    H142127   6.409   2.495   4.671 -0.7740  0.3640 -0.1685
 6856TIP3    H242128   6.277   2.423   4.653 -0.4749  0.1606 -1.7646
 6857TIP3   OH242129   2.151   0.967   0.639 -0.0812  0.7198  0.3560
 6857TIP3    H142130   2.204   1.008   0.571 -1.2256 -2.6714 -2.8879
 6857TIP3    H242131   2.069   1.016   0.639 -0.9257 -0.5037 -2.4722
 6858TIP3   OH242132   2.488   0.669   0.250 -0.2485 -0.3486  0.7879
 6858TIP3    H142133   2.434   0.592   0.270 -1.7528  0.4802  0.1301
 6858TIP3    H242134   2.555   0.637   0.191 -1.7312 -0.9193 -0.6532
 6859TIP3   OH242135   4.431   6.686   4.740 -0.0793 -0.0844  0.4131
 6859TIP3    H142136   4.478   6.748   4.796 -1.4664  1.0283  0.3883
 6859TIP3    H242137   4.348   6.728   4.722 -0.7891 -1.6696 -0.1890
 6860TIP3   OH242138   0.302   4.668   2.607  0.3185  0.3470 -0.3459
 6860TIP3    H142139   0.330   4.758   2.625  1.7983  0.6255 -3.3166
 6860TIP3    H242140   0.384   4.619   2.604 -0.5183 -1.3130  1.8875
 6861TIP3   OH242141   0.046   4.693   1.046 -0.0146 -0.7011 -0.0705
 6861TIP3    H142142   0.093   4.768   1.083  0.5848 -0.7481 -0.7147
 6861TIP3    H242143   0.035   4.633   1.119 -0.8014  0.1549  0.5376
 6862TIP3   OH242144   6.021   3.225   0.577 -0.1648  0.8978 -0.2827
 6862TIP3    H142145   6.069   3.154   0.536 -1.3948  0.0990 -0.3807
 6862TIP3    H242146   5.939   3.231   0.527 -1.4754  0.2454  1.6673
 6863TIP3   OH242147   4.638   0.352   2.724 -0.3425  0.2961  0.0174
 6863TIP3    H142148   4.712   0.412   2.716 -2.4297  3.0638  0.2041
 6863TIP3    H242149   4.584   0.370   2.648 -0.1636 -2.8563 -1.0107
 6864TIP3   OH242150   5.781   1.660   4.574 -0.0182  0.5043 -0.6977
 6864TIP3    H142151   5.745   1.747   4.556 -0.8163  0.4103  0.3555
 6864TIP3    H242152   5.732   1.601   4.515  1.1442  0.8543 -2.0621
 6865TIP3   OH242153   4.821   2.337   1.828  0.1177  0.0485  0.0152
 6865TIP3    H142154   4.764   2.351   1.753  0.1690  0.2907  0.0227
 6865TIP3    H242155   4.851   2.246   1.818  0.4294  0.1998 -0.4648
 6866TIP3   OH242156   3.917   5.277   4.336  0.3949 -0.0887 -0.0414
 6866TIP3    H142157   3.841   5.231   4.301 -0.8607 -0.4823  2.9557
 6866TIP3    H242158   3.884   5.364   4.359  0.2705 -0.8235  2.9123
 6867TIP3   OH242159   3.880   2.781   4.052  0.3455 -0.3856  0.6108
 6867TIP3    H142160   3.903   2.700   4.098  1.5476 -0.2527  0.2667
 6867TIP3    H242161   3.865   2.845   4.121 -1.9996 -1.2024  0.9605
 6868TIP3   OH242162   1.319   5.354   3.381  0.3298  0.4271  0.1492
 6868TIP3    H142163   1.294   5.442   3.409  0.1040  0.2480  0.5067
 6868TIP3    H242164   1.273   5.341   3.298  2.0487  1.4816 -1.0477
 6869TIP3   OH242165   2.042   2.110   1.714  0.1815 -0.3487  0.7014
 6869TIP3    H142166   2.040   2.021   1.680 -1.0547 -0.7369  1.6845
 6869TIP3    H242167   2.053   2.100   1.808 -1.2003  0.4534  0.9861
 6870TIP3   OH242168   4.007   1.207   1.257 -0.5798 -0.4763 -0.1481
 6870TIP3    H142169   3.956   1.259   1.196  0.0790 -1.3878 -1.5234
 6870TIP3    H242170   3.944   1.144   1.293 -1.1049  0.4624  0.6035
 6871TIP3   OH242171   6.391   0.396   4.871 -0.0301  0.0544 -0.0083
 6871TIP3    H142172   6.414   0.474   4.921  2.5989 -0.6066 -0.0553
 6871TIP3    H242173   6.472   0.346   4.867 -1.6608 -2.7869  0.1569
 6872TIP3   OH242174   5.960   0.746   2.272 -0.1531  0.3436 -0.1040
 6872TIP3    H142175   5.999   0.827   2.239 -1.0673  0.5543 -0.7083
 6872TIP3    H242176   5.966   0.685   2.198  1.5560 -0.5328  0.6995
 6873TIP3   OH242177   0.001   6.507   3.075 -0.6322  0.6412 -0.4270
 6873TIP3    H142178   0.081   6.509   3.128 -0.5886  1.4899 -0.5035
 6873TIP3    H242179  -0.052   6.578   3.110 -2.4289 -1.3878  1.2022
 6874TIP3   OH242180   3.120   4.161   3.047 -0.0377  0.2823  0.6595
 6874TIP3    H142181   3.184   4.141   2.978  0.7573 -1.0184  1.7202
 6874TIP3    H242182   3.080   4.077   3.068 -0.4501  0.7029  1.6030
 6875TIP3   OH242183   1.710   4.787   2.916 -0.9602 -0.1738  0.0039
 6875TIP3    H142184   1.615   4.784   2.928 -1.0594 -0.6540 -0.7641
 6875TIP3    H242185   1.742   4.704   2.953 -0.5854  0.8410  2.0614
 6876TIP3   OH242186   6.341   6.456   1.993 -0.1473  0.4047 -0.1577
 6876TIP3    H142187   6.257   6.438   2.035  0.2418  0.0829  0.4962
 6876TIP3    H242188   6.403   6.400   2.039  0.2302 -0.2417 -1.4106
 6877TIP3   OH242189   3.370   1.514   2.561 -0.3416 -0.3018 -0.8808
 6877TIP3    H142190   3.454   1.550   2.593 -0.1806 -0.9200 -0.6006
 6877TIP3    H242191   3.391   1.477   2.475 -0.6979  1.0394 -1.5690
 6878TIP3   OH242192   2.028   5.726   4.880 -0.7941 -0.5158  0.2103
 6878TIP3    H142193   1.950   5.693   4.925 -1.3928  2.0965  1.3298
 6878TIP3    H242194   2.099   5.674   4.915 -1.8518 -1.9170  0.3647
 6879TIP3   OH242195   4.935   4.622   1.204 -0.5926 -0.1880  0.1416
 6879TIP3    H142196   4.886   4.567   1.143 -1.0534 -1.0056  1.2144
 6879TIP3    H242197   4.869   4.680   1.242 -0.2996  0.3477 -0.1500
 6880TIP3   OH242198   6.338   3.015   1.165  0.1001  0.3088  0.2354
 6880TIP3    H142199   6.420   3.024   1.214 -0.8123 -0.2767  1.9204
 6880TIP3    H242200   6.365   3.019   1.073  1.9217  0.9134  0.7599
 6881TIP3   OH242201   2.441   6.182   3.475  0.5765 -0.1784 -0.4429
 6881TIP3    H142202   2.356   6.220   3.454  0.6034 -0.3792 -0.9263
 6881TIP3    H242203   2.436   6.092   3.442  2.1209  0.7308 -3.5163
 6882TIP3   OH242204   2.675   3.619   2.091 -0.8593  0.2523  0.1122
 6882TIP3    H142205   2.642   3.535   2.123  0.6097 -0.6089 -0.5530
 6882TIP3    H242206   2.720   3.657   2.166 -0.6724 -0.0175  0.1384
 6883TIP3   OH242207   0.034   1.801   2.891  0.1404  0.2112 -0.7424
 6883TIP3    H142208   0.020   1.895   2.896  0.8652  0.3435 -1.1035
 6883TIP3    H242209   0.129   1.791   2.880  0.2687 -0.6179  0.8788
 6884TIP3   OH242210   5.487   1.990   3.438  0.0818 -0.0205 -0.9093
 6884TIP3    H142211   5.438   1.972   3.358 -0.9694  1.4103 -0.6217
 6884TIP3    H242212   5.531   2.073   3.421 -0.5496  0.5614  0.1451
 6885TIP3   OH242213   1.663   3.990   0.143  0.0213 -0.2236 -0.1291
 6885TIP3    H142214   1.636   4.042   0.218  0.1334 -1.8170  1.0811
 6885TIP3    H242215   1.750   4.022   0.121  0.3616 -0.3083  1.0129
 6886TIP3   OH242216   1.451   3.086   0.679  0.3758 -0.1257  0.2216
 6886TIP3    H142217   1.450   3.071   0.585  0.9072 -1.1150  0.3555
 6886TIP3    H242218   1.486   3.004   0.716 -0.8755 -0.1989  1.3523
 6887TIP3   OH242219   4.560   3.713   0.545 -0.4013  0.1353  0.9617
 6887TIP3    H142220   4.508   3.635   0.562 -1.2463 -0.0638 -2.0098
 6887TIP3    H242221   4.651   3.685   0.558 -0.7917 -0.8094  1.7021
 6888TIP3   OH242222   0.383   1.082   2.475  1.0057  0.1230  0.8328
 6888TIP3    H142223   0.347   1.060   2.561 -0.1227 -1.5554 -0.0205
 6888TIP3    H242224   0.369   1.004   2.422 -0.2293  1.7893 -1.5036
 6889TIP3   OH242225   5.153   6.096   3.980  0.0281 -0.1617 -0.2586
 6889TIP3    H142226   5.102   6.148   3.918 -0.7149 -0.5567  0.0065
 6889TIP3    H242227   5.219   6.156   4.014 -0.9719  0.6718  0.2323
 6890TIP3   OH242228   4.409   2.650   4.001 -0.1569  0.1019 -0.5313
 6890TIP3    H142229   4.334   2.624   4.055  1.4711  0.3502  2.0408
 6890TIP3    H242230   4.406   2.746   4.000  0.4880  0.1420  0.2059
 6891TIP3   OH242231   1.661   4.720   3.406 -0.2197  0.2329 -0.0643
 6891TIP3    H142232   1.755   4.712   3.394 -0.1022  1.2004  0.1319
 6891TIP3    H242233   1.644   4.814   3.406 -0.9322  0.1572  1.7357
 6892TIP3   OH242234   5.960   1.792   0.744  0.1680 -0.3926 -0.1236
 6892TIP3    H142235   5.967   1.876   0.699 -0.4210  0.1289  0.7422
 6892TIP3    H242236   5.899   1.741   0.690  0.7637 -0.3927 -0.8161
 6893TIP3   OH242237   3.091   4.492   2.806 -0.3175 -0.4133 -0.5275
 6893TIP3    H142238   3.006   4.449   2.818  0.2316 -0.9947  2.0797
 6893TIP3    H242239   3.092   4.561   2.872  0.7595  0.4168 -1.3801
 6894TIP3   OH242240   0.601   4.044   1.429  0.3548 -0.1006  0.0236
 6894TIP3    H142241   0.684   3.997   1.423  1.5798  2.0395 -0.8915
 6894TIP3    H242242   0.586   4.079   1.341 -1.3951 -0.2116  0.2330
 6895TIP3   OH242243   5.876   3.205   2.546 -0.4934 -0.3335  0.4216
 6895TIP3    H142244   5.950   3.156   2.511 -0.0302  1.0794 -0.6579
 6895TIP3    H242245   5.811   3.204   2.477 -0.5932  0.3144  0.4996
 6896TIP3   OH242246   6.696   0.579   0.717  0.2528 -0.3540  0.4683
 6896TIP3    H142247   6.685   0.661   0.669 -0.5410 -0.1032  1.0472
 6896TIP3    H242248   6.606   0.552   0.739  0.4486 -1.7258 -0.2714
 6897TIP3   OH242249   0.636   1.171   2.385 -0.3427  0.0653  0.4491
 6897TIP3    H142250   0.683   1.088   2.396 -1.0276 -0.3104  0.6297
 6897TIP3    H242251   0.557   1.161   2.438 -0.4557  0.8238  0.4385
 6898TIP3   OH242252   3.602   4.473   2.645 -0.5648 -0.3186 -0.3178
 6898TIP3    H142253   3.676   4.535   2.642  0.5466 -1.4857  1.4473
 6898TIP3    H242254   3.531   4.522   2.687  0.0754  0.0005  0.4119
 6899TIP3   OH242255   4.105   5.257   1.504 -0.8618 -0.1877  0.3691
 6899TIP3    H142256   4.135   5.201   1.432 -0.0484  0.3513  0.2719
 6899TIP3    H242257   4.164   5.235   1.576 -0.3904  0.6820  0.2651
 6900TIP3   OH242258   1.393   0.109   0.027 -0.0983  0.2213  0.2636
 6900TIP3    H142259   1.472   0.163   0.029  1.1392 -1.4992  2.0515
 6900TIP3    H242260   1.411   0.042  -0.038  0.0160 -0.2923  0.8171
 6901TIP3   OH242261   2.651   2.484   1.101 -0.2967  0.2344 -0.6688
 6901TIP3    H142262   2.729   2.518   1.057  0.3617  0.0307  0.3150
 6901TIP3    H242263   2.625   2.553   1.162  0.9826 -0.8736  1.2603
 6902TIP3   OH242264   0.527   4.457   4.074  0.4712  0.3937 -0.1675
 6902TIP3    H142265   0.533   4.396   4.147 -0.3311 -0.4470 -0.7801
 6902TIP3    H242266   0.529   4.544   4.115  0.8322 -0.0493  0.7755
 6903TIP3   OH242267   3.353   0.067   2.653 -0.0075 -0.1647 -0.2041
 6903TIP3    H142268   3.336   0.110   2.569 -0.0255 -0.2967 -0.2680
 6903TIP3    H242269   3.345  -0.026   2.634  1.8526 -0.3199 -0.5054
 6904TIP3   OH242270   2.174   0.594   2.988  0.3602 -0.5758 -0.0275
 6904TIP3    H142271   2.171   0.529   2.918 -2.3725  0.2903 -0.8434
 6904TIP3    H242272   2.198   0.676   2.944 -1.3983 -0.0216 -0.0069
 6905TIP3   OH242273   5.131   0.901   2.858 -0.0584 -0.1427  0.1293
 6905TIP3    H142274   5.161   0.988   2.883  1.5784 -0.8389  0.7512
 6905TIP3    H242275   5.169   0.843   2.924 -0.4895 -1.4099 -0.6964
 6906TIP3   OH242276   6.083   2.987   1.309 -0.3153  0.1002 -0.1542
 6906TIP3    H142277   6.157   2.983   1.249 -0.0557 -0.2042  0.1850
 6906TIP3    H242278   6.057   3.079   1.309  0.7267  0.4011  0.5387
 6907TIP3   OH242279   1.307   3.573   2.932  0.3381 -0.2390  0.2663
 6907TIP3    H142280   1.280   3.658   2.898  1.0549 -0.0840  0.0608
 6907TIP3    H242281   1.311   3.585   3.027 -1.1751 -0.5273  0.3795
 6908TIP3   OH242282   3.841   0.590   2.347 -0.1977 -0.1445 -0.2501
 6908TIP3    H142283   3.836   0.646   2.425  0.5809 -0.8554  0.3218
 6908TIP3    H242284   3.822   0.502   2.379  1.4314 -0.6512 -0.5989
 6909TIP3   OH242285   6.280   1.020   3.823 -0.5379 -0.1313 -0.6884
 6909TIP3    H142286   6.373   0.998   3.817 -0.2962  0.6084  0.2694
 6909TIP3    H242287   6.241   0.946   3.870  0.3648  1.5212  3.0288
 6910TIP3   OH242288   2.434   1.753   2.130  0.7965  0.4450 -0.3171
 6910TIP3    H142289   2.505   1.789   2.076  2.0462 -1.1349  0.1981
 6910TIP3    H242290   2.473   1.742   2.216  0.2482 -1.4030 -0.2675
 6911TIP3   OH242291   0.265   3.236   1.428  0.0287 -0.0946  0.1124
 6911TIP3    H142292   0.234   3.321   1.460  0.1472 -0.2285  0.5899
 6911TIP3    H242293   0.252   3.240   1.333  0.4219  0.6161  0.0857
 6912TIP3   OH242294   2.597   5.288   3.197 -0.4154 -0.3202 -0.1219
 6912TIP3    H142295   2.636   5.224   3.138 -1.0980  1.3071 -2.4523
 6912TIP3    H242296   2.646   5.369   3.181  0.1816 -0.0712  2.4757
 6913TIP3   OH242297   5.090   3.999   2.055 -0.4885  0.0052 -0.6340
 6913TIP3    H142298   5.147   3.938   2.102  0.2719  1.1589 -0.0199
 6913TIP3    H242299   5.147   4.073   2.033 -1.3834  0.4896 -1.3937
 6914TIP3   OH242300   5.024   0.330   3.846  0.1552  0.3192 -0.0539
 6914TIP3    H142301   5.108   0.289   3.868 -0.2709 -0.2395  0.5850
 6914TIP3    H242302   4.985   0.271   3.783  0.0280  0.3195  0.0243
 6915TIP3   OH242303   2.530   4.192   0.377 -1.0630  1.0018  0.3700
 6915TIP3    H142304   2.547   4.227   0.290 -0.9484  0.1308  0.0382
 6915TIP3    H242305   2.510   4.100   0.363  1.4507  0.1821  1.4623
 6916TIP3   OH242306   1.388   0.736   3.409  0.3229  0.3948 -0.8906
 6916TIP3    H142307   1.323   0.730   3.339 -0.0239  1.3844 -0.6725
 6916TIP3    H242308   1.409   0.829   3.414 -0.6731  0.5647  1.2067
 6917TIP3   OH242309   0.159   0.578   8.752  0.7453 -0.5290 -0.5253
 6917TIP3    H142310   0.095   0.601   8.684  0.6315 -0.0265 -0.2541
 6917TIP3    H242311   0.125   0.620   8.832  2.9620  2.4522 -0.9559
 6918TIP3   OH242312   6.526   2.878   0.549  0.6911  0.5553  0.0820
 6918TIP3    H142313   6.473   2.888   0.470  0.4790  1.4737  0.3222
 6918TIP3    H242314   6.467   2.841   0.614  0.7924  0.0537 -0.1071
 6919TIP3   OH242315   3.983   1.536   3.125  0.7374 -0.3268  0.7528
 6919TIP3    H142316   4.019   1.507   3.041  1.7333  0.7157  0.7977
 6919TIP3    H242317   3.898   1.574   3.103  2.2555  2.7676 -0.3174
 6920TIP3   OH242318   6.071   0.742   1.004  0.4008  0.9701  0.2736
 6920TIP3    H142319   5.981   0.754   1.034  0.3589  2.6871 -0.4269
 6920TIP3    H242320   6.065   0.676   0.935 -0.5982  2.2238 -0.8874
 6921TIP3   OH242321   5.820   1.504   4.819 -0.1454 -0.9902  0.1422
 6921TIP3    H142322   5.839   1.416   4.785 -0.9202 -0.7178 -1.0450
 6921TIP3    H242323   5.786   1.552   4.744 -0.6992  0.0311  1.0182
 6922TIP3   OH242324   3.560   2.584   0.921 -0.6500  0.6531  0.5532
 6922TIP3    H142325   3.519   2.516   0.974  1.7046 -0.0359  1.6241
 6922TIP3    H242326   3.613   2.537   0.856  0.1957  1.4382  0.6400
 6923TIP3   OH242327   1.052   2.393   0.818 -0.5883 -0.2904 -0.3670
 6923TIP3    H142328   1.032   2.305   0.850  0.1308 -0.6587 -0.9037
 6923TIP3    H242329   0.967   2.436   0.810 -0.8840 -0.5902  0.8556
 6924TIP3   OH242330   5.623   0.105   1.911  0.0974  0.2332 -0.6422
 6924TIP3    H142331   5.713   0.088   1.940 -0.0671 -0.5552 -0.5761
 6924TIP3    H242332   5.569   0.051   1.969 -0.3688  0.1478 -1.1523
 6925TIP3   OH242333   3.361   4.567   2.728 -0.0684 -0.2190  0.1165
 6925TIP3    H142334   3.385   4.605   2.813 -0.1901 -0.3116  0.1912
 6925TIP3    H242335   3.278   4.522   2.743  0.0446 -0.4649  0.0128
 6926TIP3   OH242336   0.655   2.721   2.426  0.3390  0.3488 -0.1030
 6926TIP3    H142337   0.611   2.666   2.361  1.8710  1.4799 -2.2231
 6926TIP3    H242338   0.627   2.810   2.404  0.7155  0.7427  0.9569
 6927TIP3   OH242339   0.759   2.829   8.778  0.2948  0.0971  0.0278
 6927TIP3    H142340   0.815   2.756   8.808 -2.8424 -1.4953  2.7414
 6927TIP3    H242341   0.815   2.906   8.786  2.6696 -1.5480  0.6627
 6928TIP3   OH242342   2.645   4.673   3.600 -0.2799  0.0550 -0.1676
 6928TIP3    H142343   2.668   4.764   3.614  2.5085 -0.2146 -2.0906
 6928TIP3    H242344   2.715   4.623   3.643  0.9026 -0.9643 -3.0079
 6929TIP3   OH242345   6.701   4.653   3.406  0.0601  0.2732 -0.1146
 6929TIP3    H142346   6.653   4.635   3.487  0.7721  0.2292  0.3047
 6929TIP3    H242347   6.792   4.659   3.433  0.4531 -0.8398 -1.0713
 6930TIP3   OH242348   0.551   3.706   1.607  0.5750 -0.0034  0.2217
 6930TIP3    H142349   0.645   3.707   1.627  0.6139 -1.0304  0.1245
 6930TIP3    H242350   0.517   3.783   1.652  1.5501  0.7059 -0.1986
 6931TIP3   OH242351   3.078   1.925   0.594 -0.1472 -0.4196  0.6721
 6931TIP3    H142352   3.108   1.940   0.505  0.2917 -0.2230  0.8495
 6931TIP3    H242353   3.004   1.865   0.585 -0.4902  0.0774  0.1304
 6932TIP3   OH242354   6.749   1.865   4.177 -0.0169  0.5139  0.4159
 6932TIP3    H142355   6.699   1.809   4.236 -0.2964 -0.9237 -1.0774
 6932TIP3    H242356   6.813   1.908   4.233  0.4134 -1.5591  1.6436
 6933TIP3   OH242357   4.284   0.053   1.434  0.3914 -0.6958  0.0685
 6933TIP3    H142358   4.283   0.023   1.343  1.6775 -0.1801 -0.1407
 6933TIP3    H242359   4.365   0.104   1.441 -0.3458  0.3718  1.1553
 6934TIP3   OH242360   6.733   1.635   3.540  0.2685 -0.1890  0.7770
 6934TIP3    H142361   6.756   1.609   3.451 -2.1170  2.0041 -0.6206
 6934TIP3    H242362   6.715   1.553   3.585 -3.2680 -1.3445 -2.2627
 6935TIP3   OH242363   4.110   3.580   3.264 -0.3007 -0.2029  0.4416
 6935TIP3    H142364   4.046   3.650   3.274 -0.8601 -0.8222  1.3114
 6935TIP3    H242365   4.058   3.500   3.257  0.3442 -0.5898 -0.1596
 6936TIP3   OH242366   5.216   0.627   1.584  0.1021 -0.2230  0.5271
 6936TIP3    H142367   5.255   0.630   1.671  0.4358 -2.1998  0.4979
 6936TIP3    H242368   5.228   0.536   1.556  0.2222  0.4126 -1.6850
 6937TIP3   OH242369   2.153   0.254   0.670  0.5585  0.2477 -0.0660
 6937TIP3    H142370   2.095   0.321   0.634  1.4979  0.3249 -1.5282
 6937TIP3    H242371   2.175   0.285   0.758 -0.0953  1.1574 -0.2145
 6938TIP3   OH242372   0.458   3.162   1.840  0.7341  0.3818 -0.3672
 6938TIP3    H142373   0.470   3.257   1.831  0.3388  0.3526 -1.2172
 6938TIP3    H242374   0.427   3.151   1.930 -0.7202  1.2223 -0.7347
 6939TIP3   OH242375   6.773   6.311   4.603  0.2688  0.3654 -0.1168
 6939TIP3    H142376   6.782   6.406   4.601  0.4804  0.3408 -0.4048
 6939TIP3    H242377   6.845   6.280   4.657  1.0125  0.2785 -1.1301
 6940TIP3   OH242378   6.462   4.503   2.437 -0.0673 -0.0479 -0.5345
 6940TIP3    H142379   6.506   4.580   2.402 -0.1087  1.7832  2.9967
 6940TIP3    H242380   6.369   4.516   2.417  0.0344  0.3724 -0.7258
 6941TIP3   OH242381   1.008   0.987   2.518  0.2151  0.0375 -0.3276
 6941TIP3    H142382   1.036   0.968   2.608 -1.0303  1.1680  0.3474
 6941TIP3    H242383   1.039   0.913   2.467  0.6058 -0.8365  1.1149
 6942TIP3   OH242384   1.141   3.123   3.428  0.2520 -0.7568  0.3811
 6942TIP3    H142385   1.090   3.168   3.361  1.6602  0.0654 -0.2069
 6942TIP3    H242386   1.101   3.149   3.511 -0.0404  0.1927 -0.0411
 6943TIP3   OH242387   3.276   5.611   0.998 -0.0230 -0.3864  0.0960
 6943TIP3    H142388   3.263   5.615   1.092  0.4700  0.6977  0.1241
 6943TIP3    H242389   3.370   5.598   0.986  0.2211  1.4462 -0.2558
 6944TIP3   OH242390   0.453   4.554   1.035  0.0554  0.3578  0.3094
 6944TIP3    H142391   0.529   4.582   0.984  1.9347 -0.6227  2.4054
 6944TIP3    H242392   0.433   4.628   1.092 -1.6129  1.1907 -1.2393
 6945TIP3   OH242393   6.034   3.043   1.848  0.3626 -0.5659 -0.7051
 6945TIP3    H142394   6.044   2.948   1.856 -1.4280 -0.7603 -0.2329
 6945TIP3    H242395   6.003   3.056   1.758 -0.1671 -0.5202 -0.5192
 6946TIP3   OH242396   0.135   1.664   2.544 -0.5714 -0.5094  0.6574
 6946TIP3    H142397   0.136   1.759   2.546 -1.1479 -0.5139  1.2449
 6946TIP3    H242398   0.221   1.640   2.507 -0.5790  0.2350  0.1435
 6947TIP3   OH242399   4.510   6.436   2.952 -0.3917  0.0544 -0.1074
 6947TIP3    H142400   4.545   6.469   3.035 -0.3506 -1.0945  0.3503
 6947TIP3    H242401   4.545   6.348   2.945  0.1315  0.3676 -1.6830
 6948TIP3   OH242402   2.103   6.306   3.744 -0.5512  0.2279 -0.4370
 6948TIP3    H142403   2.104   6.211   3.752 -0.6685  0.2008 -0.7653
 6948TIP3    H242404   2.118   6.323   3.651  4.4883  0.6213  0.1920
 6949TIP3   OH242405   0.110   3.333   0.526 -0.0955 -0.0456  0.2453
 6949TIP3    H142406   0.193   3.381   0.517  1.1340 -1.6158  2.3201
 6949TIP3    H242407   0.130   3.245   0.496 -0.9413 -0.5020  0.9756
 6950TIP3   OH242408   2.003   1.651   0.509  0.2480 -0.3324 -0.6184
 6950TIP3    H142409   2.048   1.687   0.586 -4.0377 -0.0047  2.0646
 6950TIP3    H242410   2.029   1.709   0.437  1.0830  2.1541  1.5075
 6951TIP3   OH242411   2.240   6.602   4.305 -0.1566 -0.5755 -0.1625
 6951TIP3    H142412   2.245   6.568   4.395  0.3352 -2.3224 -0.7939
 6951TIP3    H242413   2.205   6.690   4.314  0.6903 -0.3941  1.8156
 6952TIP3   OH242414   0.129   1.506   0.455 -0.4502 -0.3140 -0.4306
 6952TIP3    H142415   0.055   1.446   0.443  0.1190 -0.7450 -2.0409
 6952TIP3    H242416   0.203   1.450   0.476 -0.5115  0.1094  1.0599
 6953TIP3   OH242417   0.611   0.600   2.832  0.4403 -0.6088  0.5719
 6953TIP3    H142418   0.529   0.636   2.865  0.9962  0.9506  0.3482
 6953TIP3    H242419   0.643   0.665   2.770  1.1345 -1.8761 -0.4492
 6954TIP3   OH242420   2.868   0.067   1.755  0.2210  0.3138 -0.3645
 6954TIP3    H142421   2.840   0.022   1.676 -0.0018  0.1008 -0.1644
 6954TIP3    H242422   2.859   0.002   1.825 -1.0102  0.9443  0.0818
 6955TIP3   OH242423   6.604   6.368   3.805  0.1035 -0.0371 -0.2869
 6955TIP3    H142424   6.509   6.358   3.800  0.1644 -0.7754 -0.1041
 6955TIP3    H242425   6.632   6.385   3.715  0.1341 -3.1212 -0.9603
 6956TIP3   OH242426   3.923   1.588   2.613  0.1353 -1.0509  0.0141
 6956TIP3    H142427   3.946   1.503   2.651 -1.3658 -0.9020  1.3837
 6956TIP3    H242428   3.829   1.597   2.631  0.2073  0.7714 -0.3540
 6957TIP3   OH242429   1.835   1.234   2.522  0.1806  0.5030 -0.3477
 6957TIP3    H142430   1.876   1.316   2.550  0.8804  1.1173 -2.8708
 6957TIP3    H242431   1.886   1.166   2.565 -1.2085  1.3261  2.8265
 6958TIP3   OH242432   3.366   0.278   3.895 -0.6059 -0.4290  0.3613
 6958TIP3    H142433   3.305   0.350   3.883  0.2485  0.5674  1.7137
 6958TIP3    H242434   3.320   0.202   3.860 -1.7715  0.6476 -0.5523
 6959TIP3   OH242435   3.529   2.495   0.490 -0.2709 -0.2802  0.4672
 6959TIP3    H142436   3.577   2.412   0.479  1.8475  0.6569  2.0103
 6959TIP3    H242437   3.443   2.478   0.450 -0.2510 -3.5009  1.4906
 6960TIP3   OH242438   4.167   2.576   3.156  0.0450  0.0629 -0.4705
 6960TIP3    H142439   4.136   2.577   3.065  0.9006  0.3773 -0.7601
 6960TIP3    H242440   4.176   2.483   3.178 -0.2752 -0.0139 -0.6633
 6961TIP3   OH242441   5.733   0.613   3.353  0.5158 -0.1972  0.6047
 6961TIP3    H142442   5.687   0.650   3.428 -1.1059  1.3550 -1.0650
 6961TIP3    H242443   5.824   0.638   3.366  0.4600 -0.8309  2.5184
 6962TIP3   OH242444   6.606   0.267   0.901  0.2756  0.1359 -0.2247
 6962TIP3    H142445   6.687   0.222   0.876 -0.0403 -0.9310  0.6252
 6962TIP3    H242446   6.572   0.302   0.818  1.5056  0.4582 -0.6166
 6963TIP3   OH242447   2.152   1.969   8.635  0.3226 -0.0324 -0.0566
 6963TIP3    H142448   2.214   2.015   8.580  0.4889 -0.5293 -0.2930
 6963TIP3    H242449   2.103   1.913   8.574 -0.8826  0.9125  0.0079
 6964TIP3   OH242450   3.025   2.378   8.486  0.5212 -0.2791 -0.3272
 6964TIP3    H142451   3.105   2.390   8.538  1.3607 -2.8315 -0.9086
 6964TIP3    H242452   3.008   2.465   8.448  2.3604  0.5924  0.7247
 6965TIP3   OH242453   4.585   6.589   5.516 -0.4019  0.0615  0.0789
 6965TIP3    H142454   4.629   6.545   5.589 -1.0244 -0.7263 -0.0119
 6965TIP3    H242455   4.655   6.603   5.452  0.1046  0.5607  0.7176
 6966TIP3   OH242456   4.191   6.769   4.643  0.6692 -0.3369  0.3811
 6966TIP3    H142457   4.224   6.690   4.600  0.8663  0.3098 -0.6958
 6966TIP3    H242458   4.106   6.785   4.602  0.9592  0.4181  0.0561
 6967TIP3   OH242459   3.935   0.013   2.057 -0.0022  0.2783 -0.3096
 6967TIP3    H142460   3.842   0.018   2.078 -0.1622 -0.7100 -0.7133
 6967TIP3    H242461   3.975  -0.027   2.135  0.6222  3.5366  1.1988
 6968TIP3   OH242462   0.253   2.505   2.115 -0.5638  0.0542  0.0375
 6968TIP3    H142463   0.305   2.434   2.078 -0.4003  0.1879  0.0130
 6968TIP3    H242464   0.162   2.480   2.096 -0.5663 -0.6445  0.8932
 6969TIP3   OH242465   0.642   6.331   1.566  0.6110  0.7855 -0.4442
 6969TIP3    H142466   0.646   6.391   1.491 -1.4957  0.3628 -0.9756
 6969TIP3    H242467   0.653   6.244   1.528  1.2615  0.6769 -0.0127
 6970TIP3   OH242468   1.616   1.748   3.352  0.2616  0.0750  0.1886
 6970TIP3    H142469   1.683   1.804   3.312 -0.5155  0.7085 -0.2647
 6970TIP3    H242470   1.665   1.689   3.408  1.1576  0.8874  0.3001
 6971TIP3   OH242471   0.623   4.233   0.775 -0.3263  0.4984 -0.0310
 6971TIP3    H142472   0.597   4.162   0.716 -0.3419 -1.8989  2.6229
 6971TIP3    H242473   0.554   4.235   0.842  0.5009  1.9391  0.8203
 6972TIP3   OH242474   1.759   3.649   2.915  0.0521 -0.7142  0.6139
 6972TIP3    H142475   1.835   3.688   2.958 -1.0931 -0.7048  2.7989
 6972TIP3    H242476   1.767   3.555   2.931 -0.1705 -0.7607  0.4641
 6973TIP3   OH242477   3.577   3.221   2.708 -0.4447  0.9755 -0.4394
 6973TIP3    H142478   3.559   3.136   2.667  0.3745  1.1731 -1.2256
 6973TIP3    H242479   3.501   3.275   2.685 -0.9717  0.4689  0.0679
 6974TIP3   OH242480   1.740   2.630   3.639 -0.3631  0.1151  0.3320
 6974TIP3    H142481   1.698   2.575   3.706  0.7606 -0.4775  0.5747
 6974TIP3    H242482   1.769   2.707   3.687 -0.1438 -0.0079  0.3983
 6975TIP3   OH242483   4.771   2.379   0.531 -0.2297 -0.6436 -0.1015
 6975TIP3    H142484   4.713   2.430   0.588 -0.3713 -0.7474 -0.1517
 6975TIP3    H242485   4.809   2.444   0.471 -0.6847 -0.6442 -0.3967
 6976TIP3   OH242486   2.666   5.406   2.165 -0.4746 -0.1688 -0.3172
 6976TIP3    H142487   2.583   5.375   2.127  0.2626 -0.9588 -1.3307
 6976TIP3    H242488   2.693   5.334   2.223 -1.4033  0.8702  1.5172
 6977TIP3   OH242489   5.808   4.345   3.018 -0.3049 -0.1360  0.0968
 6977TIP3    H142490   5.741   4.327   3.084 -0.1915 -2.2006 -0.2780
 6977TIP3    H242491   5.891   4.340   3.066 -0.3332  0.6170  0.2230
 6978TIP3   OH242492   0.947   2.527   4.287  0.2192 -0.2352  0.2858
 6978TIP3    H142493   1.026   2.554   4.241  0.5387 -0.5100  0.6616
 6978TIP3    H242494   0.902   2.609   4.308 -0.4508 -0.1414 -1.3879
 6979TIP3   OH242495   0.087   5.761   0.400  0.0672 -0.3823  0.0100
 6979TIP3    H142496   0.113   5.669   0.410  0.5278 -0.1182  1.5824
 6979TIP3    H242497   0.039   5.763   0.317 -0.1619 -2.0897  0.0493
 6980TIP3   OH242498   0.465   5.913   2.165 -0.2017  0.3109  0.0666
 6980TIP3    H142499   0.475   5.946   2.075  2.5905 -1.4550 -0.3848
 6980TIP3    H242500   0.386   5.860   2.162 -0.0206  0.0686 -1.4353
 6981TIP3   OH242501   1.533   2.695   1.133 -0.0164 -0.3144  0.7981
 6981TIP3    H142502   1.572   2.703   1.047 -0.6046  0.3431  0.5788
 6981TIP3    H242503   1.455   2.752   1.130  0.7273  0.8710  2.1941
 6982TIP3   OH242504   5.140   6.789   5.123 -0.2178  0.3801 -0.1727
 6982TIP3    H142505   5.109   6.876   5.097 -0.9272  0.2044  0.0416
 6982TIP3    H242506   5.062   6.734   5.116  0.1779 -0.1938 -0.1027
 6983TIP3   OH242507   4.176   3.347   2.150 -0.9392  0.4877  0.0620
 6983TIP3    H142508   4.111   3.297   2.198  0.7809 -2.5817 -0.5473
 6983TIP3    H242509   4.219   3.401   2.216 -0.9608 -1.0130  1.3528
 6984TIP3   OH242510   2.484   0.498   3.941 -0.1750  0.2093 -0.5762
 6984TIP3    H142511   2.510   0.406   3.947 -0.4464  0.1052 -0.9905
 6984TIP3    H242512   2.457   0.521   4.030  1.8779  0.4885  0.0185
 6985TIP3   OH242513   3.966   3.067   2.023  0.5742 -0.1310  0.0993
 6985TIP3    H142514   4.033   3.017   2.069  1.1323  0.7208  0.2319
 6985TIP3    H242515   4.014   3.114   1.955  0.2236  1.0449  0.6513
 6986TIP3   OH242516   1.466   2.626   2.163 -0.6848 -0.3991  0.0782
 6986TIP3    H142517   1.451   2.667   2.078 -1.3588 -0.1566  0.3055
 6986TIP3    H242518   1.454   2.532   2.147 -0.5393 -0.3791 -0.1507
 6987TIP3   OH242519   0.229   4.740   4.321  0.1222  0.0171  0.3956
 6987TIP3    H142520   0.262   4.655   4.351  1.2303  0.1388 -0.4356
 6987TIP3    H242521   0.216   4.791   4.401 -0.9827 -1.0620  0.9389
 6988TIP3   OH242522   2.857   4.758   4.626 -0.1394  0.3570 -0.8067
 6988TIP3    H142523   2.795   4.695   4.588  0.1663  0.1419 -0.9567
 6988TIP3    H242524   2.943   4.721   4.606  0.0741  1.3279 -1.7719
 6989TIP3   OH242525   2.863   5.413   4.500 -0.5314  0.0100  0.2059
 6989TIP3    H142526   2.851   5.507   4.484  1.4705  0.4486  0.8798
 6989TIP3    H242527   2.934   5.410   4.565 -0.9123 -1.9651  0.5702
 6990TIP3   OH242528   2.311   3.360   2.810  0.4181 -0.0697  0.3494
 6990TIP3    H142529   2.248   3.288   2.801  1.6352 -1.2693  0.9596
 6990TIP3    H242530   2.315   3.400   2.723  1.0798 -1.9689 -0.5634
 6991TIP3   OH242531   4.873   4.833   2.808  0.7738 -0.6387 -0.3174
 6991TIP3    H142532   4.872   4.910   2.751 -2.9986 -1.3082 -1.4159
 6991TIP3    H242533   4.826   4.861   2.887  0.4121 -1.4583 -0.2361
 6992TIP3   OH242534   4.966   5.873   1.521 -0.0249  0.1816  0.3857
 6992TIP3    H142535   4.902   5.936   1.485  0.9392  0.3328 -1.1677
 6992TIP3    H242536   5.051   5.911   1.499  0.6156 -0.3745  1.8019
 6993TIP3   OH242537   2.590   5.787   2.089  0.0546 -0.4219 -0.5635
 6993TIP3    H142538   2.561   5.878   2.093 -0.7346 -0.7054  0.4478
 6993TIP3    H242539   2.593   5.767   1.996 -2.1886 -0.1194 -0.7429
 6994TIP3   OH242540   6.793   5.760   1.505  0.0867  0.6529 -0.0645
 6994TIP3    H142541   6.789   5.707   1.425  0.3093  0.6209 -0.0575
 6994TIP3    H242542   6.853   5.831   1.483  0.4245  0.4499  0.1843
 6995TIP3   OH242543   0.127   5.745   2.437 -0.3457 -0.6506  0.0872
 6995TIP3    H142544   0.068   5.691   2.490  0.9880 -2.8042 -0.5026
 6995TIP3    H242545   0.214   5.726   2.471  0.2909  0.0009 -1.1229
 6996TIP3   OH242546   0.178   3.425   2.508  0.5271 -0.1230 -0.7575
 6996TIP3    H142547   0.245   3.485   2.474  0.3036  0.0569 -0.8863
 6996TIP3    H242548   0.182   3.436   2.603  0.9065 -0.3600 -0.7432
 6997TIP3   OH242549   5.626   0.728   2.101 -0.0763  0.0581 -0.4566
 6997TIP3    H142550   5.694   0.736   2.035  0.6019 -0.7863  0.1091
 6997TIP3    H242551   5.671   0.739   2.185 -0.7159  0.0032 -0.0906
 6998TIP3   OH242552   2.778   0.186   1.060 -0.1853 -0.0552 -0.7459
 6998TIP3    H142553   2.777   0.271   1.104  0.0885 -1.0741  1.3337
 6998TIP3    H242554   2.769   0.122   1.130  0.1390 -1.7916 -2.2011
 6999TIP3   OH242555   4.556   0.920   4.440 -0.3370  0.2803 -0.1383
 6999TIP3    H142556   4.495   0.846   4.446 -2.4278  1.8142 -1.3120
 6999TIP3    H242557   4.564   0.937   4.346  0.5680  1.2069  0.0913
 7000TIP3   OH242558   2.726   4.410   0.998 -0.1080 -0.0370  0.0592
 7000TIP3    H142559   2.781   4.419   0.921 -0.1028 -2.6828 -0.3380
 7000TIP3    H242560   2.659   4.478   0.988  1.5353  1.5319 -0.7596
 7001TIP3   OH242561   5.589   1.668   2.916 -0.0322 -0.0663  0.4830
 7001TIP3    H142562   5.674   1.623   2.919  0.6348  1.0858 -0.6405
 7001TIP3    H242563   5.597   1.732   2.846 -1.6532  0.4655  0.7333
 7002TIP3   OH242564   3.750   4.669   4.916  0.0849 -0.3323  0.5386
 7002TIP3    H142565   3.786   4.591   4.957 -2.9870 -1.3702  1.5505
 7002TIP3    H242566   3.763   4.656   4.822  1.4065 -1.0379  0.7941
 7003TIP3   OH242567   3.873   4.910   3.896 -0.0449  0.5638  0.2987
 7003TIP3    H142568   3.944   4.900   3.959  0.8991  1.5196 -0.5804
 7003TIP3    H242569   3.800   4.860   3.934  0.3164  1.5093  2.3779
 7004TIP3   OH242570   3.029   2.742   3.197  0.0434  0.1566  0.4055
 7004TIP3    H142571   2.984   2.827   3.192 -1.1546 -0.4713  0.2146
 7004TIP3    H242572   3.092   2.753   3.268  0.4613  1.4519 -0.1259
 7005TIP3   OH242573   4.647   2.326   2.418 -0.0233  0.4050 -0.2309
 7005TIP3    H142574   4.574   2.299   2.474  1.1852 -3.5120 -0.2498
 7005TIP3    H242575   4.609   2.339   2.332 -0.8271 -1.3091 -0.1772
 7006TIP3   OH242576   3.128   1.197   1.524 -0.0196 -0.2533 -0.0635
 7006TIP3    H142577   3.210   1.219   1.569  1.2426  0.6217 -2.5754
 7006TIP3    H242578   3.061   1.243   1.574  1.3259  0.9678  0.7141
 7007TIP3   OH242579   3.657   1.298   3.762  0.3855  0.4745  0.6467
 7007TIP3    H142580   3.731   1.343   3.722 -0.2129  0.4480 -0.5308
 7007TIP3    H242581   3.689   1.272   3.848  1.5497  0.9650  0.3872
 7008TIP3   OH242582   6.258   5.449   4.267 -0.3419  0.6188 -0.3051
 7008TIP3    H142583   6.241   5.446   4.361  2.2809 -2.1848  0.2464
 7008TIP3    H242584   6.174   5.428   4.226 -0.8306 -1.4710  1.5904
 7009TIP3   OH242585   0.760   6.566   1.180 -0.4399  0.5465  0.4890
 7009TIP3    H142586   0.837   6.556   1.124 -1.1305  0.8176 -0.5289
 7009TIP3    H242587   0.691   6.595   1.121 -1.7344 -1.1455  1.0918
 7010TIP3   OH242588   4.928   1.407   3.223  0.0218  0.1445 -0.1976
 7010TIP3    H142589   4.923   1.428   3.316 -0.5681  0.5724 -0.3179
 7010TIP3    H242590   5.022   1.408   3.202  0.1561 -0.0065  0.3990
 7011TIP3   OH242591   2.900   3.427   2.952  0.0695  0.2646  0.1900
 7011TIP3    H142592   2.887   3.463   2.864  0.4600 -3.0502 -1.3582
 7011TIP3    H242593   2.817   3.443   2.997  0.1384  2.7320 -0.3950
 7012TIP3   OH242594   2.973   4.094   1.007  0.4141 -0.0442 -0.4275
 7012TIP3    H142595   2.972   4.184   1.039 -1.7049  0.3670 -1.4416
 7012TIP3    H242596   2.927   4.098   0.923 -1.5467 -2.3604  0.4207
 7013TIP3   OH242597   0.217   6.737   0.032  0.3234 -0.9577 -0.0414
 7013TIP3    H142598   0.133   6.783   0.034 -0.0872 -1.6418 -0.7690
 7013TIP3    H242599   0.262   6.771  -0.045  0.4059 -1.1132 -0.0629
 7014TIP3   OH242600   6.303   5.748   4.334 -0.4615  0.3545  0.1848
 7014TIP3    H142601   6.331   5.679   4.275  1.2707 -0.3146  1.7020
 7014TIP3    H242602   6.348   5.827   4.304  0.2907  0.0508  0.4954
 7015TIP3   OH242603   3.571   2.064   4.823 -0.0263 -0.5463 -0.4526
 7015TIP3    H142604   3.636   2.045   4.891  0.1086 -1.3453 -0.8029
 7015TIP3    H242605   3.519   1.984   4.815 -2.7051  0.8087  1.5676
 7016TIP3   OH242606   3.776   1.996   0.647  0.0814 -0.4005  0.0040
 7016TIP3    H142607   3.850   2.045   0.611 -0.6687  1.1432  0.4367
 7016TIP3    H242608   3.725   2.062   0.695 -1.7415 -1.3298 -0.5385
 7017TIP3   OH242609   0.030   4.078   2.564  0.1122  0.1457 -0.6660
 7017TIP3    H142610  -0.039   4.081   2.498 -0.8432 -2.1957  0.1023
 7017TIP3    H242611  -0.011   4.115   2.643  0.2240  0.1043 -0.5878
 7018TIP3   OH242612   6.266   0.191   2.697 -0.0147  0.7742  0.1892
 7018TIP3    H142613   6.295   0.141   2.773 -2.7368 -0.6942  0.3600
 7018TIP3    H242614   6.200   0.251   2.731 -2.9491 -1.4281 -1.1477
 7019TIP3   OH242615   2.782   5.796   1.267 -0.6921 -0.5774 -0.0205
 7019TIP3    H142616   2.699   5.842   1.279 -1.3289 -1.4659 -0.8249
 7019TIP3    H242617   2.776   5.759   1.178  1.4259  1.0741 -0.9321
 7020TIP3   OH242618   5.890   2.684   0.832 -0.2573  0.2536 -0.2276
 7020TIP3    H142619   5.975   2.726   0.846 -1.1206  1.9673  0.1101
 7020TIP3    H242620   5.868   2.707   0.741  0.2675 -1.4220 -0.8148
 7021TIP3   OH242621   2.545   0.916   0.385  0.2078 -0.0034  0.2066
 7021TIP3    H142622   2.515   0.857   0.316  0.2556 -0.3982  0.5220
 7021TIP3    H242623   2.464   0.949   0.425  0.1764 -1.4426  1.3758
 7022TIP3   OH242624   0.161   2.382   8.411  0.3576  0.2468  0.3932
 7022TIP3    H142625   0.211   2.309   8.376 -1.1158 -0.2015 -0.8724
 7022TIP3    H242626   0.194   2.459   8.364 -0.4167 -0.1088 -0.7522
 7023TIP3   OH242627   5.161   1.369   3.109 -0.0806 -0.4392 -0.5969
 7023TIP3    H142628   5.226   1.428   3.071  0.3488 -0.7159 -0.2998
 7023TIP3    H242629   5.196   1.282   3.095  0.3792 -0.5286  0.9465
 7024TIP3   OH242630   3.122   5.010   3.689 -0.3690  0.1934  0.1621
 7024TIP3    H142631   3.159   5.095   3.711 -3.0088  1.1097  1.5609
 7024TIP3    H242632   3.070   4.986   3.765 -0.6882 -2.1086 -0.6986
 7025TIP3   OH242633   0.737   2.061   2.770 -0.0194  0.5173 -0.2304
 7025TIP3    H142634   0.714   2.065   2.677 -2.2351  0.7732  0.2746
 7025TIP3    H242635   0.763   2.151   2.792 -2.0451  1.1187 -0.0639
 7026TIP3   OH242636   2.192   4.452   1.758  0.9135  0.1476  0.0692
 7026TIP3    H142637   2.243   4.374   1.780  2.0816  0.6675 -0.6909
 7026TIP3    H242638   2.169   4.440   1.666 -3.4558 -1.7548  1.1554
 7027TIP3   OH242639   4.559   3.325   0.612  0.6455  0.1981 -0.4575
 7027TIP3    H142640   4.526   3.339   0.523  3.8924 -0.6146 -1.9700
 7027TIP3    H242641   4.531   3.236   0.634  0.9695 -0.1249 -1.2901
 7028TIP3   OH242642   3.970   2.550   1.799  0.3987 -0.3754 -0.2200
 7028TIP3    H142643   3.919   2.493   1.857  0.7198  0.2392  0.6799
 7028TIP3    H242644   3.929   2.636   1.808  1.3706  0.0512  0.2423
 7029TIP3   OH242645   3.807   3.586   8.649 -0.3595  0.4957 -0.7193
 7029TIP3    H142646   3.838   3.674   8.627 -0.0048  0.3398 -0.8487
 7029TIP3    H242647   3.713   3.596   8.661 -0.3362  0.8719 -0.8445
 7030TIP3   OH242648   3.975   6.765   1.393  0.2783 -0.0621  0.1019
 7030TIP3    H142649   4.064   6.771   1.430 -0.2410 -0.5685  1.5015
 7030TIP3    H242650   3.947   6.676   1.413  0.0667 -0.4719 -1.8464
 7031TIP3   OH242651   3.390   1.786   2.310  0.8469 -0.0495 -0.2955
 7031TIP3    H142652   3.406   1.788   2.216 -0.1527 -0.3236 -0.4788
 7031TIP3    H242653   3.418   1.698   2.337 -0.4137 -0.5717 -0.6362
 7032TIP3   OH242654   6.021   3.656   1.766  0.1044 -0.0998  0.3358
 7032TIP3    H142655   6.022   3.577   1.712 -2.1169 -0.0139  0.0872
 7032TIP3    H242656   6.022   3.623   1.856  0.1919 -0.3636  0.2413
 7033TIP3   OH242657   0.092   3.615   4.053 -0.0349  0.5775  0.1781
 7033TIP3    H142658   0.123   3.667   4.127  0.7753  0.9404 -0.4065
 7033TIP3    H242659   0.089   3.676   3.979 -1.3248  0.3474  0.0052
 7034TIP3   OH242660   1.388   5.613   4.476 -0.4262 -0.0199 -0.0286
 7034TIP3    H142661   1.374   5.575   4.562 -0.5087  1.5772  0.7020
 7034TIP3    H242662   1.448   5.686   4.491 -0.0444 -0.0136 -1.4066
 7035TIP3   OH242663   0.599   1.170   3.661  0.5571  0.2847 -0.1098
 7035TIP3    H142664   0.546   1.235   3.614  1.9225  0.9400 -0.8082
 7035TIP3    H242665   0.597   1.199   3.752 -0.4631  0.1582 -0.0798
 7036TIP3   OH242666   6.165   5.471   4.541 -0.1943  0.0722  0.7017
 7036TIP3    H142667   6.198   5.399   4.594  0.5857  0.6333  0.9889
 7036TIP3    H242668   6.225   5.543   4.557 -1.3870  1.0395  1.0015
 7037TIP3   OH242669   4.549   5.725   1.106 -0.1723  0.2649  0.1736
 7037TIP3    H142670   4.596   5.767   1.178 -0.1638 -0.8195  0.8240
 7037TIP3    H242671   4.469   5.776   1.097  1.0135  2.0497 -0.8445
 7038TIP3   OH242672   6.638   1.672   3.019  0.6631  0.2259 -0.2320
 7038TIP3    H142673   6.653   1.652   3.112 -0.7152 -1.7231 -0.3589
 7038TIP3    H242674   6.715   1.722   2.993  0.0934  2.7615  2.4699
 7039TIP3   OH242675   4.015   6.366   1.845  0.1381  0.1639  0.0407
 7039TIP3    H142676   4.006   6.435   1.779 -0.2723  1.1951  1.1244
 7039TIP3    H242677   3.927   6.354   1.880  0.3621 -0.2967  0.4627
 7040TIP3   OH242678   3.991   4.699   4.035 -0.2930  0.7233 -0.5443
 7040TIP3    H142679   3.899   4.689   4.009 -0.9579 -2.2494  2.3580
 7040TIP3    H242680   3.988   4.755   4.112  0.4727  1.3036 -0.9216
 7041TIP3   OH242681   4.531   2.726   2.352 -0.1811 -0.1892  0.1315
 7041TIP3    H142682   4.573   2.722   2.439 -0.5384  0.6915  0.3625
 7041TIP3    H242683   4.534   2.819   2.330 -0.2074 -0.3962 -0.7546
 7042TIP3   OH242684   6.615   4.263   2.453 -0.0972  0.4486  0.6381
 7042TIP3    H142685   6.571   4.347   2.439 -0.4373  0.0168 -1.1402
 7042TIP3    H242686   6.544   4.199   2.463  0.1309  0.1420  0.3482
 7043TIP3   OH242687   4.028   1.577   0.827  0.0590  0.8890  0.0308
 7043TIP3    H142688   3.970   1.518   0.778  0.1440  0.6694  0.1906
 7043TIP3    H242689   3.976   1.657   0.839 -0.0970  0.8089 -0.0976
 7044TIP3   OH242690   1.490   2.049   4.483 -0.2785  0.0138  0.2506
 7044TIP3    H142691   1.536   2.094   4.412 -0.2747  0.2455  0.3991
 7044TIP3    H242692   1.536   2.075   4.562  0.4395 -1.1449  0.2468
 7045TIP3   OH242693   4.188   6.286   2.061 -0.2586  0.4025 -0.0303
 7045TIP3    H142694   4.195   6.339   1.982  0.2732  1.3256  0.6146
 7045TIP3    H242695   4.251   6.215   2.047 -1.6913 -0.6863 -1.3267
 7046TIP3   OH242696   1.509   2.201   2.897 -0.7250  0.3389  0.0677
 7046TIP3    H142697   1.481   2.212   2.988  0.9266  0.2608  0.6193
 7046TIP3    H242698   1.430   2.215   2.845 -1.5709  0.9635  1.4847
 7047TIP3   OH242699   4.148   4.521   0.500  0.3713  0.1339  0.2616
 7047TIP3    H142700   4.146   4.500   0.593  1.4109  0.5002  0.3782
 7047TIP3    H242701   4.236   4.497   0.472 -1.0421 -3.7497 -1.5828
 7048TIP3   OH242702   2.803   1.190   3.797 -0.7624  0.0354  0.0297
 7048TIP3    H142703   2.742   1.263   3.808 -0.2763  0.3917  0.3909
 7048TIP3    H242704   2.813   1.181   3.702  0.4599  1.5239 -0.0018
 7049TIP3   OH242705   0.413   5.790   0.836  0.4182  0.1749 -0.1638
 7049TIP3    H142706   0.397   5.867   0.891  1.0989 -0.8313  1.5001
 7049TIP3    H242707   0.368   5.719   0.881 -0.4413 -0.3939 -1.8385
 7050TIP3   OH242708   5.638   0.921   1.353  0.2889 -1.1427  0.2344
 7050TIP3    H142709   5.673   0.860   1.418 -1.8944 -1.1520  1.4991
 7050TIP3    H242710   5.661   1.008   1.387 -0.0244 -1.1746  0.5367
 7051TIP3   OH242711   3.367   0.486   2.572 -0.3709 -0.0557 -0.5512
 7051TIP3    H142712   3.431   0.523   2.512 -1.3637  0.4262 -1.3455
 7051TIP3    H242713   3.405   0.403   2.600  1.2951  0.9043  0.2137
 7052TIP3   OH242714   4.310   0.831   2.865 -0.5637  0.2019 -0.2325
 7052TIP3    H142715   4.225   0.866   2.839 -0.3327  0.5632 -0.4997
 7052TIP3    H242716   4.289   0.755   2.919 -1.0648  0.5619  0.0883
 7053TIP3   OH242717   3.244   3.072   1.509 -0.7433  0.2371 -0.1334
 7053TIP3    H142718   3.203   3.003   1.457 -0.5726 -1.6966  2.1190
 7053TIP3    H242719   3.173   3.106   1.565  0.0380 -1.2809  1.8996
 7054LIG     O142720   5.983   5.645   2.319  0.2036 -1.0102  0.5610
 7054LIG     O242721   6.244   5.691   2.292 -0.4750 -0.5678  0.3231
 7054LIG     O342722   5.946   5.564   2.013 -0.0126 -0.2370  0.2910
 7054LIG     O442723   6.407   5.576   2.412 -0.3418  0.2095 -0.3688
 7054LIG     O542724   6.212   5.351   2.281  0.0827 -0.6934 -0.0717
 7054LIG     O642725   6.393   5.383   2.050 -0.1971 -0.3644  0.1383
 7054LIG     O742726   6.637   5.540   2.132  0.5226  0.0646  0.5150
 7054LIG     O842727   6.507   5.823   2.439  0.5667 -0.4505  0.2257
 7054LIG     O942728   6.573   5.830   2.223 -0.0571 -0.3256  0.4133
 7054LIG      N42729   5.762   6.071   2.447  0.1463 -0.6941 -0.0436
 7054LIG     C142730   5.939   5.860   2.399  0.1866 -0.8500  0.2219
 7054LIG     C242731   6.001   6.003   2.399  0.2550 -0.5276 -0.0531
 7054LIG     C342732   6.038   5.744   2.414  0.8829  0.5692 -0.7776
 7054LIG     C442733   5.893   6.088   2.358  0.8917 -0.3164  0.2925
 7054LIG     C542734   5.810   5.844   2.486 -0.0494 -0.7006 -0.1121
 7054LIG     C642735   5.876   5.847   2.259 -0.1818 -0.0109  0.2755
 7054LIG     C742736   5.837   6.089   2.210 -0.3417 -0.7941  0.0965
 7054LIG     C842737   5.702   5.945   2.440  0.2082  0.2007  0.0104
 7054LIG     C942738   6.184   5.784   2.384 -0.4610  0.9455 -0.0100
 7054LIG    C1042739   5.836   5.948   2.163  0.4629  0.5938 -0.8399
 7054LIG    C1142740   6.118   6.005   2.300 -0.3243 -0.2115 -0.2324
 7054LIG    C1242741   5.922   5.719   2.208 -0.4210 -0.3178 -0.2035
 7054LIG    C1342742   6.212   5.907   2.302 -0.0977  0.9477 -0.4743
 7054LIG    C1442743   5.779   6.131   2.577  0.4549  0.6976  0.9083
 7054LIG    C1542744   5.844   5.921   2.029  0.1133 -0.3229 -0.4405
 7054LIG    C1642745   5.902   5.689   2.069  0.0506 -0.0841  0.2078
 7054LIG    C1742746   5.866   5.788   1.981  0.2234 -0.1974  0.1373
 7054LIG    C1842747   6.279   5.568   2.341 -0.2458 -0.6233 -1.2742
 7054LIG    C1942748   6.272   5.475   2.229 -0.1618  0.6567  0.3541
 7054LIG    C2042749   6.412   5.441   2.177  0.4881 -0.8156  0.1815
 7054LIG    C2142750   6.505   5.562   2.181  0.2034  0.0846 -0.2191
 7054LIG    C2242751   6.515   5.614   2.328  0.0798  0.1198  0.5230
 7054LIG    C2342752   6.531   5.763   2.318  0.1201 -0.4252  0.0160
 7054LIG     H142753   6.031   6.025   2.503 -1.4982 -0.8590  0.5669
 7054LIG     H242754   6.017   5.698   2.513  0.8079  2.8127  0.3007
 7054LIG     H342755   5.925   6.194   2.368 -0.3792  0.0292  0.8456
 7054LIG     H442756   5.847   5.854   2.591  1.1204 -0.7339 -0.5058
 7054LIG     H542757   5.772   5.741   2.471 -1.0964 -0.3654  0.1871
 7054LIG     H642758   5.907   6.140   2.141 -1.4600 -1.9272 -1.9478
 7054LIG     H742759   5.735   6.132   2.205  0.4489  1.2600  0.7112
 7054LIG     H842760   5.650   5.922   2.345 -1.7165  2.3675  0.4497
 7054LIG     H942761   5.623   5.947   2.518  1.0694 -0.6750  0.9347
 7054LIG    H1042762   6.241   5.798   2.478 -0.2773  4.3036 -0.4944
 7054LIG    H1142763   6.152   6.103   2.265  2.1139 -0.4028  1.3672
 7054LIG    H1242764   6.301   5.911   2.237 -0.6363 -3.2613 -1.7805
 7054LIG    H1342765   5.684   6.177   2.614 -0.2179  0.3982 -0.3913
 7054LIG    H1442766   5.864   6.201   2.583  0.8119  0.4892 -1.0588
 7054LIG    H1542767   5.809   6.054   2.651  4.9137  0.7595 -0.5544
 7054LIG    H1642768   5.827   6.005   1.964  1.1349  1.2483  1.2377
 7054LIG    H1742769   5.851   5.761   1.877 -2.1991 -0.6700  0.5371
 7054LIG    H1842770   6.207   5.535   2.419  0.3639 -2.1755 -1.3480
 7054LIG    H1942771   6.199   5.514   2.156  1.1803 -2.4053 -2.9236
 7054LIG    H2042772   6.457   5.370   2.250  0.8561 -0.0352  0.7335
 7054LIG    H2142773   5.950   5.572   1.917 -1.9228  0.2226  0.2150
 7054LIG    H2242774   6.463   5.635   2.109 -1.3498 -0.6267 -0.0629
 7054LIG    H2342775   6.609   5.576   2.375 -0.4521 -1.6592  0.2335
 7054LIG    H2442776   6.188   5.305   2.200 -0.7388  0.9556 -0.7977
 7054LIG    H2542777   6.471   5.332   2.028 -1.2690 -1.0971 -2.3303
 7054LIG    H2642778   6.623   5.538   2.037  0.1097 -0.0071  0.5749
 7054LIG    H2742779   6.523   5.917   2.450 -1.1107 -0.4229  3.2187
   6.79786   6.79786   8.86409
